# Region type : patch plate
# Faces        : 200
# Area         : 6.7000000e-01
# Scale factor : 1.0000000e+00
# Time         	areaAverage(T)
100            	6.4500000e+02
200            	6.4500000e+02
300            	6.4500000e+02
400            	6.4500000e+02
500            	6.4500000e+02
600            	6.4500000e+02
700            	6.4500000e+02
800            	6.4500000e+02
900            	6.4500000e+02
1000           	6.4500000e+02
1100           	6.4500000e+02
