# Region type : patch plate
# Faces        : 200
# Area         : 6.7000000e-01
# Scale factor : 1.0000000e+00
# Time         	areaAverage(T)
4000           	6.0090504e+02
4100           	5.9982302e+02
4200           	6.0284074e+02
