/*--------------------------------*- C++ -*----------------------------------*\
| =========                 |                                                 |
| \\      /  F ield         | OpenFOAM: The Open Source CFD Toolbox           |
|  \\    /   O peration     | Version:  2312                                  |
|   \\  /    A nd           | Website:  www.openfoam.com                      |
|    \\/     M anipulation  |                                                 |
\*---------------------------------------------------------------------------*/
FoamFile
{
    version     2.0;
    format      ascii;
    arch        "LSB;label=32;scalar=64";
    class       volScalarField;
    location    "4950";
    object      alphat;
}
// * * * * * * * * * * * * * * * * * * * * * * * * * * * * * * * * * * * * * //

dimensions      [1 -1 -1 0 0 0 0];

internalField   nonuniform List<scalar> 
12000
(
2.736056e-05
0.0001461179
0.0001596901
0.0001817369
0.0002026168
0.0001962131
0.0001717943
0.0001663927
0.0001969459
0.0002198591
0.000181888
0.0001575448
0.0001779427
0.0002148082
0.0001871697
0.0001520529
0.0001617073
0.0002066275
0.0001951176
0.0001519583
0.0001506321
0.0001884618
0.0001946779
0.0001570625
0.0001485927
0.000171436
0.0001814444
0.0001617646
0.0001537075
0.0001604534
0.0001644153
0.0001648291
0.0001637049
0.0001578088
0.0001504847
0.0001492753
0.0001647412
0.0001836086
0.000165779
0.0001346028
0.0001282334
0.0001617551
0.0002160717
0.0001662551
0.0001144351
0.0001128586
0.0001691389
0.0002607743
0.0001390997
9.630279e-05
0.0001242519
0.0001974629
0.0001432945
9.771265e-05
0.0001078951
0.0001164483
9.570388e-05
7.338172e-05
6.51753e-05
5.32975e-05
1.663245e-05
0.0001891702
0.0002120206
0.0002486609
0.0002873207
0.0003202893
0.0003685414
0.0004259597
0.0004833482
0.0005317515
0.0005939335
0.0006774929
0.0007471605
0.0007967446
0.0008646747
0.0009647125
0.001048203
0.001085955
0.001141013
0.001250631
0.001350955
0.001383622
0.001418586
0.001520018
0.001626298
0.001665265
0.001689582
0.001761936
0.001844471
0.001886238
0.001910816
0.001934586
0.001957508
0.001987649
0.002009177
0.002013686
0.001991108
0.001957857
0.001956142
0.001956266
0.001937362
0.001862781
0.001772334
0.001391964
0.001491146
0.001621084
0.00148473
0.001358742
0.0009472786
0.001192167
0.001061115
0.0009148514
0.0007810136
0.0006819347
0.0005561169
0.0004259918
0.0002960253
0.000180474
9.237864e-05
5.078769e-05
2.415199e-05
0.000232277
0.0003258616
0.0003980823
0.0004940545
0.0005985658
0.0007195323
0.0008512885
0.0009905798
0.001129618
0.001270787
0.001417412
0.001558808
0.001693845
0.001830261
0.001966673
0.002092276
0.002206031
0.002318862
0.002431094
0.002532502
0.002620574
0.002705957
0.002790322
0.002865694
0.002929046
0.002987515
0.003043253
0.003089466
0.00313145
0.003165459
0.00319342
0.003217305
0.003236438
0.003248872
0.003253993
0.003252779
0.003245646
0.00323227
0.003211304
0.003183393
0.003148093
0.003102818
0.003048896
0.002978738
0.002897986
0.002810924
0.002517348
0.002347278
0.002259592
0.002212863
0.001849621
0.001654513
0.001371896
0.001155211
0.001068973
0.0007434787
0.0004128107
0.000152123
4.99349e-05
2.714882e-05
0.0002590527
0.0004061423
0.0005257331
0.0006822903
0.0008561564
0.001047571
0.001249365
0.001456063
0.00166438
0.001872554
0.002076773
0.002232997
0.002450994
0.002619155
0.002777931
0.002925181
0.003060751
0.003186279
0.003302092
0.003408534
0.003506166
0.003596036
0.003678336
0.003753073
0.003820654
0.003881587
0.003934904
0.003983971
0.00402544
0.004059944
0.004088021
0.00411029
0.004125645
0.00413339
0.004133245
0.004124953
0.004107972
0.00408167
0.004045344
0.003998274
0.003939552
0.003868152
0.003781202
0.003681481
0.003565891
0.003433177
0.003281673
0.003109165
0.002914731
0.002533718
0.002064281
0.001909688
0.001713018
0.001613536
0.00127835
0.0009223493
0.0005574297
0.0002259943
5.09566e-05
2.745556e-05
0.0002895267
0.0004936429
0.0006655665
0.0008773886
0.00110913
0.001355417
0.001608734
0.001862246
0.002111561
0.002352098
0.002583653
0.002804464
0.00300954
0.003196075
0.003366442
0.00352414
0.003669157
0.00380296
0.003925948
0.004039391
0.004144172
0.004240819
0.004329749
0.00441137
0.004485973
0.004553633
0.004613891
0.004668426
0.004714792
0.004753845
0.004786139
0.004811217
0.004828477
0.00483747
0.004837741
0.004829399
0.004811864
0.004784521
0.004746754
0.004697963
0.004637489
0.004564624
0.004478241
0.004377101
0.004260201
0.004126109
0.003972593
0.003799072
0.003383321
0.002920912
0.002859495
0.002696794
0.002408416
0.00206584
0.001654956
0.001192203
0.0007094849
0.0002775794
5.078457e-05
2.806873e-05
0.0003110053
0.000571068
0.0007883916
0.001041644
0.001315925
0.001602439
0.001892698
0.002178643
0.002454573
0.002715547
0.00296072
0.003190067
0.003404766
0.003605527
0.003790223
0.003960573
0.004119125
0.004264993
0.004399374
0.004523436
0.00463812
0.004744131
0.004841999
0.004932094
0.005014618
0.005087427
0.005156066
0.005216022
0.005267658
0.005311325
0.005346544
0.005373224
0.005390875
0.005399091
0.005397117
0.005384904
0.005361858
0.005327472
0.005281064
0.005221914
0.005149238
0.005062143
0.004959631
0.004840598
0.004701787
0.004545077
0.004368536
0.004169184
0.00394092
0.003678221
0.003379021
0.003045329
0.002675805
0.002266903
0.001816421
0.001327994
0.0008156629
0.0003342938
5.107932e-05
2.897964e-05
0.0003203194
0.0006365898
0.0008942441
0.001178312
0.001481148
0.001792107
0.002102247
0.00240464
0.002695356
0.002971717
0.003232909
0.003479653
0.003708248
0.003920383
0.004117222
0.004298799
0.00446552
0.004621179
0.004766563
0.00490222
0.0050287
0.005146438
0.005255721
0.005356688
0.005449355
0.005533225
0.005609583
0.005676784
0.005734613
0.005783191
0.005822034
0.005851209
0.005870087
0.005878229
0.005875212
0.005860756
0.005834233
0.00579523
0.005743296
0.005677897
0.005598389
0.005503987
0.005393761
0.005266452
0.005121189
0.004955433
0.004769015
0.004555201
0.004310604
0.004033237
0.00372058
0.003368586
0.002972495
0.002528137
0.002033186
0.001489739
0.0009144204
0.0003738021
5.112044e-05
2.973668e-05
0.0003283486
0.0006892561
0.0009812258
0.001285304
0.001603099
0.001927455
0.002251948
0.002571247
0.002876616
0.003165947
0.003437738
0.003690723
0.003928135
0.004149751
0.004357329
0.004552364
0.004735003
0.004906095
0.005066531
0.005217021
0.005358115
0.005490095
0.005612895
0.00572635
0.005828112
0.005922487
0.006007534
0.006082887
0.006148156
0.006202637
0.00624591
0.006278191
0.00629874
0.006307042
0.006302687
0.006285291
0.006254438
0.006209719
0.006150698
0.006076887
0.005987708
0.005882468
0.005760184
0.005619879
0.005460355
0.005278193
0.005071871
0.004837839
0.004573625
0.004276127
0.00394189
0.003566838
0.003146995
0.002678809
0.002160132
0.001592793
0.0009906635
0.0004146873
5.125824e-05
3.162132e-05
0.0003322231
0.0007253159
0.001046726
0.001366031
0.001697656
0.002033615
0.002366255
0.002688705
0.002999949
0.003296738
0.003577671
0.003842554
0.004092201
0.00432735
0.004548895
0.00475853
0.004957489
0.005145886
0.005323323
0.005489619
0.005644482
0.005789066
0.00592463
0.006050849
0.006166899
0.006274318
0.006370308
0.006454716
0.006527231
0.006587457
0.006635113
0.006670231
0.006692092
0.006700154
0.006693986
0.006673207
0.006637448
0.006586326
0.006519403
0.006436317
0.006336754
0.006220352
0.006086818
0.00593324
0.005758841
0.005561764
0.005341106
0.005094022
0.004817229
0.004506029
0.00415777
0.003766806
0.003328324
0.002837684
0.002291831
0.001692311
0.001054387
0.0004434044
5.128468e-05
3.084132e-05
0.0003487223
0.0007548567
0.001099474
0.001432977
0.00176913
0.002107719
0.002443016
0.002770334
0.003086972
0.003390889
0.003681064
0.003957336
0.004220117
0.004470062
0.004707929
0.004933356
0.005146352
0.005347308
0.005539084
0.005721594
0.005895104
0.006058579
0.006210882
0.00634992
0.006479956
0.006598059
0.006703742
0.00679655
0.006876034
0.006941738
0.006993362
0.007030756
0.007053255
0.007060336
0.007051574
0.007026629
0.006985232
0.006927192
0.006851209
0.006756941
0.006644249
0.006512654
0.0063615
0.006192446
0.00600308
0.005791736
0.005556305
0.005294264
0.00500296
0.004679741
0.004317258
0.003909463
0.003453797
0.002945491
0.002381696
0.001763888
0.001106094
0.000471257
5.131243e-05
3.029696e-05
0.0003475463
0.0007668278
0.001132343
0.001475114
0.001815604
0.00215613
0.002493497
0.002824174
0.003145596
0.003456142
0.003755014
0.004041989
0.004317143
0.004580655
0.004831124
0.005071039
0.005301371
0.005522796
0.005733438
0.005933492
0.006122786
0.006300864
0.006467192
0.006620126
0.006761856
0.006890421
0.007005281
0.007105907
0.00719178
0.007262399
0.007317411
0.007356485
0.007378914
0.007384151
0.007371727
0.007341227
0.007292265
0.007224472
0.007138745
0.007034829
0.006912055
0.00676994
0.006607913
0.006425233
0.006220074
0.005993786
0.005743751
0.00546779
0.005162686
0.004824148
0.004448014
0.004030826
0.003562851
0.003040244
0.002459894
0.001823196
0.001144969
0.000490172
5.127858e-05
3.434932e-05
0.0003288123
0.0007664775
0.001156217
0.001511115
0.001855373
0.002196119
0.002533115
0.002864428
0.003188324
0.003503638
0.003809689
0.00410613
0.004392769
0.004668533
0.004935494
0.005192184
0.005438664
0.005674908
0.005900597
0.006115417
0.006318797
0.006510314
0.006689435
0.006854999
0.00700763
0.007146002
0.007269431
0.007377268
0.007468893
0.007543706
0.007601195
0.007640955
0.007662592
0.007665728
0.007649984
0.007615
0.00756044
0.007485992
0.007391353
0.007276316
0.007140741
0.006984505
0.006807423
0.006609258
0.00638915
0.006147909
0.005883902
0.005595605
0.005280178
0.004933009
0.004548174
0.004119271
0.003641765
0.003108244
0.002516667
0.001868193
0.001177178
0.0005076751
5.124707e-05
3.388644e-05
0.0003282679
0.000761537
0.00116282
0.001526179
0.00187317
0.002213847
0.002550662
0.002883224
0.003210421
0.003531082
0.003844291
0.004149316
0.004445355
0.004732003
0.005007408
0.005209607
0.00537089
0.005622966
0.005908172
0.006227083
0.006478694
0.006685155
0.006877957
0.007056134
0.007219358
0.007366597
0.007497138
0.007610523
0.007706291
0.007783969
0.007843158
0.007883436
0.007904244
0.007905112
0.007885624
0.007845416
0.007784186
0.00770169
0.007597745
0.007472224
0.007325053
0.00715616
0.006965453
0.006752914
0.006518496
0.006254122
0.005938526
0.005664684
0.005362103
0.005009305
0.004619614
0.004185745
0.003700795
0.003160429
0.002559901
0.001900852
0.001198478
0.0005182793
5.118469e-05
3.394138e-05
0.0003205086
0.0007516362
0.001163493
0.001534785
0.001885337
0.002226623
0.002563011
0.002895357
0.0032232
0.00354568
0.003861673
0.004169469
0.004466324
0.004597413
0.004679388
0.004789807
0.004960012
0.005203866
0.005499321
0.005810899
0.006075576
0.006345408
0.006619541
0.0068983
0.00720175
0.007514835
0.007677359
0.007795674
0.007895584
0.007976323
0.008037294
0.008077998
0.008097916
0.008096583
0.008073595
0.00802863
0.007961444
0.007871865
0.00775978
0.00762509
0.007467857
0.007288345
0.007022572
0.006675071
0.006335222
0.006006017
0.005725664
0.00553064
0.005359096
0.005057648
0.004667714
0.004232215
0.003744401
0.003198661
0.002591972
0.00192612
0.00121627
0.0005278083
5.114977e-05
3.444318e-05
0.0003113489
0.0007369977
0.001155013
0.001535256
0.001890788
0.002233799
0.002570257
0.002902257
0.003229923
0.003552322
0.003867624
0.004173072
0.004309707
0.004408492
0.004538963
0.004689549
0.004861019
0.005032988
0.005236839
0.005471759
0.005758297
0.0060585
0.00636579
0.006682443
0.006971149
0.007235599
0.007486794
0.007731773
0.00796353
0.008119698
0.008182349
0.008223631
0.008242944
0.008239836
0.00821392
0.008164911
0.008092644
0.00799708
0.007878326
0.007660124
0.007398503
0.007109175
0.006789862
0.00643744
0.006090328
0.005793409
0.005551412
0.005357058
0.005212388
0.005070331
0.004699446
0.004263707
0.003773884
0.003224843
0.002613619
0.00194222
0.001226394
0.0005325707
5.10757e-05
3.499681e-05
0.0003027737
0.0007215615
0.001144525
0.001531305
0.001891133
0.002235851
0.002572351
0.002903541
0.003229941
0.003550645
0.003863788
0.004120656
0.004266591
0.004392188
0.004503911
0.004628604
0.004772311
0.004947339
0.005165702
0.005410879
0.005668306
0.005935669
0.006212115
0.006492982
0.006778196
0.007045685
0.00728573
0.007500811
0.007702105
0.007901948
0.008113595
0.008178962
0.008119744
0.008087826
0.008043144
0.00797574
0.007879692
0.007752563
0.00759212
0.007395554
0.007162462
0.006894655
0.006596153
0.006276519
0.005950823
0.005636733
0.005376181
0.005206336
0.005115776
0.005021398
0.004720177
0.004285286
0.003794766
0.00324384
0.002629768
0.00195486
0.001235025
0.0005367053
5.102884e-05
3.547438e-05
0.0002952472
0.0007055325
0.001129608
0.001520868
0.001885239
0.002232308
0.002569121
0.002899237
0.003223774
0.003542311
0.003853439
0.004145238
0.004283787
0.004374736
0.004467977
0.004587808
0.004744878
0.004939814
0.005143379
0.005370693
0.005609676
0.005868254
0.006137259
0.006406757
0.00666638
0.00690717
0.007125151
0.007322115
0.007506265
0.007695847
0.007927231
0.008008346
0.007928406
0.007873588
0.007823643
0.007760369
0.007674322
0.007558949
0.007408577
0.007219814
0.006993377
0.006733019
0.006443797
0.006135732
0.005826771
0.005540167
0.005298808
0.005120226
0.005016204
0.00494039
0.004734427
0.004301076
0.003810292
0.003257751
0.002641314
0.001963848
0.00124077
0.0005389681
5.096606e-05
3.5852e-05
0.0002890351
0.0006901154
0.001113654
0.00150947
0.001877246
0.002225927
0.002562757
0.002891611
0.003214068
0.003530126
0.003838705
0.004108444
0.004253455
0.004361313
0.004472025
0.004601165
0.004751146
0.004923169
0.005130399
0.005364491
0.005614914
0.005858228
0.006108271
0.006358079
0.00660012
0.006825548
0.007028443
0.007209563
0.007380005
0.00756799
0.007828691
0.007943626
0.007853376
0.007776721
0.007712228
0.007643202
0.007555041
0.007438319
0.007287748
0.007100868
0.006877827
0.006621377
0.006337125
0.006034714
0.005729182
0.005441775
0.005199291
0.005027865
0.004937202
0.004888599
0.004742518
0.004310368
0.003819751
0.003266615
0.002649015
0.001969464
0.001244833
0.0005407568
5.091402e-05
3.617074e-05
0.000283573
0.00067595
0.001096917
0.001494444
0.001864672
0.00221571
0.002553128
0.002881099
0.003201683
0.003515335
0.003821344
0.004100843
0.004253262
0.004366129
0.004479129
0.004610471
0.004767766
0.004952671
0.005163488
0.005385301
0.005622617
0.005871358
0.006122296
0.006368288
0.006602665
0.006818918
0.007013677
0.007189227
0.007354853
0.007525748
0.00771746
0.007928015
0.007921549
0.007759464
0.007666736
0.007588549
0.0074958
0.007374772
0.007219511
0.007028211
0.006801941
0.006544223
0.006261264
0.00596287
0.005663434
0.005381996
0.005141758
0.00496637
0.004869153
0.004825836
0.004725144
0.004314749
0.003824331
0.003270451
0.002651637
0.001971245
0.001245524
0.0005410077
5.086622e-05
3.640723e-05
0.0002793726
0.0006632013
0.001080252
0.001478696
0.001851841
0.002203939
0.002541602
0.002868845
0.003187921
0.003499691
0.003803964
0.004099871
0.004279068
0.004408784
0.004535333
0.004676022
0.004837919
0.005022225
0.005225478
0.005450389
0.005688897
0.005937405
0.006182437
0.006420845
0.006646446
0.006853317
0.007038177
0.00720343
0.007359088
0.007521526
0.007707036
0.007926522
0.007941686
0.007776277
0.007662681
0.007564263
0.007457209
0.007326537
0.007164468
0.006968447
0.006739509
0.006481363
0.006200253
0.005905522
0.005610586
0.005333442
0.005097036
0.004925535
0.004833496
0.004798979
0.004711738
0.004317737
0.003827513
0.00327332
0.002653976
0.001972947
0.001246569
0.00054173
5.081791e-05
3.663821e-05
0.0002761447
0.0006522581
0.001065075
0.001462951
0.001837219
0.002190849
0.002528942
0.002855756
0.003173833
0.003484439
0.003787893
0.004083443
0.004327476
0.00447844
0.004616303
0.004764754
0.004931958
0.005120083
0.005327307
0.005550602
0.005784575
0.006024453
0.006263441
0.006495331
0.00671317
0.006911198
0.007086117
0.007239568
0.007380439
0.007525896
0.007699997
0.007931681
0.007968988
0.007799966
0.007665913
0.00754778
0.007426156
0.007285316
0.007116039
0.006915016
0.006683191
0.00642443
0.00614502
0.005853986
0.005563945
0.005291591
0.005058624
0.004888629
0.004797177
0.004765785
0.004689024
0.004318038
0.003828111
0.003273618
0.002653764
0.00197234
0.001246322
0.0005413661
5.075756e-05
3.679017e-05
0.0002738222
0.0006427433
0.001050537
0.001447263
0.001822186
0.002176865
0.002515639
0.002842499
0.00316021
0.003470387
0.003773761
0.004070893
0.00436082
0.004568685
0.004723902
0.004882431
0.005055376
0.00524492
0.005450969
0.005670014
0.005899442
0.006133494
0.006366368
0.006589567
0.006797547
0.006985076
0.007148852
0.007289789
0.007415833
0.007544588
0.007704174
0.007931405
0.007983658
0.007821064
0.007673757
0.007539238
0.007403205
0.007251446
0.007074553
0.006868663
0.006634376
0.006375414
0.00609789
0.005810431
0.005524989
0.005257399
0.005028694
0.004862135
0.004773567
0.004745751
0.004675844
0.004318116
0.003828167
0.003273278
0.002652957
0.001971362
0.00124541
0.0005410718
5.07143e-05
3.700015e-05
0.0002730678
0.0006357318
0.001038305
0.00143303
0.001807741
0.002163013
0.002502423
0.00282965
0.00314751
0.003457848
0.003761706
0.004059574
0.004352289
0.004639995
0.004852097
0.005020219
0.005198028
0.005390384
0.005594858
0.005809336
0.006032718
0.006259353
0.006482599
0.006695665
0.006893373
0.007070735
0.007224405
0.007354174
0.00746502
0.007570628
0.007700829
0.007914444
0.008025993
0.007874856
0.007677649
0.007527666
0.00738326
0.007223809
0.00704005
0.006829087
0.006591994
0.006332545
0.006056653
0.005772524
0.005491484
0.005228539
0.005004002
0.004840681
0.004754534
0.004729354
0.004664614
0.004317266
0.003827184
0.003271886
0.002651181
0.001969634
0.001244052
0.0005403015
5.065664e-05
3.71593e-05
0.0002722752
0.0006297254
0.001027432
0.001419593
0.001793993
0.002149739
0.002489846
0.002817729
0.003136199
0.003447263
0.003752235
0.004051937
0.004346919
0.004637406
0.004923554
0.005182709
0.005363578
0.005549697
0.005752971
0.005967297
0.006184964
0.006401585
0.006612589
0.00681454
0.007001471
0.007168132
0.007311323
0.007431661
0.007535049
0.007633046
0.007740716
0.007868897
0.008002627
0.007932295
0.007710702
0.007535321
0.00737277
0.007201525
0.00701008
0.006794268
0.006554702
0.006294972
0.006020757
0.005739866
0.005463073
0.00520472
0.004984567
0.004825041
0.004741999
0.004719588
0.004658322
0.004316554
0.003826104
0.003270286
0.002649222
0.001967504
0.001242354
0.0005395447
5.062521e-05
3.714522e-05
0.0002734761
0.0006264955
0.001018812
0.001408046
0.001781414
0.002137447
0.002478308
0.002807097
0.003126561
0.003438803
0.003745305
0.004047063
0.004344721
0.004638667
0.004929131
0.00521623
0.005499652
0.005743968
0.005936412
0.006135736
0.006345978
0.006556775
0.006759532
0.006950128
0.007125372
0.00728063
0.007412477
0.00752094
0.00761128
0.00769447
0.007784083
0.007887668
0.008005677
0.007946463
0.007730843
0.007545118
0.00736831
0.007184869
0.006984817
0.006763746
0.006521705
0.006261806
0.005989307
0.00571156
0.00543883
0.005184907
0.004969099
0.004813493
0.00473376
0.004714054
0.004655176
0.00431593
0.003824904
0.003268426
0.002646887
0.001965135
0.001240502
0.0005386194
5.058272e-05
3.717755e-05
0.000274878
0.0006233116
0.001011273
0.001398067
0.00177072
0.002126768
0.002468336
0.002798196
0.003118976
0.0034328
0.00374124
0.004045393
0.00434597
0.00464338
0.004937771
0.005229031
0.005516752
0.005800234
0.006078413
0.006333295
0.006529639
0.006719833
0.006910385
0.007090099
0.007255993
0.007400345
0.00752095
0.00761787
0.00769476
0.0077596
0.007824573
0.007905689
0.008012783
0.007960029
0.007749521
0.007554418
0.007364921
0.007170547
0.006962699
0.006736889
0.006492725
0.006232863
0.005962117
0.005687394
0.005418518
0.005168861
0.004957388
0.004805905
0.004729835
0.004713012
0.004655685
0.004315821
0.003823997
0.003266699
0.002644569
0.001962681
0.001238526
0.0005376762
5.056218e-05
3.869624e-05
0.0002711714
0.0006204124
0.00100533
0.001389775
0.001761249
0.002117657
0.002460168
0.002791388
0.003113863
0.003429713
0.003740551
0.004047521
0.004351358
0.004652444
0.004950844
0.005246305
0.005538272
0.005825875
0.006107934
0.006382993
0.006649332
0.006904861
0.007079734
0.007241618
0.007394432
0.007528518
0.007637995
0.007722465
0.007785658
0.007834618
0.007880085
0.007935723
0.008018355
0.007965724
0.007763835
0.007562889
0.007363217
0.007159167
0.006944051
0.006713738
0.006467579
0.006207804
0.005938767
0.005666928
0.005401709
0.005156157
0.00494897
0.004801717
0.004729506
0.004715565
0.004658992
0.004316326
0.003823537
0.003265306
0.00264251
0.001960433
0.001236674
0.0005367385
5.053534e-05
4.039423e-05
0.0002727156
0.00061676
0.001001699
0.001383456
0.001753978
0.002110533
0.002454142
0.002787051
0.00311167
0.003430068
0.003743854
0.004054176
0.004361754
0.004666919
0.004969639
0.005269532
0.005565888
0.005857679
0.006143577
0.006421988
0.006691084
0.006948771
0.007192997
0.007419873
0.00755804
0.007670106
0.007763803
0.007835589
0.007885265
0.007917246
0.007939637
0.007966617
0.008023208
0.00798557
0.007789775
0.007567196
0.007358641
0.007148407
0.00692805
0.006694005
0.00644608
0.006186426
0.005919021
0.005649892
0.00538811
0.005146493
0.004943535
0.004800581
0.004732351
0.004721237
0.004664794
0.004318011
0.003823777
0.003264373
0.002640704
0.001958282
0.001234802
0.0005357632
5.052896e-05
4.127214e-05
0.0002766026
0.0006064204
0.001000406
0.001379354
0.001748903
0.002105827
0.002450745
0.002785714
0.003112975
0.00343451
0.003751884
0.004066202
0.004378126
0.004687897
0.00499536
0.005299987
0.005600903
0.005896913
0.006186531
0.006468029
0.006739438
0.006998746
0.007243743
0.007472474
0.007682255
0.007819058
0.007899161
0.007954998
0.007991326
0.008010786
0.008018555
0.00801893
0.008010179
0.007978136
0.007821151
0.007579956
0.007358284
0.007139465
0.006913549
0.006676256
0.006427105
0.006167985
0.005902498
0.005636226
0.005377867
0.005140078
0.004941237
0.004802543
0.004738335
0.004729972
0.004672947
0.004320089
0.003824818
0.003264151
0.002639615
0.001956665
0.001233261
0.0005349139
5.051714e-05
4.136189e-05
0.0002800211
0.0005973075
0.001000368
0.001376461
0.001745337
0.00210303
0.00244986
0.002787553
0.003118173
0.003443602
0.00376533
0.004084384
0.004401326
0.004716275
0.005028926
0.005338586
0.005644211
0.005944437
0.006237635
0.006521849
0.006795208
0.007055558
0.007300707
0.007528837
0.007737156
0.007924023
0.008042736
0.00809059
0.008110572
0.008112649
0.008100802
0.008077475
0.008040311
0.00798481
0.007826909
0.007589099
0.007361249
0.007134819
0.006903133
0.006662617
0.006412496
0.006154013
0.005890108
0.005625989
0.005370372
0.005136016
0.004941204
0.004806909
0.004747028
0.00474163
0.004683688
0.004323273
0.003826435
0.003264545
0.002638939
0.001955392
0.001231869
0.0005340861
5.051446e-05
4.125546e-05
0.0002833386
0.0005896062
0.0009874482
0.001376573
0.001744608
0.002103378
0.002452658
0.002793442
0.003128013
0.003458058
0.003784904
0.004109435
0.004432063
0.004752744
0.005070996
0.005385947
0.005696387
0.006000684
0.006296901
0.00658348
0.006858228
0.007118992
0.007363714
0.007590133
0.007796281
0.007980319
0.008140597
0.00823972
0.008252567
0.008234433
0.008198392
0.008146839
0.008081647
0.008002409
0.007837055
0.007600141
0.007366956
0.007134066
0.006897239
0.006653505
0.006401895
0.006143678
0.005881747
0.00562064
0.005368319
0.005137288
0.004946078
0.004815422
0.004759203
0.004756138
0.004696894
0.004327782
0.003829223
0.003265874
0.002638992
0.001954659
0.001230932
0.0005334473
5.051123e-05
4.158127e-05
0.0002864778
0.0005829163
0.0009747893
0.001378314
0.001745954
0.002106216
0.002458144
0.002803399
0.003142811
0.003478327
0.00381116
0.004142006
0.004471078
0.004798084
0.005122254
0.005442404
0.005756947
0.006064735
0.006363995
0.006652429
0.006927937
0.007188396
0.007431877
0.007656048
0.00785919
0.0080396
0.00819579
0.008326507
0.008386677
0.008363835
0.008308131
0.008231861
0.008137575
0.008027458
0.007849381
0.007613661
0.007376907
0.007138873
0.006897733
0.006652203
0.006401458
0.006145369
0.005883959
0.005622287
0.005370231
0.005141797
0.004953833
0.00482775
0.004776446
0.004777102
0.004715246
0.004333328
0.003832811
0.003267712
0.00263957
0.001954317
0.001230151
0.0005328317
5.052195e-05
4.171401e-05
0.0002899413
0.0005772492
0.0009631306
0.001382857
0.001750552
0.002112638
0.002468186
0.002817956
0.003163585
0.003505973
0.003845696
0.004183307
0.004518669
0.004851524
0.005181207
0.005506492
0.005825957
0.006137421
0.006438976
0.006728558
0.007004067
0.00726343
0.007504807
0.007725983
0.007925398
0.008101525
0.00825306
0.008378936
0.008478331
0.008491984
0.008427606
0.008327767
0.008204301
0.008061522
0.007866742
0.007628779
0.007387497
0.007145591
0.00690215
0.006654763
0.006400306
0.006140188
0.005879759
0.005623828
0.005377472
0.005151853
0.004966258
0.004842534
0.004792746
0.004793738
0.004730439
0.004339791
0.003837357
0.003270526
0.002640957
0.001954644
0.001229883
0.000532555
5.054122e-05
4.218241e-05
0.0002931424
0.0005725156
0.0009528929
0.001388403
0.001757051
0.00212192
0.002481828
0.002837181
0.003188909
0.003537866
0.003884887
0.004230049
0.004573182
0.004913408
0.005249491
0.005580071
0.005903477
0.006217784
0.006520968
0.006810959
0.007085705
0.007343262
0.007581666
0.007799196
0.007994303
0.008165646
0.00831211
0.008432815
0.008527117
0.008594594
0.008543813
0.008428359
0.008277769
0.008101511
0.007887447
0.007645269
0.007399113
0.007151224
0.006901267
0.006648383
0.006395028
0.006140014
0.0058839
0.005629071
0.005383789
0.005160353
0.004977591
0.004855239
0.00480738
0.004810417
0.004745703
0.004347216
0.003842746
0.003274069
0.002642999
0.001955321
0.001229762
0.0005322308
5.055808e-05
4.223881e-05
0.0002968739
0.0005694428
0.000945352
0.001396231
0.001766852
0.002135393
0.002500503
0.002862323
0.003221466
0.003578496
0.003933693
0.004286892
0.004637496
0.004984477
0.005326467
0.00566184
0.005988765
0.00630527
0.006609332
0.006898942
0.007172139
0.007427089
0.007661971
0.007875247
0.008065544
0.008231705
0.008372798
0.008488122
0.008577194
0.008639737
0.008648892
0.008532376
0.008359164
0.008150275
0.007914085
0.007662814
0.007408396
0.007155847
0.00690589
0.006656356
0.006404607
0.006149696
0.00589227
0.005636446
0.005390733
0.005168807
0.004989021
0.004872848
0.004831068
0.004835433
0.004765686
0.004355858
0.003849128
0.003278403
0.002645535
0.001956632
0.001230196
0.0005322771
5.058731e-05
4.253686e-05
0.000300178
0.0005666871
0.000937338
0.001405255
0.001778514
0.002151567
0.002522873
0.002892216
0.003259762
0.003625621
0.003989623
0.004351226
0.004709507
0.005063197
0.005410744
0.005750388
0.006080222
0.006398276
0.006702575
0.006991179
0.00726224
0.007514012
0.007744908
0.007953534
0.008138708
0.008299461
0.008435047
0.008544935
0.008628794
0.008686478
0.008718008
0.008621338
0.008440171
0.008206118
0.007943889
0.007680419
0.007421491
0.007168481
0.006918512
0.006668669
0.006415603
0.006159818
0.005902573
0.005648264
0.005404252
0.005183632
0.005005143
0.004889968
0.004850079
0.004858328
0.004788588
0.004365208
0.003856167
0.003283387
0.00264874
0.001958373
0.001230833
0.0005323626
5.060164e-05
4.367807e-05
0.0003030641
0.0005663714
0.0009332456
0.001411263
0.001794195
0.002173079
0.002551787
0.002929595
0.003306201
0.003681265
0.004054202
0.004424111
0.004789777
0.005149711
0.005502212
0.005845439
0.006177474
0.006496374
0.006800229
0.007087145
0.007355474
0.007603581
0.007830062
0.008033714
0.008213541
0.008368765
0.008498811
0.008603308
0.00868206
0.008735036
0.008762326
0.008701145
0.008522387
0.008269503
0.007983444
0.007707575
0.007442993
0.007186523
0.006934663
0.00668374
0.00643136
0.006176142
0.005919089
0.005664364
0.00542021
0.005200256
0.005023607
0.004911352
0.004874334
0.004882667
0.004808287
0.004375446
0.003863974
0.003288989
0.002652402
0.001960412
0.001231732
0.0005326882
5.063797e-05
4.234296e-05
0.0003119262
0.0005662605
0.000929188
0.001409449
0.001811944
0.00219695
0.002583553
0.002970403
0.003356622
0.003741347
0.00412354
0.00450193
0.004875015
0.005241104
0.00559837
0.005944911
0.0062788
0.006598131
0.006901076
0.007185866
0.007451029
0.007695114
0.007916912
0.008115413
0.008289815
0.008439516
0.008564108
0.008663359
0.008737196
0.008785681
0.008808984
0.008783314
0.008607725
0.008338305
0.008029341
0.00773971
0.007468423
0.007209619
0.006957059
0.006705756
0.006452578
0.006196459
0.005938655
0.00568348
0.005439237
0.005219699
0.005044219
0.004934089
0.00489997
0.004910452
0.004833485
0.004386676
0.003872673
0.003295419
0.002656837
0.001963196
0.001232881
0.0005328281
5.06659e-05
4.154804e-05
0.0003159798
0.0005666404
0.0009250845
0.001406047
0.001832501
0.002224652
0.002620029
0.003016669
0.003413075
0.00380783
0.004199433
0.004586252
0.004966522
0.00533838
0.005699906
0.006049169
0.006384271
0.006703391
0.007004828
0.007287007
0.00754859
0.007788346
0.008005259
0.008198513
0.008367482
0.008511733
0.008631005
0.008725192
0.00879432
0.008838526
0.008858026
0.008853098
0.008681001
0.008398801
0.008072014
0.007771603
0.007494929
0.007233862
0.006980388
0.006728589
0.006474941
0.00621822
0.005959634
0.005703644
0.005458847
0.005239389
0.005064938
0.004956812
0.004924976
0.004935653
0.004851464
0.004398229
0.003881786
0.003302275
0.002661591
0.001966005
0.001234383
0.0005333362
5.071536e-05
4.241104e-05
0.0003134734
0.0005680169
0.0009223648
0.001404849
0.001855962
0.002256262
0.002661204
0.003068216
0.003475177
0.003880112
0.004281073
0.004676088
0.005063164
0.005440299
0.005805522
0.006156918
0.00649267
0.006811084
0.007110402
0.007389656
0.007647431
0.007882717
0.008094693
0.008282727
0.008446369
0.008585333
0.008699485
0.008788824
0.008853456
0.008893576
0.008909433
0.008901314
0.008740666
0.008452496
0.008111784
0.007802973
0.007522488
0.007260242
0.007006559
0.006754535
0.006500286
0.006242601
0.005982853
0.005725722
0.005480073
0.005260404
0.005086779
0.004980678
0.004951147
0.004960961
0.004866166
0.004410316
0.003891401
0.003309576
0.002666775
0.001969313
0.001236059
0.0005338898
5.074717e-05
4.421879e-05
0.0003164894
0.0005707893
0.0009206587
0.001404391
0.001882174
0.002291338
0.002706477
0.003124309
0.003542062
0.003957215
0.00436739
0.004770311
0.005163789
0.00554573
0.005914147
0.00626718
0.00660311