/*--------------------------------*- C++ -*----------------------------------*\
| =========                 |                                                 |
| \\      /  F ield         | OpenFOAM: The Open Source CFD Toolbox           |
|  \\    /   O peration     | Version:  2312                                  |
|   \\  /    A nd           | Website:  www.openfoam.com                      |
|    \\/     M anipulation  |                                                 |
\*---------------------------------------------------------------------------*/
FoamFile
{
    version     2.0;
    format      ascii;
    arch        "LSB;label=32;scalar=64";
    class       volScalarField;
    location    "4950";
    object      ILambda_6_0;
}
// * * * * * * * * * * * * * * * * * * * * * * * * * * * * * * * * * * * * * //

dimensions      [1 0 -3 0 0 0 0];

internalField   nonuniform List<scalar> 
12000
(
3942.426
3948.742
3952.996
3952.001
3946.057
3941.42
3947.644
3970.206
4003.175
4027.176
4014.526
3939.18
3786.745
3560.051
3278.113
2969.478
2663.211
2381.222
2134.379
1922.876
1739.685
1575.178
1421.194
1273.5
1132.414
1001.9
887.7611
795.5375
728.6633
687.2343
667.6123
662.9198
664.3209
662.8281
651.2621
625.9438
587.746
542.2697
499.1073
470.3532
468.6842
505.3999
588.7913
723.0971
908.1516
1139.672
1410.012
1709.15
2025.699
2347.773
2663.652
2962.246
3233.456
3468.482
3660.236
3803.327
3896.582
3933.214
3943.941
3830.945
3971.368
3972.941
3965.547
3953.438
3949.6
3966.786
4003.591
4036.86
4027.277
3935.593
3740.373
3448.032
3090.834
2714.768
2363.639
2066.324
1831.572
1650.648
1505.026
1375.181
1247.233
1115.967
984.3455
860.7047
755.065
675.7318
626.8956
607.5152
611.4742
628.8301
647.8607
657.5229
649.8662
621.9303
576.7301
523.1043
474.438
446.5181
454.9616
512.7322
628.2086
804.1134
1037.394
1319.944
1639.89
1983.118
2334.735
2680.244
3006.364
3301.519
3556.106
3762.673
3916.097
4013.787
4055.92
4045.317
3988.742
3888.448
3783.782
3548.6
3980.095
3966.52
3950.802
3950.612
3978.109
4020.798
4038.51
3980.55
3811.45
3529.284
3167.114
2778.752
2417.614
2119.008
1892.539
1725.499
1593.32
1471.359
1343.408
1204.916
1061.466
924.5006
806.4498
716.8431
660.0574
634.6972
634.2456
648.5719
665.9494
675.2999
668.3744
641.5452
596.8711
542.1803
490.0826
456.0541
455.951
503.4418
607.8581
772.8501
996.0314
1269.569
1581.489
1917.339
2261.874
2600.45
2920.004
3209.585
3460.539
3666.49
3823.266
3928.865
3983.466
3989.447
3951.353
3875.609
3770.698
3642.38
3519.376
3306.387
3965.769
3946.965
3952.289
3991.629
4034.854
4020.075
3889.087
3621.703
3246.948
2828.108
2433.955
2112.543
1878.671
1717.096
1596.241
1484.201
1360.296
1219.208
1068.55
922.845
797.115
702.2325
642.7433
616.8028
617.4177
634.2571
655.6067
670.3089
669.6289
648.9217
608.8488
555.8376
501.5478
461.3105
451.765
488.1371
581.7125
738.0107
955.9921
1228.375
1542.896
1884.155
2235.619
2581.404
2907.558
3202.772
3458.558
3669.082
3830.831
3942.313
4003.853
4017.523
3987.124
3918.121
3817.491
3693.324
3554.56
3408.414
3275.498
3085.593
3940.316
3951.081
4003.238
4037.836
3965.387
3730.485
3347.81
2891.054
2452.111
2099.681
1857.621
1707.461
1607.171
1513.741
1399.455
1257.554
1098.531
941.5337
805.579
703.6492
640.5072
613.4288
614.4006
632.5431
656.1405
674.2342
678.0087
662.1395
626.0237
574.5796
518.2305
471.8211
452.5064
476.9622
558.4986
704.7046
916.1265
1186.216
1502.473
1848.447
2206.098
2558.02
2889.13
3187.628
3445.225
3656.832
3819.944
3933.999
3999.895
4019.735
3996.796
3935.586
3841.904
3722.737
3586.051
3440.282
3293.996
3154.6
3034.856
2895.075
3940.594
4008.91
4023.183
3857.928
3483.682
2980.214
2475.81
2075.089
1818.631
1683.846
1612.786
1545.722
1444.719
1301.223
1130.195
957.6137
808.2531
697.9886
631.6157
604.7435
607.4329
627.6284
653.453
674.4182
682.1289
671.0574
639.5816
591.0387
534.272
483.1703
454.9847
467.6169
536.4376
671.3763
874.9715
1141.816
1459.462
1810.504
2175.285
2534.618
2871.962
3174.737
3434.685
3647.441
3811.633
3927.853
3997.813
4023.85
4008.809
3956.21
3870.529
3757.428
3623.793
3477.522
3327.172
3181.253
3047.909
2934.099
2845.754
2773.727
3993.099
3985.852
3677.304
3123.431
2516.521
2033.53
1749.896
1637.242
1610.601
1583.125
1501.63
1355.924
1168.362
975.0558
808.7794
689.0906
620.4177
595.671
601.8853
625.0704
652.9596
675.8051
686.2079
679.0487
652.0931
607.1645
551.2584
496.8281
460.7183
461.7085
517.1473
639.4981
833.6814
1095.88
1414.066
1770.054
2142.523
2510.259
2854.916
3162.787
3425.398
3639.03
3803.534
3920.881
3993.884
4025.375
4017.946
3974.173
3897.142
3791.003
3661.364
3515.369
3361.435
3208.684
3066.289
2942.488
2844.277
2776.752
2738.235
2747.756
3949.13
3400.753
2614.442
1967.623
1625.49
1547.911
1595.191
1630.893
1578.068
1427.253
1214.79
992.7027
804.7372
674.5197
605.0112
584.8894
596.8591
624.2177
654.1087
677.809
689.5009
685.1271
662.3353
621.6119
567.9207
511.82
469.1855
459.2082
500.9962
609.6351
792.7769
1048.679
1366.192
1726.649
2107.122
2484.19
2837.361
3151.411
3417.328
3631.873
3796.144
3913.681
3988.688
4024.793
4024.561
3989.733
3921.962
3823.735
3699.161
3554.388
3397.546
3238.229
3086.656
2952.632
2844.628
2768.645
2728.2
2723.381
2744.965
2826.652
3087.687
1884.079
1371.054
1362.957
1554.832
1702.28
1691.829
1526.093
1271.671
1007.477
791.9056
651.3817
584.3774
572.6885
593.1694
625.9037
657.5842
680.975
692.4352
689.5692
670.3836
634.2553
584.024
527.9641
480.4257
460.4751
488.6442
582.6144
753.0509
1000.774
1316.046
1680.131
2068.665
2455.927
2818.952
3140.57
3410.82
3626.675
3790.412
3907.276
3983.143
4022.771
4028.993
4002.888
3944.7
3855.134
3736.588
3593.967
3434.904
3269.324
3108.501
2963.798
2845.345
2760.828
2714.692
2707.215
2735.555
2791.144
2862.06
2966.99
501.8817
903.224
1480.206
1848.742
1890.506
1674.567
1339.472
1010.053
760.8815
614.5804
557.7531
560.6714
592.8034
631.4296
663.8494
685.2565
694.815
692.1949
676.0432
644.7875
599.109
544.7204
493.9688
465.2574
480.1265
558.7073
714.8574
952.4058
1263.592
1630.115
2026.471
2424.636
2798.908
3129.721
3405.694
3623.638
3786.847
3902.338
3977.919
4019.84
4031.556
4013.734
3965.304
3885.115
3773.645
3634.295
3473.941
3302.659
3132.704
2977.017
2847.554
2753.734
2701.246
2691.286
2720.507
2780.694
2861.72
2944.993
3026.924
3071.258
1476.94
2271.595
2294.602
1901.814
1398.694
970.8096
691.1849
556.4999
526.461
553.6238
600.0947
643.0758
673.2814
690.0451
695.924
692.626
679.2839
653.3054
613.1808
561.9249
509.5616
473.3783
475.4887
538.2312
678.7128
904.127
1209.233
1576.722
1980.338
2389.873
2776.69
3118.408
3401.707
3622.787
3785.694
3899.208
3973.292
4016.066
4032.02
4021.744
3983.025
3912.836
3809.553
3674.788
3514.361
3338.254
3159.571
2992.824
2851.899
2748.101
2688.602
2675.482
2705.449
2770.141
2857.208
2950.714
3036.256
3088.392
3125.099
3023.225
3334.782
2179.741
1328.695
802.8007
547.5709
475.8133
502.5132
563.9517
622.6771
663.4097
685.1657
693.397
694.0294
689.95
679.9658
660.0681
626.506
579.6292
527.0324
484.586
474.5877
521.284
644.9758
856.461
1153.493
1520.31
1930.366
2351.48
2751.991
3106.334
3398.728
3624.246
3787.33
3898.415
3969.784
4011.797
4030.434
4026.617
3997.25
3937.482
3843.439
3714.649
3555.537
3375.68
3188.838
3011.038
2858.174
2743.611
2676.227
2659.158
2689.389
2758.141
2851.934
2954.075
3046.669
3111.423
3136.113
3095.816
3037.611
2748.268
468.1863
330.9372
344.583
433.0342
535.4777
617.6501
668.2015
690.5489
694.7142
691.0748
686.5831
683.2112
678.159
665.5647
639.5465
598.0441
546.3171
498.6539
477.2019
507.7963
613.7991
809.7519
1096.787
1461.208
1876.659
2309.282
2724.405
3093.007
3396.359
3627.867
3791.926
3900.422
3968.032
4007.676
4027.294
4028.616
4008.007
3958.923
3875.145
3753.834
3597.636
3415.358
3221.141
3032.408
2867.105
2740.83
2664.409
2642.281
2671.908
2744.167
2844.581
2955.119
3056.303
3129.297
3158.041
3129.805
3041.259
2876.298
2706.303
2262.543
654.8654
685.6322
709.7462
719.2039
714.8116
702.1276
687.7624
677.0525
672.6131
673.5169
675.2487
670.7434
652.7376
617.257
567.3378
515.4623
483.2422
497.7618
585.3006
764.2541
1039.465
1399.752
1819.405
2263.21
2693.579
3077.856
3393.971
3633.142
3799.238
3905.288
3968.328
4004.089
4022.917
4027.859
4015.17
3976.847
3904.297
3792.064
3640.619
3457.568
3257.087
3057.801
2879.702
2740.777
2654.061
2625.588
2653.543
2728.614
2835.374
2954.364
3064.541
3145.717
3180.727
3157.098
3068.272
2913.33
2700.797
2428.27
2174.079
1675.447
656.6711
657.7703
656.8339
655.4701
655.0151
656.5037
660.7969
667.7486
674.8145
676.4715
665.524
636.4125
589.5526
534.9114
492.8943
491.434
559.6758
720.1051
981.67
1336.136
1758.811
2213.38
2659.432
3060.581
3391.117
3639.63
3808.989
3912.999
3970.915
4001.416
4017.64
4024.471
4018.551
3990.745
3930.162
3828.533
3683.765
3501.792
3296.399
3087.146
2896.003
2743.484
2645.106
2608.837
2633.893
2710.989
2823.827
2951.478
3071.195
3161.221
3203.243
3184.232
3097.541
2943.252
2727.853
2463.055
2166.312
1847.861
1570.35
1139.634
662.6349
665.13
667.2648
668.9162
670.5835
673.4242
677.6451
680.2446
674.5262
652.8164
611.6396
556.9837
506.9127
489.7015
537.498
677.4369
923.2395
1270.148
1694.782
2159.829
2622.022
3041.129
3387.585
3647.039
3820.967
3923.579
3976.123
4000.237
4012.137
4019.025
4018.465
4000.612
3952.459
3862.821
3726.674
3547.783
3339.047
3120.6
2916.253
2749.136
2637.536
2591.732
2612.353
2690.424
2808.922
2945.429
3075.35
3175.144
3225.124
3211.502
3127.535
2973.759
2757.424
2491.335
2192.17
1878.992
1570.83
1284.593
1050.034
780.0126
666.4301
667.8362
668.3848
669.0381
671.353
675.0654
675.462
663.8492
632.5422
582.1275
526.7849
494.309
520.035
636.6794
863.8691
1201.155
1626.79
2102.345
2581.407
3019.613
3383.345
3655.132
3834.835
3936.786
3983.966
4000.877
4006.95
4012.094
4015.323
4006.579
3971.044
3894.614
3769.044
3595.425
3385.214
3158.666
2941.195
2758.579
2632.135
2574.864
2589.242
2666.963
2790.481
2935.915
3076.686
3187.235
3246.229
3238.894
3158.241
3005.22
2787.928
2520.143
2219.447
1905.274
1596.859
1312.352
1064.846
870.9325
723.3353
644.6765
668.7814
668.8219
669.1408
671.5792
674.9114
672.0642
652.5318
610.4324
553.5482
507.0925
509.0508
598.7212
803.3423
1128.214
1553.814
2040.355
2537.593
2996.392
3378.742
3663.974
3850.341
3952.222
3994.153
4003.316
4002.341
4004.075
4009.434
4008.681
3985.594
3923.294
3810.123
3644.036
3434.456
3201.222
2971.016
2772.211
2629.379
2558.652
2564.841
2640.729
2768.514
2922.915
3075.249
3197.674
3266.908
3266.904
3190.237
3038.195
2819.765
2549.844
2247.042
1931.443
1622.573
1337.842
1091.24
893.6558
748.831
668.9645
618.6787
704.8564
668.7355
668.4844
670.8965
673.5574
666.352
637.397
585.2957
528.8883
506.741
565.3739
742.0526
1050.342
1474.297
1972.644
2490.218
2971.892
3374.519
3674.124
3867.6
3969.628
4006.329
4007.401
3998.503
3995.444
4001.344
4007.28
3996.121
3948.498
3849.286
3692.919
3486.198
3247.94
3005.659
2790.175
2629.478
2543.243
2539.132
2611.511
2742.656
2906.008
3070.679
3206.282
3287.234
3295.882
3224.119
3073.454
2853.781
2581.248
2275.679
1958.025
1648.154
1363.222
1116.683
917.9399
772.2715
682.1657
643.9342
665.4422
698.1113
897.9306
667.2408
669.6386
671.829
659.6334
620.4545
561.338
516.9596
540.3894
681.7875
966.9572
1386.195
1897.105
2438.155
2946.22
3371.581
3686.561
3887.124
3988.92
4020.062
4012.747
3995.395
3986.566
3991.659
4002.95
4002.929
3970.157
3886.155
3741.573
3540.035
3298.678
3045.311
2812.937
2633.044
2529.221
2512.521
2579.438
2712.746
2884.801
3062.455
3212.528
3306.773
3325.56
3259.8
3111.065
2890.148
2614.563
2305.55
1985.146
1673.743
1388.385
1141.884
942.6641
795.1522
700.5275
657.3922
663.2789
711.8029
808.6913
904.1515
1175.156
667.5754
670.4287
653.4311
604.0039
543.6722
528.7523
625.448
877.7523
1286.885
1810.631
2379.377
2919.031
3370.892
3702.669
3909.887
4010.286
4034.897
4018.706
3992.616
3977.494
3980.801
3996.202
4006.317
3988.178
3920.251
3789.3
3595.293
3353.016
3089.934
2840.853
2640.719
2517.344
2485.701
2545.002
2679.002
2859.237
3050.312
3216.032
3325.127
3355.584
3296.999
3150.799
2928.629
2649.471
2336.183
2012.129
1698.445
1412.217
1165.67
966.2442
817.2893
719.1001
669.9724
667.1198
707.1431
786.8709
900.6483
1053.278
1198.268
1517.389
670.046
650.9762
591.9674
539.476
578.882
783.1093
1172.943
1708.967
2311.067
2889.753
3373.652
3724.321
3937.38
4034.277
4050.492
4024.508
3989.52
3968.047
3969.068
3987.568
4006.709
4002.621
3951.201
3835.408
3651.195
3410.334
3139.245
2874.022
2652.927
2508.214
2459.281
2508.672
2641.666
2829.325
3034.086
3216.564
3342.112
3385.919
3335.878
3193.013
2969.727
2686.536
2368.097
2039.358
1722.443
1434.669
1187.777
988.2219
838.1912
736.9774
682.3191
671.4498
701.6939
770.6391
875.8221
1014.743
1182.27
1381.058
1567.142
1916.079
660.4966
590.4104
557.006
685.3738
1037.939
1584.392
2228.796
2857.921
3381.874
3754.142
3971.534
4061.62
4066.521
4029.301
3985.32
3957.895
3956.657
3977.564
4004.609
4013.707
3978.828
3879.404
3707.132
3470.141
3193.036
2912.592
2670.113
2502.438
2433.855
2470.867
2600.882
2794.908
3013.369
3213.577
3357.188
3416.163
3376.282
3237.85
3013.871
2726.411
2402.091
2067.683
1746.567
1456.521
1208.942
1009.337
858.671
755.1025
695.6418
677.3953
698.2144
756.7391
851.9547
982.5049
1145.87
1338.134
1552.038
1785.719
1997.605
2341.913
615.0923
602.6922
869.5867
1418.648
2122.978
2823.779
3400.477
3796.887
4014.839
4092.619
4082.061
4031.895
3979.17
3946.773
3943.818
3966.697
4000.47
4021.595
4002.928
3920.802
3762.532
3531.985
3251.135
2956.723
2692.731
2500.64
2410.055
2432.069
2556.86
2755.867
2987.728
3206.403
3369.568
3445.543
3417.555
3284.83
3060.762
2768.929
2438.036
2096.918
1770.498
1477.277
1228.503
1028.823
877.9571
772.8104
709.4888
684.7816
696.898
745.4348
830.7311
952.8776
1110.673
1300.815
1517.425
1752.334
1994.424
2236.442
2443.802
2728.299
659.5677
1156.052
1963.907
2788.363
3443.002
3863.852
4071.454
4126.05
4094.051
4029.853
3970.075
3934.88
3931.33
3955.767
3994.767
4026.31
4023.131
3959.014
3816.795
3595.44
3313.389
3006.554
2721.157
2503.339
2388.431
2392.75
2509.909
2712.298
2957.044
3194.753
3378.881
3473.712
3459.47
3333.909
3110.543
2814.365
2476.242
2127.285
1794.251
1496.664
1245.87
1045.799
894.9449
788.8692
722.5965
692.3851
696.5986
735.6397
811.1243
924.6106
1076.25
1263.696
1481.496
1721.093
1971.366
2219.704
2452.842
2660.356
2822.711
2990.371
1493.758
2745.576
3556.095
3986.817
4149.469
4156.231
4093.868
4017.565
3956.591
3923.498
3921.292
3946.391
3988.148
4027.623
4038.695
3993.188
3869.268
3660.191
3379.825
3062.358
2755.783
2510.937
2369.328
2353.164
2460.173
2664.225
2921.224
3178.441
3384.901
3500.484
3501.977
3385.249
3163.632
2863.384
2517.56
2159.724
1818.755
1515.522
1261.752
1060.851
910.151
803.8013
735.5682
700.9409
698.1923
728.3326
794.1395
898.624
1043.367
1227.128
1445.028
1688.44
1945.594
2202.709
2445.488
2660.526
2837.155
2966.334
3049.675
3071.74
4155.61
4269.052
4240.67
4151.127
4056.788
3983.704
3937.651
3916.606
3918.439
3941.712
3981.575
4024.813
4048.102
4021.828
3918.989
3725.977
3450.753
3124.741
2797.234
2523.9
2352.992
2313.372
2407.591
2611.515
2880.07
3157.191
3387.268
3525.434
3544.634
3438.464
3219.758
2915.861
2561.994
2194.32
1844.101
1533.885
1276.097
1073.858
923.4465
817.56
748.5364
710.8373
702.3614
724.4787
780.9675
876.2457
1013.391
1192.429
1409.255
1655.388
1918.563
2183.992
2436.055
2660.059
2843.895
2978.971
3062.093
3090.061
3084.446
2980.753
3989.318
3961.558
3939.733
3929.139
3926.442
3927.075
3931.665
3946.248
3975.921
4016.331
4048.757
4042.481
3964.413
3792.407
3526.732
3194.743
2846.54
2542.924
2339.703
2273.342
2352.006
2554.03
2833.523
3130.991
3385.942
3548.432
3587.211
3493.255
3278.615
2971.535
2609.348
2230.91
1870.097
1551.449
1288.424
1084.135
933.959
829.1427
760.4469
721.0466
708.1588
723.2296
770.8387
856.7342
985.5458
1158.73
1373.191
1620.837
1889.114
2162.358
2423.674
2656.979
2848.864
2989.986
3075.937
3107.094
3089.619
3028.061
2954.34
2789.099
3995.07
3990.717
3985.342
3976.146
3964.353
3958.116
3968.487
3999.244
4037.448
4052.126
4003.47
3858.842
3608.469
3273.851
2905.239
2569.04
2329.795
2232.856
2292.966
2491.392
2781.44
3099.93
3381.132
3569.676
3629.813
3549.638
3340.202
3030.481
2659.848
2269.897
1897.291
1568.835
1299.339
1092.194
942.0687
838.7967
771.4463
731.6611
715.6635
724.669
763.8284
840.1156
959.7514
1125.789
1336.392
1584.131
1856.404
2136.829
2407.297
2650.279
2850.972
2998.959
3089.168
3122.078
3103.296
3042.335
2952.281
2843.756
2745.029
2598.921
3989.767
3980.161
3966.847
3953.651
3952.084
3973.4
4014.584
4049.535
4034.115
3924.034
3696.353
3363.808
2975.476
2603.853
2323.849
2191.559
2229.625
2422.759
2723.301
3063.873
3372.948
3589.311
3672.452
3607.436
3404.203
3092.37
2713.284
2311.28
1925.912
1586.463
1309.372
1098.592
948.2897
846.9716
781.9376
743.0861
725.3432
729.3768
760.6532
827.2366
936.9508
1094.598
1299.852
1546.237
1821.369
2108.332
2387.876
2640.983
2851.323
3007.2
3102.723
3138.11
3119.191
3056.277
2962.666
2852.934
2741.519
2640.602
2563.25
2496.979
3980.34
3967.161
3955.183
3959.734
3991.47
4036.903
4053.162
3984.116
3788.881
3465.922
3060.033
2649.9
2323.086
2149.222
2160.857
2346.864
2658.25
3022.547
3361.562
3607.659
3715.33
3666.586
3470.296
3156.73
2769.18
2354.698
1955.769
1604.284
1318.535
1103.291
952.441
853.2845
791.3342
754.5801
736.3831
736.5555
760.6082
817.5273
916.7147
1064.843
1263.332
1506.955
1783.826
2076.707
2365.303
2629.079
2850.043
3015.015
3117.06
3155.934
3137.589
3072.941
2976.167
2862.83
2748.095
2645.304
2564.3
2513.505
2487.415
2515.727
3967.622
3955.288
3965.128
4006.549
4049.404
4029.023
3881.063
3580.889
3162.963
2711.449
2329.893
2105.92
2085.209
2261.89
2584.987
2975.509
3347.239
3625.317
3759.012
3727.406
3538.52
3223.421
2827.377
2400.115
1987.024
1622.659
1327.307
1106.766
954.8662
857.851
799.4821
765.7415
748.2088
745.56
763.0762
810.4672
898.6412
1036.216
1226.556
1465.965
1743.349
2041.38
2338.851
2613.714
2846.192
3021.425
3131.197
3174.586
3157.517
3091.434
2991.421
2874.087
2755.562
2649.824
2567.473
2515.15
2494.58
2506.683
2533.657
2621.931
3954.414
3967.141
4017.764
4048.794
3967.403
3710.825
3291.307
2795.708
2348.303
2061.876
2000.451
2165.058
2501.542
2922.041
3330.261
3643.023
3804.2
3790.298
3608.938
3292.282
2887.653
2447.403
2019.745
1641.876
1336.161
1109.588
956.1203
861.1092
806.6433
776.6588
760.7998
756.3687
768.153
806.3639
883.2942
1009.518
1190.497
1424.309
1700.94
2003.234
2309.241
2595.439
2840.187
3026.749
3145.396
3194.293
3179.157
3111.877
3008.444
2886.597
2763.562
2654.167
2569.521
2516.276
2496.495
2507.958
2544.676
2599.522
2654.925
2738.942
3957.673
4019.646
4028.118
3852.788
3454.385
2913.872
2384.383
2016.828
1902.58
2051.943
2405.131
2861.401
3311.26
3661.86
3851.769
3855.679
3681.557
3363.074
2949.691
2496.271
2053.722
1661.829
1345.085
1111.798
956.2299
862.9922
812.5946
786.9331
773.6214
768.4049
775.3427
804.9169
870.6395
984.9916
1155.614
1382.566
1657.189
1962.781
2276.857
2574.521
2832.222
3031.19
3159.939
3215.468
3203.077
3134.972
3028.034
2901.203
2772.938
2659.087
2571.402
2516.758
2497.047
2509.601
2548.102
2603.406
2665.676
2722.588
2769.174
2787.985
3997.517
3984.065
3668.563
3091.417
2452.256
1970.609
1783.936
1914.851
2291.802
2793.417
3292.038
3683.778
3902.879
3923.845
3756.185
3435.514
3013.319
2546.68
2088.98
1682.549
1354.099
1113.418
955.2205
863.4947
817.2414
796.3282
786.2829
781.166
784.1189
805.6789
860.3874
962.5251
1121.931
1340.794
1612.069
1919.797
2241.224
2550.234
2821.383
3033.743
3173.841
3237.239
3228.572
3160.197
3049.824
2917.649
2783.499
2664.42
2572.984
2516.42
2496.526
2510.218
2550.533
2607.863
2671.415
2729.993
2775.191
2794.302
2801.052
2726.214
3940.265
3397.276
2593.195
1923.885
1625.809
1736.625
2154.45
2719.477
3277.307
3712.694
3959.102
3994.483
3831.804
3508.821
3078.329
2598.854
2125.865
1704.272
1363.279
1114.442
953.1148
862.7348
820.7835
805.0583
798.9441
794.7332
794.5228
808.734
852.7538
942.5185
1090.018
1299.657
1566.213
1874.762
2202.574
2522.531
2807.379
3033.954
3186.591
3259.132
3255.262
3187.275
3073.609
2935.74
2794.992
2669.799
2573.755
2514.61
2494.169
2508.947
2551.334
2611.039
2676.604
2736.775
2781.822
2803.811
2799.831
2761.132
2717.298
2563.091
3102.539
1897.645
1372.012
1471.284
1978.232
2646.271
3279.699
3757.299
4022.801
4065.742
3905.484
3581.052
3144.306
2653.402
2165.214
1727.501
1372.632
1114.536
949.514
860.4558
823.1739
813.2237
811.7302
809.1543
806.4939
813.9647
847.6644
925.0403
1060.139
1259.597
1520.16
1828.203
2161.323
2491.664
2790.306
3031.831
3198.208
3281.271
3283.447
3216.698
3100.044
2956.222
2808.167
2675.896
2574.254
2511.706
2490.199
2505.891
2550.491
2612.915
2680.99
2742.996
2788.923
2811.329
2805.951
2771.231
2710.65
2621.082
2538.348
2348.295
615.8154
968.5843
1746.437
2608.264
3335.773
3836.992
4096.469
4131.367
3970.042
3648.143
3210.749
2711.923
2208.985
1753.449
1382.358
1113.188
943.6778
856.0873
824.1819
820.8877
824.8265
824.5486
819.9676
821.1102
844.7428
909.7213
1032.037
1220.51
1473.928
1780.165
2117.434
2457.435
2769.784
3026.861
3208.136
3303.176
3312.814
3248.379
3129.262
2979.406
2823.441
2683.169
2574.924
2508.124
2485.018
2501.476
2548.501
2614.114
2685.289
2749.675
2796.954
2819.732
2813.967
2778.948
2716.99
2632.381
2532.436
2418.052
2320.516
2139.979
1557.524
2748.414
3534.412
3978.861
4170.077
4170.153
4008.844
3703.005
3278.237
2778.449
2261.154
1784.343
1392.809
1109.581
934.4753
848.7818
823.4847
828.2024
838.6508
841.357
835.2264
830.2241
843.8578
896.3676
1005.594
1182.445
1427.74
1730.97
2071.201
2419.982
2745.717
3018.703
3215.862
3324.265
3342.826
3281.898
3160.987
3005.128
2840.697
2691.463
2575.518
2503.494
2478.149
2495.171
2544.849
2614.212
2689.226
2756.746
2806.003
2829.544
2823.601
2787.968
2725.464
2641.135
2541.332
2432.602
2321.81
2210.554
2119.301
1972.265
4039.395
4153.907
4169.401
4122.273
3991.96
3740.284
3354.275
2863.194
2328.991
1823.083
1403.605
1101.864
920.0118
837.3082
820.6313
835.3031
853.6429
860.0718
852.6354
841.4548
844.9497
884.8069
980.6697
1145.431
1381.861
1681.088
2023.189
2379.814
2718.433
3007.453
3221.275
3344.324
3373.289
3317.19
3195.333
3033.663
2860.298
2701.128
2576.267
2497.855
2469.407
2486.575
2538.961
2612.517
2692.046
2763.422
2815.268
2839.964
2833.977
2797.618
2734.344
2649.782
2550.649
2443.732
2335.025
2229.181
2129.434
2035.768
1958.276
1842.798
3878.432
3908.147
3911.713
3784.234
3468.909
2988.069
2422.615
1870.6
1411.133
1085.749
897.3291
820.3939
815.5253
842.6138
870.313
881.1099
872.4733
854.925
847.9691
874.8365
956.9888
1109.245
1336.234
1630.67
1973.694
2337.243
2688.112
2993.064
3224.102
3362.94
3403.798
3354.004
3232.305
3065.301
2882.769
2712.831
2577.87
2491.848
2459.326
2476.109
2531.173
2609.321
2694.032
2769.999
2825.048
2851.258
2845.278
2807.96
2743.474
2658.14
2559.178
2453.574
2347.201
2244.302
2147.302
2057.139
1973.415
1895.065
1826.588
1730.05
3912.244
3914.558
3669.979
3175.682
2544.493
1918.032
1404.125
1053.083
862.886
797.9659
809.5928
851.5406
889.4266
904.6819
894.7412
870.6717
853.0178
866.5217
934.4988
1073.74
1290.729
1579.716
1922.877
2292.506
2654.92
2975.488
3224.019
3379.559
3433.7
3391.753
3271.514
3099.91
2908.213
2726.819
2580.61
2485.699
2448.026
2463.798
2521.468
2604.651
2695.333
2776.807
2835.88
2864.162
2858.402
2819.996
2753.906
2667.265
2567.922
2463.172
2358.828
2258.731
2164.702
2076.897
1994.383
1916.061
1840.812
1769.325
1704.571
1625.602
3860.628
3409.686
2684.172
1947.217
1364.89
993.871
815.1335
773.5064
807.33
865.0857
911.894
930.2911
918.5877
888.2203
860.1661
860.2304
913.5202
1039.005
1245.25
1528.123
1870.789
2245.843
2619.174
2954.95
3221.024
3393.924
3462.571
3430
3312.662
3137.414
2936.766
2743.348
2584.721
2479.49
2435.35
2449.228
2509.22
2597.747
2695.158
2783.107
2847.133
2878.18
2872.983
2833.472
2765.475
2677.061
2576.847
2472.557
2370.02
2272.706
2181.787
2096.649
2015.675
1937.159
1860.057
1784.804
1712.743
1648.667
1593.502
1552.037
3109.985
1992.935
1272.4
892.8205
753.9736
755.0663
817.0247
887.7549
938.144
955.983
941.6889
906.1941
869.299
856.6635
894.8663
1005.46
1199.718
1475.544
1817.137
2197.22
2581.094
2931.753
3215.297
3405.977
3490.142
3468.408
3355.526
3177.843
2968.747
2762.96
2590.837
2473.791
2421.693
2432.559
2494.363
2588.375
2693.177
2788.536
2858.449
2892.962
2888.658
2847.973
2777.676
2686.904
2585.199
2480.849
2379.794
2285.166
2197.475
2115.283
2036.194
1957.912
1879.171
1800.373
1723.74
1653.404
1593.706
1552.972
1525.387
1551.26
743.8156
648.0966
679.3746
765.7165
856.517
926.6009
967.2874
977.4503
959.8405
922.2943
880.2771
857.0875
880.1107
974.1222
1154.29
1421.493
1761.28
2146.25
2540.691
2906.169
3207.101
3415.745
3516.136
3506.499
3399.627
3220.912
3004.173
2785.963
2599.447
2469.135
2407.505
2414.099
2477.074
2576.645
2689.517
2793.319
2870.196
2909.022
2906.057
2864.199
2791.215
2697.456
2593.554
2488.518
2388.501
2296.35
2211.902
2132.847
2055.929
1978.201
1898.076
1816.007
1734.673
1658.698
1593.892
1546.658
1521.475
1526.685
1545.284
1653.73
910.967
941.774
967.1124
982.3214
987.9027
983.4509
965.9026
933.7379
893.5467
863.6565
871.6708
946.6344
1109.417
1365.447
1702.309
2092.241
2497.799
2878.496
3196.892
3423.501
3540.456
3543.844
3444.398
3266.145
3042.821
2812.41
2610.792
2465.791
2392.934
2393.788
2457.077
2562.129
2683.701
2797.034
2882.087
2926.252
2925.254
2882.375
2806.437
2709.144
2602.396
2496.087
2396.703
2306.863
2225.727
2150.067
2075.696
1998.934
1917.806
1832.781
1746.928
1665.524
1595.215
1542.945
1514.743
1515.129
1544.708
1607.862
1677.006
1851.201
924.3109
933.1558
942.7397
952.3448
955.1604
942.5073
913.0642
880.3392
872.6536
924.7961
1065.488
1306.684
1639.013
2034.173
2452.018
2848.981
3185.249
3429.747
3563.249
3580.189
3489.364
3313.12
3084.531
2842.482
2625.312
2464.281
2378.398
2371.803
2434.26
2544.463
2675.205
2799.096
2893.557
2944.149
2945.813
2902.113
2822.961
2721.556
2611.255
2503.015
2403.789
2316.037
2238.249
2166.236
2094.812
2019.486
1937.827
1850.266
1760.229
1673.639
1597.935
1540.815
1508.964
1507.005
1536.726
1597.173
1683.225
1793.754
1897.348
2092.413
944.4722
956.7368
968.483
968.6212
947.5331
910.7627
884.632
909.0905
1022.077
1244.049
1569.943
1970.851
2402.81
2817.798
3172.774
3435.073
3584.741
3615.31
3534.014
3361.328
3129.064
2876.332
2643.504
2465.281
2364.542
2348.604
2408.837
2523.648
2663.91
2799.381
2904.566
2962.8
2967.946
2923.707
2841.111
2734.988
2620.348
2509.405
2409.73
2323.701
2249.159
2180.92
2112.734
2039.227
1957.438
1867.703
1773.763
1682.167
1601.13
1539.121
1503.441
1499.067
1527.914
1588.617
1676.754
1785.73
1906.571
2034.338
2143.184
2308.423
964.1413
975.723
971.2195
941.2169
902.6624
898.6228
978.9525
1176.693
1493.802
1901.187
2349.765
2785.257
3160.181
3440.137
3605.183
3648.951
3577.745
3410.128
3176.029
2913.957
2665.713
2469.304
2351.836
2324.451
2380.795
2499.441
2649.458
2797.553
2914.913
2982.206
2991.863
2947.548
2861.4
2750.02
2630.278
2515.857
2415.105
2330.423
2259.024
2194.702
2130.084
2058.833
1977.384
1885.909
1788.413
1692.028
1605.727
1538.741
1498.996
1491.855
1519.346
1579.956
1668.965
1779.198
1902.03
2028.511
2149.969
2260.942
2347.88
2450.798
984.0177
977.3634
939.548
906.6872
944.0761
1106.458
1409.02
1823.238
2292.151
2751.898
3148.561
3445.821
3624.832
3680.737
3619.833
3458.824
3225.051
2955.418
2692.355
2476.917
2340.76
2299.558
2350.016
2471.438
2631.282
2793.026
2924.108
3002.03
3017.379
2973.555
2883.789
2766.595
2640.93
2522.179
2419.66
2335.902
2267.532
2207.299
2146.643
2078.187
1997.68
1905.052
1804.504
1703.703
1612.344
1540.406
1496.446
1486.242
1511.977
1572.052
1661.475
1772.704
1896.743
2024.29
2146.788
2257.099
2350.318
2422.938
2474.615
2511.206
991.9767
945.2186
926.7257
1032.106
1307.672
1729.507
2226.792
2718.512
3140.295
3453.981
3644.147
3709.957
3659.108
3506.456
3275.748
3000.944
2724.076
2488.891
2331.946
2274.259
2316.501
2439.382
2609.009
2785.454
2931.944
3022.242
3044.617
3001.934
2908.478
2784.828
2652.283
2528.2
2423.076
2339.701
2274.156
2218.119
2161.776
2096.626
2017.64
1924.426
1821.306
1716.424
1620.159
1543.221
1494.81
1481.153
1504.65
1563.686
1653.072
1764.966
1890.044
2018.729
2142.262
2253.487
2347.362
2420.878
2473.728
2504.887
2523.068
2510.789
970.672
967.9674
1179.542
1605.114
2146.871
2687.433
3141.602
3469.485
3664.524
3735.225
3693.227
3551.238
3327.525
3050.995
2761.88
2506.25
2326.095
2248.808
2280.108
2402.887
2582.189
2774.49
2938.278
3042.942
3073.883
3033.114
2935.929
2805.139
2664.68
2534.183
2425.571
2342.032
2279.138
2227.457
2175.837
2114.553
2037.697
1944.466
1839.23
1730.55
1629.448
1547.352
1494.114
1476.457
1497.062
1554.384
1643.126
1755.22
1881.072
2010.847
2135.586
2248.031
2343.077
2417.873
2471.698
2505.353
2521.635
2521.146
2515.823
2478.09
1016.852
1405.111
2028.362
2660.339
3165.338
3503.14
3689.342
3753.797
3717.328
3589.518
3379.22
3106.466
2807.552
2530.627
2324.137
2223.364
2240.438
2361.288
2550.144
2759.607
2942.81
3064.053
3105.268
3067.266
2966.294
2827.596
2678.077
2540
2426.986
2342.772
2282.449
2235.41
2189.056
2132.311
2058.285
1965.675
1858.831
1746.682
1640.861
1553.5
1495.122
1472.985
1490.119
1545.134
1632.713
1744.638
1871.092
2001.997
2128.178
2242.207
2338.874
2415.288
2470.686
2506.027
2523.541
2526.051
2517.297
2498.415
2480.222
2434.57
1669.476
2632.768
3250.346
3582.839
3726.382
3760.025
3721.728
3614.205
3428.661
3169.084
2864.366
2564.826
2327.48
2197.989
2196.747
2313.614
2512.056
2740.297
2945.351
3085.636
3138.982
3104.635
2999.755
2852.239
2692.342
2545.363
2426.938
2341.518
2283.722
2241.672
2201.169
2149.641
2079.1
1987.663
1879.617
1764.228
1653.731
1560.964
1497.135
1470.077
1483.237
1535.456
1621.482
1733.021
1860.079
1992.345
2120.394
2236.566
2335.457
2414.037
2471.451
2508.621
2527.743
2531.761
2523.939
2507.384
2485.272
2458.547
2435.178
2390.263
3722.073
3794.142
3772.925
3728.399
3683.357
3612.298
3472.906
3242.496
2938.157
2613.506
2338.188
2172.438
2147.579
2258.263
2466.785
2716.025
2945.849
3107.941
3175.426
3145.673
3036.728
2879.382
2707.654
2550.33
2425.418
2338.266
2283.023
2246.401
2212.406
2166.789
2100.328
2010.497