/*--------------------------------*- C++ -*----------------------------------*\
| =========                 |                                                 |
| \\      /  F ield         | OpenFOAM: The Open Source CFD Toolbox           |
|  \\    /   O peration     | Version:  2312                                  |
|   \\  /    A nd           | Website:  www.openfoam.com                      |
|    \\/     M anipulation  |                                                 |
\*---------------------------------------------------------------------------*/
FoamFile
{
    version     2.0;
    format      ascii;
    arch        "LSB;label=32;scalar=64";
    class       volScalarField;
    location    "4950";
    object      ILambda_7_0;
}
// * * * * * * * * * * * * * * * * * * * * * * * * * * * * * * * * * * * * * //

dimensions      [1 0 -3 0 0 0 0];

internalField   nonuniform List<scalar> 
12000
(
3947.404
3988.852
3978.116
3711.596
3105.966
2320.798
1598.672
1077.533
760.8031
589.8813
521.1432
571.6766
812.7183
1303.202
2008.304
2774.804
3395.235
3719.835
3732.766
3537.799
3272.429
3020.031
2780.27
2506.374
2169.281
1797.961
1472.284
1281.442
1279.586
1463.866
1780.419
2147.659
2482.229
2718.394
2818.868
2778.527
2622.197
2396.655
2157.693
1955.319
1821.857
1766.97
1780.61
1841.374
1925.799
2014.674
2094.899
2158.011
2197.952
2210.203
2192.83
2148.327
2084.52
2013.408
1948.116
1899.325
1872.362
1868.048
1876.391
1914.521
3978.713
4013.248
3842.124
3261.927
2410.545
1611.308
1057.563
743.5209
581.618
509.7231
536.6105
738.5143
1197.574
1906.525
2720.329
3410.849
3791.962
3821.375
3604.304
3303.606
3031.048
2797.666
2545.888
2224.595
1846.276
1490.219
1259.341
1225.92
1399.296
1727.068
2120.209
2484.471
2744.944
2859.489
2822.46
2661.057
2425.624
2175.373
1962.786
1821.451
1761.29
1772.013
1831.946
1917.52
2009.451
2094.318
2162.955
2208.283
2224.695
2209.394
2164.485
2098.038
2022.893
1953.378
1901.283
1872.854
1867.726
1881.405
1901.904
1943.525
3994.491
3978.515
3603.532
2825.463
1966.803
1312.677
911.2036
683.6771
558.8774
521.9872
622.9841
948.9815
1543.644
2326.388
3096
3632.348
3820.575
3704.258
3432.933
3151.37
2915.744
2689.799
2408.085
2049.142
1665.872
1359.879
1225.854
1304.659
1568.911
1940.388
2322.601
2630.727
2809.692
2840.2
2736.332
2537.734
2297.923
2070.493
1896.455
1796.563
1770.857
1804.454
1876.035
1964.979
2054.851
2133.486
2191.644
2222.268
2221.222
2188.917
2131.433
2059.937
1988.156
1928.746
1890.043
1874.446
1878.771
1897.199
1918.998
1956.857
4003.731
3865.486
3220.058
2305.231
1532.344
1040.862
758.7039
597.4972
520.7966
551.4167
767.8101
1249.252
1979.297
2798.688
3470.697
3815.201
3806.903
3567.431
3265.852
3007.584
2790.256
2545.019
2218.23
1829.067
1467.595
1244.435
1231.663
1430.611
1777.599
2175.148
2527.527
2765.483
2856.247
2802.568
2635.678
2404.881
2164.922
1963.06
1829.181
1772.085
1782.651
1841.476
1926.915
2020.247
2107.092
2176.524
2220.091
2232.128
2211.223
2161.599
2093.063
2019.013
1953.017
1905.308
1880.535
1877.525
1890.794
1913.689
1936.919
1971.746
3997.312
3610.886
2701.528
1803.686
1212.968
871.1002
666.1404
549.8851
523.3176
642.227
999.3426
1635.525
2452.291
3226.067
3729.012
3860.788
3691.055
3389.767
3105.601
2882.792
2667.553
2383.657
2011.773
1616.872
1313.6
1201.934
1316.982
1617.976
2012.963
2397.968
2689.535
2840.805
2842.857
2717.837
2508.879
2268.681
2047.509
1882.568
1791.727
1773.57
1813.002
1889.14
1981.758
2074.285
2153.832
2210.277
2236.231
2228.305
2188.681
2125.565
2051.683
1981.106
1925.579
1891.79
1880.508
1887.658
1906.606
1930.992
1953.63
1984.482
3935.521
3160.858
2121.717
1405.946
1003.382
751.032
592.9585
522.5874
564.8397
803.0782
1321
2089.441
2924.678
3574.74
3867.302
3802.258
3525.718
3216.126
2970.773
2769.662
2529.203
2192.884
1789.267
1422.695
1213.281
1231.776
1468.183
1843.914
2250.752
2591.115
2802.482
2863.127
2785.747
2606.764
2375.261
2142.158
1949.996
1825.16
1774.966
1790.46
1853.099
1941.879
2038.005
2126.347
2195.001
2234.945
2240.884
2212.825
2157.029
2085.141
2011.398
1948.881
1906.284
1886.398
1886.647
1901.13
1923.152
1947.379
1968.789
1996.102
3717.255
2520.895
1613.831
1155.718
863.181
653.7768
543.0385
530.06
664.7025
1051.617
1730.457
2578.644
3348.277
3808.967
3881.205
3662.865
3340.999
3062.692
2856.808
2651.959
2363.258
1976.176
1569.533
1271.154
1184.884
1337.924
1674.435
2088.506
2470.136
2739.633
2860.517
2835.204
2693.282
2479.514
2243.561
2030.805
1874.414
1790.395
1777.443
1821.418
1902.058
1998.855
2094.2
2174.04
2227.625
2247.892
2232.744
2186.271
2118.564
2043.513
1975.198
1924.246
1895.602
1888.383
1897.588
1916.622
1939.613
1962.631
1982.616
2006.853
3182.679
1833.807
1308.697
1010.801
738.2917
575.7206
525.3844
581.5469
838.5186
1395.742
2207.173
3056.738
3677.957
3912.474
3789.638
3479.796
3167.263
2937.672
2752.248
2513.692
2164.636
1745.039
1374.597
1182.414
1236.049
1511.958
1915.444
2328.108
2652.422
2834.622
2865.029
2765.952
2577.737
2347.79
2122.247
1938.835
1821.178
1776.273
1796.274
1863.688
1957.489
2057.724
2147.701
2214.498
2249.226
2247.873
2212.416
2151.085
2076.865
2004.294
1945.672
1908.174
1892.913
1896.081
1911.391
1932.584
1955.163
1976.611
1995.393
2017.011
2199.678
1409.599
1207.704
865.9563
617.4281
536.5656
545.8975
688.7386
1104.012
1831.481
2712.946
3471.775
3881.256
3889.9
3625.487
3289.193
3022.102
2834.982
2638.95
2342.328
1937.668
1519.376
1228.723
1171.937
1365.867
1737.709
2167.494
2540.95
2784.578
2873.865
2822.583
2666.578
2450.751
2220.67
2016.509
1867.729
1789.222
1780.605
1829.185
1915.241
2017.341
2116.02
2195.583
2244.865
2257.897
2234.711
2181.674
2110.496
2035.591
1970.443
1924.309
1900.508
1896.835
1907.627
1926.435
1948.075
1969.598
1989.596
2007.533
2026.673
1045.902
1508.951
1087.235
669.8849
547.7277
544.4519
602.9054
870.8597
1473.491
2334.17
3194.626
3777.135
3946.516
3766.17
3428.627
3119.461
2909.022
2738.757
2499.026
2133.935
1697.003
1324.4
1153.511
1246.331
1563.196
1992.21
2405.959
2709.584
2860.393
2861.4
2743.432
2548.956
2322.367
2104.658
1929.181
1817.543
1777.084
1801.444
1874.197
1973.951
2079.015
2170.598
2234.604
2262.659
2252.787
2209.594
2143.445
2068.244
1998.127
1944.053
1911.521
1900.228
1905.587
1921.252
1941.521
1962.651
1983.064
2001.961
2019.317
2035.694
1849.149
1389.485
703.2326
538.5555
562.4269
575.1808
706.5837
1154.985
1941.226
2856.525
3595.411
3943.79
3886.031
3579.995
3236.142
2985.163
2817.851
2628.346
2320.207
1895.439
1465.812
1186.29
1163.676
1401.529
1807.992
2249.261
2609.163
2823.308
2880.735
2806.032
2639.343
2423.803
2200.123
2003.724
1861.362
1787.626
1783.337
1837.084
1929.302
2037.238
2139.267
2217.924
2261.766
2266.357
2234.426
2175.012
2101.392
2028.006
1967.097
1926.102
1906.697
1905.707
1917.315
1935.536
1955.979
1976.324
1995.925
2014.047
2030.817
2043.726
2185.189
680.701
495.9191
591.724
593.9635
612.9874
895.0816
1558.042
2472.771
3337.117
3869.717
3967.724
3732.12
3373.758
3073.987
2885.217
2729.014
2484.756
2100.245
1644.799
1272.225
1127.285
1263.616
1622.535
2074.032
2483.369
2761.444
2879.093
2852.424
2719.165
2521.591
2299.579
2089
1919.949
1813.268
1777.225
1806.732
1885.779
1992.026
2101.799
2194.292
2254.494
2274.858
2255.774
2204.765
2134.426
2059.378
1992.888
1944.067
1916.468
1908.465
1915.085
1930.413
1949.573
1969.646
1989.404
2008.574
2026.012
2041.835
2050.277
415.5686
537.9131
668.8168
644.5022
580.8435
707.3416
1210.276
2064.073
3008.855
3716.756
3994.902
3869.66
3527.88
3183.425
2952.479
2805.247
2619.739
2296.38
1848.995
1408.719
1144.346
1160.998
1445.608
1885.242
2333.01
2673.724
2855.104
2881.065
2786.131
2612.508
2399.479
2182.146
1991.927
1854.365
1784.894
1785.708
1845.965
1945.31
2059.103
2163.619
2240.115
2277.414
2272.944
2232.234
2166.943
2091.768
2020.914
1965.035
1929.458
1914.119
1915.039
1926.616
1943.743
1963
1982.746
2002.313
2021.263
2037.754
2051.928
2054.815
685.1348
710.2219
667.5185
586.1677
598.888
923.3375
1655.854
2623.218
3482.142
3953.756
3975.551
3688.291
3316.47
3031.584
2866.226
2722.692
2470.455
2062.984
1588.045
1218.395
1104.733
1288.89
1690.173
2160.14
2559.168
2807.216
2890.685
2838.623
2693.84
2496.199
2279.698
2075.152
1910.636
1807.702
1776.332
1812.393
1899.249
2012.586
2126.399
2218.295
2273.166
2284.961
2256.64
2198.441
2124.839
2050.862
1988.689
1945.439
1922.651
1917.426
1924.592
1938.943
1956.718
1975.914
1995.698
2015.392
2033.991
2048.899
2060.488
2056.88
659.3315
663.5404
622.0782
570.3293
717.8542
1276.193
2198.896
3168.69
3833.897
4032.984
3840.702
3470.022
3131.92
2924.483
2797.23
2612.936
2270.262
1797.595
1347.992
1103.822
1165.257
1498.772
1968.855
2417.319
2733.457
2879.786
2875.552
2763.757
2586.553
2377.79
2166.519
1980.864
1846.484
1780.802
1787.669
1856.127
1963.861
2083.489
2189.156
2261.599
2290.899
2276.968
2228.104
2158.096
2082.486
2014.89
1964.284
1933.965
1922.266
1924.553
1935.577
1951.248
1969.274
1988.698
2008.916
2028.754
2046.463
2058.864
2066.859
2056.186
670.7366
664.0899
595.9223
601.5997
954.7627
1761.243
2785.397
3629.266
4026.745
3968.621
3635.334
3257.932
2993.143
2852.634
2719.952
2455.617
2021.107
1526.034
1163.454
1087.428
1323.462
1766.031
2249.103
2631.674
2846.18
2895.758
2821.225
2668.32
2472.801
2262.177
2062.598
1901.093
1800.988
1774.594
1818.57
1914.774
2035.883
2153.023
2242.526
2290.137
2292.286
2254.931
2190.736
2115.334
2043.494
1986.009
1948.091
1929.559
1926.532
1933.812
1946.947
1963.273
1981.721
2001.816
2022.629
2042.208
2058.121
2066.963
2070.472
2052.69
674.2031
639.4172
571.6154
721.5483
1342.929
2347.633
3338.322
3944.476
4055.046
3799.196
3408.15
3082.952
2902.002
2794.276
2607.615
2240.654
1740.004
1283.579
1066.174
1178.28
1561.669
2057.772
2500.267
2786.991
2897.403
2865.425
2740.267
2561.991
2358.225
2152.324
1969.99
1837.859
1775.903
1789.708
1867.724
1984.854
2110.256
2215.799
2282.258
2301.942
2278.05
2221.822
2148.655
2074.112
2010.575
1965.179
1939.459
1930.598
1933.676
1943.936
1958.229
1975.216
1994.54
2015.606
2036.766
2055.259
2068.241
2072.537
2070.955
2046.612
672.5435
606.2283
595.89
981.8773
1878.802
2964.064
3777.156
4084.433
3945.51
3575.155
3200.146
2959.514
2844.887
2720.734
2439.143
1973.067
1458.157
1108.497
1077.41
1368.63
1849.628
2339.115
2699.13
2877.761
2895.115
2801.685
2643.657
2451.395
2246.127
2050.342
1890.976
1793.609
1772.874
1825.863
1932.364
2061.483
2181.187
2266.734
2305.38
2296.843
2250.592
2181.621
2106.078
2037.662
1985.271
1952.21
1936.99
1935.287
1942.245
1954.232
1969.475
1987.542
2008.163
2030.13
2050.925
2067.183
2076.07
2075.089
2068.218
2038.422
660.5497
576.562
718.1567
1413.63
2515.716
3518.361
4043.854
4057.727
3746.267
3344.988
3037.791
2885.224
2796.413
2603.058
2205.986
1675.161
1216.133
1033.403
1201.788
1634.358
2150.465
2579.996
2833.377
2908.293
2851.844
2716.835
2539.317
2340.367
2138.587
1958.5
1828.45
1770.945
1792.807
1881.291
2008.069
2138.667
2242.831
2301.802
2310.7
2276.518
2213.612
2138.697
2066.705
2008.118
1967.91
1946.008
1938.938
1942.025
1951.317
1964.57
1981.094
2000.752
2022.788
2045.102
2064.417
2077.157
2080.963
2074.373
2062.476
2028.77
635.6259
586.2638
999.4392
2011.832
3163.941
3922.415
4121.211
3905.685
3510.882
3145.34
2930.935
2842.777
2724.671
2419.781
1917.474
1384.522
1055.334
1076.663
1424.9
1939.706
2428.3
2760.41
2902.069
2889.647
2780.965
2620.414
2431.966
2231.005
2037.622
1879.813
1785.778
1772.008
1835.187
1952.376
2088.934
2209.949
2290.109
2318.68
2299.015
2244.227
2171.515
2097.158
2033.256
1986.367
1957.775
1944.948
1943.601
1949.674
1960.563
1975.269
1993.628
2015.175
2038.266
2059.902
2076.381
2084.407
2082.507
2070.456
2054.228
2018.407
602.0611
696.8199
1484.989
2713.091
3710.05
4124.104
4037.525
3685.112
3284.035
2997.141
2873.6
2803.263
2598.486
2164.853
1602.539
1147.039
1007.671
1236.756
1715.895
2245.027
2655.182
2872.605
2913.312
2835.657
2693.826
2518.491
2323.979
2124.952
1946.004
1818.084
1766.242
1797.716
1897.551
2033.651
2168.112
2269.241
2319.465
2317.107
2272.964
2204.271
2128.729
2060.288
2007.214
1972.137
1953.439
1947.285
1949.645
1957.686
1970.17
1986.876
2007.522
2030.813
2054.079
2073.669
2085.939
2088.35
2080.599
2063.708
2044.185
2008.083
581.527
991.5747
2170.032
3395.89
4057.229
4128.348
3851.264
3447.837
3095.013
2906.435
2845.643
2731.394
2396.491
1853.354
1305.795
1006.056
1086.699
1491.832
2034.437
2515.068
2815.253
2919.954
2880.318
2759.398
2598.34
2414.174
2216.681
2024.424
1867.548
1777.483
1772.256
1847.086
1975.289
2118.209
2238.645
2311.704
2329.411
2298.902
2236.574
2161.296
2089.07
2030.186
1988.813
1964.279
1953.18
1951.524
1956.299
1966.084
1980.652
1999.929
2022.936
2047.279
2069.405
2085.451
2092.349
2088.7
2075.468
2054.753
2033.176
1998.458
632.0018
1548.649
2963.963
3913.391
4169.609
3992.09
3623.272
3228.735
2959.456
2865.843
2814.888
2593.546
2116.204
1521.979
1077.868
990.8656
1283.47
1804.807
2339.699
2725.167
2905.293
2913.502
2817.392
2671.008
2498.969
2308.781
2111.555
1932.775
1806.891
1761.804
1804.549
1916.801
2061.852
2198.458
2294.421
2334.468
2320.727
2267.622
2194.583
2119.595
2055.264
2007.649
1977.253
1961.16
1955.382
1956.674
1963.393
1975.307
1992.61
2014.741
2039.638
2063.83
2083.25
2094.361
2095.134
2085.514
2067.643
2044.38
2022.035
1990.04
870.2467
2379.418
3683.224
4160.908
4093.094
3790.689
3393.679
3047.759
2883.282
2853.77
2741.633
2368.507
1779.769
1222.625
962.4949
1108.547
1568.626
2132.152
2598.409
2863.851
2932.259
2867.767
2736.995
2576.982
2397.581
2203.102
2011.073
1854.568
1768.902
1773.586
1861.514
2001.169
2149.37
2267.114
2331.063
2337.036
2296.266
2227.934
2151.688
2082.524
2028.719
1992.301
1971.069
1961.099
1958.852
1962.353
1971.252
1985.983
2006.496
2031.251
2056.998
2079.471
2094.615
2099.738
2094.162
2079.188
2057.874
2033.436
2011.506
1983.141
1484.05
3334.954
4112.586
4147.444
3926.444
3575.149
3180.068
2919.838
2861.308
2833.309
2588.285
2058.403
1432.942
1009.969
984.5515
1341.997
1899.823
2433.296
2789.727
2931.903
2909.33
2797.184
2648.234
2480.506
2294.612
2098.464
1919.12
1795.234
1757.823
1813.252
1938.859
2092.521
2229.617
2318.25
2346.578
2321.296
2260.422
2184.836
2111.858
2052.146
2009.555
1982.914
1968.566
1962.724
1962.989
1968.738
1980.492
1998.679
2022.427
2048.978
2074.07
2093.125
2102.663
2101.248
2089.667
2070.393
2047.025
2022.718
2002.161
1977.875
2658.826
4041.718
4155.879
4005.848
3748.263
3355.253
2996.548
2858.138
2869.805
2757.007
2333.959
1694.799
1135.571
926.5488
1143.176
1654.642
2231.691
2677.785
2906.312
2939.148
2851.976
2713.754
2556.48
2382.307
2190.231
1997.509
1841.021
1760.381
1776.27
1878.433
2029.691
2182.053
2295.162
2348.175
2341.596
2291.116
2218.346
2142.872
2077.85
2029.148
1996.859
1977.841
1968.225
1965.211
1967.792
1976.392
1991.762
2013.684
2040.091
2067.062
2089.735
2103.802
2106.851
2098.933
2082.205
2059.977
2035.962
2012.884
1994.363
1974.183
4186.392
4083.189
3996.114
3882.126
3559.222
3128.837
2870.601
2861.981
2862.121
2581.747
1988.358
1334.803
945.3725
990.6031
1412.43
1999.931
2525.04
2848.698
2952.369
2900.531
2774.889
2625.829
2463.673
2281.736
2085.444
1904.699
1783.165
1754.756
1824.235
1963.664
2125.146
2261.024
2340.497
2355.967
2319.153
2251.598
2175.086
2105.518
2050.995
2013.021
1989.106
1975.462
1969.01
1968.361
1973.731
1986.015
2005.513
2030.875
2058.759
2084.393
2102.884
2110.759
2107.015
2093.202
2072.573
2048.845
2025.445
2004.394
1988.258
1971.876
3960.785
3969.8
3979.279
3766.844
3318.712
2927.174
2831.353
2899.229
2778.629
2289.501
1596.263
1046.2
900.9101
1191.51
1749.073
2332.043
2752.765
2942.429
2940.207
2832.581
2689.904
2537.647
2369.072
2178.062
1983.114
1826.408
1752.092
1780.982
1898.332
2060.665
2215.52
2322.085
2362.871
2343.496
2284.051
2208.176
2134.837
2074.82
2031.278
2002.436
1984.614
1974.533
1970.499
1972.512
1981.517
1998.193
2021.815
2049.683
2077.375
2099.783
2112.591
2113.608
2103.379
2084.758
2061.686
2037.848
2016.056
1997.493
1983.798
1970.693
3992.415
4018.987
3926.894
3545.865
3052.603
2810.691
2875.029
2905.06
2571.438
1902.393
1227.683
887.0468
1010.94
1494.363
2103.918
2614.198
2901.719
2966.211
2886.619
2750.586
2604.608
2449.458
2270.517
2071.981
1888.671
1770.341
1753.083
1838.329
1991.61
2159.296
2291.754
2360.45
2362.633
2314.94
2241.925
2165.726
2100.424
2051.359
2017.661
1995.715
1981.96
1974.402
1972.867
1978.347
1991.846
2013.19
2040.287
2069.152
2094.716
2112.148
2118.246
2112.366
2096.516
2074.491
2050.459
2027.68
2008.152
1992.215
1980.798
1970.357
3993.066
4004.662
3776.168
3259.873
2840.495
2810.501
2948.119
2805.883
2230.467
1482.059
956.7819
888.4861
1254.042
1850.739
2432.175
2822.79
2971.624
2934.871
2809.595
2666.258
2521.571
2358.442
2166.277
1967.031
1810.084
1744.148
1788.479
1921.96
2094.182
2249.086
2346.916
2374.597
2342.966
2275.886
2198.245
2127.891
2073.12
2034.49
2008.544
1991.285
1980.253
1975.046
1976.723
1986.634
2005.161
2030.829
2060.114
2088.075
2109.578
2120.668
2119.639
2107.438
2087.25
2063.355
2039.695
2018.828
2001.872
1988.435
1978.994
1970.618
4003.103
3954.304
3532.219
2959.696
2743.126
2906.592
2964.939
2552.884
1795.778
1112.192
838.5908
1047.513
1587.178
2210.521
2699.941
2948.053
2972.709
2867.526
2725.175
2585.837
2438.535
2260.649
2057.207
1870.345
1756.729
1753.389
1856.283
2023.063
2194.672
2321.005
2377.319
2366.308
2309.086
2232.249
2157.474
2096.733
2052.793
2022.782
2002.251
1988.024
1979.245
1976.957
1982.867
1997.975
2021.499
2050.471
2080.153
2105.171
2120.951
2124.897
2116.973
2099.54
2076.537
2052.24
2030.005
2011.542
1997.158
1985.92
1978.103
1971.288
4012.357
3812.881
3195.093
2727.406
2796.794
3024.635
2837.278
2149.46
1350.035
871.1476
893.0331
1331.288
1958.3
2530.824
2886.883
2992.979
2922.869
2783.935
2644.365
2509.192
2350.087
2153.781
1948.433
1792.055
1737.198
1799.489
1949.659
2130.061
2282.185
2368.998
2382.927
2340.038
2267.122
2189.265
2122.546
2072.756
2038.29
2014.524
1997.441
1985.432
1979.269
1980.923
1992.032
2012.618
2040.425
2071.088
2099.099
2119.274
2128.157
2124.812
2110.817
2089.589
2065.33
2041.878
2021.768
2005.86
1993.818
1984.395
1977.875
1972.247
3998.935
3538.838
2829.917
2658.061
2969.81
3047.668
2517.318
1661.913
991.4063
805.7878
1102.406
1689.592
2317.851
2780.898
2986.636
2971.371
2843.998
2700.368
2570.853
2430.779
2250.815
2039.904
1849.601
1743.191
1756.652
1878.47
2057.707
2230.651
2348.249
2390.837
2366.99
2301.811
2222.967
2150.781
2094.728
2055.217
2027.947
2008.181
1993.351
1983.644
1981.054
1987.771
2004.663
2030.347
2061.064
2091.399
2115.668
2129.488
2130.931
2120.794
2102.006
2078.571
2054.47
2032.781
2015.129
2001.65
1991.587
1983.599
1978.123
1973.44
3911.544
3118.733
2560.667
2800.588
3146.394
2866.861
2033.916
1200.183
797.0182
918.8293
1422.149
2069.062
2626.091
2943.929
3005.95
2904.7
2757.214
2625.842
2500.787
2342.758
2138.984
1926.784
1773.181
1732.602
1814.727
1981.102
2167.405
2314.094
2388.149
2388.09
2335.025
2257.973
2181.379
2118.95
2073.832
2042.608
2020.087
2002.719
1989.874
1983.283
1985.482
1998.124
2020.773
2050.479
2082.214
2110.056
2128.775
2135.301
2129.436
2113.554
2091.517
2067.411
2044.598
2025.216
2010.036
1998.673
1990.191
1983.324
1978.735
1974.857
3659.426
2623.462
2541.745
3095.875
3158.756
2446.441
1493.921
873.7693
796.159
1175.292
1797.94
2423.379
2856.062
3017.135
2962.55
2817.348
2677.79
2560.299
2425.283
2239.364
2019.119
1826.968
1731.217
1764.047
1904.887
2094.546
2266.133
2373.042
2401.32
2365.293
2293.522
2214.11
2145.483
2094.303
2058.654
2033.185
2013.407
1997.75
1987.472
1985.235
1993.327
2012.226
2039.896
2071.936
2102.511
2125.818
2137.67
2136.633
2124.212
2104.015
2080.333
2056.875
2036.116
2019.23
2006.299
1996.655
1989.393
1983.433
1979.663
1976.513
3121.627
2266.809
2859.836
3346.894
2874.41
1865.015
1038.81
746.1779
967.8333
1522.147
2179.6
2717.198
2994.073
3010.867
2881.265
2730.801
2611.524
2495.854
2335.022
2120.769
1902.229
1754.738
1731.74
1834.624
2015.538
2204.946
2343.963
2404.416
2390.798
2328.675
2248.723
2174.362
2116.691
2076.108
2047.489
2025.405
2007.205
1993.517
1986.984
1990.395
2005.054
2029.845
2061.121
2093.392
2120.608
2137.718
2142.019
2133.82
2116.085
2093.18
2069.326
2047.502
2029.187
2014.699
2003.655
1995.338
1989.024
1983.859
1980.909
1978.424
2237.164
2401.098
3383.059
3289.414
2302.033
1291
776.0834
816.1125
1261.691
1907.472
2526.279
2926.216
3039.92
2946.578
2788.465
2658.311
2554.063
2420.926
2225.195
1994.762
1803.435
1722.091
1776.218
1935.13
2132.477
2300.089
2395.058
2409.235
2362.057
2284.843
2205.74
2141.157
2094.935
2062.849
2038.612
2018.231
2001.443
1990.746
1989.38
1999.434
2020.684
2050.277
2083.209
2113.439
2135.35
2145.171
2141.925
2127.542
2106.033
2082.001
2059.168
2039.586
2023.774
2011.393
2001.836
1994.522
1988.989
1984.591
1982.494
1980.585
1381.667
3249.658
3674.342
2787.925
1625.324
888.8921
732.1662
1036.648
1624.81
2288.248
2805.373
3037.855
3007.383
2852.744
2705.512
2601.758
2493.683
2325.818
2098.85
1875.553
1737.887
1735.26
1858.947
2052.105
2241.775
2371.327
2417.955
2391.658
2321.665
2239.743
2168.102
2115.289
2079.079
2052.723
2030.656
2011.282
1996.66
1990.427
1995.514
2012.631
2039.747
2072.417
2104.748
2130.776
2145.91
2148.025
2137.881
2118.707
2095.051
2071.27
2050.292
2033.196
2019.7
2009.045
2000.615
1994.081
1989.258
1985.651
1984.437
1982.969
2724.938
3919.975
3263.067
2028.076
1086.182
723.1463
864.159
1352.943
2014.797
2627.704
2992.292
3054.245
2922.838
2757.998
2642.854
2552.065
2416.77
2207.719
1967.345
1780.124
1716.525
1792.979
1968.418
2170.735
2332.164
2414.376
2414.927
2357.713
2276.142
2198.014
2137.655
2096.223
2067.386
2044.066
2022.849
2004.83
1993.796
1993.562
2005.921
2029.778
2061.32
2094.898
2124.33
2144.361
2151.881
2146.557
2130.679
2108.315
2084.033
2061.56
2042.892
2028.23
2016.717
2007.407
1999.83
1993.956
1989.845
1987.068
1986.739
1985.515
4138.334
3641.731
2480.986
1373.286
791.7356
754.9224
1113.742
1724.467
2395.668
2892.177
3074.803
2994.343
2819.41
2682.733
2597.261
2493.665
2314.233
2073.239
1847.73
1723.534
1743.155
1886.913
2090.001
2277.609
2396.389
2429.092
2390.874
2314.099
2231.14
2162.693
2114.7
2082.488
2057.979
2035.685
2015.109
1999.682
1993.949
2000.926
2020.671
2050.171
2084.134
2116.264
2140.734
2153.53
2153.293
2141.396
2121.275
2097.324
2073.679
2053.199
2036.961
2024.481
2014.57
2006.287
1999.392
1994.144
1990.78
1988.857
1989.368
1988.139
3872.526
3029.296
1781.06
939.1662
710.5114
925.8243
1441.393
2119.771
2729.98
3054.752
3058.868
2890.96
2727.291
2632.798
2554.219
2411.75
2186.357
1937.428
1758.045
1714.874
1813.726
2003.85
2208.908
2362.6
2431.47
2418.626
2352.163
2267.253
2190.951
2135.156
2098.276
2072.127
2049.249
2027.068
2008.016
1996.966
1998.115
2012.885
2039.321
2072.69
2106.731
2135.147
2153.057
2158.056
2150.576
2133.41
2110.659
2086.549
2064.457
2046.296
2032.356
2021.705
2013.043
2005.562
1999.273
1994.67
1992.09
1991.01
1992.264
1990.74
3677.292
2323.52
1156.938
721.5974
801.4731
1192.668
1819.266
2504.372
2979.458
3103.965
2970.485
2781.893
2664.105
2598.606
2494.907
2299.264
2043.967
1819.622
1712.345
1755.214
1917.719
2128.636
2312.524
2419.656
2438.213
2388.396
2305.64
2222.679
2158.228
2115.226
2086.543
2063.166
2040.187
2018.456
2002.639
1997.859
2006.957
2029.282
2060.94
2095.927
2127.648
2150.437
2160.811
2158.139
2144.466
2123.578
2099.732
2076.591
2056.6
2040.786
2028.861
2019.674
2011.982
2005.172
1999.481
1995.563
1993.784
1993.49
1995.339
1993.206
3120.378
1470.646
775.8729
744.0882
1004.206
1521.081
2222.726
2836.643
3113.599
3051.535
2850.347
2697.865
2629.485
2560.219
2404.738
2160.661
1905.566
1737.953
1717.29
1837.951
2040.836
2246.865
2391.74
2446.743
2420.417
2345.138
2257.829
2184.436
2133.869
2101.441
2077.274
2054.061
2030.584
2010.759
2000.283
2003.315
2020.632
2049.423
2084.223
2118.373
2145.598
2161.392
2163.948
2154.342
2135.882
2112.851
2089.216
2067.815
2050.147
2036.506
2026.251
2018.209
2011.297
2005.104
2000.039
1996.842
1995.845
1996.234
1998.486
1995.422
2075.724
852.3554
744.6857
896.894
1257.62
1902.834
2619.758
3069.679
3122.525
2933.617
2741.292
2651.795
2606.42
2496.444
2280.012
2011.18
1791.918
1704.669
1771.207
1950.94
2167.835
2346.679
2441.37
2445.381
2384.063
2296.044
2214.216
2154.767
2117.1
2091.505
2068.403
2044.052
2021.063
2005.325
2002.17
2013.828
2038.723
2072.152
2107.661
2138.602
2159.61
2167.709
2162.821
2147.478
2125.789
2102.052
2079.61
2060.378
2045.001
2033.251
2024.334
2017.192
2010.946
2005.365
2000.964
1998.502
1998.231
1999.159
2001.586
1997.279
726.5586
823.8855
895.8436
1062.544
1572.973
2331.497
2954.678
3166.562
3028.19
2801.09
2672.542
2634.64
2569.476
2394.379
2130.205
1872.298
1720.35
1723.73
1865.374
2079.281
2284.74
2419.684
2460.085
2420.07
2336.489
2247.89
2178.591
2133.921
2105.818
2082.91
2058.542
2033.341
2012.91
2003.602
2009.144
2029.3
2060.275
2096.011
2129.734
2155.441
2169.123
2169.507
2158.098
2138.482
2115.079
2091.806
2071.194
2054.268
2040.995
2030.826
2022.971
2016.557
2010.918
2005.964
2002.257
2000.519
2000.881
2002.171
2004.513
1998.673
944.5525
929.2722
934.9344
1267.447
1988.213
2755.443
3162.208
3124.606
2881.911
2700.428
2648.663
2620.764
2496.595
2255.357
1975.129
1765.333
1700.719
1790.926
1986.506
2207.792
2380.196
2461.303
2450.161
2377.62
2285.446
2206.109
2152.564
2120.322
2097.232
2073.608
2047.331
2023.01
2007.725
2006.778
2021.46
2049.026
2083.93
2119.431
2149.099
2168.086
2174.012
2167.272
2150.638
2128.281
2104.486
2082.519
2064.06
2049.374
2037.95
2029.079
2022.073
2016.273
2011.211
2006.9
2003.902
2002.85
2003.722
2005.166
2007.14
1999.51
927.7914
890.5286
1039.321
1624.91
2467.294
3084.868
3206.352
2984.555
2744.969
2655.136
2649.502
2580.403
2378.906
2094.764
1838.461
1705.843
1734.142
1895.84
2119.354
2322.745
2446.249
2470.925
2417.097
2326.249
2237.949
2173.957
2135.462
2111.143
2088.67
2062.561
2035.5
2014.711
2007.012
2015.488
2038.714
2071.802
2108.122
2140.937
2164.729
2176.159
2174.55
2161.745
2141.363
2117.691
2094.538
2074.395
2058.169
2045.545
2035.709
2027.907
2021.589
2016.319
2011.81
2008.154
2005.866
2005.443
2006.672
2008.037
2009.335
1999.708
931.5709
923.6497
1285.01
2098.27
2910.693
3249.53
3104.007
2815.161
2663.441
2657.648
2640.874
2493.117
2224.365
1936.489
1740.806
1700.755
1814.188
2024.422
2248.725
2413.008
2478.903
2451.9
2368.88
2274.302
2199.092
2152.064
2124.759
2103.211
2078.341
2049.983
2024.616
2010.206
2011.799
2029.677
2059.913
2096.115
2131.284
2159.307
2175.999
2179.7
2171.321
2153.801
2131.142
2107.352
2085.557
2067.485
2053.416
2042.638
2034.16
2027.24
2021.483
2016.668
2012.69
2009.696
2008.112
2008.241
2009.647
2010.672
2010.969
1999.205
922.6412
1026.697
1680.792
2624.042
3223.515
3226.803
2917.574
2685.29
2650.315
2674.911
2590.625
2356.391
2054.47
1805.131
1695.05
1748.492
1929.238
2161.158
2360.873
2470.973
2478.574
2411.146
2314.719
2228.746
2171.173
2138.606
2116.994
2093.964
2065.789
2037.193
2016.602
2010.904
2022.419
2048.623
2083.656
2120.359
2152.034
2173.68
2182.703
2179.105
2165.112
2144.326
2120.707
2097.702
2077.693
2061.743
2049.68
2040.538
2033.224
2027.028
2021.712
2017.281
2013.815
2011.495
2010.601
2011.184
2012.552
2012.95
2011.912
1997.958
922.9084
1275.643
2222.895
3093.12
3328.737
3053.535
2734.04
2636.239
2681.767
2664.835
2482.995
2186.234
1896.307
1719.345
1705.015
1840.913
2064.714
2290.606
2444.706
2493.485
2450.169
2358.041
2263.292
2193.84
2153.517
2130.154
2108.911
2082.159
2051.905
2026.148
2013.208
2017.551
2038.476
2071.093
2108.346
2143.028
2169.296
2183.6
2185.018
2175.029
2156.788
2134.121
2110.606
2088.996
2070.971
2057.084
2046.859
2039.167
2032.842
2027.215
2022.217
2018.105
2015.149
2013.526
2013.302
2014.208
2015.282
2014.741
2012.043
1995.962
977.0415
1727.262
2824.263
3375.084
3215.62
2822.766
2628.313
2663.774
2710.217
2596.349
2324.827
2010.129
1773.796
1688.576
1766.766
1965.574
2204.676
2398.729
2493.13
2482.508
2402.356
2302.584
2220.973
2170.5
2143.135
2122.929
2098.414
2068.078
2038.516
2018.855
2015.596
2030.129
2058.972
2095.563
2132.403
2162.859
2182.37
2189.01
2183.435
2168.278
2147.187
2123.832
2101.201
2081.341
2065.353
2053.427
2044.884
2038.467
2032.95
2027.721
2022.923
2019.09
2016.67
2015.778
2016.181
2017.234
2017.716
2015.91
2011.257
1993.252
1176.932
2384.195
3322.793
3384.754
2960.487
2643.384
2627.665
2722.711
2688.702
2462.931
2141.128
1856.46
1702.054
1713.518
1870.996
2107.408
2333.123
2474.515
2504.356
2444.974
2345.815
2253.225
2190.658
2156.647
2136.01
2114.005
2085.021
2053.227
2027.762
2016.867
2024.166
2047.942
2082.52
2120.427
2154.411
2178.921
2190.949
2190.202
2178.659
2159.694
2137.036
2113.924
2092.689
2074.755
2060.788
2050.718
2043.704
2038.373
2033.457
2028.448
2023.751
2020.2
2018.379
2018.251
2019.197
2020.161
2019.714
2016.323
2009.486
1989.92
1667.549
3117.126
3530.598
3146.825
2700.096
2586.125
2700.862
2752.194
2592.967
2283.189
1963.575
1746.097
1686.605
1788.64
2004.833
2249.785
2435.607
2511.856
2482.5
2391.372
2290.798
2215.113
2171.673
2148.418
2128.511
2102.031
2069.716
2039.715
2021.517
2021.019
2038.593
2069.818
2107.555
2144.161
2173.224
2190.654
2195.104
2187.742
2171.5
2150.059
2126.897
2104.689
2085.152
2069.222
2057.24
2048.924
2043.269
2038.795
2034.241
2029.282
2024.64
2021.433
2020.302
2020.946
2022.288
2022.862
2021.119
2015.855
2006.706
1986.117
2589.401
3614.459
3361.948
2812.784
2558.847
2647.914
2779.043
2706.726
2430.066
2090.237
1819.041
1689.583
1725.888
1904.271
2152.55
2375.804
2501.516
2511.031
2436.781
2333.212
2244.798
2189.439
2160.774
2141.716
2118.394
2087.288
2054.381
2029.618
2021.034
2031.408
2057.994
2094.3
2132.489
2165.428
2188.029
2197.883
2195.227
2182.372
2162.769
2140.022
2117.158
2096.282
2078.616
2064.731
2054.701
2048.018
2043.502
2039.6
2035.154
2030.119
2025.563
2022.825
2022.48
2023.851
2025.357
2025.176
2021.773
2014.413
2002.964
1982.053
3772.579
3525.181
2972.756
2573.229
2574.95
2762.242
2794.759
2575.443
2231.271
1917.261
1723.544
1689.085
1813.831
2047.058
2296.242
2470.68
2526.468
2478.779
2379.148
2280.193
2211.248
2174.098
2153.757
2133.481
2105.094
2071.212
2041.126
2024.547
2026.866
2047.524
2081.112
2119.809