/*--------------------------------*- C++ -*----------------------------------*\
| =========                 |                                                 |
| \\      /  F ield         | OpenFOAM: The Open Source CFD Toolbox           |
|  \\    /   O peration     | Version:  2312                                  |
|   \\  /    A nd           | Website:  www.openfoam.com                      |
|    \\/     M anipulation  |                                                 |
\*---------------------------------------------------------------------------*/
FoamFile
{
    version     2.0;
    format      ascii;
    arch        "LSB;label=32;scalar=64";
    class       volScalarField;
    location    "4950";
    object      ILambda_12_0;
}
// * * * * * * * * * * * * * * * * * * * * * * * * * * * * * * * * * * * * * //

dimensions      [1 0 -3 0 0 0 0];

internalField   nonuniform List<scalar> 
12000
(
788.716
771.8029
768.8379
763.281
758.7525
755.1171
752.7718
751.4884
750.8997
750.68
750.6352
750.6399
750.5089
749.9115
748.4308
745.7534
741.8603
737.0692
731.8888
726.7876
722.0345
717.7012
713.7846
710.3363
707.4972
705.4253
704.1797
703.643
703.5269
703.4513
703.0533
702.0793
700.4363
698.1985
695.5781
692.8634
690.35
688.2779
686.7885
685.9014
685.5193
685.4586
685.5043
685.459
685.1637
684.4793
683.2811
681.4885
679.0804
676.0692
672.4743
668.3277
663.726
658.7806
653.5714
648.1767
642.7387
637.4954
632.7718
629.0759
735.2014
733.9909
732.579
731.1741
729.9723
728.5975
726.9085
724.8451
722.4467
719.763
716.8244
713.6515
710.2996
706.898
703.642
700.7289
698.2785
696.2921
694.6766
693.3104
692.1016
691.0017
689.9781
688.9761
687.9047
686.6552
685.1393
683.324
681.2434
678.9885
676.6797
674.4351
672.3428
670.441
668.7102
667.0807
665.4499
663.7067
661.7544
659.5289
657.0081
654.2096
651.1775
647.9668
644.6359
641.2504
637.8871
634.6222
631.5227
628.6488
626.0602
623.812
621.9353
620.4478
619.3701
618.7176
618.4763
618.5845
618.9253
619.2839
706.5928
703.8632
702.0874
700.0073
697.8501
695.5676
693.2076
690.8171
688.4445
686.129
683.903
681.7954
679.8304
678.0209
676.3599
674.8155
673.3364
671.8644
670.3495
668.7574
667.0692
665.275
663.3695
661.3517
659.2281
657.0172
654.7488
652.4599
650.1862
647.9548
645.7784
643.6541
641.566
639.491
637.4057
635.2945
633.1542
630.9964
628.8467
626.7409
624.7198
622.8238
621.0891
619.5451
618.2147
617.114
616.2511
615.6256
615.2289
615.046
615.0553
615.2294
615.5358
615.9403
616.4075
616.9003
617.3821
617.8219
618.2022
618.5253
677.1928
673.8265
672.1068
670.0224
668.0494
666.0924
664.183
662.3173
660.4937
658.7056
656.9442
655.198
653.4532
651.6951
649.9112
648.0934
646.2397
644.3547
642.447
640.5283
638.6112
636.7095
634.837
633.0081
631.2364
629.5331
627.9068
626.3621
624.9009
623.5232
622.2288
621.0192
619.8985
618.8739
617.9555
617.1551
616.484
615.9521
615.5657
615.3273
615.2349
615.2828
615.4619
615.7605
616.1646
616.6588
617.227
617.853
618.5214
619.2183
619.9317
620.6527
621.3751
622.0964
622.8173
623.5423
624.2802
625.0431
625.8456
626.6999
649.806
646.8543
645.4283
643.6842
642.057
640.4384
638.8507
637.2856
635.7431
634.2229
632.7262
631.2558
629.8164
628.4145
627.0584
625.7573
624.5209
623.358
622.2766
621.2833
620.3833
619.5807
618.8783
618.2777
617.7794
617.3828
617.087
616.8907
616.7928
616.7925
616.8895
617.0831
617.3723
617.7552
618.2283
618.7866
619.4236
620.1314
620.901
621.7232
622.5891
623.4899
624.4181
625.3672
626.3318
627.308
628.2935
629.2871
630.2893
631.3014
632.326
633.3661
634.4253
635.5069
636.6142
637.7498
638.9157
640.1135
641.3439
642.6072
628.7281
626.7802
625.92
624.8752
623.9495
623.0697
622.2563
621.5084
620.8307
620.227
619.7011
619.2568
618.8975
618.6257
618.4435
618.3516
618.3501
618.4381
618.6137
618.8747
619.2181
619.6407
620.1388
620.7087
621.3464
622.0479
622.8091
623.626
624.4944
625.4098
626.3678
627.3634
628.3917
629.4476
630.5262
631.6226
632.7326
633.8525
634.9794
636.1111
637.246
638.3832
639.5224
640.6637
641.8076
642.9545
644.1051
645.2598
646.419
647.5823
648.7494
649.9192
651.0902
652.2604
653.4276
654.5895
655.7437
656.8889
658.025
659.158
619.9847
619.6672
619.693
619.733
619.8662
620.0694
620.3475
620.6985
621.1215
621.615
622.177
622.8051
623.4964
624.2475
625.0548
625.9145
626.8225
627.7748
628.7674
629.7962
630.8573
631.9469
633.0613
634.1968
635.3502
636.518
637.6972
638.8847
640.0778
641.2737
642.4702
643.665
644.8563
646.0425
647.2225
648.3952
649.5599
650.716
651.8631
653.0008
654.1285
655.2456
656.3515
657.4452
658.5255
659.5912
660.6406
661.672
662.6835
663.6731
664.6385
665.5779
666.4891
667.3702
668.2198
669.0364
669.8193
670.5692
671.2893
671.9933
625.3386
626.5317
627.3083
628.2511
629.215
630.2261
631.2736
632.3555
633.4679
634.6073
635.7702
636.9531
638.1525
639.3652
640.5879
641.8177
643.0516
644.287
645.5213
646.7521
647.9773
649.1948
650.4025
651.5987
652.7817
653.95
655.1019
656.2361
657.3514
658.4465
659.5201
660.5712
661.5985
662.601
663.5773
664.5261
665.446
666.3355
667.1929
668.0164
668.8041
669.5541
670.2642
670.9325
671.5568
672.135
672.6651
673.145
673.5728
673.9468
674.2653
674.5266
674.7295
674.8727
674.9552
674.9763
674.9358
674.8349
674.6789
674.484
640.309
642.2342
643.3228
644.6305
645.8933
647.1666
648.4328
649.6922
650.9413
652.1778
653.3993
654.6035
655.7883
656.9517
658.0918
659.2067
660.2947
661.3541
662.3833
663.3805
664.3443
665.2731
666.1653
667.0193
667.8337
668.6068
669.3371
670.0229
670.6628
671.2549
671.7978
672.2896
672.7287
673.1135
673.4422
673.7132
673.925
674.076
674.1648
674.1902
674.1509
674.0462
673.8753
673.6375
673.3327
672.9609
672.5222
672.0172
671.4468
670.8121
670.1145
669.3558
668.5383
667.6645
666.7373
665.7604
664.7384
663.6772
662.5867
661.4837
657.7667
659.5252
660.4688
661.5853
662.623
663.6367
664.6097
665.543
666.4341
667.2815
668.0833
668.8382
669.5446
670.201
670.8062
671.3588
671.8575
672.3011
672.6885
673.0185
673.2902
673.5027
673.6551
673.7467
673.7769
673.7452
673.6514
673.4951
673.2766
672.9959
672.6536
672.2502
671.7869
671.2647
670.6851
670.0501
669.3617
668.6225
667.8353
667.0034
666.1302
665.2198
664.2766
663.3053
662.3109
661.299
660.2754
659.2463
658.2183
657.1983
656.1934
655.2111
654.2593
653.3459
652.4794
651.6686
650.9227
650.2517
649.6673
649.1795
670.2611
671.07
671.4813
671.9386
672.3176
672.6455
672.9132
673.1219
673.2706
673.3592
673.3877
673.3564
673.2654
673.1155
672.9072
672.6416
672.3198
671.9432
671.5133
671.032
670.5014
669.9238
669.3018
668.6383
667.9365
667.1998
666.4319
665.6367
664.8186
663.9821
663.132
662.2734
661.4116
660.552
659.7006
658.8631
658.0458
657.2548
656.4964
655.7772
655.1035
654.4818
653.9184
653.4198
652.9921
652.6413
652.3731
652.1931
652.1063
652.1176
652.231
652.4505
652.779
653.2192
653.7731
654.4419
655.2265
656.1274
657.1445
658.2734
672.6122
672.1687
671.9368
671.6144
671.2578
670.8547
670.4088
669.9217
669.3961
668.8348
668.2409
667.6179
666.9693
666.2989
665.6107
664.9089
664.1979
663.4821
662.7662
662.055
661.3534
660.6663
659.9988
659.356
658.7429
658.1646
657.626
657.1321
656.6876
656.2971
655.965
655.6955
655.4925
655.3594
655.2994
655.3154
655.4097
655.5841
655.84
656.178
656.5985
657.101
657.6843
658.3468
659.0861
659.8989
660.7814
661.729
662.7364
663.7975
664.9054
666.0527
667.2312
668.4322
669.6464
670.8641
672.0754
673.271
674.4423
675.5827
666.5931
665.516
665.031
664.4165
663.8385
663.2587
662.6898
662.1331
661.593
661.0733
660.5781
660.1113
659.677
659.2789
658.9206
658.6057
658.3375
658.1189
657.9528
657.8416
657.7877
657.7928
657.8584
657.9856
658.1751
658.427
658.741
659.1165
659.5522
660.0462
660.5965
661.2001
661.8538
662.5537
663.2956
664.0747
664.8857
665.7229
666.5804
667.4516
668.3298
669.2081
670.0792
670.9357
671.7703
672.5754
673.3438
674.0683
674.7417
675.3576
675.9094
676.3913
676.7983
677.1258
677.3701
677.5286
677.6002
677.5853
677.4873
677.3171
660.7635
660.1645
660.0144
659.8154
659.6887
659.6006
659.5603
659.5664
659.62
659.7217
659.8717
660.0701
660.3165
660.6103
660.9506
661.3357
661.764
662.2333
662.741
663.2845
663.8604
664.4653
665.0955
665.7469
666.415
667.0954
667.7834
668.4739
669.1621
669.8428
670.5108
671.1613
671.7891
672.3896
672.9579
673.4899
673.9815
674.429
674.8293
675.1797
675.4781
675.723
675.9137
676.0501
676.1329
676.1636
676.1448
676.0797
675.9724
675.8278
675.652
675.4515
675.2341
675.0081
674.783
674.5691
674.3774
674.2205
674.1125
674.0742
661.8271
662.1558
662.49
662.8743
663.2968
663.7497
664.2314
664.7379
665.2663
665.8135
666.3761
666.951
667.5346
668.1236
668.7142
669.3029
669.8862
670.4605
671.0224
671.5686
672.096
672.6017
673.0831
673.5378
673.9636
674.359
674.7226
675.0534
675.351
675.6155
675.8473
676.0475
676.2176
676.3599
676.477
676.5722
676.6493
676.7127
676.7672
676.8183
676.8718
676.934
677.0116
677.1116
677.2414
677.4084
677.6203
677.8847
678.2092
678.6013
679.068
679.6161
680.2518
680.9811
681.8091
682.7405
683.7794
684.9298
686.1967
687.5913
668.1369
668.8662
669.3374
669.8874
670.4219
670.9554
671.48
671.9938
672.4944
672.9798
673.4484
673.8989
674.3303
674.7418
675.133
675.5039
675.8548
676.1861
676.4991
676.7951
677.0759
677.3437
677.6012
677.8511
678.0967
678.3415
678.5895
678.8447
679.1114
679.3941
679.6974
680.0262
680.3851
680.7791
681.2128
681.6908
682.2177
682.7977
683.4346
684.1321
684.8933
685.721
686.6172
687.5835
688.6208
689.7295
690.9089
692.1579
693.4743
694.8552
696.2966
697.7938
699.3411
700.9323
702.5603
704.2175
705.8961
707.5885
709.2907
711.0058
674.6896
675.3082
675.6833
676.1327
676.5576
676.981
677.3961
677.8053
678.2092
678.6096
679.0083
679.4076
679.8099
680.2179
680.6342
681.0617
681.5034
681.9625
682.442
682.9451
683.4751
684.0348
684.6273
685.2555
685.9218
686.6287
687.3782
688.1721
689.0117
689.8981
690.8316
691.8125
692.8402
693.914
695.0321
696.1928
697.3934
698.6308
699.9013
701.2007
702.5244
703.8671
705.2231
706.5864
707.9504
709.3086
710.6537
711.9786
713.2758
714.5379
715.7573
716.9265
718.0381
719.0851
720.0611
720.9603
721.7778
722.5103
723.159
723.7302
681.3667
682.0992
682.5731
683.1544
683.7338
684.3387
684.962
685.6071
686.2748
686.9666
687.6841
688.4286
689.2012
690.0031
690.8349
691.6971
692.5899
693.5134
694.4671
695.4503
696.462
697.5008
698.565
699.6524
700.7605
701.8864
703.0268
704.1781
705.3364
706.4973
707.6564
708.8087
709.9492
711.0728
712.1739
713.2472
714.2872
715.2883
716.2453
717.1527
718.0054
718.7987
719.528
720.189
720.778
721.2918
721.7274
722.0828
722.3561
722.5464
722.6532
722.6765
722.6172
722.4768
722.2578
721.9633
721.5977
721.1665
720.6776
720.1389
691.734
692.9402
693.7084
694.6287
695.5449
696.4898
697.452
698.4319
699.4269
700.4352
701.4546
702.4829
703.5175
704.5556
705.5943
706.6302
707.6601
708.6804
709.6873
710.6771
711.6459
712.5896
713.5044
714.3862
715.231
716.0348
716.7938
717.5042
718.1625
718.7653
719.3096
719.7924
720.2112
720.5639
720.8486
721.064
721.2091
721.2834
721.2868
721.22
721.0837
720.8796
720.6096
720.2762
719.8824
719.4316
718.9278
718.3754
717.779
717.1437
716.4748
715.7776
715.058
714.3218
713.5751
712.8245
712.0765
711.3382
710.6164
709.9166
705.3568
706.6942
707.5165
708.4653
709.3771
710.2812
711.1648
712.0261
712.861
713.6661
714.4381
715.1739
715.8704
716.5246
717.1336
717.6949
718.2057
718.664
719.0676
719.4148
719.7041
719.9343
720.1046
720.2144
720.2636
720.2522
720.1808
720.0503
719.8618
719.6171
719.318
718.9669
718.5665
718.1197
717.63
717.1009
716.5365
715.9408
715.3185
714.6739
714.0122
713.3381
712.6568
711.9735
711.2934
710.6219
709.964
709.3251
708.7103
708.1243
707.5719
707.0576
706.5855
706.1597
705.7842
705.4628
705.1993
704.9976
704.8612
704.795
716.0124
716.677
717.0944
717.5339
717.9216
718.2666
718.563
718.8098
719.0054
719.149
719.24
719.2785
719.2645
719.1985
719.0814
718.9142
718.6984
718.4358
718.1283
717.7783
717.3885
716.9619
716.5015
716.0108
715.4934
714.9531
714.3939
713.82
713.2355
712.6448
712.0523
711.4625
710.8798
710.3087
709.7537
709.2191
708.7092
708.2283
707.7804
707.3695
706.9993
706.6736
706.3956
706.1687
705.9958
705.8798
705.8232
705.8284
705.8975
706.0322
706.234
706.5042
706.8436
707.253
707.7331
708.2845
708.908
709.6046
710.3766
711.2312
718.3275
717.9896
717.8571
717.6509
717.4245
717.1613
716.8658
716.5384
716.1812
715.7967
715.3876
714.9567
714.5072
714.0426
713.5662
713.0818
712.593
712.1038
711.6179
711.1394
710.6723
710.2205
709.7879
709.3785
708.9961
708.6444
708.327
708.0473
707.8086
707.6141
707.4667
707.3691
707.3238
707.3331
707.3991
707.5236
707.7083
707.9546
708.2635
708.6359
709.0726
709.5741
710.1404
710.7717
711.4678
712.2282
713.0523
713.9395
714.8887
715.8986
716.9678
718.0946
719.2771
720.5134
721.8013
723.139
724.5247
725.9575
727.4394
728.9801
713.9015
713.1122
712.7747
712.3599
711.9766
711.5978
711.232
710.8799
710.5449
710.2297
709.9376
709.6715
709.4345
709.2297
709.06
708.9283
708.8373
708.7894
708.7872
708.8329
708.9286
709.0761
709.2772
709.5333
709.8457
710.2153
710.6429
711.1291
711.6741
712.2779
712.9403
713.661
714.4391
715.2739
716.1642
717.1086
718.1055
719.1534
720.2501
721.3937
722.5818
723.8119
725.0816
726.3881
727.7285
729.0999
730.4992
731.9233
733.3687
734.8322
736.31
737.7986
739.294
740.7924
742.2903
743.7839
745.2704
746.7477
748.2179
749.6926
710.1628
709.8653
709.8465
709.8412
709.8937
709.9907
710.1354
710.3276
710.5683
710.8584
711.1986
711.5897
712.0322
712.5263
713.0725
713.6706
714.3204
715.0217
715.7737
716.5757
717.4266
718.3254
719.2706
720.2606
721.2936
722.3676
723.4805
724.63
725.8135
727.0283
728.2716
729.5405
730.8319
732.1426
733.4693
734.8087
736.1573
737.5116
738.8681
740.2233
741.5737
742.9156
744.2455
745.5601
746.8558
748.1295
749.3778
750.5976
751.7859
752.9398
754.0563
755.1329
756.1668
757.1557
758.0978
758.9915
759.8361
760.6322
761.3838
762.1018
713.9991
714.7386
715.3052
715.9985
716.7302
717.5142
718.3436
719.2171
720.1325
721.0879
722.0811
723.1101
724.1728
725.2668
726.3897
727.5391
728.7124
729.9068
731.1198
732.3483
733.5895
734.8404
736.098
737.3592
738.6209
739.8801
741.1336
742.3782
743.611
744.8288
746.0287
747.2077
748.363
749.4919
750.5918
751.6601
752.6945
753.693
754.6534
755.5742
756.4536
757.2903
758.0834
758.8318
759.5352
760.1932
760.8058
761.3732
761.896
762.3751
762.8113
763.206
763.5605
763.8768
764.1571
764.4042
764.6214
764.8128
764.9845
765.1411
726.3075
727.8383
728.8122
729.9681
731.1144
732.2873
733.472
734.6672
735.8688
737.0738
738.279
739.4814
740.6781
741.8662
743.043
744.2058
745.352
746.4793
747.5851
748.6673
749.7237
750.7523
751.7513
752.7189
753.6536
754.554
755.4187
756.2468
757.0374
757.7897
758.5034
759.1779
759.8134
760.4099
760.9676
761.4872
761.9694
762.415
762.8253
763.2016
763.5454
763.8583
764.1424
764.3996
764.632
764.8421
765.0321
765.2045
765.3619
765.5068
765.6414
765.7682
765.8895
766.0073
766.1241
766.2422
766.3638
766.4916
766.6279
766.7716
742.0122
743.5933
744.5535
745.6681
746.7369
747.7988
748.839
749.8572
750.8503
751.8165
752.7538
753.6608
754.5362
755.3789
756.1879
756.9626
757.7025
758.4073
759.0767
759.7109
760.31
760.8744
761.4046
761.9011
762.3648
762.7965
763.1972
763.568
763.91
764.2246
764.513
764.7766
765.0167
765.2349
765.4324
765.6108
765.7713
765.9154
766.0442
766.1589
766.2607
766.3505
766.4292
766.4974
766.5557
766.6045
766.6439
766.6739
766.6943
766.7044
766.7036
766.6906
766.664
766.6224
766.5641
766.4875
766.3909
766.2731
766.1332
765.9743
755.1104
756.169
756.8228
757.5619
758.2546
758.9253
759.5649
760.1739
760.7513
761.2969
761.8106
762.2927
762.7435
763.1636
763.5535
763.9141
764.2459
764.5501
764.8273
765.0786
765.3048
765.5068
765.6855
765.8418
765.9763
766.0897
766.1827
766.2558
766.3092
766.3434
766.3584
766.3542
766.3309
766.2881
766.2254
766.1424
766.0384
765.9127
765.7644
765.5925
765.396
765.1738
764.9247
764.6474
764.3408
764.0036
763.6347
763.2331
762.7976
762.3273
761.8213
761.2791
760.6999
760.0839
759.4311
758.7424
758.0195
757.2651
756.4842
755.691
762.9723
763.3922
763.6961
764.0218
764.3212
764.5982
764.8499
765.0758
765.2755
765.4491
765.5965
765.718
765.8138
765.884
765.9288
765.9486
765.9434
765.9134
765.8585
765.779
765.6745
765.5451
765.3906
765.2106
765.0049
764.7731
764.5148
764.2297
763.9173
763.5771
763.2089
762.8122
762.3867
761.9324
761.4492
760.9371
760.3964
759.8275
759.2311
758.6081
757.9598
757.2876
756.5933
755.8792
755.1478
754.4021
753.6453
752.8814
752.1143
751.3488
750.5896
749.8422
749.1121
748.4055
747.7292
747.0904
746.497
745.9581
745.485
745.0945
765.4615
765.2896
765.2646
765.2067
765.1378
765.045
764.929
764.7877
764.6207
764.4276
764.208
763.9617
763.6888
763.3892
763.0632
762.7108
762.3325
761.9285
761.4995
761.0459
760.5685
760.0681
759.5457
759.0025
758.4397
757.8588
757.2615
756.6498
756.0257
755.3916
754.7501
754.104
753.4566
752.8112
752.1716
751.5415
750.9253
750.3275
749.7528
749.2061
748.6927
748.218
747.7876
747.4071
747.0825
746.8196
746.6245
746.5029
746.4608
746.5037
746.6372
746.8663
747.1957
747.63
748.1733
748.8297
749.6026
750.4959
751.5146
752.6664
762.5269
761.7913
761.4591
761.0461
760.6391
760.2131
759.7718
759.314
758.8405
758.3519
757.8497
757.3352
756.8101
756.2764
755.7363
755.1921
754.6465
754.1023
753.5623
753.0299
752.5082
752.0009
751.5115
751.0439
750.6019
750.1897
749.8113
749.4709
749.1729
748.9215
748.721
748.5757
748.4898
748.4674
748.5126
748.629
748.8204
749.0902
749.4414
749.8769
750.3991
751.0098
751.7108
752.5031
753.3871
754.3629
755.4299
756.5867
757.8314
759.1612
760.5727
762.0615
763.6228
765.2506
766.939
768.681
770.4695
772.2978
774.161
776.0598
755.8542
754.9075
754.5046
754.024
753.5833
753.1545
752.7434
752.3507
751.9787
751.6299
751.3073
751.0138
750.7526
750.5269
750.34
750.1953
750.096
750.0454
750.0466
750.1029
750.2169
750.3917
750.6295
750.9328
751.3036
751.7437
752.2543
752.8367
753.4913
754.2186
755.0183
755.8897
756.8318
757.8429
758.9208
760.063
761.2663
762.5268
763.8405
765.2025
766.6076
768.0499
769.5232
771.0209
772.5358
774.0604
775.5868
777.107
778.6126
780.0949
781.5451
782.9543
784.3135
785.6142
786.8478
788.0064
789.0829
790.0716
790.9703
791.7829
751.4365
751.0811
751.074
751.0764
751.1459
751.2666
751.4405
751.668
751.9497
752.2869
752.6802
753.1305
753.6384
754.2044
754.8284
755.5105
756.2501
757.0463
757.898
758.8037
759.7614
760.7686
761.8227
762.9204
764.0581
765.2319
766.4373
767.6696
768.9237
770.1941
771.475
772.7603
774.0439
775.3192
776.5795
777.8182
779.0283
780.2031
781.3358
782.4197
783.4482
784.4152
785.3145
786.1407
786.8886
787.5533
788.1308
788.6174
789.0103
789.3073
789.5067
789.6078
789.6106
789.5161
789.3265
789.0449
788.676
788.2259
787.7034
787.1182
755.6734
756.4158
757.0313
757.7631
758.5386
759.365
760.2344
761.1445
762.0914
763.0721
764.083
765.1205
766.1808
767.26
768.3539
769.458
770.5678
771.6786
772.7855
773.8833
774.967
776.0314
777.0712
778.0812
779.0562
779.9911
780.8808
781.7207
782.5062
783.2329
783.897
784.4949
785.0234
785.4799
785.8621
786.1685
786.3981
786.5505
786.626
786.6256
786.5509
786.4046
786.1896
785.9101
785.5707
785.1769
784.735
784.2518
783.7351
783.193
782.6343
782.0683
781.5047
780.9539
780.4269
779.9349
779.4897
779.1035
778.7881
778.5524
767.5093
768.7983
769.6509
770.6333
771.5981
772.5646
773.52
774.4605
775.3806
776.2758
777.1419
777.9747
778.7703
779.5251
780.2357
780.8989
781.5121
782.0725
782.5782
783.0274
783.4185
783.7508
784.0237
784.2371
784.3917
784.4883
784.5287
784.5148
784.4494
784.3357
784.1776
783.9794
783.746
783.4829
783.1962
782.8924
782.5784
782.2616
781.9498
781.6512
781.3742
781.1276
780.9203
780.7611
780.6593
780.6239
780.6639
780.788
781.0049
781.3226
781.749
782.2911
782.9557
783.7488
784.676
785.7421
786.9515
788.3077
789.8132
791.4692
778.2503
779.0041
779.4945
780.0281
780.5171
780.9697
781.38
781.7465
782.0681
782.3444
782.5759
782.7633
782.908
783.0117
783.0769
783.1063
783.1032
783.0712
783.0146
782.9377
782.8456
782.7434
782.6368
782.5316
782.434
782.3505
782.2877
782.2523
782.2511
782.2912
782.3794
782.5227
782.7278
783.0015
783.35
783.7797
784.2962
784.9051
785.6114
786.4195
787.3334
788.3565
789.4913
790.74
792.1037
793.5829
795.1773
796.8857
798.7061
800.6354
802.6697
804.8041
807.033
809.3496
811.747
814.217
816.7514
819.3419
821.9818
824.6696
782.0586
782.0607
782.1525
782.2353
782.3164
782.3885
782.4553
782.5186
782.5825
782.6509
782.7285
782.82
782.9307
783.0657
783.2305
783.4304
783.6709
783.9574
784.2952
784.6895
785.1453
785.6672
786.2597
786.9271
787.6729
788.5006
789.413
790.4125
791.501
792.6797
793.9494
795.3102
796.7615
798.302
799.9299
801.6427
803.437
805.3091
807.2542
809.2673
811.3424
813.473
815.6522
817.8724
820.1256
822.4033
824.6967
826.9965
829.2933
831.5775
833.8391
836.0682
838.2548
840.3892
842.462
844.4644
846.3882
848.2273
849.9792
851.6537
783.9413
784.2108
784.5169
784.901
785.3366
785.8254
786.3685
786.968
787.6265
788.3466
789.1309
789.9816
790.9009
791.8904
792.9517
794.0855
795.2926
796.5729
797.9261
799.3511
800.8465
802.4104
804.0401
805.7327
807.4846
809.2916
811.1493
813.0525
814.9958
816.9733
818.9787
821.0054
823.0465
825.0947
827.1427
829.1831
831.2082
833.2104
835.1822
837.116
839.0045
840.8406
842.6175
844.3288
845.9685
847.5309
849.0111
850.4046
851.7075
852.9167
854.0295
855.0441
855.9593
856.7749
857.4917
858.1115
858.6371
859.0735
859.4296
859.7246
793.6722
795.1838
796.1881
797.4255
798.6997
800.0468
801.4533
802.9184
804.4389
806.0118
807.6341
809.3023
811.0129
812.7617
814.5446
816.357
818.194
820.0506
821.9213
823.8006
825.6827
827.5619
829.4321
831.2874
833.1216
834.9289
836.7032
838.4389
840.1302
841.7718
843.3586
844.8857
846.3487
847.7434
849.0662
850.3138
851.4835
852.5731
853.5807
854.5053
855.3463
856.1034
856.7773
857.3688
857.8795
858.3115
858.6673
858.9497
859.1622
859.3082
859.3916
859.4165
859.387
859.3075
859.1826
859.017
858.8157
858.5841
858.33
858.066
813.598
816.0676
817.532
819.2974
821.0263
822.785
824.5476
826.3126
828.0731
829.8238
831.5594
833.2748
834.9648
836.6247
838.2495
839.8346
841.3756
842.8683
844.3084
845.6924
847.0165
848.2776
849.4728
850.5993
851.6549
852.6377
853.5461
854.3788
855.1351
855.8143
856.4165
856.9416
857.3903
857.7633
858.0618
858.2869
858.4404
858.5239
858.5393
858.4887
858.3741
858.1976
857.9612
857.6672
857.3172
856.9133
856.4568
855.9493
855.3916
854.7846
854.1285
853.4231
852.6679
851.8621
851.0045
850.0939
849.1287
848.108
847.0323
845.9043
836.1489
838.3746
839.6288
841.1059
842.4916
843.8486
845.153
846.4044
847.5979
848.7304
849.7988
850.8007
851.7337
852.596
853.3859
854.1022
854.7438
855.3098
855.7997
856.2133
856.5503
856.8109
856.9954
857.1042
857.1379
857.0973
856.9831
856.7963
856.5377
856.2085
855.8095
855.3417
854.806
854.2035
853.5347
852.8004
852.0013
851.1378
850.2104
849.2191
848.1642
847.0457
845.8635
844.6174
843.3071
841.9325
840.4931
838.9887
837.4191
835.7842
834.0837
832.3177
830.4867
828.5914
826.6331
824.6137
822.5362
820.4045
818.2243
816.0015
851.4262
852.3639
852.8858
853.4612
853.9478
854.3711
854.7193
854.9925
855.1888
855.3078
855.349
855.3122
855.1976
855.0055
854.7363
854.3907
853.9693
853.4729
852.9022
852.2583
851.5421
850.7544
849.8963
848.9687
847.9728
846.9096
845.78
844.5852
843.3263
842.0045
840.6209
839.1768
837.6736
836.1127
834.4957
832.8244
831.1008
829.327
827.5055
825.6389
823.7302
821.7829
819.8007
817.7878
815.7489
813.689
811.6137
809.5293
807.4423
805.36
803.2899
801.2401
799.2195
797.2373
795.3035
793.4289
791.6246
789.9028
788.2753
786.7526
853.2175
852.4294
852.0248
851.4822
850.8948
850.2344
849.5041
848.7028
847.8308
846.8892
845.8789
844.8015
843.6585
842.4515
841.1824
839.8532
838.4661
837.0232
835.5269
833.9797
832.3843
830.7434
829.06
827.3374
825.5787
823.7876
821.9678
820.1233
818.2584
816.3775
814.4855
812.5875
810.6886
808.7946
806.9113
805.0451
803.2024
801.3899
799.6147
797.8842
796.2058
794.5872
793.0364
791.5612
790.1699
788.8705
787.6711
786.5797
785.6041
784.7518
784.0299
783.4453
783.004
782.7119
782.5743
782.5958
782.7804
783.1319
783.6531
784.3474
840.2408
837.9024
836.7044
835.2204
833.7605
832.2471
830.6977
829.1101
827.4878
825.8337
824.1514
822.4444
820.7167
818.9726
817.2164
815.4526
813.6861
811.9216
810.1644
808.4196
806.6926
804.989
803.3143
801.6743
800.0749
798.5221
797.0217
795.5798
794.2024
792.8956
791.6653
790.5172
789.4573
788.4909
787.6236
786.8602
786.2058
785.6646
785.2409
784.9381
784.7594
784.7074
784.7842
784.9909
785.3284
785.7967
786.3948
787.1214
787.9738
788.9488
790.0421
791.2486
792.5622
793.9762
795.4831
797.0748
798.7426
800.4782
802.2749
804.1326
817.5606
814.6107
813.173
811.4294
809.79
808.154
806.547
804.967
803.4194
801.9085
800.4391
799.0161
797.6443
796.3288
795.0744
793.8861
792.7685
791.7263
790.7639
789.8857
789.0957
788.3977
787.7952
787.2914
786.8892
786.591
786.3989
786.3145
786.3391
786.4731
786.7169
787.07
787.5315
788.0997
788.7728
789.5478
790.4217
791.3904
792.4494
793.5939
794.8181
796.1159
797.4807
798.9053
800.3822
801.9035
803.4609
805.0459
806.6497
808.2632
809.8774
811.483
813.0709
814.6323
816.1587
817.6423
819.0757
820.4534
821.7741
823.046
796.6278
794.5336
793.6579
792.6174
791.7271
790.9047
790.1699
789.5194
788.9565
788.4827
788.0999
787.8099
787.6139
787.5131
787.5082
787.5995
787.7871
788.0703
788.4484
788.92
789.4833
790.1361
790.8755
791.6985
792.6014
793.5802
794.6303
795.7469
796.9245
798.1576
799.4401
800.7656
802.1276
803.5192
804.9334
806.3629
807.8005
809.2388
810.6704
812.0881
813.4847
814.8532
816.1867
817.4786
818.7229
819.9137
821.0455
822.1134
823.1128
824.0398
824.8909
825.663
826.3538
826.9616
827.4855
827.9254
828.2823
828.5584
828.76
828.9016
788.7595
788.5097
788.6573
788.8508
789.1613
789.5572
790.0405
790.6057
791.2503
791.9708
792.7638
793.6257
794.5526
795.5403
796.5842
797.6797
798.8216
800.0047
801.2235
802.4722
803.7449
805.0357
806.3382
807.6463
808.9536
810.2538
811.5406
812.8078
814.0492
815.2589
816.4309
817.5598
818.6401
819.6668
820.6351
821.5405
822.3791
823.1473
823.8416
824.4595
824.9985
825.4567
825.8327
826.1255
826.3346
826.46
826.5019
826.4611
826.3387
826.1361
825.8549
825.4971
825.0647
824.5602
823.9864
823.3464
822.6436
821.8825
821.0694
820.2151
796.2106
797.4661
798.3529
799.4121
800.4953
801.6199
802.7708
803.943
805.1296
806.3249
807.5228
808.7177
809.9037
811.0753
812.2268
813.3529
814.4481
815.5073
816.5255
817.4978
818.4197
819.2867
820.0949
820.8402
821.5194
822.1291
822.6665
823.1291
823.5148
823.8218
824.0487
824.1944
824.2582
824.2399
824.1395
823.9574
823.6944
823.3516
822.9303
822.4322
821.8594
821.214
820.4985
819.7156
818.8682
817.9594
816.9923
815.9702
814.8966
813.7749
812.6085
811.401
810.1557
808.8763
807.5668
806.231
804.8734
803.4989
802.1133
800.7209
810.4439
811.8383
812.6861
813.6705
814.5993
815.5035
816.3651
817.1811
817.9458
818.6553
819.3056
819.8935
820.4159
820.87
821.2534
821.5641
821.8004
821.9609
822.0446
822.0508
821.979
821.8293
821.6019
821.2974
820.9167
820.4611
819.932
819.3312
818.6608
817.923
817.1205
816.256
815.3324
814.353
813.321
812.2401
811.1137
809.9459
808.7404
807.5014
806.2328
804.9391
803.6243
802.293
800.9495
799.5984
798.2441
796.8913
795.5445
794.2082
792.887
791.5853
790.3076
789.0586
787.8431
786.666
785.5325
784.4481
783.4182
782.4453
819.2943
819.539
819.6974
819.8423
819.9208
819.9377
819.8849
819.7619
819.5674
819.3013
818.9639
818.5559
818.0784
817.5327
816.9207
816.2442
815.5055
814.7073
813.8522
812.9431
811.9833
810.9761
809.9251
808.8338
807.706
806.5458
805.3572
804.1441
802.911
801.6619
800.4012
799.1332
797.8623
796.5928
795.3291
794.0753
792.836
791.6153
790.4174
789.2464
788.1064
787.0015
785.9354
784.912
783.9349
783.0077
782.1337
781.3162
780.5582
779.8624
779.2313
778.6671
778.1716
777.7468
777.3941
777.115
776.9109
776.7832
776.734
776.7682
815.9541
814.7185
814.0945
813.31
812.5147
811.6694
810.7809
809.8493
808.8771
807.8673
806.8229
805.7474
804.6446
803.5182
802.372
801.2101
800.0366
798.8555
797.671
796.487
795.3078
794.1373
792.9795
791.8383
790.7176
789.621
788.5523
787.5147
786.5118
785.5466
784.6221
783.7412
782.9065
782.1203
781.385
780.7023
780.0742
779.5019
778.9869
778.53
778.1318
777.7929
777.5132
777.2927
777.1308
777.0268
776.9795
776.9875
777.0491
777.162
777.3237
777.5313
777.7815
778.071
778.3962
778.7533
779.1387
779.5495
779.9855
780.4552
802.8559
800.8377
799.8718
798.6946
797.5818
796.4626
795.3535
794.2526
793.1635
792.0892
791.0327
789.9973
788.9861
788.0022
787.0484
786.1276
785.2425
784.3954
783.5886
782.8243
782.1042
781.4299
780.8028
780.2241
779.6945
779.2148
778.7852
778.4059
778.0766
777.7969
777.566
777.383
777.2464
777.1549
777.1066
777.0995
777.1313
777.1994
777.3012
777.4338
777.5939
777.7784
777.9839
778.2067
778.4433
778.6899
778.9428
779.1982
779.4522
779.701
779.9407
780.1675
780.3777
780.5679
780.735
780.8764
780.9899
781.075
781.1346
781.1804
788.3826
786.6297
785.8862
784.9846
784.1874
783.4209
782.7007
782.022
781.3863
780.7937
780.2446
779.7394
779.2783
778.8612
778.4878
778.1578
777.8705
777.6249
777.42
777.2544
777.1266
777.0348
776.9772
776.9515
776.9555
776.9867
777.0425
777.1202
777.2169
777.3298
777.4558
777.592
777.7351
777.8822
778.0302
778.1761
778.317
778.45
778.5725
778.6819
778.7758
778.8521
778.9088
778.9443
778.9572
778.9463
778.9108
778.8504
778.7647
778.654
778.5186
778.3593
778.1772
777.9739
777.7515
777.5125
777.2604
776.9994
776.7361
776.4818
779.4226
778.4739
778.1845
777.8227
777.5489
777.3091
777.1108
776.9475
776.8175
776.7182
776.6475
776.6032
776.583
776.5845
776.6056
776.6436
776.6963
776.7611
776.8355
776.9171
777.0035
777.0922
777.1809
777.2674
777.3493
777.4248
777.4918
777.5485
777.5934
777.6251
777.6421
777.6436
777.6287
777.5968
777.5476
777.4809
777.3969
777.296
777.1788
777.0463
776.8996
776.74
776.5692
776.389
776.2015
776.0089
775.8135
775.6178
775.4245
775.236
775.055
774.8839
774.7252
774.5814
774.4552
774.349
774.2654
774.2074
774.1785
774.1837
776.564
776.1919
776.1792
776.141
776.1479
776.1691
776.2041
776.2478
776.2976
776.3508
776.4053
776.4591
776.5103
776.5573
776.5986
776.6327
776.6586
776.6752
776.6815
776.6769
776.6608
776.6329
776.5929
776.5407
776.4766
776.4007
776.3136
776.2158
776.108
775.9912
775.8662