/*--------------------------------*- C++ -*----------------------------------*\
| =========                 |                                                 |
| \\      /  F ield         | OpenFOAM: The Open Source CFD Toolbox           |
|  \\    /   O peration     | Version:  2312                                  |
|   \\  /    A nd           | Website:  www.openfoam.com                      |
|    \\/     M anipulation  |                                                 |
\*---------------------------------------------------------------------------*/
FoamFile
{
    version     2.0;
    format      ascii;
    arch        "LSB;label=32;scalar=64";
    class       volScalarField;
    location    "4950";
    object      ILambda_13_0;
}
// * * * * * * * * * * * * * * * * * * * * * * * * * * * * * * * * * * * * * //

dimensions      [1 0 -3 0 0 0 0];

internalField   nonuniform List<scalar> 
12000
(
830.8337
794.9491
789.8154
778.5207
767.8397
758.758
752.7574
749.8034
749.2421
750.4585
753.1845
757.3426
762.6057
768.0273
772.1178
773.4251
771.2421
765.9267
758.6038
750.4922
742.3496
734.3837
726.5866
719.1586
712.6795
707.9245
705.4823
705.4295
707.2367
709.9221
712.3459
713.5113
712.7819
709.9923
705.4501
699.8198
693.9541
688.7026
684.751
682.4991
682.0122
683.0629
685.2648
688.2165
691.5682
694.9662
698.0203
700.3994
701.8949
702.352
701.5862
699.3991
695.7572
690.6597
683.9815
675.5575
665.4223
653.981
642.077
631.4466
772.256
761.2637
757.7915
753.479
752.3999
753.1642
755.2976
758.0782
761.0414
763.7697
765.76
766.3835
765.039
761.4212
755.722
748.6002
740.92
733.429
726.5768
720.5517
715.4482
711.404
708.6009
707.1431
706.9148
707.5229
708.362
708.7699
708.2037
706.375
703.3094
699.3282
694.9656
690.8421
687.5249
685.416
684.6899
685.2893
686.9672
689.3614
692.0788
694.7589
697.0931
698.8088
699.6498
699.3979
697.9088
695.1072
690.9605
685.4844
678.7765
671.0342
662.5034
653.4929
644.4495
635.9806
628.7749
623.4609
620.4285
619.4388
753.9424
753.2191
754.2006
755.8575
758.1737
760.1836
761.4636
761.6446
760.5095
757.9012
753.7688
748.2395
741.6727
734.6283
727.7387
721.5413
716.36
712.2928
709.2859
707.2254
705.9798
705.3833
705.1947
705.0869
704.6924
703.6926
701.9104
699.3682
696.2908
693.0553
690.1065
687.8586
686.6085
686.4781
687.3979
689.1337
691.3405
693.6289
695.6241
697.0063
697.5278
697.0092
695.3275
692.412
688.2524
682.9114
676.5239
669.285
661.4457
653.3128
645.2373
637.5889
630.7282
624.9936
620.6617
617.8776
616.5897
616.5277
617.2414
618.2177
754.9474
756.827
757.4723
757.612
756.6372
754.4496
751.053
746.5633
741.1936
735.2427
729.0858
723.1326
717.7604
713.2421
709.6999
707.1037
705.3104
704.1186
703.3119
702.679
702.0201
701.1555
699.9485
698.3375
696.3636
694.1766
692.013
690.1487
688.8389
688.2603
688.469
689.385
690.8028
692.4272
693.9215
694.9564
695.2492
694.5877
692.8378
689.9408
685.9061
680.804
674.7629
667.9674
660.653
653.0937
645.5863
638.433
631.924
626.3159
621.8102
618.5337
616.5264
615.7327
616.0013
617.1065
618.7963
620.8567
623.1723
625.7406
753.6957
751.2685
748.4471
744.639
740.0209
734.8507
729.3966
723.9546
718.8069
714.1989
710.3056
707.2063
704.8751
703.1953
701.9916
701.0708
700.2546
699.4011
698.4129
697.2416
695.8907
694.4177
692.931
691.5753
690.5062
689.8563
689.7013
690.035
690.7579
691.6849
692.5681
693.1318
693.1095
692.2783
690.481
687.638
683.7463
678.8728
673.1436
666.7336
659.8565
652.7558
645.6926
638.9324
632.7275
627.3008
622.8313
619.4419
617.1921
616.074
616.0164
616.8958
618.5527
620.8137
623.5185
626.5453
629.8279
633.3529
637.1334
641.1608
740.6017
733.6258
729.1993
724.0999
719.26
714.7541
710.7682
707.401
704.6875
702.5941
701.0267
699.8507
698.9162
698.0855
697.2535
696.359
695.3859
694.358
693.3299
692.3765
691.5798
691.0134
690.7249
690.7186
690.9433
691.2876
691.5869
691.6396
691.2313
690.1632
688.2768
685.4741
681.7273
677.0799
671.6398
665.5675
659.0624
652.3494
645.6659
639.2495
633.3261
628.0973
623.7295
620.3433
618.0078
616.7378
616.4965
617.2018
618.7369
620.9638
623.7384
626.925
630.4077
634.0978
637.9346
641.8782
645.8952
649.9415
653.9501
657.8466
721.6704
714.3966
711.0999
707.4707
704.5853
702.2162
700.3728
698.9642
697.8884
697.0336
696.298
695.6041
694.907
694.196
693.4888
692.8216
692.237
691.7719
691.4461
691.2532
691.1535
691.0701
690.8907
690.4742
689.6639
688.3045
686.2619
683.4411
679.8003
675.3581
670.1946
664.444
658.2838
651.9203
645.5743
639.4666
633.8066
628.7809
624.5452
621.2165
618.8688
617.53
617.1832
617.771
619.2024
621.3629
624.1247
627.3577
630.9391
634.7603
638.7306
642.7773
646.842
650.8743
654.8245
658.6369
662.245
665.574
668.5555
671.1706
706.1539
701.5154
700.0161
698.3002
697.133
696.2167
695.5167
694.9418
694.4348
693.9565
693.4912
693.0411
692.6183
692.2353
691.895
691.5833
691.2634
690.8742
690.3316
689.5328
688.3642
686.7122
684.4752
681.5773
677.9797
673.69
668.7658
663.3139
657.4837
651.4569
645.4339
639.6204
634.2137
629.3916
625.3038
622.0649
619.7509
618.3975
618.0002
618.5182
619.8787
621.9843
624.7212
627.9678
631.6023
635.5096
639.5858
643.7399
647.8939
651.9796
655.9351
659.6996
663.2097
666.3971
669.1876
671.5026
673.2634
674.4005
674.8724
674.7026
697.3957
695.3819
694.9496
694.3539
693.982
693.6524
693.3602
693.0713
692.7737
692.457
692.1095
691.7104
691.2257
690.6054
689.7837
688.6831
687.2194
685.3097
682.8808
679.8788
676.277
672.0837
667.3459
662.1509
656.6235
650.9192
645.2147
639.6962
634.5472
629.9372
626.0116
622.8851
620.6363
619.3068
618.901
619.389
620.7107
622.7814
625.4982
628.7466
632.408
636.3645
640.5043
644.7242
648.9308
653.0397
656.9737
660.6603
664.0286
667.0074
669.5245
671.5072
672.8855
673.5958
673.5868
672.8259
671.3081
669.0665
666.1819
662.7883
693.8727
693.2524
693.1514
692.9354
692.7307
692.4577
692.1043
691.6376
691.0246
690.2222
689.1791
687.8365
686.1324
684.0071
681.4094
678.3039
674.677
670.5427
665.9454
660.9619
655.6995
650.2924
644.8946
639.6714
634.7897
630.4072
626.6632
623.6712
621.5126
620.2347
619.8494
620.3356
621.6425
623.6942
626.3956
629.6378
633.3047
637.2772
641.4383
645.6765
649.8869
653.973
657.8455
661.4221
664.6259
667.3843
669.6297
671.2999
672.3412
672.7118
672.3875
671.3675
669.6803
667.3903
664.6019
661.4644
658.1737
654.967
652.1043
649.8162
692.7519
692.253
691.913
691.3719
690.6555
689.7066
688.4862
686.9486
685.0494
682.747
680.0083
676.8132
673.1598
669.0681
664.5834
659.7768
654.7447
649.6055
644.4952
639.5602
634.9499
630.8085
627.266
624.4315
622.3869
621.1833
620.8391
621.341
622.6458
624.6851
627.3696
630.5948
634.2462
638.2042
642.3488
646.5627
650.7341
654.7584
658.5391
661.988
665.0258
667.5819
669.5954
671.0164
671.8085
671.952
671.4481
670.3228
668.6316
666.4627
663.9391
661.2182
658.489
655.9659
653.8795
652.4634
651.935
652.47
654.172
657.0223
690.6838
688.9833
687.7227
685.9993
683.9459
681.5006
678.6494
675.3841
671.7126
667.6613
663.2768
658.6272
653.8013
648.9063
644.0638
639.4049
635.0635
631.1698
627.8432
625.1858
623.2766
622.1677
621.8818
622.4113
623.7203
625.7469
628.4073
631.6012
635.216
639.1324
643.2286
647.3844
651.484
655.4187
659.0885
662.4036
665.2851
667.6667
669.4952
670.7323
671.357
671.3674
670.7837
669.6507
668.04
666.0509
663.8102
661.4694
659.1999
657.1851
655.6101
654.6483
654.4467
655.1099
656.6845
659.143
662.371
666.1639
670.2391
674.2714
684.0497
680.043
677.3885
674.003
670.3365
666.3255
662.0372
657.5335
652.8983
648.2297
643.638
639.2415
635.161
631.514
628.4092
625.9405
624.1819
623.1838
622.9702
623.5376
624.8553
626.8673
629.4956
632.6441
636.2036
640.0561
644.08
648.1539
652.1607
655.99
659.5413
662.7255
665.4664
667.7027
669.3887
670.4963
671.0164
670.96
670.3603
669.2732
667.778
665.9769
663.9922
661.9636
660.0414
658.3798
657.1265
656.4118
656.3373
656.9639
658.3014
660.3009
662.8518
665.7821
668.8667
671.84
674.4203
676.3453
677.4121
677.5354
671.0004
664.6808
660.9785
656.4895
652.053
647.5866
643.2289
639.0782
635.2455
631.8367
628.9504
626.6721
625.0701
624.1915
624.0597
624.6728
626.0038
628.0014
630.5928
633.6868
637.1781
640.9521
644.8886
648.8674
652.7717
656.4915
659.9274
662.9921
665.613
667.7336
669.3151
670.3372
670.7995
670.7218
670.1453
669.1313
667.7617
666.1363
664.37
662.5889
660.9243
659.5056
658.4523
657.8652
657.8176
658.3472
659.4496
661.0751
663.1278
665.4705
667.9331
670.327
672.4628
674.1717
675.3284
675.8757
675.8471
675.3815
674.7173
674.1698
653.5621
646.4927
642.9627
638.8798
635.3066
632.1106
629.4328
627.3378
625.8904
625.1327
625.0863
625.7498
627.0983
629.084
631.6386
634.6757
638.0945
641.784
645.6278
649.5079
653.3095
656.9246
660.2556
663.2178
665.742
667.7761
669.2865
670.2587
670.6985
670.6311
670.1017
669.174
667.9287
666.4612
664.878
663.2924
661.8194
660.5693
659.6411
659.1158
659.0496
659.4688
660.3655
661.6965
663.3846
665.3233
667.3851
669.4332
671.3351
672.9787
674.2877
675.2364
675.86
676.2605
676.6058
677.1211
678.0699
679.7217
682.3106
685.9933
637.2288
631.8951
629.9517
627.8811
626.6103
625.9609
626.0021
626.7188
628.0896
630.0685
632.5908
635.5743
638.9228
642.5298
646.2829
650.0676
653.7724
657.2919
660.5312
663.4085
665.8576
667.83
669.2959
670.2449
670.6865
670.649
670.1794
669.3411
668.2125
666.8834
665.4521
664.0211
662.6921
661.5607
660.7114
660.2121
660.1089
660.4231
661.1483
662.2505
663.6699
665.3253
667.1211
668.9563
670.7354
672.3798
673.8384
675.0971
676.1853
677.177
678.1883
679.3679
680.883
682.8998
685.5611
688.9608
693.1193
697.9644
703.3321
709
628.0594
626.4854
626.8737
627.5613
628.9759
630.9485
633.4469
636.3841
639.6694
643.2002
646.8684
650.5638
654.1786
657.6112
660.7697
663.5752
665.9646
667.8921
669.3306
670.2724
670.7289
670.7299
670.3225
669.5688
668.5438
667.3321
666.0248
664.7149
663.4939
662.4465
661.6469
661.1541
661.0088
661.2307
661.8171
662.7433
663.9643
665.4192
667.0364
668.7405
670.4609
672.1393
673.7383
675.2469
676.6847
678.1025
679.5788
681.2128
683.1134
685.3852
688.1129
691.3453
695.0814
699.26
703.7547
708.3756
712.8801
716.9964
720.4651
723.0935
629.3381
631.8845
634.2452
637.1476
640.3721
643.8316
647.4204
651.0316
654.5614
657.9118
660.9946
663.7343
666.0706
667.9602
669.3782
670.3185
670.7934
670.833
670.4833
669.8044
668.8678
667.7532
666.5452
665.3296
664.1896
663.2021
662.4339
661.9383
661.7531
661.8983
662.3754
663.1682
664.2443
665.5585
667.0573
668.684
670.3849
672.1153
673.845
675.5626
677.2779
679.0223
680.8458
682.8118
684.989
687.4416
690.218
693.3407
696.7963
700.5294
704.4405
708.3887
712.1992
715.6769
718.6233
720.8575
722.2384
722.6872
722.2037
720.8639
639.7266
644.8295
647.9236
651.5278
654.9497
658.2194
661.2243
663.8973
666.1796
668.0304
669.4267
670.3635
670.8535
670.9263
670.6266
670.012
669.1502
668.1164
666.9898
665.85
664.7739
663.8324
663.0869
662.5875
662.3703
662.4563
662.8515
663.5468
664.5201
665.7385
667.1621
668.7479
670.4541
672.2449
674.0942
675.9888
677.9296
679.9325
682.0254
684.2448
686.6303
689.2172
692.0289
695.0697
698.3184
701.7243
705.2058
708.6531
711.9337
714.9025
717.4135
719.3338
720.5581
721.0215
720.7102
719.6679
717.9962
715.848
713.4081
710.8543
653.8995
658.966
661.3967
664.0946
666.2871
668.0966
669.4632
670.3906
670.8894
670.9886
670.731
670.1714
669.3744
668.4107
667.3547
666.2808
665.2609
664.361
663.6388
663.1418
662.9055
662.9524
663.2922
663.9218
664.8272
665.9851
667.3658
668.9363
670.6634
672.5171
674.4736
676.5173
678.6417
680.8499
683.153
685.5671
688.1099
690.7952
693.6283
696.6005
699.6851
702.8349
705.9811
709.0357
711.8959
714.4509
716.5912
718.2182
719.2551
719.6553
719.4106
718.5546
717.1641
715.3561
713.281
711.1126
709.0343
707.2242
705.8346
704.9686
665.5241
668.4541
669.4389
670.417
670.8934
671.014
670.7896
670.2784
669.5394
668.6395
667.6486
666.6366
665.671
664.8141
664.1207
663.6365
663.3965
663.4247
663.7339
664.3258
665.1927
666.3185
667.6813
669.2553
671.0133
672.9293
674.9806
677.1489
679.4217
681.7921
684.2577
686.8193
689.4778
692.231
695.0704
697.9778
700.9226
703.8599
706.731
709.4641
711.9783
714.1888
716.0131
717.3786
718.2303
718.5376
718.2999
717.5497
716.3532
714.8086
713.0407
711.1941
709.4242
707.888
706.7339
706.0929
706.0703
706.741
708.1456
710.2912
670.8415
671.1186
670.8136
670.3585
669.6591
668.8177
667.8866
666.9343
666.0231
665.2121
664.5536
664.0917
663.8615
663.8881
664.1868
664.7634
665.6146
666.7301
668.0934
669.6841
671.4791
673.455
675.5893
677.8614
680.2535
682.7509
685.3409
688.0122
690.753
693.5491
696.3815
699.2249
702.0457
704.8012
707.44
709.903
712.1263
714.0452
715.5986
716.7347
717.4165
717.6271
717.3738
716.6904
715.6381
714.3037
712.7964
711.2415
709.7745
708.5323
707.6462
707.2343
707.395
708.2022
709.7018
711.9099
714.8131
718.3711
722.5252
727.2128
670.3065
668.9256
668.1255
667.1984
666.3372
665.5693
664.9476
664.5135
664.3018
664.3383
664.6403
665.2163
666.067
667.186
668.5612
670.1758
672.0096
674.0408
676.2464
678.6039
681.0912
683.6869
686.3706
689.1216
691.9186
694.7381
697.5536
700.3342
703.0444
705.6431
708.0849
710.3206
712.2997
713.9732
715.2974
716.2374
716.7714
716.8946
716.6219
715.9898
715.0571
713.9032
712.6256
711.3355
710.1517
709.1951
708.5811
708.4139
708.7804
709.7458
711.3497
713.6045
716.494
719.9743
723.9754
728.4028
733.1428
738.0688
743.055
748.0041
667.3004
665.8199
665.3677
664.9125
664.7248
664.7713
665.0822
665.6646
666.5223
667.6517
669.0435
670.6835
672.5535
674.6324
676.8969
679.3223
681.883
684.5527
687.3045
690.1109
692.943
695.7707
698.5617
701.2814
703.8927
706.3565
708.6318
710.6776
712.4538
713.9245
715.0594
715.8377
716.2504
716.3029
716.0172
715.4332
714.6084
713.6171
712.5478
711.4997
710.5782
709.8889
709.5329
709.6003
710.1655
711.2828
712.9834
715.273
718.1311
721.5115
725.3437
729.5351
733.9749
738.5384
743.0918
747.499
751.6286
755.364
758.6145
761.3376
665.5289
665.1721
665.5673
666.1149
666.9831
668.118
669.5245
671.1859
673.0857
675.2026
677.5127
679.9894
682.6041
685.3264
688.1247
690.966
693.8161
696.6398
699.4006
702.0613
704.5843
706.9317
709.0668
710.9548
712.5643
713.8694
714.8512
715.5
715.8171
715.817
715.5277
714.9922
714.2676
713.4244
712.5438
711.715
711.0313
710.5852
710.4642
710.7451
711.4903
712.7437
714.5274
716.8408
719.6593
722.935
726.5989
730.5631
734.7251
738.9717
743.1848
747.2466
751.046
754.485
757.4846
759.9914
761.9821
763.4657
764.4815
765.0857
667.3423
668.6874
670.0409
671.7022
673.6187
675.7577
678.0983
680.6094
683.2602
686.0168
688.8438
691.7038
694.5588
697.3697
700.0972
702.7023
705.1472
707.3955
709.4138
711.1725
712.6471
713.8197
714.6802
715.2279
715.4728
715.436
715.1512
714.6637
714.0307
713.3195
712.6056
711.9696
711.4947
711.2617
711.3459
711.8125
712.7129
714.0814
715.933
718.2615
721.0396
724.2195
727.7347
731.5033
735.4316
739.4187
743.3613
747.1594
750.7211
753.9681
756.8396
759.2968
761.3245
762.933
764.1567
765.0514
765.6879
766.142
766.4813
766.7425
673.5002
676.5409
678.6645
681.2207
683.877
686.6495
689.4878
692.3526
695.2022
697.9944
700.688
703.2428
705.6208
707.787
709.7109
711.3668
712.7357
713.8059
714.5743
715.0473
715.2411
715.1827
714.9096
714.4695
713.9193
713.3239
712.7537
712.2828
711.9853
711.9325
712.1894
712.8108
713.839
715.3004
717.2037
719.5389
722.2775
725.3726
728.7615
732.3686
736.1086
739.8914
743.6261
747.2263
750.614
753.724
756.5071
758.9319
760.9864
762.6771
764.0271
765.0722
765.856
766.4237
766.815
767.0561
767.1521
767.0828
766.8043
766.2685
683.3986
687.5904
690.0439
692.9685
695.7777
698.5468
701.2031
703.7113
706.0318
708.1308
709.9797
711.5562
712.8451
713.8397
714.5421
714.9637
715.1259
715.0598
714.8059
714.4134
713.9389
713.4451
712.9986
712.6677
712.5194
712.617
713.0169
713.7656
714.8976
716.4327
718.3751
720.7119
723.4139
726.436
729.7196
733.1947
736.7838
740.4057
743.9792
747.4276
750.6824
753.6864
756.3961
758.7829
760.8337
762.5494
763.9427
765.0347
765.8507
766.4149
766.7457
766.8512
766.7259
766.3495
765.6874
764.6942
763.3213
761.5304
759.3113
756.7146
695.1416
699.445
701.6152
704.1666
706.4014
708.4453
710.229
711.7419
712.9691
713.9079
714.5637
714.9519
715.0975
715.0344
714.8052
714.4599
714.0549
713.6509
713.3114
713.0997
713.0775
713.3012
713.8205
714.6751
715.8932
717.4897
719.4646
721.8034
724.4764
727.4403
730.6399
734.0105
737.4807
740.9762
744.4233
747.7521
750.9002
753.8147
756.4548
758.7922
760.811
762.5068
763.8841
764.9542
765.7307
766.227
766.4523
766.4092
766.0926
765.4898
764.5829
763.3535
761.7891
759.8915
757.6861
755.2312
752.6291
750.0312
747.6348
745.6628
705.8788
709.084
710.4264
711.9611
713.1038
713.9998
714.6159
714.9799
715.1161
715.0607
714.8575
714.5569
714.2145
713.8894
713.6421
713.5323
713.617
713.9474
714.5677
715.5123
716.8043
718.4546
720.4604
722.8052
725.4594
728.3812
731.5181
734.8094
738.1885
741.5864
744.9346
748.168
751.2277
754.0635
756.6354
758.9138
760.8803
762.5259
763.8499
764.8573
765.556
765.9547
766.0605
765.8772
765.4056
764.6438
763.5907
762.2489
760.6313
758.7662
756.7042
754.524
752.3357
750.2828
748.5396
747.3051
746.7917
747.2048
748.7163
751.4219
712.955
714.3147
714.6812
715.0596
715.1639
715.1157
714.9318
714.6693
714.3804
714.1228
713.9544
713.9316
714.1074
714.5289
715.2357
716.2579
717.6149
719.314
721.3501
723.7054
726.3502
729.2437
732.3353
735.5673
738.8769
742.1987
745.4677
748.6223
751.6057
754.3692
756.8725
759.0851
760.986
762.5633
763.8128
764.7364
765.3398
765.6313
765.6197
765.3138
764.7221
763.8545
762.7236
761.3486
759.759
757.9991
756.1317
754.2415
752.4364
750.8463
749.6192
748.9135
748.887
749.6834
751.4155
754.1488
757.8833
762.5392
767.9559
773.9096
715.4912
715.257
715.0572
714.8117
714.5562
714.3516
714.2468
714.2965
714.5492
715.0483
715.8296
716.9195
718.3339
720.0776
722.1432
724.5119
727.1536
730.028
733.0862
736.2724
739.5262
742.7851
745.9866
749.0712
751.9837
754.676
757.1077
759.2474
761.0726
762.5696
763.7324
764.5619
765.064
765.2489
765.1293
764.7202
764.0387
763.1051
761.9441
760.5869
759.0744
757.4595
755.8094
754.2074
752.7526
751.5578
750.7452
750.4395
750.7585
751.8016
753.6375
756.2915
759.7346
763.8755
768.5567
773.5562
778.5968
783.3661
787.5539
790.9103
715.2143
714.5923
714.6017
714.6669
714.9819
715.5395
716.3815
717.5275
718.9908
720.7733
722.8657
725.2479
727.8892
730.7496
733.7811
736.9291
740.135
743.3381
746.4779
749.496
752.3386
754.958
757.3139
759.3743
761.1161
762.5247
763.594
764.3252
764.726
764.8094
764.5932
764.0988
763.3516
762.381
761.2212
759.9129
758.504
757.052
755.6241
754.2985
753.1626
752.3114
751.843
751.8527
752.4256
753.628
755.4978
758.0357
761.1979
764.8914
768.9726
773.2516
777.5008
781.4696
784.9036
787.5678
789.2724
789.9002
789.429
787.9397
715.6262
716.0827
716.9829
718.1324
719.6329
721.4378
723.5485
725.9384
728.577
731.4236
734.4303
737.5435
740.7055
743.8568
746.938
749.8919
752.6654
755.2113
757.4894
759.4678
761.1233
762.4416
763.4169
764.052
764.3569
764.3483
764.0489
763.4864
762.6932
761.7066
760.5685
759.326
758.0318
756.745
755.5306
754.4598
753.6081
753.0533
752.8719
753.134
753.8984
755.205
757.0692
759.4751
762.3714
765.6685
769.2393
772.9236
776.5361
779.879
782.7573
784.9973
786.4658
787.0888
786.8671
785.8883
784.33
782.4536
780.5772
779.0148
719.8875
722.2723
724.2357
726.6199
729.24
732.0618
735.039
738.115
741.2331
744.334
747.3589
750.2512
752.9582
755.4332
757.6362
759.5356
761.1086
762.3414
763.2297
763.7778
763.9985
763.9122
763.5462
762.9336
762.1131
761.1279
760.0257
758.8583
757.681
756.5527
755.5352
754.6919
754.087
753.7829
753.8372
754.2992
755.2059
756.5771
758.4114
760.6819
763.334
766.2843
769.4223
772.6149
775.7133
778.5635
781.019
782.9545
784.2809
784.9592
785.0108
784.5254
783.6623
782.6458
781.7539
781.2997
781.6048
782.9685
785.6278
789.7024
728.9182
732.9958
735.5932
738.6722
741.7222
744.7691
747.7355
750.567
753.2103
755.6187
757.7523
759.5797
761.0786
762.2362
763.0493
763.5242
763.6764
763.5296
763.1152
762.4708
761.6401
760.6709
759.6152
758.5276
757.4646
756.4838
755.643
754.9986
754.604
754.5082
754.7531
755.3709
756.3813
757.7885
759.5788
761.7182
764.1515
766.8027
769.5773
772.366
775.0514
777.516
779.6524
781.3734
782.6237
783.3891
783.7043
783.6573
783.389
783.0878
782.9794
783.3108
784.3304
786.2658
789.2989
793.5427
799.0209
805.6572
813.2778
821.6351
740.9724
745.5822
748.0325
750.8839
753.4328
755.7786
757.8442
759.6056
761.0385
762.131
762.8812
763.2968
763.3958
763.2046
762.7579
762.0972
761.2696
760.3268
759.3232
758.3153
757.3598
756.5125
755.8268
755.3524
755.1339
755.2087
755.6057
756.3436
757.4284
758.8526
760.5938
762.6133
764.8572
767.257
769.7322
772.1943
774.5519
776.7175
778.6148
780.1867
781.4031
782.2678
782.8228
783.1511
783.375
783.6512
784.161
785.0981
786.6518
788.9895
792.238
796.4669
801.6744
807.7791
814.6163
821.9432
829.4546
836.8097
843.6722
849.7848
752.668
756.3158
757.8893
759.6684
761.0048
762.04
762.7308
763.0954
763.1506
762.9256
762.4572
761.7897
760.9729
760.0608
759.1097
758.1767
757.3181
756.5874
756.0341
755.7021
755.628
755.8401
756.3569
757.1861
758.3237
759.7536
761.4468
763.3625
765.4486
767.6435
769.8791
772.0838
774.1875
776.1265
777.8489
779.3207
780.5309
781.4955
782.261
782.9043
783.5307
784.2697
785.2664
786.6713
788.6279
791.2586
794.6512
798.8464
803.8283
809.5187
815.7772
822.4063
829.1628
835.775
841.9638
847.4677
852.0712
855.6293
858.0876
859.5183
760.6329
762.2184
762.5961
762.9533
762.9407
762.6847
762.1942
761.5214
760.716
759.8332
758.9301
758.0638
757.2893
756.6579
756.2155
756.0005
756.0434
756.3647
756.9748
757.8733
759.0485
760.4778
762.1283
763.958
765.9171
767.9502
769.9993
772.0068
773.9194
775.6917
777.291
778.7004
779.9231
780.9841
781.9317
782.837
783.7915
784.9023
786.286
788.0596
790.3315
793.1906
796.6962
800.8695
805.6868
811.076
816.9175
823.049
829.2748
835.379
841.1415
846.3555
850.8451
854.4801
857.1889
858.9649
859.8654
859.9983
859.506
858.5545
763.1114
762.5419
761.9984
761.3007
760.4904
759.6277
758.7623
757.9516
757.2479
756.6998
756.3495
756.2309
756.3687
756.7775
757.4614
758.4134
759.6163
761.0431
762.6583
764.4195
766.2793
768.1879
770.0954
771.9555
773.7276
775.3809
776.8967
778.2714
779.5182
780.6684
781.7713
782.893
784.1136
785.5232
787.216
789.2839
791.8086
794.854
798.4586
802.6296
807.3378
812.5163
818.0609
823.8344
829.6743
835.4022
840.8359
845.8025
850.1501
853.7587
856.5478
858.479
859.5554
859.8153
859.3211
858.1444
856.3461
853.9591
850.9834
847.398
761.0572
759.4011
758.6872
757.862
757.2166
756.7309
756.4549
756.4145
756.6297
757.1095
757.8527
758.8475
760.0724
761.4972
763.085
764.7936
766.5779
768.3928
770.1952
771.9472
773.6186
775.1893
776.6513
778.0104
779.2874
780.5178
781.7511
783.0495
784.4841
786.132
788.0706
790.3727
793.1001
796.2979
799.9891
804.17
808.8072
813.8365
819.1642
824.6701
830.2137
835.6412
840.7951
845.523
849.6872
853.1721
855.8901
857.7843
858.8277
859.0196
858.379
856.9366
854.7254
851.7732
848.0959
843.695
838.5599
832.6816
826.0728
818.784
757.8776
756.7512
756.645
756.6048
756.8827
757.4111
758.1988
759.2253
760.4663
761.889
763.4555
765.124
766.8518
768.5974
770.3234
771.9986
773.6004
775.1169
776.548
777.9064
779.218
780.521
781.865
783.3084
784.9156
786.7537
788.8873
791.3749
794.2633
797.5836
801.3468
805.5406
810.1277
815.045
820.2048
825.4982
830.7988
835.9694
840.8685
845.3577
849.3087
852.6095
855.1692
856.9208
857.8217
857.8522
857.0126
855.3186
852.7969
849.4811
845.4101
840.628
835.1881
829.1587
822.6322
815.736
808.6457
801.5942
794.8646
788.741
757.331
757.7982
758.5811
759.5984
760.8393
762.2501
763.794
765.4283
767.1116
768.8056
770.477
772.0998
773.6571
775.1429
776.5628
777.9342
779.2863
780.659
782.1012
783.6681
785.4187
787.412
789.7031
792.3394
795.3565
798.7746
802.5954
806.8
811.347
816.1734
821.1951
826.3097
831.4005
836.3412
841.0014
845.2526
848.9742
852.0584
854.4145
855.9723
856.6829
856.5196
855.4762
853.5653
850.8163
847.2734
842.9948
838.0532
832.5376
826.5569
820.2441
813.7602
807.2978
801.0815
795.3656
790.4267
786.551
784.0106
783.0264
783.7079
760.8982
762.7919
764.1172
765.7316
767.3583
769.0093
770.6384
772.2261
773.7582
775.2327
776.6587
778.0565
779.4572
780.901
782.4356
784.1131
785.9878
788.1122
790.5338
793.2915
796.4122
799.9077
803.7727
807.9825
812.4928
817.2395
822.1404
827.0976
832.0006
836.7306
841.1654
845.1841
848.6727
851.5281
853.6626
855.0068
855.5117
855.1497
853.915
851.8225
848.9076
845.2244
840.8457
835.8625
830.3845
824.541
818.482
812.3782
806.4206
800.8171
795.787
791.5517
788.3227
786.2864
785.5867
786.3063
788.4491
791.9251
796.5483
802.0571
767.1179
769.464
770.7997
772.3997
773.8968
775.3743
776.817
778.2519
779.7081
781.2255
782.8493
784.6287
786.6133
788.8502
791.3807
794.2369
797.4388
800.992
804.8855
809.0904
813.5596
818.2285
823.016
827.827
832.5553
837.088
841.3089
845.1035
848.3637
850.9916
852.9036
854.0337
854.3357
853.7847
852.3783
850.136
847.0997
843.3322
838.9165
833.9553
828.57
822.8993
817.0991
811.3394
805.8026
800.678
796.1564
792.4211
789.6376
787.9424
787.43
788.1415
790.0546
793.0774
797.0462
801.7302
806.843
812.0642
817.0771
821.6325
773.692
775.8231
777.0539
778.5604
780.053
781.6419
783.3469
785.2174
787.2972
789.6283
792.2465
795.1782
798.4382
802.027
805.9295
810.1136
814.5306
819.1152
823.7874
828.4543
833.0135
837.3564
841.372
844.9513
847.9915
850.3998
852.0976
853.0233
853.1349
852.4118
850.8561
848.4928
845.3696
841.5562
837.1431
832.2402
826.9749
821.4902
815.9419
810.4957
805.3231
800.5965
796.4831
793.1373
790.6929
789.2539
788.8856
789.6068
791.3834
794.1257
797.6887
801.8772
806.4555
811.1609
815.7222
819.8793
823.4046
826.1235
827.9358
828.8475
780.1389
782.3885
783.9623
785.9206
788.0604
790.4608
793.1403
796.1213
799.4135
803.0132
806.9022
811.0462
815.3952
819.8841
824.4339
828.954
833.3452
837.5026
841.3199
844.6929
847.5236
849.7245
851.2217
851.9583
851.897
851.022
849.3401
846.8814
843.6988
839.8674
835.4828
830.6592
825.5272
820.2304
814.9225
809.763
804.913
800.5298
796.7615
793.7402
791.5758
790.3489
790.1044
790.8461
792.5331
795.0781
798.3487
802.1725
806.3446
810.6385
814.8201
818.6612
821.9553
824.5302
826.2594
827.0681
826.9347
825.8868
823.9951
821.372
788.2647
791.6137
794.0857
797.0974
800.38
803.9593
807.8086
811.8903
816.1539
820.5342
824.9533
829.3229
833.5465
837.523
841.15
844.3276
846.9626
848.9718
850.2861
850.8531
850.6401
849.6357
847.8511
845.3209
842.1022
838.274
833.9354
829.2031
824.2088
819.0952
814.0125
809.1138
804.5505
800.4672
796.9961
794.2518
792.3253
791.2795
791.1437
791.9106
793.5336
795.9268
798.9664
802.4952
806.3293
810.2666
814.0981
817.6189
820.6405
823.001
824.5742
825.2756
825.0655
823.9485
821.9695
819.2065
815.7615
811.7529
807.3057
802.5342
800.1798
805.2477
808.6545
812.6891
816.8304
821.085
825.363
829.5774
833.6342
837.4351
840.8812
843.8765
846.3317
848.1679
849.32
849.7398
849.3986
848.2888
846.4256
843.8468
840.6129
836.8058
832.5265
827.8929
823.0364
818.0977
813.2231
808.5595
804.2498
800.4274
797.2117
794.7028
792.9773
792.0835
792.0388
792.8268
794.3962
796.6615
799.5048
802.78
806.3186
809.9371
813.4459
816.659
819.4037
821.53
822.9185
823.4862
823.19
822.0279
820.0371
817.2901
813.8898
809.9625
805.6513
801.1096
796.4961
791.9715
787.6881
783.7609
815.844
822.0638
825.6497
829.7864
833.6443
837.2737
840.5445
843.3691
845.6599
847.3416
848.3526
848.6479
848.2021
847.011
845.0924
842.4871
839.2575
835.4873
831.2784
826.7487
822.0283
817.2555
812.5724
808.12
804.0334
800.4367
797.4386
795.1276
793.5684
792.7982
792.8246
793.6239
795.1411
797.2904
799.9583
803.0072
806.2805
809.6097
812.8215
815.7464
818.2268
820.1252
821.3313
821.7674
821.3922
820.203
818.2342
815.5556
812.2678
808.4961
804.385
800.0904
795.7739
791.5959
787.7099
784.2568
781.361
779.1242
777.616
776.8616
832.0551
837.6089
840.1062
842.882
844.977
846.5227
847.406
847.5957
847.0656
845.8142
843.861
841.2483
838.04
834.32
830.1904
825.7681
821.1813
816.5653
812.0578
807.7944
803.9033
800.5006
797.6862
795.5392
794.1147
793.4412
793.5187
794.3178
795.7804
797.8208
800.3288
803.1734
806.2079
809.276
812.2183
814.8799
817.1172
818.8053
819.8438
820.1623
819.7234
818.5254
816.6015
814.0182
810.8717
807.2828
803.3906
799.3456
795.3025
791.4127
787.8177
784.6421
781.988
779.9297
778.5097
777.7348
777.5752
777.9637
778.8034
779.9923
843.5209
846.1401
846.4522
846.6445
846.0008
844.7082
842.7309
840.1244
836.9485
833.2876
829.2423
824.9278
820.4696
815.9997
811.6516
807.5554
803.8334
800.595
797.9326
795.9178
794.5985
793.9962
794.1052
794.8921
796.2965
798.2331
800.5945
803.2554
806.0772
808.9139
811.6179
814.0468
816.0696
817.5729
818.4662
818.6865
818.2014
817.0107
815.1468
812.6726
809.6789
806.2792
802.604
798.7943
794.9942
791.3435
787.971
784.9872
782.4791
780.5052
779.0923
778.2332
777.8872
777.9818
778.4162
779.0676
779.7994
780.4732
780.9666
781.2053
845.5536
843.8225
841.7313
839.1522
835.9859
832.3862
828.42
824.2074
819.8678
815.5297
811.322
807.3698
803.79
800.6862
798.1448
796.2315
794.9883
794.4321
794.5528
795.3145
796.6555
798.4914
800.7176
803.2137
805.8481
808.4831
810.9814
813.2109
815.0516
816.4
817.1746
817.3191
816.8056
815.636
813.8414
811.4815
808.6407
805.4246
801.9539
798.3587
794.7714
791.3197
788.1203
785.2718
782.8505
780.9055
779.4565
778.493
777.9748
777.8349
777.9847
778.3198
778.7286
779.101
779.338
779.3612
779.1216
778.6059
777.8394
776.8865
837.004
831.4014
827.8377
823.6182
819.3818
815.1493
811.057
807.2221
803.7558
800.7565
798.3055
796.4638
795.2693
794.735
794.8485
795.572
796.8441
798.5813
800.6821
803.0304
805.5005
807.9621
810.286
812.349
814.0399
815.2635
815.9456
816.0357
815.5099
814.3712
812.6499
810.402
807.7061
804.6598
801.3743
797.9689
794.5649
791.2789
788.2167
785.4678
783.1008
781.1597
779.6618
778.5977
777.9323
777.6081
777.5498
777.6705
777.8788
778.0866
778.217
778.2108
778.0328
777.6749
777.1573
776.527
775.8516
775.2091
774.6753
774.307
821.5227
814.4217
811.0395
807.1086
803.7513
800.8128
798.4222
796.6229
795.4516
794.9179
795.0079
795.6831
796.8824
798.5241
800.5095
802.7267
805.0549
807.3701
809.5496
811.4773
813.049
814.1761
814.7901
814.8451
814.3197
813.2179
811.5687
809.4248
806.8594
803.9628
800.8377
797.594
794.3429
791.1916
788.2371