/*--------------------------------*- C++ -*----------------------------------*\
| =========                 |                                                 |
| \\      /  F ield         | OpenFOAM: The Open Source CFD Toolbox           |
|  \\    /   O peration     | Version:  2312                                  |
|   \\  /    A nd           | Website:  www.openfoam.com                      |
|    \\/     M anipulation  |                                                 |
\*---------------------------------------------------------------------------*/
FoamFile
{
    version     2.0;
    format      ascii;
    arch        "LSB;label=32;scalar=64";
    class       volScalarField;
    location    "4950";
    object      ILambda_2_0;
}
// * * * * * * * * * * * * * * * * * * * * * * * * * * * * * * * * * * * * * //

dimensions      [1 0 -3 0 0 0 0];

internalField   nonuniform List<scalar> 
12000
(
3449.064
2634.961
2013.711
1559.893
1238.109
1016.087
868.0238
774.2275
719.5986
692.2645
682.887
684.5363
692.6712
704.7419
719.273
734.8586
749.7062
761.9247
770.1758
774.1056
774.233
771.4327
766.4261
759.6078
751.2264
741.6867
731.715
722.2861
714.3828
708.7401
705.6817
705.0766
706.3812
708.7289
711.0972
712.5148
712.2785
710.1037
706.1765
701.0864
695.6562
690.6996
686.8061
684.2387
683.0175
683.0733
684.2682
686.3484
688.9902
691.8925
694.8479
697.5545
699.6424
700.8709
701.1691
700.4609
698.5627
694.891
690.6267
675.8193
4073.542
4056.644
3833.757
3479.007
3061.367
2632.229
2225.638
1861.787
1550.784
1295.688
1094.721
942.9174
833.4759
758.981
712.3708
687.4435
678.8716
681.9702
692.5312
706.8812
722.0838
736.0869
747.6734
756.2386
761.5335
763.5076
762.2862
758.221
751.9202
744.203
735.9859
728.1452
721.3986
716.2217
712.7942
710.9867
710.3957
710.4338
710.4593
709.9189
708.4665
706.0291
702.793
699.116
695.3983
691.9881
689.1615
687.1201
685.9712
685.7151
686.2712
687.5376
689.366
691.5252
693.7487
695.785
697.5266
698.4735
699.6296
697.145
4004.536
4080.89
4139.702
4135.548
4046.348
3870.87
3621.673
3318.475
2983.255
2637.032
2297.936
1980.21
1693.863
1444.829
1235.545
1065.739
933.2262
834.5378
765.3641
720.8984
696.1625
686.3403
687.0654
694.6014
705.8916
718.5139
730.6078
740.8189
748.2737
752.5609
753.693
752.0344
748.2017
742.9524
737.0725
731.2714
726.0932
721.8569
718.636
716.2837
714.4991
712.9208
711.2233
709.191
706.7446
703.9235
700.8523
697.7102
694.7013
692.0212
689.8274
688.2386
687.3373
687.1508
687.6401
688.6942
690.2099
691.9907
693.8428
696.6465
3974.473
3987.221
4023.48
4075.727
4125.677
4152.085
4136.743
4067.729
3940.403
3756.894
3524.731
3255.123
2961.22
2656.533
2353.668
2063.461
1794.504
1552.99
1342.784
1165.607
1021.31
908.2081
823.4695
763.5096
724.3623
701.9816
692.4632
692.1977
697.9746
707.0576
717.2359
726.8482
734.775
740.3981
743.5318
744.3331
743.1979
740.6534
737.2548
733.4973
729.7539
726.2461
723.0483
720.122
717.3649
714.6592
711.9078
709.0542
706.0922
703.0644
700.0519
697.1597
694.505
692.2074
690.3743
689.0831
688.3734
688.2957
688.528
690.3419
3952.629
3952.92
3956.708
3970.922
3999.337
4040.212
4086.388
4126.961
4149.556
4142.56
4096.857
4006.895
3871.112
3691.789
3474.476
3227.143
2959.229
2680.733
2401.414
2130.16
1874.526
1640.436
1432.054
1251.794
1100.463
977.4852
881.1722
809.0075
757.9165
724.5137
705.3227
696.966
696.3224
700.6469
707.6512
715.5426
723.0253
729.2678
733.8415
736.641
737.7917
737.5577
736.2585
734.2044
731.6553
728.8032
725.7741
722.6403
719.4381
716.1855
712.8984
709.6002
706.3281
703.135
700.088
697.2703
694.7562
692.6338
690.9831
689.4731
3932.841
3933.276
3932.717
3932.339
3935.221
3945.148
3965.013
3995.48
4034.279
4076.252
4114.008
4138.953
4142.446
4116.889
4056.596
3958.354
3821.648
3648.584
3443.559
3212.773
2963.644
2704.196
2442.476
2186.035
1941.529
1714.427
1508.853
1327.54
1171.877
1042.023
937.0833
855.3021
794.2848
751.2167
723.0749
706.8198
699.5574
698.667
701.8901
707.3803
713.7159
719.8808
725.2184
729.369
732.1993
733.7326
734.0886
733.4352
731.9542
729.8194
727.1854
724.1843
720.9272
717.5076
714.0059
710.5009
707.0589
703.7202
700.8623
696.6509
3928.198
3925.647
3924.094
3922.95
3921.918
3921.563
3923.461
3929.873
3943.06
3964.494
3994.196
4030.357
4069.293
4105.718
4133.274
4145.204
4135.084
4097.474
4028.45
3925.949
3789.92
3622.284
3426.725
3208.368
2973.353
2728.389
2480.303
2235.642
2000.326
1779.399
1576.856
1395.552
1237.198
1102.41
990.8247
901.2497
831.84
780.2882
744.0139
720.338
706.6363
700.4625
699.6385
702.3097
706.9684
712.4486
717.8997
722.7459
726.6382
729.4052
731.0069
731.4941
730.9757
729.5914
727.4966
724.8399
721.7879
718.3661
715.2785
709.7039
3935.018
3920.835
3904.44
3888.507
3874.801
3864.148
3856.843
3853.147
3853.625
3859.214
3871.057
3890.159
3916.98
3951.055
3990.738
4033.117
4074.108
4108.737
4131.537
4137.023
4120.18
4076.907
4004.365
3901.22
3767.738
3605.754
3418.525
3210.477
2986.9
2753.596
2516.538
2281.534
2053.943
1838.443
1638.861
1458.069
1297.948
1159.413
1042.483
946.4037
869.7829
810.7555
767.1437
736.612
716.8048
705.4611
700.5022
700.0911
702.666
706.9505
711.9457
716.9085
721.3214
724.8557
727.3434
728.7125
729.0572
728.2601
727.2223
723.1548
4039.523
4151.971
4210.951
4226.674
4211.065
4174.965
4127.309
4075.03
4023.283
3975.815
3935.341
3903.861
3882.843
3873.279
3875.625
3889.669
3914.39
3947.844
3987.13
4028.458
4067.31
4098.711
4117.547
4118.932
4098.555
4053.001
3979.998
3878.569
3749.101
3593.305
3414.092
3215.38
3001.843
2778.633
2551.091
2324.472
2103.69
1893.114
1696.401
1516.399
1355.09
1213.601
1092.25
990.6324
907.7402
842.089
791.8578
755.0219
729.4754
713.1365
704.0326
700.3634
700.5433
703.2233
707.3019
711.895
716.4056
720.2302
723.3943
725.5203
999.6665
1703.009
2317.991
2834.276
3250.412
3571.233
3805.852
3965.918
4064.202
4113.506
4125.918
4112.359
4082.368
4044.041
4004.059
3967.744
3939.12
3920.94
3914.709
3920.696
3937.968
3964.453
3997.065
4031.884
4064.391
4089.753
4103.132
4099.998
4076.424
4029.336
3956.707
3857.673
3732.577
3582.933
3411.319
3221.217
3016.796
2802.683
2583.712
2364.681
2150.133
1944.164
1750.277
1571.277
1409.214
1265.379
1140.329
1033.955
945.5721
874.0249
817.8044
775.1624
744.2202
723.0674
709.8379
702.7937
700.3213
701.159
703.4579
709.5789
474.4979
383.0403
494.9397
763.4607
1135.203
1561.684
2002.896
2428.164
2815.831
3152.342
3430.994
3650.549
3813.866
3926.661
3996.44
4031.614
4040.807
4032.318
4013.729
3991.608
3971.307
3956.83
3950.755
3954.232
3967.027
3987.638
4013.465
4041.03
4066.246
4084.707
4091.994
4083.964
4057.02
4008.336
3936.025
3839.243
3718.229
3574.276
3409.641
3227.408
3031.304
2825.497
2614.376
2402.345
2193.615
1992.04
1800.973
1623.171
1460.73
1315.069
1186.943
1076.49
983.2983
906.499
844.8469
796.8646
760.8123
735.0751
717.9134
705.0476
3686.84
3047.655
2459.215
1974.398
1625.631
1424.255
1364.648
1429.334
1593.763
1830.362
2111.72
2412.85
2712.619
2994.469
3246.598
3461.733
3636.632
3771.416
3868.848
3933.586
3971.496
3989.017
3992.613
3988.324
3981.396
3976.019
3975.147
3980.419
3992.157
4009.449
4030.3
4051.837
4070.565
4082.639
4084.146
4071.385
4041.111
3990.745
3918.531
3823.64
3706.211
3567.33
3408.964
3233.835
3045.275
2847.04
2643.126
2437.576
2234.306
2036.943
1848.701
1672.278
1509.8
1362.784
1232.15
1118.218
1020.964
938.7728
876.3778
801.1015
1075.449
1727.308
2115.102
2275.627
2266.947
2151.39
1986.541
1820.209
1688.024
1612.94
1606.177
1669.076
1795.394
1973.697
2189.618
2427.808
2673.5
2913.651
3137.68
3337.837
3509.272
3649.875
3759.932
3841.68
3898.804
3935.911
3958.03
3970.154
3976.846
3981.933
3988.275
3997.634
4010.628
4026.769
4044.575
4061.737
4075.34
4082.105
4078.641
4061.702
4028.407
3976.437
3904.188
3810.864
3696.532
3562.104
3409.293
3240.509
3058.729
2867.346
2670.001
2470.417
2272.237
2078.877
1893.448
1718.426
1556.712
1406.227
1285.712
1110.672
598.9662
690.8938
921.6639
1211.196
1490.946
1715.822
1864.177
1933.722
1936.118
1891.416
1823.086
1754.057
1703.93
1687.289
1712.995
1784.268
1899.35
2052.526
2235.33
2437.757
2649.393
2860.348
3061.992
3247.435
3411.794
3552.254
3667.948
3759.721
3829.789
3881.349
3918.168
3944.19
3963.172
3978.38
3992.361
4006.782
4022.362
4038.869
4055.199
4069.504
4079.372
4082.034
4074.589
4054.218
4018.399
3965.077
3892.807
3800.852
3689.229
3558.717
3410.815
3247.662
3071.933
2886.681
2695.314
2500.913
2308.462
2114.072
1952.731
1682.866
636.9925
591.0619
576.5732
622.7439
734.8647
899.4145
1092.668
1288.514
1464.23
1603.943
1699.956
1752.433
1767.998
1757.756
1735.128
1713.827
1706.187
1721.951
1767.567
1845.962
1956.706
2096.486
2259.779
2439.616
2628.361
2818.421
3002.85
3175.804
3332.838
3471.05
3589.079
3686.98
3766.009
3828.335
3876.725
3914.218
3943.81
3968.187
3989.504
4009.23
4028.064
4045.908
4061.92
4074.608
4081.971
4081.68
4071.258
4048.281
4010.553
3956.27
3884.15
3793.519
3684.379
3557.375
3413.94
3255.49
3086.602
2900.58
2741.539
2436.119
661.1637
647.8989
619.7895
587.7244
568.6597
578.2572
626.045
713.5278
834.7212
978.2645
1130.196
1276.658
1406.077
1510.622
1586.867
1635.729
1661.845
1672.558
1676.732
1683.548
1701.448
1737.3
1795.848
1879.45
1988.092
2119.62
2270.148
2434.555
2607.042
2781.658
2952.783
3115.512
3265.938
3401.309
3520.083
3621.869
3707.29
3777.774
3835.317
3882.214
3920.803
3953.235
3981.272
4006.149
4028.478
4048.221
4064.71
4076.722
4082.589
4080.346
4067.883
4043.115
4004.145
3949.372
3877.778
3788.255
3682.973
3553.205
3439.124
3181.319
665.6425
665.8691
661.5044
648.4507
626.3491
599.5842
576.2048
565.6827
576.4447
613.9353
679.5978
770.7955
881.4891
1003.412
1127.47
1245.107
1349.437
1436.018
1503.212
1552.146
1586.34
1611.088
1632.711
1657.779
1692.387
1741.567
1808.872
1896.147
2003.486
2129.36
2270.874
2424.115
2584.547
2747.414
2908.121
3062.546
3207.292
3339.835
3458.602
3562.947
3653.065
3729.848
3794.694
3849.302
3895.46
3934.847
3968.867
3998.517
4024.301
4046.192
4063.641
4075.629
4080.762
4077.351
4063.698
4037.598
3999.095
3939.963
3886.562
3730.974
668.1551
668.3601
669.1302
668.945
665.2322
655.6076
639.1831
617.4025
594.1023
574.8397
565.789
572.5466
599.1048
647.1691
715.9052
802.1134
900.7579
1005.728
1110.699
1209.946
1299.029
1375.24
1437.817
1487.9
1528.272
1562.947
1596.65
1634.283
1680.406
1738.811
1812.203
1902.007
2008.325
2129.994
2264.77
2409.566
2560.754
2714.471
2866.913
3014.598
3154.573
3284.554
3402.999
3509.116
3602.806
3684.558
3755.308
3816.275
3868.788
3914.127
3953.38
3987.322
4016.348
4040.399
4059.086
4071.269
4076.798
4070.505
4064.31
4009.502
669.1355
669.1793
669.4524
670.2447
671.3179
671.6761
669.6995
663.6578
652.4104
635.9959
615.9227
595.1119
577.5269
567.5817
569.4509
586.415
620.3535
671.4634
738.2338
817.6638
905.6751
997.6479
1088.996
1175.703
1254.761
1324.458
1384.496
1435.951
1481.08
1523.019
1565.412
1612.021
1666.344
1731.296
1808.959
1900.439
2005.805
2124.135
2253.634
2391.814
2535.722
2682.172
2827.983
2970.191
3106.217
3233.997
3352.05
3459.495
3556.02
3641.808
3717.428
3783.708
3841.603
3892.04
3935.874
3973.536
4005.763
4031.213
4052.467
4064.893
667.923
668.3854
668.7261
669.1119
669.778
670.8842
672.2856
673.3611
673.0434
670.0584
663.281
652.1103
636.7722
618.4797
599.4103
582.4999
571.0884
568.4799
577.4912
600.0641
636.998
687.8414
750.9486
823.6895
902.7746
984.647
1065.89
1143.598
1215.67
1281.001
1339.553
1392.307
1441.12
1488.492
1537.291
1590.462
1650.733
1720.378
1801.021
1893.518
1997.906
2113.43
2238.625
2371.457
2509.486
2650.058
2790.487
2928.225
3061.01
3186.971
3304.69
3413.233
3512.13
3601.317
3681.078
3751.902
3814.372
3869.808
3914.175
3973.937
666.3093
666.7681
667.1987
667.6064
668.0209
668.5503
669.37
670.6107
672.2083
673.802
674.7178
674.0508
670.8318
664.2529
653.9044
639.9738
623.3627
605.6912
589.1823
576.4399
570.1545
572.7804
586.2336
611.6544
649.2669
698.3521
757.3352
823.9716
895.6049
969.4622
1042.952
1113.928
1180.895
1243.136
1300.756
1354.632
1406.302
1457.785
1511.369
1569.388
1634
1706.997
1789.658
1882.647
1985.977
2099.02
2220.568
2348.936
2482.094
2617.81
2753.796
2887.85
3017.971
3142.459
3259.933
3369.554
3470.119
3564.142
3638.951
3753.091
665.8451
665.8617
665.9535
666.1366
666.3877
666.6777
667.024
667.5161
668.2865
669.4439
670.9918
672.7572
674.3494
675.1672
674.463
671.4622
665.5186
656.2835
643.8517
628.8575
612.4971
596.4666
582.822
573.7776
571.4713
577.7288
593.8593
620.5098
657.5955
704.3141
759.2395
820.4821
885.8944
953.2975
1020.702
1086.502
1149.619
1209.592
1266.597
1321.41
1375.305
1429.926
1487.114
1548.734
1616.508
1691.86
1775.805
1868.867
1971.039
2081.798
2200.142
2324.67
2453.678
2585.292
2717.491
2848.622
2975.77
3102.285
3205.465
3378.232
668.9801
668.1515
667.4757
667.0157
666.7948
666.7961
666.9745
667.2911
667.7404
668.3606
669.2214
670.3949
671.9107
673.7053
675.5783
677.1673
677.9568
677.3251
674.6311
669.3286
661.0923
649.9321
636.2751
620.9979
605.3983
591.1082
579.9552
573.7915
574.3104
582.8752
600.3814
627.169
662.9938
707.0621
758.1204
814.5912
874.7375
936.8375
999.3514
1061.065
1121.193
1179.442
1236.018
1291.593
1347.226
1404.255
1464.167
1528.463
1598.521
1675.483
1760.16
1852.968
1953.89
2062.507
2177.911
2299.266
2423.694
2555.858
2666.995
2872.224
673.984
672.5042
670.5396
668.1714
665.5866
663.0153
660.6736
658.7294
657.2948
656.434
656.1789
656.5425
657.5281
659.1278
661.3098
663.9946
667.0249
670.1385
672.9544
674.9803
675.6498
674.3861
670.689
664.2306
654.9463
643.1047
629.3428
614.6578
600.3542
587.9484
579.044
575.1895
577.7376
587.7214
605.7622
632.0183
666.1817
707.5196
754.957
807.1899
862.8169
920.4753
978.9679
1037.37
1095.106
1151.99
1208.233
1264.407
1321.386
1380.259
1442.227
1508.5
1580.183
1658.211
1743.158
1835.692
1934.337
2045.05
2140.065
2333.318
680.5507
687.8393
697.822
707.9005
716.1351
721.4481
723.4864
722.4163
718.7322
713.0977
706.2266
698.8014
691.4237
684.5879
678.6738
673.9476
670.5659
668.5762
667.9126
668.3881
669.6893
671.3792
672.916
673.691
673.0849
670.541
665.6444
658.1983
648.2855
636.3043
622.973
609.298
596.5097
585.9695
579.0601
577.0699
581.0845
591.8972
609.9471
635.2922
667.6175
706.2788
750.3748
798.8405
850.5525
904.4346
959.5556
1015.209
1070.97
1126.723
1182.666
1239.279
1297.276
1357.554
1421.012
1488.922
1560.883
1643.099
1713.2
1866.312
596.55
477.378
410.5763
386.221
392.7517
419.6412
458.1349
501.3904
544.3875
583.7287
617.3834
644.4123
664.6992
678.7073
687.2683
691.4107
692.2269
690.7764
688.0174
684.76
681.6351
679.0738
677.2965
676.3131
675.9355
675.8061
675.4423
674.2968
671.8292
667.5826
661.2579
652.7749
642.3157
630.3402
617.5746
604.9707
593.6403
584.772
579.5379
579.0015
584.0343
595.251
612.9688
637.1939
667.6365
703.7508
744.7971
789.9175
838.2194
888.8581
941.1109
994.4389
1048.524
1103.311
1158.91
1215.986
1274.016
1338.194
1391.123
1506.883
3622.499
2929.133
2325.945
1820.627
1412.634
1096.007
861.2448
696.8107
590.3632
529.7157
503.5356
501.8019
516.0532
539.4678
566.8175
594.331
619.5032
640.8763
657.818
670.3105
678.7602
683.8322
686.3113
686.9882
686.5705
685.6173
684.4986
683.3777
682.2186
680.8145
678.836
675.894
671.6097
665.6861
657.9711
648.5066
637.5578
625.6184
613.392
601.7507
591.6761
584.1882
580.2693
580.7922
586.4569
597.7446
614.8905
637.8797
666.4627
700.1926
738.4747
780.6295
825.9525
873.8006
923.5563
975.0455
1027.084
1083.394
1129.164
1224.43
4056.443
4016.011
3823.728
3518.496
3143.517
2737.33
2331.172
1948.452
1605.127
1310.551
1068.564
878.6916
737.3267
638.8046
576.3338
542.7526
531.107
535.0557
549.123
568.8227
590.6817
612.1881
631.6887
648.2546
661.5312
671.586
678.7626
683.549
686.4669
687.9838
688.4532
688.0824
686.9271
684.9105
681.8618
677.5682
671.8331
664.5342
655.6724
645.4082
634.08
622.2029
610.4481
599.6057
590.5344
584.1036
581.1338
582.3414
588.2924
599.3696
615.7558
637.4346
664.202
695.7167
731.4623
771.105
813.3156
860.7289
900.3079
982.6246
4011.888
4062.866
4101.652
4093.579
4017.54
3866.818
3646.162
3368.121
3049.631
2709.163
2364.511
2031.273
1721.942
1445.522
1207.537
1010.325
853.5346
734.7089
649.8945
594.2225
562.4178
549.2193
549.7011
559.4947
574.922
593.0495
611.6782
629.2857
644.9322
658.1478
668.8105
677.0283
683.0323
687.0891
689.4362
690.2424
689.5928
687.4963
683.91
678.7755
672.0614
663.8037
654.1406
643.3356
631.7874
620.0239
608.6827
598.4787
590.1634
584.4795
582.1156
583.6653
589.5911
600.216
615.656
636.0466
660.663
691.5879
718.8275
781.3102
3992.012
4000.31
4026.281
4065.003
4103.055
4123.501
4110.3
4051.236
3939.474
3773.925
3558.728
3302.149
3015.241
2710.468
2400.444
2096.894
1809.887
1547.357
1314.882
1115.701
950.8947
819.6985
719.8844
648.1683
600.6095
572.9724
561.0329
560.8195
568.7853
581.9138
597.7641
614.4654
630.6724
645.4926
658.398
669.1319
677.6209
683.8974
688.0408
690.1361
690.2541
688.4473
684.7618
679.2576
672.034
663.2543
653.1662
642.1136
630.5391
618.9755
608.0267
598.3422
590.5821
585.3922
583.333
584.9923
590.4047
601.275
611.9186
645.5175
3984.466
3982.154
3982.826
3991.766
4012.142
4043.057
4079.289
4112.167
4131.11
4125.412
4085.855
4005.875
3882.245
3715.265
3508.532
3268.389
3003.182
2722.417
2435.934
2153.168
1882.551
1631.078
1404.054
1204.998
1035.691
896.3414
785.8204
701.9517
641.8139
602.0371
579.0706
569.4097
569.7735
577.2297
589.2694
603.8364
619.3184
634.5098
648.556
660.8874
671.1536
679.1614
684.8252
688.1287
689.1014
687.8081
684.3476
678.8607
671.54
662.641
652.49
641.4868
630.1001
618.8617
608.3282
599.1407
591.7002
587.2139
583.958
589.4685
3974.499
3973.688
3971.687
3969.575
3969.878
3975.715
3989.652
4012.623
4043.194
4077.39
4109.071
4130.679
4134.183
4112.045
4058.09
3968.16
3840.509
3675.918
3477.555
3250.627
3001.885
2739.048
2470.211
2203.292
1945.552
1703.231
1481.295
1283.308
1111.413
966.4112
847.9144
754.5443
684.1642
634.1158
601.4451
583.1041
576.1185
577.7164
585.4171
597.082
610.9324
625.5405
639.8019
652.8951
664.2359
673.4332
680.2484
684.5622
686.3503
685.667
682.6361
677.4461
670.3495
661.6624
651.756
641.0806
630.0601
619.297
609.616
597.7171
3962.915
3962.906
3962.479
3961.229
3959.134
3956.88
3955.964
3958.488
3966.63
3981.97
4004.895
4034.202
4066.968
4098.694
4123.682
4135.588
4128.067
4095.409
4033.107
3938.28
3809.937
3649.042
3458.42
3242.505
3006.982
2758.363
2503.536
2249.332
2002.135
1767.574
1550.286
1353.783
1180.399
1031.32
906.6745
805.6794
726.8106
667.9918
626.782
600.5492
586.6237
582.4224
585.5437
593.8314
605.4117
618.7063
632.4274
645.5586
657.3285
667.181
674.7442
679.803
682.2753
682.1897
679.6776
674.9333
668.3089
659.8151
651.5797
635.5279
3951.412
3951.291
3951.155
3950.853
3950.114
3948.661
3946.404
3943.683
3941.414
3941.034
3944.264
3952.754
3967.675
3989.346
4016.942
4048.362
4080.255
4108.219
4127.136
4131.609
4116.434
4077.066
4010.022
3913.186
3785.984
3629.438
3446.086
3239.788
3015.459
2778.729
2535.594
2292.065
2053.845
1826.06
1613.056
1418.256
1244.094
1092.017
962.5343
855.3162
769.3256
702.9644
654.227
620.8503
600.4494
590.6354
589.1117
593.7455
602.6188
614.0575
626.6444
639.2178
650.8612
660.8826
668.8073
674.2942
677.3491
677.4215
676.6286
667.9529
3940.885
3940.745
3941.109
3941.989
3943.216
3944.492
3945.409
3945.539
3944.606
3942.65
3940.134
3937.968
3937.435
3940.013
3947.123
3959.846
3978.635
4003.087
4031.797
4062.325
4091.292
4114.577
4127.612
4125.734
4104.562
4060.346
3990.282
3892.732
3767.365
3615.187
3438.478
3240.639
3025.98
2799.447
2566.336
2332.008
2101.613
1879.861
1670.834
1477.854
1303.407
1149.121
1015.79
903.4404
811.4266
738.5446
683.1587
643.3281
616.9282
601.7596
595.643
596.4959
602.3915
611.6009
622.6236
634.1688
645.2942
654.9351
663.0752
669.4472
3930.878
3921.882
3910.383
3898.935
3889.424
3882.909
3879.72
3879.599
3881.883
3885.698
3890.165
3894.583
3898.575
3902.179
3905.87
3910.506
3917.196
3927.106
3941.233
3960.166
3983.88
4011.578
4041.616
4071.516
4098.075
4117.548
4125.907
4119.127
4093.488
4045.864
3973.957
3876.48
3753.266
3605.285
3434.6
3244.239
3038.025
2820.354
2595.958
2369.666
2146.171
1929.829
1724.488
1533.367
1358.971
1203.055
1066.632
950.0102
852.8597
774.3052
713.0259
667.3634
635.4275
615.2024
604.6228
601.6983
604.4233
611.4429
619.3602
635.3783
4011.123
4120.987
4180.767
4199.967
4189.702
4160.155
4119.853
4075.477
4031.894
3992.322
3958.566
3931.311
3910.429
3895.288
3885.033
3878.826
3876.026
3876.299
3879.643
3886.347
3896.869
3911.681
3931.076
3954.987
3982.829
4013.389
4044.789
4074.509
4099.495
4116.32
4121.397
4111.214
4082.582
4032.859
3960.146
3863.425
3742.648
3598.752
3433.619
3249.977
3051.251
2841.39
2624.665
2405.466
2188.104
1976.632
1774.693
1585.404
1411.27
1254.137
1115.186
994.9509
893.3622
809.8233
743.2694
692.3381
655.1854
630.5103
614.7864
609.3754
1140.851
1803.634
2383.408
2870.492
3263.594
3567.331
3790.37
3943.81
4039.842
4090.666
4107.695
4101.026
4079.141
4048.813
4015.158
3981.803
3951.129
3924.557
3902.831
3886.278
3875.023
3869.132
3868.692
3873.816
3884.59
3900.981
3922.716
3949.165
3979.248
4011.372
4043.422
4072.808
4096.559
4111.469
4114.273
4101.844
4071.392
4020.64
3947.987
3852.617
3734.562
3594.722
3434.825
3257.347
3065.389
2862.53
2652.66
2439.802
2227.945
2020.882
1822.079
1634.553
1460.797
1302.725
1161.65
1038.27
932.8716
844.1746
776.8584
698.5413
653.706
576.6532
692.9857
956.5536
1315.549
1723.523
2142.597
2544.108
2908.179
3222.732
3482.211
3686.175
3837.915
3943.192
4009.146
4043.413
4053.451
4046.081
4027.215
4001.741
3973.535
3945.56
3920.008
3898.465
3882.06
3871.582
3867.555
3870.271
3879.776
3895.831
3917.859
3944.884
3975.5
4007.847
4039.642
4068.237
4090.719
4104.041
4105.171
4091.263
4059.816
4008.822
3936.893
3843.347
3728.266
3592.501
3437.64
3265.942
3080.235
2883.786
2680.162
2473.076
2266.244
2063.228
1867.368
1681.412
1508.683
1347.069
1217.444
1028.009
3532.449
2832.147
2227.279
1758.176
1444.56
1287.392
1273.379
1379.882
1579.31
1842.742
2142.683
2454.946
2759.742
3042.12
3291.915
3503.33
3674.287
3805.656
3900.467
3963.159
3998.934
4013.229
4011.324
3998.075
3977.771
3954.068
3929.992
3907.986
3889.961
3877.357
3871.175
3872.004
3880.025
3894.993
3916.23
3942.611
3972.563
4004.096
4034.845
4062.153
4083.17
4094.98
4094.734
4079.796
4047.876
3997.159
3926.405
3835.019
3723.097
3591.43
3441.475
3275.299
3095.491
2905.031
2707.29
2505.34
2304.338
2100.027
1929.977
1642.435
3940.31
3896.894
3693.305
3370.685
2982.351
2580.63
2210.193
1904.742
1685.895
1563.605
1537.68
1599.946
1736.62
1930.631
2163.686
2417.962
2677.383
2928.455
3160.707
3366.791
3542.324
3685.539
3796.832
3878.257
3933.033
3965.097
3978.723
3978.228
3967.742
3951.069
3931.586
3912.195
3895.301
3882.801
3876.082
3876.022
3882.984
3896.82
3916.876
3942.005
3970.603
4000.651
4029.789
4055.404
4074.733
4084.986
4083.469
4067.715
4035.598
3985.444
3916.114
3827.065
3718.389
3590.783
3445.695
3284.5
3111.815
2920.596
2756.447
2439.024
3880.406
3934.285
3974.123
3962.211
3875.469
3708.152
3469.422
3179.1
2863.025
2548.677
2261.567
2022.674
1846.946
1742.728
1711.975
1751.036
1851.819
2003.122
2191.997
2404.984
2629.164
2852.96
3066.673
3262.778
3436
3583.215
3703.228
3796.469
3864.654
3910.444
3937.126
3948.327
3947.779
3939.129
3925.794
3910.844
3896.928
3886.212
3880.342
3880.415
3886.968
3899.979
3918.878
3942.579
3969.522
3997.741
4024.944
4048.603
4066.07
4074.686
4071.903
4055.397
4023.184
3973.67
3905.913
3818.863
3714.871
3584.99
3470.319
3208.333
3846.347
3850.108
3869.359
3900.762
3930.978
3942.01
3916.571
3842.051
3712.851
3531.052
3305.669
3051.006
2784.544
2524.753
2289.098
2092.422
1945.839
1856.144
1825.716
1852.836
1932.312
2056.298
2215.201
2398.576
2595.945
2797.473
2994.484
3179.809
3347.964
3495.193
3619.389
3719.932
3797.475
3853.692
3891.025
3912.439
3921.196
3920.648
3914.073
3904.523
3894.714
3886.932
3882.962
3884.048
3890.861
3903.5
3921.501
3943.874
3969.153
3995.47
4020.639
4042.252
4057.795
4064.726
4060.736
4043.202
4012.037
3958.598
3909.968
3757.503
3911.038
4015.101
4076.078
4108.192
4124.712
4133.471
4135.874
4127.796
4101.612
4048.696
3961.726
3836.422
3672.543
3474.163
3249.29
3008.982
2766.162
2534.3
2326.161
2152.73
2022.414
1940.559
1909.289
1927.634
1991.891
2096.152
2232.929
2393.811
2570.086
2753.307
2935.738
3110.703
3272.799
3418.016
3543.736
3648.675
3732.743
3796.877
3842.839
3873.012
3890.191
3897.387
3897.648
3893.901
3888.812
3884.68
3883.343
3886.124
3893.788
3906.534
3924.004
3945.317
3969.126
3993.669
4016.95
4036.445
4050.75
4053.87
4056.273
4013.239
1214.555
1828.295
2361.301
2807.899
3171.156
3459.506
3683.846
3854.948
3981.531
4069.29
4120.849
4136.389
4114.701
4054.386
3954.986
3817.862
3646.708
3447.679
3229.144
3001.137
2774.611
2560.603
2369.404
2209.835
2088.693
2010.389
1976.811
1987.379
2039.286
2127.86
2247.022
2389.776
2548.71
2716.446
2886.043
3051.313
3207.05
3349.176
3474.801
3582.215
3670.813
3740.979
3793.937
3831.57
3856.246
3870.627
3877.495
3879.59
3879.463
3879.354
3881.096
3886.038
3895.007
3908.273
3925.601
3946.14
3968.884
3991.711
4013.105
4035.727
843.9892
872.9007
1037.356
1302.449
1629.764
1985.725
2344.088
2686.176
2999.91
3278.278
3517.694
3716.534
3874.019
3989.548
4062.454
4092.114
4078.305
4021.657
3924.107
3789.215
3622.31
3430.42
3221.998
3006.471
2793.687
2593.303
2414.191
2263.919
2148.336
2071.316
2034.635
2038.013
2079.279
2154.64
2259.032
2386.51
2530.642
2684.901
2843.007
2999.221
3148.57
3287.011
3411.517
3520.105
3611.806
3686.589
3745.24
3789.223
3820.519
3841.454
3854.535
3862.284
3867.102
3871.125
3876.146
3883.517
3893.947
3908.694
3923.035
3956.558
903.0426
850.3042
808.2296
807.8035
867.7947
994.1009
1182.553
1422.468
1699.838
1999.779
2308.217
2612.814
2903.318
3171.487
3410.815
3616.176
3783.529
3909.746
3992.582
4030.766
4024.182
3974.062
3883.145
3755.747
3597.712
3416.231
3219.537
3016.503
2816.177
2627.294
2457.812
2314.509
2202.662
2125.84
2085.811
2082.564
2114.431
2178.303
2269.9
2384.093
2515.236
2657.492
2805.145
2952.861
3095.915
3230.349
3353.079
3461.952
3555.735
3634.074
3697.401
3746.819
3783.962
3810.834
3829.674
3842.791
3852.27
3860.875
3867.026
3885.11
938.0388
924.281
894.3684
852.7658
811.4987
785.6732
789.5044
833.7587
924.5387
1063.109
1246.473
1468.352
1720.282
1992.625
2275.408
2558.918
2834.096
3092.737
3327.59
3532.401
3701.947
3832.107
3919.957
3963.889
3963.739
3920.874
3838.231
3720.269
3572.832
3402.924
3218.39
3027.55
2838.787
2660.137
2498.904
2361.321
2252.295
2175.225
2131.927
2122.638
2146.116
2199.81
2280.08
2382.466
2501.969
2633.342
2771.356
2911.054
3047.954
3178.214
3298.749
3407.296
3502.431
3583.542
3650.764
3704.897
3747.17
3779.767
3802.286
3828.39
956.3184
953.394
947.403
933.6632
909.3677
875.3503
836.2871
799.8645
775.4062
772.3346
798.8235
860.8498
961.6785
1101.74
1278.824
1488.481
1724.541
1979.641
2245.725
2514.466
2777.614
3027.27
3256.118
3457.612
3626.165
3757.315
3847.884
3896.113
3901.768
3866.18
3792.229
3684.249
3547.854
3389.696
3217.161
3038.022
2860.078
2690.789
2536.945
2404.376
2297.724
2220.292
2173.964
2159.209
2175.154
2219.718
2289.805
2381.522
2490.428
2611.787
2740.812
2872.892
3003.786
3129.796
3247.843
3355.688
3451.399
3535.791
3600.919
3685.728
974.2496
970.4364
967.5024
964.4991
959.1363
948.5959
930.5777
904.2411
870.8343
833.8294
798.59
771.7297
760.3202
771.0876
809.7081
880.28
985.0037
1124.068
1295.709
1496.407
1721.165
1963.829
2217.43
2474.507
2727.425
2968.663
3191.089
3388.219
3554.45
3685.275
3777.465
3829.21
3840.207
3811.682
3746.351
3648.306
3522.83
3376.162
3215.203
3047.205
2879.435
2718.857
2571.833
2443.865
2339.393
2261.657
2212.617
2192.951
2202.107
2238.415
2299.249
2381.213
2480.353
2592.41
2712.938
2837.882
2962.298
3086.738
3189.699
3353.215
992.8115
988.3595
984.1822
980.7285
978.0381
975.4723
971.6567
964.6771
952.5508
933.8201
908.0733
876.2875
840.9481
805.9349
776.207
757.3481
755.042
774.5525
820.2638
895.323
1001.404
1138.596
1305.4
1498.83
1714.575
1947.218
2190.493
2437.558
2681.285
2914.543
3130.494
3322.86
3486.181
3616.042
3709.261
3764.022
3779.957
3758.161
3701.143
3612.702
3497.756
3362.113
3212.197
3054.763
2896.595
2744.212
2603.602
2479.986
2377.638
2299.747
2248.346
2224.298
2227.331
2256.157
2308.48
2381.681
2470.846
2578.128
2673.642
2864.458
1011.112
1006.555
1001.467
996.071
990.7515
985.9189
981.8146
978.2723
974.5751
969.4991
961.5195
949.1258
931.1845
907.281
877.9809
844.9657
811.0237
779.901
756.0355
744.2125
749.1839
775.2915
826.1297
904.2718
1011.073
1146.56
1309.397
1496.927
1705.287
1929.563
2164.005
2402.261
2637.651
2863.439
3073.121
3260.695
3420.921
3549.541
3643.464
3700.894
3721.409
3705.962
3656.84
3577.543
3472.616
3347.442
3207.989
3060.548
2911.453
2766.822
2632.305
2512.876
2412.653
2334.798
2281.337
2253.598
2250.279
2275.701
2306.599
2424.499
1028.435
1031.226
1035.905
1040.49
1043.54
1044.325
1042.758
1039.188
1034.132
1028.01
1020.948
1012.678
1002.555
989.6705
973.0528
951.9194
925.9299
895.4044
861.47
826.1156
792.1466
763.0465
742.7623
735.4393
745.129
775.4993
829.5675
909.475
1016.315
1150.022
1309.326
1491.764
1693.764
1910.771
2137.426
2367.785
2595.566
2814.413
3018.165
3201.122
3358.29
3485.596
3580.061
3639.924
3664.709
3655.235
3613.567
3542.909
3447.448
3332.16
3202.584
3064.574
2924.052
2786.768
2658.038
2542.729
2444.337
2367.631
2310.161
2279.653
972.8698
878.5722
824.5073
803.038
805.2689
823.0834
849.7458
880.0571
910.2953
938.0261
961.8374
981.0388
995.3705
1004.754
1009.112
1008.277
1001.984
989.947
971.9856
948.1873
919.0635
885.6766
849.7164
813.5121
779.9762
752.4851
734.7063
730.3889
743.1327
776.1562
832.0776
912.7243
1018.982
1150.69
1306.595
1484.354
1680.593
1891.026
2110.611
2333.75
2554.52
2766.916
2965.115
3143.715
3297.975
3424.009
3518.957
3581.094
3609.899
3606.059
3571.427
3508.923
3422.394
3316.426
3196.18
3066.985
2934.968
2802.502
2690.17
2524.561
3318.295
2782.218
2315.094
1922.974
1605.575
1358.409
1174.213
1044.13
958.691
908.5787
885.1782
880.917
889.4228
905.533
925.1972
945.3142
963.5419
978.1174
987.7119
991.3374
988.3086
978.2553
961.1699
937.4742
908.0835
874.4529
838.5899
803.0265
770.7451
745.0633
729.4803
727.4985
742.4281
777.1904
834.1304
914.852