/*--------------------------------*- C++ -*----------------------------------*\
| =========                 |                                                 |
| \\      /  F ield         | OpenFOAM: The Open Source CFD Toolbox           |
|  \\    /   O peration     | Version:  2312                                  |
|   \\  /    A nd           | Website:  www.openfoam.com                      |
|    \\/     M anipulation  |                                                 |
\*---------------------------------------------------------------------------*/
FoamFile
{
    version     2.0;
    format      ascii;
    arch        "LSB;label=32;scalar=64";
    class       volScalarField;
    location    "4950";
    object      k;
}
// * * * * * * * * * * * * * * * * * * * * * * * * * * * * * * * * * * * * * //

dimensions      [0 2 -2 0 0 0 0];

internalField   nonuniform List<scalar> 
12000
(
0.001817487
0.004009631
0.004786919
0.00563108
0.006334008
0.007013265
0.007616295
0.00814924
0.008622221
0.009069368
0.009495725
0.009872448
0.01019921
0.01051434
0.01081366
0.01108007
0.01129601
0.01150222
0.01170675
0.01188993
0.01202077
0.01213759
0.01225584
0.01236533
0.01242748
0.0124704
0.01251119
0.01254321
0.01254606
0.01253605
0.01250329
0.01247744
0.01243234
0.01239378
0.01232054
0.01217704
0.01193659
0.01167069
0.01156391
0.01148885
0.01130597
0.01081413
0.01030599
0.01013965
0.01013614
0.009964787
0.009139667
0.008527559
0.008392504
0.008268948
0.007745232
0.006807643
0.006512972
0.006101589
0.005557124
0.004802648
0.004210154
0.003693289
0.003132046
0.002965098
0.001941349
0.004883902
0.005759282
0.00659526
0.007339517
0.008191819
0.009388084
0.01071738
0.01187336
0.0126779
0.01378553
0.01518238
0.01622666
0.0168399
0.01769254
0.01893031
0.01989525
0.02027691
0.02078905
0.02182245
0.02271967
0.0230855
0.02336884
0.02414374
0.02490244
0.02532532
0.02558164
0.02608189
0.02661731
0.02701743
0.02732742
0.0276014
0.02784701
0.02813624
0.02841937
0.02863558
0.02874141
0.0287938
0.02890954
0.02889128
0.02878714
0.02872434
0.02856535
0.02837546
0.0275791
0.02691872
0.02645467
0.02590411
0.02503361
0.02343858
0.0221987
0.02116802
0.01992113
0.01765048
0.01573105
0.01349359
0.01088341
0.008034618
0.005498787
0.005466251
0.002909341
0.006131797
0.007654889
0.009190902
0.01096818
0.01271062
0.01456968
0.01644463
0.01816189
0.01950386
0.02067236
0.02187345
0.02292327
0.02381118
0.02465103
0.02549169
0.02625295
0.02686645
0.02741459
0.02799221
0.02857579
0.02908439
0.02952166
0.02996572
0.03044622
0.03091234
0.03132785
0.03172622
0.03214682
0.03257641
0.03299181
0.0333621
0.03374319
0.03414314
0.03452751
0.03491267
0.03527773
0.03557905
0.03579924
0.03599423
0.0362224
0.03646013
0.0365871
0.03658906
0.03645818
0.03630236
0.03610743
0.0357122
0.03507013
0.03420202
0.03320993
0.03205117
0.03046579
0.02855089
0.0260015
0.02276896
0.01891806
0.01385977
0.008089588
0.007349049
0.003653491
0.006576381
0.008626194
0.01078463
0.01319544
0.01555029
0.01782635
0.01986032
0.02161651
0.02309997
0.02446309
0.02568245
0.02663212
0.02738102
0.02806534
0.02869564
0.02923822
0.02970574
0.03012652
0.03054913
0.0309704
0.03137488
0.03176699
0.03216568
0.03257815
0.03299522
0.03341037
0.03382894
0.0342579
0.03469438
0.03510315
0.03551777
0.03596158
0.03639626
0.03682022
0.03723077
0.03762439
0.03799417
0.03833131
0.03863052
0.03888859
0.03910067
0.03925369
0.03930435
0.03927438
0.03915861
0.03892606
0.03855519
0.03801352
0.03725101
0.03631516
0.0350097
0.03320239
0.03104873
0.02847459
0.02548343
0.02172298
0.01693786
0.01087985
0.008908099
0.00440025
0.007089762
0.009651984
0.01234304
0.01514625
0.01774713
0.02006629
0.02202403
0.02366606
0.02503439
0.02622316
0.02727681
0.02817928
0.02887188
0.02936282
0.02980436
0.03018886
0.03053472
0.03087162
0.03120697
0.03154965
0.03189856
0.03225865
0.03263467
0.03302919
0.03344125
0.03386905
0.0343125
0.03477151
0.03522056
0.03567474
0.03615847
0.03665071
0.03714567
0.03763698
0.03811936
0.03859755
0.03906327
0.03950695
0.03992162
0.04030077
0.04063649
0.04092123
0.04113147
0.0412537
0.04126959
0.04116181
0.04092557
0.04057224
0.04002997
0.03908858
0.03773747
0.03612706
0.03419195
0.03178828
0.02871809
0.02472006
0.01945311
0.01256202
0.01002199
0.005072973
0.0074714
0.01038788
0.01335878
0.01630964
0.01897282
0.02127476
0.0231975
0.0247785
0.02605407
0.02705669
0.02786182
0.02850486
0.02907134
0.02953625
0.0298783
0.03019611
0.03050856
0.03081535
0.03111753
0.03142579
0.03174883
0.03209277
0.03246151
0.03285697
0.03327928
0.03372757
0.03420043
0.03469526
0.03520929
0.03574333
0.03629464
0.03686228
0.03744383
0.03803406
0.03861478
0.03918873
0.03976089
0.04031811
0.04084993
0.04134727
0.04179989
0.04219628
0.04252449
0.04276837
0.04286861
0.04287164
0.04277053
0.04245015
0.04178679
0.0407917
0.03949527
0.03787832
0.03585292
0.033311
0.030132
0.02613323
0.02097915
0.01415613
0.01093781
0.00572048
0.007795505
0.01092608
0.01401814
0.01698502
0.01960617
0.02181757
0.0236259
0.02507831
0.02623441
0.02714861
0.02787999
0.02847975
0.02894509
0.02935045
0.02969299
0.02996357
0.03021018
0.03046575
0.03073895
0.03103552
0.03136121
0.03172024
0.03211517
0.03254711
0.03301602
0.03352118
0.03406064
0.03463148
0.03523093
0.03585885
0.03650599
0.03717202
0.03785808
0.03855663
0.0392611
0.03996089
0.04065244
0.04132963
0.04198298
0.04260158
0.04317254
0.04368093
0.04411111
0.04443871
0.04466645
0.04475523
0.04463228
0.04423296
0.04356908
0.04262809
0.04137285
0.03975126
0.03769771
0.03512566
0.0319043
0.02781473
0.02246427
0.01525999
0.01160803
0.006275647
0.00808136
0.01130844
0.01439217
0.01727211
0.01977708
0.02188294
0.02362421
0.02505172
0.02617124
0.02704203
0.02771432
0.02822546
0.02863577
0.02896853
0.02928162
0.02957975
0.02985024
0.03012591
0.03042139
0.03074737
0.03111088
0.03151607
0.03196416
0.03245507
0.03298758
0.03355934
0.03417612
0.03483421
0.03552989
0.03625752
0.03701397
0.03779537
0.03859446
0.03940644
0.04022544
0.04104424
0.04185491
0.04264865
0.04341488
0.04414116
0.04481284
0.0454144
0.04592291
0.04633238
0.04660254
0.04665796
0.04649137
0.04607756
0.04539331
0.04440271
0.04306682
0.04133919
0.03916038
0.03644924
0.03308564
0.02887161
0.02344374
0.01622169
0.01215206
0.007009655
0.008327862
0.01154316
0.0145511
0.01731693
0.01975892
0.02181165
0.0234884
0.02482121
0.02588718
0.02672686
0.02738496
0.02790406
0.02832443
0.02867798
0.02899282
0.02931278
0.02964503
0.02998015
0.0303336
0.03071437
0.03112764
0.03158422
0.03209376
0.03265624
0.03327131
0.03393829
0.03464786
0.03539847
0.03618719
0.03701016
0.03786956
0.03875935
0.03966573
0.04058425
0.04150893
0.04243228
0.04334546
0.04423818
0.04509832
0.04591168
0.04666208
0.04732857
0.04789525
0.04832456
0.04857552
0.04861898
0.04843505
0.04798802
0.04724592
0.04617492
0.04473885
0.04289598
0.04059351
0.03775713
0.03427073
0.02993365
0.02436521
0.01693968
0.01254062
0.007097981
0.008529839
0.01170678
0.01461007
0.01728328
0.0196044
0.02156691
0.0231835
0.02449316
0.02554787
0.02639447
0.02707716
0.02763633
0.02810778
0.02852219
0.028905
0.02927278
0.02964996
0.03004308
0.03046297
0.03092038
0.0314252
0.03197775
0.03257619
0.03322369
0.03392095
0.03466664
0.03545808
0.03629225
0.03716561
0.03807408
0.03902179
0.04000227
0.04099916
0.0420072
0.04301979
0.04402886
0.04502468
0.0459957
0.04692826
0.04780617
0.04861048
0.04931723
0.04990089
0.05033314
0.05057389
0.05059488
0.05036141
0.04983902
0.04899622
0.04780313
0.04622899
0.04423788
0.04178287
0.0387949
0.03516274
0.03069216
0.02501448
0.01752275
0.01284246
0.007168618
0.008639953
0.0117885
0.01459082
0.01712222
0.01934653
0.02124563
0.02283441
0.0241477
0.02522825
0.02611841
0.02685807
0.02748358
0.02802728
0.02851674
0.02896539
0.02940576
0.02985979
0.03034929
0.03087116
0.03142486
0.03201749
0.03265306
0.03333413
0.03406221
0.03483758
0.0356592
0.03652515
0.03743273
0.03837855
0.03935859
0.04037678
0.041427
0.04249327
0.04356941
0.04464797
0.04572006
0.04677505
0.04780031
0.04878081
0.04969888
0.05053384
0.05126541
0.05186294
0.0522909
0.05250101
0.05247668
0.05217242
0.05155464
0.05059456
0.04926766
0.04755029
0.0454144
0.04281863
0.03969757
0.03594213
0.03135755
0.02556926
0.01795405
0.01304254
0.008293561
0.008775412
0.01185096
0.01455291
0.01697573
0.01911246
0.02095517
0.02251831
0.02383215
0.0249339
0.02586522
0.02666513
0.02736845
0.02800275
0.02858562
0.02915033
0.02970541
0.03026492
0.03084357
0.03145127
0.03209635
0.03277758
0.03349816
0.03426016
0.03506492
0.03591316
0.03680431
0.03773654
0.03870731
0.03971345
0.04075118
0.04182271
0.04292262
0.04403735
0.04516004
0.04628266
0.04739577
0.04848819
0.04954669
0.05055552
0.05149607
0.05234631
0.05308072
0.0536669
0.05406897
0.05424673
0.05416753
0.0537825
0.05305951
0.05197517
0.05051288
0.04865719
0.0463852
0.04365948
0.04041642
0.03654751
0.03185877
0.02597884
0.01829352
0.01318919
0.008316697
0.008848265
0.01185228
0.01445094
0.01675977
0.01880659
0.02059529
0.02214225
0.02347526
0.02462793
0.02563169
0.02651685
0.02731137
0.02804061
0.02873
0.02939403
0.03005165
0.03072233
0.03141268
0.03212584
0.03286496
0.03363515
0.03444262
0.03528865
0.0361721
0.03709125
0.03804486
0.03903161
0.04005073
0.04110054
0.04217835
0.0432846
0.04441464
0.04555785
0.04670674
0.04785276
0.04898613
0.05009529
0.05116672
0.05218446
0.05312931
0.05397823
0.05470184
0.05526922
0.05564314
0.05577827
0.05563322
0.05516218
0.05433315
0.05312806
0.05154029
0.04956145
0.0471729
0.04433791
0.04099336
0.0370303
0.03225334
0.0262886
0.01851872
0.01327123
0.008401959
0.008885684
0.01184643
0.01435013
0.01656736
0.01854862
0.02030593
0.02185407
0.02321419
0.02441251
0.02547422
0.02642722
0.02729638
0.02810426
0.02887834
0.02964631
0.03041991
0.031204
0.03200032
0.0328121
0.03364515
0.03450896
0.03540767
0.03633998
0.03730276
0.03829042
0.03929672
0.04032458
0.04138073
0.04246278
0.04356732
0.04469305
0.04583722
0.04699303
0.0481524
0.04930611
0.0504438
0.05155355
0.05262148
0.05363131
0.05456363
0.05539555
0.05609914
0.05664059
0.05697986
0.0570692
0.05685753
0.05629382
0.0553491
0.05403037
0.05234278
0.05027024
0.04779143
0.0448704
0.04144386
0.03740303
0.03255354
0.02652354
0.01869924
0.01332824
0.008592878
0.008910828
0.01182403
0.01425824
0.01641077
0.01834219
0.02007432
0.02162199
0.02300341
0.02423954
0.02535367
0.02636604
0.02729745
0.02817884
0.02904433
0.02990602
0.03077113
0.03164594
0.03253689
0.03344734
0.03437872
0.03533089
0.03630458
0.03730038
0.03831689
0.03935411
0.04041234
0.04149108
0.04258718
0.04369609
0.04481641
0.04595151
0.04710268
0.04826422
0.04942727
0.05058201
0.05171702
0.05281957
0.05387503
0.05486655
0.05577756
0.05658939
0.05727397
0.0577968
0.05811486
0.0581723
0.0579074
0.05726788
0.05622582
0.0547871
0.05298844
0.05082705
0.04826873
0.04527406
0.04177896
0.03767375
0.03276329
0.0266751
0.01879366
0.01334089
0.008774487
0.008927616
0.0117982
0.01418022
0.01627091
0.01815622
0.0198644
0.02141126
0.02281211
0.02408302
0.02524096
0.02630368
0.02729473
0.02824628
0.02918628
0.03012777
0.03107805
0.03204104
0.0330185
0.0340096
0.03501416
0.03603344
0.0370686
0.03811969
0.03918608
0.04026672
0.04136145
0.04247072
0.04359386
0.04472829
0.04586979
0.0470122
0.04815908
0.04931848
0.0504826
0.05163667
0.05276842
0.05386544
0.05491419
0.05589937
0.05680329
0.05760382
0.05827286
0.05877474
0.05906423
0.05908577
0.05877656
0.05807441
0.0569438
0.05539979
0.05349707
0.05125326
0.04862979
0.045576
0.0420258
0.03787069
0.03291642
0.02679118
0.01887643
0.01334502
0.008922912
0.008942236
0.0117769
0.01411248
0.01615367
0.01799954
0.01968412
0.02122456
0.0226344
0.02392727
0.02511819
0.02622415
0.02726536
0.02827362
0.0292817
0.03029956
0.03132891
0.03236844
0.03341623
0.03447351
0.03554108
0.03661897
0.03770649
0.03880315
0.03990896
0.04102435
0.04215004
0.04328637
0.04443245
0.04558555
0.04674048
0.04788855
0.04903494
0.0501933
0.05135823
0.0525133
0.05364452
0.05473884
0.0557827
0.05676107
0.05765606
0.05844526
0.05909976
0.05958245
0.05984617
0.05983321
0.05947999
0.05872494
0.05753316
0.05591331
0.05392163
0.05160323
0.04892296
0.04581709
0.04222
0.03802241
0.03302948
0.02686744
0.01891206
0.01333223
0.009036841
0.008961387
0.01175728
0.01405824
0.01605823
0.01786842
0.01952969
0.02106091
0.0224748
0.02378343
0.02500019
0.0261406
0.02722513
0.0282851
0.02935004
0.03042712
0.03151693
0.03261791
0.03372823
0.03484494
0.03596561
0.03708978
0.03821922
0.03935453
0.04049534
0.04164185
0.04279463
0.04395412
0.04511972
0.04628877
0.04745522
0.04860799
0.04975216
0.0509059
0.05206791
0.05322195
0.05435227
0.05544475
0.05648559
0.05745961
0.05834862
0.05912971
0.05977336
0.06024157
0.06048611
0.06044834
0.0600613
0.05926195
0.05801138
0.05631995
0.0542519
0.05187232
0.04914599
0.04599996
0.04236658
0.03813449
0.03310947
0.02691953
0.01893424
0.01330413
0.009129593
0.008991305
0.01175961
0.01402241
0.01598294
0.01775928
0.01939662
0.02091513
0.02232795
0.02364677
0.02488433
0.0260551
0.02717717
0.02827972
0.02939
0.03051605
0.03165688
0.03280874
0.03396745
0.03512936
0.03629311
0.0374581
0.03862388
0.03979058
0.04095892
0.04212976
0.04330395
0.04448186
0.04566262
0.04684336
0.04801889
0.04918254
0.05032949
0.05147321
0.05262868
0.05378339
0.05491538
0.05600898
0.05705015
0.05802361
0.0589108
0.0596881
0.06032497
0.06078214
0.06101003
0.06094919
0.06053148
0.05969431
0.05839793
0.05665085
0.05451836
0.05207979
0.04930649
0.04612081
0.04245159
0.03818862
0.03313817
0.02692912
0.01893298
0.01326807
0.009197396
0.009032801
0.01177267
0.01399785
0.01592375
0.01766826
0.01928069
0.02078397
0.02219208
0.02351699
0.02477113
0.02596806
0.02712221
0.02825814
0.02940319
0.03056613
0.03174469
0.03293457
0.03413103
0.03533035
0.0365295
0.03772671
0.03892126
0.04011379
0.04130545
0.04249726
0.04369017
0.04488464
0.04607992
0.04727325
0.04845947
0.0496317
0.05078317
0.05192665
0.05308069
0.05423629
0.0553719
0.05647049
0.05751671
0.05849432
0.05938396
0.06016109
0.06079412
0.06124256
0.06145571
0.06137348
0.06092653
0.06005217
0.05871089
0.0569129
0.05472754
0.05224007
0.04942781
0.04621219
0.04251823
0.03823446
0.03316513
0.02693627
0.01893117
0.01323094
0.009264412
0.009098029
0.01181024
0.01399876
0.01588456
0.01759466
0.01917992
0.02066488
0.02206472
0.02339192
0.02465875
0.02587789
0.02706204
0.0282276
0.02939715
0.03058422
0.03178927
0.0330066
0.03423083
0.03545738
0.03668292
0.03790549
0.03912432
0.04033961
0.0415522
0.04276323
0.04397381
0.04518456
0.04639496
0.04760258
0.04880245
0.04998713
0.05114762
0.05229557
0.05345234
0.05461246
0.05575512
0.05686211
0.05791671
0.05890158
0.05979638
0.06057557
0.0612064
0.06164726
0.0618464
0.06174342
0.06126838
0.0603594
0.05897783
0.05713499
0.05490242
0.05236985
0.04952204
0.04627918
0.0425613
0.03825679
0.03316959
0.02693131
0.0189089
0.01318432
0.009310165
0.009175331
0.01186519
0.01401154
0.01585949
0.01753512
0.01909182
0.02055617
0.02194484
0.02327107
0.02454705
0.02578457
0.02699464
0.02818675
0.02937556
0.03057827
0.03179836
0.03303323
0.03427637
0.03552271
0.03676872
0.03801197
0.03925126
0.04048641
0.04171819
0.04294776
0.04417622
0.04540417
0.04663125
0.04785527
0.04907146
0.05027194
0.05144627
0.05260422
0.05376798
0.05493551
0.0560875
0.05720495
0.05826986
0.05926364
0.0601648
0.06094668
0.0615754
0.06200827
0.06219265
0.06206797
0.06156395
0.06061986
0.05919867
0.057314
0.05504024
0.05247036
0.04959313
0.04632748
0.04259027
0.03826901
0.03316899
0.02691896
0.01889006
0.01314423
0.00937624
0.009289357
0.01194973
0.01405028
0.01585523
0.0174909
0.01901527
0.020456
0.02183053
0.02315237
0.0244334
0.0256844
0.026915
0.028133
0.02934405
0.03055797
0.03178673
0.03303011
0.03428331
0.03554278
0.03680397
0.03806372
0.0393204
0.0405736
0.0418238
0.04307185
0.04431862
0.04556457
0.04680934
0.04805109
0.04928576
0.05050606
0.05170002
0.05287077
0.05404152
0.05521886
0.0563837
0.05751371
0.05859003
0.05959335
0.06050122
0.0612858
0.0619121
0.06233634
0.06250518
0.06235802
0.06182468
0.06084594
0.05938684
0.05746346
0.05515275
0.05255015
0.04964724
0.04636155
0.04260712
0.03827064
0.03315926
0.02689794
0.0188599
0.01309759
0.009432161
0.00941976
0.01205812
0.01410728
0.01586225
0.01745855
0.01894936
0.02036432
0.02172184
0.02303559
0.024317
0.02557591
0.02682067
0.02805793
0.02929227
0.03052633
0.03176269
0.03300869
0.034269
0.03553676
0.03680761
0.03807978
0.03935098
0.04062047
0.04188818
0.0431544
0.04441964
0.04568422
0.04694759
0.04820769
0.04946034
0.05069922
0.05191716
0.05311017
0.05429229
0.05547807
0.0566546
0.05779769
0.05888645
0.05990003
0.06081475
0.06160166
0.0622247
0.0626392
0.06279125
0.0626204
0.06205687
0.06104325
0.05954703
0.05758726
0.05524357
0.05261315
0.04968859
0.04638601
0.04261782
0.03827063
0.03314791
0.02687801
0.01883532
0.01306056
0.009449058
0.009591308
0.01219573
0.01418699
0.01588959
0.0174396
0.01889397
0.02028056
0.02161799
0.02291978
0.0241968
0.02545802
0.02671076
0.0279606
0.02921137
0.03046513
0.03172221
0.03298176
0.0342447
0.03551538
0.03679468
0.03807722
0.03936076
0.04064446
0.04192805
0.04321146
0.04449472
0.04577781
0.04706004
0.04833938
0.0496118
0.05087126
0.05211092
0.05332504
0.05452443
0.05572376
0.05691279
0.05806843
0.059169
0.06019224
0.06111305
0.06190126
0.06251974
0.06292306
0.0630569
0.06286113
0.06226672
0.06121824
0.05968591
0.05769191
0.0553185
0.05266405
0.04972077
0.04640315
0.04262223
0.03826403
0.03313192
0.02685394
0.01880528
0.0130203
0.00948355
0.009776858
0.01235693
0.01428831
0.01593636
0.01743983
0.01885241
0.02020655
0.02152014
0.02280607
0.0240744
0.02533321
0.02658883
0.02784594
0.0291076
0.03037533
0.03164928
0.0329285
0.0342114
0.03549604
0.03678125
0.03806978
0.03936385
0.04066103
0.04195978
0.04325946
0.04455981
0.0458607
0.0471613
0.04845958
0.04975191
0.05103272
0.05229478
0.0535305
0.05474828
0.05596244
0.05716456
0.05833261
0.05944427
0.06047605
0.06140155
0.06218944
0.06280164
0.06319206
0.06330616
0.06308424
0.06245829
0.06137498
0.05980748
0.05778127
0.0553812
0.05270638
0.04974736
0.046417
0.04262562
0.03825866
0.03311907
0.0268347
0.01878192
0.01298918
0.009901524
0.01000128
0.01255059
0.01441599
0.01600189
0.01745066
0.01882212
0.02014238
0.02142977
0.02269694
0.02395334
0.02520626
0.02646117
0.02772194
0.02899092
0.03026911
0.03155631
0.03285141
0.03415273
0.03545818
0.03676561
0.03807314
0.03937901
0.04068574
0.04199731
0.04331175
0.04462791
0.04594534
0.04726321
0.04857958
0.0498909
0.05119183
0.05247529
0.05373296
0.05497037
0.05620006
0.05741508
0.0585947
0.05971616
0.06075492
0.06168336
0.06246908
0.06307315
0.06344896
0.06354188
0.06329272
0.06263479
0.06151693
0.05991537
0.05785897
0.05543509
0.05274303
0.04977081
0.04642955
0.0426291
0.0382542
0.03310737
0.02681587
0.01875729
0.01295763
0.01037421
0.01027419
0.0127705
0.0145679
0.01608814
0.01748197
0.01880649
0.02008976
0.0213486
0.0225949
0.0238373
0.02508226
0.02633445
0.02759699
0.02887161
0.0301588
0.03145797
0.03276775
0.03408624
0.03541125
0.03674051
0.03807181
0.03940225
0.04073055
0.04205517
0.0433797
0.04470877
0.04604101
0.04737457
0.04870726
0.0500358
0.05135539
0.05265937
0.0539388
0.05519479
0.05643826
0.05766573
0.05885671
0.05998685
0.06103082
0.06196023
0.06274179
0.06333585
0.06369539
0.06376584
0.06348858
0.06279847
0.06164659
0.06001229
0.05792783
0.05548287
0.05277647
0.04979344
0.04644305
0.04263486
0.03825264
0.03309968
0.02680253
0.0187394
0.01293535
0.01064548
0.01054902
0.01299835
0.01474176
0.01619461
0.01753118
0.01880785
0.0200521
0.02128079
0.0225049
0.02373225
0.02496847
0.02621742
0.02748151
0.02876182
0.03005825
0.03136973
0.03269447
0.03403019
0.03537432
0.03672419
0.03807692
0.03943035
0.04078219
0.04213065
0.04347425
0.04481516
0.04615816
0.04750399
0.0488501
0.05019286
0.0515275
0.05284814
0.05414884
0.0554254
0.05668191
0.05791915
0.05911936
0.06025652
0.06130406
0.06223263
0.06300816
0.0635904
0.06393211
0.06397897
0.06367299
0.06295087
0.06176586
0.06010046
0.05799021
0.05552685
0.05280881
0.04981697
0.04645901
0.04264467
0.03825726
0.03309722
0.02679301
0.01872404
0.01291395
0.01072229
0.01082679
0.01324577
0.01493628
0.01631765
0.01759536
0.01882295
0.0200285
0.02122749
0.02242998
0.02364295
0.0248712
0.02611781
0.02738442
0.02867139
0.02997795
0.03130245
0.03264258
0.0339956
0.03535854
0.03672776
0.03810129
0.03947641
0.04085064
0.04222169
0.04358758
0.04494689
0.04630121
0.04765534
0.04901076
0.05036433
0.0517114
0.05304639
0.05436348
0.05565708
0.05692804
0.0581757
0.05938324
0.06052509
0.06157403
0.06249974
0.06326735
0.06383619
0.06415896
0.06418171
0.06384707
0.06309369
0.0618769
0.06018227
0.05804851
0.05556933
0.05284214
0.04984322
0.0464785
0.04265839
0.0382658
0.03310126
0.02679036
0.01871471
0.01289886
0.01075566
0.01111856
0.01350693
0.0151434
0.01646094
0.01767844
0.01885853
0.0200268
0.02119499
0.02237593
0.02357528
0.02479669
0.02604221
0.02731254
0.02860722
0.02992475
0.03126285
0.03261876
0.03398872
0.03536848
0.03675701
0.03815036
0.03954549
0.04093966
0.04233077
0.0437168
0.04509603
0.04646696
0.04783043
0.04919108
0.05055114
0.05190696
0.05325322
0.0545838
0.0558919
0.05717587
0.05843298
0.05964656
0.06079142
0.06183988
0.06276091
0.06351905
0.06407323
0.06437614
0.06437434
0.06401114
0.06322756
0.06198087
0.06025951
0.058105
0.05561262
0.05287845
0.04987388
0.04650319
0.04267775
0.03828004
0.03311013
0.02679384
0.01871016
0.01288582
0.01090646
0.01142378
0.01378192
0.01536514
0.01662033
0.0177775
0.01890968
0.02003973
0.02118455
0.02234677
0.02353481
0.02475178
0.02599866
0.02727511
0.02857946
0.02990893
0.03125991
0.03262803
0.03401271
0.03541087
0.03681754
0.03822908
0.03964251
0.04105491
0.04246401
0.04386766
0.04526397
0.04665125
0.048028
0.04939545
0.05075837
0.05211832
0.05347125
0.0548112
0.05613093
0.05742626
0.05869149
0.05990955
0.06105567
0.06210184
0.06301642
0.06376341
0.06430174
0.06458462
0.06455924
0.06416862
0.06335662
0.06208187
0.06033547
0.05816196
0.05565833
0.05291925
0.04990998
0.04653351
0.04270297
0.03830033
0.03312503
0.02680201
0.01870987
0.01287977
0.01101405
0.0117312
0.01406822
0.01560158
0.0167958
0.01789397
0.0189818
0.02007913
0.02119843
0.02234924
0.02353277
0.02474859
0.02599747
0.02727752
0.02858787
0.0299268
0.03129089
0.03267701
0.03407901
0.0354933
0.03691593
0.0383434
0.03977241
0.04120036
0.04262458
0.0440429
0.04545334
0.04685417
0.04824378
0.04962066
0.05098675
0.05234715
0.05370245
0.05504784
0.05637596
0.05768034
0.05895221
0.06017363
0.06131986
0.06236256
0.06326981
0.06400558
0.06452855
0.06479131
0.06474136
0.06432321
0.0634837
0.06218305
0.06041457
0.05822465
0.05571064
0.05296594
0.04995191
0.04657044
0.04273523
0.03832777
0.03314697
0.02681746
0.01871936
0.01287738
0.01121619
0.01205286
0.01437133
0.01585615
0.0169911
0.0180316
0.01907644
0.0201429
0.02124128
0.02237687
0.02355164
0.02476739
0.02602216
0.02731425
0.02863947
0.02999328
0.03137199
0.03277163
0.03418784
0.03561649
0.03705314
0.03849414
0.03993621
0.04137671
0.04281313
0.04424324
0.04566504
0.04707671
0.04847657
0.04986298
0.05123435
0.05259425
0.05394864
0.05529571
0.05662887
0.05793974
0.0592164
0.06043973
0.06158495
0.06262347
0.06352283
0.06424604
0.06475154
0.06499289
0.0649189
0.06447493
0.06360891
0.0622831
0.06049328
0.05828754
0.05576428
0.05301555
0.04999834
0.0466125
0.04277262
0.03836007
0.03317322
0.02683597
0.01872775
0.01287702
0.01131401
0.01235943
0.01467848
0.0161199
0.01719926
0.01818747
0.01919565
0.02023675
0.02131889
0.02244635
0.02362017
0.02483944
0.02610156
0.02740296
0.02873926
0.03010574
0.03149765
0.03291031
0.03433894
0.03577897
0.03722649
0.03867805
0.04013071
0.04158147
0.04302782
0.04446747
0.04589834
0.04731856
0.04872632
0.05011991
0.05149762
0.05285936
0.0542105
0.0555557
0.05689025
0.05820457
0.05948391
0.06070768
0.06185029
0.06288228
0.06377076
0.06447924
0.06496686
0.06518769
0.06509107
0.06462279
0.06373152
0.06238115
0.06057006
0.05834989
0.05582018
0.05306994
0.05005049
0.04666056
0.04281635
0.03839864
0.03320595
0.02686177
0.01874517
0.01288109
0.01148693
0.01268354
0.01500135
0.01640298
0.0174315
0.01836986
0.01934294
0.02036223
0.0214334
0.02255773
0.02373408
0.02495964
0.02623052
0.02754211
0.02888941
0.03026725
0.03167051
0.03309383
0.03453225
0.03598124
0.03743728
0.03889714
0.04035782
0.04181641
0.04327034
0.04471726
0.04615502
0.04758162
0.04899515
0.05039378
0.05177571
0.0531391
0.05448783
0.05582889
0.05716113
0.05847555
0.05975519
0.06097714
0.06211466
0.063138
0.06401446
0.06470788
0.06517766
0.06537791
0.06525882
0.06476708
0.06385274
0.06248118
0.06065237
0.05841907
0.05588181
0.05312922
0.05010706
0.04671294
0.04286482
0.0384432
0.03324457
0.02689136
0.01876297
0.01288395
0.01188868
0.01301357
0.01533489
0.01670075
0.01768082
0.01857803
0.01952411
0.02052723
0.0215906
0.02271364
0.02389346
0.02512571
0.02640521
0.02772642
0.02908355
0.03047089
0.0318829
0.03331433
0.03476051
0.03621732
0.03768114
0.0391484
0.04061583
0.04208063
0.04354025
0.04499233
0.04643472
0.0478654
0.04928243
0.0506839
0.05206786
0.05343231
0.05477885
0.05611388
0.0574408
0.05875207
0.06002911
0.06124688
0.06237764
0.06339127
0.06425499
0.06493274
0.06538434
0.06556444
0.06542408
0.06491046
0.06397444
0.06258279
0.06073744
0.05849318
0.05595085
0.05319647
0.05017127
0.04677183
0.04291734
0.03848829
0.03328286
0.02692331
0.01878675
0.01289229
0.01162654
0.01333032
0.0156711
0.01700474
0.0179429
0.01880585
0.0197268
0.0207171
0.02177594
0.02290045
0.0240858
0.02532615
0.02661515
0.02794631
0.02931323
0.0307098
0.03213031
0.03356968
0.03502329
0.03648702
0.03795695
0.03942958
0.04090179
0.04237077
0.04383408
0.04528943
0.04673472
0.04816779
0.04958658
0.05098905
0.05237328
0.05373732
0.05508042
0.05640809
0.05772797
0.05903403
0.06030653
0.06151852
0.06264108
0.06364371
0.06449378
0.06515559
0.06558938
0.06575016
0.06558954
0.06505524
0.06409898
0.06268869
0.06082783
0.05857277
0.05602504
0.05326912
0.0502412
0.04683721
0.04297864
0.03854521
0.03333327
0.02696288
0.01880918
0.01290096
0.01150642
0.01361131
0.01601053
0.01732366
0.01822867
0.01906495
0.01996683
0.02094969
0.02200869
0.02313816
0.0243313
0.0255808
0.02687928
0.02821958
0.02959494
0.03099914
0.03242647
0.03387184
0.03533055
0.03679838
0.03827152
0.03974667
0.04122091
0.04269162
0.04415627
0.04561246
0.04705799
0.04849088
0.04990912
0.05131064
0.05269333
0.05405504
0.05539351
0.05671371
0.05802587
0.05932527
0.06059134
0.06179564
0.06290839
0.0638988
0.06473438
0.06537978
0.06579566
0.06593746
0.06575725
0.06520325
0.06422785
0.06280004
0.06092481
0.05865998
0.0561071
0.05334744
0.05031464
0.04690472
0.04303971
0.03859925
0.03337983
0.02700235
0.0188418
0.01291746
0.01185324
0.01389415
0.01635099
0.01765542
0.01853663
0.01935376
0.02024236
0.02122226
0.02228457
0.02342092
0.02462268
0.02588128
0.02718857
0.02853692
0.02991934
0.03132947
0.03276162
0.03421073
0.03567227
0.0371422
0.0386169
0.04009317
0.04156808
0.04303893
0.04450323
0.04595869
0.04740308
0.04883431
0.05025033
0.05164909
0.05302834
0.05438577
0.05571896
0.05703213
0.0583358
0.05962696
0.06088463
0.06207919
0.06318021
0.06415676
0.06497663
0.06560485
0.06600252
0.06612546
0.06592608
0.065353
0.0643592
0.06291463
0.06102577
0.05875193
0.05619454
0.05343049
0.05039261
0.04697788
0.04310792
0.03866187
0.03343526
0.02704706
0.01887014
0.01292908
0.01247199
0.0142382
0.01671103
0.01800763
0.0188704
0.01967366
0.02055314
0.02153328
0.02260103
0.0237454
0.02495608
0.0262235
0.02753885
0.0288942
0.03028244
0.03169722
0.03313294
0.03458463
0.0360479
0.03751883
0.03899393
0.04046997
0.04194397
0.04341331
0.04487562
0.04632871
0.04777046
0.04919864
0.05061103
0.05200536
0.05337935
0.05473065
0.05605688
0.0573619
0.05865638
0.05993797
0.06118532
0.06236807
0.06345546
0.06441667
0.06521979
0.06583027
0.0662096
0.06631393
0.06609588
0.0655044
0.06449295
0.06303235
0.06113047
0.05884797
0.05628594
0.0535171
0.05047339
0.04705266
0.04317632
0.03872328
0.03348891
0.02709203
0.01890471
0.0129491
0.01278976
0.01455278
0.01706683
0.01837198
0.01922801
0.02002545
0.02090099
0.02188461
0.02295962
0.02411279
0.02533246
0.0266082
0.02793078
0.02929208
0.03068491
0.03210302
0.03354089
0.03499367
0.03645709
0.03792735
0.03940109
0.04087517
0.04234679
0.04381331
0.04527239
0.04672177
0.04815917
0.04958237
0.05098914
0.0523772
0.05374424
0.05508789
0.05640572
0.05770156
0.05898612
0.06025693
0.06149225
0.06266133
0.0637334
0.06467793
0.06546342
0.06605572
0.06641664
0.06650263
0.0662664
0.06565716
0.06462874
0.06315281
0.06123852
0.05894776
0.05638117
0.05360761
0.05055826
0.04713177
0.04324935
0.03878959
0.03354723
0.02713997
0.01893802
0.01296299
0.0129181
0.01485585
0.0174352
0.01875769
0.01961354
0.02041025
0.02128545
0.02227508
0.02335879
0.02452131
0.02574981
0.02703325
0.02836211
0.02972815
0.03112428
0.03254432
0.0339829
0.03543535
0.0368975
0.03836568
0.03983654
0.04130714
0.04277479
0.04423697
0.04569123
0.04713521
0.04856664
0.0499833
0.0513829
0.05276315
0.05412171
0.05545621
0.05676436
0.05805019
0.05932414
0.060583
0.06180469
0.06295837
0.06401358
0.06494025
0.06570734
0.06628111
0.06662361
0.06669154
0.06643756
0.0658111
0.06476632
0.06327562
0.06134936
0.05905048
0.05647915
0.05370052
0.05064504
0.04721216
0.04332297
0.03885587
0.03360529
0.02718848
0.01897409
0.01298072
0.01334975
0.01515253
0.01780586
0.01915991
0.02002653
0.02082941
0.02170779
0.02270521
0.02379831
0.0249701
0.0262068
0.02749693
0.02883079
0.03020018
0.0315981
0.03301853
0.03445628
0.03590682
0.03736618
0.03883084
0.04029759
0.04176348
0.0432258
0.0446821
0.04612996
0.04756703
0.04899101
0.0503996
0.05179052
0.05316144
0.05451003
0.05583394
0.0571316
0.05840711
0.05966952
0.06091519
0.06212176
0.06325855
0.06429559
0.06520343
0.06595154
0.06650654
0.06683068
0.06688082
0.06660953
0.06596637
0.06490578
0.06340083
0.06146294
0.05915601
0.05657971
0.05379583
0.05073413
0.04729482
0.04339886
0.03892443
0.03366546
0.02723818
0.01901008
0.01299401
0.01310872
0.01545671
0.01819094
0.01958541
0.02046931
0.02128194
0.02216648
0.02317291
0.02427597
0.02545684
0.02670106
0.02799686
0.02933453
0.03070596
0.03210434
0.03352384
0.03495946
0.03640686
0.03786219
0.039322
0.04078323
0.04224304
0.04369881
0.04514799