/*--------------------------------*- C++ -*----------------------------------*\
| =========                 |                                                 |
| \\      /  F ield         | OpenFOAM: The Open Source CFD Toolbox           |
|  \\    /   O peration     | Version:  2312                                  |
|   \\  /    A nd           | Website:  www.openfoam.com                      |
|    \\/     M anipulation  |                                                 |
\*---------------------------------------------------------------------------*/
FoamFile
{
    version     2.0;
    format      ascii;
    arch        "LSB;label=32;scalar=64";
    class       volScalarField;
    location    "4950";
    object      omega;
}
// * * * * * * * * * * * * * * * * * * * * * * * * * * * * * * * * * * * * * //

dimensions      [0 0 -1 0 0 0 0];

internalField   nonuniform List<scalar> 
12000
(
52.48277
17.991
19.48615
20.95528
22.10452
23.16005
24.06517
24.8392
25.50237
26.11107
26.68105
27.18062
27.6019
27.99951
28.37314
28.7074
28.97338
29.22037
29.46332
29.68589
29.8443
29.97959
30.11467
30.24416
30.32032
30.36818
30.41255
30.4509
30.45419
30.44384
30.40211
30.3696
30.31334
30.27228
30.19149
30.0374
29.76445
29.42619
29.2697
29.17993
28.99586
28.42837
27.73898
27.49211
27.44014
27.31199
26.28722
25.32232
25.1663
24.93494
24.31097
22.86266
22.32031
21.6819
20.8069
19.4931
18.34291
17.3164
16.17461
38.29075
92.20748
20.98025
20.02616
20.81471
20.8192
20.83394
20.73906
20.47306
19.97734
19.37905
18.85702
18.19804
17.62834
17.14875
16.59536
15.9097
15.38376
15.12908
14.7588
14.13136
13.61687
13.50664
13.33317
12.85441
12.39047
12.30465
12.24931
11.97542
11.67403
11.58692
11.56916
11.54188
11.50878
11.45281
11.44523
11.50789
11.68313
11.90529
11.96603
11.96046
12.03676
12.49504
13.06434
13.34221
13.28558
13.47691
14.46866
15.49054
15.76741
15.99738
17.0371
18.86242
20.1378
21.15316
23.15596
25.98491
30.2493
36.78307
49.51318
71.68911
95.04704
21.41595
19.12181
18.79187
18.05527
17.25452
16.43793
15.66767
14.85775
13.9802
13.16157
12.47673
11.88161
11.3509
10.8692
10.45478
10.11576
9.814008
9.52314
9.271529
9.082853
8.931189
8.777116
8.637782
8.543739
8.485446
8.429969
8.379807
8.363123
8.360696
8.375986
8.395691
8.428609
8.478409
8.541615
8.624138
8.718661
8.813827
8.90673
9.015678
9.154682
9.32077
9.492808
9.664762
9.861056
10.09718
10.35939
10.65911
11.00089
11.3961
11.8407
12.43029
13.16875
14.17785
15.40687
17.26864
20.78249
27.53948
43.94481
78.84621
97.05978
20.56055
17.26395
16.67146
15.70211
14.72947
13.78412
12.86214
11.99948
11.20682
10.53877
9.967271
9.443256
8.989779
8.616834
8.301442
8.027855
7.790707
7.585996
7.419231
7.283629
7.170582
7.076347
7.002713
6.949401
6.912237
6.887933
6.878554
6.879031
6.894178
6.915614
6.948938
6.997568
7.055969
7.125216
7.205603
7.297375
7.400789
7.516105
7.64465
7.788518
7.9503
8.131737
8.332924
8.556088
8.811936
9.103416
9.43895
9.829651
10.28317
10.83905
11.47249
12.16554
13.06898
14.28672
16.17166
19.1595
24.82309
39.6259
84.46395
98.95515
19.80001
15.87104
15.05152
13.99545
12.95546
11.97104
11.05616
10.25096
9.552626
8.973518
8.489139
8.072022
7.70022
7.368223
7.095292
6.86055
6.660692
6.493473
6.354997
6.241309
6.148061
6.073336
6.015771
5.973932
5.946201
5.931347
5.929314
5.93745
5.954215
5.980897
6.020756
6.070814
6.130956
6.200898
6.280677
6.371365
6.472934
6.585362
6.709249
6.845483
6.995075
7.159508
7.338545
7.534377
7.748608
7.984676
8.251498
8.560558
8.922091
9.329004
9.787084
10.3901
11.21268
12.3623
14.04266
16.82629
22.34231
37.15258
88.34065
100.6959
19.39332
14.7458
13.73564
12.67847
11.65852
10.72053
9.883357
9.159576
8.538079
8.005425
7.552951
7.164579
6.839807
6.55653
6.304157
6.092606
5.914598
5.766057
5.641425
5.53807
5.453982
5.387484
5.337119
5.301583
5.279718
5.27285
5.274411
5.288251
5.313244
5.348951
5.395362
5.452457
5.520499
5.599384
5.687607
5.786144
5.897046
6.019779
6.154606
6.302287
6.463788
6.640374
6.833857
7.046118
7.275807
7.532547
7.824586
8.144317
8.489469
8.888575
9.379215
9.994163
10.78245
11.84595
13.40173
15.94271
20.92262
34.70095
91.42916
102.4298
19.61492
13.89571
12.69329
11.65963
10.69219
9.819398
9.051755
8.388621
7.818869
7.330069
6.911591
6.552712
6.243073
5.982434
5.757945
5.56054
5.392997
5.251835
5.13408
5.037278
4.959525
4.89923
4.855039
4.82579
4.810496
4.808714
4.818454
4.840288
4.8737
4.918396
4.973467
5.038895
5.115558
5.203133
5.301568
5.410279
5.530115
5.661567
5.804899
5.960475
6.128751
6.31034
6.506278
6.717178
6.947871
7.200008
7.467156
7.754874
8.080149
8.458829
8.910754
9.469283
10.19274
11.18694
12.66225
15.10859
19.96019
33.41002
93.58441
104.151
19.8059
13.26664
11.86437
10.85945
9.955782
9.148713
8.441311
7.828932
7.300954
6.845946
6.453895
6.115667
5.82359
5.571293
5.358431
5.176765
5.018722
4.884955
4.773539
4.682718
4.61081
4.556349
4.518053
4.494815
4.487284
4.491019
4.507725
4.536727
4.577529
4.629772
4.693358
4.767752
4.852844
4.948821
5.055807
5.173896
5.303293
5.444265
5.597082
5.762038
5.939464
6.129972
6.333822
6.554045
6.789723
7.038011
7.304607
7.5972
7.925238
8.301418
8.745746
9.291042
9.991753
10.94579
12.3488
14.65558
19.2105
31.98292
95.2424
105.9491
20.14066
12.85326
11.23365
10.23541
9.385127
8.636152
7.981123
7.412122
6.919136
6.492224
6.122407
5.801889
5.524185
5.283994
5.077163
4.902863
4.755672
4.62997
4.525377
4.44066
4.374512
4.325662
4.292964
4.275405
4.272501
4.282289
4.304899
4.339799
4.386557
4.444849
4.515147
4.596866
4.689169
4.792376
4.906715
5.032367
5.169529
5.318422
5.479301
5.65233
5.837607
6.034905
6.244809
6.468158
6.703617
6.953114
7.219597
7.507514
7.824829
8.185616
8.60692
9.122474
9.786389
10.69672
12.04847
14.2922
18.7467
31.21246
96.40183
81.0798
19.62321
12.51064
10.72788
9.730512
8.929215
8.233577
7.625094
7.094096
6.63165
6.229347
5.879583
5.575686
5.311989
5.083806
4.887162
4.719088
4.578385
4.46144
4.364206
4.28578
4.22518
4.181356
4.153291
4.141461
4.142105
4.156175
4.183027
4.222148
4.273141
4.335721
4.410599
4.497334
4.594875
4.703513
4.823496
4.955031
5.098279
5.253323
5.421079
5.601732
5.795224
6.001422
6.220446
6.449978
6.690351
6.943263
7.210873
7.497099
7.808424
8.154718
8.56013
9.059654
9.702221
10.58332
11.89005
14.05314
18.33751
30.3609
97.28794
82.65999
19.91397
12.38719
10.39327
9.357474
8.580713
7.92425
7.354273
6.857138
6.423344
6.044711
5.714195
5.425888
5.174969
4.957421
4.769845
4.609216
4.473395
4.361176
4.270261
4.197675
4.142277
4.103036
4.079056
4.070253
4.074254
4.091338
4.120984
4.162768
4.21637
4.281563
4.359064
4.448648
4.54944
4.661721
4.785776
4.921907
5.070419
5.231618
5.404832
5.590078
5.787591
5.997784
6.220221
6.454283
6.699142
6.954878
7.222545
7.505261
7.809962
8.149322
8.542379
9.01702
9.634817
10.48833
11.76319
13.88593
18.10103
29.89417
97.8631
110.3734
21.34716
12.44469
10.14324
9.049911
8.29027
7.669653
7.135748
6.669572
6.260761
5.902618
5.589534
5.316678
5.079432
4.873925
4.696908
4.545698
4.417804
4.311585
4.225451
4.158027
4.107277
4.072021
4.051311
4.04473
4.050963
4.069915
4.101163
4.144378
4.199331
4.265901
4.344722
4.435738
4.538241
4.652401
4.778458
4.916701
5.067437
5.230975
5.407597
5.597455
5.800534
6.016652
6.245115
6.48504
6.735797
6.996084
7.26523
7.545125
7.841879
8.168319
8.546201
9.009517
9.6086
10.44199
11.68856
13.76457
17.88275
29.39861
98.28691
85.75325
21.52794
12.51307
10.00638
8.840566
8.075657
7.474178
6.965601
6.524623
6.139452
5.802168
5.506893
5.248969
5.024827
4.831604
4.666967
4.526487
4.406646
4.305768
4.223417
4.158389
4.109384
4.076
4.057224
4.052178
4.059816
4.079784
4.111739
4.155451
4.210775
4.277655
4.356488
4.44734
4.549957
4.664547
4.791393
4.93084
5.083249
5.248988
5.428389
5.621673
5.828877
6.0496
6.283505
6.529668
6.786318
7.051257
7.323468
7.602267
7.891558
8.205793
8.56872
9.015315
9.60053
10.41432
11.64088
13.69306
17.77061
29.14339
98.57104
86.60224
22.10946
12.65794
9.922427
8.684259
7.909266
7.323727
6.839388
6.423112
6.060085
5.741528
5.462541
5.219873
5.011889
4.832064
4.673625
4.536622
4.419247
4.320662
4.24075
4.179174
4.134861
4.105249
4.089201
4.085993
4.094884
4.115343
4.147188
4.190441
4.245009
4.310934
4.38855
4.478184
4.579966
4.694094
4.820829
4.960511
5.113515
5.280232
5.461039
5.656262
5.866026
6.090014
6.328062
6.580205
6.84458
7.117302
7.393812
7.670727
7.951842
8.252886
8.600672
9.032172
9.601556
10.40169
11.61114
13.6374
17.66442
28.88988
98.82476
87.56874
22.79029
12.87115
9.922973
8.593813
7.794555
7.213877
6.745393
6.347921
6.003293
5.702652
5.440737
5.215006
5.018498
4.847222
4.698698
4.569659
4.459276
4.366718
4.290932
4.231171
4.186574
4.156351
4.139639
4.135709
4.143914
4.163972
4.195379
4.237825
4.29112
4.355421
4.431327
4.519511
4.620276
4.733765
4.860228
4.999939
5.153225
5.320401
5.501727
5.69814
5.910678
6.139328
6.383575
6.642297
6.912479
7.188617
7.465029
7.7392
8.014515
8.303936
8.636666
9.054391
9.611564
10.39987
11.59736
13.61024
17.61673
28.77143
98.95751
88.31355
23.44501
13.10385
9.950762
8.53684
7.710019
7.128887
6.671998
6.290702
5.963271
5.679077
5.432593
5.219586
5.035311
4.874362
4.734536
4.613557
4.509907
4.422311
4.349874
4.292128
4.248525
4.218411
4.201142
4.196168
4.202831
4.221206
4.250854
4.291584
4.34328
4.405943
4.479665
4.565499
4.664795
4.777694
4.904041
5.044072
5.198199
5.366934
5.550836
5.750471
5.966219
6.198053
6.445287
6.706177
6.97748
7.254428
7.530862
7.801835
8.069725
8.349364
8.670578
9.07586
9.622025
10.39957
11.58577
13.58456
17.56832
28.67208
99.05393
88.85757
24.04644
13.36301
10.02556
8.527734
7.66325
7.072377
6.619906
6.249307
5.934809
5.663829
5.430005
5.229187
5.056597
4.906513
4.775784
4.662217
4.564342
4.481281
4.412467
4.357118
4.314734
4.284781
4.266895
4.260773
4.265932
4.282575
4.31032
4.349033
4.39864
4.459134
4.530547
4.614222
4.712003
4.824195
4.950478
5.090915
5.245836
5.415728
5.601162
5.802684
6.020617
6.254803
6.504324
6.767079
7.039278
7.315339
7.58901
7.856293
8.119552
8.392492
8.703402
9.096883
9.633269
10.40268
11.58088
13.56818
17.53566
28.60303
99.08226
89.25383
24.57919
13.62403
10.1215
8.535521
7.635609
7.0339
6.582855
6.219859
5.915616
5.655654
5.432674
5.242967
5.080262
4.939222
4.816617
4.710249
4.618538
4.540279
4.474617
4.421157
4.379683
4.349993
4.331708
4.324621
4.328389
4.343281
4.36905
4.405642
4.45303
4.511202
4.58014
4.661362
4.757154
4.868147
4.994013
5.134618
5.290162
5.461091
5.647947
5.851205
6.071086
6.307307
6.558755
6.82308
7.096253
7.372455
7.644928
7.908825
8.166321
8.431732
8.733869
9.118619
9.647671
10.41029
11.58096
13.56178
17.51147
28.53987
99.03961
89.53877
25.09857
13.89717
10.24096
8.574962
7.635818
7.014945
6.55947
6.199851
5.902869
5.651911
5.438495
5.257776
5.103785
4.970916
4.855677
4.755616
4.668991
4.594634
4.531862
4.480348
4.43979
4.410049
4.391058
4.382774
4.385046
4.398117
4.421883
4.456364
4.501606
4.557728
4.625015
4.704127
4.797348
4.906889
5.032539
5.173548
5.329937
5.50211
5.690579
5.895755
6.117732
6.356032
6.609267
6.87474
7.148052
7.423109
7.69312
7.953433
8.206386
8.466312
8.761848
9.139175
9.661429
10.41886
11.58575
13.56093
17.50734
28.5232
98.94874
89.71196
25.55518
14.16455
10.37175
8.628075
7.644829
7.006845
6.54523
6.186315
5.89407
5.649879
5.443809
5.270291
5.123359
4.997157
4.887953
4.793176
4.710999
4.640203
4.58004
4.530091
4.490241
4.46049
4.440947
4.431688
4.432736
4.444243
4.466393
4.499223
4.542849
4.597443
4.663324
4.741059
4.832969
4.941626
5.067159
5.208852
5.366564
5.540523
5.731096
5.938555
6.162828
6.403214
6.658055
6.924354
7.197422
7.470932
7.737935
7.993758
8.24099
8.494572
8.783893
9.155408
9.672556
10.42603
11.58929
13.55995
17.49672
28.48092
98.83305
89.87792
26.00193
14.43234
10.51103
8.693174
7.668905
7.008251
6.537411
6.176626
5.886737
5.647115
5.446351
5.278302
5.1367
5.015898
4.911562
4.821023
4.742403
4.674444
4.616403
4.567923
4.528923
4.499476
4.479757
4.469968
4.470303
4.480614
4.501802
4.533702
4.576503
4.630425
4.695767
4.772985
4.864399
4.972877
5.098891
5.241792
5.401297
5.577448
5.770442
5.980387
6.207017
6.449403
6.705611
6.972351
7.244679
7.516121
7.779761
8.031152
8.273263
8.521503
8.805722
9.172342
9.685119
10.43562
11.59687
13.56568
17.49638
28.46499
98.67875
90.00916
26.40634
14.69797
10.65679
8.76704
7.701139
7.017034
6.53427
6.169077
5.87928
5.642256
5.445162
5.279634
5.141473
5.02483
4.924636
4.837583
4.761874
4.696308
4.640167
4.593122
4.555107
4.526251
4.506791
4.497022
4.497224
4.507258
4.52823
4.560002
4.602827
4.656959
4.722678
4.80036
4.892217
5.001253
5.128296
5.272835
5.43448
5.613095
5.808689
6.021171
6.250069
6.49421
6.751396
7.018072
7.289075
7.557823
7.817468
8.063848
8.300444
8.543309
8.822821
9.185462
9.695145
10.4438
11.60399
13.5719
17.50057
28.45055
98.53953
90.28403
26.7689
14.94943
10.80246
8.845032
7.738014
7.029588
6.533388
6.161904
5.87033
5.634179
5.439247
5.276715
5.139802
5.024092
4.925308
4.840722
4.767601
4.704465
4.650474
4.60522
4.568602
4.540824
4.522207
4.513103
4.513819
4.524578
4.546099
4.57854
4.622227
4.677475
4.744575
4.823739
4.916657
5.026594
5.155256
5.302063
5.466238
5.647518
5.845788
6.060793
6.291842
6.537517
6.795361
7.061576
7.330828
7.596493
7.851876
8.093198
8.324511
8.562489
8.837956
9.197409
9.704822
10.45235
11.61214
13.57954
17.5054
28.444
98.38614
90.45363
27.18369
15.212
10.95111
8.925775
7.777596
7.044181
6.533337
6.154009
5.858971
5.621987
5.427558
5.265892
5.130293
5.016003
4.919281
4.836292
4.764666
4.702673
4.649526
4.60504
4.569648
4.543377
4.526315
4.518708
4.520775
4.533073
4.555958
4.589842
4.635109
4.692129
4.761291
4.843098
4.938449
5.049968
5.180299
5.329432
5.496358
5.680538
5.881627
6.099153
6.33221
6.579147
6.83727
7.102576
7.3696
7.631727
7.882474
8.118506
8.344513
8.577829
8.849711
9.206689
9.712728
10.46007
11.62059
13.5893
17.51573
28.44514
98.27363
90.88237
27.51683
15.44766
11.09594
9.007327
7.818491
7.059464
6.532908
6.144404
5.844443
5.605176
5.409954
5.24821
5.112807
4.998647
4.901845
4.819324
4.748904
4.689026
4.638559
4.596856
4.563485
4.53874
4.52304
4.516777
4.520191
4.534094
4.55891
4.594931
4.642496
4.702016
4.773895
4.858632
4.956927
5.07113
5.203959
5.355688
5.525417
5.712489
5.916337
6.136251
6.371085
6.618957
6.876962
7.140928
7.405313
7.663569
7.909477
8.140199
8.361088
8.590123
8.858939
9.214071
9.719393
10.46706
11.62869
13.59881
17.52553
28.44683
98.16005
90.7705
27.86546
15.7141
11.248
9.090929
7.860079
7.074579
6.531305
6.132467
5.826355
5.583612
5.386538
5.223857
5.087993
4.973606
4.876774
4.794558
4.724778
4.665853
4.616744
4.576856
4.545803
4.523561
4.510402
4.506736
4.512755
4.529344
4.556607
4.595111
4.645502
4.708082
4.783254
4.871437
4.973144
5.090511
5.226251
5.380845
5.553493
5.743432
5.949902
6.171964
6.408248
6.656659
6.91411
7.176301
7.43766
7.691749
7.932658
8.158077
8.374038
8.599151
8.865395
9.21929
9.724605
10.47336
11.63708
13.6102
17.54024
28.45953
98.06902
114.7592
28.85302
16.01686
11.4048
9.175158
7.901321
7.088688
6.527939
6.11785
5.804601
5.557427
5.357664
5.193384
5.056598
4.941736
4.844785
4.762805
4.693645
4.635765
4.588106
4.549998
4.521105
4.501436
4.491102
4.490345
4.499233
4.518836
4.549341
4.591266
4.644974
4.711029
4.789861
4.88186
4.987425
5.108406
5.247369
5.404975
5.580543
5.773231
5.982101
6.20601
6.443378
6.691923
6.948404
7.208436
7.466456
7.716182
7.952045
8.172282
8.383603
8.605195
8.86941
9.22259
9.728379
10.47858
11.6446
13.62063
17.55347
28.46995
97.97536
115.6848
29.43014
16.2861
11.55571
9.258905
7.942184
7.101618
6.522476
6.100255
5.779049
5.526709
5.323639
5.157293
5.019287
4.903816
4.80675
4.725104
4.656719
4.600055
4.554059
4.518053
4.491658
4.474691
4.467202
4.469355
4.481688
4.504627
4.538602
4.584076
4.641529
4.711438
4.79428
4.890423
5.000161
5.124886
5.267071
5.427792
5.60635
5.801666
6.012669
6.238071
6.476128
6.724395
6.979512
7.237042
7.491476
7.736717
7.967564
8.182817
8.389879
8.608152
8.870221
9.223191
9.730549
10.48287
11.65186
13.63204
17.57059
28.49259
97.92182
115.8217
29.74973
16.52455
11.6975
9.33987
7.981359
7.112765
6.514738
6.079771
5.749986
5.491924
5.28511
5.116404
4.97704
4.860974
4.763935
4.682857
4.615537
4.560404
4.516371
4.482713
4.458998
4.445013
4.440763
4.446244
4.462034
4.488422
4.525951
4.575127
4.636403
4.710235
4.797038
4.897278
5.011462
5.140352
5.285762
5.449327
5.630629
5.828346
6.041214
6.267778
6.506142
6.753737
7.007121
7.261851
7.512512
7.753224
7.979162
8.189674
8.392454
8.608442
8.869989
9.223093
9.731167
10.48585
11.65783
13.64188
17.58554
28.51241
97.88179
115.7863
30.11693
16.76715
11.84086
9.422416
8.020511
7.12258
6.504781
6.056429
5.717584
5.453444
5.242646
5.071468
4.930754
4.814208
4.717394
4.637142
4.571173
4.51786
4.476066
4.445015
4.424248
4.413527
4.412788
4.421882
4.441405
4.471467
4.512546
4.565277
4.630235
4.707865
4.798592
4.902848
5.021118
5.153999
5.302959
5.469475
5.653241
5.85298
6.067317
6.294641
6.532911
6.779456
7.030801
7.282544
7.529385
7.765667
7.986915
8.192963
8.392672
8.606598
8.867278
9.221119
9.731043
10.4878
11.66316
13.65201
17.60292
28.54035
97.85535
115.9852
30.52278
17.0197
11.97598
9.496091
8.055207
7.129412
6.492096
6.030234
5.682112
5.411711
5.196828
5.023163
4.88117
4.764288
4.667901
4.588717
4.524374
4.473178
4.433938
4.405832
4.388311
4.381062
4.38389
4.396935
4.420314
4.45426
4.499102
4.555333
4.623682
4.704821
4.799197
4.907228
5.029341
5.165991
5.318364
5.487702
5.673714
5.87516
6.090596
6.318293
6.556106
6.801291
7.050351
7.298948
7.541953
7.773991
7.990988
8.193179
8.389929
8.602074
8.862367
9.217112
9.729005
10.4881
11.66699
13.66037
17.61786
28.56565
97.83307
116.2883
30.97326
17.29433
12.11498
9.567518
8.087471
7.133601
6.477025
6.001653
5.644231
5.367556
5.148621
4.972568
4.829459
4.712458
4.616759
4.538929
4.476501
4.427705
4.391273
4.366334
4.352252
4.348669
4.355287
4.372277
4.399626
4.437519
4.48623
4.546116
4.617751
4.701971
4.799505
4.91082
5.036328
5.176421
5.331991
5.503936
5.691912
5.894727
6.110893
6.338583
6.575552
6.81903
7.065611
7.311095
7.550482
7.778571
7.991459
8.190347
8.384616
8.595538
8.855871
9.211884
9.726094
10.48819
11.67033
13.66848
17.63369
28.5964
97.85131
116.5038
31.38307
17.55728
12.24279
9.628282
8.112388
7.133487
6.45858
5.970365
5.60405
5.321422
5.098721
4.920554
4.776607
4.659774
4.565053
4.48887
4.428648
4.38252
4.349139
4.327523
4.317014
4.317166
4.327669
4.348602
4.3799
4.421694
4.474206
4.537748
4.612713
4.699797
4.799976
4.914019
5.042403
5.185491
5.343912
5.518195
5.707897
5.911826
6.128441
6.355878
6.591915
6.833785
7.077966
7.320209
7.555789
7.779701
7.989194
8.185217
8.377657
8.587889
8.848516
9.205777
9.722117
10.48687
11.67226
13.67481
17.647
28.62415
97.90822
116.959
31.84771
17.84789
12.38178
9.692811
8.137827
7.132126
6.438717
5.937731
5.562738
5.274399
5.048195
4.868199
4.72371
4.607341
4.513878
4.439583
4.381776
4.338502
4.308336
4.290183
4.283308
4.287192
4.301607
4.326397
4.361536
4.407104
4.463275
4.530311
4.608561
4.698463
4.800947
4.91718
5.047868
5.193434
5.354282
5.530568
5.721702
5.926494
6.143388
6.370466
6.605346
6.845185
7.086619
7.325719
7.557717
7.778541
7.984849
8.178265
8.368993
8.578595
8.839684
9.198452
9.717064
10.48444
11.67274
13.68045
17.66023
28.65296
97.97015
117.0504
32.20388
18.10926
12.50832
9.748004
8.155908
7.125862
6.415678
5.902979
5.520011
5.226499
4.997241
4.815806
4.671125
4.555538
4.463631
4.391516
4.336374
4.296112
4.269184
4.254481
4.251225
4.258874
4.277106
4.305701
4.344587
4.393798
4.453462
4.523798
4.605115
4.697815
4.802524
4.920457
5.052849
5.200296
5.363057
5.540952
5.733212
5.938542
6.155259
6.381377
6.61462
6.852321
7.091146
7.32729
7.556576
7.774346
7.977779
8.168764
8.357953
8.567222
8.829083
9.189603
9.71074
10.48101
11.67293
13.68431
17.6703
28.67576
98.00902
117.7377
32.64122
18.39833
12.64394
9.807648
8.176983
7.121054
6.393555
5.869322
5.47872
5.180364
4.948323
4.765669
4.620977
4.506325
4.416099
4.346255
4.293785
4.256485
4.232726
4.221387
4.221641
4.232906
4.254772
4.286984
4.329414
4.382047
4.444966
4.518346
4.602456
4.69766
4.80443
4.923877
5.057476
5.206168
5.370272
5.549336
5.742296
5.947699
6.16383
6.388752
6.62028
6.855653
7.092019
7.325558
7.551944
7.766976
7.968118
8.15754
8.346016
8.555346
8.81796
9.180077
9.703649
10.47665
11.67197
13.68756
17.67989
28.69707
98.0063
118.5692
33.12866
18.66962
12.7723
9.85945
8.190742
7.111172
6.36776
5.833011
5.435704
5.133364
4.899319
4.716122
4.571981
4.458695
4.370436
4.30299
4.253261
4.218992
4.198525
4.19068
4.194486
4.209308
4.234692
4.270338
4.31608
4.371864
4.437739
4.513848
4.600426
4.697805
4.806426
4.927178
5.061555
5.210943
5.375823
5.555547
5.748779
5.953941
6.169275
6.39286
6.622465
6.855815
7.089771
7.320751
7.544629
7.757337
7.956506
8.144544
8.33248
8.542236
8.806086
9.170098
9.695975
10.47129
11.66911
13.68854
17.68723
28.71456
98.00946
97.63498
32.92903
18.88616
12.89723
9.910436
8.203439
7.101609
6.343192
5.798472
5.394825
5.088768
4.852921
4.669334
4.525839
4.413966
4.327691
4.26266
4.215703
4.184482
4.167258
4.162748
4.169917
4.188086
4.216748
4.25557
4.304352
4.36301
4.431551
4.51008
4.598801
4.698027
4.808183
4.929933
5.064759
5.21447
5.379724
5.559744
5.752956
5.957635
6.171936
6.39401
6.621883
6.853105
7.084799
7.313483
7.535152
7.745881
7.943471
8.13051
8.318175
8.528395
8.793323
9.159109
9.687417
10.46543
11.66643
13.68928
17.69592
28.73989
98.02338
97.54959
33.15083
19.16039
13.03986
9.965623
8.216769
7.093329
6.320794
5.766922
5.357552
5.048209
4.810832
4.626993
4.48419
4.373721
4.289398
4.22674
4.182466
4.154133
4.13991
4.138431
4.148651
4.169837
4.201453
4.243116
4.29458
4.35572
4.426534
4.507112
4.597633
4.698383
4.809758
4.932272
5.067394
5.217213
5.382543
5.562513
5.755367
5.95924
6.172394
6.392969
6.618981
6.848153
7.077725
7.30433
7.524068
7.733123
7.92943
8.115746
8.303396
8.514335
8.780594
9.14812
9.678278
10.45816
11.66146
13.68822
17.69943
28.76085
98.06558
118.8481
34.06913
19.46745
13.18513
10.02036
8.229553
7.085435
6.299803
5.737617
5.323155
5.01097
4.772363
4.58847
4.446485
4.337479
4.255091
4.194711
4.15295
4.127285
4.115945
4.117261
4.130296
4.154248
4.188526
4.232714
4.286544
4.349864
4.42264
4.504942
4.59694
4.698898
4.811189
4.934314
5.069661
5.21939
5.384518
5.564128
5.756317
5.959199
6.170944
6.389793
6.61388
6.841035
7.068603
7.29331
7.511346
7.718982
7.914258
8.100066
8.287868
8.499661
8.767432
9.136887
9.669081
10.45123
11.65718
13.6873
17.70382
28.77267
98.10509
120.2211
34.53898
19.73494
13.32552
10.07453
8.242987
7.079214
6.281213
5.711294
5.292188
4.97749
4.737878
4.554067
4.412958
4.30541
4.224906
4.166716
4.127354
4.104221
4.095475
4.0994
4.114995
4.141413
4.178032
4.224418
4.280282
4.345463
4.419898
4.503626
4.596793
4.699643
4.812551
4.936016
5.071393
5.220878
5.385575
5.564534
5.755779
5.957364
6.167516
6.384556
6.606721
6.831947
7.05767
7.280698
7.497286
7.70377
7.898271
8.083797
8.271917
8.484629
8.753833
9.124989
9.658856
10.44276
11.65084
13.68417
17.70739
28.79823
98.19172
120.4597
34.7904
19.96666
13.46253
10.13
8.258409
7.075479
6.265889
5.688794
5.265444
4.9485
4.70804
4.52438
4.384141
4.277983
4.199241
4.143069
4.105892
4.085037
4.07858
4.084801
4.102634
4.131206
4.169864
4.218144
4.275733
4.342437
4.418177
4.502984
4.596989
4.700444
4.813705
4.937271
5.072499
5.221596
5.385671
5.563734
5.753767
5.953845
6.162264
6.377441
6.597715
6.821114
7.045154
7.266706
7.482075
7.687642
7.881598
8.067048
8.255657
8.469414
8.740131
9.113054
9.648703
10.43452
11.64482
13.68094
17.7082
28.80696
98.26343
120.7383
35.03915
20.19525
13.59825
10.18591
8.276171
7.075714
6.25483
5.67087
5.243494
4.92443
4.683165
4.499626
4.360165
4.255252
4.178083
4.123706
4.088462
4.069609
4.065146
4.073345
4.093093
4.123487
4.163855
4.213699
4.272677
4.340579
4.417316
4.502906
4.597467
4.701248
4.814612
4.938067
5.072999
5.221581
5.384858
5.561807
5.750413
5.948812
6.155393
6.36868
6.587109
6.808791
7.031306
7.251571
7.465924
7.670781
7.864381
8.049911
8.239103
8.453913
8.726059
9.100586
9.637783
10.42523
11.6375
13.6765
17.70876
28.82635
98.31967
121.5889
35.39761
20.42152
13.73707
10.24587
8.297744
7.079444
6.248064
5.65773
5.226598
4.905522
4.663445
4.479934
4.341094
4.237222
4.161381
4.108524
4.074915
4.057752
4.054966
4.064838
4.08619
4.118083
4.159823
4.210895
4.27094
4.339731
4.417163
4.50323
4.598083
4.701951
4.815197
4.938406
5.072945
5.220868
5.383178
5.558831
5.745839
5.942429
6.147107
6.358507
6.575159
6.795244
7.01639
7.235547
7.449076
7.653412
7.846835
8.032595
8.222472
8.438382
8.711956
9.088067
9.626804
10.41587
11.63004
13.67169
17.70874
28.83144
98.3398
102.8695
35.07611
20.58886
13.86763
10.30583
8.322654
7.088672
6.247486
5.650455
5.215367
4.892126
4.649072
4.465394
4.32695
4.223864
4.149078
4.09745
4.065173
4.049411
4.047974
4.059186
4.081812
4.114892
4.157698
4.209695
4.270498
4.33985
4.417673
4.503983
4.598882
4.702611
4.815541
4.938357
5.072407
5.219564
5.380768
5.554967
5.740234
5.934917
6.137652
6.347188
6.562138
6.78074
7.000658
7.218861
7.431723
7.635689
7.829065
8.015153
8.205761
8.422751
8.697678
9.075253
9.615384
10.4059
11.62178
13.66593
17.70792
28.84406
98.37224
103.1653
35.30296
20.80108
14.00951
10.37607
8.351277
7.099622
6.250026
5.648337
5.209566
4.884157
4.639994
4.455958
4.317674
4.215106
4.14108
4.090369
4.059096
4.044542
4.044139
4.056379
4.079974
4.113919
4.157445
4.209977
4.271205
4.34089
4.418878
4.505173
4.599891
4.703278
4.81571
4.937985
5.071438
5.217736
5.377727
5.550343
5.73375
5.926448
6.127222
6.334931
6.54826
6.76549
6.984307
7.201692
7.414019
7.617742
7.811183
7.997678
8.189057
8.407126
8.683366
9.062355
9.603835
10.39573
11.61319
13.65932
17.70428
28.84694
98.40981
104.0375
35.65758
21.03184
14.15908
10.45447
8.385082
7.114968
6.258091
5.650982
5.209774
4.882443
4.636912
4.452123
4.313611
4.211206
4.137614
4.087509
4.05694
4.043192
4.043481
4.056332
4.080382
4.114758
4.158691
4.211622
4.273085
4.342831
4.420735
4.506796
4.601135
4.703998
4.815768
4.937374
5.070141
5.215499
5.374159
5.545048
5.72648
5.917136
6.115952
6.321885
6.533673
6.749629
6.967453
7.184129
7.39603
7.599608
7.793196
7.980156
8.172323
8.391449
8.668947
9.04927
9.592008
10.3852
11.6042
13.65259
17.70184
28.85578
98.46987
104.935
35.96556
21.25533
14.31
10.53817
8.423791
7.135043
6.271031
5.659069
5.213916
4.884448
4.637906
4.452632
4.313949
4.2115
4.137948
4.087979
4.057659
4.044231
4.044889
4.058166
4.082748
4.117494
4.161645
4.214631
4.276039
4.345608
4.423209
4.50884
4.602624
4.704811
4.815828
4.936587
5.068433
5.2128
5.370113
5.539171
5.718518
5.907084
6.103959
6.308176
6.518508
6.733285
6.950214
7.166279
7.377851
7.581373
7.775183
7.962659
8.155631
8.375791
8.654491
9.036072
9.579981
10.37435
11.59468
13.64482
17.69703
28.85904
98.53478
105.7002
36.15519
21.45227
14.46086
10.62873
8.469036
7.160956
6.289598
5.672802
5.224429
4.892583
4.644303
4.457816
4.318294
4.215457
4.141855
4.092009
4.06184
4.048578
4.049391
4.062771
4.08735
4.122065
4.166114
4.218904
4.280016
4.34918
4.426265
4.511269
4.604316
4.70566
4.815832
4.935704
5.066673
5.210017
5.36567
5.532627
5.709836
5.896373
6.091396
6.293987
6.50295
6.716633
6.932752
7.148291
7.359611
7.563145
7.757229
7.945247
8.139019
8.360173
8.640014
9.022786
9.567813
10.36335
11.58506
13.63716
17.69283
28.86294
98.60112
106.5724
36.35409
21.64352
14.61377
10.72437
8.519257
7.192784
6.314376
5.692438
5.240397
4.905889
4.655679
4.467828
4.32738
4.223866
4.149763
4.09956
4.069154
4.055714
4.05636
4.069555
4.093903
4.128333
4.172029
4.224386
4.284978
4.353531
4.429913
4.514124
4.606292
4.706678
4.815947
4.93494
5.064823
5.206777
5.360678
5.525623
5.700744
5.885278
6.078486
6.279504
6.487166
6.699828
6.915208
7.130286
7.341411
7.545005
7.739395
7.927964
8.122516
8.34462
8.625532
9.009413
9.555469
10.35205
11.57494
13.62862
17.687
28.86399
98.64524
107.2809
36.535
21.82826
14.77061
10.82843
8.579936
7.229889
6.342446
5.716511
5.26116
4.924002
4.671715
4.482255
4.340564
4.236075
4.161195
4.110359
4.079421
4.065511
4.065705
4.078443
4.102307
4.136208
4.179318
4.231024
4.290892
4.358645
4.434151
4.517413
4.608565
4.707971
4.816324
4.934284
5.062903
5.203301
5.355348
5.518251
5.691309
5.873894
6.065353
6.264867
6.471291
6.682992
6.897688
7.112351
7.323319
7.526997
7.721701
7.910809
8.106107
8.329107
8.61103
8.995965
9.543019
10.34064
11.56476
13.62015
17.6814
28.8642
98.68126
108.2475
36.76503
22.02477
14.93447
10.9419
8.650317
7.273491
6.375285
5.745179
5.286484
4.946601
4.692089
4.500811
4.35763
4.251905
4.175984
4.124253
4.09252
4.077798
4.077299
4.089334
4.112477
4.145624
4.187935
4.238787
4.297744
4.364527
4.439006
4.521186
4.611216
4.709589
4.816948
4.93372
5.060894
5.199582
5.349709
5.510588
5.681639
5.862338
6.052108
6.250172
6.455408
6.666191
6.880238
7.094514
7.305342
7.509112
7.704126
7.893752
8.08976
8.313608
8.596483
8.982406
9.530376
10.32892
11.5541
13.6109
17.67451
28.86324
98.71622
108.957
36.94823
22.20137
15.09727
11.06171
8.728303
7.323104
6.413257
5.778634
5.316324
4.973498
4.716549
4.523233
4.378328
4.271127
4.19392
4.141045
4.108274
4.092432
4.091012
4.102113
4.124311
4.156489
4.197796
4.247604
4.305472
4.371123
4.444427
4.525395
4.614304
4.711626
4.81779
4.933173
5.058753
5.195642
5.343818
5.502693
5.671784
5.850656
6.038793
6.235461
6.439555
6.649457
6.862884
7.076795
7.287496
7.491361
7.686677
7.876803
8.073486
8.298132
8.581901
8.968751
9.517591
10.31705
11.54332
13.60169
17.66798
28.86255
98.75881
109.4544
37.08515
22.39494
15.26993
11.19155
8.815579
7.380587
6.456583
5.816245
5.350309
5.004404
4.744833
4.549266
4.402412
4.293499
4.214764
4.160497
4.126426
4.109316
4.106725
4.116659
4.137691
4.168692
4.208801
4.257386
4.314003
4.378374
4.450375
4.530107
4.617858
4.713947
4.818728
4.932575
5.056464
5.191507
5.337734
5.494641
5.661832
5.838941
6.025509
6.220835
6.423832
6.63289
6.845723
7.059283
7.269861
7.473813
7.669411
7.860001
8.05731
8.282693
8.567284
8.954987
9.504624
10.30491
11.53216
13.59191
17.66071
28.86179
98.79097
125.8498
37.56932
22.59328
15.44339
11.32681
8.910895
7.446546
6.505086
5.857272
5.387803
5.038806
4.776521
4.57856
4.429576
4.318749
4.23827
4.182387
4.146795
4.128226
4.124249
4.132801
4.152465
4.182097
4.22083
4.268027
4.323244
4.386215
4.456885
4.535357
4.621797