/*--------------------------------*- C++ -*----------------------------------*\
| =========                 |                                                 |
| \\      /  F ield         | OpenFOAM: The Open Source CFD Toolbox           |
|  \\    /   O peration     | Version:  2312                                  |
|   \\  /    A nd           | Website:  www.openfoam.com                      |
|    \\/     M anipulation  |                                                 |
\*---------------------------------------------------------------------------*/
FoamFile
{
    version     2.0;
    format      ascii;
    arch        "LSB;label=32;scalar=64";
    class       surfaceScalarField;
    location    "4950";
    object      phi;
}
// * * * * * * * * * * * * * * * * * * * * * * * * * * * * * * * * * * * * * //

dimensions      [1 0 -1 0 0 0 0];

oriented        oriented;

internalField   nonuniform List<scalar> 
23740
(
-0.0001182183
0.0001178854
-0.0002273538
0.0001091359
-0.0003366155
0.0001092625
-0.0004435068
0.0001068923
-0.0005505874
0.000107082
-0.0006664635
0.0001158776
-0.0007853868
0.0001189249
-0.0008902098
0.0001048248
-0.0009758889
8.568094e-05
-0.001064197
8.83103e-05
-0.001165745
0.0001015496
-0.00125073
8.498622e-05
-0.001312323
6.159543e-05
-0.001377256
6.493382e-05
-0.001458152
8.089802e-05
-0.001526996
6.884495e-05
-0.001566456
3.946152e-05
-0.00160484
3.838514e-05
-0.001665463
6.062346e-05
-0.001722591
5.712897e-05
-0.001749367
2.67773e-05
-0.001768184
1.881776e-05
-0.001807634
3.945061e-05
-0.001850683
4.304982e-05
-0.00187021
1.952869e-05
-0.001878428
8.218539e-06
-0.001898125
1.969777e-05
-0.001922016
2.389218e-05
-0.001933859
1.184335e-05
-0.001937179
3.32042e-06
-0.001939051
1.873031e-06
-0.001940719
1.669368e-06
-0.001943244
2.525218e-06
-0.001943529
2.855068e-07
-0.00193501
-8.517655e-06
-0.001913495
-2.151456e-05
-0.001884382
-2.91131e-05
-0.001868396
-1.598536e-05
-0.001867249
-1.14667e-06
-0.001857898
-9.351085e-06
-0.00181432
-4.357777e-05
-0.00175247
-6.184987e-05
-0.001717617
-3.485289e-05
-0.001714015
-3.602439e-06
-0.001693286
-2.072906e-05
-0.001616559
-7.672745e-05
-0.001521234
-9.53246e-05
-0.001471845
-4.93895e-05
-0.001451914
-1.993135e-05
-0.001383755
-6.815995e-05
-0.001263567
-0.0001201892
-0.00116859
-9.497751e-05
-0.001098116
-7.047421e-05
-0.0009957885
-0.0001023285
-0.0008608658
-0.0001349235
-0.0007193167
-0.0001415499
-0.0005757372
-0.0001435802
-0.0003975207
-0.0001782177
-0.0001966728
-0.0002008504
-0.0001966733
-0.000110542
0.0002284268
-0.0002201277
0.0002187214
-0.0003294649
0.0002186
-0.000439012
0.00021644
-0.0005415084
0.0002095794
-0.0006296654
0.000204036
-0.0007089121
0.0001981734
-0.0007921669
0.0001880816
-0.0008801504
0.0001736665
-0.0009557142
0.0001638762
-0.001012129
0.000157966
-0.00107398
0.0001468399
-0.001146223
0.0001338404
-0.001206495
0.0001252079
-0.001244603
0.0001190077
-0.001285139
0.0001093821
-0.001343011
9.733591e-05
-0.00139395
8.932553e-05
-0.001417813
8.448714e-05
-0.001438108
7.742594e-05
-0.001478613
6.728312e-05
-0.00151961
5.981605e-05
-0.001535732
5.557362e-05
-0.001542902
5.022151e-05
-0.001565284
4.191149e-05
-0.001591827
3.476218e-05
-0.001602357
3.022928e-05
-0.001604154
2.569042e-05
-0.001611453
1.914331e-05
-0.001620582
1.245078e-05
-0.001625165
6.457122e-06
-0.001626215
2.719452e-06
-0.001620727
-2.961207e-06
-0.001611137
-9.304264e-06
-0.001603003
-1.665093e-05
-0.001601129
-2.338776e-05
-0.001601247
-2.89944e-05
-0.001583437
-3.379539e-05
-0.001545338
-3.924533e-05
-0.001508146
-4.654271e-05
-0.001495899
-5.582478e-05
-0.001493419
-6.432934e-05
-0.001457501
-7.077077e-05
-0.001384692
-7.64118e-05
-0.001320476
-8.494567e-05
-0.001301381
-9.582302e-05
-0.001290199
-0.0001065066
-0.001225122
-0.0001144673
-0.001122079
-0.0001229757
-0.001054405
-0.0001358349
-0.001026122
-0.0001484723
-0.0009629885
-0.0001581125
-0.0008606215
-0.0001728422
-0.0007752495
-0.0001877016
-0.0006954811
-0.0002146929
-0.0005913331
-0.000245699
-0.0004655146
-0.0002694001
-0.0003282072
-0.0003155266
-0.000176248
-0.0003528117
-0.0003729216
-9.597725e-05
0.000324404
-0.0001882329
0.0003109772
-0.0002762461
0.0003066137
-0.0003607489
0.0003009435
-0.0004427076
0.0002915393
-0.000519072
0.0002804018
-0.0005883195
0.0002674225
-0.0006537059
0.0002534697
-0.0007213363
0.0002412987
-0.0007879357
0.0002304774
-0.0008463299
0.0002163622
-0.0009007912
0.0002013031
-0.0009513462
0.0001843973
-0.0009978133
0.0001716768
-0.001038895
0.0001600911
-0.001077769
0.0001482571
-0.001116758
0.0001363271
-0.001152919
0.0001254875
-0.001183877
0.0001154464
-0.001211814
0.0001053645
-0.001239659
9.512829e-05
-0.001265485
8.564394e-05
-0.001286885
7.697433e-05
-0.001304927
6.82647e-05
-0.001322213
5.919815e-05
-0.001337878
5.042847e-05
-0.001349898
4.225009e-05
-0.001358378
3.417194e-05
-0.001365038
2.580451e-05
-0.001370019
1.743236e-05
-0.001373654
1.00926e-05
-0.00137308
2.146791e-06
-0.001369003
-7.037637e-06
-0.001362671
-1.563534e-05
-0.001354935
-2.43871e-05
-0.001345049
-3.32733e-05
-0.001331856
-4.218656e-05
-0.001314686
-5.096456e-05
-0.001293958
-5.997388e-05
-0.001270835
-6.966541e-05
-0.001246423
-8.023632e-05
-0.001219576
-9.117641e-05
-0.001188406
-0.0001019406
-0.001151853
-0.0001129647
-0.001112068
-0.0001247307
-0.001070288
-0.0001376038
-0.001025529
-0.0001512664
-0.0009750439
-0.0001649528
-0.0009187265
-0.0001792939
-0.0008608697
-0.0001936924
-0.0008038212
-0.0002055217
-0.0007380491
-0.0002238854
-0.0006640501
-0.0002468421
-0.0005819416
-0.0002698109
-0.0004936331
-0.0003030025
-0.0004091275
-0.0003302057
-0.0003144011
-0.0003641278
-0.000223218
-0.0004067112
-0.000116958
-0.0004590735
-0.0004898798
-7.777404e-05
0.0004021775
-0.0001510379
0.0003842408
-0.0002206128
0.0003761887
-0.0002862471
0.0003665781
-0.0003487763
0.000354069
-0.0004080942
0.0003397205
-0.000464741
0.00032407
-0.0005196046
0.0003083343
-0.0005716043
0.0002932995
-0.0006182944
0.0002771684
-0.0006651949
0.0002632635
-0.0007125559
0.000248665
-0.0007595804
0.0002314229
-0.000801998
0.0002140955
-0.0008407132
0.0001988072
-0.0008781537
0.0001856986
-0.0009134295
0.0001716038
-0.0009465654
0.0001586242
-0.0009760219
0.0001449037
-0.001002885
0.0001322285
-0.001027754
0.0001199975
-0.001050289
0.0001081804
-0.001070049
9.673455e-05
-0.0010873
8.55164e-05
-0.001102528
7.442731e-05
-0.001115598
6.349867e-05
-0.001126096
5.274884e-05
-0.001134018
4.209476e-05
-0.001139679
3.146596e-05
-0.001144194
2.19488e-05
-0.001146044
1.194238e-05
-0.001144445
5.482502e-07
-0.001141015
-1.046714e-05
-0.001135284
-2.136565e-05
-0.001127312
-3.235861e-05
-0.001117167
-4.341778e-05
-0.001104535
-5.48185e-05
-0.001089019
-6.647939e-05
-0.001070537
-7.845572e-05
-0.001049376
-9.082625e-05
-0.001025948
-0.0001036646
-0.001000154
-0.0001169701
-0.0009713421
-0.0001307527
-0.0009391154
-0.0001451916
-0.0009051973
-0.000158649
-0.0008679013
-0.0001749
-0.0008273882
-0.0001917799
-0.0007836165
-0.000208725
-0.0007378966
-0.0002250142
-0.0006893829
-0.0002422066
-0.0006332498
-0.0002616553
-0.000568251
-0.0002888848
-0.0005008551
-0.0003142387
-0.0004303025
-0.0003403643
-0.0003652994
-0.0003680064
-0.0002966897
-0.0003988162
-0.0002256547
-0.0004351637
-0.0001532804
-0.0004790868
-7.982509e-05
-0.0005325303
-0.0005697051
-6.261747e-05
0.0004647945
-0.0001236931
0.0004453161
-0.0001813806
0.0004338761
-0.0002362033
0.000421401
-0.0002887225
0.0004065886
-0.0003390164
0.0003900148
-0.0003874045
0.0003724585
-0.0004332332
0.0003541636
-0.0004757329
0.0003357997
-0.0005149626
0.0003163987
-0.0005509447
0.0002992461
-0.0005850654
0.0002827863
-0.0006208165
0.0002671746
-0.0006568811
0.0002501607
-0.0006899423
0.000231869
-0.0007208122
0.0002165689
-0.000749855
0.000200647
-0.0007769775
0.0001857472
-0.0008021038
0.0001700305
-0.000825071
0.0001551963
-0.0008459904
0.0001409173
-0.0008648416
0.0001270321
-0.0008815771
0.0001134706
-0.0008962238
0.0001001637
-0.000908854
8.705807e-05
-0.0009194804
7.412557e-05
-0.0009280716
6.134065e-05
-0.0009346393
4.866295e-05
-0.0009392029
3.602998e-05
-0.0009418709
2.461729e-05
-0.0009415785
1.165039e-05
-0.0009398931
-1.13671e-06
-0.0009363036
-1.40562e-05
-0.0009306065
-2.706243e-05
-0.0009227152
-4.024962e-05
-0.0009136673
-5.246536e-05
-0.0009021111
-6.637441e-05
-0.0008881904
-8.039989e-05
-0.0008719967
-9.464929e-05
-0.0008535736
-0.0001092491
-0.0008329527
-0.0001242855
-0.0008101025
-0.0001398203
-0.0007849345
-0.0001559207
-0.0007575785
-0.0001725476
-0.0007276666
-0.0001885611
-0.0006951635
-0.0002074034
-0.0006611842
-0.0002257595
-0.0006261049
-0.0002438045
-0.0005875351
-0.0002635844
-0.0005430611
-0.000286681
-0.0004921983
-0.0003125186
-0.0004428984
-0.0003381852
-0.0003931055
-0.0003640322
-0.0003419446
-0.0003915257
-0.0002884371
-0.0004215144
-0.0002324842
-0.0004547698
-0.0001752515
-0.0004923971
-0.000117972
-0.0005363672
-6.056511e-05
-0.0005899385
-0.0006302703
-4.945345e-05
0.0005142482
-9.790377e-05
0.0004937668
-0.0001433056
0.0004792783
-0.000186351
0.0004644468
-0.0002275437
0.0004477818
-0.0002671423
0.0004296138
-0.0003052089
0.0004105255
-0.0003419585
0.0003909136
-0.0003773356
0.0003711772
-0.0004122444
0.0003513079
-0.0004449251
0.0003319272
-0.0004751179
0.0003129795
-0.0005021813
0.0002942384
-0.0005293493
0.000277329
-0.0005573023
0.0002598223
-0.000582327
0.000241594
-0.0006057992
0.0002241195
-0.0006271936
0.000207142
-0.0006476145
0.0001904518
-0.0006665558
0.0001741379
-0.0006838443
0.0001582063
-0.000699423
0.0001426112
-0.0007132651
0.0001273131
-0.0007253722
0.0001122712
-0.0007357616
9.74479e-05
-0.0007444459
8.281022e-05
-0.0007514321
6.832725e-05
-0.0007567335
5.396473e-05
-0.0007603834
3.968032e-05
-0.0007612696
2.550389e-05
-0.000760801
1.118212e-05
-0.0007597179
-2.219498e-06
-0.0007567519
-1.70219e-05
-0.0007519545
-3.18596e-05
-0.0007454169
-4.678695e-05
-0.000737074
-6.080806e-05
-0.0007269018
-7.654645e-05
-0.0007149508
-9.235074e-05
-0.0007011941
-0.0001084059
-0.0006856254
-0.0001248177
-0.0006682461
-0.0001416648
-0.00064906
-0.0001590064
-0.0006280909
-0.0001768899
-0.0006052931
-0.0001953455
-0.0005793678
-0.0002144865
-0.0005530999
-0.0002336714
-0.0005254376
-0.0002534219
-0.0004940134
-0.0002752291
-0.0004580848
-0.0002995132
-0.0004202535
-0.0003245127
-0.0003825608
-0.0003502117
-0.0003440966
-0.0003766498
-0.0003038361
-0.0004042931
-0.0002617672
-0.0004335951
-0.000218349
-0.000464933
-0.0001741915
-0.0004989278
-0.0001299355
-0.0005366537
-8.620628e-05
-0.0005800973
-4.375082e-05
-0.000632395
-0.0006740213
-3.936609e-05
0.000553615
-7.775924e-05
0.0005321606
-0.0001134109
0.0005149306
-0.000147055
0.0004980914
-0.0001791669
0.0004798942
-0.0002100385
0.0004604859
-0.0002398147
0.0004403022
-0.0002686049
0.0004197041
-0.00029642
0.0003989927
-0.0003234438
0.0003783321
-0.0003494574
0.0003579411
-0.0003743339
0.0003378563
-0.0003981317
0.0003180364
-0.0004193123
0.0002985099
-0.0004400716
0.0002805818
-0.0004609055
0.0002624282
-0.000480296
0.0002435103
-0.0004982595
0.0002251058
-0.0005148907
0.0002070832
-0.000530186
0.0001894335
-0.0005441071
0.0001721276
-0.0005566301
0.0001551346
-0.0005677401
0.0001384234
-0.0005774308
0.0001219622
-0.0005857013
0.0001057188
-0.000592551
8.966024e-05
-0.0005979761
7.375261e-05
-0.0006019698
5.795875e-05
-0.0006045265
4.22374e-05
-0.000605577
2.655461e-05
-0.0006052106
1.081601e-05
-0.0006042617
-3.16817e-06
-0.0006018407
-1.94427e-05
-0.0005980456
-3.565444e-05
-0.0005929245
-5.190791e-05
-0.0005854522
-6.828015e-05
-0.0005769692
-8.502933e-05
-0.0005672372
-0.0001020825
-0.0005561386
-0.0001195045
-0.0005436083
-0.0001373479
-0.0005296031
-0.0001556699
-0.0005140883
-0.0001745213
-0.0004970405
-0.0001939378
-0.0004783532
-0.0002140329
-0.0004586394
-0.0002342004
-0.000437069
-0.000255242
-0.0004123212
-0.0002781699
-0.0003849079
-0.0003026426
-0.0003568099
-0.0003276114
-0.0003280458
-0.0003532771
-0.0002983925
-0.0003798653
-0.0002675685
-0.0004074742
-0.0002355917
-0.0004362703
-0.0002026798
-0.0004665073
-0.0001690577
-0.0004985556
-0.0001349893
-0.0005329967
-0.000100819
-0.0005708245
-6.698659e-05
-0.0006139304
-3.389405e-05
-0.0006654885
-0.0007079154
-3.086019e-05
0.0005844762
-6.063252e-05
0.0005619338
-8.788206e-05
0.0005421809
-0.0001134375
0.0005236475
-0.0001378322
0.0005042895
-0.0001613826
0.0004840368
-0.0001842596
0.0004631796
-0.0002065449
0.0004419897
-0.0002282436
0.0004206917
-0.0002493486
0.0003994374
-0.0002697507
0.0003783434
-0.0002893607
0.0003574665
-0.0003081565
0.0003368325
-0.0003261092
0.0003164628
-0.000341923
0.0002963958
-0.000357095
0.0002776004
-0.0003722857
0.0002587011
-0.0003864542
0.0002392745
-0.0003996013
0.0002202306
-0.0004116899
0.0002015223
-0.0004226939
0.0001831318
-0.0004325928
0.0001650337
-0.0004413738
0.0001472047
-0.0004490314
0.0001296201
-0.0004555658
0.0001122534
-0.0004609809
9.507558e-05
-0.000465283
7.805504e-05
-0.0004684811
6.115706e-05
-0.0004705868
4.434335e-05
-0.0004716063
2.757429e-05
-0.0004715948
1.080474e-05
-0.0004702885
-4.474332e-06
-0.0004680725
-2.165851e-05
-0.0004648496
-3.887714e-05
-0.0004605529
-5.620455e-05
-0.0004551243
-7.370854e-05
-0.0004486463
-9.150722e-05
-0.0004410914
-0.0001096374
-0.0004324347
-0.0001281611
-0.0004226455
-0.000147137
-0.0004116907
-0.0001666247
-0.0003995359
-0.0001866761
-0.0003860959
-0.0002073778
-0.0003716019
-0.000228527
-0.0003553485
-0.0002504538
-0.0003366282
-0.0002739624
-0.0003165574
-0.000298241
-0.0002959191
-0.000323281
-0.0002744783
-0.0003490525
-0.0002521027
-0.0003756529
-0.0002288241
-0.0004031441
-0.0002046877
-0.0004316109
-0.0001797715
-0.0004611868
-0.0001542007
-0.0004920784
-0.0001281501
-0.0005246065
-0.0001018479
-0.0005592993
-7.558792e-05
-0.0005970849
-4.978097e-05
-0.000639738
-2.498871e-05
-0.0006902816
-0.0007329042
-2.372429e-05
0.0006082015
-4.634317e-05
0.0005845536
-6.676319e-05
0.0005626016
-8.576449e-05
0.0005426494
-0.0001038343
0.0005223599
-0.0001212649
0.0005014678
-0.0001382229
0.0004801381
-0.000154792
0.0004585591
-0.0001709898
0.0004368897
-0.0001868001
0.000415248
-0.0002021762
0.0003937197
-0.0002170655
0.000372356
-0.0002314209
0.000351188
-0.0002451971
0.0003302392
-0.0002583278
0.0003095267
-0.0002698064
0.0002890791
-0.0002807122
0.0002696072
-0.0002915787
0.0002501411
-0.0003016878
0.0002303398
-0.0003110057
0.0002108403
-0.0003194936
0.00019162
-0.0003271307
0.000172671
-0.0003339058
0.00015398
-0.0003398158
0.0001355302
-0.0003448637
0.0001173014
-0.0003490571
9.926917e-05
-0.0003524068
8.140501e-05
-0.0003549253
6.367569e-05
-0.0003566257
4.604397e-05
-0.0003575207
2.846942e-05
-0.0003576247
1.090884e-05
-0.0003566211
-5.477733e-06
-0.000354946
-2.333352e-05
-0.000352543
-4.128005e-05
-0.0003493694
-5.937801e-05
-0.0003453871
-7.769068e-05
-0.0003406056
-9.62887e-05
-0.0003350082
-0.0001152347
-0.0003285738
-0.0001345954
-0.0003212729
-0.000154438
-0.0003130647
-0.0001748329
-0.0003038941
-0.0001958468
-0.0002936811
-0.0002175908
-0.0002822324
-0.0002399758
-0.0002691941
-0.0002634922
-0.0002554011
-0.0002877554
-0.0002408643
-0.0003127779
-0.0002255358
-0.0003386097
-0.0002093452
-0.0003652432
-0.0001923057
-0.0003926926
-0.0001744678
-0.0004209822
-0.0001559149
-0.0004501639
-0.0001367612
-0.0004803408
-0.0001171487
-0.0005116912
-9.724372e-05
-0.0005445118
-7.723582e-05
-0.0005793075
-5.734357e-05
-0.0006169775
-3.783188e-05
-0.0006592503
-1.901223e-05
-0.000709102
-0.0007519165
-1.797127e-05
0.0006261738
-3.476478e-05
0.000601348
-4.944482e-05
0.0005772824
-6.279212e-05
0.0005559973
-7.539178e-05
0.00053496
-8.758735e-05
0.0005136638
-9.955683e-05
0.0004921079
-0.0001113731
0.0004703756
-0.0001230388
0.0004485556
-0.0001345147
0.0004267241
-0.0001457405
0.0004049457
-0.0001566576
0.0003832733
-0.0001672159
0.0003617464
-0.0001773702
0.0003403937
-0.0001870792
0.0003192358
-0.0001962858
0.0002982859
-0.000204247
0.0002775685
-0.0002117005
0.0002575948
-0.0002190735
0.0002377129
-0.0002259134
0.0002176803
-0.0002321988
0.0001979055
-0.0002378751
0.0001783475
-0.0002429227
0.0001590277
-0.0002473349
0.0001399426
-0.0002511149
0.0001210816
-0.0002542725
0.0001024268
-0.0002568197
8.395234e-05
-0.0002587691
6.562523e-05
-0.0002601323
4.74073e-05
-0.0002609189
2.925619e-05
-0.0002611366
1.112659e-05
-0.0002604694
-6.144798e-06
-0.0002593164
-2.448641e-05
-0.0002576481
-4.294827e-05
-0.0002554374
-6.158866e-05
-0.0002526596
-8.046835e-05
-0.0002492956
-9.965266e-05
-0.000245323
-0.0001192073
-0.0002407185
-0.0001391999
-0.0002354576
-0.0001596989
-0.0002295185
-0.0001807719
-0.0002228657
-0.0002024996
-0.0002155746
-0.0002248819
-0.0002074822
-0.0002480683
-0.0001987111
-0.0002722635
-0.0001891946
-0.000297272
-0.0001788614
-0.0003231113
-0.0001677001
-0.0003497711
-0.0001557225
-0.000377221
-0.0001429832
-0.0004054321
-0.0001295709
-0.0004343947
-0.0001155934
-0.0004641417
-0.0001011727
-0.0004947617
-8.644143e-05
-0.0005264227
-7.153696e-05
-0.0005594165
-5.6606e-05
-0.0005942388
-4.181566e-05
-0.0006317682
-2.738661e-05
-0.0006736799
-1.364484e-05
-0.0007228444
-0.0007655614
-1.274051e-05
0.0006389153
-2.440796e-05
0.0006130163
-3.429194e-05
0.000587167
-4.31757e-05
0.0005648816
-5.153993e-05
0.0005433247
-5.963351e-05
0.0005217577
-6.756702e-05
0.0005000417
-7.537426e-05
0.0004781831
-8.305875e-05
0.0004562403
-9.06229e-05
0.0004342884
-9.811088e-05
0.0004124338
-0.0001055493
0.0003907118
-0.0001129032
0.0003691004
-0.000120118
0.0003476085
-0.000127124
0.0003262419
-0.0001338475
0.0003050094
-0.0001402007
0.0002839218
-0.0001456173
0.0002630114
-0.0001505557
0.0002426514
-0.0001553082
0.0002224329
-0.0001596263
0.0002022237
-0.0001635079
0.0001822291
-0.0001669411
0.000162461
-0.0001699356
0.0001429372
-0.0001725192
0.0001236654
-0.0001747211
0.0001046288
-0.0001765586
8.578995e-05
-0.0001780432
6.710996e-05
-0.000179181
4.854519e-05
-0.0001799754
3.005074e-05
-0.0001804273
1.157848e-05
-0.0001802483
-6.32363e-06
-0.0001797727
-2.496202e-05
-0.0001789803
-4.374059e-05
-0.0001778511
-6.271781e-05
-0.000176365
-8.195444e-05
-0.0001745022
-0.0001015154
-0.0001722417
-0.0001214677
-0.0001695616
-0.00014188
-0.0001664397
-0.0001628208
-0.0001628563
-0.0001843554
-0.0001588059
-0.00020655
-0.0001542811
-0.0002294068
-0.0001491101
-0.0002532392
-0.0001433599
-0.0002780138
-0.0001369706
-0.0003036613
-0.0001298353
-0.0003302467
-0.0001219161
-0.0003576905
-0.0001132409
-0.0003858963
-0.0001038969
-0.0004147763
-9.400551e-05
-0.0004442863
-8.369274e-05
-0.0004744546
-7.308282e-05
-0.0005053718
-6.229576e-05
-0.00053721
-5.144668e-05
-0.0005702658
-4.06481e-05
-0.0006050376
-3.00165e-05
-0.0006424001
-1.968621e-05
-0.0006840106
-9.836963e-06
-0.0007326942
-0.0007753985
-9.94057e-06
0.0006488568
-1.836974e-05
0.0006214463
-2.484855e-05
0.0005936465
-3.01793e-05
0.0005702129
-3.485639e-05
0.0005480022
-3.922829e-05
0.0005261299
-4.34874e-05
0.000504301
-4.77518e-05
0.0004824477
-5.208636e-05
0.000460575
-5.649513e-05
0.0004386972
-6.095115e-05
0.0004168899
-6.54208e-05
0.0003951815
-6.986119e-05
0.0003735408
-7.423937e-05
0.0003519867
-7.851599e-05
0.0003305185
-8.267782e-05
0.0003091713
-8.668401e-05
0.000287928
-9.041026e-05
0.0002667377
-9.346097e-05
0.0002457021
-9.607631e-05
0.0002250483
-9.850641e-05
0.0002046539
-0.0001007902
0.000184513
-0.0001029259
0.0001645967
-0.0001048881
0.0001448995
-0.0001066542
0.0001254315
-0.0001082145
0.0001061892
-0.0001095805
8.715609e-05
-0.0001107669
6.829641e-05
-0.0001117847
4.956303e-05
-0.0001126443
3.091047e-05
-0.0001133539
1.228812e-05
-0.0001136673
-6.010158e-06
-0.0001138546
-2.477472e-05
-0.0001138967
-4.369845e-05
-0.0001137762
-6.283823e-05
-0.0001134769
-8.225372e-05
-0.0001129796
-0.0001020127
-0.0001122628
-0.0001221846
-0.0001113005
-0.0001428422
-0.0001100593
-0.000164062
-0.0001084896
-0.0001859251
-0.0001065356
-0.000208504
-0.0001040203
-0.0002319222
-0.0001010418
-0.0002562178
-9.77465e-05
-0.0002813092
-9.391554e-05
-0.0003074923
-8.94127e-05
-0.0003347497
-8.419495e-05
-0.0003629083
-7.822897e-05
-0.0003918624
-7.165816e-05
-0.0004213472
-6.466527e-05
-0.0004512793
-5.739556e-05
-0.0004817245
-4.996073e-05
-0.0005128068
-4.244956e-05
-0.0005447213
-3.493962e-05
-0.0005777759
-2.750216e-05
-0.0006124753
-2.020873e-05
-0.0006496938
-1.315298e-05
-0.0006910667
-6.498594e-06
-0.000739349
-0.0007818971
-5.742748e-06
0.0006546005
-9.640063e-06
0.0006253444
-1.14899e-05
0.000595497
-1.230315e-05
0.0005710267
-1.294503e-05
0.0005486445
-1.368656e-05
0.0005268718
-1.470701e-05
0.0005053217
-1.607932e-05
0.0004838201
-1.781444e-05
0.0004623102
-1.991589e-05
0.0004407987
-2.218743e-05
0.0004191614
-2.448314e-05
0.0003974772
-2.687573e-05
0.0003759334
-2.94112e-05
0.0003545222
-3.202124e-05
0.0003331286
-3.452702e-05
0.0003116771
-3.677819e-05
0.0002901792
-3.871041e-05
0.00026867
-4.0314e-05
0.0002473058
-4.166894e-05
0.0002264033
-4.303456e-05
0.0002060196
-4.44719e-05
0.0001859504
-4.598795e-05
0.0001661128
-4.753717e-05
0.0001464488
-4.904243e-05
0.0001269368
-5.048669e-05
0.0001076335
-5.190098e-05
8.857043e-05
-5.329286e-05
6.968835e-05
-5.464224e-05
5.091245e-05
-5.594249e-05
3.221077e-05
-5.719815e-05
1.354382e-05
-5.821598e-05
-4.992289e-06
-5.921769e-05
-2.377298e-05
-6.018255e-05
-4.273356e-05
-6.108866e-05
-6.19321e-05
-6.192101e-05
-8.142136e-05
-6.266294e-05
-0.0001012708
-6.329802e-05
-0.0001215495
-6.380789e-05
-0.0001423324
-6.416949e-05
-0.0001637005
-6.434905e-05
-0.0001857455
-6.429241e-05
-0.0002085607
-6.397941e-05
-0.0002322353
-6.333976e-05
-0.0002568575
-6.20705e-05
-0.0002825785
-6.017251e-05
-0.0003093904
-5.772469e-05
-0.0003371976
-5.451804e-05
-0.0003661151
-5.056578e-05
-0.0003958148
-4.614331e-05
-0.0004257698
-4.14759e-05
-0.0004559468
-3.669312e-05
-0.0004865074
-3.185447e-05
-0.0005176456
-2.700591e-05
-0.00054957
-2.219014e-05
-0.0005825919
-1.744744e-05
-0.0006172181
-1.281862e-05
-0.0006543228
-8.357737e-06
-0.0006955279
-4.155922e-06
-0.0007435513
-0.0007860531
-3.862188e-06
0.0006584636
-5.387812e-06
0.000626871
-5.069155e-06
0.0005951791
-4.158259e-06
0.0005701162
-2.74634e-06
0.0005472328
-1.088169e-06
0.0005252138
7.202608e-07
0.0005035134
2.594363e-06
0.0004819461
4.44021e-06
0.0004604644
6.154426e-06
0.0004390845
7.436048e-06
0.0004178798
8.044673e-06
0.0003968686
7.942833e-06
0.0003760353
7.173276e-06
0.0003552918
5.922797e-06
0.0003343791
4.466278e-06
0.0003131336
2.977427e-06
0.0002916681
1.438913e-06
0.0002702085
-1.368045e-07
0.0002488815
-1.543956e-06
0.0002278105
-2.620775e-06
0.0002070964
-3.409161e-06
0.0001867388
-3.986277e-06
0.00016669
-4.521987e-06
0.0001469845
-5.184484e-06
0.0001275993
-6.007461e-06
0.0001084565
-6.981619e-06
8.954462e-05
-8.090007e-06
7.079677e-05
-9.318338e-06
5.214082e-05
-1.066774e-05
3.356021e-05
-1.214166e-05
1.501776e-05
-1.360485e-05
-3.52907e-06
-1.519933e-05
-2.217848e-05
-1.687312e-05
-4.105976e-05
-1.858952e-05
-6.021569e-05
-2.031332e-05
-7.969755e-05
-2.202597e-05
-9.95581e-05
-2.371415e-05
-0.0001198613
-2.537253e-05
-0.000140674
-2.70075e-05
-0.0001620655
-2.86065e-05
-0.0001841466
-3.012065e-05
-0.0002070465
-3.149175e-05
-0.0002308642
-3.260842e-05
-0.0002557409
-3.334405e-05
-0.0002818429
-3.348738e-05
-0.0003092471
-3.275582e-05
-0.0003379292
-3.123536e-05
-0.0003676356
-2.914853e-05
-0.0003979017
-2.651522e-05
-0.0004284032
-2.362022e-05
-0.0004588419
-2.073497e-05
-0.0004893927
-1.789728e-05
-0.0005204834
-1.510641e-05
-0.0005523611
-1.236908e-05
-0.0005853293
-9.685718e-06
-0.0006199017
-7.072697e-06
-0.000656936
-4.566845e-06
-0.000698034
-2.241568e-06
-0.0007458769
-0.0007882947
-2.264021e-06
0.0006607288
-1.94316e-06
0.0006265512
-2.219592e-07
0.0005934585
2.609882e-06
0.0005672848
5.950001e-06
0.000543893
9.516199e-06
0.0005216478
1.311465e-05
0.000499915
1.65923e-05
0.0004784685
1.983534e-05
0.0004572214
2.277357e-05
0.0004361463
2.539146e-05
0.0004152619
2.767342e-05
0.0003945866
2.957146e-05
0.0003741372
3.117288e-05
0.0003536903
3.251383e-05
0.0003330381
3.340767e-05
0.0003122397
3.372839e-05
0.0002913473
3.354501e-05
0.0002703919
3.296598e-05
0.0002494605
3.220283e-05
0.0002285736
3.143054e-05
0.0002078687
3.068729e-05
0.0001874821
2.99472e-05
0.0001674301
2.922754e-05
0.0001477042
2.851318e-05
0.0001283137
2.7736e-05
0.0001092337
2.688253e-05
9.039812e-05
2.59374e-05
7.174192e-05
2.486574e-05
5.32125e-05
2.364389e-05
3.478207e-05
2.224456e-05
1.641711e-05
2.064245e-05
-1.926945e-06
1.87028e-05
-2.023882e-05
1.65686e-05
-3.892555e-05
1.428717e-05
-5.793426e-05
1.189058e-05
-7.730096e-05
9.401713e-06
-9.706924e-05
6.838738e-06
-0.0001172983
4.22005e-06
-0.0001380553
1.566879e-06
-0.0001594123
-1.093011e-06
-0.0001814867
-3.71395e-06
-0.0002044256
-6.220288e-06
-0.0002283579
-8.536273e-06
-0.0002534249
-1.059141e-05
-0.0002797878
-1.225798e-05
-0.0003075806
-1.340448e-05
-0.0003367828
-1.387933e-05
-0.0003671609
-1.349069e-05
-0.0003982904
-1.237152e-05
-0.0004295225
-1.093241e-05
-0.0004602812
-9.472822e-06
-0.0004908524
-8.091823e-06
-0.0005218645
-6.763577e-06
-0.0005536894
-5.471097e-06
-0.0005866219
-4.214774e-06
-0.0006211581
-3.017387e-06
-0.0006581335
-1.912463e-06
-0.0006991391
-9.435987e-07
-0.0007468459
-0.0007892383
-9.533645e-07
0.0006616831
4.917944e-07
0.0006251067
3.881351e-06
0.0005900695
8.413861e-06
0.0005627527
1.343011e-05
0.0005388771
1.858009e-05
0.000516498
2.363698e-05
0.0004948582
2.846618e-05
0.0004736393
3.298613e-05
0.0004527014
3.714519e-05
0.0004319872
4.091073e-05
0.0004114963
4.423171e-05
0.0003912656
4.708098e-05
0.0003712879
4.945766e-05
0.0003513136
5.13921e-05
0.0003311036
5.300609e-05
0.0003106257
5.440933e-05
0.0002899441
5.563119e-05
0.00026917
5.665563e-05
0.0002484361
5.734324e-05
0.000227886
5.765847e-05
0.0002075535
5.768698e-05
0.0001874536
5.746516e-05
0.0001676519
5.70174e-05
0.000148152
5.637578e-05
0.0001289553
5.555611e-05
0.0001100534
5.455066e-05
9.140358e-05
5.33501e-05
7.29425e-05
5.195445e-05
5.460816e-05
5.037829e-05
3.635825e-05
4.861829e-05
1.817711e-05
4.660083e-05
9.052383e-08
4.416566e-05
-1.780364e-05
4.143199e-05
-3.619189e-05
3.847674e-05
-5.497901e-05
3.533718e-05
-7.41614e-05
3.204274e-05
-9.377481e-05
2.862056e-05
-0.0001138762
2.510644e-05
-0.0001345412
2.155679e-05
-0.0001558627
1.802622e-05
-0.0001779562
1.455836e-05
-0.0002009578
1.121371e-05
-0.0002250133
8.065667e-06
-0.0002502769
5.176837e-06
-0.0002768991
2.583212e-06
-0.0003049871
3.482005e-07
-0.0003345479
-1.399386e-06
-0.0003654133
-2.569e-06
-0.0003971209
-3.13593e-06
-0.0004289556
-3.138941e-06
-0.0004602782
-2.858885e-06
-0.0004911325
-2.486689e-06
-0.0005222368
-2.05482e-06
-0.0005541214
-1.610973e-06
-0.0005870659
-1.184587e-06
-0.0006215846
-7.947574e-07
-0.0006585235
-4.617145e-07
-0.0006994723
-2.083751e-07
-0.0007470994
-0.0007894467
-1.91635e-07
0.0006618757
2.321732e-06
0.0006225941
6.972383e-06
0.0005854195
1.26786e-05
0.000557047
1.890403e-05
0.0005326519
2.529216e-05
0.00051011
3.161251e-05
0.0004885379
3.771306e-05
0.0004675388
4.348372e-05
0.0004469307
4.883543e-05
0.0004266354
5.369959e-05
0.000406632
5.803432e-05
0.0003869307
6.181639e-05
0.0003675057
6.506103e-05
0.0003480689
6.784572e-05
0.0003283188
7.024277e-05
0.0003082286
7.228921e-05
0.0002878976
7.399281e-05
0.0002674664
7.535708e-05
0.0002470718
7.642932e-05
0.0002268138
7.721206e-05
0.0002067708
7.763271e-05
0.0001870329
7.769524e-05
0.0001675894
7.739932e-05
0.0001484479
7.675097e-05
0.0001296037
7.577171e-05
0.0001110327
7.448609e-05
9.268921e-05
7.291471e-05
7.451389e-05
7.107595e-05
5.644693e-05
6.899021e-05
3.844399e-05
6.667025e-05
2.049708e-05
6.408873e-05
2.672043e-06
6.113676e-05
-1.485167e-05
5.783613e-05
-3.289126e-05
5.426738e-05
-5.141027e-05
5.050057e-05
-7.03946e-05
4.65859e-05
-8.986016e-05
4.256612e-05
-0.0001098564
3.848498e-05
-0.0001304601
3.439325e-05
-0.000151771
3.034804e-05
-0.000173911
2.641012e-05
-0.0001970199
2.264477e-05
-0.000221248
1.911767e-05
-0.0002467499
1.588893e-05
-0.0002736704
1.300978e-05
-0.000302108
1.051488e-05
-0.000332053
8.413154e-06
-0.0003633117
6.732622e-06
-0.0003954405
5.533554e-06
-0.0004277566
4.792117e-06
-0.0004595369
4.242135e-06
-0.0004905826
3.652874e-06
-0.0005216476
3.055032e-06
-0.0005535236
2.488983e-06
-0.0005864999
1.948694e-06
-0.0006210444
1.42728e-06
-0.0006580021
9.131745e-07
-0.0006989583
4.093074e-07
-0.0007465957
-0.0007890374
1.859662e-07
0.0006616907
3.496518e-06
0.0006192844
8.937777e-06
0.0005799788
1.549329e-05
0.0005504918
2.257825e-05
0.0005255672
2.983003e-05
0.0005028584
3.701632e-05
0.0004813516
4.39796e-05
0.0004605754
5.060917e-05
0.000440301
5.682507e-05
0.0004204194
6.257262e-05
0.0004008843
6.782252e-05
0.0003816807
7.257429e-05
0.0003627538
7.682787e-05
0.0003438152
8.056482e-05
0.0003245818
8.376591e-05
0.0003050274
8.642816e-05
0.0002852353
8.85701e-05
0.0002653244
9.022944e-05
0.0002454124
9.142969e-05
0.0002256135
9.214727e-05
0.0002060532
9.241097e-05
0.0001867692
9.224268e-05
0.0001677577
9.165551e-05
0.0001490351
9.066932e-05
0.0001305899
8.930821e-05
0.0001123938
8.759728e-05
9.440014e-05
8.556147e-05
7.654969e-05
8.322573e-05
5.878266e-05
8.06143e-05
4.105543e-05
7.774942e-05
2.336195e-05
7.466057e-05
5.760895e-06
7.141984e-05
-1.161094e-05
6.770597e-05
-2.917739e-05
6.370668e-05
-4.741098e-05
5.952824e-05
-6.621617e-05
5.523401e-05
-8.556593e-05
5.087326e-05
-0.0001054957
4.649469e-05
-0.0001260816
4.215057e-05
-0.0001474269
3.789473e-05
-0.0001696552
3.378036e-05
-0.0001929056
2.985992e-05
-0.0002173276
2.618285e-05
-0.0002430729
2.279135e-05
-0.0002702789
1.972004e-05
-0.0002990367
1.700229e-05
-0.0003293354
1.467389e-05
-0.0003609834
1.276259e-05
-0.0003935292
1.126373e-05
-0.0004262578
1.011916e-05
-0.0004583924
9.139316e-06
-0.0004896029
8.151252e-06
-0.0005206596
7.121326e-06
-0.0005524937
6.053618e-06
-0.0005854322
4.94846e-06
-0.0006199393
3.794406e-06
-0.0006568481
2.574807e-06
-0.0006977387
1.278133e-06
-0.0007452992
-0.0007877593
3.818042e-07
0.0006613098
4.14225e-06
0.0006155248
1.007368e-05
0.000574048
1.7148e-05
0.0005434179
2.477544e-05
0.00051794
3.258991e-05
0.000495044
4.035173e-05
0.0004735898
4.789699e-05
0.0004530301
5.511099e-05
0.0004330869