/*--------------------------------*- C++ -*----------------------------------*\
| =========                 |                                                 |
| \\      /  F ield         | OpenFOAM: The Open Source CFD Toolbox           |
|  \\    /   O peration     | Version:  2312                                  |
|   \\  /    A nd           | Website:  www.openfoam.com                      |
|    \\/     M anipulation  |                                                 |
\*---------------------------------------------------------------------------*/
FoamFile
{
    version     2.0;
    format      ascii;
    arch        "LSB;label=32;scalar=64";
    class       volScalarField;
    location    "4950";
    object      qr;
}
// * * * * * * * * * * * * * * * * * * * * * * * * * * * * * * * * * * * * * //

dimensions      [1 0 -3 0 0 0 0];

internalField   uniform 0;

boundaryField
{
    plate
    {
        type            calculated;
        value           nonuniform List<scalar> 
200
(
-9985.558
-10129.65
-10208.58
-10209.43
-10156.18
-10113.31
-10110.46
-10133.67
-10175.38
332.6353
324.272
-10298.93
288.3723
236.5087
188.8244
162.5756
150.9427
151.4607
168.5201
198.9135
228.2693
243.7661
234.8648
213.7811
196.7954
196.9147
-10220.53
-10191.77
-10170.19
-10144.8
-10108.93
-10072.75
-10039.64
-10007.45
-9974.299
-9946.419
-9939.918
-32.76292
-52.27774
-9818.577
-9745.346
-9681.008
-9632.838
-9599.939
-311.3264
-380.3538
-445.6174
-505.8422
-558.1233
-610.5388
-664.9858
-718.7357
-761.4027
-785.1247
-8856.173
-8750.522
-8682.217
-8633.556
-8589.39
-8536.295
-1351.503
-1404.457
-8215.301
-8086.992
-7974.025
-7893.454
-7842.858
-1866.348
-1976.673
-7475.582
-7298.938
-2363.157
-2298.437
-2322.778
-2360.523
-2443.342
-2584.725
-2890.972
-5400.51
-6335.654
-6383.815
-6135.905
-5634.216
-5265.849
-5217.375
-5524.144
-5673.745
-5539.246
-5146.282
-4666.672
-4389.616
-4331.014
-4544.31
-4866.725
-5112.519
-5177.768
-4996.811
-4705.714
-4412.979
-4220.817
-4161.242
-4155.085
-4189.692
-4216.748
-4233.949
-4270.07
-4360.059
-4525.657
-4717.19
-4911.356
-5040.614
-5077.534
-5042.75
-4958.308
-4895.885
-4889.331
-4939.223
-5024.949
-5112.009
-5167.279
-5161.963
-5116.122
-5041.854
-4957.386
-4883.26
-4811.848
-4757.564
-4716.28
-4686.075
-4673.08
-4681.844
-4711.508
-4741.094
-4771.759
-4786.163
-4775.773
-4745.478
-4708.136
-4681.902
-4669.556
-4690.376
-4734.555
-4787.547
-4836.162
-4853.041
-4846.756
-4816.227
-4772.982
-4730.686
-4704.74
-4699.599
-4698.504
-4713.261
-4731.509
-4755.059
-4785.47
-4829.811
-4884.839
-4928.151
-4959.682
-4958.278
-4924.39
-4868.717
-4813.153
-4772.424
-4742.494
-4725.539
-4707.877
-4674.789
-4627.523
-4595.569
-4610.993
-4668.562
-4768.975
-4862.816
-4901.004
-4854.152
-4702.646
-4517.171
-4394.678
-4407.01
-4535.993
-4708.736
-4849.791
-4906.381
-4901.745
-4843.171
-4724.351
-4482.649
-4118.608
-3945.312
-3832.282
-3704.546
-2261.557
-8312.502
-713.5389
-10189.77
1139.071
-11643.79
-11689.5
)
;
    }
    riser
    {
        type            calculated;
        value           nonuniform List<scalar> 
200
(
3369.56
3230.278
3196.445
3206.018
3253.854
3316.766
3400.79
3410.769
3237.133
3084.57
3226.618
3455.634
3430.064
3303.041
3384.61
3594.929
3678.759
3586.773
3453.521
3412.682
3522.822
3767.457
4034.918
4183.333
4215.107
4244.913
4244.493
4102.339
3944.5
4026.385
4307.359
4461.288
4331.232
4168.523
4326.3
4768.001
5115.281
5206.795
5182.64
5022.745
4617.735
4226.719
4208.583
4483.587
4729.992
4793.985
4668.507
4407.073
4169.441
4102.922
4153.031
4149.454
4073.353
4044.619
4035.785
3926.083
3843.531
4066.532
4547.732
4912.589
4972.472
4851.162
4631.616
4333.145
4151.802
4241.838
4444.65
4592.809
4741.968
4875.295
4829.663
4652.396
4584.97
4656.377
4656.087
4475.122
4234.326
4086.526
4029.944
3971.538
3903.122
3911.245
4036.672
4211.916
4336.671
4365.555
4324.308
4270.725
4250.559
4275.903
4329.753
4385.359
4423.384
4437.857
4433.608
4421.38
4412.207
4410.933
4411.798
4400.494
4363.39
4298.136
4217.526
4143.799
4098.235
4092.719
4126.196
4186.486
4256.522
4321.538
4373.298
4409.901
4432.554
4442.049
4437.19
4415.909
4378.291
4329.211
4278.02
4235.323
4209.177
4202.45
4212.214
4231.47
4252.461
4269.747
4281.432
4288.398
4292.779
4296.689
4301.401
4307.274
4314.555
4324.059
4336.929
4353.875
4374.447
4396.489
4416.304
4429.946
4434.82
4430.482
4418.419
4401.267
4381.847
4362.254
4343.449
4325.773
4309.858
4296.807
4287.574
4282.303
4279.834
4277.528
4272.112
4261.472
4246.228
4230.305
4220.325
4223.531
4244.738
4283.792
4334.691
4386.741
4427.61
4447.364
4441.247
4409.83
4357.504
4290.652
4215.694
4137.373
4059.023
3984.8
3921.089
3874.541
3848.953
3845.365
3865.068
3910.787
3983.848
4077.612
4168.249
4212.536
4164.824
4008.863
3784.525
3581.399
3483.656
3497.938
3551.44
3589.769
3674.784
3844.449
3927.682
3697.289
3234.063
2930.149
2895.82
2985.059
)
;
    }
    topAndBottom
    {
        type            calculated;
        value           nonuniform List<scalar> 
120
(
4096.12
3400.333
2872.709
2520.94
2278.867
2141.973
2077.551
2038.431
1989.565
1920.474
1842.383
1775.172
1728.193
1698.599
1678.257
1662.676
1652.623
1650.74
1657.233
1670.267
1686.248
1700.966
1710.567
1712.775
1707.643
1696.986
1683.165
1667.937
1652.043
1635.62
1618.634
1601.225
1583.853
1567.321
1552.724
1541.337
1534.356
1532.541
1535.844
1543.352
1553.57
1564.942
1576.187
1586.499
1595.568
1603.475
1610.18
1614.857
1615.376
1608.515
1591.198
1562.55
1525.544
1486.614
1452.637
1426.823
1408.473
1397.314
1408.974
1586.741
4557.967
4809.538
4831.867
4690.163
4359.828
3932.236
3542.439
3268.391
3110.653
3027.231
2979.417
2965.683
3022.134
3184.65
3441.532
3718.544
3914.433
3961.041
3859.721
3668.081
3452.881
3247.752
3044.477
2817.127
2555.024
2279.44
2035.715
1870.527
1810.695
1854.167
1973.66
2127.105
2269
2359.893
2373.488
2301.937
2157.614
1969.914
1776.745
1613.731
1505.385
1461.582
1479.295
1547.401
1651.465
1777.905
1916.838
2061.341
2204.397
2337.375
2451.52
2542.879
2612.087
2663.117
2701.533
2731.114
2752.937
2762.655
2781.795
2783.335
)
;
    }
    frontAndBack
    {
        type            empty;
    }
}


// ************************************************************************* //
