/*--------------------------------*- C++ -*----------------------------------*\
| =========                 |                                                 |
| \\      /  F ield         | OpenFOAM: The Open Source CFD Toolbox           |
|  \\    /   O peration     | Version:  2312                                  |
|   \\  /    A nd           | Website:  www.openfoam.com                      |
|    \\/     M anipulation  |                                                 |
\*---------------------------------------------------------------------------*/
FoamFile
{
    version     2.0;
    format      ascii;
    arch        "LSB;label=32;scalar=64";
    class       volScalarField;
    location    "4950";
    object      T;
}
// * * * * * * * * * * * * * * * * * * * * * * * * * * * * * * * * * * * * * //

dimensions      [0 0 0 1 0 0 0];

internalField   nonuniform List<scalar> 
12000
(
448.8914
435.8995
434.2958
434.0612
434.025
434.015
434.009
434.0035
433.9975
433.9905
433.9815
433.9702
433.9567
433.9409
433.9222
433.9005
433.8759
433.8485
433.818
433.784
433.747
433.7072
433.664
433.6174
433.5679
433.5154
433.4597
433.4006
433.3386
433.274
433.2068
433.1378
433.0655
432.982
432.8892
432.7918
432.6911
432.5761
432.437
432.2794
432.1237
431.9763
431.8151
431.6072
431.3677
431.1483
430.9462
430.7013
430.3857
430.0372
429.7136
429.3351
428.8436
428.2736
427.644
426.875
425.8245
424.4371
422.2929
418.4
448.9435
436.4292
435.0078
434.9658
435.1579
435.3884
435.6243
435.8606
436.0998
436.3313
436.5388
436.7377
436.9321
437.1174
437.2813
437.4292
437.5735
437.7109
437.8273
437.9252
438.0198
438.1113
438.1854
438.2412
438.2922
438.3408
438.3764
438.3972
438.4108
438.4187
438.4171
438.4055
438.3845
438.3529
438.3102
438.2564
438.1913
438.1148
438.0265
437.9259
437.8123
437.6838
437.5387
437.3763
437.1943
436.9869
436.7537
436.491
436.1978
435.8683
435.4916
435.0533
434.5515
433.959
433.2506
432.3302
431.0538
429.2528
426.3685
421.0445
449.4821
437.173
435.6982
435.7369
436.0789
436.4767
436.8793
437.2722
437.6506
438.0105
438.3478
438.6612
438.9526
439.2238
439.4739
439.704
439.9156
440.1098
440.2864
440.446
440.5901
440.72
440.8356
440.9373
441.0259
441.1025
441.167
441.2194
441.2602
441.2897
441.3082
441.3156
441.3127
441.2963
441.2667
441.2242
441.1688
441.1003
441.0182
440.9219
440.8109
440.6841
440.5403
440.3785
440.1979
439.9945
439.7664
439.5095
439.2182
438.8866
438.5143
438.1001
437.6204
437.0477
436.3402
435.4382
434.2297
432.3731
429.1737
422.4547
450.34
437.8972
436.3236
436.3894
436.8221
437.3266
437.8325
438.3202
438.7838
439.2223
439.6374
440.0265
440.3891
440.7233
441.0309
441.3148
441.5767
441.8176
442.0384
442.2403
442.4242
442.591
442.7415
442.8762
442.9957
443.1003
443.1904
443.266
443.3273
443.3744
443.4071
443.4263
443.4314
443.4203
443.3935
443.3512
443.2933
443.2195
443.1291
443.0216
442.8965
442.7527
442.5895
442.4058
442.2003
441.9727
441.7203
441.4398
441.1273
440.7784
440.3854
439.9356
439.4116
438.8045
438.0804
437.1809
435.961
434.1306
430.8777
423.3997
451.29
438.616
436.923
436.9757
437.4547
438.0258
438.6001
439.1518
439.674
440.1666
440.6293
441.0646
441.4729
441.8534
442.2059
442.532
442.834
443.1132
443.3705
443.6066
443.8225
444.0189
444.1967
444.3564
444.4985
444.6235
444.7314
444.8225
444.8968
444.9543
444.9955
445.0204
445.0274
445.0164
444.9878
444.9413
444.8775
444.7954
444.6943
444.5737
444.4326
444.2702
444.0856
443.8775
443.6448
443.3867
443.1011
442.7864
442.4414
442.0571
441.6157
441.1169
440.5627
439.9277
439.1768
438.2543
437.0362
435.2355
432.0062
424.1323
452.2926
439.3267
437.4982
437.5032
437.9895
438.594
439.2102
439.8057
440.3712
440.9048
441.406
441.8763
442.317
442.7302
443.1164
443.4751
443.808
444.1162
444.4009
444.6626
444.9021
445.1201
445.3173
445.4944
445.6518
445.79
445.9092
446.0095
446.0912
446.1541
446.1989
446.2249
446.2313
446.2186
446.1868
446.1359
446.0658
445.9758
445.8652
445.7329
445.5782
445.4
445.1971
444.9682
444.712
444.427
444.1116
443.7644
443.3827
442.9617
442.4938
441.9701
441.3828
440.7151
439.9366
438.9913
437.7643
435.98
432.793
424.6974
453.3079
440.0264
438.0549
437.99
438.4554
439.0679
439.7053
440.3277
440.922
441.4844
442.0142
442.5122
442.9792
443.4164
443.8256
444.2078
444.5631
444.8926
445.1968
445.4766
445.7325
445.9653
446.1756
446.3639
446.531
446.6771
446.8028
446.9082
446.9937
447.0592
447.1047
447.1302
447.1355
447.1208
447.0864
447.0319
446.957
446.8611
446.7433
446.6027
446.4381
446.2482
446.0317
445.7872
445.513
445.2079
444.8701
444.4974
444.0867
443.6341
443.1349
442.5826
441.9673
441.2726
440.4701
439.5067
438.2729
436.5015
433.3509
425.1078
454.3355
440.715
438.5955
438.4455
438.869
439.4702
440.1133
440.7496
441.3613
441.9426
442.4918
443.009
443.4949
443.9506
444.3767
444.7746
445.1454
445.4892
445.8067
446.0984
446.3651
446.6073
446.8257
447.0209
447.1935
447.3442
447.4733
447.5812
447.6683
447.7346
447.7802
447.8051
447.8093
447.7933
447.757
447.7002
447.6224
447.523
447.4009
447.255
447.0841
446.8867
446.6612
446.406
446.1193
445.7994
445.4442
445.0514
444.6183
444.142
443.6183
443.0414
442.402
441.6845
440.8619
439.8834
438.6435
436.8828
433.7707
425.4312
455.3694
441.3995
439.1227
438.8779
439.2453
439.8201
440.4546
441.0926
441.7118
442.3038
442.8653
443.3955
443.8945
444.3629
444.8012
445.2101
445.5907
445.9436
446.2693
446.5684
446.8414
447.0891
447.3121
447.5111
447.6867
447.8395
447.9702
448.079
448.1665
448.2329
448.2784
448.3029
448.3068
448.2902
448.2532
448.1955
448.1165
448.0156
447.8915
447.7431
447.5689
447.3671
447.1359
446.8735
446.5777
446.2464
445.8775
445.4688
445.018
444.5226
443.9791
443.3822
442.7233
441.9877
441.1497
440.1603
438.9169
437.1665
434.0893
425.6996
456.2756
442.0707
439.6369
439.2929
439.5941
440.1301
440.745
441.3752
441.9939
442.5894
443.1569
443.6944
444.2013
444.6777
445.1239
445.5402
445.9272
446.2857
446.6163
446.9198
447.1965
447.4472
447.6725
447.8732
448.05
448.2036
448.3346
448.4435
448.5309
448.5971
448.6425
448.667
448.6709
448.6545
448.6177
448.5602
448.4814
448.3805
448.2562
448.1072
447.9318
447.7281
447.4938
447.2267
446.9244
446.5847
446.2052
445.7839
445.3189
444.8081
444.2486
443.6358
442.9617
442.2123
441.3627
440.3653
439.1204
437.3806
434.3406
425.9472
457.3293
442.7314
440.1367
439.6922
439.9217
440.4108
440.9975
441.6118
442.2225
442.8152
443.3831
443.923
444.4335
444.9142
445.3649
445.786
446.1776
446.5402
446.8743
447.1804
447.4593
447.7116
447.938
448.1393
448.3163
448.4698
448.6005
448.7091
448.7961
448.8619
448.9071
448.9317
448.936
448.9201
448.884
448.8274
448.7496
448.6496
448.5263
448.378
448.2028
447.9986
447.7629
447.4931
447.1864
446.8403
446.4522
446.0202
445.5429
445.019
444.4463
443.8207
443.1349
442.3755
441.5181
440.5162
439.2719
437.5428
434.537
426.1756
458.4878
443.3815
440.624
440.0801
440.2355
440.6716
441.2228
441.8143
442.4108
442.995
443.5582
444.096
444.6061
445.0875
445.5399
445.9632
446.3578
446.7238
447.0614
447.3706
447.6519
447.9058
448.1332
448.335
448.5121
448.6653
448.7955
448.9033
448.9896
449.0549
449.0997
449.1242
449.1287
449.1134
449.0781
449.0225
448.946
448.8474
448.7255
448.5786
448.4047
448.2012
447.9654
447.6943
447.3845
447.0331
446.6371
446.1947
445.7054
445.1696
444.586
443.951
443.2572
442.4913
441.6292
440.6251
439.3828
437.6646
434.6931
426.396
459.4893
444.0423
441.1073
440.4576
440.5343
440.9122
441.422
441.9849
442.5618
443.1326
443.6866
444.2179
444.7235
445.2018
445.6526
446.0756
446.4729
446.8462
447.1926
447.5088
447.7941
448.0498
448.2782
448.4807
448.6581
448.8111
448.9407
449.0477
449.133
449.1974
449.2414
449.2655
449.2699
449.2548
449.22
449.1653
449.0899
448.9928
448.8726
448.7274
448.5551
448.353
448.118
447.8464
447.5344
447.1781
446.7741
446.3197
445.8167
445.2698
444.6783
444.0373
443.3392
442.5701
441.7063
440.7024
439.4636
437.7559
434.8148
426.6024
460.6369
444.702
441.5836
440.8289
440.8279
441.1461
441.6112
442.1408
442.6924
443.2437
443.7823
444.301
444.7955
445.2629
445.7079
446.1353
446.5428
446.9264
447.2816
447.6055
447.8972
448.1584
448.3911
448.5962
448.7746
448.9271
449.0546
449.1591
449.2424
449.3052
449.3479
449.371
449.3748
449.3594
449.3248
449.2706
449.1961
449.1002
448.9815
448.8381
448.6676
448.4674
448.2342
447.9638
447.65
447.2873
446.8722
446.4037
445.8863
445.3284
444.7319
444.0893
443.3902
442.621
441.7577
440.7555
439.5207
437.8225
434.9086
426.7929
461.8071
445.3647
442.0556
441.1964
441.1206
441.3793
441.7971
442.2896
442.8124
443.3407
443.8605
444.363
444.8426
445.303
445.75
446.1811
446.5918
446.978
447.3373
447.6676
447.9674
448.236
448.4737
448.6818
448.8614
449.0142
449.142
449.2462
449.3282
449.389
449.4299
449.4514
449.4542
449.4381
449.4033
449.3491
449.2749
449.1798
449.0623
448.9206
448.7521
448.5529
448.3192
448.0465
447.729
447.3609
446.9384
446.4613
445.9335
445.3629
444.7591
444.1165
443.4189
442.6514
441.7901
440.7906
439.5602
437.8705
434.9783
426.9529
462.981
446.0265
442.5247
441.5653
441.4147
441.6131
441.982
442.4355
442.9271
443.4305
443.9301
444.4162
444.8851
445.3406
445.7848
446.2148
446.6266
447.0161
447.3799
447.7148
448.0187
448.2911
448.5324
448.7435
448.9255
449.08
449.2084
449.3126
449.3942
449.4544
449.4942
449.5145
449.5161
449.4992
449.4636
449.4089
449.3345
449.2391
449.1213
448.979
448.8095
448.6093
448.3743
448.0996
447.7799
447.4094
446.9834
446.4998
445.9629
445.3835
444.7729
444.1288
443.4336
442.6684
441.8097
440.8133
439.5872
437.9047
435.0292
427.077
464.1444
446.6859
442.9986
441.9365
441.7115
441.8499
442.1698
442.5835
443.0432
443.5213
444.0013
444.4731
444.931
445.378
445.8176
446.2463
446.6591
447.0506
447.4162
447.7531
448.0598
448.3352
448.5793
448.7926
448.9762
449.1319
449.2611
449.3656
449.4471
449.5068
449.5458
449.565
449.5654
449.5474
449.5105
449.4546
449.3788
449.2822
449.1632
449.0196
448.8486
448.6469
448.4101
448.1333
447.8112
447.438
447.0093
446.5232
445.9828
445.3972
444.7794
444.1331
443.4407
442.6782
441.8224
440.8293
439.6073
437.9309
435.0673
427.1635
465.2887
447.3513
443.4768
442.3109
442.0125
442.0922
442.3639
442.7383
443.1666
443.6199
444.0807
444.5378
444.9855
445.4258
445.8607
446.2863
446.6972
447.0881
447.4545
447.793
448.101
448.3775
448.6224
448.8366
449.021
449.177
449.3063
449.4106
449.4915
449.5504
449.5883
449.6062
449.6052
449.5856
449.5473
449.4897
449.4123
449.314
449.1933
449.048
448.8753
448.6717
448.4331
448.1544
447.8303
447.4552
447.0243
446.5354
445.9913
445.4014
444.7791
444.1315
443.4414
442.6817
441.829
440.8395
439.6217
437.9508
435.0965
427.2193
466.4066
448.022
443.9587
442.6892
442.3188
442.3418
442.5672
442.904
443.3022
443.7321
444.1752
444.6193
445.0577
445.4907
445.9199
446.3413
446.7496
447.1388
447.5041
447.8415
448.1487
448.4246
448.669
448.8824
449.0658
449.2206
449.3487
449.4515
449.5309
449.5881
449.6242
449.6404
449.6375
449.6163
449.5764
449.5171
449.4378
449.3377
449.2152
449.0681
448.8936
448.6881
448.4475
448.1668
447.8407
447.4635
447.0308
446.5401
445.994
445.4013
444.7755
444.126
443.4371
442.6806
441.8313
440.8453
439.6316
437.9658
435.1189
427.2537
467.4947
448.6926
444.443
443.0714
442.6312
442.6002
442.7819
443.0834
443.4537
443.8623
444.2897
444.723
445.1533
445.5794
446.0023
446.4183
446.8218
447.2069
447.5685
447.9029
448.2074
448.4807
448.7224
448.933
449.1135
449.2656
449.3908
449.4909
449.5676
449.6222
449.6559
449.6697
449.6646
449.6414
449.5997
449.5386
449.4576
449.3557
449.2314
449.0824
448.906
448.6986
448.4559
448.1732
447.845
447.4659
447.0313
446.539
445.9913
445.3968
444.7695
444.1193
443.4318
442.6781
441.832
440.8496
439.6401
437.9797
435.1409
427.2869
468.5504
449.3589
444.9292
443.458
442.9507
442.8686
443.0095
443.2784
443.6233
444.0128
444.4263
444.8502
445.2747
445.695
446.1107
446.5197
446.9166
447.2956
447.6515
447.9804
448.2797
448.5478
448.7845
448.9902
449.1661
449.3136
449.4345
449.5305
449.6034
449.6544
449.6848
449.6957
449.6879
449.6623
449.6186
449.5557
449.4729
449.3692
449.2431
449.0923
448.914
448.7046
448.4599
448.175
447.8448
447.4638
447.0276
446.534
445.9851
445.3896
444.7615
444.1109
443.4249
442.6744
441.8316
440.853
439.6479
437.9933
435.1634
427.3237
469.5701
450.0202
445.4174
443.8494
443.2777
443.1475
443.2507
443.4901
443.8122
444.1846
444.586
445.0019
445.4215
445.8373
446.2462
446.6468
447.0352
447.4058
447.7534
448.0743
448.3658
448.6264
448.8559
449.0548
449.2241
449.3654
449.4805
449.5712
449.6391
449.6856
449.712
449.7192
449.7082
449.6799
449.6339
449.569
449.4843
449.3789
449.2511
449.0985
448.9184
448.7071
448.4604
448.1736
447.8414
447.4586
447.0209
446.526
445.9764
445.3805
444.7523
444.1022
443.4181
442.6705
441.8311
440.8562
439.6556
438.0068
435.1861
427.3661
470.5522
450.6825
445.9083
444.2459
443.6126
443.4374
443.5061
443.7186
444.0202
444.3773
444.7679
445.1762
445.5908
446.0033
446.407
446.7987
447.1765
447.5362
447.8731
448.1835
448.4648
448.7157
448.9359
449.1259
449.287
449.4207
449.5288
449.613
449.675
449.7162
449.7379
449.7409
449.7262
449.6948
449.6463
449.5793
449.4926
449.3854
449.2558
449.1016
448.9198
448.7067
448.4582
448.1695
447.8355
447.4511
447.012
446.5163
445.9661
445.3703
444.7425
444.0935
443.4114
442.6669
441.8307
440.8596
439.6634
438.0206
435.2096
427.413
471.4973
451.3446
446.4028
444.6485
443.956
443.7386
443.7755
443.9636
444.2466
444.5898
444.97
445.3706
445.7794
446.1869
446.586
446.971
447.3377
447.6842
448.0081
448.3058
448.5747
448.8137
449.0227
449.2023
449.3538
449.4787
449.5787
449.6556
449.7111
449.7464
449.7628
449.7612
449.7425
449.7075
449.6561
449.5869
449.4983
449.3893
449.258
449.1021
448.9187
448.704
448.4538
448.1634
447.8278
447.442
447.0018
446.5054
445.9551
445.3597
444.7328
444.0853
443.4054
442.6638
441.8309
440.8634
439.6716
438.0347
435.2337
427.4627
472.4057
452.0056
446.9007
445.0568
444.3076
444.0506
444.0583
444.2241
444.49
444.82
445.1898
445.5821
445.9836
446.3843
446.7764
447.1538
447.5117
447.8464
448.1554
448.4378
448.6924
448.918
449.1144
449.2823
449.4231
449.5382
449.6294
449.6984
449.7467
449.7758
449.7867
449.7803
449.7574
449.7188
449.6644
449.5926
449.5019
449.391
449.258
449.1005
448.9154
448.6992
448.4475
448.1556
447.8186
447.4316
446.9906
446.4937
445.9436
445.3489
444.7234
444.0777
443.4001
442.6613
441.8316
440.8677
439.6804
438.0496
435.259
427.5149
473.2716
452.6639
447.4024
445.4715
444.6678
444.3734
444.3537
444.4988
444.7486
445.0657
445.4248
445.8078
446.2005
446.5924
446.9752
447.3424
447.6893
448.0122
448.3085
448.5767
448.8157
449.0261
449.2087
449.364
449.4933
449.598
449.6799
449.7406
449.7816
449.8043
449.8095
449.7983
449.7712
449.7289
449.6713
449.5969
449.504
449.3911
449.2563
449.0971
448.9104
448.6927
448.4395
448.1463
447.8081
447.4201
446.9785
446.4815
445.9319
445.3383
444.7145
444.0711
443.3961
442.66
441.8333
440.873
439.69
438.0653
435.2856
427.5703
474.2178
453.3168
447.9069
445.892
445.036
444.7061
444.6607
444.7863
445.0206
445.3248
445.6728
446.0453
446.4277
446.809
447.1805
447.5356
447.8695
448.1787
448.4608
448.7147
448.9396
449.1359
449.3041
449.446
449.5632
449.6572
449.7295
449.7817
449.8154
449.8315
449.8312
449.8151
449.7838
449.7379
449.6771
449.6001
449.5049
449.39
449.2534
449.0925
448.9043
448.685
448.4304
448.136
447.7967
447.408
446.966
446.4692
445.9203
445.3282
444.7066
444.0657
443.3934
442.66
441.8363
440.8793
439.7006
438.082
435.3136
427.6314
475.035
453.9688
448.4165
446.3171
445.4115
445.0479
444.9782
445.0852
445.3044
445.5956
445.9317
446.2926
446.6633
447.0324
447.3908
447.7321
448.0514
448.3454
448.6121
448.8506
449.0605
449.2425
449.3973
449.5266
449.6316
449.7146
449.7773
449.8211
449.8474
449.8572
449.8515
449.8307
449.7954
449.7459
449.6821
449.6026
449.5052
449.3883
449.2498
449.0872
448.8974
448.6766
448.4207
448.1251
447.7849
447.3956
446.9534
446.4569
445.9091
445.3187
444.6995
444.0615
443.3918
442.6611
441.8402
440.8866
439.712
438.0994
435.3429
427.7
475.8329
454.6239
448.9267
446.7444
445.793
445.3977
445.3048
445.3938
445.5981
445.876
446.1994
446.5477
446.9054
447.2607
447.6045
447.9304
448.2337
448.5113
448.7616
448.9839
449.1782
449.3454
449.4865
449.6031
449.6969
449.7694
449.8227
449.8582
449.8774
449.8811
449.8701
449.845
449.8059
449.7531
449.6863
449.6042
449.5049
449.3862
449.246
449.0817
448.8904
448.6682
448.411
448.1143
447.7733
447.3834
446.9412
446.4452
445.8985
445.3101
444.6935
444.0584
443.3916
442.6634
441.8453
440.8947
439.724
438.1172
435.3728
427.7769
476.6117
455.2777
449.4366
447.1752
446.1796
445.7539
445.6388
445.7104
445.8997
446.164
446.4739
446.8084
447.1517
447.4917
447.8195
448.1287
448.4148
448.6751
448.9081
449.1136
449.292
449.4441
449.5715
449.6755
449.758
449.8206
449.865
449.8927
449.9051
449.903
449.8872
449.8579
449.8154
449.7595
449.69
449.6056
449.5043
449.3838
449.2421
449.0764
448.8836
448.6601
448.4017
448.104
447.7623
447.3721
446.9298
446.4343
445.8889
445.3024
444.6885
444.0564
443.3923
442.6665
441.851
440.9034
439.7362
438.1348
435.4023
427.8597
477.3696
455.9275
449.9488
447.6076
446.5683
446.1148
445.9785
446.033
446.2072
446.4572
446.7527
447.0722
447.3996
447.723
448.0335
448.3248
448.5928
448.8349
449.0502
449.2386
449.4009
449.5381
449.6517
449.7434
449.8149
449.8679
449.9039
449.9242
449.9303
449.9229
449.9025
449.8695
449.8238
449.7653
449.6933
449.6068
449.5036
449.3815
449.2383
449.0713
448.8773
448.6526
448.3933
448.0947
447.7524
447.3618
446.9196
446.4248
445.8805
445.2961
444.6848
444.0557
443.3943
442.6707
441.8576
440.9126
439.7487
438.1522
435.4308
427.9439
478.101
456.5706
450.4609
448.0397
446.9595
446.4791
446.3223
446.3596
446.5185
446.7533
447.0334
447.3366
447.6469
447.9523
448.2443
448.5167
448.7658
448.9893
449.1866
449.3579
449.5041
449.6266
449.7269
449.8067
449.8677
449.9114
449.9394
449.9529
449.9531
449.9407
449.9162
449.8798
449.8313
449.7704
449.6963
449.6078
449.5029
449.3794
449.2349
449.0668
448.8717
448.6461
448.386
448.0868
447.7441
447.3534
446.9113
446.4171
445.874
445.2915
444.6829
444.0567
443.3977
442.676
441.865
440.9224
439.7614
438.1691
435.4571
428.0228
478.8062
457.2058
450.9723
448.4708
447.3521
446.8459
446.6686
446.6886
446.8313
447.05
447.3134
447.599
447.8909
448.1772
448.4496
448.7025
448.9322
449.137
449.3163
449.4706
449.6011
449.7093
449.7968
449.8652
449.9162
449.9513
449.9719
449.979
449.9736
449.9566
449.9284
449.889
449.838
449.7749
449.699
449.6088
449.5024
449.3777
449.2321
449.063
448.8671
448.6408
448.38
448.0803
447.7372
447.3465
446.9048
446.4114
445.8696
445.289
444.6826
444.059
443.4021
442.6823
441.8732
440.9328
439.7743
438.1853
435.4807
428.0911
479.4873
457.833
451.4816
448.9006
447.7445
447.2141
447.0161
447.018
447.1435
447.3449
447.5903
447.8572
448.1295
448.3957
448.6478
448.8806
449.0907
449.2767
449.4383
449.5762
449.6916
449.7861
449.8614
449.9191
449.9608
449.9878
450.0014
450.0026
449.9923
449.971
449.9393
449.8971
449.8439
449.7791
449.7015
449.6099
449.5022
449.3764
449.2299
449.06
448.8633
448.6364
448.3751
448.0752
447.732
447.3414
446.9001
446.4074
445.8669
445.288
444.6839
444.0627
443.4079
442.6898
441.8825
440.9439
439.7875
438.2013
435.5019
428.1447
480.1473
458.449
451.9873
449.3286
448.1358
447.5818
447.3632
447.346
447.4531
447.636
447.8622
448.1091
448.3608
448.6061
448.8374
449.0498
449.2404
449.4079
449.5523
449.6744
449.7754
449.857
449.9209
449.9686
450.0016
450.0211
450.0284
450.0242
450.0093
449.9842
449.9492
449.9044
449.8493
449.7829
449.704
449.6111
449.5024
449.3755
449.2282
449.0575
448.8603
448.633
448.3716
448.0716
447.7285
447.338
446.8971
446.405
445.8656
445.2886
444.6869
444.0681
443.4152
442.6985
441.8927
440.9558
439.8013
438.2171
435.5212
428.1838
480.7897
459.0571
452.4899
449.754
448.5249
447.9474
447.708
447.6712
447.7587
447.9216
448.1272
448.353
448.5832
448.807
449.0172
449.2093
449.3807
449.5302
449.6582
449.7652
449.8527
449.9222
449.9754
450.0138
450.0388
450.0516
450.053
450.0439
450.0249
449.9963
449.9583
449.9111
449.8542
449.7864
449.7064
449.6125
449.5028
449.3751
449.2271
449.0558
448.8583
448.6307
448.3691
448.0691
447.7262
447.3361
446.8958
446.4046
445.8665
445.2911
444.6914
444.0751
443.4241
442.7086
441.9042
440.9689
439.816
438.2337
435.54
428.2111
481.4066
459.6513
452.9863
450.1767
448.9102
448.3088
448.0486
447.9915
448.0586
448.2005
448.3845
448.5881
448.7962
448.9981
449.1872
449.3591
449.5116
449.6438
449.7559
449.8488
449.9236
449.982
450.0254
450.0552
450.0729
450.0793
450.0755
450.0619
450.0392
450.0074
449.9668
449.9174
449.8587
449.7898
449.7088
449.6141
449.5036
449.3752
449.2266
449.055
448.8572
448.6295
448.3679
448.068
447.7254
447.3358
446.896
446.4058
445.8689
445.2952
444.6977
444.0836
443.4343
442.72
441.9169
440.983
439.8317
438.2511
435.5591
428.2316
481.904
460.2343
453.4789
450.5976
449.2907
448.6645
448.3829
448.3047
448.3503
448.4702
448.6317
448.8127
448.9983
449.1784
449.3465
449.4987
449.633
449.7487
449.8459
449.9255
449.9886
450.0367
450.0711
450.0931
450.1041
450.1048
450.0961
450.0785
450.0524
450.0178
449.9748
449.9234
449.8632
449.7932
449.7114
449.616
449.5049
449.376
449.2269
449.055
448.8571
448.6294
448.3679
448.0683
447.726
447.3369
446.8979
446.4085
445.8729
445.3008
444.7053
444.0935
443.4459
442.7327
441.9308
440.9983
439.8485
438.2696
435.579
428.2497
482.4838
460.8022
453.9639
451.0135
449.6644
449.0127
448.7094
448.6093
448.6326
448.7297
448.8681
449.0261
449.1892
449.3476
449.4953
449.6285
449.7455
449.8455
449.9287
449.996
450.0483
450.0869
450.113
450.128
450.1328
450.1284
450.1153
450.094
450.0647
450.0276
449.9825
449.9294
449.8677
449.7967
449.7142
449.6182
449.5066
449.3773
449.2279
449.0559
448.8579
448.6304
448.3692
448.0699
447.7281
447.3396
446.9012
446.4128
445.8784
445.3078
444.7144
444.1046
443.4585
442.7465
441.9459
441.0148
439.8665
438.2892
435.6001
428.2704
483.1751
461.3575
454.4413
451.4229
450.0306
449.3525
449.0269
448.9041
448.9044
448.978
449.093
449.228
449.3688
449.5061
449.6339
449.749
449.8494
449.9347
450.0049
450.0607
450.103
450.133
450.1517
450.1602
450.1595
450.1502
450.1331
450.1084
450.0764
450.0369
449.9899
449.9352
449.8723
449.8003
449.7172
449.6207
449.5087
449.3791
449.2296
449.0575
448.8597
448.6324
448.3715
448.0727
447.7315
447.3436
446.906
446.4184
445.8851
445.3162
444.7246
444.1166
443.4719
442.7611
441.9617
441.0319
439.8852
438.3096
435.6227
428.2944
483.7657
461.9049
454.9122
451.8261
450.389
449.6835
449.3346
449.1884
449.1649
449.2148
449.3063
449.4184
449.5373
449.654
449.7629
449.8607
449.9456
450.017
450.0751
450.1203
450.1535
450.1755
450.1874
450.19
450.1842
450.1706
450.1498
450.1221
450.0874
450.0458
449.9971
449.941
449.877
449.8041
449.7204
449.6235
449.5111
449.3813
449.2318
449.0598
448.8622
448.6352
448.3749
448.0766
447.736
447.3488
446.9119
446.4252
445.8931
445.3256
444.7359
444.1296
443.4862
442.7765
441.9784
441.0499
439.9047
438.3308
435.6461
428.3212
484.3539
462.4416
455.3753
452.2218
450.7384
450.0044
449.6317
449.4614
449.4138
449.4397
449.5078
449.5975
449.6952
449.7922
449.8829
449.9643
450.0346
450.0931
450.1399
450.1753
450.2
450.2148
450.2204
450.2177
450.2073
450.1898
450.1656
450.135
450.0979
450.0544
450.0041
449.9466
449.8817
449.8081
449.7238
449.6264
449.5138
449.3839
449.2345
449.0627
448.8655
448.639
448.3791
448.0815
447.7416
447.3551
446.919
446.4332
445.9022
445.3362
444.7482
444.1434
443.5012
442.7927
441.9957
441.0685
439.9247
438.3526
435.6702
428.3496
484.9329
462.9694
455.831
452.6096
451.0782
450.3148
449.9175
449.7227
449.6508
449.6529
449.6979
449.7657
449.8429
449.921
449.9946
450.0606
450.1172
450.1636
450.1999
450.2262
450.2432
450.2513
450.2512
450.2436
450.229
450.2078
450.1805
450.1473
450.108
450.0626
450.0108
449.9523
449.8864
449.8121
449.7273
449.6296
449.5168
449.3869
449.2376
449.0662
448.8693
448.6434
448.3841
448.0872
447.748
447.3622
446.927
446.4421
445.9121
445.3475
444.7613
444.1579
443.5168
442.8093
442.0135
441.0876
439.9452
438.3748
435.6946
428.378
485.4995
463.4856
456.2774
452.9888
451.408
450.6141
450.1918
449.9722
449.8759
449.8545
449.877
449.9235
449.9811
450.0412
450.0987
450.1501
450.1939
450.2292
450.2557
450.2736
450.2833
450.2852
450.2799
450.2678
450.2493
450.2249
450.1948
450.1591
450.1177
450.0707
450.0175
449.9579
449.8912
449.8163
449.731
449.633
449.5201
449.3902
449.2412
449.0701
448.8738
448.6484
448.3899
448.0937
447.7552
447.3703
446.9358
446.4518
445.923
445.3597
444.7751
444.1731
443.533
442.8266
442.0319
441.1072
439.9662
438.3974
435.7192
428.4059
485.9497
463.9914
456.716
453.3592
451.7279
450.902
450.4542
450.2098
450.0894
450.0448
450.0455
450.0717
450.1105
450.1536
450.1958
450.2337
450.2655
450.2902
450.3076
450.3177
450.3207
450.3169
450.3067
450.2905
450.2685
450.241
450.2083
450.1703
450.1271
450.0785
450.0241
449.9635
449.8961
449.8206
449.7349
449.6366
449.5236
449.3939
449.2451
449.0745
448.8788
448.6541
448.3963
448.1009
447.7633
447.3791
446.9455
446.4624
445.9346
445.3726
444.7895
444.1888
443.5496
442.8442
442.0505
441.127
439.9874
438.4202
435.744
428.4331
486.4895
464.4804
457.1414
453.7207
452.0389
451.1778
450.7037
450.4354
450.2915
450.2244
450.204
450.2107
450.2318
450.2589
450.2866
450.3118
450.3324
450.3474
450.3563
450.359
450.3557
450.3466
450.3319
450.3118
450.2865
450.2563
450.2211
450.1811
450.1362
450.0861
450.0306
449.9691
449.901
449.8249
449.7388
449.6404
449.5273
449.3978
449.2495
449.0794
448.8843
448.6604
448.4033
448.1087
447.7719
447.3886
446.9558
446.4736
445.9468
445.3861
444.8045
444.2049
443.5667
442.8623
442.0696
441.1473
440.009
438.4434
435.7692
428.4602
487.0252
464.9569
457.5566
454.0732
452.3401
451.4417
450.941
450.6492
450.4825
450.3938
450.3533
450.3414
450.3457
450.3576
450.3719
450.3851
450.3952
450.401
450.4019
450.3978
450.3886
450.3745
450.3555
450.3318
450.3035
450.2707
450.2334
450.1915
450.145
450.0936
450.037
449.9748
449.906
449.8294
449.743
449.6443
449.5313
449.4021
449.2542
449.0847
448.8903
448.6671
448.4109
448.1172
447.7812
447.3987
446.9668
446.4855
445.9597
445.4003
444.82
444.2215
443.5842
442.8807
442.0891
441.1679
440.031
438.4669
435.7947
428.4875
487.5559
465.4233
457.9625
454.4165
452.6312
451.6943
451.1668
450.852
450.6632
450.5538
450.494
450.4646
450.4528
450.4505
450.4521
450.454
450.4543
450.4515
450.4449
450.4343
450.4196
450.4007
450.3777
450.3506
450.3195
450.2843
450.2449
450.2013
450.1534
450.1008
450.0433
449.9803
449.911
449.834
449.7472
449.6483
449.5355
449.4066
449.2592
449.0904
448.8967
448.6743
448.4189
448.126
447.791
447.4094
446.9783
446.4978
445.973
445.4147
444.8357
444.2384
443.6019
442.8994
442.1088
441.1887
440.0531
438.4907
435.8205
428.5154
488.078
465.8802
458.3596
454.7512
452.9125
451.9358
451.3814
451.0443
450.8343
450.705
450.6268
450.5807
450.554
450.5381
450.5277
450.5191
450.51
450.4991
450.4855
450.4688
450.4488
450.4254
450.3986
450.3684
450.3345
450.2971
450.2559
450.2107
450.1615
450.1078
450.0495
449.9858
449.916
449.8385
449.7513
449.6524
449.5397
449.4113
449.2645
449.0963
448.9034
448.6818
448.4273
448.1353
447.8011
447.4204
446.9902
446.5106
445.9867
445.4296
444.8519
444.2556
443.6199
442.9183
442.1287
441.2098
440.0754
438.5145
435.8463
428.5436
488.593
466.3273
458.7472
455.0768
453.184
452.1667
451.5855
451.2268
450.9963
450.8481
450.7525
450.6906
450.6496
450.621
450.5993
450.5806
450.5627
450.5441
450.5238
450.5013
450.4763
450.4487
450.4183
450.385
450.3487
450.3092
450.2663
450.2197
450.1693
450.1147
450.0556
449.9913
449.921
449.8431
449.7556
449.6566
449.5442
449.4162
449.27
449.1025
448.9103
448.6896
448.436
448.1449
447.8116
447.4317
447.0024
446.5236
446.0007
445.4446
444.8681
444.2728
443.6379
442.9372
442.1485
441.2307
440.0977
438.5384
435.8723
428.5719
489.0999
466.7639
459.1258
455.3942
453.4477
452.3898
451.7796
451.3992
451.1497
450.9836
450.8716
450.7947
450.7403
450.6996
450.6671
450.639
450.6127
450.5868
450.5601
450.5321
450.5024
450.4707
450.4369
450.4007
450.362
450.3206
450.2761
450.2283
450.1768
450.1214
450.0616
449.9968
449.9259
449.8476
449.76
449.661
449.5489
449.4213
449.2757
449.1089
448.9175
448.6976
448.4449
448.1547
447.8223
447.4433
447.0148
446.5368
446.0148
445.4598
444.8844
444.2901
443.656
442.9561
442.1685
441.2518
440.1201
438.5624
435.8983
428.6
489.5963
467.1904
459.4947
455.7034
453.7036
452.6046
451.9644
451.5626
451.2951
451.1121
450.9846
450.8936
450.8264
450.7743
450.7316
450.6944
450.6602
450.6272
450.5945
450.5612
450.5269
450.4914
450.4543
450.4154
450.3745
450.3312
450.2853
450.2363
450.184
450.1279
450.0675
450.0021
449.9307
449.8521
449.7644
449.6655
449.5537
449.4266
449.2815
449.1155
448.9249
448.7059
448.454
448.1648
447.8332
447.4551
447.0274
446.5503
446.0291
445.4751
444.9008
444.3074
443.6742
442.9752
442.1885
441.2729
440.1425
438.5864
435.9243
428.6279
490.0786
467.6055
459.8546
456.0049
453.9522
452.8118
452.141
451.718
451.4333
451.2343
451.0921
450.9877
450.9083
450.8454
450.793
450.7472
450.7053
450.6657
450.6271
450.5887
450.5501
450.5109
450.4707
450.4292
450.3862
450.3412
450.2939
450.2439
450.1909
450.1341
450.0732
450.0072
449.9355
449.8567
449.7689
449.6702
449.5586
449.432
449.2876
449.1223
448.9325
448.7143
448.4634
448.175
447.8444
447.4671
447.0402
446.5638
446.0435
445.4904
444.9172
444.3248
443.6923
442.9942
442.2085
441.2941
440.165
438.6104
435.9502
428.6553
490.542
468.0099
460.2051
456.2989
454.194
453.0121
452.3106
451.8661
451.5646
451.3505
451.1944
451.0773
450.9865
450.9132
450.8515
450.7974
450.7483
450.7022
450.658
450.6148
450.572
450.5293
450.4861
450.4421
450.3971
450.3505
450.302
450.2511
450.1973
450.14
450.0785
450.0122
449.9402
449.8613
449.7735
449.675
449.5638
449.4376
449.2938
449.1292
448.9403
448.7229
448.4729
448.1854
447.8557
447.4792
447.0531
446.5775
446.058
445.5059
444.9337
444.3422
443.7105
443.0133
442.2286
441.3153
440.1875
438.6344
435.976
428.6821
491.0949
468.4063
460.5472
456.5852
454.429
453.2063
452.4745
452.0075
451.6894
451.4613
451.2921
451.1629
451.0611
450.9779
450.9073
450.8453
450.7892
450.737
450.6874
450.6395
450.5927
450.5465
450.5005
450.4542
450.4073
450.3592
450.3095
450.2578
450.2033
450.1454
450.0836
450.017
449.9449
449.866
449.7782