/*--------------------------------*- C++ -*----------------------------------*\
| =========                 |                                                 |
| \\      /  F ield         | OpenFOAM: The Open Source CFD Toolbox           |
|  \\    /   O peration     | Version:  2312                                  |
|   \\  /    A nd           | Website:  www.openfoam.com                      |
|    \\/     M anipulation  |                                                 |
\*---------------------------------------------------------------------------*/
FoamFile
{
    version     2.0;
    format      ascii;
    arch        "LSB;label=32;scalar=64";
    class       volVectorField;
    location    "4950";
    object      U;
}
// * * * * * * * * * * * * * * * * * * * * * * * * * * * * * * * * * * * * * //

dimensions      [0 1 -1 0 0 0 0];

internalField   nonuniform List<vector> 
12000
(
(-0.02758274 0.06513256 0)
(-0.06386165 0.06107907 0)
(-0.1028093 0.05881622 0)
(-0.1436174 0.05387796 0)
(-0.1806489 0.06003118 0)
(-0.2213404 0.07952251 0)
(-0.2655416 0.08492919 0)
(-0.3091099 0.06116634 0)
(-0.3419739 0.04142557 0)
(-0.3707793 0.05966264 0)
(-0.4067233 0.08244228 0)
(-0.4447303 0.05636386 0)
(-0.4692648 0.02089648 0)
(-0.4893076 0.03461035 0)
(-0.5166911 0.06971552 0)
(-0.5482832 0.05166283 0)
(-0.5671249 0.002786198 0)
(-0.5769605 0.00774351 0)
(-0.5949957 0.05595365 0)
(-0.6211461 0.05292763 0)
(-0.6366714 -0.0004452927 0)
(-0.6406165 -0.009743599 0)
(-0.6502337 0.03583155 0)
(-0.669266 0.04627941 0)
(-0.68154 0.004783475 0)
(-0.683371 -0.01182338 0)
(-0.6873304 0.01545481 0)
(-0.6975775 0.02658921 0)
(-0.7045267 0.006802637 0)
(-0.7059207 -0.004796895 0)
(-0.706811 -0.002356856 0)
(-0.7073334 -0.0002286786 0)
(-0.7079999 0.004719644 0)
(-0.7081836 0.005389999 0)
(-0.7079631 -0.006344121 0)
(-0.7021829 -0.02709526 0)
(-0.6915951 -0.03897525 0)
(-0.6806569 -0.007781121 0)
(-0.6797047 0.02772706 0)
(-0.6793777 0.01673871 0)
(-0.6716698 -0.04703 0)
(-0.6484794 -0.07780738 0)
(-0.6251544 -0.01556164 0)
(-0.6230693 0.0526704 0)
(-0.6217371 0.02258284 0)
(-0.6065067 -0.08569469 0)
(-0.5674331 -0.1142538 0)
(-0.5358714 -0.01109191 0)
(-0.5313734 0.05571438 0)
(-0.5201264 -0.0338356 0)
(-0.479817 -0.1299006 0)
(-0.4345015 -0.0643202 0)
(-0.4102641 -0.001825588 0)
(-0.3820838 -0.05592917 0)
(-0.3343841 -0.1098098 0)
(-0.284178 -0.08421094 0)
(-0.2333434 -0.07336559 0)
(-0.1779331 -0.09549833 0)
(-0.1000801 -0.1181437 0)
(-0.03948612 -0.104406 0)
(-0.02852941 0.1814506 0)
(-0.05708617 0.1671337 0)
(-0.1022944 0.1699618 0)
(-0.1400513 0.1696418 0)
(-0.1812223 0.1638632 0)
(-0.2158357 0.1625259 0)
(-0.2463379 0.1633891 0)
(-0.2743831 0.1582174 0)
(-0.305971 0.1391557 0)
(-0.3401312 0.1264384 0)
(-0.3622134 0.130808 0)
(-0.3824743 0.121878 0)
(-0.4074788 0.1084209 0)
(-0.434905 0.1018281 0)
(-0.4527419 0.09990534 0)
(-0.4645802 0.09228671 0)
(-0.4825324 0.07961096 0)
(-0.505835 0.07272791 0)
(-0.5204596 0.07111655 0)
(-0.5256622 0.06638666 0)
(-0.5357751 0.05599755 0)
(-0.5536601 0.0489832 0)
(-0.565801 0.04685926 0)
(-0.5678254 0.0436248 0)
(-0.5718404 0.03555892 0)
(-0.5825428 0.0286938 0)
(-0.5908959 0.02570627 0)
(-0.5920116 0.0231781 0)
(-0.5928587 0.01745921 0)
(-0.596263 0.01119076 0)
(-0.5992673 0.005843816 0)
(-0.600178 0.003338363 0)
(-0.5997286 0.0002935147 0)
(-0.596478 -0.005199081 0)
(-0.5923458 -0.01255858 0)
(-0.5903619 -0.01842446 0)
(-0.5907731 -0.02227593 0)
(-0.5893906 -0.02571423 0)
(-0.5782565 -0.03015181 0)
(-0.5618094 -0.03661191 0)
(-0.5515334 -0.04492478 0)
(-0.550516 -0.05207074 0)
(-0.5466023 -0.057344 0)
(-0.526184 -0.0603904 0)
(-0.494477 -0.06666629 0)
(-0.4793102 -0.07575515 0)
(-0.4770187 -0.08547465 0)
(-0.4675872 -0.09232322 0)
(-0.4328917 -0.09815425 0)
(-0.3937627 -0.1096607 0)
(-0.3801469 -0.1220631 0)
(-0.3685746 -0.1345408 0)
(-0.3356916 -0.1459213 0)
(-0.2951848 -0.1576682 0)
(-0.2733291 -0.171615 0)
(-0.2287614 -0.2105678 0)
(-0.2014619 -0.2253284 0)
(-0.1409248 -0.2762963 0)
(-0.08691502 -0.298628 0)
(-0.04138567 -0.3093013 0)
(-0.02538138 0.3046816 0)
(-0.04908621 0.2860659 0)
(-0.08752839 0.2820707 0)
(-0.1162091 0.2785508 0)
(-0.1484285 0.2706193 0)
(-0.1773191 0.2609511 0)
(-0.2042491 0.2485413 0)
(-0.2279875 0.2331996 0)
(-0.2537928 0.2214963 0)
(-0.2785491 0.2134087 0)
(-0.3027653 0.1972423 0)
(-0.3224643 0.1833758 0)
(-0.3424849 0.170325 0)
(-0.3606673 0.1590205 0)
(-0.3771238 0.1482733 0)
(-0.391706 0.1366127 0)
(-0.4062893 0.1247008 0)
(-0.4207724 0.1146273 0)
(-0.4334687 0.1058011 0)
(-0.4441967 0.09626264 0)
(-0.4545398 0.08605216 0)
(-0.4649248 0.07718427 0)
(-0.473979 0.0698099 0)
(-0.4811709 0.06202252 0)
(-0.4876463 0.05324401 0)
(-0.4940206 0.04500818 0)
(-0.4994237 0.03795615 0)
(-0.5031851 0.0309544 0)
(-0.5058877 0.02326515 0)
(-0.5079828 0.01553564 0)
(-0.5098476 0.007959179 0)
(-0.5104712 0.002603578 0)
(-0.5096054 -0.006327004 0)
(-0.5074589 -0.0140934 0)
(-0.5047603 -0.02214618 0)
(-0.5015417 -0.03039798 0)
(-0.4973778 -0.03842422 0)
(-0.4917024 -0.04573233 0)
(-0.4844949 -0.05320113 0)
(-0.4760827 -0.06185853 0)
(-0.4670869 -0.07209614 0)
(-0.4576041 -0.08265228 0)
(-0.4468576 -0.0920484 0)
(-0.4341281 -0.1014717 0)
(-0.4195821 -0.1124102 0)
(-0.4042375 -0.1246854 0)
(-0.388267 -0.1372523 0)
(-0.3706522 -0.1485648 0)
(-0.3504853 -0.1606824 0)
(-0.3286435 -0.1748817 0)
(-0.3065563 -0.1875623 0)
(-0.2870934 -0.1962073 0)
(-0.2561915 -0.2162882 0)
(-0.2334801 -0.2355064 0)
(-0.1945859 -0.2769879 0)
(-0.1669103 -0.3026814 0)
(-0.1315566 -0.3361775 0)
(-0.1001729 -0.3772484 0)
(-0.0591501 -0.4285253 0)
(-0.02488855 -0.4493962 0)
(-0.0189331 0.3945772 0)
(-0.04113664 0.3661245 0)
(-0.06945024 0.3585236 0)
(-0.09299565 0.3503715 0)
(-0.1173726 0.3392248 0)
(-0.1395528 0.326256 0)
(-0.1612304 0.3118007 0)
(-0.1818816 0.298242 0)
(-0.2012542 0.2855968 0)
(-0.2210559 0.2720254 0)
(-0.2372366 0.258856 0)
(-0.2542395 0.2421381 0)
(-0.2737577 0.219854 0)
(-0.289991 0.2041104 0)
(-0.3051399 0.1904709 0)
(-0.3193489 0.1769805 0)
(-0.333132 0.1635173 0)
(-0.3461484 0.1506221 0)
(-0.3579788 0.1383567 0)
(-0.3685104 0.1265698 0)
(-0.3782669 0.1149794 0)
(-0.3872918 0.1037616 0)
(-0.3953419 0.09295709 0)
(-0.4023149 0.08236352 0)
(-0.4084347 0.07182846 0)
(-0.4138347 0.06144268 0)
(-0.418359 0.05128259 0)
(-0.4218644 0.04124107 0)
(-0.4242922 0.03118401 0)
(-0.4263935 0.02105759 0)
(-0.4276009 0.01321316 0)
(-0.4277059 0.001734019 0)
(-0.4266675 -0.008871172 0)
(-0.4249988 -0.01929927 0)
(-0.4223812 -0.02980518 0)
(-0.4189769 -0.04041234 0)
(-0.4147167 -0.05127664 0)
(-0.4094339 -0.06236722 0)
(-0.4030161 -0.0737844 0)
(-0.3954852 -0.08559765 0)
(-0.3870205 -0.09788788 0)
(-0.37774 -0.1105991 0)
(-0.3675218 -0.1237367 0)
(-0.3558982 -0.1374127 0)
(-0.3434655 -0.151409 0)
(-0.3300932 -0.1664965 0)
(-0.3153724 -0.1827811 0)
(-0.2997396 -0.2000039 0)
(-0.2827669 -0.2176608 0)
(-0.2637549 -0.2330356 0)
(-0.2481758 -0.2456162 0)
(-0.2216418 -0.2752301 0)
(-0.1983245 -0.3022803 0)
(-0.1715008 -0.3297371 0)
(-0.1465969 -0.3567135 0)
(-0.1221994 -0.3862405 0)
(-0.09589823 -0.4218252 0)
(-0.06973258 -0.4657163 0)
(-0.04141654 -0.516091 0)
(-0.01631027 -0.5422769 0)
(-0.01426191 0.4723345 0)
(-0.03408892 0.439306 0)
(-0.05676951 0.4272984 0)
(-0.07682842 0.4155851 0)
(-0.09697764 0.4015068 0)
(-0.1159227 0.3854766 0)
(-0.1341741 0.3683198 0)
(-0.1520857 0.3499851 0)
(-0.1680022 0.3316167 0)
(-0.1844051 0.3116617 0)
(-0.1976151 0.2960102 0)
(-0.2115184 0.2815957 0)
(-0.2230732 0.2677554 0)
(-0.2380375 0.2477366 0)
(-0.2511676 0.2293467 0)
(-0.2624538 0.2155787 0)
(-0.2747683 0.1995138 0)
(-0.284581 0.1851985 0)
(-0.2949705 0.1687076 0)
(-0.3039436 0.1538063 0)
(-0.312319 0.1396078 0)
(-0.3198852 0.1258663 0)
(-0.3266712 0.1124764 0)
(-0.3326507 0.0993386 0)
(-0.3378519 0.08638278 0)
(-0.3422998 0.07358893 0)
(-0.3459877 0.06093424 0)
(-0.3488587 0.04835807 0)
(-0.3510779 0.035793 0)
(-0.3524178 0.02571738 0)
(-0.3529561 0.01232487 0)
(-0.3524975 -0.0004841768 0)
(-0.3515836 -0.01328179 0)
(-0.3498496 -0.02605083 0)
(-0.3472055 -0.03893548 0)
(-0.3440336 -0.05189438 0)
(-0.3401947 -0.06525006 0)
(-0.3353349 -0.07894801 0)
(-0.329622 -0.09297153 0)
(-0.3230504 -0.1074059 0)
(-0.3156406 -0.1223296 0)
(-0.3073808 -0.137794 0)
(-0.2984837 -0.1538512 0)
(-0.2879232 -0.170591 0)
(-0.2779984 -0.1849328 0)
(-0.2655382 -0.2042572 0)
(-0.2531244 -0.2235167 0)
(-0.2394841 -0.241584 0)
(-0.2268688 -0.2580931 0)
(-0.2112648 -0.2796412 0)
(-0.1922642 -0.3074386 0)
(-0.173447 -0.3343396 0)
(-0.1551128 -0.3600741 0)
(-0.1362703 -0.3870878 0)
(-0.1167145 -0.4169415 0)
(-0.09624518 -0.4503454 0)
(-0.0749691 -0.4882568 0)
(-0.05398955 -0.5321687 0)
(-0.03193677 -0.5846561 0)
(-0.01195241 -0.6142723 0)
(-0.01081263 0.5330356 0)
(-0.02732205 0.4968406 0)
(-0.04487331 0.4810979 0)
(-0.0607886 0.4667022 0)
(-0.07652487 0.4506541 0)
(-0.0914512 0.4329842 0)
(-0.1059359 0.4142654 0)
(-0.1199475 0.3948751 0)
(-0.1333517 0.3753033 0)
(-0.1466704 0.35528 0)
(-0.159483 0.3356983 0)
(-0.1710217 0.3164736 0)
(-0.1828645 0.2977525 0)
(-0.1912602 0.2820775 0)
(-0.2031756 0.2623871 0)
(-0.212866 0.2439662 0)
(-0.2221141 0.2265348 0)
(-0.2305605 0.2095101 0)
(-0.2385387 0.192732 0)
(-0.2460787 0.176283 0)
(-0.2530027 0.160245 0)
(-0.2592856 0.1445531 0)
(-0.2649156 0.1291641 0)
(-0.2698848 0.1140311 0)
(-0.2741972 0.099114 0)
(-0.2778592 0.08438129 0)
(-0.2808736 0.06980638 0)
(-0.2832321 0.05536033 0)
(-0.2850365 0.04100192 0)
(-0.2859132 0.02676306 0)
(-0.2858788 0.01241598 0)
(-0.2856578 -0.002047611 0)
(-0.2849662 -0.01682758 0)
(-0.2835195 -0.03182033 0)
(-0.2812359 -0.0470532 0)
(-0.2786136 -0.06012531 0)
(-0.2749413 -0.07645855 0)
(-0.2707914 -0.09263758 0)
(-0.26589 -0.1089572 0)
(-0.2603125 -0.1255915 0)
(-0.2540424 -0.1426426 0)
(-0.2470836 -0.16018 0)
(-0.2394408 -0.1782615 0)
(-0.2311862 -0.1968504 0)
(-0.2220456 -0.2163981 0)
(-0.2116301 -0.2367334 0)
(-0.2016606 -0.2559889 0)
(-0.191275 -0.2761847 0)
(-0.1776658 -0.3012658 0)
(-0.1638439 -0.3275172 0)
(-0.1495012 -0.3538773 0)
(-0.135282 -0.3806223 0)
(-0.1205216 -0.4085412 0)
(-0.1050424 -0.438279 0)
(-0.08897185 -0.4701227 0)
(-0.07254512 -0.5046366 0)
(-0.05596652 -0.5427971 0)
(-0.03971189 -0.5862 0)
(-0.02334183 -0.6362621 0)
(-0.008414118 -0.6658842 0)
(-0.008441685 0.5817313 0)
(-0.02195887 0.5427322 0)
(-0.03558873 0.523621 0)
(-0.04811456 0.5068777 0)
(-0.06036753 0.4890384 0)
(-0.07202453 0.4698676 0)
(-0.0833497 0.4497471 0)
(-0.09431293 0.4290523 0)
(-0.1049231 0.408139 0)
(-0.1152531 0.3871818 0)
(-0.1252843 0.3665378 0)
(-0.1349207 0.346224 0)
(-0.1439188 0.3260259 0)
(-0.1533532 0.3063487 0)
(-0.15984 0.2892294 0)
(-0.1688137 0.2694992 0)
(-0.1761821 0.2501218 0)
(-0.1833549 0.2313493 0)
(-0.1899471 0.2129069 0)
(-0.1960583 0.1948399 0)
(-0.2016534 0.1771214 0)
(-0.2067233 0.1597197 0)
(-0.2112591 0.1426014 0)
(-0.2152557 0.1257318 0)
(-0.2187112 0.1090765 0)
(-0.2216249 0.09260185 0)
(-0.2239958 0.07627327 0)
(-0.225819 0.06005224 0)
(-0.2270999 0.04389372 0)
(-0.2278222 0.02778536 0)
(-0.2278949 0.01154257 0)
(-0.2276898 -0.002661395 0)
(-0.2270996 -0.01954359 0)
(-0.2258965 -0.03628087 0)
(-0.2242667 -0.05300086 0)
(-0.2218517 -0.06987371 0)
(-0.2187405 -0.08715231 0)
(-0.2153046 -0.1047294 0)
(-0.2113348 -0.1226708 0)
(-0.2068326 -0.1410279 0)
(-0.2017744 -0.1598586 0)
(-0.1961447 -0.1792122 0)
(-0.189927 -0.1991242 0)
(-0.1832877 -0.219692 0)
(-0.1753791 -0.2406112 0)
(-0.1683506 -0.2608731 0)
(-0.1594264 -0.2836329 0)
(-0.1491055 -0.3092535 0)
(-0.1387017 -0.3351734 0)
(-0.1279244 -0.3615494 0)
(-0.1169185 -0.3888745 0)
(-0.1055197 -0.4171789 0)
(-0.09367722 -0.4466118 0)
(-0.08145647 -0.4774294 0)
(-0.06895073 -0.5099964 0)
(-0.056255 -0.5448548 0)
(-0.04345567 -0.5828922 0)
(-0.03086422 -0.6257092 0)
(-0.01822313 -0.6753226 0)
(-0.006451407 -0.7056882 0)
(-0.006577419 0.6211731 0)
(-0.01736852 0.5794872 0)
(-0.02769012 0.5571938 0)
(-0.03724039 0.5383239 0)
(-0.04652701 0.5189878 0)
(-0.05541048 0.4987177 0)
(-0.06408454 0.4777207 0)
(-0.07254811 0.4562759 0)
(-0.08081625 0.4346396 0)
(-0.08888828 0.4129781 0)
(-0.09673857 0.391433 0)
(-0.1043186 0.3700709 0)
(-0.1116214 0.3489226 0)
(-0.1184235 0.3279331 0)
(-0.1256151 0.307479 0)
(-0.1303143 0.2889987 0)
(-0.1369338 0.2686805 0)
(-0.1423099 0.2485477 0)
(-0.147582 0.2288804 0)
(-0.1524122 0.209547 0)
(-0.1568446 0.1905332 0)
(-0.1608595 0.1718102 0)
(-0.1644515 0.153353 0)
(-0.1676159 0.1351348 0)
(-0.170351 0.1171272 0)
(-0.1726573 0.09929948 0)
(-0.1745362 0.08161886 0)
(-0.1759897 0.06404925 0)
(-0.1770223 0.04655041 0)
(-0.177635 0.02908273 0)
(-0.1778464 0.01159757 0)
(-0.1776156 -0.004140717 0)
(-0.1769262 -0.02214133 0)
(-0.175909 -0.04014258 0)
(-0.1744845 -0.05822854 0)
(-0.1726275 -0.07645615 0)
(-0.1703495 -0.09502472 0)
(-0.1676732 -0.1139276 0)
(-0.164577 -0.1332284 0)
(-0.1610545 -0.1529816 0)
(-0.1570935 -0.1732435 0)
(-0.152662 -0.1940636 0)
(-0.1479351 -0.2154992 0)
(-0.1421035 -0.2375081 0)
(-0.1370863 -0.2594381 0)
(-0.1298172 -0.2837921 0)
(-0.1225636 -0.3092175 0)
(-0.1147629 -0.3352195 0)
(-0.1068124 -0.361849 0)
(-0.09850873 -0.3892708 0)
(-0.08986445 -0.4175451 0)
(-0.08090082 -0.4467671 0)
(-0.0716411 -0.4770839 0)
(-0.06212559 -0.5087056 0)
(-0.05241229 -0.5419353 0)
(-0.04258119 -0.577249 0)
(-0.03271877 -0.615435 0)
(-0.0230315 -0.6578613 0)
(-0.0135167 -0.7060115 0)
(-0.004691009 -0.7355328 0)
(-0.005034126 0.651563 0)
(-0.01340454 0.6073333 0)
(-0.02110244 0.5822261 0)
(-0.02824075 0.5616693 0)
(-0.03512947 0.5413054 0)
(-0.0417143 0.5203601 0)
(-0.04814192 0.498865 0)
(-0.05442959 0.4769835 0)
(-0.06059711 0.4548919 0)
(-0.06663979 0.432734 0)
(-0.07254187 0.4106206 0)
(-0.07828035 0.3886185 0)
(-0.08383763 0.3667715 0)
(-0.08920838 0.3451183 0)
(-0.09418336 0.3236108 0)
(-0.09950691 0.3025698 0)
(-0.1028221 0.2829815 0)
(-0.1076315 0.2622031 0)
(-0.1114666 0.2415141 0)
(-0.1152297 0.2211851 0)
(-0.1186462 0.201131 0)
(-0.1217482 0.1813456 0)
(-0.1245223 0.1618106 0)
(-0.1269667 0.1425074 0)
(-0.1290803 0.1234147 0)
(-0.1308651 0.1045075 0)
(-0.1323241 0.08575689 0)
(-0.1334615 0.06713048 0)
(-0.134282 0.04859154 0)
(-0.1347883 0.03010055 0)
(-0.1350061 0.01161466 0)
(-0.1348441 -0.005438519 0)
(-0.1343101 -0.02430109 0)
(-0.1335473 -0.04323948 0)
(-0.1324871 -0.06231959 0)
(-0.1311214 -0.08160942 0)
(-0.1294452 -0.101186 0)
(-0.1274611 -0.1211102 0)
(-0.1251599 -0.141448 0)
(-0.1225339 -0.1622627 0)
(-0.1195658 -0.1836164 0)
(-0.1162737 -0.20556 0)
(-0.1124252 -0.2281904 0)
(-0.108656 -0.2513169 0)
(-0.103619 -0.275937 0)
(-0.09860618 -0.3013207 0)
(-0.09318874 -0.327327 0)
(-0.08751373 -0.3541327 0)
(-0.08152443 -0.3817026 0)
(-0.07521342 -0.4100634 0)
(-0.06859816 -0.4392466 0)
(-0.06170582 -0.4693002 0)
(-0.05457612 -0.5003126 0)
(-0.04725958 -0.5324401 0)
(-0.03981591 -0.5659423 0)
(-0.03231473 -0.6012558 0)
(-0.0248268 -0.6391394 0)
(-0.01748906 -0.6809635 0)
(-0.01031238 -0.7283682 0)
(-0.003562462 -0.7580667 0)
(-0.003398634 0.6757192 0)
(-0.009913892 0.6291715 0)
(-0.01576278 0.6015704 0)
(-0.02083233 0.5793577 0)
(-0.02562659 0.5578724 0)
(-0.03021942 0.5361735 0)
(-0.03473383 0.5141546 0)
(-0.03919698 0.4918914 0)
(-0.04362151 0.4694869 0)
(-0.04799516 0.4470308 0)
(-0.05229608 0.4245962 0)
(-0.05649894 0.4022314 0)
(-0.06058191 0.3799683 0)
(-0.06452805 0.357835 0)
(-0.06833284 0.3358608 0)
(-0.07181881 0.3140013 0)
(-0.07560272 0.2925305 0)
(-0.0778069 0.2721009 0)
(-0.08114066 0.2509456 0)
(-0.08372482 0.22985 0)
(-0.08627638 0.2090425 0)
(-0.08857749 0.1884685 0)
(-0.09064396 0.1681341 0)
(-0.09246751 0.1480297 0)
(-0.0940479 0.1281405 0)
(-0.09538758 0.1084466 0)
(-0.09649042 0.08892195 0)
(-0.09736117 0.06953379 0)
(-0.09800458 0.05024458 0)
(-0.09842107 0.03101268 0)
(-0.09863971 0.01179348 0)
(-0.09855826 -0.006344935 0)
(-0.09818912 -0.02583103 0)
(-0.09766097 -0.04543338 0)
(-0.09692209 -0.06521119 0)
(-0.09597005 -0.08522696 0)
(-0.09479573 -0.1055493 0)
(-0.09339211 -0.1262453 0)
(-0.09175025 -0.1473849 0)
(-0.08986271 -0.1690416 0)
(-0.08770368 -0.1912941 0)
(-0.08538174 -0.214235 0)
(-0.08250149 -0.2379517 0)
(-0.07978058 -0.2623486 0)
(-0.07644436 -0.2876725 0)
(-0.07297965 -0.3137663 0)
(-0.0691907 -0.3406787 0)
(-0.06509312 -0.3683807 0)
(-0.06068553 -0.3968461 0)
(-0.05598164 -0.4260553 0)
(-0.05101218 -0.4559986 0)
(-0.045817 -0.4867002 0)
(-0.04044134 -0.5182409 0)
(-0.03493439 -0.55077 0)
(-0.02934891 -0.5845405 0)
(-0.02373874 -0.6199798 0)
(-0.01816098 -0.6578155 0)
(-0.01270587 -0.6993175 0)
(-0.007441341 -0.7458716 0)
(-0.002523108 -0.77493 0)
(-0.002362047 0.6943429 0)
(-0.006980624 0.6448103 0)
(-0.01102749 0.6144792 0)
(-0.01439698 0.5908051 0)
(-0.01758181 0.5687047 0)
(-0.02062752 0.5468243 0)
(-0.02362414 0.5248194 0)
(-0.02657959 0.5026093 0)
(-0.02949944 0.4802073 0)
(-0.03237773 0.4576596 0)
(-0.03522363 0.4350235 0)
(-0.03805571 0.4123673 0)
(-0.04087077 0.3897538 0)
(-0.04364841 0.3672274 0)
(-0.04636525 0.3448205 0)
(-0.04900468 0.3225612 0)
(-0.05140522 0.3004083 0)
(-0.05405294 0.2785949 0)
(-0.05546854 0.2575549 0)
(-0.05770196 0.2362001 0)
(-0.05932934 0.2149193 0)
(-0.06092934 0.1938168 0)
(-0.06233674 0.1729166 0)
(-0.06357563 0.1522308 0)
(-0.06465004 0.1317589 0)
(-0.06557289 0.1114902 0)
(-0.06635313 0.09140243 0)
(-0.06699552 0.07146466 0)
(-0.06750368 0.05163872 0)
(-0.06787489 0.03188125 0)
(-0.06813679 0.01214425 0)
(-0.0681892 -0.006835231 0)
(-0.06804534 -0.02676705 0)
(-0.06780925 -0.04683812 0)
(-0.06744203 -0.06710802 0)
(-0.06694143 -0.08763903 0)
(-0.06629918 -0.1084972 0)
(-0.06550786 -0.1297496 0)
(-0.06455935 -0.1514639 0)
(-0.06344471 -0.1737049 0)
(-0.06215996 -0.1965296 0)
(-0.06067355 -0.2199965 0)
(-0.05907486 -0.2440533 0)
(-0.05717928 -0.2690948 0)
(-0.05509871 -0.2952174 0)
(-0.05278189 -0.3221723 0)
(-0.05020059 -0.3499332 0)
(-0.04732744 -0.3784918 0)
(-0.04415933 -0.4077839 0)
(-0.04072222 -0.4377404 0)
(-0.03705976 -0.4683208 0)
(-0.03322178 -0.4995351 0)
(-0.02925685 -0.5314425 0)
(-0.02521229 -0.5641802 0)
(-0.02113214 -0.5980008 0)
(-0.01706024 -0.6333256 0)
(-0.01303885 -0.670877 0)
(-0.00912462 -0.7119262 0)
(-0.005366273 -0.7579014 0)
(-0.001829687 -0.7869992 0)
(-0.002171153 0.7071682 0)
(-0.005762629 0.6559819 0)
(-0.008089189 0.6238114 0)
(-0.01027651 0.5991478 0)
(-0.01207779 0.5763071 0)
(-0.01375776 0.5538681 0)
(-0.01536305 0.531396 0)
(-0.01696169 0.5087901 0)
(-0.01858112 0.4860767 0)
(-0.02023983 0.4633299 0)
(-0.02191976 0.4407341 0)
(-0.02362052 0.4182952 0)
(-0.02531741 0.3958817 0)
(-0.02700053 0.3734818 0)
(-0.02865251 0.3510815 0)
(-0.03026709 0.3286827 0)
(-0.03184526 0.3063149 0)
(-0.0332618 0.2839678 0)
(-0.03478791 0.2618574 0)
(-0.03562837 0.240162 0)
(-0.03668897 0.2184454 0)
(-0.0375798 0.1969072 0)
(-0.03843664 0.1755873 0)
(-0.03923056 0.1545194 0)
(-0.03995107 0.1337334 0)
(-0.04059044 0.1132095 0)
(-0.04115362 0.09289215 0)
(-0.04164424 0.07273549 0)
(-0.04206822 0.05268885 0)
(-0.04242485 0.03270515 0)
(-0.04274313 0.01273478 0)
(-0.04293591 -0.006775807 0)
(-0.04301503 -0.02691967 0)
(-0.04306166 -0.0472227 0)
(-0.04304457 -0.06774579 0)
(-0.04296159 -0.08855141 0)
(-0.04280563 -0.1097068 0)
(-0.04256898 -0.1312818 0)
(-0.04224316 -0.1533484 0)
(-0.04181572 -0.1759799 0)
(-0.04128724 -0.199249 0)
(-0.04053239 -0.2232227 0)
(-0.0398914 -0.2479702 0)
(-0.03857243 -0.2737014 0)
(-0.03744113 -0.3001981 0)
(-0.03615943 -0.3276522 0)
(-0.03451502 -0.3562008 0)
(-0.03267006 -0.3855893 0)
(-0.0305302 -0.4156593 0)
(-0.02812865 -0.4462784 0)
(-0.0255366 -0.4773632 0)
(-0.02282397 -0.5089312 0)
(-0.02003578 -0.5410693 0)
(-0.01721007 -0.5739355 0)
(-0.01437784 -0.6077944 0)
(-0.0115665 -0.6430805 0)
(-0.008803423 -0.6805162 0)
(-0.006120801 -0.7213407 0)
(-0.003568855 -0.7668714 0)
(-0.001191301 -0.7956906 0)
(-0.001179348 0.7183688 0)
(-0.002867504 0.6641432 0)
(-0.004213207 0.6292767 0)
(-0.004362193 0.6027865 0)
(-0.004705705 0.5792242 0)
(-0.004922539 0.5566332 0)
(-0.005247112 0.5343764 0)
(-0.005691029 0.5121938 0)
(-0.006301705 0.4899722 0)
(-0.006910407 0.4676478 0)
(-0.007951781 0.4450827 0)
(-0.0087 0.422336 0)
(-0.009602957 0.399579 0)
(-0.01053792 0.3768415 0)
(-0.01152376 0.3541463 0)
(-0.0125101 0.3315978 0)
(-0.01342608 0.3091418 0)
(-0.01421167 0.2866325 0)
(-0.01495502 0.2641567 0)
(-0.01539449 0.2420489 0)
(-0.01596841 0.2203774 0)
(-0.01648653 0.1989894 0)
(-0.01704928 0.1777934 0)
(-0.01768329 0.1567276 0)
(-0.01825102 0.1357931 0)
(-0.01879346 0.115043 0)
(-0.01934673 0.09450151 0)
(-0.01988096 0.07414093 0)
(-0.02040555 0.05392117 0)
(-0.02090648 0.03379741 0)
(-0.02140747 0.01371484 0)
(-0.02183236 -0.006134116 0)
(-0.02220481 -0.02635417 0)
(-0.022579 -0.04675644 0)
(-0.02293291 -0.067393 0)
(-0.02325999 -0.08832413 0)
(-0.02355525 -0.1096235 0)
(-0.02381192 -0.1313635 0)
(-0.02402365 -0.1536209 0)
(-0.02418291 -0.1764771 0)
(-0.02427966 -0.2000227 0)
(-0.02430346 -0.224345 0)
(-0.02417718 -0.2495687 0)
(-0.02406493 -0.2756397 0)
(-0.02375772 -0.3026438 0)
(-0.02298214 -0.330786 0)
(-0.02220487 -0.359872 0)
(-0.0211936 -0.3899122 0)
(-0.01976233 -0.4207994 0)
(-0.01815991 -0.4520316 0)
(-0.01641244 -0.4834931 0)
(-0.01461311 -0.5152752 0)
(-0.01279144 -0.5475109 0)
(-0.01096054 -0.5803888 0)
(-0.009138865 -0.6141869 0)
(-0.007341525 -0.6493428 0)
(-0.00558392 -0.6865838 0)
(-0.003884747 -0.7271472 0)
(-0.002274947 -0.7723495 0)
(-0.0007797647 -0.8012006 0)
(-0.0005420132 0.7244098 0)
(-0.001939063 0.6669136 0)
(-0.001791544 0.6296256 0)
(-0.001892049 0.6025273 0)
(-0.001278248 0.5787918 0)
(-0.0007357477 0.5562149 0)
(-7.895615e-05 0.5340414 0)
(0.0006106083 0.5119348 0)
(0.001329331 0.4897807 0)
(0.001907102 0.4675843 0)
(0.002693239 0.4453365 0)
(0.002938745 0.4231335 0)
(0.003056941 0.4010344 0)
(0.002872772 0.3790446 0)
(0.00254583 0.3569234 0)
(0.00190422 0.3343541 0)
(0.001414672 0.311423 0)
(0.0008210434 0.2884198 0)
(0.0002902505 0.2655852 0)
(-0.0003979649 0.2432185 0)
(-0.0008051732 0.2214188 0)
(-0.001161493 0.1999518 0)
(-0.001444544 0.1787145 0)
(-0.001543804 0.1577149 0)
(-0.001814547 0.1369022 0)
(-0.002109057 0.1162791 0)
(-0.002443478 0.09591577 0)
(-0.002838261 0.07572768 0)
(-0.003280906 0.05559778 0)
(-0.003767168 0.03550777 0)
(-0.004309175 0.01543441 0)
(-0.004869172 -0.004602367 0)
(-0.005434907 -0.02479341 0)
(-0.006052855 -0.04518018 0)
(-0.006709214 -0.06583969 0)
(-0.007354448 -0.08681939 0)
(-0.008005582 -0.1081843 0)
(-0.008647473 -0.1300054 0)
(-0.009276981 -0.1523589 0)
(-0.009897516 -0.1753294 0)
(-0.01050623 -0.1990119 0)
(-0.01109451 -0.2235 0)
(-0.0116392 -0.2488699 0)
(-0.01212183 -0.2752898 0)
(-0.01243096 -0.3029403 0)
(-0.01267181 -0.3317323 0)
(-0.01260598 -0.3616403 0)
(-0.01201435 -0.392677 0)
(-0.01136496 -0.4242358 0)
(-0.01049982 -0.4558067 0)
(-0.009395273 -0.4874067 0)
(-0.008283652 -0.5192149 0)
(-0.007203601 -0.5514648 0)
(-0.006142216 -0.5843444 0)
(-0.005102713 -0.6181238 0)
(-0.004084395 -0.6532429 0)
(-0.003091684 -0.6904272 0)
(-0.002133537 -0.7308966 0)
(-0.001235231 -0.7759276 0)
(-0.0004196207 -0.8048262 0)
(-0.0005479847 0.7299903 0)
(-0.0005516903 0.6687604 0)
(-0.0005655253 0.6294855 0)
(0.0004028929 0.6013189 0)
(0.001554059 0.5767187 0)
(0.002858213 0.5535792 0)
(0.004214839 0.5310249 0)
(0.005546167 0.5087569 0)
(0.006823581 0.4866667 0)
(0.007975308 0.4647296 0)
(0.00901766 0.4429899 0)
(0.009960179 0.4213931 0)
(0.01075023 0.3999635 0)
(0.01140645 0.3784824 0)
(0.01192598 0.3566388 0)
(0.0124962 0.3344934 0)
(0.01265535 0.3121946 0)
(0.01269009 0.2898405 0)
(0.01258336 0.2674839 0)
(0.01224722 0.2451052 0)
(0.01200025 0.222833 0)
(0.01170831 0.2009015 0)
(0.01146995 0.1793375 0)
(0.01114801 0.15816 0)
(0.01091823 0.1373864 0)
(0.01063543 0.1169214 0)
(0.01033421 0.09666674 0)
(0.009996825 0.0765634 0)
(0.009620114 0.05657837 0)
(0.009190032 0.03670117 0)
(0.008696562 0.01688041 0)
(0.008141991 -0.002990884 0)
(0.00746441 -0.02293512 0)
(0.006687687 -0.04318414 0)
(0.005849434 -0.06373896 0)
(0.004960073 -0.08465832 0)
(0.004033935 -0.1059887 0)
(0.003076478 -0.1277887 0)
(0.002094142 -0.150118 0)
(0.00109534 -0.1730311 0)
(8.877971e-05 -0.1966603 0)
(-0.000914666 -0.2211776 0)
(-0.001887761 -0.2467001 0)
(-0.002801883 -0.2733548 0)
(-0.003632764 -0.3013058 0)
(-0.004351227 -0.3307136 0)
(-0.004847229 -0.3614967 0)
(-0.005223147 -0.3932122 0)
(-0.005266018 -0.4254586 0)
(-0.004832196 -0.4578779 0)
(-0.004394057 -0.4898345 0)
(-0.003809548 -0.5215668 0)
(-0.003271079 -0.5536771 0)
(-0.002757893 -0.5864363 0)
(-0.002277835 -0.6201157 0)
(-0.001791816 -0.6551622 0)
(-0.001332226 -0.6922663 0)
(-0.0009001352 -0.7326317 0)
(-0.0005127393 -0.7775309 0)
(-0.0001942375 -0.8065025 0)
(-0.0001655335 0.7334283 0)
(-0.0001262509 0.6686669 0)
(0.0006995658 0.6274714 0)
(0.002231818 0.5977571 0)
(0.004029762 0.5725867 0)
(0.005948959 0.5492688 0)
(0.007868393 0.5267931 0)
(0.009726499 0.5047388 0)
(0.01148691 0.4829139 0)
(0.01312243 0.4612298 0)
(0.01462197 0.4396786 0)
(0.0159688 0.4183178 0)
(0.01713636 0.3971284 0)
(0.01815463 0.3758794 0)
(0.01895151 0.35444 0)
(0.01961885 0.3328075 0)
(0.02021311 0.3109674 0)
(0.02072431 0.2889587 0)
(0.02112529 0.2668899 0)
(0.02157724 0.2448838 0)
(0.02167538 0.2230795 0)
(0.02178362 0.2014994 0)
(0.02176454 0.1801952 0)
(0.02164244 0.1591586 0)
(0.02144308 0.1384021 0)
(0.02117265 0.1179486 0)
(0.02083427 0.09776386 0)
(0.02042227 0.07777878 0)
(0.01993405 0.05792365 0)
(0.01937426 0.03815553 0)
(0.01874915 0.01845871 0)
(0.01804256 -0.00115287 0)
(0.01721189 -0.02062268 0)
(0.01620986 -0.0405907 0)
(0.01513897 -0.06093958 0)
(0.01397606 -0.08167959 0)
(0.01275542 -0.1028531 0)
(0.01147998 -0.1245219 0)
(0.01016108 -0.146763 0)
(0.008819212 -0.1696673 0)
(0.007472914 -0.1933448 0)
(0.006143607 -0.2179272 0)
(0.004848487 -0.2435577 0)
(0.003614818 -0.2703905 0)
(0.002469761 -0.2985768 0)
(0.001430932 -0.3282225 0)
(0.0005133563 -0.3593419 0)
(-0.0002530663 -0.3917845 0)
(-0.0007747438 -0.4250088 0)
(-0.001153498 -0.458104 0)
(-0.001204489 -0.490455 0)
(-0.001140126 -0.5223451 0)
(-0.001022218 -0.5544813 0)
(-0.0008320309 -0.5872798 0)
(-0.0006806671 -0.6209862 0)
(-0.0005166529 -0.6560257 0)
(-0.0003624907 -0.6930911 0)
(-0.0002274564 -0.7333899 0)
(-0.0001206954 -0.7782121 0)
(-5.713803e-05 -0.8073488 0)
(-3.823754e-07 0.7357239 0)
(0.0003591525 0.6674916 0)
(0.001642833 0.6236571 0)
(0.003590378 0.5927257 0)
(0.005842564 0.5669004 0)
(0.008215984 0.5433134 0)
(0.01060344 0.520831 0)
(0.0129386 0.4989486 0)
(0.01517463 0.477433 0)
(0.01727446 0.4561813 0)
(0.01920669 0.4351645 0)
(0.02095405 0.4143931 0)
(0.02249263 0.3938689 0)
(0.02382726 0.3732975 0)
(0.02497626 0.3523251 0)
(0.02596775 0.3309082 0)
(0.02682393 0.3091691 0)
(0.02756036 0.2872833 0)
(0.02816565 0.2654375 0)
(0.02859191 0.2437629 0)
(0.02902613 0.2222484 0)
(0.02924442 0.2009611 0)
(0.0293595 0.179953 0)
(0.02932722 0.1592519 0)
(0.02915963 0.1388595 0)
(0.02886001 0.1187519 0)
(0.02843794 0.0988807 0)
(0.02790243 0.07918582 0)
(0.02726057 0.059609 0)
(0.02652011 0.04010807 0)
(0.02569011 0.02067176 0)
(0.02476637 0.001349885 0)
(0.02373053 -0.01770262 0)
(0.02253828 -0.03731241 0)
(0.02122971 -0.05739353 0)
(0.01983369 -0.07792385 0)
(0.01837342 -0.0989287 0)
(0.01686517 -0.120463 0)
(0.01532491 -0.1426053 0)
(0.01377051 -0.1654557 0)
(0.01222269 -0.1891401 0)
(0.01070396 -0.2138038 0)
(0.009238412 -0.2395993 0)
(0.007851462 -0.2666825 0)
(0.006567322 -0.2951986 0)
(0.005407692 -0.3252388 0)
(0.004389078 -0.3567678 0)
(0.003518788 -0.3895538 0)
(0.002800221 -0.423128 0)
(0.002252585 -0.4568139 0)
(0.00190643 -0.4898822 0)
(0.001670827 -0.5221687 0)
(0.001503385 -0.5544153 0)
(0.001222403 -0.5872882 0)
(0.001033425 -0.6210249 0)
(0.0008194641 -0.6560719 0)
(0.000622117 -0.6931384 0)
(0.0004295287 -0.7334329 0)
(0.0002326447 -0.7782494 0)
(3.556839e-05 -0.8074057 0)
(2.352351e-05 0.7375005 0)
(0.0006749179 0.6652596 0)
(0.002235435 0.6189162 0)
(0.004476634 0.5866545 0)
(0.007054464 0.560163 0)
(0.009747251 0.5363191 0)
(0.01245877 0.5138372 0)
(0.01511799 0.4921289 0)
(0.01767664 0.470912 0)
(0.02009919 0.4500536 0)
(0.02236022 0.4295005 0)
(0.02444301 0.4092428 0)
(0.02633922 0.3892195 0)
(0.02805199 0.3691209 0)
(0.02958199 0.3486546 0)
(0.03091413 0.3277974 0)
(0.03204365 0.3066407 0)
(0.03297142 0.2853081 0)
(0.03371201 0.2639099 0)
(0.03427403 0.2425621 0)
(0.03469525 0.2214331 0)
(0.03486373 0.2006224 0)
(0.03490044 0.1800745 0)
(0.03477346 0.1598025 0)
(0.03448956 0.1398064 0)
(0.034056 0.1200665 0)
(0.0334829 0.1005406 0)
(0.03277993 0.08116902 0)
(0.03195678 0.0618885 0)
(0.0310232 0.04265215 0)
(0.02998782 0.02345923 0)
(0.02885096 0.004406582 0)
(0.02767508 -0.01426324 0)
(0.02636082 -0.03349323 0)
(0.02488453 -0.05327326 0)
(0.02332611 -0.07359035 0)
(0.02171449 -0.09444983 0)
(0.02006861 -0.1158963 0)
(0.01840638 -0.1380085 0)
(0.01674699 -0.1608912 0)
(0.0151109 -0.1846697 0)
(0.01351856 -0.2094857 0)
(0.01199021 -0.2354916 0)
(0.01054551 -0.2628415 0)
(0.009202077 -0.2916739 0)
(0.007974154 -0.3220765 0)
(0.006874056 -0.3540266 0)
(0.005915024 -0.3873026 0)
(0.005110196 -0.4213976 0)
(0.004466084 -0.4555302 0)
(0.003979557 -0.4888943 0)
(0.003589006 -0.5212238 0)
(0.003230238 -0.5533375 0)
(0.002849163 -0.5861378 0)
(0.00245206 -0.619889 0)
(0.002044279 -0.6549667 0)
(0.00162095 -0.6920561 0)
(0.001180157 -0.7323527 0)
(0.0007077858 -0.7771738 0)
(0.000209359 -0.8065693 0)
(2.274727e-05 0.7389142 0)
(0.0008501308 0.6624096 0)
(0.002571522 0.613464 0)
(0.004998176 0.5798561 0)
(0.007775346 0.5526879 0)
(0.01067382 0.5285699 0)
(0.0135991 0.5060797 0)
(0.01647521 0.4845495 0)
(0.01925258 0.4636434 0)
(0.02189504 0.4431904 0)
(0.02437765 0.423105 0)
(0.02669291 0.4033436 0)
(0.02882569 0.3838404 0)
(0.03077088 0.3642962 0)
(0.03251316 0.3444068 0)
(0.03403162 0.3241329 0)
(0.03532207 0.3035531 0)
(0.03638291 0.2827937 0)
(0.03720979 0.2619923 0)
(0.03782502 0.2412776 0)
(0.03816645 0.2207467 0)
(0.0383831 0.2004116 0)
(0.03836004 0.1803405 0)
(0.03816842 0.1605445 0)
(0.03779551 0.1410102 0)
(0.03725557 0.1217063 0)
(0.03656117 0.1025844 0)
(0.03572559 0.0835847 0)
(0.03476163 0.06464898 0)
(0.03368112 0.04573662 0)
(0.03249409 0.02684147 0)