/*--------------------------------*- C++ -*----------------------------------*\
| =========                 |                                                 |
| \\      /  F ield         | OpenFOAM: The Open Source CFD Toolbox           |
|  \\    /   O peration     | Version:  2312                                  |
|   \\  /    A nd           | Website:  www.openfoam.com                      |
|    \\/     M anipulation  |                                                 |
\*---------------------------------------------------------------------------*/
FoamFile
{
    version     2.0;
    format      ascii;
    arch        "LSB;label=32;scalar=64";
    class       volScalarField;
    location    "3150";
    object      ILambda_3_0;
}
// * * * * * * * * * * * * * * * * * * * * * * * * * * * * * * * * * * * * * //

dimensions      [1 0 -3 0 0 0 0];

internalField   nonuniform List<scalar> 
12000
(
1707.357
1606.561
1511.45
1423.512
1342.812
1269.018
1201.706
1140.432
1084.763
1034.292
988.6406
947.4529
910.3952
877.1506
847.418
820.9123
797.364
776.5195
758.1402
742.0027
727.8979
715.6311
705.0213
695.9004
688.113
681.5152
675.9744
671.3685
667.5859
664.5241
662.0906
660.2017
658.7821
657.7639
657.0856
656.6896
656.5215
656.5323
656.6812
656.9315
657.2434
657.5758
657.8927
658.1794
658.4303
658.6191
658.7082
658.687
658.559
658.2972
657.8532
657.2002
656.3223
655.1857
653.7631
651.9917
649.8905
647.0042
644.2595
636.0423
1769.587
1792.309
1805.153
1808.246
1802.533
1789.106
1769.037
1743.325
1712.885
1678.552
1641.076
1601.137
1559.345
1516.248
1472.337
1428.044
1383.754
1339.801
1296.474
1254.022
1212.656
1172.552
1133.855
1096.679
1061.115
1027.228
995.0632
964.6467
935.9876
909.0804
883.9065
860.4358
838.629
818.4386
799.8109
782.6873
767.0058
752.7004
739.7016
727.9388
717.3421
707.8424
699.3688
691.8457
685.1981
679.3599
674.2697
669.8594
666.0609
662.8184
660.0834
657.8011
655.9156
654.3776
653.1397
652.1547
651.3931
650.8016
650.5283
650.2158
1757.189
1760.569
1766.664
1774.601
1783.425
1792.268
1800.392
1807.193
1812.184
1814.986
1815.32
1812.988
1807.868
1799.905
1789.096
1775.49
1759.174
1740.271
1718.93
1695.324
1669.64
1642.08
1612.851
1582.168
1550.245
1517.295
1483.529
1449.15
1414.354
1379.33
1344.254
1309.293
1274.603
1240.325
1206.59
1173.516
1141.21
1109.763
1079.259
1049.766
1021.344
994.0415
967.896
942.9365
919.1817
896.6417
875.3195
855.2109
836.3043
818.5822
802.0229
786.6005
772.2848
759.0413
746.836
735.6161
725.4011
715.8693
708.2717
696.6376
1752.166
1751.578
1751.152
1751.223
1752.035
1753.728
1756.347
1759.859
1764.171
1769.139
1774.584
1780.303
1786.08
1791.69
1796.908
1801.516
1805.307
1808.088
1809.684
1809.937
1808.714
1805.902
1801.41
1795.17
1787.136
1777.284
1765.61
1752.129
1736.874
1719.894
1701.253
1681.029
1659.312
1636.2
1611.8
1586.228
1559.603
1532.048
1503.689
1474.653
1445.066
1415.055
1384.743
1354.251
1323.695
1293.188
1262.836
1232.741
1202.999
1173.697
1144.917
1116.736
1089.22
1062.429
1036.427
1011.212
987.044
962.9831
943.3268
909.2987
1741.242
1741.274
1741.164
1740.919
1740.585
1740.228
1739.935
1739.796
1739.905
1740.343
1741.182
1742.477
1744.263
1746.558
1749.357
1752.636
1756.353
1760.448
1764.847
1769.461
1774.189
1778.922
1783.546
1787.941
1791.984
1795.554
1798.531
1800.8
1802.248
1802.774
1802.281
1800.683
1797.904
1793.878
1788.552
1781.882
1773.838
1764.4
1753.56
1741.322
1727.701
1712.72
1696.414
1678.827
1660.01
1640.023
1618.933
1596.812
1573.737
1549.791
1525.059
1499.629
1473.593
1447.038
1420.074
1392.713
1365.381
1336.736
1312.959
1268.119
1727.917
1728.001
1728.074
1728.131
1728.155
1728.133
1728.055
1727.915
1727.72
1727.485
1727.234
1726.998
1726.813
1726.721
1726.766
1726.991
1727.438
1728.145
1729.148
1730.472
1732.139
1734.16
1736.539
1739.27
1742.336
1745.713
1749.367
1753.255
1757.325
1761.519
1765.773
1770.015
1774.169
1778.158
1781.898
1785.308
1788.303
1790.8
1792.718
1793.977
1794.503
1794.225
1793.075
1790.992
1787.924
1783.821
1778.642
1772.355
1764.932
1756.357
1746.616
1735.709
1723.639
1710.415
1696.071
1680.565
1664.209
1645.877
1630.418
1598.012
1720.071
1719.835
1719.606
1719.398
1719.213
1719.05
1718.905
1718.766
1718.626
1718.475
1718.304
1718.107
1717.878
1717.618
1717.329
1717.016
1716.692
1716.37
1716.068
1715.808
1715.612
1715.507
1715.52
1715.677
1716.006
1716.532
1717.279
1718.267
1719.514
1721.035
1722.836
1724.923
1727.294
1729.942
1732.853
1736.01
1739.387
1742.954
1746.676
1750.512
1754.417
1758.339
1762.227
1766.023
1769.667
1773.098
1776.253
1779.067
1781.478
1783.421
1784.834
1785.657
1785.83
1785.298
1784.015
1781.901
1779.033
1774.898
1771.285
1761.093
1707.068
1706.783
1706.512
1706.27
1706.052
1705.867
1705.713
1705.589
1705.492
1705.419
1705.366
1705.327
1705.298
1705.273
1705.244
1705.206
1705.153
1705.079
1704.981
1704.856
1704.704
1704.525
1704.324
1704.105
1703.877
1703.651
1703.438
1703.253
1703.112
1703.033
1703.035
1703.136
1703.357
1703.718
1704.236
1704.93
1705.817
1706.911
1708.223
1709.764
1711.539
1713.551
1715.8
1718.282
1720.986
1723.901
1727.01
1730.291
1733.721
1737.269
1740.904
1744.588
1748.283
1751.946
1755.532
1758.994
1762.275
1765.373
1767.935
1771.481
1723.918
1721.664
1719.499
1717.453
1715.526
1713.711
1712.01
1710.42
1708.938
1707.56
1706.282
1705.101
1704.013
1703.013
1702.097
1701.26
1700.494
1699.796
1699.157
1698.571
1698.031
1697.53
1697.061
1696.618
1696.193
1695.782
1695.38
1694.984
1694.591
1694.2
1693.811
1693.428
1693.053
1692.692
1692.351
1692.04
1691.767
1691.545
1691.385
1691.3
1691.305
1691.413
1691.64
1691.998
1692.503
1693.168
1694.004
1695.022
1696.232
1697.641
1699.253
1701.072
1703.098
1705.328
1707.755
1710.381
1713.148
1716.223
1718.831
1724.073
1731.511
1730.144
1728.676
1727.137
1725.547
1723.917
1722.258
1720.582
1718.898
1717.215
1715.541
1713.884
1712.25
1710.647
1709.078
1707.55
1706.067
1704.631
1703.247
1701.916
1700.64
1699.419
1698.254
1697.143
1696.086
1695.081
1694.124
1693.213
1692.345
1691.516
1690.721
1689.958
1689.223
1688.511
1687.82
1687.148
1686.492
1685.851
1685.225
1684.615
1684.022
1683.449
1682.899
1682.379
1681.893
1681.448
1681.053
1680.717
1680.448
1680.257
1680.155
1680.152
1680.26
1680.489
1680.849
1681.356
1681.995
1682.864
1683.616
1685.587
1748.217
1746.387
1744.551
1742.722
1740.907
1739.099
1737.294
1735.49
1733.685
1731.878
1730.068
1728.256
1726.441
1724.627
1722.813
1721.003
1719.2
1717.405
1715.622
1713.855
1712.106
1710.379
1708.677
1707.004
1705.361
1703.752
1702.179
1700.645
1699.15
1697.696
1696.285
1694.915
1693.588
1692.303
1691.058
1689.853
1688.686
1687.555
1686.459
1685.394
1684.359
1683.351
1682.369
1681.411
1680.474
1679.559
1678.663
1677.788
1676.933
1676.1
1675.29
1674.505
1673.75
1673.028
1672.344
1671.702
1671.112
1670.567
1670.127
1669.493
1749.214
1748.591
1747.862
1747.041
1746.147
1745.186
1744.163
1743.082
1741.947
1740.762
1739.528
1738.248
1736.925
1735.56
1734.155
1732.713
1731.235
1729.724
1728.182
1726.611
1725.014
1723.393
1721.751
1720.092
1718.417
1716.731
1715.037
1713.337
1711.636
1709.936
1708.241
1706.554
1704.878
1703.216
1701.57
1699.944
1698.339
1696.758
1695.201
1693.671
1692.168
1690.693
1689.246
1687.828
1686.437
1685.073
1683.736
1682.425
1681.138
1679.874
1678.631
1677.409
1676.205
1675.02
1673.852
1672.698
1671.571
1670.411
1669.463
1667.659
1749.063
1748.47
1747.858
1747.234
1746.603
1745.961
1745.305
1744.631
1743.936
1743.216
1742.47
1741.694
1740.886
1740.045
1739.169
1738.258
1737.309
1736.323
1735.298
1734.233
1733.13
1731.987
1730.805
1729.585
1728.326
1727.03
1725.698
1724.33
1722.929
1721.496
1720.033
1718.542
1717.025
1715.484
1713.922
1712.342
1710.745
1709.136
1707.515
1705.887
1704.254
1702.618
1700.982
1699.348
1697.719
1696.095
1694.48
1692.875
1691.281
1689.699
1688.129
1686.572
1685.028
1683.498
1681.982
1680.475
1678.994
1677.459
1676.2
1673.779
1739.74
1739.698
1739.603
1739.472
1739.313
1739.133
1738.932
1738.711
1738.47
1738.209
1737.927
1737.623
1737.296
1736.946
1736.57
1736.167
1735.737
1735.278
1734.788
1734.266
1733.712
1733.123
1732.499
1731.838
1731.14
1730.403
1729.628
1728.813
1727.958
1727.062
1726.125
1725.148
1724.13
1723.072
1721.973
1720.836
1719.66
1718.446
1717.195
1715.91
1714.59
1713.238
1711.855
1710.444
1709.005
1707.541
1706.054
1704.545
1703.017
1701.471
1699.909
1698.333
1696.744
1695.145
1693.536
1691.917
1690.305
1688.615
1687.217
1684.502
1733.641
1733.202
1732.772
1732.37
1731.995
1731.649
1731.33
1731.034
1730.759
1730.502
1730.26
1730.03
1729.809
1729.596
1729.387
1729.18
1728.973
1728.763
1728.548
1728.326
1728.094
1727.851
1727.594
1727.321
1727.031
1726.721
1726.389
1726.034
1725.654
1725.247
1724.811
1724.346
1723.849
1723.32
1722.756
1722.158
1721.523
1720.851
1720.142
1719.393
1718.606
1717.779
1716.912
1716.005
1715.058
1714.071
1713.044
1711.977
1710.871
1709.727
1708.544
1707.323
1706.066
1704.773
1703.446
1702.082
1700.699
1699.216
1697.98
1695.494
1731.134
1730.425
1729.7
1728.987
1728.293
1727.624
1726.982
1726.369
1725.785
1725.231
1724.705
1724.209
1723.741
1723.3
1722.885
1722.495
1722.129
1721.784
1721.46
1721.155
1720.868
1720.595
1720.336
1720.089
1719.851
1719.621
1719.396
1719.175
1718.956
1718.736
1718.513
1718.286
1718.053
1717.81
1717.558
1717.292
1717.012
1716.716
1716.401
1716.065
1715.708
1715.326
1714.919
1714.484
1714.021
1713.526
1713
1712.439
1711.844
1711.212
1710.543
1709.834
1709.086
1708.296
1707.466
1706.59
1705.683
1704.68
1703.841
1702.046
1732.487
1731.584
1730.656
1729.727
1728.806
1727.898
1727.003
1726.125
1725.265
1724.424
1723.603
1722.803
1722.025
1721.27
1720.538
1719.83
1719.147
1718.488
1717.854
1717.246
1716.662
1716.104
1715.57
1715.061
1714.575
1714.112
1713.672
1713.254
1712.856
1712.478
1712.119
1711.777
1711.452
1711.141
1710.844
1710.559
1710.284
1710.018
1709.759
1709.505
1709.255
1709.006
1708.757
1708.506
1708.25
1707.987
1707.716
1707.434
1707.139
1706.828
1706.5
1706.152
1705.781
1705.387
1704.966
1704.515
1704.041
1703.499
1703.05
1702.006
1733.073
1732.21
1731.312
1730.402
1729.488
1728.575
1727.664
1726.757
1725.854
1724.956
1724.064
1723.179
1722.301
1721.431
1720.569
1719.717
1718.876
1718.045
1717.226
1716.42
1715.628
1714.85
1714.087
1713.34
1712.61
1711.897
1711.202
1710.525
1709.868
1709.23
1708.612
1708.014
1707.436
1706.879
1706.342
1705.825
1705.329
1704.852
1704.395
1703.956
1703.536
1703.133
1702.747
1702.376
1702.02
1701.676
1701.345
1701.024
1700.712
1700.407
1700.106
1699.809
1699.513
1699.215
1698.915
1698.608
1698.299
1697.956
1697.679
1697.029
1738.157
1737.058
1735.935
1734.809
1733.689
1732.579
1731.481
1730.395
1729.32
1728.257
1727.206
1726.166
1725.137
1724.118
1723.11
1722.113
1721.125
1720.147
1719.179
1718.22
1717.271
1716.332
1715.403
1714.484
1713.576
1712.679
1711.793
1710.919
1710.057
1709.208
1708.372
1707.55
1706.742
1705.949
1705.172
1704.411
1703.666
1702.938
1702.228
1701.535
1700.86
1700.204
1699.566
1698.947
1698.347
1697.764
1697.2
1696.654
1696.125
1695.612
1695.115
1694.634
1694.166
1693.711
1693.268
1692.834
1692.414
1691.979
1691.628
1690.909
1738.366
1737.705
1736.975
1736.2
1735.39
1734.553
1733.693
1732.812
1731.914
1731.001
1730.074
1729.136
1728.187
1727.231
1726.267
1725.297
1724.323
1723.344
1722.363
1721.379
1720.394
1719.409
1718.423
1717.438
1716.455
1715.474
1714.495
1713.52
1712.549
1711.581
1710.619
1709.663
1708.712
1707.769
1706.833
1705.904
1704.985
1704.075
1703.175
1702.285
1701.406
1700.539
1699.684
1698.841
1698.012
1697.196
1696.393
1695.605
1694.831
1694.071
1693.325
1692.593
1691.876
1691.172
1690.482
1689.804
1689.143
1688.467
1687.913
1686.844
1736.171
1735.68
1735.144
1734.584
1734.004
1733.409
1732.799
1732.173
1731.531
1730.873
1730.198
1729.507
1728.798
1728.072
1727.33
1726.57
1725.795
1725.003
1724.197
1723.375
1722.539
1721.689
1720.826
1719.952
1719.065
1718.169
1717.262
1716.346
1715.422
1714.49
1713.551
1712.607
1711.657
1710.703
1709.746
1708.785
1707.823
1706.859
1705.895
1704.93
1703.967
1703.005
1702.045
1701.088
1700.134
1699.185
1698.24
1697.299
1696.364
1695.435
1694.511
1693.594
1692.683
1691.778
1690.881
1689.989
1689.112
1688.203
1687.455
1686.007
1730.248
1730.001
1729.706
1729.388
1729.052
1728.703
1728.344
1727.974
1727.592
1727.197
1726.791
1726.37
1725.935
1725.485
1725.019
1724.537
1724.037
1723.52
1722.984
1722.429
1721.856
1721.263
1720.652
1720.021
1719.371
1718.703
1718.015
1717.31
1716.586
1715.844
1715.086
1714.311
1713.52
1712.713
1711.892
1711.057
1710.208
1709.347
1708.473
1707.588
1706.692
1705.786
1704.871
1703.947
1703.015
1702.075
1701.129
1700.176
1699.217
1698.253
1697.283
1696.309
1695.33
1694.347
1693.36
1692.368
1691.382
1690.347
1689.494
1687.809
1723.259
1722.835
1722.399
1721.981
1721.578
1721.196
1720.835
1720.492
1720.165
1719.851
1719.549
1719.256
1718.97
1718.688
1718.409
1718.13
1717.849
1717.564
1717.273
1716.975
1716.668
1716.351
1716.021
1715.679
1715.322
1714.95
1714.561
1714.155
1713.732
1713.29
1712.828
1712.348
1711.847
1711.327
1710.786
1710.225
1709.643
1709.042
1708.42
1707.778
1707.116
1706.435
1705.734
1705.014
1704.276
1703.519
1702.744
1701.951
1701.141
1700.313
1699.468
1698.606
1697.728
1696.833
1695.922
1694.994
1694.06
1693.063
1692.239
1690.565
1728.909
1727.609
1726.316
1725.068
1723.871
1722.726
1721.636
1720.602
1719.623
1718.696
1717.821
1716.996
1716.218
1715.486
1714.796
1714.148
1713.537
1712.961
1712.418
1711.905
1711.42
1710.959
1710.52
1710.101
1709.699
1709.312
1708.936
1708.571
1708.212
1707.86
1707.51
1707.161
1706.812
1706.46
1706.104
1705.742
1705.373
1704.994
1704.605
1704.204
1703.791
1703.363
1702.921
1702.462
1701.987
1701.494
1700.983
1700.452
1699.902
1699.331
1698.738
1698.124
1697.488
1696.828
1696.146
1695.439
1694.715
1693.927
1693.272
1691.889
1733.852
1732.776
1731.629
1730.445
1729.242
1728.025
1726.804
1725.582
1724.366
1723.159
1721.965
1720.789
1719.632
1718.499
1717.39
1716.308
1715.256
1714.233
1713.242
1712.283
1711.358
1710.465
1709.606
1708.78
1707.987
1707.226
1706.498
1705.8
1705.132
1704.493
1703.882
1703.297
1702.736
1702.199
1701.683
1701.187
1700.709
1700.247
1699.799
1699.364
1698.94
1698.524
1698.115
1697.711
1697.311
1696.911
1696.511
1696.108
1695.701
1695.287
1694.866
1694.434
1693.991
1693.534
1693.063
1692.574
1692.074
1691.523
1691.066
1690.067
1738.691
1737.617
1736.5
1735.364
1734.222
1733.073
1731.919
1730.76
1729.595
1728.426
1727.252
1726.074
1724.893
1723.711
1722.528
1721.345
1720.165
1718.989
1717.819
1716.656
1715.503
1714.361
1713.232
1712.117
1711.019
1709.939
1708.879
1707.839
1706.821
1705.827
1704.856
1703.911
1702.991
1702.098
1701.23
1700.39
1699.576
1698.789
1698.029
1697.294
1696.585
1695.9
1695.239
1694.601
1693.984
1693.388
1692.812
1692.252
1691.709
1691.18
1690.664
1690.158
1689.661
1689.17
1688.685
1688.201
1687.724
1687.218
1686.807
1685.942
1744.292
1743.255
1742.167
1741.055
1739.934
1738.808
1737.676
1736.543
1735.406
1734.268
1733.126
1731.982
1730.834
1729.682
1728.527
1727.367
1726.202
1725.033
1723.86
1722.682
1721.501
1720.317
1719.131
1717.943
1716.755
1715.567
1714.38
1713.197
1712.018
1710.844
1709.677
1708.518
1707.369
1706.23
1705.104
1703.992
1702.894
1701.813
1700.749
1699.702
1698.675
1697.668
1696.681
1695.716
1694.772
1693.85
1692.95
1692.072
1691.216
1690.381
1689.567
1688.774
1688
1687.244
1686.508
1685.786
1685.086
1684.367
1683.785
1682.649
1744.161
1743.428
1742.641
1741.823
1740.986
1740.134
1739.271
1738.395
1737.509
1736.612
1735.705
1734.787
1733.858
1732.919
1731.969
1731.008
1730.036
1729.053
1728.058
1727.051
1726.033
1725.003
1723.962
1722.909
1721.845
1720.77
1719.684
1718.589
1717.483
1716.369
1715.246
1714.115
1712.978
1711.835
1710.687
1709.535
1708.38
1707.223
1706.066
1704.91
1703.755
1702.603
1701.455
1700.312
1699.176
1698.048
1696.927
1695.816
1694.715
1693.625
1692.547
1691.48
1690.426
1689.385
1688.357
1687.342
1686.348
1685.324
1684.486
1682.88
1750.263
1749.054
1747.832
1746.624
1745.441
1744.282
1743.149
1742.041
1740.956
1739.891
1738.846
1737.818
1736.805
1735.805
1734.816
1733.838
1732.866
1731.902
1730.941
1729.985
1729.029
1728.075
1727.12
1726.163
1725.203
1724.24
1723.272
1722.298
1721.318
1720.33
1719.336
1718.333
1717.321
1716.301
1715.272
1714.233
1713.185
1712.128
1711.062
1709.986
1708.902
1707.809
1706.708
1705.599
1704.483
1703.361
1702.232
1701.098
1699.958
1698.814
1697.666
1696.515
1695.36
1694.204
1693.046
1691.885
1690.734
1689.532
1688.538
1686.61
1754.45
1753.465
1752.413
1751.325
1750.217
1749.096
1747.967
1746.834
1745.701
1744.569
1743.442
1742.32
1741.205
1740.097
1738.998
1737.908
1736.828
1735.757
1734.695
1733.643
1732.6
1731.567
1730.542
1729.525
1728.516
1727.514
1726.518
1725.528
1724.543
1723.562
1722.584
1721.609
1720.635
1719.662
1718.689
1717.714
1716.738
1715.76
1714.778
1713.791
1712.8
1711.804
1710.801
1709.791
1708.774
1707.749
1706.716
1705.674
1704.622
1703.561
1702.489
1701.406
1700.313
1699.209
1698.094
1696.965
1695.836
1694.642
1693.653
1691.69
1757.659
1756.771
1755.829
1754.859
1753.873
1752.875
1751.864
1750.844
1749.814
1748.776
1747.729
1746.674
1745.613
1744.545
1743.472
1742.395
1741.315
1740.232
1739.148
1738.063
1736.978
1735.894
1734.813
1733.734
1732.659
1731.588
1730.521
1729.459
1728.403
1727.352
1726.307
1725.268
1724.234
1723.207
1722.185
1721.169
1720.158
1719.151
1718.149
1717.151
1716.156
1715.163
1714.173
1713.183
1712.195
1711.205
1710.215
1709.222
1708.226
1707.226
1706.22
1705.209
1704.19
1703.163
1702.127
1701.079
1700.032
1698.919
1698.002
1696.157
1758.049
1757.402
1756.697
1755.958
1755.199
1754.425
1753.636
1752.834
1752.018
1751.189
1750.347
1749.491
1748.621
1747.737
1746.839
1745.927
1745
1744.061
1743.107
1742.142
1741.163
1740.174
1739.173
1738.163
1737.143
1736.115
1735.08
1734.038
1732.99
1731.938
1730.882
1729.823
1728.761
1727.699
1726.636
1725.573
1724.51
1723.449
1722.39
1721.333
1720.279
1719.227
1718.178
1717.133
1716.09
1715.05
1714.012
1712.977
1711.944
1710.911
1709.88
1708.848
1707.815
1706.78
1705.743
1704.699
1703.664
1702.569
1701.672
1699.875
1754.837
1754.104
1753.35
1752.602
1751.866
1751.145
1750.44
1749.748
1749.068
1748.397
1747.733
1747.074
1746.417
1745.761
1745.103
1744.44
1743.773
1743.098
1742.414
1741.72
1741.016
1740.299
1739.569
1738.826
1738.068
1737.296
1736.508
1735.705
1734.888
1734.054
1733.206
1732.344
1731.467
1730.576
1729.671
1728.754
1727.824
1726.883
1725.931
1724.968
1723.996
1723.015
1722.026
1721.029
1720.026
1719.015
1717.999
1716.977
1715.95
1714.918
1713.881
1712.839
1711.792
1710.741
1709.685
1708.621
1707.563
1706.448
1705.53
1703.704
1769.792
1768.037
1766.276
1764.545
1762.859
1761.221
1759.632
1758.095
1756.611
1755.179
1753.797
1752.465
1751.181
1749.943
1748.749
1747.597
1746.485
1745.41
1744.369
1743.362
1742.384
1741.434
1740.509
1739.606
1738.722
1737.857
1737.006
1736.169
1735.342
1734.524
1733.712
1732.905
1732.101
1731.299
1730.496
1729.691
1728.884
1728.072
1727.256
1726.433
1725.603
1724.766
1723.92
1723.066
1722.202
1721.328
1720.444
1719.55
1718.645
1717.728
1716.801
1715.861
1714.91
1713.947
1712.972
1711.982
1710.991
1709.939
1709.066
1707.319
1767.099
1766.788
1766.328
1765.745
1765.064
1764.3
1763.459
1762.552
1761.586
1760.569
1759.509
1758.412
1757.285
1756.133
1754.961
1753.775
1752.58
1751.38
1750.178
1748.978
1747.784
1746.598
1745.422
1744.258
1743.109
1741.975
1740.857
1739.757
1738.675
1737.611
1736.565
1735.538
1734.528
1733.535
1732.558
1731.598
1730.652
1729.72
1728.8
1727.893
1726.995
1726.107
1725.227
1724.353
1723.484
1722.62
1721.758
1720.897
1720.036
1719.173
1718.308
1717.438
1716.563
1715.682
1714.793
1713.893
1712.993
1712.039
1711.246
1709.654
1765.606
1764.957
1764.305
1763.665
1763.039
1762.426
1761.817
1761.206
1760.588
1759.957
1759.308
1758.638
1757.943
1757.222
1756.472
1755.694
1754.886
1754.048
1753.182
1752.288
1751.367
1750.421
1749.452
1748.462
1747.452
1746.425
1745.384
1744.33
1743.265
1742.193
1741.114
1740.031
1738.946
1737.861
1736.777
1735.696
1734.619
1733.548
1732.483
1731.426
1730.377
1729.336
1728.305
1727.283
1726.27
1725.267
1724.273
1723.287
1722.31
1721.34
1720.377
1719.419
1718.467
1717.518
1716.572
1715.626
1714.69
1713.707
1712.902
1711.297
1766.648
1765.804
1764.925
1764.042
1763.169
1762.314
1761.48
1760.668
1759.879
1759.111
1758.363
1757.632
1756.916
1756.211
1755.516
1754.826
1754.14
1753.453
1752.764
1752.07
1751.368
1750.656
1749.933
1749.197
1748.445
1747.678
1746.894
1746.092
1745.273
1744.435
1743.579
1742.706
1741.816
1740.908
1739.985
1739.046
1738.094
1737.128
1736.149
1735.16
1734.161
1733.154
1732.139
1731.117
1730.09
1729.059
1728.024
1726.986
1725.947
1724.906
1723.864
1722.822
1721.779
1720.736
1719.693
1718.648
1717.613
1716.529
1715.639
1713.881
1768.389
1767.523
1766.607
1765.672
1764.73
1763.788
1762.848
1761.915
1760.989
1760.073
1759.169
1758.277
1757.399
1756.534
1755.685
1754.85
1754.029
1753.224
1752.432
1751.653
1750.886
1750.129
1749.383
1748.644
1747.913
1747.186
1746.463
1745.741
1745.02
1744.298
1743.573
1742.843
1742.107
1741.365
1740.615
1739.855
1739.085
1738.304
1737.511
1736.705
1735.887
1735.056
1734.212
1733.354
1732.482
1731.597
1730.699
1729.787
1728.861
1727.923
1726.972
1726.008
1725.031
1724.042
1723.042
1722.028
1721.013
1719.938
1719.047
1717.272
1771.027
1770.123
1769.169
1768.198
1767.219
1766.238
1765.257
1764.278
1763.3
1762.325
1761.354
1760.385
1759.421
1758.461
1757.507
1756.559
1755.619
1754.686
1753.762
1752.848
1751.943
1751.049
1750.165
1749.293
1748.433
1747.584
1746.746
1745.92
1745.104
1744.299
1743.504
1742.718
1741.94
1741.17
1740.407
1739.649
1738.895
1738.145
1737.397
1736.65
1735.903
1735.155
1734.404
1733.65
1732.891
1732.126
1731.354
1730.574
1729.785
1728.986
1728.176
1727.354
1726.519
1725.67
1724.808
1723.929
1723.043
1722.097
1721.31
1719.715
1773.112
1772.276
1771.384
1770.466
1769.535
1768.595
1767.651
1766.703
1765.751
1764.797
1763.841
1762.883
1761.923
1760.962
1759.999
1759.035
1758.071
1757.107
1756.142
1755.179
1754.218
1753.258
1752.302
1751.348
1750.399
1749.455
1748.516
1747.584
1746.658
1745.74
1744.829
1743.927
1743.033
1742.148
1741.272
1740.406
1739.548
1738.7
1737.86
1737.029
1736.206
1735.391
1734.583
1733.781
1732.985
1732.194
1731.407
1730.623
1729.84
1729.059
1728.276
1727.492
1726.704
1725.912
1725.115
1724.309
1723.504
1722.648
1721.943
1720.504
1774.171
1773.417
1772.608
1771.772
1770.922
1770.063
1769.197
1768.325
1767.448
1766.567
1765.68
1764.789
1763.893
1762.992
1762.087
1761.178
1760.263
1759.345
1758.422
1757.496
1756.565
1755.631
1754.693
1753.753
1752.809
1751.864
1750.916
1749.968
1749.018
1748.068
1747.119
1746.17
1745.223
1744.277
1743.335
1742.395
1741.459
1740.527
1739.6
1738.678
1737.761
1736.85
1735.945
1735.046
1734.153
1733.267
1732.386
1731.512
1730.642
1729.778
1728.918
1728.062
1727.209
1726.358
1725.509
1724.658
1723.817
1722.932
1722.207
1720.752
1774.225
1773.538
1772.798
1772.033
1771.255
1770.47
1769.679
1768.884
1768.084
1767.281
1766.473
1765.661
1764.844
1764.023
1763.197
1762.367
1761.531
1760.69
1759.844
1758.993
1758.137
1757.275
1756.408
1755.535
1754.657
1753.774
1752.886
1751.992
1751.094
1750.191
1749.283
1748.371
1747.455
1746.535
1745.612
1744.685
1743.755
1742.823
1741.889
1740.954
1740.016
1739.079
1738.14
1737.202
1736.263
1735.326
1734.389
1733.453
1732.517
1731.583
1730.65
1729.718
1728.787
1727.857
1726.927
1725.995
1725.073
1724.106
1723.312
1721.738
1773.598
1772.942
1772.236
1771.509
1770.771
1770.029
1769.284
1768.537
1767.789
1767.039
1766.288
1765.535
1764.78
1764.022
1763.262
1762.498
1761.732
1760.962
1760.189
1759.412
1758.63
1757.845
1757.055
1756.261
1755.462
1754.658
1753.849
1753.035
1752.215
1751.391
1750.561
1749.725
1748.884
1748.037
1747.185
1746.327
1745.463
1744.594
1743.719
1742.839
1741.953
1741.062
1740.166
1739.265
1738.359
1737.447
1736.531
1735.61
1734.684
1733.754
1732.819
1731.878
1730.933
1729.983
1729.028
1728.066
1727.108
1726.1
1725.266
1723.614
1773.148
1772.462
1771.731
1770.981
1770.225
1769.468
1768.712
1767.959
1767.208
1766.459
1765.713
1764.968
1764.226
1763.484
1762.744
1762.004
1761.265
1760.526
1759.786
1759.047
1758.306
1757.565
1756.822
1756.077
1755.331
1754.583
1753.832
1753.079
1752.323
1751.563
1750.801
1750.035
1749.265
1748.491
1747.712
1746.93
1746.142
1745.35
1744.552
1743.749
1742.941
1742.126
1741.306
1740.48
1739.647
1738.807
1737.961
1737.107
1736.246
1735.377
1734.5
1733.615
1732.721
1731.817
1730.905
1729.981
1729.056
1728.077
1727.266
1725.639
1773.269
1772.535
1771.756
1770.958
1770.156
1769.353
1768.554
1767.758
1766.966
1766.178
1765.395
1764.616
1763.841
1763.071
1762.304
1761.541
1760.781
1760.024
1759.271
1758.52
1757.772
1757.027
1756.283
1755.541
1754.801
1754.063
1753.326
1752.589
1751.853
1751.118
1750.382
1749.647
1748.911
1748.174
1747.436
1746.697
1745.956
1745.214
1744.469
1743.721
1742.97
1742.216
1741.459
1740.697
1739.931
1739.16
1738.384
1737.601
1736.813
1736.017
1735.213
1734.402
1733.581
1732.751
1731.912
1731.059
1730.205
1729.296
1728.545
1727.019
1774.159
1773.373
1772.539
1771.688
1770.83
1769.973
1769.119
1768.267
1767.42
1766.578
1765.74
1764.907
1764.079
1763.255
1762.436
1761.622
1760.812
1760.008
1759.207
1758.411
1757.62
1756.833
1756.05
1755.271
1754.496
1753.725
1752.958
1752.195
1751.434
1750.678
1749.924
1749.173
1748.424
1747.679
1746.935
1746.193
1745.453
1744.715
1743.977
1743.241
1742.505
1741.769
1741.033
1740.296
1739.558
1738.819
1738.077
1737.333
1736.585
1735.834
1735.078
1734.316
1733.548
1732.773
1731.992
1731.199
1730.406
1729.562
1728.867
1727.449
1775.66
1774.84
1773.971
1773.081
1772.184
1771.286
1770.388
1769.492
1768.599
1767.709
1766.822
1765.94
1765.06
1764.185
1763.313
1762.446
1761.582
1760.723
1759.868
1759.017
1758.171
1757.329
1756.491
1755.658
1754.83
1754.006
1753.186
1752.371
1751.56
1750.754
1749.952
1749.154
1748.361
1747.572
1746.787
1746.006
1745.228
1744.455
1743.685
1742.918
1742.154
1741.393
1740.634
1739.878
1739.124
1738.371
1737.619
1736.868
1736.116
1735.364
1734.611
1733.855
1733.097
1732.335
1731.569
1730.797
1730.026
1729.21
1728.539
1727.176
1777.406
1776.583
1775.707
1774.808
1773.9
1772.988
1772.074
1771.16
1770.246
1769.333
1768.421
1767.511
1766.603
1765.696
1764.791
1763.889
1762.988
1762.09
1761.195
1760.302
1759.413
1758.526
1757.642
1756.762
1755.885
1755.011
1754.141
1753.274
1752.412
1751.553
1750.698
1749.847
1749
1748.157
1747.319
1746.484
1745.653
1744.827
1744.004
1743.186
1742.371
1741.56
1740.753
1739.949
1739.149
1738.351
1737.556
1736.764
1735.973
1735.183
1734.395
1733.606
1732.817
1732.027
1731.236
1730.441
1729.65
1728.817
1728.131
1726.754
1778.981
1778.182
1777.329
1776.452
1775.562
1774.666
1773.766
1772.864
1771.96
1771.055
1770.149
1769.242
1768.334
1767.426
1766.517
1765.609
1764.7
1763.792
1762.884
1761.976
1761.069
1760.163
1759.258
1758.354
1757.451
1756.55
1755.651
1754.753
1753.857
1752.963
1752.071
1751.182
1750.295
1749.411
1748.529
1747.65
1746.774
1745.901
1745.031
1744.163
1743.299
1742.438
1741.58
1740.724
1739.872
1739.022
1738.175
1737.33
1736.487
1735.645
1734.804
1733.965
1733.125
1732.285
1731.445
1730.601
1729.764
1728.884
1728.159
1726.715
1780.043
1779.288
1778.478
1777.642
1776.792
1775.935
1775.073
1774.208
1773.338
1772.466
1771.592
1770.715
1769.835
1768.954
1768.07
1767.185
1766.297
1765.408
1764.517
1763.624
1762.731
1761.835
1760.939
1760.042
1759.144
1758.245
1757.346
1756.446
1755.546
1754.646
1753.746
1752.846
1751.946
1751.047
1750.148
1749.25
1748.353
1747.456
1746.561
1745.666
1744.773
1743.881
1742.989
1742.1
1741.211
1740.323
1739.436
1738.55
1737.665
1736.78
1735.894
1735.009
1734.122
1733.234
1732.345
1731.452
1730.566
1729.633
1728.866
1727.339
1780.519
1779.807
1779.041
1778.248
1777.442
1776.629
1775.81
1774.988
1774.162
1773.333
1772.501
1771.666
1770.829
1769.988
1769.145
1768.299
1767.451
1766.6
1765.746
1764.889
1764.031
1763.169
1762.305
1761.439
1760.571
1759.7
1758.828
1757.953
1757.076
1756.198
1755.317
1754.435
1753.551
1752.666
1751.78
1750.892
1750.003
1749.112
1748.221
1747.328
1746.434
1745.54
1744.644
1743.748
1742.85
1741.952
1741.052
1740.151
1739.248
1738.344
1737.438
1736.529
1735.617
1734.702
1733.784
1732.86
1731.941
1730.973
1730.176
1728.587
1780.469
1779.79
1779.058
1778.3
1777.529
1776.752
1775.971
1775.186
1774.399
1773.609
1772.817
1772.022
1771.226
1770.426
1769.625
1768.821
1768.015
1767.206
1766.395
1765.581
1764.764
1763.945
1763.124
1762.3
1761.473
1760.644
1759.812
1758.977
1758.14
1757.3
1756.458
1755.613
1754.765
1753.915
1753.062
1752.207
1751.349
1750.489
1749.626
1748.76
1747.892
1747.022
1746.149
1745.273
1744.395
1743.513
1742.629
1741.741
1740.85
1739.955
1739.057
1738.153
1737.245
1736.331
1735.413
1734.486
1733.563
1732.587
1731.783
1730.174
1780.174
1779.506
1778.786
1778.042
1777.287
1776.526
1775.763
1774.998
1774.231
1773.463
1772.694
1771.925
1771.154
1770.382
1769.609
1768.834
1768.059
1767.282
1766.503
1765.723
1764.942
1764.159
1763.374
1762.587
1761.798
1761.008
1760.215
1759.42
1758.624
1757.824
1757.023
1756.219
1755.413
1754.604
1753.793
1752.979
1752.162
1751.343
1750.521
1749.695
1748.867
1748.036
1747.201
1746.363
1745.522
1744.676
1743.827
1742.973
1742.115
1741.252
1740.384
1739.51
1738.629
1737.742
1736.848
1735.945
1735.043
1734.088
1733.3
1731.716
1779.859
1779.189
1778.467
1777.722
1776.965
1776.205
1775.442
1774.679
1773.915
1773.151
1772.387
1771.623
1770.86
1770.096
1769.333
1768.569
1767.806
1767.043
1766.279
1765.516
1764.752
1763.988
1763.223
1762.458
1761.692
1760.926
1760.159
1759.391
1758.622
1757.851
1757.08
1756.308
1755.533
1754.758
1753.981
1753.202
1752.421
1751.638
1750.853
1750.066
1749.276
1748.484
1747.688
1746.89
1746.089
1745.284
1744.475
1743.662
1742.844
1742.021
1741.193
1740.359
1739.518
1738.67
1737.815
1736.949
1736.085
1735.167
1734.411
1732.882
1779.66
1778.981
1778.25
1777.496
1776.731
1775.962
1775.19
1774.419
1773.647
1772.876
1772.105
1771.335
1770.565
1769.796
1769.029
1768.261
1767.495
1766.73
1765.965
1765.201
1764.438
1763.676
1762.914
1762.153
1761.393
1760.633
1759.873
1759.114
1758.355
1757.597
1756.838