/*--------------------------------*- C++ -*----------------------------------*\
| =========                 |                                                 |
| \\      /  F ield         | OpenFOAM: The Open Source CFD Toolbox           |
|  \\    /   O peration     | Version:  2312                                  |
|   \\  /    A nd           | Website:  www.openfoam.com                      |
|    \\/     M anipulation  |                                                 |
\*---------------------------------------------------------------------------*/
FoamFile
{
    version     2.0;
    format      ascii;
    arch        "LSB;label=32;scalar=64";
    class       volScalarField;
    location    "3150";
    object      k;
}
// * * * * * * * * * * * * * * * * * * * * * * * * * * * * * * * * * * * * * //

dimensions      [0 2 -2 0 0 0 0];

internalField   nonuniform List<scalar> 
12000
(
0.002580695
0.005220862
0.006197237
0.00721292
0.008000955
0.008723978
0.009358191
0.009933332
0.01043551
0.0108931
0.01131312
0.01169961
0.01205097
0.01235682
0.01263759
0.01289325
0.01313349
0.01333736
0.01351583
0.0136696
0.01381495
0.01393989
0.01404401
0.01412173
0.0141863
0.01423497
0.01427272
0.01428735
0.01428816
0.01427203
0.01425076
0.0142111
0.01415743
0.01409148
0.01399375
0.01388079
0.01383467
0.01375473
0.01359963
0.01331121
0.01303041
0.0129309
0.01289943
0.01263807
0.01199916
0.01167359
0.01161601
0.01149068
0.01075595
0.01017482
0.009927267
0.009523138
0.00885605
0.008178646
0.007624966
0.006923702
0.00616912
0.00524191
0.004771255
0.004443867
0.002686065
0.006164109
0.007252156
0.00841152
0.009418322
0.01042391
0.01154194
0.01288543
0.0142678
0.01540424
0.01648752
0.01753696
0.01878031
0.01992872
0.02086785
0.02164581
0.02256278
0.023554
0.02442994
0.02507503
0.02565971
0.02634285
0.0270589
0.02767626
0.02816451
0.0286025
0.02907441
0.02955202
0.02995574
0.03025724
0.03053416
0.03084019
0.03113746
0.03136676
0.03150442
0.03161877
0.03178124
0.03192606
0.03203091
0.03204378
0.03201743
0.03201297
0.0318042
0.03162048
0.03139142
0.03120104
0.0305725
0.02970022
0.02915507
0.02853494
0.02740573
0.02569278
0.0242091
0.02272126
0.02070557
0.01814718
0.01488074
0.01110788
0.008061402
0.007879761
0.003841631
0.008254654
0.009934999
0.01149601
0.01347648
0.01541597
0.01724068
0.01906197
0.0207286
0.02207759
0.02336462
0.02458052
0.02575067
0.02682246
0.02778964
0.02863438
0.02941429
0.03015569
0.03083887
0.03143444
0.03195257
0.03243143
0.03289634
0.03333778
0.03373417
0.03408059
0.03439575
0.03470152
0.03499969
0.03527014
0.03550443
0.03569453
0.03591584
0.03618057
0.03640507
0.03659747
0.03677515
0.03697553
0.03723133
0.0375028
0.03771645
0.03786163
0.03800553
0.03827791
0.0385559
0.03869972
0.03870681
0.03863907
0.0385956
0.03832721
0.0377794
0.0369598
0.03578117
0.03412119
0.03157765
0.02807236
0.02390265
0.01850346
0.01131958
0.01041998
0.004707429
0.008521154
0.01065343
0.01282192
0.01528899
0.01769647
0.01992746
0.02188095
0.02359397
0.02514406
0.02644295
0.02755317
0.02850025
0.02932119
0.03003776
0.03067026
0.03123938
0.03177114
0.03226172
0.03269275
0.03308018
0.03343881
0.03378364
0.03410888
0.03441057
0.0346887
0.03494745
0.03519234
0.0354291
0.03566407
0.03584929
0.03599956
0.03619146
0.03640623
0.03661246
0.03681208
0.03701873
0.0372425
0.03748513
0.03774268
0.03800589
0.03826571
0.03851982
0.03878714
0.03905271
0.03929569
0.03945093
0.03948616
0.03945646
0.0392656
0.03893408
0.03842051
0.037339
0.03547232
0.03307541
0.03018471
0.02631859
0.0210169
0.01413002
0.01206376
0.005448324
0.008751683
0.01137586
0.01405713
0.01683195
0.01935377
0.0215072
0.02326504
0.02471155
0.0260043
0.02710888
0.02803192
0.02879217
0.02942113
0.03000215
0.03052322
0.03096388
0.03135537
0.03169386
0.03197711
0.03223393
0.03248918
0.03274505
0.03298375
0.03320584
0.0334169
0.03362211
0.03382655
0.03403491
0.03421741
0.03439778
0.03461675
0.03485442
0.03511674
0.03540017
0.03570288
0.03603623
0.03640481
0.0368093
0.03724922
0.03773732
0.03825808
0.03877749
0.03931667
0.03988093
0.04044139
0.04096764
0.04143028
0.04171585
0.04188907
0.04190354
0.0413995
0.04030205
0.03874688
0.03664083
0.03370942
0.02964783
0.02401237
0.01609499
0.01323813
0.006108209
0.008810166
0.01170953
0.01461292
0.01742991
0.01988037
0.0219105
0.02355969
0.02490315
0.02602249
0.02698782
0.02775505
0.02839346
0.02886825
0.02918476
0.02942506
0.02964396
0.02983536
0.03000253
0.03016547
0.03033284
0.03050938
0.03069014
0.03087482
0.03106585
0.03126642
0.03147943
0.0317075
0.03195267
0.03221633
0.03250456
0.03282289
0.03317455
0.03356666
0.03400435
0.03446811
0.03497118
0.03553888
0.03616455
0.0368401
0.03754854
0.03829715
0.03908486
0.03988315
0.0406859
0.04147313
0.04221345
0.04285051
0.04338701
0.04364952
0.04354293
0.04298647
0.0419599
0.04037066
0.03807037
0.03491824
0.03069827
0.02502604
0.01730964
0.01405936
0.006666626
0.008810255
0.01186572
0.01480079
0.01754108
0.01990911
0.0218901
0.02350422
0.02475851
0.0257139
0.02640042
0.02692579
0.02733071
0.02766894
0.02790555
0.0280348
0.02811859
0.02818252
0.0282458
0.02832006
0.02841296
0.02852865
0.02866878
0.02883476
0.02902859
0.02925243
0.02950849
0.02979902
0.03012639
0.0304929
0.03090233
0.03135889
0.03185503
0.03239833
0.0330048
0.03367121
0.03439491
0.0351747
0.03600737
0.03689604
0.03784006
0.03883178
0.03986003
0.04090879
0.04195643
0.04297497
0.04392112
0.04477938
0.04545292
0.04576028
0.0457489
0.04528516
0.04427014
0.04261179
0.04021528
0.03694845
0.03258841
0.02669783
0.01854353
0.01467032
0.007139111
0.008787838
0.01186678
0.01479773
0.01750728
0.01981805
0.0216882
0.02314808
0.02427241
0.02510433
0.02569787
0.02610539
0.02637139
0.02653821
0.02665686
0.02674157
0.02677412
0.02677939
0.02678685
0.02681375
0.02687117
0.02696543
0.02710025
0.02727818
0.02750135
0.02777169
0.02809098
0.02846108
0.02888388
0.02936117
0.02989503
0.0304875
0.0311379
0.03184938
0.03262287
0.03345879
0.03435799
0.03532207
0.0363493
0.03743624
0.03857733
0.03976378
0.04098266
0.04221556
0.04343759
0.0446144
0.04572125
0.04668219
0.04738865
0.04773282
0.04769663
0.0471349
0.04595235
0.04406867
0.04141024
0.03787539
0.03327197
0.02721792
0.01907514
0.01507318
0.007600522
0.008736129
0.01181531
0.01467833
0.01728222
0.01950463
0.02130581
0.02270874
0.02376358
0.02452488
0.02504987
0.02539017
0.02559213
0.02569198
0.02572813
0.02573907
0.02574714
0.02575306
0.02576289
0.02579313
0.02585695
0.02596471
0.02612328
0.02633706
0.02660848
0.02693931
0.02733096
0.02778469
0.02830178
0.02888323
0.02952953
0.0302431
0.03102516
0.03187414
0.03279039
0.03377397
0.03482421
0.03593958
0.03711712
0.03835203
0.0396371
0.04096201
0.04231236
0.04366917
0.04500499
0.04629445
0.04747808
0.04847616
0.04921204
0.04957237
0.0494957
0.04884112
0.04751554
0.0454654
0.04265071
0.03898783
0.03428566
0.02813257
0.01981689
0.0153816
0.008014459
0.008686091
0.01174392
0.01454171
0.01705176
0.01918001
0.02089547
0.02223124
0.02324038
0.02397762
0.02449081
0.02482544
0.02502376
0.0251235
0.02515562
0.0251513
0.02514434
0.02515681
0.02519438
0.02526344
0.02537281
0.02552798
0.0257362
0.02600326
0.02633335
0.02672881
0.02719097
0.02772044
0.02831725
0.02898359
0.029723
0.03053736
0.03142545
0.03238259
0.03340792
0.03450048
0.03565852
0.03687929
0.03815869
0.03949075
0.04086711
0.04227627
0.04370289
0.04512638
0.04652395
0.04785133
0.04905482
0.05006304
0.05079385
0.05112906
0.05096935
0.05016522
0.04863984
0.04639779
0.04341254
0.03958948
0.03473154
0.02843714
0.02004917
0.01556678
0.008386412
0.008628547
0.01163886
0.01433878
0.01673717
0.01878522
0.0204658
0.02179326
0.02280292
0.02354395
0.02406594
0.02441822
0.02464428
0.02478156
0.02485943
0.02490298
0.02493612
0.02498146
0.02505689
0.02517013
0.02532698
0.02553202
0.02578732
0.02610768
0.02649569
0.02695404
0.02748476
0.02808912
0.02876779
0.02951887
0.03033884
0.03123138
0.03219613
0.03322853
0.03432718
0.03549028
0.03671526
0.03799859
0.03933541
0.04071904
0.04214042
0.04358732
0.04504341
0.04648707
0.04788988
0.04921296
0.05040214
0.05139132
0.0520936
0.05238173
0.05212918
0.05119145
0.04951919
0.04714663
0.04406019
0.04016072
0.03524241
0.02889634
0.02044477
0.01570332
0.008674012
0.00854369
0.01150536
0.01412149
0.01643609
0.01842052
0.02005594
0.0213591
0.02237545
0.02314531
0.02371539
0.02412421
0.02440742
0.02460068
0.0247376
0.02484643
0.02494079
0.02503653
0.02515975
0.02532296
0.02553534
0.02580736
0.02614704
0.02654745
0.02701166
0.0275427
0.02814237
0.02881161
0.02955055
0.03035838
0.03123408
0.03217883
0.03319189
0.03426956
0.03540978
0.03660994
0.0378669
0.03917657
0.04053364
0.04193116
0.04335996
0.04480789
0.04625863
0.04769044
0.04907227
0.05036589
0.05151987
0.05247403
0.05314124
0.05338113
0.05304642
0.05200856
0.0502202
0.04771828
0.04452417
0.04053476
0.03552326
0.02908091
0.02055197
0.01578643
0.00889184
0.00846903
0.0113859
0.01393707
0.01616827
0.01808215
0.01968056
0.02098386
0.02202045
0.02282804
0.02344448
0.02390599
0.02425189
0.0245137
0.02471972
0.02489457
0.02506579
0.02525412
0.02546682
0.0257167
0.02601187
0.02635756
0.0267598
0.02722235
0.02774759
0.02833671
0.02899102
0.02971112
0.030497
0.03134832
0.03226414
0.0332435
0.0342853
0.03538733
0.03654675
0.03776036
0.03902457
0.04033498
0.04168608
0.04307086
0.04448034
0.0459028
0.04732278
0.04871964
0.05006525
0.05132049
0.052443
0.05337507
0.0540036
0.05418766
0.05378236
0.05266247
0.05077624
0.04816848
0.04488865
0.04083308
0.03576826
0.02928645
0.02073106
0.01582454
0.00905692
0.008398982
0.01125531
0.01374138
0.01589622
0.01775462
0.01932551
0.02062546
0.02167834
0.02251616
0.02317407
0.02369078
0.02410005
0.02443214
0.02471499
0.02497535
0.0252327
0.02550411
0.02580307
0.02614051
0.02652432
0.02695904
0.02744553
0.02798167
0.02856809
0.02921096
0.02991367
0.03067598
0.0314985
0.03238116
0.03332325
0.03432376
0.0353807
0.03649249
0.03765629
0.03886792
0.04012358
0.04141879
0.04274807
0.0441046
0.04547975
0.04686237
0.04823783
0.04958659
0.05088403
0.0521075
0.05322055
0.05413142
0.05471883
0.05484454
0.05436992
0.05317612
0.05121045
0.04851549
0.04516443
0.04105287
0.03593314
0.02939364
0.02078048
0.01585479
0.009163128
0.008319899
0.01112158
0.0135485
0.01563537
0.01743912
0.01897814
0.02026935
0.02133557
0.02220609
0.02291218
0.02348509
0.02395426
0.02435233
0.0247072
0.0250452
0.02538567
0.02574322
0.02613032
0.0265569
0.02702964
0.02755173
0.02812314
0.02874177
0.02940519
0.030111
0.03085894
0.03165586
0.03250798
0.0334136
0.03437206
0.03538201
0.03644165
0.03755064
0.03870619
0.03990299
0.04113744
0.04240522
0.0437011
0.04501871
0.04635013
0.04768523
0.04901083
0.05031197
0.05157679
0.05278302
0.05387056
0.0547489
0.05529792
0.05537671
0.05484408
0.05358577
0.05155025
0.04877947
0.04536586
0.04120398
0.03604151
0.02947255
0.02084931
0.01585653
0.009231126
0.008249259
0.01099579
0.01336381
0.01538643
0.01713772
0.01864367
0.01992297
0.02099757
0.02189369
0.0226395
0.02326354
0.02379418
0.02425833
0.02468412
0.02509557
0.02551333
0.02595299
0.02642625
0.02694142
0.02750324
0.02811263
0.02876725
0.02946303
0.03019613
0.03096404
0.031766
0.03260291
0.03347709
0.03439503
0.03536094
0.03637225
0.0374268
0.0385249
0.03966412
0.04083868
0.04204501
0.04327905
0.04453608
0.04581046
0.04709526
0.04838183
0.04966181
0.05093003
0.05217423
0.05335755
0.05441643
0.0552578
0.05576346
0.0557992
0.05522425
0.05391495
0.05181678
0.04898242
0.04551772
0.04131502
0.03611888
0.029518
0.02085699
0.01585653
0.00926158
0.008171943
0.01087394
0.01318523
0.01514614
0.01684452
0.01831414
0.01957659
0.02065369
0.02156963
0.02235007
0.02302114
0.02360878
0.02413816
0.02463229
0.0251135
0.02560423
0.02612069
0.02667469
0.02727418
0.02792238
0.02861748
0.02935383
0.03012417
0.03092216
0.03174397
0.03258902
0.0334594
0.03435872
0.03529079
0.03625868
0.03726504
0.03830963
0.0393924
0.04051119
0.04166003
0.04283551
0.04403397
0.04525133
0.04648293
0.04772326
0.04896807
0.05021572
0.05146019
0.05268204
0.05384198
0.05487407
0.05568372
0.05615181
0.05614348
0.05552275
0.05417012
0.05203156
0.04915175
0.04563784
0.04139744
0.03617646
0.02955766
0.0208742
0.01584074
0.009271039
0.008117489
0.01076732
0.01301568
0.01491264
0.01655574
0.01798525
0.01922561
0.02029884
0.02122779
0.02203629
0.02274862
0.02338885
0.02398013
0.02454374
0.02509857
0.02565976
0.02624504
0.02687238
0.02755027
0.02828057
0.02905847
0.02987406
0.03071607
0.0315752
0.03244622
0.0333283
0.0342243
0.03513937
0.0360793
0.03704888
0.03805039
0.03908218
0.04014557
0.04124148
0.04236402
0.04350929
0.04467394
0.04585451
0.04704789
0.04825217
0.04946636
0.05068807
0.05190934
0.05310947
0.05424704
0.0552541
0.05603503
0.056471
0.05642806
0.05576808
0.05437126
0.05218481
0.0492598
0.0457086
0.04144033
0.03619812
0.02956327
0.02087274
0.01582181
0.009267094
0.008066907
0.01066976
0.0128517
0.01468303
0.0162692
0.01765583
0.01886992
0.01993391
0.02086986
0.02170025
0.02244777
0.0231347
0.02378221
0.0244095
0.02503314
0.02566713
0.02632653
0.02702268
0.02777234
0.02857937
0.02943626
0.03032822
0.03123888
0.03215538
0.03307095
0.033985
0.03490158
0.03582744
0.03676994
0.03773539
0.03872766
0.03974708
0.0407911
0.041861
0.04295825
0.04407765
0.04521366
0.04636386
0.04752691
0.0487022
0.04988963
0.05108743
0.05228722
0.05346701
0.05458373
0.05556785
0.05632265
0.05672886
0.05665327
0.05595819
0.05452816
0.0523102
0.04935461
0.04577451
0.04148415
0.03622548
0.02957263
0.02087188
0.0158049
0.009253085
0.008050892
0.01059147
0.0126986
0.01446
0.01598624
0.01732666
0.01851017
0.01955974
0.02049702
0.02134361
0.02212101
0.0228501
0.02355041
0.02423952
0.02493248
0.02564173
0.02637414
0.02713943
0.02795163
0.02882672
0.02975667
0.03072105
0.03169703
0.03266732
0.03362343
0.03456515
0.03549813
0.03643108
0.03737323
0.03833245
0.03931384
0.04031885
0.04134506
0.042394
0.04346825
0.0445632
0.04567388
0.04679825
0.04793555
0.04908607
0.0502505
0.0514275
0.05260855
0.0537709
0.05487024
0.05583567
0.05656933
0.05695138
0.05684866
0.05612331
0.05466046
0.05240898
0.04942251
0.04581707
0.04150671
0.03623222
0.02956947
0.02085654
0.01577967
0.009240669
0.008052765
0.01052747
0.01255356
0.01424222
0.01570646
0.01699802
0.01814747
0.01917845
0.02011266
0.02097116
0.02177453
0.02254228
0.02329226
0.02404004
0.02479849
0.02557729
0.026383
0.02722111
0.02809962
0.02903482
0.0300299
0.03106108
0.03209817
0.03311829
0.03411089
0.03507636
0.03602229
0.03695961
0.03789951
0.03885141
0.0398215
0.04081224
0.04182244
0.04285403
0.04390837
0.04498122
0.04606952
0.04717166
0.04828703
0.04941622
0.05056056
0.05171923
0.0528838
0.054031
0.05511542
0.05606479
0.05678005
0.05714061
0.05701348
0.0562615
0.05477127
0.05249321
0.04948229
0.04585581
0.04152937
0.03624253
0.02956849
0.02084979
0.01576572
0.009235747
0.008081616
0.01048424
0.01242138
0.01403174
0.01543044
0.01667035
0.01778303
0.01879279
0.0197214
0.02058956
0.02141693
0.02222169
0.02301996
0.02382532
0.02464845
0.02549663
0.02637485
0.02728479
0.02822699
0.02921673
0.0302698
0.03136099
0.03245329
0.03351798
0.03454226
0.03552727
0.03648276
0.03742204
0.03835838
0.03930259
0.0402617
0.04123891
0.0422348
0.0432517
0.04428904
0.04534305
0.04641245
0.04749597
0.0485929
0.04970396
0.05083095
0.05197373
0.05312411
0.05425845
0.05533036
0.05626625
0.05696582
0.05730769
0.05715874
0.05638225
0.05486595
0.05256221
0.04952865
0.04588441
0.04154377
0.03624464
0.02956013
0.02083245
0.01574294
0.009235422
0.008131187
0.0104595
0.01229989
0.01382936
0.01516064
0.01634724
0.01742165
0.01840885
0.0193308
0.02020782
0.02105864
0.02189996
0.02274602
0.02360803
0.02449457
0.02541057
0.02635786
0.02733559
0.02834099
0.02938614
0.03048958
0.03163262
0.03277292
0.03387576
0.03492607
0.0359259
0.03688732
0.03782608
0.03875736
0.03969324
0.04064237
0.04160875
0.04259229
0.04359525
0.04461758
0.04565637
0.04671078
0.0477798
0.04886228
0.04995821
0.05107001
0.05219882
0.05333687
0.05446018
0.05552145
0.05644582
0.05713173
0.05745702
0.05728849
0.0564901
0.05495088
0.05262497
0.04957199
0.04591231
0.04155958
0.03625045
0.02955741
0.02082417
0.01573242
0.00924333
0.008208357
0.01045885
0.01219702
0.01363981
0.01490023
0.01603158
0.01706678
0.01803114
0.0189466
0.01983296
0.02070786
0.02158644
0.02248092
0.02340024
0.0243497
0.02533124
0.02634391
0.02738554
0.02845173
0.02955004
0.03069916
0.03188709
0.03306763
0.03420117
0.03527102
0.03628052
0.03724412
0.03817989
0.03910489
0.04003367
0.04097537
0.04193221
0.04290475
0.04389546
0.04490482
0.04593074
0.04697266
0.04802968
0.04910062
0.05018454
0.05128337
0.05240005
0.05352741
0.0546413
0.05569361
0.05660816
0.05728216
0.05759262
0.05740619
0.05658754
0.05502686
0.05268021
0.04960951
0.04593643
0.04157271
0.0362534
0.02955091
0.02081022
0.01571559
0.009268465
0.008314027
0.01047075
0.01210668
0.0134607
0.01464903
0.01572526
0.01672243
0.0176659
0.01857727
0.01947548
0.02037678
0.02129436
0.02223795
0.02321426
0.02422514
0.02527021
0.02634596
0.02744821
0.02857034
0.02971753
0.03090891
0.03213547
0.03334796
0.03450375
0.0355858
0.03659928
0.03756119
0.03849195
0.0394109
0.04033381
0.04126861
0.04221676
0.04317941
0.04415908
0.04515713
0.04617224
0.04720366
0.0482507
0.04931218
0.05038659
0.05147509
0.05258131
0.05369944
0.05480546
0.05585035
0.05675669
0.05742041
0.05771778
0.05751528
0.05667829
0.05509812
0.05273283
0.04964653
0.04596189
0.04158875
0.03626069
0.02955001
0.02080322
0.01570874
0.009304102
0.008440034
0.01050223
0.01203097
0.013295
0.01441125
0.01543344
0.01639475
0.01732034
0.01823114
0.01914484
0.02007587
0.02103512
0.02202975
0.02306279
0.0241339
0.02523944
0.02637418
0.02753202
0.02870424
0.02989552
0.03112561
0.03238474
0.0336209
0.03479021
0.0358769
0.03688869
0.03784521
0.03876907
0.03968215
0.04059996
0.0415278
0.04246778
0.0434218
0.04439158
0.04537931
0.04638523
0.04740794
0.04844682
0.04950065
0.05056778
0.05164849
0.05274596
0.05385644
0.05495603
0.05599492
0.05689442
0.05754926
0.05783486
0.05761751
0.05676345
0.05516525
0.05278274
0.04968198
0.04598693
0.04160485
0.03626777
0.0295493
0.02079433
0.0156986
0.009353886
0.008585904
0.01055442
0.01197041
0.01314132
0.01418607
0.0151573
0.01608716
0.01699979
0.01791482
0.01884826
0.01981228
0.02081553
0.02186243
0.02295231
0.02408162
0.02524427
0.02643425
0.02764189
0.02885783
0.03008849
0.03135436
0.03264042
0.03389172
0.0350653
0.03614863
0.03715299
0.03810079
0.03901653
0.03992347
0.04083586
0.0417568
0.04268901
0.04363483
0.04459626
0.04557563
0.04657359
0.04758914
0.04862161
0.04966968
0.05073149
0.05180628
0.05289677
0.05400111
0.05509558
0.05612964
0.05702344
0.05767051
0.05794574
0.05771566
0.05684641
0.05523036
0.05283114
0.04971823
0.04601503
0.04162512
0.03627903
0.02955034
0.02078981
0.01569594
0.009414967
0.008748431
0.01061764
0.0119252
0.01300662
0.01398244
0.01490557
0.01580777
0.0167121
0.01763659
0.01859496
0.01959678
0.02064708
0.02174648
0.02289186
0.02407753
0.0252922
0.02653046
0.02778153
0.02903459
0.03029926
0.03159625
0.03290196
0.03415948
0.03532873
0.03640153
0.03739303
0.0383287
0.03923638
0.04013845
0.0410448
0.04195893
0.04288394
0.04382258
0.04477703
0.04574961
0.04674123
0.04775124
0.04877897
0.04982293
0.05088104
0.05195164
0.05303697
0.05413681
0.05522762
0.05625817
0.05714762
0.05778863
0.05805519
0.05781176
0.0569257
0.05529408
0.05288159
0.04975707
0.04604438
0.04164559
0.03629063
0.02955415
0.02078649
0.01569396
0.009482887
0.008911587
0.01070054
0.01189475
0.01288436
0.01379407
0.01467515
0.01555692
0.01645996
0.01739961
0.01838731
0.01942987
0.02052846
0.02167957
0.02287721
0.02410904
0.02537439
0.02665743
0.02794685
0.02923113
0.0305251
0.03184956
0.03316946
0.03442489
0.03558079
0.0366361
0.0376109
0.03853307
0.03943268
0.04033017
0.04123081
0.04213864
0.04305724
0.04398964
0.04493828
0.0459054
0.04689202
0.04789782
0.04892211
0.04996328
0.05101901
0.05208682
0.05316847
0.05426508
0.05535317
0.05638099
0.05726691
0.05790209
0.05815821
0.05790079
0.05700059
0.05535558
0.05293091
0.04979636
0.04607568
0.04166941
0.03630641
0.02956087
0.02078617
0.01569468
0.009565009
0.009096451
0.01078753
0.01188186
0.01278511
0.01363441
0.01447842
0.01534474
0.01625171
0.0172126
0.0182346
0.01931985
0.02046554
0.02166636
0.0229082
0.0241914
0.02549953
0.02682031
0.02814131
0.02945
0.0307681
0.03211505
0.03344005
0.03468512
0.03582211
0.03685609
0.03781193
0.03872194
0.03961518
0.04050657
0.04140084
0.04230227
0.04321466
0.04414127
0.04508474
0.04604719
0.04702969
0.04803216
0.04905387
0.05009312
0.0511474
0.05221352
0.05329273
0.05438706
0.05547342
0.05649954
0.05738175
0.05800962
0.05825583
0.05798758
0.05707627
0.05541964
0.05298327
0.04983795
0.04610861
0.04169424
0.03632307
0.02956984
0.02078611
0.01569821
0.009656211
0.009270085
0.0108774
0.01188159
0.01270109
0.01349478
0.01430942
0.01516944
0.01608996
0.01707922
0.01813967
0.01926909
0.02046123
0.02170151
0.02299316
0.02431787
0.02566233
0.02701304
0.02835669
0.02968966
0.03103533
0.03239692
0.03371711
0.03494353
0.03605691
0.03706802
0.03800483
0.03890243
0.03978813
0.0406721
0.04155911
0.04245364
0.04335966
0.04428059
0.0452192
0.04617748
0.04715647
0.04815627
0.04917602
0.05021393
0.05126732
0.05233283
0.05341128
0.05450448
0.05559018
0.05661475
0.05749301
0.05811423
0.05835164
0.05807342
0.05715103
0.05548294
0.05303557
0.04988088
0.04614446
0.04172314
0.03634434
0.02958344
0.02079249
0.01570494
0.00975331
0.00945057
0.01097175
0.01189203
0.01264324
0.01339042
0.01418362
0.01504467
0.01598358
0.01700315
0.01810215
0.01927168
0.02050248
0.02179472
0.02312834
0.02448964
0.02586442
0.02723859
0.02859874
0.02995195
0.03132242
0.0326918
0.03399948
0.03520014
0.03628413
0.03726932
0.03818664
0.03907185
0.03994939
0.04082536
0.04170486
0.04259252
0.04349245
0.0444081
0.04534241
0.04629736
0.04727382
0.04827186
0.04929057
0.05032804
0.05138142
0.05244716
0.05352556
0.05461815
0.05570301
0.05672601
0.05760105
0.05821681
0.05844635
0.05815878
0.05722635
0.05554796
0.05309047
0.04992649
0.04618209
0.04175298
0.03636587
0.02959623
0.02079648
0.01571108
0.009858998
0.009622579
0.01106729
0.0119086
0.01259628
0.0133101
0.01409286
0.01496249
0.0159255
0.01697923
0.01811112
0.01932319
0.02060456
0.02193788
0.02330835
0.0247009
0.02610057
0.02749296
0.02886418
0.0302341
0.03162532
0.03299463
0.03428083
0.0354491
0.03649974
0.03745726
0.0383571
0.03923258
0.04010138
0.04096922
0.04184131
0.04272242
0.04361673
0.04452772
0.04545846
0.04641087
0.04738558
0.0483826
0.04940089
0.0504384
0.05149214
0.05255835
0.05363706
0.05472967
0.05581436
0.05683613
0.05770797
0.05831801
0.05853965
0.05824298
0.05730081
0.05561251
0.05314531
0.0499725
0.04622075
0.04178455
0.03638995
0.02961347
0.02080665
0.01572128
0.009970969
0.009785519
0.01116724
0.0119464
0.01258695
0.01327031
0.01405038
0.01493757
0.01592646
0.01700716
0.01818603
0.01944269
0.02076336
0.02213207
0.02353261
0.02494896
0.02636566
0.02776821
0.02915161
0.0305421
0.03194546
0.03330382
0.03456064
0.0356922
0.0367083
0.03763852
0.03852129
0.03938692
0.04024685
0.04110666
0.04197163
0.04284654
0.0437356
0.04464229
0.04556981
0.04652001
0.04749332
0.04848962
0.04950777
0.05054557
0.05159986
0.05266671
0.05374602
0.05483905
0.05592374
0.05694416
0.05781252
0.05841682
0.05863088
0.05832568
0.05737462
0.05567736
0.05320125
0.05001999
0.04626077
0.04181732
0.03641506
0.02963016
0.0208149
0.015729
0.01009196
0.009954054
0.01127546
0.01199815
0.01259266
0.01326751
0.01404993
0.01494836
0.01596567
0.01709486
0.0183156
0.01961261
0.02096938
0.0223688
0.02379388
0.02522817
0.02665608
0.02806278
0.02945906
0.03087136
0.0322782
0.03361595
0.03483635
0.03592812
0.03690966
0.03781421
0.03868091
0.03953631
0.04038693
0.04123853
0.04209642
0.04296539
0.04384954
0.0447523
0.04567691
0.04662517
0.0475973
0.04859309
0.04961127
0.05064952
0.05170451
0.05277217
0.05385218
0.05494571
0.05603038
0.05704943
0.05791435
0.05851302
0.05871983
0.05840662
0.0574473
0.05574165
0.05325705
0.05006754
0.04630098
0.04185036
0.03644079
0.02964899
0.02082763
0.01574036
0.01021401
0.01010834
0.01138658
0.01206476
0.01262654
0.01328863
0.01408376
0.01501494
0.01607152
0.01723894
0.01849866
0.01983194
0.02122015
0.0226451
0.02408931
0.02553624
0.02697057
0.02837886
0.0297877
0.03121908
0.03261998
0.03392722
0.03510529
0.03615486
0.03710177
0.03798395
0.03883756
0.03968191
0.04052295
0.04136631
0.04221723
0.04308038
0.04395986
0.044859
0.04578102
0.04672763
0.04769883
0.04869431
0.04971266
0.05075144
0.0518072
0.0528757
0.05395655
0.05505081
0.05613559
0.0571532
0.0580145
0.05860747
0.05880718
0.0584863
0.05751926
0.05580582
0.05331323
0.05011575
0.0463419
0.04188426
0.03646756
0.02966859
0.02084004
0.01574937
0.01034026
0.01026006
0.0115049
0.01214972
0.01268928
0.01335329
0.01416948
0.01513331
0.01622828
0.01743438
0.01873044
0.02009562
0.02150994
0.02295444
0.02441131
0.02586394
0.0272967
0.02871428
0.03014591
0.0315842
0.03296621
0.03423458
0.03536693
0.03637453
0.03728875
0.03815012
0.03899108
0.03982438
0.04065586
0.0414911
0.04233524
0.04319289
0.04406802
0.04496386
0.0458836
0.04682882
0.0477993
0.04879461
0.04981321
0.05085252
0.05190896
0.05297817
0.05405975
0.05515472
0.05623943
0.0572553
0.05811267
0.05869975
0.0588924
0.05856414
0.0575898
0.05586903
0.05336879
0.05016353
0.0463824
0.04191772
0.03649394
0.02968819
0.02085347
0.01576032
0.01047305
0.01040574
0.01163126
0.01225389
0.01278502
0.01346038
0.01430338
0.01530241
0.01643554
0.01767849
0.0190075
0.02040015
0.02183567
0.0232948
0.02475974
0.02621411
0.02764251
0.02906972
0.03052378
0.03196033
0.03331267
0.03453571
0.03562075
0.03658782
0.03747179
0.03831386
0.03914241
0.0399648
0.0407869
0.04161425
0.04245189
0.04330433
0.0441754
0.04506821
0.04598588
0.04692983
0.04789966
0.04889479
0.04991356
0.05095326
0.05201019
0.05307987
0.054162
0.05525756
0.05634197
0.05735571
0.05820875
0.05878969
0.05897529
0.05863991
0.05765873
0.05593121
0.05342386
0.05021112
0.04642271
0.04195106
0.03652049
0.0297082
0.02086741
0.01577042
0.01060506
0.01054241
0.01176231
0.012375
0.01291247
0.01360815
0.01448354
0.01551995
0.01669046
0.01796747
0.01932518
0.02074011
0.02219099
0.02365846
0.02512486
0.02657398
0.02800736
0.02945617
0.03092149
0.03234216
0.03365508
0.03482832
0.03586527
0.03679328
0.03765115
0.03847716
0.03929292
0.04010442
0.04091735
0.04173709
0.04256854
0.04341605
0.04428333
0.04517333
0.04608906
0.04703179
0.04800094
0.04899577
0.05001451
0.05105432
0.0521114
0.05318119
0.05426352
0.05535941
0.05644312
0.05745423
0.05830249
0.05887702
0.05905558
0.05871336
0.05772581
0.05599201
0.05347785
0.05025767
0.04646187
0.04198318
0.03654585
0.02972733
0.02088111
0.0157809
0.01074793
0.01068464
0.01190531
0.01251884
0.01307377
0.01379684
0.01470856
0.01578316
0.01698938
0.01829705
0.0196791
0.02111157
0.02257315
0.02404471
0.02550902
0.02695013
0.02839162
0.02986469
0.03133161
0.03272437
0.03399031
0.03511171
0.03610214
0.03699402
0.03782856
0.03864009
0.03944349
0.04024447
0.04104859
0.04186105
0.04268659
0.04352942
0.04439308
0.04528038
0.0461942
0.04713565
0.04810396
0.04909824
0.05011659
0.0511561
0.05221287
0.05328227
0.05436434
0.05546015
0.05654267
0.05755059
0.05839357
0.05896142
0.05913298
0.05878419
0.05779069
0.05605105
0.05353046
0.05030309
0.04650007
0.04201462
0.03657102
0.02974686
0.02089574
0.01579138
0.01088776
0.01081245
0.01205516
0.01268562
0.0132695
0.0140263
0.01497707
0.01608945
0.01732864
0.01866274
0.02006399
0.02150832
0.02297465
0.02444428
0.02590031
0.02734393
0.02880752
0.03029545
0.03174945
0.03310359
0.03431802
0.03538781
0.03633451
0.03719363
0.03800683
0.03880442
0.03959579
0.04038656
0.04118212
0.04198752
0.04280734
0.04364559
0.04450569
0.04539028
0.04630209
0.04724206
0.0482092
0.04920253
0.05022004
0.0512587
0.05231459
0.05338301
0.05446427
0.0555595
0.05664025
0.05764437
0.05848157
0.05904251
0.05920714
0.05885211
0.05785312
0.05610811
0.0535814
0.05034693
0.04653666
0.04204445
0.03659458
0.02976463
0.02090848
0.01580066
0.01103398
0.01094518
0.01222015
0.01287982
0.01350144
0.01429616
0.015287
0.01643573
0.01770487
0.01906153
0.02047785
0.02193008
0.02339758
0.02486215
0.02630735
0.02775836
0.02924856
0.03074159
0.03217039
0.03347777
0.03463799
0.03565733
0.0365633
0.03739318
0.03818721
0.03897115
0.03975077
0.04053159
0.04131883
0.04211735
0.04293155
0.04376526
0.04462169
0.04550344
0.04641307
0.04735123
0.04831679
0.04930866
0.05032475
0.05136198
0.05241636
0.05348317
0.05456302
0.0556571
0.05673545
0.05773518
0.05856618
0.05912004
0.05927785
0.0589169
0.05791285
0.05616285
0.05363034
0.05038905
0.04657178
0.04207318
0.03661755
0.02978233
0.02092145
0.01581022
0.01118113
0.01107278
0.01239834
0.01310125
0.01376868
0.01460448
0.01563538
0.01681808
0.01811323
0.01948756
0.02091348
0.02236777
0.02383052
0.02528408
0.02673223
0.02820818
0.02971496
0.03119754
0.03258924
0.03384418
0.03494944
0.03592009
0.03678801
0.03759267
0.03837052
0.03914085
0.03990894
0.04068005
0.04145917
0.04225096
0.0430596
0.04388873
0.04474133
0.04562007
0.0465273
0.04746323
0.0484267
0.04941654
0.05043061
0.05146577
0.05251801
0.05358256
0.05466037
0.05575268
0.056828
0.05782274
0.0586471
0.05919371
0.05934482
0.05897828
0.0579696
0.05621509
0.05367718
0.05042927
0.04660486
0.04209972
0.03663823
0.02979761
0.02093232
0.01581804
0.01133112
0.01120502
0.01259319
0.01335125
0.01407139
0.01495007
0.01601961
0.01723312
0.01855025
0.01993803
0.02136965
0.02282291
0.02427873
0.02572207
0.02717988
0.02868398
0.03019793
0.03165738
0.03300308
0.0342024
0.03525372
0.03617873
0.03701197
0.03779365
0.03855631
0.03931359
0.04007056
0.04083223
0.04160343
0.0423886
0.04319172
0.04401623
0.04486488
0.04574041
0.0466449
0.04757811
0.04853891
0.04952611
0.05053752
0.05156995
0.05261934
0.05368096
0.05475608
0.05584596
0.05691754
0.05790668
0.05872401
0.05926328
0.05940787
0.05903611
0.05802325
0.05626464
0.05372164
0.05046724
0.04663579
0.04212437
0.03665756
0.02981233
0.02094348
0.01582636
0.01148699
0.01134407
0.01280763
0.01363199
0.01440881
0.01532975
0.01643575
0.0176764
0.01901111
0.02040767
0.02184015
0.02328709
0.02473001
0.02617771
0.02766375
0.0291855
0.03069109
0.03211565
0.03340956
0.03455253
0.0355522
0.03643506
0.03723688
0.03799742