/*--------------------------------*- C++ -*----------------------------------*\
| =========                 |                                                 |
| \\      /  F ield         | OpenFOAM: The Open Source CFD Toolbox           |
|  \\    /   O peration     | Version:  2312                                  |
|   \\  /    A nd           | Website:  www.openfoam.com                      |
|    \\/     M anipulation  |                                                 |
\*---------------------------------------------------------------------------*/
FoamFile
{
    version     2.0;
    format      ascii;
    arch        "LSB;label=32;scalar=64";
    class       surfaceScalarField;
    location    "3150";
    object      phi;
}
// * * * * * * * * * * * * * * * * * * * * * * * * * * * * * * * * * * * * * //

dimensions      [1 0 -1 0 0 0 0];

oriented        oriented;

internalField   nonuniform List<scalar> 
23740
(
-0.0001389821
0.0001388136
-0.0002739549
0.000134973
-0.0004150126
0.0001410578
-0.0005576436
0.0001426311
-0.0006931339
0.0001354903
-0.0008231873
0.0001300533
-0.0009521989
0.0001290114
-0.00107769
0.0001254909
-0.001185077
0.0001073868
-0.001282725
9.764651e-05
-0.001373982
9.125676e-05
-0.001467429
9.344662e-05
-0.00155446
8.703045e-05
-0.001626535
7.207408e-05
-0.001687174
6.063843e-05
-0.001749174
6.1999e-05
-0.001813855
6.468042e-05
-0.001870734
5.68783e-05
-0.001913658
4.29234e-05
-0.001950443
3.678428e-05
-0.001990396
3.995239e-05
-0.002032058
4.166164e-05
-0.002067336
3.527704e-05
-0.002093671
2.63339e-05
-0.002115905
2.223381e-05
-0.002139064
2.315818e-05
-0.002162279
2.321512e-05
-0.002180137
1.785652e-05
-0.002190998
1.086115e-05
-0.002200442
9.443111e-06
-0.002211915
1.147257e-05
-0.00222008
8.164632e-06
-0.002222473
2.392606e-06
-0.002218731
-3.742188e-06
-0.002211568
-7.163011e-06
-0.002208794
-2.773647e-06
-0.002207857
-9.378148e-07
-0.00219856
-9.296891e-06
-0.002171604
-2.695535e-05
-0.002134988
-3.661603e-05
-0.002116127
-1.886096e-05
-0.00211443
-1.697446e-06
-0.002093493
-2.093672e-05
-0.002025853
-6.763956e-05
-0.001956823
-6.902914e-05
-0.001931096
-2.572665e-05
-0.001909518
-2.157685e-05
-0.001830009
-7.950894e-05
-0.001726413
-0.0001035949
-0.001656471
-6.994135e-05
-0.00158942
-6.704972e-05
-0.001479902
-0.0001095165
-0.001349592
-0.0001303089
-0.001225682
-0.0001239094
-0.001088375
-0.0001373058
-0.0009271876
-0.0001611856
-0.0007212707
-0.0002059154
-0.0005002252
-0.000221043
-0.000250006
-0.000250214
-0.0002500051
-0.000133639
0.000272453
-0.0002673181
0.0002686525
-0.0003951894
0.0002689294
-0.0005176373
0.0002650791
-0.0006374254
0.0002552783
-0.0007464523
0.00023908
-0.0008418223
0.000224381
-0.0009263969
0.000210065
-0.00101366
0.0001946489
-0.001096936
0.0001809224
-0.001172519
0.0001668386
-0.001234882
0.0001558083
-0.001291473
0.0001436204
-0.001349755
0.0001303556
-0.001407538
0.00011842
-0.001454651
0.000109111
-0.00149083
0.0001008587
-0.001525653
9.170021e-05
-0.00156493
8.219941e-05
-0.001602363
7.421632e-05
-0.001630416
6.800405e-05
-0.001650893
6.213814e-05
-0.001671245
5.562835e-05
-0.001693868
4.895562e-05
-0.001714747
4.311207e-05
-0.001729726
3.813622e-05
-0.001739755
3.324305e-05
-0.00174967
2.777126e-05
-0.001760957
2.214776e-05
-0.001768813
1.72981e-05
-0.001770802
1.346121e-05
-0.001772462
9.824271e-06
-0.00177313
3.060054e-06
-0.001774324
-2.548869e-06
-0.001774038
-7.448522e-06
-0.001764608
-1.220374e-05
-0.001747628
-1.791766e-05
-0.00173204
-2.488536e-05
-0.00172634
-3.265519e-05
-0.001723043
-3.991298e-05
-0.001696346
-4.555752e-05
-0.001645971
-5.20725e-05
-0.001604922
-6.198482e-05
-0.001599648
-7.291345e-05
-0.001585255
-8.342099e-05
-0.00151862
-9.236134e-05
-0.001437351
-0.0001028446
-0.00139908
-0.0001177782
-0.001369785
-0.0001328885
-0.001292631
-0.0001470943
-0.001195593
-0.0001640859
-0.001121964
-0.0001831443
-0.001052353
-0.0001999183
-0.0009598631
-0.0002163975
-0.0008458855
-0.0002512814
-0.0007207375
-0.000286331
-0.0005816635
-0.0003449869
-0.0004169477
-0.0003857556
-0.0002232218
-0.0004439354
-0.0004732262
-0.0001144708
0.0003869243
-0.0002262682
0.0003804503
-0.0003301908
0.0003728523
-0.0004237463
0.0003586346
-0.0005116705
0.0003432024
-0.0005951442
0.0003225534
-0.0006719518
0.0003011881
-0.0007429896
0.0002811022
-0.000814759
0.0002664174
-0.0008785308
0.0002446932
-0.0009356584
0.0002239651
-0.0009867032
0.0002068519
-0.001033393
0.0001903093
-0.001076494
0.0001734547
-0.001117172
0.0001590974
-0.001154254
0.0001461912
-0.001187599
0.000134203
-0.00121862
0.0001227201
-0.001248231
0.0001118093
-0.001275661
0.0001016457
-0.001299955
9.229661e-05
-0.001321234
8.341579e-05
-0.001340444
7.483825e-05
-0.001358063
6.65734e-05
-0.001373723
5.877139e-05
-0.001386966
5.137842e-05
-0.001397883
4.415906e-05
-0.001407008
3.689512e-05
-0.001414418
2.955694e-05
-0.001419418
2.229773e-05
-0.001422335
1.637825e-05
-0.001423048
1.053689e-05
-0.001422054
2.065293e-06
-0.00141884
-5.762403e-06
-0.001412869
-1.341969e-05
-0.001403978
-2.109503e-05
-0.001392686
-2.921016e-05
-0.001379517
-3.805347e-05
-0.001364557
-4.76151e-05
-0.001346941
-5.752943e-05
-0.001324978
-6.752022e-05
-0.001298859
-7.819045e-05
-0.00127068
-9.016329e-05
-0.001239775
-0.0001038178
-0.001205049
-0.0001181465
-0.001164663
-0.0001327465
-0.001118378
-0.0001491283
-0.001071288
-0.0001648668
-0.001018323
-0.0001858523
-0.0009581681
-0.0002072482
-0.0008939714
-0.0002282811
-0.0008275485
-0.0002495657
-0.0007513338
-0.0002761316
-0.0006594902
-0.0003082393
-0.0005578188
-0.0003529504
-0.0004525371
-0.0003916103
-0.0003610992
-0.000436422
-0.0002542553
-0.0004925959
-0.0001360278
-0.0005621588
-0.0006092536
-8.386491e-05
0.0004707898
-0.0001633469
0.0004599328
-0.0002374412
0.0004469469
-0.000306859
0.0004280526
-0.0003700373
0.0004063808
-0.000430446
0.0003829618
-0.0004881882
0.00035893
-0.0005430764
0.0003359897
-0.0005922018
0.0003155421
-0.0006411763
0.000293667
-0.0006886364
0.0002714246
-0.0007343878
0.0002526024
-0.0007769349
0.0002328555
-0.0008165278
0.0002130466
-0.0008529603
0.0001955291
-0.0008861846
0.0001794146
-0.0009163018
0.0001643194
-0.0009439971
0.0001504145
-0.000970632
0.0001384435
-0.000995206
0.000126219
-0.001017347
0.0001144368
-0.001036445
0.0001025134
-0.001053247
9.163939e-05
-0.001068051
8.13773e-05
-0.001080846
7.156529e-05
-0.001091575
6.210713e-05
-0.001100325
5.290784e-05
-0.001107284
4.385395e-05
-0.001112538
3.481083e-05
-0.001116855
2.661443e-05
-0.001118782
1.830413e-05
-0.001117743
9.498369e-06
-0.001115548
-1.307646e-07
-0.001111646
-9.664202e-06
-0.00110578
-1.928581e-05
-0.001097755
-2.911945e-05
-0.001087475
-3.949077e-05
-0.001075128
-5.04005e-05
-0.001060825
-6.191788e-05
-0.001044273
-7.408114e-05
-0.001024829
-8.696402e-05
-0.001002233
-0.0001007858
-0.0009784049
-0.0001139909
-0.0009517121
-0.0001305101
-0.0009219523
-0.0001479056
-0.0008883369
-0.0001663611
-0.0008515409
-0.0001859236
-0.0008113358
-0.000205071
-0.0007673877
-0.0002297994
-0.0007216182
-0.0002530167
-0.0006719
-0.0002779982
-0.0006130038
-0.0003084606
-0.0005434661
-0.0003456679
-0.0004684486
-0.0003832551
-0.0003994135
-0.0004219838
-0.0003268787
-0.0004641432
-0.0002497814
-0.000513517
-0.0001710671
-0.0005713072
-9.052472e-05
-0.0006426976
-0.0006997779
-6.470772e-05
0.0005354981
-0.0001271657
0.0005223913
-0.0001853616
0.0005051431
-0.0002403695
0.0004830608
-0.0002921788
0.00045819
-0.0003412574
0.0004320402
-0.0003875903
0.0004052626
-0.0004300894
0.0003784884
-0.0004666566
0.0003521088
-0.0005013968
0.0003284066
-0.000536281
0.0003063081
-0.0005702942
0.000286615
-0.0006026036
0.0002651643
-0.0006329428
0.000243385
-0.0006609468
0.0002235324
-0.0006866836
0.0002051508
-0.0007102821
0.0001879174
-0.0007318261
0.0001719581
-0.0007516434
0.0001582603
-0.0007699307
0.0001445057
-0.0007865927
0.0001310983
-0.000801493
0.0001174132
-0.0008145798
0.0001047258
-0.0008259437
9.274073e-05
-0.0008356268
8.124785e-05
-0.0008436581
7.0138e-05
-0.0008500763
5.932566e-05
-0.0008549585
4.873572e-05
-0.0008584255
3.827761e-05
-0.0008607111
2.889978e-05
-0.0008606062
1.819897e-05
-0.0008587683
7.660288e-06
-0.0008558907
-3.008422e-06
-0.0008516018
-1.395317e-05
-0.0008456869
-2.520073e-05
-0.0008389744
-3.58319e-05
-0.0008303335
-4.813159e-05
-0.0008199148
-6.081907e-05
-0.0008077854
-7.404706e-05
-0.000793902
-8.796439e-05
-0.0007781581
-0.0001027077
-0.0007606107
-0.0001183329
-0.0007409495
-0.0001336517
-0.0007190562
-0.000152403
-0.0006950052
-0.0001719561
-0.0006686211
-0.0001927447
-0.0006395879
-0.0002149563
-0.0006056801
-0.0002389781
-0.000571905
-0.0002635738
-0.0005344371
-0.0002904837
-0.0004900518
-0.0003223826
-0.0004403448
-0.0003581666
-0.0003912493
-0.0003947622
-0.0003414811
-0.0004330221
-0.0002890786
-0.000474385
-0.000233515
-0.0005197053
-0.000176809
-0.0005702212
-0.0001194216
-0.0006286921
-6.212136e-05
-0.0006999949
-0.000761899
-4.653563e-05
0.0005820343
-9.131695e-05
0.000567173
-0.0001325949
0.0005464214
-0.0001714552
0.0005219212
-0.000208181
0.0004949159
-0.0002429646
0.0004668238
-0.0002761583
0.0004384561
-0.0003080625
0.0004103924
-0.0003390723
0.0003831182
-0.0003679174
0.0003572512
-0.0003944854
0.0003328757
-0.0004181396
0.0003102687
-0.0004422824
0.0002893066
-0.0004668577
0.0002679598
-0.0004897752
0.0002464494
-0.0005110463
0.0002264215
-0.0005308039
0.0002076745
-0.0005490259
0.0001901796
-0.000564594
0.000173828
-0.0005783599
0.0001582713
-0.0005905837
0.0001433217
-0.0006020238
0.0001288529
-0.00061227
0.0001149716
-0.0006211778
0.0001016483
-0.0006287377
8.880741e-05
-0.0006349727
7.637266e-05
-0.0006399165
6.426919e-05
-0.000643606
5.242494e-05
-0.0006460925
4.076391e-05
-0.0006464557
2.92628e-05
-0.0006459123
1.76554e-05
-0.0006442182
5.96615e-06
-0.0006420778
-5.148944e-06
-0.0006386106
-1.742034e-05
-0.000633924
-2.98873e-05
-0.000628
-4.175582e-05
-0.0006208186
-5.531282e-05
-0.0006124218
-6.921579e-05
-0.0006027915
-8.367716e-05
-0.000591903
-9.885267e-05
-0.0005797299
-0.0001148805
-0.0005661798
-0.0001318828
-0.0005497977
-0.0001500335
-0.0005325244
-0.0001696759
-0.000513771
-0.000190709
-0.0004932004
-0.0002133149
-0.0004704879
-0.0002376682
-0.0004465421
-0.0002629234
-0.0004194469
-0.0002906683
-0.0003872244
-0.0003227054
-0.000352976
-0.0003566303
-0.0003186451
-0.0003924966
-0.0002829592
-0.0004304472
-0.0002451277
-0.0004708525
-0.000205534
-0.0005139775
-0.0001647847
-0.0005604532
-0.0001234417
-0.0006115627
-8.231522e-05
-0.0006698164
-4.224076e-05
-0.0007400667
-0.0008041394
-3.411669e-05
0.0006161515
-6.671742e-05
0.0005997741
-9.63802e-05
0.0005760844
-0.000124143
0.0005496842
-0.0001504254
0.0005211983
-0.000175452
0.0004918503
-0.0001994739
0.0004624779
-0.0002227039
0.0004336221
-0.0002452373
0.0004056514
-0.0002668053
0.0003788188
-0.0002870832
0.0003531532
-0.0003052222
0.0003284074
-0.0003213987
0.0003054828
-0.0003379732
0.0002845339
-0.0003552825
0.0002637584
-0.0003716939
0.0002428326
-0.0003867717
0.000222752
-0.0004005131
0.0002039207
-0.0004128384
0.000186153
-0.0004238158
0.0001692485
-0.0004335664
0.000153072
-0.0004422508
0.0001375371
-0.0004498968
0.0001226174
-0.000456503
0.0001082542
-0.0004620751
9.437933e-05
-0.0004666233
8.092056e-05
-0.0004701583
6.780403e-05
-0.0004726889
5.495537e-05
-0.0004742238
4.229864e-05
-0.0004747247
2.976357e-05
-0.0004742898
1.722037e-05
-0.0004729678
4.644186e-06
-0.0004712768
-6.840004e-06
-0.000468657
-2.004006e-05
-0.0004651712
-3.337312e-05
-0.0004599697
-4.695722e-05
-0.0004541958
-6.108662e-05
-0.0004476464
-7.576505e-05
-0.0004402135
-9.110979e-05
-0.0004318274
-0.0001072386
-0.0004224252
-0.0001242825
-0.0004119291
-0.0001423786
-0.0004002914
-0.0001616709
-0.0003875932
-0.0001823739
-0.0003736991
-0.0002046027
-0.000358469
-0.0002285446
-0.0003424413
-0.0002536955
-0.0003243191
-0.0002810451
-0.0003030565
-0.0003119303
-0.0002809484
-0.0003448129
-0.0002577224
-0.0003798556
-0.0002330088
-0.0004172095
-0.0002066422
-0.000456813
-0.0001788335
-0.0004986603
-0.0001498559
-0.0005429542
-0.0001200498
-0.0005902581
-8.987524e-05
-0.000641736
-5.987842e-05
-0.0006998113
-3.069252e-05
-0.0007692503
-0.0008348317
-2.345612e-05
0.0006396081
-4.547711e-05
0.0006217955
-6.502458e-05
0.0005956321
-8.323136e-05
0.0005678911
-0.0001006816
0.0005386486
-0.0001176408
0.0005088095
-0.0001342406
0.0004790776
-0.0001505066
0.0004498879
-0.0001663902
0.0004215349
-0.0001817533
0.0003941817
-0.0001964672
0.0003678669
-0.0002105694
0.0003425094
-0.000223401
0.0003183142
-0.0002342185
0.0002953512
-0.0002447863
0.000274326
-0.0002561356
0.0002541817
-0.0002675316
0.0002341478
-0.0002781717
0.0002145606
-0.0002878308
0.0001958119
-0.0002964611
0.0001778786
-0.0003041221
0.0001607329
-0.0003109177
0.0001443325
-0.0003169116
0.0001286112
-0.0003221255
0.0001134679
-0.0003265694
9.882312e-05
-0.0003302505
8.460147e-05
-0.000333176
7.072946e-05
-0.0003353542
5.713344e-05
-0.0003367941
4.37384e-05
-0.0003374991
3.046852e-05
-0.0003375189
1.724012e-05
-0.000337276
4.401289e-06
-0.000335699
-8.416958e-06
-0.0003336139
-2.212509e-05
-0.0003309253
-3.606171e-05
-0.0003275545
-5.03279e-05
-0.0003235673
-6.507372e-05
-0.000318946
-8.038615e-05
-0.0003136761
-9.637957e-05
-0.0003077403
-0.0001131743
-0.0003011215
-0.0001309011
-0.0002937991
-0.0001497008
-0.0002857437
-0.0001697261
-0.0002769831
-0.0001911341
-0.0002674094
-0.0002141761
-0.0002573352
-0.0002386185
-0.0002459393
-0.000265091
-0.0002324543
-0.0002945296
-0.0002182552
-0.0003261289
-0.0002030137
-0.0003600538
-0.0001864234
-0.0003964453
-0.0001683564
-0.0004352758
-0.0001488427
-0.000476326
-0.0001281545
-0.0005193477
-0.000106697
-0.0005644108
-8.485059e-05
-0.0006121036
-6.297136e-05
-0.000663614
-4.147307e-05
-0.000721308
-2.093904e-05
-0.0007897822
-0.0008557705
-1.541359e-05
0.0006550221
-2.953663e-05
0.0006359189
-4.174128e-05
0.0006078371
-5.301106e-05
0.0005791611
-6.380677e-05
0.0005494444
-7.432639e-05
0.0005193291
-8.467903e-05
0.0004894303
-9.500297e-05
0.0004602117
-0.0001053412
0.000431873
-0.0001156065
0.0004044469
-0.000125714
0.0003779743
-0.0001356686
0.0003524638
-0.0001453329
0.0003279785
-0.0001544547
0.0003044728
-0.000162164
0.0002820352
-0.0001690169
0.0002610344
-0.0001760458
0.0002411767
-0.0001831448
0.0002216595
-0.0001900256
0.0002026926
-0.0001965474
0.0001844003
-0.0002025749
0.0001667602
-0.0002079967
0.0001497542
-0.0002128172
0.0001334316
-0.0002170528
0.0001177034
-0.0002207139
0.0001024841
-0.0002238103
8.769784e-05
-0.000226352
7.327101e-05
-0.0002283487
5.913017e-05
-0.0002298111
4.520073e-05
-0.0002307486
3.140599e-05
-0.0002311787
1.767014e-05
-0.0002313693
4.591966e-06
-0.0002305266
-9.259597e-06
-0.0002293065
-2.334517e-05
-0.0002276645
-3.770366e-05
-0.0002255628
-5.242947e-05
-0.0002230122
-6.76242e-05
-0.0002200074
-8.339083e-05
-0.0002165448
-9.984206e-05
-0.0002126206
-0.0001170982
-0.0002082329
-0.0001352886
-0.0002033816
-0.0001545519
-0.000198072
-0.0001750354
-0.0001922909
-0.000196915
-0.0001862064
-0.0002202603
-0.0001793648
-0.0002454598
-0.0001712796
-0.0002731759
-0.0001627599
-0.0003030489
-0.0001536084
-0.00033528
-0.0001435801
-0.0003700817
-0.0001323556
-0.0004076693
-0.0001196115
-0.0004480194
-0.0001054422
-0.0004904947
-9.041097e-05
-0.0005343783
-7.504568e-05
-0.0005797753
-5.960218e-05
-0.0006275462
-4.428345e-05
-0.0006789317
-2.930736e-05
-0.0007362826
-1.494882e-05
-0.0008041389
-0.0008707191
-9.888092e-06
0.0006649107
-1.8593e-05
0.0006446242
-2.539284e-05
0.0006146372
-3.110285e-05
0.0005848713
-3.646184e-05
0.0005548036
-4.182072e-05
0.0005246881
-4.729191e-05
0.0004949015
-5.287227e-05
0.0004657921
-5.857025e-05
0.0004375709
-6.432631e-05
0.0004102029
-7.01088e-05
0.0003837567
-7.592969e-05
0.0003582846
-8.174537e-05
0.0003337941
-8.749034e-05
0.0003102177
-9.29898e-05
0.0002875346
-9.768973e-05
0.0002657343
-0.0001017747
0.0002452616
-0.0001060075
0.0002258921
-0.0001105037
0.0002071888
-0.0001152041
0.0001891006
-0.0001200374
0.0001715935
-0.0001247828
0.0001544995
-0.0001291573
0.000137806
-0.0001331033
0.0001216493
-0.0001365894
0.0001059702
-0.0001396186
9.072699e-05
-0.0001422055
7.585789e-05
-0.0001443696
6.129418e-05
-0.0001461319
4.696306e-05
-0.0001475164
3.27905e-05
-0.0001485431
1.869681e-05
-0.0001489928
5.04172e-06
-0.0001490785
-9.173836e-06
-0.0001488405
-2.358318e-05
-0.000148279
-3.826505e-05
-0.0001473945
-5.33139e-05
-0.0001461893
-6.882927e-05
-0.0001446637
-8.49163e-05
-0.0001428178
-0.0001016878
-0.0001406512
-0.0001192647
-0.0001381628
-0.0001377768
-0.0001353506
-0.0001573639
-0.0001322112
-0.0001781746
-0.0001287525
-0.0002003735
-0.0001249277
-0.0002240848
-0.0001205843
-0.0002498029
-0.0001160963
-0.0002776635
-0.0001113418
-0.0003078031
-0.0001060766
-0.0003405448
-9.988382e-05
-0.0003762741
-9.232064e-05
-0.000415232
-8.3293e-05
-0.0004570465
-7.311462e-05
-0.0005006726
-6.237492e-05
-0.0005451174
-5.153464e-05
-0.0005906149
-4.075369e-05
-0.0006383264
-3.009926e-05
-0.0006895853
-1.968925e-05
-0.0007466913
-9.81415e-06
-0.0008140124
-0.0008805331
-4.422787e-06
0.0006693339
-7.185283e-06
0.0006473872
-8.020119e-06
0.0006154725
-8.694779e-06
0.0005855463
-9.793266e-06
0.0005559023
-1.155279e-05
0.0005264477
-1.400139e-05
0.0004973501
-1.698478e-05
0.0004687755
-2.019998e-05
0.0004407861
-2.369994e-05
0.0004137028
-2.744493e-05
0.0003875016
-3.138268e-05
0.0003622223
-3.546826e-05
0.0003378796
-3.971126e-05
0.0003144607
-4.412151e-05
0.0002919448
-4.865154e-05
0.0002702643
-5.275783e-05
0.0002493679
-5.627643e-05
0.0002294107
-5.937267e-05
0.000210285
-6.213643e-05
0.0001918643
-6.465518e-05
0.0001741122
-6.722048e-05
0.0001570648
-6.988644e-05
0.000140472
-7.248653e-05
0.0001242494
-7.498546e-05
0.0001084691
-7.734395e-05
9.308546e-05
-7.953476e-05
7.80487e-05
-8.153736e-05
6.329678e-05
-8.33345e-05
4.876022e-05
-8.491084e-05
3.436685e-05
-8.62622e-05
2.00482e-05
-8.718811e-05
5.967667e-06
-8.789727e-05
-8.464625e-06
-8.839608e-05
-2.308431e-05
-8.868388e-05
-3.797717e-05
-8.876285e-05
-5.323484e-05
-8.863582e-05
-6.895619e-05
-8.830604e-05
-8.524597e-05
-8.7777e-05
-0.0001022167
-8.705174e-05
-0.0001199898
-8.613141e-05
-0.000138697
-8.501336e-05
-0.0001584818
-8.368605e-05
-0.0001795017
-8.213928e-05
-0.00020192
-8.025026e-05
-0.0002259736
-7.820321e-05
-0.0002518497
-7.620111e-05
-0.0002796654
-7.400235e-05
-0.0003100016
-7.11473e-05
-0.0003433995
-6.722585e-05
-0.0003801952
-6.210721e-05
-0.0004203502
-5.601566e-05
-0.0004631376
-4.919592e-05
-0.0005074918
-4.188712e-05
-0.0005524256
-3.446113e-05
-0.0005980404
-2.718297e-05
-0.0006456039
-2.007208e-05
-0.0006966954
-1.319189e-05
-0.0007535704
-6.683316e-06
-0.0008205195
-0.0008872163
-1.501535e-06
0.0006708361
-9.398452e-07
0.0006468261
8.6248e-07
0.0006136704
3.311926e-06
0.000583097
5.841129e-06
0.0005533732
8.206917e-06
0.0005240821
1.01222e-05
0.0004954349
1.122033e-05
0.0004676774
1.129783e-05
0.0004407086
1.047868e-05
0.000414522
8.845433e-06
0.0003891349
6.635951e-06
0.0003644318
4.051998e-06
0.0003404635
1.130677e-06
0.000317382
-2.029259e-06
0.0002951047
-5.335994e-06
0.000273571
-8.701553e-06
0.0002527334
-1.189132e-05
0.0002326005
-1.479155e-05
0.0002131852
-1.738975e-05
0.0001944625
-1.968387e-05
0.0001764064
-2.16482e-05
0.0001590291
-2.350221e-05
0.000142326
-2.540695e-05
0.0001261541
-2.735971e-05
0.0001104219
-2.934837e-05
9.507413e-05
-3.13481e-05
8.004843e-05
-3.333004e-05
6.527874e-05
-3.526729e-05
5.06975e-05
-3.712372e-05
3.622331e-05
-3.885928e-05
2.178381e-05
-4.030529e-05
7.413722e-06
-4.163532e-05
-7.134533e-06
-4.28405e-05
-2.187906e-05
-4.391263e-05
-3.690496e-05
-4.485465e-05
-5.229274e-05
-4.567101e-05
-6.813973e-05
-4.636882e-05
-8.454805e-05
-4.695725e-05
-0.0001016282
-4.744697e-05
-0.0001194999
-4.784919e-05
-0.0001382946
-4.817368e-05
-0.0001581571
-4.84261e-05
-0.0001792491
-4.859344e-05
-0.0002017525
-4.868697e-05
-0.0002258799
-4.869203e-05
-0.0002518445
-4.831271e-05
-0.0002800445
-4.737626e-05
-0.0003109378
-4.577427e-05
-0.0003450012
-4.3377e-05
-0.0003825922
-4.031646e-05
-0.0004234104
-3.665518e-05
-0.0004667985
-3.238616e-05
-0.0005117604
-2.760283e-05
-0.0005572085
-2.265956e-05
-0.0006029831
-1.782805e-05
-0.0006504348
-1.308801e-05
-0.0007014347
-8.480358e-06
-0.000758177
-4.150614e-06
-0.000824848
-0.0008913667
1.30488e-07
0.0006707063
2.527231e-06
0.0006444298
6.644391e-06
0.0006095537
1.129092e-05
0.0005784508
1.580415e-05
0.0005488602
1.976289e-05
0.0005201235
2.30179e-05
0.00049218
2.580163e-05
0.0004648937
2.812545e-05
0.0004383848
2.998704e-05
0.0004126604
3.134039e-05
0.0003877815
3.191547e-05
0.0003638567
3.153343e-05
0.0003408456
3.041301e-05
0.0003185024
2.872914e-05
0.0002967885
2.662959e-05
0.0002756705
2.421919e-05
0.0002551438
2.158755e-05
0.0002352321
1.883908e-05
0.0002159337
1.606786e-05
0.0001972337
1.335776e-05
0.0001791165
1.084623e-05
0.0001615407
8.630022e-06
0.0001445422
6.630881e-06
0.0001281533
4.751816e-06
0.0001123009
2.953192e-06
9.687277e-05
1.215901e-06
8.178575e-05
-4.779763e-07
6.697265e-05
-2.139567e-06
5.235913e-05
-3.798837e-06
3.788262e-05
-5.469819e-06
2.345484e-05
-7.053732e-06
8.99769e-06
-8.60795e-06
-5.580251e-06
-1.015333e-05
-2.033361e-05
-1.165707e-05
-3.540115e-05
-1.310891e-05
-5.08408e-05
-1.45078e-05
-6.674074e-05
-1.585595e-05
-8.31998e-05
-1.715957e-05
-0.0001003244
-1.842875e-05
-0.0001182306
-1.967739e-05
-0.0001370459
-2.092307e-05
-0.0001569113
-2.218702e-05
-0.000177985
-2.34941e-05
-0.0002004453
-2.486798e-05
-0.0002245058
-2.615781e-05
-0.0002505544
-2.70239e-05
-0.0002791782
-2.713085e-05
-0.0003108306
-2.647598e-05
-0.0003456558
-2.534691e-05
-0.000383721
-2.382638e-05
-0.0004249306
-2.185954e-05
-0.000468765
-1.94173e-05
-0.0005142023
-1.653236e-05
-0.0005600931
-1.348267e-05
-0.0006060324
-1.051685e-05
-0.0006534001
-7.645985e-06
-0.0007043049
-4.909289e-06
-0.0007609128
-2.40537e-06
-0.0008273508
-0.000893772
1.744823e-06
0.0006689623
6.01289e-06
0.0006401623
1.18864e-05
0.0006036806
1.817803e-05
0.0005721595
2.423424e-05
0.0005428042
2.977703e-05
0.0005145808
3.477313e-05
0.000487184
3.913683e-05
0.0004605301
4.28514e-05
0.0004346703
4.587885e-05
0.0004096329
4.820409e-05
0.0003854563
4.992695e-05
0.0003621338
5.114777e-05
0.0003396247
5.163272e-05
0.0003180174
5.131614e-05
0.0002971051
5.032301e-05
0.0002766636
4.875975e-05
0.000256707
4.676056e-05
0.0002372313
4.446165e-05
0.0002182326
4.200218e-05
0.0001996932
3.951699e-05
0.0001816017
3.709851e-05
0.0001639592
3.48294e-05
0.0001468113
3.274904e-05
0.0001302337
3.081803e-05
0.000114232
2.895545e-05
9.873538e-05
2.708077e-05
8.366046e-05
2.51699e-05
6.888356e-05
2.32341e-05
5.429497e-05
2.129343e-05
3.982334e-05
1.93529e-05
2.539543e-05
1.742074e-05
1.092991e-05
1.55004e-05
-3.659846e-06
1.353609e-05
-1.836923e-05
1.158847e-05
-3.345346e-05
9.654328e-06
-4.890657e-05
7.73358e-06
-6.481991e-05
5.822422e-06
-8.128854e-05
3.913247e-06
-9.841513e-05
1.993845e-06
-0.0001163111
4.680434e-08
-0.0001350987
-1.951019e-06
-0.0001549133
-4.0295e-06
-0.0001759064
-6.205923e-06
-0.0001982687
-8.388791e-06
-0.0002223228
-1.034851e-05
-0.0002485946
-1.190635e-05
-0.0002776201
-1.299038e-05
-0.0003097464
-1.349903e-05
-0.0003451469
-1.339888e-05
-0.0003838209
-1.285129e-05
-0.0004254779
-1.203475e-05
-0.0004695813
-1.090113e-05
-0.0005153356
-9.38043e-06
-0.0005616134
-7.688872e-06
-0.0006077235
-6.038611e-06
-0.0006550499
-4.426463e-06
-0.0007059166
-2.858856e-06
-0.0007624796
-1.385974e-06
-0.0008288227
-0.0008951579
2.557976e-06
0.0006664049
7.97241e-06
0.0006347485
1.508124e-05
0.0005965723
2.267755e-05
0.0005645636
3.012385e-05
0.0005353582
3.710387e-05
0.000507601
4.344518e-05
0.0004808428
4.903274e-05
0.0004549426
5.382428e-05
0.0004298787
5.781371e-05
0.0004056435
6.1048e-05
0.000382222
6.358498e-05
0.0003595968
6.542231e-05
0.0003377874
6.663055e-05
0.0003168091
6.718002e-05
0.0002965556
6.697338e-05
0.0002768703
6.6081e-05
0.0002575994
6.460278e-05
0.0002387095
6.268139e-05
0.000220154
6.046844e-05
0.0002019062
5.810932e-05
0.0001839608
5.571866e-05
0.0001663498
5.338416e-05
0.0001491458
5.11809e-05
0.000132437
4.913151e-05
0.0001162814
4.718134e-05
0.0001006856
4.524625e-05
8.55956e-05
4.325331e-05
7.087654e-05
4.116008e-05
5.638825e-05
3.897733e-05
4.200614e-05
3.674513e-05
2.762769e-05
3.448903e-05
1.318606e-05
3.222179e-05
-1.392532e-06
2.990136e-05
-1.604873e-05
2.757706e-05
-3.112908e-05
2.525235e-05
-4.658178e-05
2.292506e-05
-6.249253e-05
2.058964e-05
-7.895304e-05
1.823588e-05
-9.606127e-05
1.584821e-05
-0.0001139233
1.340503e-05
-0.0001326554
1.087803e-05
-0.0001523862
8.254348e-06
-0.0001732826
5.606874e-06
-0.0001956211
3.122344e-06
-0.0002198381
9.481621e-07
-0.0002464202
-8.953692e-07
-0.0002757764
-2.421216e-06
-0.0003082203
-3.629927e-06
-0.000343938
-4.510078e-06
-0.0003829405
-4.98484e-06
-0.0004250029
-4.957792e-06
-0.0004696081
-4.495841e-06
-0.0005157973
-3.74993e-06
-0.000562359
-2.899542e-06
-0.0006085736
-2.079642e-06
-0.0006558695
-1.328816e-06
-0.000706667
-7.032473e-07
-0.0007631046
-2.763451e-07
-0.0008292489
-0.0008954341
3.01683e-06
0.0006633888
9.089059e-06
0.0006286769
1.693719e-05
0.0005887247
2.534318e-05
0.000556158
3.364649e-05
0.0005270552
4.149215e-05
0.0004997555
4.867845e-05
0.0004736566
5.508859e-05
0.0004485325
6.067211e-05
0.0004242952
6.541647e-05
0.0004008991
6.932667e-05
0.0003783117
7.241549e-05
0.0003565079
7.472844e-05
0.0003354744
7.634758e-05
0.0003151899
7.731072e-05
0.0002955924
7.758706e-05
0.0002765939
7.711397e-05
0.0002580725
7.597846e-05
0.000239845
7.429277e-05
0.0002218397
7.220708e-05
0.0002039919
6.98815e-05
0.0001862864
6.745673e-05
0.0001687746
6.503759e-05
0.000151565
6.269061e-05
0.000134784
6.044534e-05
0.0001185267
5.830352e-05
0.0001028275
5.624353e-05
8.765563e-05
5.419784e-05
7.292228e-05
5.208843e-05
5.849771e-05
4.98739e-05
4.422072e-05
4.75493e-05
2.995235e-05
4.513955e-05
1.559588e-05
4.267369e-05
1.073386e-06
4.014526e-05
-1.352023e-05
3.758549e-05
-2.856925e-05
3.50048e-05
-4.4001e-05
3.240679e-05
-5.989445e-05
2.978821e-05
-7.633438e-05
2.713928e-05
-9.341225e-05
2.444358e-05
-0.0001112276
2.167727e-05
-0.000129889
1.882903e-05
-0.0001495379
1.594569e-05
-0.0001703992
1.314705e-05
-0.0001928224
1.054511e-05
-0.0002172361
8.19715e-06
-0.0002440721
6.139852e-06
-0.000273719
4.377134e-06
-0.0003064575
2.867625e-06
-0.0003424284
1.570974e-06
-0.0003816437
5.032203e-07
-0.000423935
-2.994948e-07
-0.0004688052
-7.805975e-07
-0.0005153159
-9.356745e-07
-0.0005622037
-8.593542e-07
-0.0006086496
-6.872076e-07
-0.0006560413
-5.052772e-07
-0.0007068485
-3.245244e-07
-0.0007632846
-1.379757e-07
-0.0008294343
-0.0008955719
3.020514e-06
0.0006603691
9.417618e-06
0.0006222805
1.765879e-05
0.000580484
2.651659e-05
0.0005473006
3.530808e-05
0.000518264
4.364751e-05
0.0004914163
5.131419e-05
0.00046599
5.818604e-05
0.0004416607
6.420639e-05
0.0004182749
6.935848e-05
0.000395747
7.364963e-05
0.0003740205
7.710387e-05
0.0003530536
7.976639e-05
0.0003328118
8.169688e-05
0.0003132594
8.294016e-05
0.0002943491
8.350898e-05
0.000276025
8.338594e-05
0.0002581955
8.253356e-05
0.0002406974
8.104095e-05
0.0002233323
7.9049e-05
0.0002059838
7.672879e-05
0.0001886066
7.42455e-05
0.0001712579
7.172995e-05
0.0001540806
6.926586e-05
0.0001372481
6.688763e-05
0.000120905
6.458909e-05
0.000105126
6.234244e-05
8.990233e-05
6.011441e-05
7.515036e-05
5.787284e-05
6.073933e-05
5.557577e-05
4.651784e-05
5.319236e-05
3.233582e-05
5.072524e-05
1.806305e-05
4.818506e-05
3.61363e-06
4.557758e-05
-1.091268e-05
4.290636e-05
-2.589796e-05
4.020708e-05
-4.130166e-05
3.748562e-05
-5.717291e-05
3.473932e-05
-7.3588e-05
3.195761e-05
-9.063046e-05
2.912491e-05
-0.0001083948
2.62345e-05
-0.0001269985
2.331171e-05
-0.000146615
2.042409e-05
-0.0001675115
1.764652e-05
-0.0001900447
1.503944e-05
-0.0002146289
1.26558e-05
-0.0002416884
1.052953e-05
-0.0002715926
8.676172e-06
-0.000304604
7.099539e-06
-0.0003408516
5.789681e-06
-0.0003803337
4.708701e-06
-0.0004228538
3.820062e-06
-0.0004679163
3.123166e-06
-0.0005146188
2.633932e-06
-0.0005617142
2.299475e-06
-0.0006083149
1.993555e-06
-0.000655735
1.62117e-06
-0.0007064757
1.17169e-06
-0.0007628345
6.309124e-07
-0.0008288927
-0.0008949409
2.764984e-06
0.0006576049
9.213677e-06
0.0006158326
1.75698e-05
0.0005721285
2.658823e-05
0.0005382826
3.557442e-05
0.0005092781
4.413148e-05
0.0004828594
5.203157e-05
0.00045809
5.91487e-05
0.0004345436
6.541988e-05
0.0004120037
7.082053e-05
0.0003903463
7.535059e-05
0.0003694904
7.902801e-05
0.0003493761
8.188734e-05
0.0003299524
8.397578e-05
0.0003111709
8.534475e-05
0.0002929801
8.604659e-05
0.0002753232
8.608728e-05
0.0002581548
8.541725e-05
0.0002413674
8.404149e-05
0.000224708
8.208524e-05
0.0002079401
7.973101e-05
0.0001909608
7.716425e-05
0.0001738247
7.453483e-05
0.00015671
7.193922e-05
0.0001398438
6.942178e-05
0.0001234225
6.698636e-05
0.0001075615
6.461014e-05
9.227859e-05
6.22567e-05
7.750385e-05
5.989036e-05
6.310572e-05
5.748596e-05
4.892229e-05
5.502964e-05
3.479219e-05
5.251454e-05
2.05782e-05
4.994079e-05
6.187442e-06
4.738472e-05
-8.35656e-06
4.46972e-05
-2.321038e-05
4.197911e-05
-3.858351e-05
3.924561e-05
-5.443934e-05
3.649052e-05
-7.083284e-05
3.370406e-05
-8.784393e-05
3.087951e-05
-0.0001055702
2.802639e-05
-0.0001241453
2.517626e-05
-0.0001437648
2.237131e-05
-0.0001647065
1.966036e-05
-0.0001873337
1.709507e-05
-0.0002120635
1.471876e-05
-0.000239312
1.256023e-05
-0.000269434
1.063207e-05
-0.0003026757
8.934187e-06
-0.0003391536
7.462472e-06
-0.0003788618
6.216543e-06
-0.0004216078
5.191501e-06
-0.0004668911
4.356107e-06
-0.0005137833
3.661084e-06
-0.000561019
3.057131e-06
-0.0006077107
2.477249e-06
-0.0006551549
1.877376e-06
-0.0007058754
1.268661e-06
-0.0007622253
6.509788e-07
-0.0008282743
-0.0008942899
2.433133e-06
0.0006551727
8.724885e-06
0.0006095416
1.694743e-05
0.0005639066
2.586547e-05
0.000529365
3.479286e-05
0.000500351
4.333116e-05
0.0004743213
5.124757e-05
0.0004501737
5.84078e-05
0.0004273834
6.473812e-05
0.0004056733
7.020319e-05
0.0003848811
7.479399e-05
0.0003648995
7.852165e-05
0.0003456484
8.141395e-05
0.00032706
8.351274e-05
0.000309072
8.486851e-05