/*--------------------------------*- C++ -*----------------------------------*\
| =========                 |                                                 |
| \\      /  F ield         | OpenFOAM: The Open Source CFD Toolbox           |
|  \\    /   O peration     | Version:  2312                                  |
|   \\  /    A nd           | Website:  www.openfoam.com                      |
|    \\/     M anipulation  |                                                 |
\*---------------------------------------------------------------------------*/
FoamFile
{
    version     2.0;
    format      ascii;
    arch        "LSB;label=32;scalar=64";
    class       volScalarField;
    location    "3150";
    object      qin;
}
// * * * * * * * * * * * * * * * * * * * * * * * * * * * * * * * * * * * * * //

dimensions      [1 0 -3 0 0 0 0];

internalField   uniform 0;

boundaryField
{
    plate
    {
        type            calculated;
        value           nonuniform List<scalar> 
200
(
2041.32
2032.033
2024.794
2001.086
1963.795
1933.291
1922.364
1929.392
1945.357
1961.865
1973.146
1975.429
1967.36
1951.115
1932.385
1918.404
1914.754
1922.748
1938.982
1957.31
1971.958
1979.951
1981.736
1980.106
1978.398
1978.947
1982.358
1987.571
1992.529
1995.165
1994.37
1990.561
1985.548
1981.751
1981.148
1984.457
1990.91
1998.686
2005.758
2010.754
2013.408
2014.472
2015.23
2016.906
2020.199
2025.098
2030.968
2036.847
2041.816
2045.291
2047.154
2047.696
2047.442
2046.935
2046.568
2046.516
2046.76
2047.187
2047.69
2048.238
2048.882
2049.708
2050.779
2052.081
2053.51
2054.903
2056.089
2056.949
2057.453
2057.662
2057.699
2057.696
2057.753
2057.906
2058.125
2058.337
2058.457
2058.422
2058.203
2057.811
2057.289
2056.691
2056.076
2055.494
2054.994
2054.619
2054.421
2054.452
2054.766
2055.406
2056.397
2057.736
2059.39
2061.296
2063.369
2065.51
2067.615
2069.588
2071.344
2072.818
2073.964
2074.765
2075.227
2075.381
2075.283
2075.007
2074.642
2074.276
2073.995
2073.866
2073.935
2074.223
2074.726
2075.425
2076.291
2077.292
2078.395
2079.569
2080.773
2081.958
2083.066
2084.036
2084.822
2085.409
2085.826
2086.148
2086.476
2086.901
2087.469
2088.149
2088.838
2089.388
2089.672
2089.635
2089.336
2088.93
2088.607
2088.51
2088.659
2088.938
2089.148
2089.114
2088.809
2088.408
2088.255
2088.726
2090.03
2092.056
2094.322
2096.094
2096.62
2095.425
2092.515
2088.436
2084.119
2080.567
2078.466
2077.859
2078.035
2077.738
2075.701
2071.352
2065.38
2059.829
2057.527
2060.994
2071.275
2087.252
2105.821
2122.913
2134.938
2140.051
2138.73
2133.496
2127.917
2125.235
2126.974
2131.941
2136.222
2134.805
2124.819
2108.824
2095.41
2095.254
2114.384
2149.69
2190.674
2225.999
2248.98
2258.018
2253.904
2239.185
2221.94
2219.376
2251.506
2322.435
2408.764
2478.993
2539.192
2647.567
)
;
    }
    riser
    {
        type            calculated;
        value           nonuniform List<scalar> 
200
(
3601.513
3623.376
3661.703
3799.364
4026.69
4236.533
4343.216
4353.471
4323.554
4294.933
4283.547
4301.002
4361.92
4470.842
4609.728
4742.574
4835.348
4875.088
4873.307
4853.636
4836.315
4830.459
4835.094
4843.848
4849.997
4850.771
4849.213
4852.692
4869.181
4903.449
4955.341
5020.425
5090.517
5154.208
5201.058
5227.362
5236.51
5234.655
5227.955
5221.792
5219.584
5221.883
5226.988
5232.594
5237.081
5239.853
5241.065
5241.246
5241.051
5241.093
5241.751
5243.051
5244.681
5246.186
5247.229
5247.767
5248.067
5248.56
5249.63
5251.436
5253.831
5256.44
5258.83
5260.699
5261.976
5262.799
5263.4
5263.976
5264.597
5265.189
5265.603
5265.702
5265.445
5264.905
5264.244
5263.659
5263.324
5263.347
5263.76
5264.53
5265.584
5266.836
5268.183
5269.5
5270.638
5271.417
5271.623
5271.029
5269.42
5266.63
5262.584
5257.317
5251.001
5243.94
5236.551
5229.321
5222.767
5217.384
5213.594
5211.703
5211.874
5214.121
5218.307
5224.165
5231.318
5239.325
5247.721
5256.058
5263.942
5271.066
5277.226
5282.321
5286.34
5289.344
5291.44
5292.761
5293.438
5293.596
5293.351
5292.833
5292.186
5291.553
5291.06
5290.806
5290.845
5291.149
5291.626
5292.153
5292.631
5293.015
5293.342
5293.715
5294.261
5295.063
5296.104
5297.256
5298.334
5299.187
5299.792
5300.289
5300.923
5301.912
5303.273
5304.723
5305.699
5305.559
5303.892
5300.824
5297.17
5294.312
5293.77
5296.591
5302.756
5310.893
5318.515
5322.843
5322.015
5316.201
5308.031
5301.89
5302.12
5310.822
5326.316
5343.195
5354.099
5352.39
5334.451
5300.623
5254.756
5202.979
5152.324
5109.437
5079.341
5064.155
5061.88
5066.093
5067.948
5060.587
5043.884
5027.37
5028.542
5061.89
5121.178
5171.362
5164.643
5075.243
4927.453
4784.938
4696.659
4650.114
4598.579
4549.165
4586.791
4745.507
4869.003
4735.931
4395.867
4157.386
4065.615
3977.141
)
;
    }
    topAndBottom
    {
        type            calculated;
        value           nonuniform List<scalar> 
120
(
5385.979
4859.068
4538.117
4364.19
4228.467
4110.082
4022.435
3966.555
3931.678
3907.603
3889.045
3873.697
3860.147
3847.53
3835.747
3825.275
3816.658
3810.138
3805.57
3802.5
3800.27
3798.126
3795.358
3791.428
3786.05
3779.185
3770.973
3761.654
3751.518
3740.88
3730.067
3719.401
3709.186
3699.678
3691.056
3683.371
3676.493
3670.107
3663.78
3657.112
3649.903
3642.229
3634.396
3626.806
3619.836
3613.789
3608.818
3604.734
3600.743
3595.395
3587.049
3574.851
3559.69
3544.243
3531.444
3521.791
3511.924
3496.834
3477.493
3457.134
3747.008
3734.568
3721.14
3708.471
3701.271
3698.233
3695.239
3689.46
3681.023
3671.656
3662.895
3655.513
3649.857
3646.163
3644.476
3644.449
3645.361
3646.37
3646.805
3646.304
3644.778
3642.291
3638.977
3635.003
3630.563
3625.849
3621
3616.061
3610.98
3605.657
3600.007
3594.022
3587.785
3581.46
3575.23
3569.212
3563.378
3557.518
3551.306
3544.441
3536.829
3528.694
3520.532
3512.931
3506.338
3500.892
3496.33
3491.93
3486.533
3478.795
3467.844
3454.096
3439.555
3426.858
3417.25
3408.964
3398.15
3382.43
3365.672
3351.517
)
;
    }
    frontAndBack
    {
        type            empty;
    }
}


// ************************************************************************* //
