# Region type : patch riser
# Faces        : 80
# Area         : 2.0000000e-01
# Scale factor : 1.0000000e+00
# Time         	areaAverage(qr)
2000           	4.5959647e+03
