/*--------------------------------*- C++ -*----------------------------------*\
| =========                 |                                                 |
| \\      /  F ield         | OpenFOAM: The Open Source CFD Toolbox           |
|  \\    /   O peration     | Version:  2312                                  |
|   \\  /    A nd           | Website:  www.openfoam.com                      |
|    \\/     M anipulation  |                                                 |
\*---------------------------------------------------------------------------*/
FoamFile
{
    version     2.0;
    format      ascii;
    arch        "LSB;label=32;scalar=64";
    class       volScalarField;
    location    "4950";
    object      G;
}
// * * * * * * * * * * * * * * * * * * * * * * * * * * * * * * * * * * * * * //

dimensions      [1 0 -3 0 0 0 0];

internalField   nonuniform List<scalar> 
12000
(
26808.56
23939.23
22657.32
21702.66
20699.97
19687.67
18825.2
18198.3
17786.48
17516.25
17324.34
17201.13
17191.99
17345.78
17646
17985.19
18211.52
18215.97
17992.24
17624.55
17218.7
16833.13
16458.41
16050.95
15586.92
15094.48
14645.63
14319.48
14164.04
14177.42
14312.84
14498.33
14658.77
14732.94
14684.23
14505.47
14218.54
13868.17
13510.73
13200.42
12977.32
12860.91
12850.55
12931.26
13081.53
13279.19
13503.84
13737.48
13964.51
14171.01
14344.98
14477.67
14567.9
14622.21
14648.89
14650.09
14622.38
14554.6
14473.08
14273.55
29307.74
27470.88
25951.51
24527.44
23090.25
21829.38
20898.14
20261.36
19790.99
19382.01
19009.68
18732.47
18637.52
18752.7
18994.04
19198.14
19216.95
19001.36
18611.53
18154.07
17701.76
17256.72
16775.12
16224.35
15625.32
15052.11
14595.37
14317.55
14226.71
14278
14395.25
14497.77
14521.67
14431.58
14224.22
13925.57
13582.89
13252.5
12986.09
12819.3
12766.39
12821.97
12967.53
13178.93
13431.42
13701.67
13968.12
14211.62
14416.62
14572.21
14672.42
14716.22
14708.35
14659.63
14584.45
14494.16
14391.74
14266.48
14138.74
13911.88
29713.96
28563.56
27100.57
25679.75
24403.3
23315.47
22424.59
21684.52
21035.1
20450.84
19972.34
19689.06
19663.34
19851.26
20096.89
20212.9
20085.24
19724.01
19229.4
18707.88
18205.72
17702.92
17159.1
16567.88
15978.7
15475.68
15133.55
14981.09
14990.75
15093.94
15208.71
15265.12
15220.57
15064.41
14815.08
14512.41
14207.02
13948.2
13772.95
13699.17
13725.07
13834.11
14002.53
14205.78
14421.59
14630.17
14813.74
14957.18
15049.88
15087.58
15072.33
15010.43
14910.24
14781.72
14636.93
14487.47
14339.49
14184.44
14036.6
13795.79
29738.97
28940.96
27407.53
25928.86
24887.18
24098.44
23317.78
22483.17
21662.46
20964.27
20502.25
20351.79
20483.31
20737.78
20892.35
20777.85
20362.49
19745.76
19075.64
18454.82
17900.09
17370.67
16830.64
16294.33
15826.22
15503.37
15370.83
15417.89
15584.04
15784.86
15941.38
16000.42
15942.48
15779.59
15547.51
15295.01
15071.99
14918.29
14855.86
14886.24
14994.04
15154.3
15340.25
15528.43
15700.05
15839.87
15935.08
15975.53
15955.77
15877.23
15748.4
15581.77
15389.31
15180.26
14962.61
14743.84
14530.8
14317.37
14130
13827.95
29593.99
28974.58
27446.36
25898.78
24885.57
24213.27
23540.65
22754.7
21949.26
21295.21
20937.04
20909.52
21095.56
21270.04
21218
20847.83
20222.63
19496.93
18811.5
18220.99
17695.53
17179.37
16654.05
16161.48
15778.8
15570.27
15550.28
15676.62
15871.24
16051.64
16156.49
16157.67
16059.95
15893.31
15702.11
15533.64
15427.17
15405.75
15472.58
15613.13
15801.65
16009.16
16209.76
16383.54
16516.3
16597.91
16621.11
16581.55
16479.32
16320.95
16119.63
15892.14
15653.1
15410.92
15168.71
14927.71
14693.58
14465.5
14281.74
13992.02
29406.52
28771.34
27395.32
25841.4
24575.63
23697.04
23066.36
22508.98
21970.84
21531.69
21294.43
21262.34
21306.85
21243.9
20952.63
20444.71
19839.34
19271.88
18806.33
18411.01
18005.03
17532.02
17005.94
16502.61
16111.7
15885.76
15816.9
15847.65
15902.1
15916.79
15858.19
15725.06
15541.17
15344.68
15177.54
15075.95
15062.38
15141.18
15298.96
15509.81
15743.07
15970.27
16169.13
16324.28
16426
16468.82
16450.68
16372.88
16240.64
16063.92
15857.51
15638.57
15421.76
15214.41
15016.41
14824.79
14643.49
14478.2
14362.61
14199.15
29232.16
28361.59
27126.6
25564.05
23967.58
22789.79
22151.25
21834.66
21624.29
21471.53
21401.51
21377.89
21284.04
21009.3
20539.88
19972.9
19447.19
19048.46
18758.55
18480.47
18114.68
17628.72
17074.97
16553.25
16150.91
15899.93
15771.52
15701.76
15626.46
15505.77
15331.14
15119.23
14900.87
14711.1
14581.47
14533.99
14576.63
14701.8
14888.89
15110.14
15337.51
15547.38
15722.38
15850.75
15925.3
15942.99
15905.03
15816.88
15687.64
15529.17
15355.24
15180.15
15015.94
14868.75
14738.17
14621.59
14523.04
14452.4
14427.17
14422.79
28819.56
27328.88
26016.61
24460.71
22814.37
21557.9
20872.53
20615.45
20603.4
20739.39
20945.63
21091.2
21024.47
20668.61
20079.24
19409.54
18811.2
18346.09
17967.98
17578.23
17108.38
16569.99
16044.09
15627.35
15376.34
15283.46
15290.98
15326.1
15332.8
15286.26
15189.92
15064.21
14935.64
14830.01
14768.46
14764.5
14821.44
14931.79
15079.45
15244.12
15405.88
15547.85
15656.74
15722.53
15738.52
15702.46
15617.6
15492.72
15340.38
15174.26
15006.86
14848.79
14708.29
14590.17
14495.36
14423.94
14380.59
14373.47
14403.99
14484.84
27369.06
25186.78
23931.16
22777.58
21594.17
20500.8
19687.86
19305.48
19378.89
19786.84
20299.34
20657.49
20673.86
20308.19
19669.48
18937.58
18256.22
17668.57
17130.93
16583.04
16016.65
15494.38
15113.14
14945.33
14999.13
15218.44
15514.32
15803.5
16032.71
16182.51
16257.47
16273.76
16250.96
16208.6
16164.5
16132.74
16121.1
16129.66
16151.61
16175.86
16189.88
16181.6
16140.3
16057.5
15928.39
15753.75
15541.21
15304.64
15061.32
14827.64
14615.68
14432.42
14281.45
14164.91
14084.04
14039.43
14032.24
14061.36
14112.18
14203.17
11248.57
14687.29
16313.31
17167.78
17451.86
17174.04
16717.65
16592.46
17023.41
17854.32
18730.21
19330.64
19507.34
19300.06
18863.48
18358.17
17866.92
17380.22
16849.24
16260.61
15676.72
15215.35
14988.66
15045.91
15354.05
15820.52
16336.75
16815.12
17204.6
17486.83
17663.97
17748.39
17757.42
17711.36
17631.36
17536.09
17438.05
17341.57
17243.1
17133.48
17001.01
16834.18
16623.96
16365.73
16061.1
15719.11
15356.22
14994.17
14655.78
14359.9
14117.3
13930.19
13795.71
13710.99
13675.28
13686.81
13738.36
13814.41
13886.48
13976.91
10806.44
13462.69
14889.7
15710.23
16013.7
15826.93
15489.63
15466.82
15963.89
16800.87
17609.14
18104.98
18222.23
18071.85
17814.08
17542.57
17243.65
16839.93
16277.35
15592.17
14913.84
14406.01
14188.88
14290.96
14651.54
15161.01
15708.66
16213.09
16629.17
16940.03
17146.42
17259.92
17299.67
17289.37
17252.77
17208.28
17164.94
17121.04
17065.81
16983.17
16856.28
16671.85
16423.44
16113.41
15753.46
15363.79
14970.78
14603.03
14286.24
14038.1
13865
13762.29
13719.35
13726.95
13781
13877.08
14000.69
14123.99
14219.56
14305.53
25368.8
21069.46
19495.26
18600.59
17767.98
17000.25
16445.84
16273.3
16514.05
16976.07
17366.49
17496.16
17373.59
17139.32
16925.65
16754.77
16537.99
16160.12
15579.64
14874.28
14206.89
13742.06
13570.57
13683.05
13995.8
14400.75
14807.32
15159.61
15432.93
15622.95
15737.67
15793.91
15814.92
15825.78
15847.1
15889.38
15950.39
16016.35
16065.86
16075.48
16025.26
15903.54
15709.7
15454.71
15159.42
14851.28
14560.21
14313.85
14132.87
14027.2
13994.63
14022.69
14094.24
14194.85
14316.66
14453.08
14588.79
14693.9
14762.21
14768.6
10229.2
11646.55
12705.78
13427.22
13691.48
13726.07
13828.38
14143.91
14637.43
15151.09
15511.36
15639.49
15592.68
15504.43
15472.51
15486.16
15449.02
15271.87
14956.22
14605.96
14365.82
14337.3
14529.72
14869.4
15248.26
15574.54
15798.72
15911.44
15927.35
15870.6
15768.21
15648.51
15539.28
15463.09
15431.98
15444.42
15486.26
15535.07
15565.95
15557.2
15494.9
15375.89
15208.46
15010.6
14806.19
14620.34
14475.03
14385.64
14358.52
14390
14467.53
14573
14687.44
14795.26
14885.93
14951.05
14981.98
14959.53
14912.23
14720.07
9082.206
10129.2
11177.29
12188.37
12920.18
13362.65
13701.06
14036.93
14343.52
14565.74
14679.01
14695.49
14659.45
14625.37
14614.85
14594.67
14512.45
14363.88
14227.1
14228.35
14463.95
14937.59
15555
16172.68
16662.87
16956.15
17046.67
16971.04
16781.89
16530.7
16261.89
16011.96
15808.19
15665.42
15583.85
15550.15
15542.44
15536.96
15514.17
15462.64
15380.68
15276.1
15164.21
15064.28
14994.85
14969.27
14992.76
15061.68
15164.67
15284.92
15403.52
15503.03
15569.57
15592.2
15561.52
15470.21
15321.43
15113.41
14911.96
14486.68
8771.026
9292.955
9971.101
10838.93
11843.86
12798.67
13526.49
13906
13929.37
13730.76
13506.02
13395.2
13430.18
13553.05
13661.88
13666.51
13547.09
13384.65
13331.53
13529.95
14029.52
14756.93
15553.02
16247.34
16723.15
16942.79
16934.1
16758.83
16484.93
16172.24
15868.82
15610.8
15420.87
15306.34
15259.14
15259.91
15285.06
15314.23
15335.38
15346.34
15353.57
15369.15
15407.34
15480.69
15596.24
15752.36
15937.71
16133.1
16315.7
16463.91
16561.57
16599.87
16575.89
16487.81
16331.79
16105.53
15822.55
15495.05
15208.43
14687.08
8723.044
9012.811
9454.59
10132.31
11226.92
12560.14
13661.35
14138.58
13937.33
13327.11
12700.53
12354.63
12375.46
12651.44
12977.34
13186.7
13245.2
13256.73
13385.24
13747.3
14343.2
15061.9
15743.98
16255.68
16532.36
16579.17
16444.32
16189.11
15870.07
15534.28
15220.81
14961.18
14776.82
14675.94
14653.02
14692.48
14775.07
14884.48
15011.26
15153.3
15313.49
15496.34
15705.09
15939.41
16193.65
16455.44
16705.76
16921.62
17081.47
17170.94
17186.17
17132.86
17020.98
16858.29
16647.6
16391.77
16105.78
15806.1
15561.56
15169.19
8724.572
8852.518
9173.488
9811.79
10968.83
12463.87
13731.52
14272.51
13988.51
13168.57
12272.92
11692.5
11587.33
11863.97
12292.16
12677.67
12973.23
13265.52
13673.01
14243.18
14917.19
15569.16
16077.5
16377.24
16469.28
16395.9
16208.63
15948.84
15645.58
15323.04
15007.29
14726.91
14508.33
14369.82
14318.19
14349.59
14453.38
14616.83
14828.35
15078.24
15357.34
15655.36
15959.95
16257.14
16531.94
16768.65
16951.08
17064.39
17099.28
17056.74
16949.38
16797.36
16620.6
16432.53
16239.52
16045.62
15858.41
15689.77
15565.15
15424.69
8752.734
8755.989
9015.613
9754.985
11024.52
12515.27
13699.8
14181.68
13903.22
13118.16
12236.31
11625.55
11448.17
11625.93
11958.46
12295.93
12628.78
13044.39
13615.33
14320.87
15052.54
15680.29
16120.3
16360.51
16440.75
16413.77
16316.43
16163.5
15958.49
15708.31
15431.39
15156.59
14916.1
14737.46
14638.33
14625.3
14695.56
14840.04
15045.92
15297.87
15578.14
15866.44
16140.87
16380.14
16566.06
16685.2
16729.3
16695.63
16588.91
16423.5
16222.76
16013.35
15817.17
15646.97
15507.97
15402
15327.74
15289
15270.45
15326.97
8784.003
8715.966
8987.137
9884.469
11240.85
12596.35
13547.57
13908.02
13704.04
13135.28
12501.42
12063.51
11913.65
11966.58
12081.42
12199.65
12382.21
12733.62
13297.55
14012.68
14750.26
15389.06
15868.94
16194.86
16404.57
16532.18
16590.86
16577.63
16488.77
16332.16
16130.13
15913.75
15714.03
15554.85
15449.84
15403.02
15411.28
15467.18
15560.93
15681.2
15815.11
15947.85
16063.08
16144.72
16179.54
16159.72
16083.96
15957.4
15791.14
15601.92
15410.35
15236.41
15094.21
14990.29
14926.31
14901.8
14911.2
14951.68
14987.85
15117.97
8801.466
8741.77
9135.415
10165.93
11463.1
12562.71
13272.45
13598.52
13599.16
13375.5
13076.32
12823.66
12642.21
12484.97
12326.08
12221.58
12282.32
12591.49
13141.99
13839.62
14558.98
15204.12
15734.95
16153.99
16476.26
16708.11
16845.83
16887.37
16843.98
16742.59
16618.34
16502.91
16415.29
16358.9
16324.79
16298.06
16264.08
16212.66
16139.61
16046.18
15937.14
15818.17
15693.27
15563.67
15428.7
15288.29
15145.29
15006.03
14878.62
14770.68
14687.79
14632.96
14606.73
14608.24
14636.76
14691.61
14767.18
14857.71
14924.14
15071.56
8804.78
8859.219
9476.414
10542.85
11600.03
12395.03
12973.73
13427.47
13759.81
13935.01
13929.9
13733.52
13359.31
12884.56
12459.89
12255.48
12377.93
12820.14
13476.18
14203.5
14887.13
15469.9
15942.86
16315.47
16591.95
16767.46
16839.96
16824.17
16755.54
16681.22
16643.59
16665.2
16742.01
16846.99
16940.89
16984.88
16950.49
16824.64
16610.14
16323.15
15988.91
15636.33
15292.39
14977.78
14705.45
14482.5
14313.6
14202.73
14151.28
14154.64
14201.42
14277.36
14371.26
14478.24
14598.18
14731.61
14873.24
15018.41
15127.66
15326.48
8809.323
9103.581
9967.636
10940.07
11687.94
12274.08
12873.24
13537.8
14194.56
14703.19
14898.31
14666.3
14050.04
13282.03
12686.24
12511.69
12816.96
13473.61
14264.12
14996.29
15568.3
15967.2
16226.7
16383.43
16457.3
16457.64
16400.34
16319.05
16261.79
16275.53
16387.75
16594.82
16861.95
17133.96
17351.26
17464.8
17445.36
17286.19
17000.65
16617.14
16173.27
15709.65
15263.78
14864.94
14531.91
14274.55
14097.69
14003.64
13990.65
14048.81
14159.19
14299.97
14455.77
14622.01
14800.51
14992.21
15190.6
15394.97
15562.67
15860.66
8859.853
9512.209
10558.04
11380.69
11944.31
12501.58
13183.59
13980.78
14818.48
15528.07
15854.69
15613.85
14873.29
13967.91
13317.92
13195.97
13608.43
14344.09
15122.91
15734.97
16099.19
16240.78
16231.6
16140.23
16013.93
15886.2
15791.15
15768.65
15856.3
16074.21
16412.89
16831.26
17266.02
17648.11
17919.26
18043.27
18009.36
17828.93
17528.69
17143.41
16710.2
16264.32
15836.08
15448.39
15116.05
14847.34
14647.3
14519.97
14467.07
14483.79
14556.88
14669.21
14808.52
14971.9
15160.75
15373.56
15601.18
15847.08
16064.28
16453.74
9012.406
10135.28
11313.21
12098.46
12690.78
13291.6
13953.06
14716.15
15582.46
16378.68
16791.13
16600.9
15888.5
15012.3
14390.25
14266.7
14617.77
15221.5
15811.26
16205.02
16351.1
16297.7
16132.88
15938.51
15774.67
15685.36
15707.11
15868.54
16180.74
16626.75
17159.04
17708.11
18199.27
18570.49
18784.78
18833.81
18733.4
18514.18
18211.51
17857.88
17479.14
17094.22
16716.74
16356.92
16023.13
15723.01
15464.63
15256.97
15108.73
15025.19
15005.38
15042.99
15130.9
15264.86
15441.22
15653.31
15888.97
16153.11
16394.79
16820.75
9533.511
11410.54
12791.8
13692.48
14350.96
14850.66
15312.07
15922.57
16727.03
17507.4
17927.86
17800.51
17226.55
16519.64
16006.18
15855.61
16032.18
16363.95
16661.32
16808.67
16790.19
16660.2
16495.35
16361.29
16303.65
16353.55
16532.29
16847.93
17286.51
17806.95
18345.8
18831.71
19203.37
19423.47
19483.85
19401.65
19209.5
18944.17
18637.21
18309.77
17972.05
17626.68
17273.96
16916.74
16562.69
16223.8
15913.92
15646.68
15434.58
15288.45
15215.58
15217.2
15287.71
15417.12
15593.88
15807.02
16044.07
16308.04
16547.31
16943.99
11201.72
13845.74
15223.7
16014.5
16438.6
16616.86
16814.8
17270.08
17953.15
18593.75
18918.2
18842.42
18483.49
18044.33
17690.47
17487.8
17407.18
17371.56
17311.92
17202.2
17060.86
16928.62
16843.58
16829.32
16897.01
17052.31
17297.01
17623.36
18006.65
18403.91
18762.04
19032.1
19182.65
19206.32
19117.65
18944.81
18719.42
18468.03
18207.23
17942.66
17671.45
17387.34
17086.77
16773.6
16460.31
16164.7
15904.25
15691.83
15535.66
15442.2
15417.11
15461.6
15567.55
15718.46
15897.41
16094.7
16304.25
16527.18
16722.66
17014.03
27646.23
24977.99
23602.11
22664.2
21751.11
20932.55
20463.17
20424.7
20621.2
20772.71
20738.22
20548.83
20292.19
20009.4
19684.44
19291.24
18834.38
18356.35
17918.74
17575.97
17355.96
17255.28
17248.26
17303.56
17398.43
17523.15
17674.88
17846.5
18018.97
18162.77
18247.46
18253.31
18178.41
18037.87
17856.82
17661.18
17470.51
17294.7
17134.25
16982.91
16831.51
16672.49
16504.18
16333.48
16174.86
16045.33
15957.56
15915.45
15915.43
15952.23
16023.02
16124.83
16248.12
16375.9
16493.27
16597.92
16696.54
16792.7
16872.57
16962.17
29295.22
27404.33
25990.73
24872.22
23739.24
22749.26
22163.64
21953.38
21864.34
21715.29
21528.04
21407.44
21371.28
21309.05
21073.05
20594.51
19932.78
19239.15
18673.99
18332.39
18215.58
18252.16
18346.6
18424.13
18451.69
18432.09
18382.76
18315.18
18225.97
18101.58
17930.24
17712.3
17463.1
17207.85
16972.66
16776.61
16628.21
16526.18
16462.98
16428.74
16414.49
16414.54
16428.16
16459.68
16516.29
16603.44
16719.68
16854.44
16990.79
17112.16
17208.03
17273.68
17304.77
17294.19
17237.55
17141.93
17026.57
16901.59
16790.85
16598.16
29799.4
28666.24
27376.85
26259.67
25256.04
24446.05
23899.9
23482.05
23023.73
22544.23
22214.12
22150.64
22284.18
22396.74
22268.53
21813.89
21124.27
20406.02
19862.07
19591.45
19559.87
19643.77
19708.19
19669.12
19512.67
19274.37
19002.14
18727.6
18457.68
18183.99
17898.55
17604.8
17319.11
17064.43
16861.6
16723.26
16652.46
16645.11
16693.91
16791.43
16931.57
17109.55
17321.23
17561.81
17823.85
18095.14
18357.53
18587.9
18761.79
18858.59
18866.48
18784.37
18619.59
18382.84
18085.78
17742.89
17378.58
17007.49
16691.62
16221.78
29924.64
29246.84
27965.66
26716.96
25907.84
25503.82
25162.67
24570.39
23721.67
22896.67
22407.56
22372.73
22663.78
23001.8
23114.86
22871.97
22330.97
21681.2
21121.87
20754.12
20548.66
20393.31
20175.45
19843.47
19418.38
18963.46
18541.49
18186.29
17898.95
17662.03
17457.9
17280.25
17135.37
17036.31
16995.47
17019.89
17110.48
17264.13
17476.33
17742.69
18058.67
18417.99
18810.61
19221.07
19628.01
20005.28
20324.65
20559.42
20687.28
20692.38
20567.62
20318.16
19962.86
19529.45
19044.59
18526.72
17996.03
17462.95
17017.84
16382.04
29923.26
29548.51
28303.23
26919.06
26219.71
26122.18
25933.85
25202.11
24069.19
23008.89
22422.5
22435.59
22904.74
23526.54
23980.64
24061.53
23744.78
23155.61
22467.14
21799.68
21180.77
20574.23
19940.1
19278.32
18632.76
18064.26
17617.93
17305.92
17110.97
17002.63
16953.79
16949.74
16988.17
17073.98
17213.21
17409.14
17661.43
17967.08
18321.94
18721.28
19159.01
19625.61
20106
20578.31
21014.98
21386.39
21665.88
21833.66
21877.64
21791.83
21575.96
21239.19
20804.65
20306.7
19778.17
19236.76
18692.44
18142.65
17687.91
17031.04
29855.37
29597.03
28491.73
27206.6
26548.5
26380.14
26019.62
25131.12
23961.08
22987.06
22550.69
22727.86
23361.34
24152.36
24778.06
25007.75
24769.27
24135.89
23254.75
22269.23
21277.48
20333.83
19471.68
18721.5
18112.11
17660.41
17362.37
17193.76
17120.07
17109.08
17139.66
17203.84
17303.72
17445.96
17636.84
17879.26
18171.77
18509.23
18884.19
19287.97
19710.62
20139.68
20558.45
20945.43
21276.41
21529
21687.58
21745.53
21703.5
21565.24
21335.64
21023.57
20646.95
20232.46
19805.83
19378
18948.76
18500.46
18124.74
17532
29746.66
29419.42
28565.31
27659.5
26973.74
26303.01
25412.58
24371.7
23466.7
22962.85
22969.18
23423.78
24133.17
24838.14
25296.25
25351.81
24964.33
24193.85
23163.74
22022.31
20912.24
19948.16
19201.47
18693.82
18401.46
18269.43
18231.62
18229.69
18225.37
18203.61
18168.59
18135.82
18124.35
18150.76
18225.76
18352.85
18528.48
18743.59
18985.98
19242.73
19501.46
19750.09
19975.5
20163.15
20299.1
20373.89
20385.71
20340.33
20247.38
20115.85
19951.87
19759.94
19545.87
19317.88
19083.76
18843.37
18591.14
18299.87
18039.5
17533.36
29599.64
29088.98
28560.17
28084.6
27208.4
25818.76
24349.97
23297.18
22861.88
22980.35
23479.08
24156.94
24809.8
25262.51
25404.79
25197.63
24652.55
23815.63
22771.47
21650.13
20611.57
19802.89
19309.53
19128.76
19179.4
19340.2
19495.61
19568.73
19532.09
19399.15
19206.43
18995.76
18802.32
18649.2
18546.87
18495.03
18485.32
18504.48
18537.91
18572.75
18599.72
18612.96
18608.5
18583.31
18536.16
18469.9
18392.59
18315.85
18251.09
18206.08
18183.56
18180.69
18188.81
18195.07
18187.19
18155.11
18093.95
17975.61
17844.76
17451.89
29390.38
28661.53
28394.61
28066.29
26845.16
24941.84
23252.18
22401.17
22412.42
22970.94
23734.38
24449.62
24958.81
25194.98
25163.98
24895.32
24396.93
23659.87
22708.46
21644.55
20639.1
19869.51
19443.33
19355.65
19501.33
19728.57
19900.96
19938.66
19827.26
19600.91
19314.97
19021.99
18758.02
18539.43
18366.34
18228.57
18111.26
17999.3
17880.74
17749.01
17603.66
17449.35
17293.75
17145.63
17014.26
16909.68
16842.63
16823.03
16857.81
16949.45
17095.03
17284.31
17497.5
17707.45
17889.33
18029.13
18126.58
18159.8
18155.92
17915.99
28905.49
27791.21
27520.22
26991.94
25563.58
23718.65
22297.46
21746.81
21986.62
22664.56
23418.5
24005.27
24333.56
24438.68
24405.4
24273.95
23996.76
23480.88
22680.14
21662.64
20602.92
19706.09
19115.5
18858.5
18853.47
18963.4
19060.37
19069.11
18976.65
18814.8
18631.58
18466.88
18340.03
18249.54
18180.1
18111.58
18026.14
17912.35
17766.51
17592.35
17399.66
17202.28
17016.01
16856.53
16737.62
16670.03
16660.9
16714
16830.27
17007.85
17240.85
17516.33
17812.15
18099.69
18353.9
18562.54
18729.17
18842.26
18924.32
18838.81
27472.91
26055.95
25798.31
25225.31
24111.58
22871.98
21956.24
21610.8
21825.46
22372.96
22940.36
23301.28
23420.71
23421.32
23445.92
23527.06
23556.83
23364.74
22836.28
21990.57
20975.53
19995.45
19220.53
18727.72
18494.47
18435.84
18456.52
18490.18
18512.75
18532.35
18568.22
18631.96
18718.87
18809.91
18880.1
18907.83
18881.05
18798.97
18670.06
18508.44
18330.48
18152.74
17991.12
17859.91
17770.14
17727.62
17732.76
17782.81
17875.07
18007.78
18177.62
18376
18588.02
18795.47
18982.68
19141.2
19274.12
19380.77
19483.44
19507.75
12379.82
16672.03
18990.39
19957.4
20311.1
20392.54
20361.96
20415.06
20707.61
21194.15
21658.95
21923.56
22002.76
22066.81
22276.25
22647.16
23039.63
23249.26
23122.46
22627.43
21856.41
20974.63
20151.17
19504.61
19081.46
18866.6
18812.02
18865.96
18989.96
19160.75
19362.49
19577.57
19782.62
19951.2
20060.53
20098.17
20065.11
19974.23
19845.19
19698.25
19550
19412.14
19292.81
19197.81
19130.01
19087.72
19064.87
19054.54
19053.64
19063.91
19088.2
19126.35
19175.08
19230.72
19289.83
19348.05
19405.17
19467.47
19550.98
19639.11
12443.39
16595.49
18632.11
19476.48
20054.23
20540.4
20795.98
20852.83
20894.05
21007.13
21120.78
21153.88
21145.28
21225.15
21492.25
21927.87
22403.47
22750.04
22831.95
22591.26
22056.79
21326.15
20532.03
19803.97
19237.1
18876.62
18720.29
18733.65
18868.32
19075.65
19313
19544.83
19742.49
19885.2
19962.25
19974.86
19935.64
19864.99
19784.97
19713.17
19659.1
19624.48
19606.32
19600.04
19600.27
19599.94
19590.42
19564.7
19521.45
19465.86
19405.95
19348.5
19299.1
19264.03
19248.6
19253.18
19275.5
19321.6
19393.64
19524.6
27394.23
25630.02
24648.14
23803.42
23302.61
23127.27
22983.7
22691.86
22280.39
21843.24
21442.96
21121.88
20926.7
20893.05
21017.95
21255.74
21535.51
21778.61
21907.85
21856.96
21587.75
21109.11
20483.74
19813.29
19206.18
18743.68
18459.63
18340.48
18340.94
18405.26
18484.5
18545.54
18572.43
18563.26
18525.75
18473.5
18422.7
18388.96
18383.79
18411.7
18469.28
18547.02
18633
18716.45
18789.18
18845.11
18879.54
18889.89
18877.46
18848
18809.95
18771.81
18741.35
18726.26
18733.45
18766.42
18822.37
18900.82
18983.48
19142.74
28693.03
26915.89
25647.85
24822.88
24187.17
23698.19
23334.67
22971.87
22478.6
21850.94
21218.42
20731.34
20451.98
20341.49
20327.96
20376.84
20504.04
20733.91
21047.44
21364.8
21573.82
21583.21
21365.88
20968.21
20483.72
20009.24
19607.57
19292.55
19038.27
18802.4
18550.08
18267.95
17965.61
17667.65
17402.5
17193.28
17052.97
16983.6
16977.81
17021.5
17096.83
17185.47
17271.72
17344.94
17400.65
17439.87
17466.84
17486.33
17501.97
17516.79
17534.71
17560.83
17599.9
17655.13
17728.99
17823.68
17934.8
18054.09
18142.29
18293.37
28904.92
27110.95
25746.52
25150.6
24677
24110.22
23604.94
23150.04
22562.47
21789.87
21003.06
20410.41
20067.19
19875
19720.78
19594.1
19588.74
19813.55
20296.88
20950.58
21605.95
22089.82
22294.66
22208.91
21900.61
21471.12
21006.53
20549.32
20098.25
19629.57
19123.79
18583.76
18037.41
17527.47
17095.93
16770.91
16560.47
16453.81
16427.24
16451.82
16499.85
16548.98
16584.09
16598.09
16592.21
16575.05
16559.23
16555.82
16569.76
16600.06
16644.37
16702.79
16776.75
16865.96
16968.54
17083.03
17202.8
17315.47
17376.97
17469.42
28496.88
26274.09
24604.99
23905.73
23673.85
23500.05
23252.17
22811.3
22064.6
21089.41
20154.16
19498.15
19151.61
18969.16
18802.5
18634.73
18580.22
18781.66
19297.36
20051.31
20863.29
21528.87
21901.25
21936.47
21688.31
21265.04
20775.01
20287.31
19821.56
19363.79
18893.88
18408.06
17926.66
17486.88
17127.59
16874.83
16733.91
16690.1
16715.55
16778.55
16851.13
16912.95
16951.92
16963.69
16951.5
16925.75
16900.92
16889.46
16895.97
16916.65
16945.03
16978.41
17018.84
17068.85
17128.28
17194.2
17258.84
17311.35
17325.09
17348.01
27008.16
24343.49
22599.93
21791.98
21858.65
22325.65
22607.29
22341.79
21508.61
20368.46
19284.28
18514.26
18105.94
17946.05
17898.67
17916.02
18053.54
18401.42
18994.65
19762.39
20542.15
21144.31
21428.53
21353.51
20980.67
20436.57
19857.18
19340.94
18928.3
18609.89
18352.02
18123.53
17911.88
17724.7
17580.57
17496.39
17478.04
17517.85
17598.3
17698.73
17801.08
17892.39
17964.45
18012.91
18037.45
18042.49
18036.19
18026.38
18015.7
18000.14
17973.38
17934.06
17889.16
17849.93
17823.73
17809.46
17798.76
17787.31
17769.71
17781.15
12380.85
14636.76
15407.32
15941.7
17054.08
18536.87
19676.91
20011.82
19583.08
18727.23
17799.39
17041.83
16572.29
16412.58
16527.64
16869.42
17407.11
18122.87
18978.08
19881.15
20687.86
21240.81
21427.57
21225.48
20710.33
20026.67
19335.92
18766.21
18382.91
18186.66
18133.04
18161.17
18218.38
18273.33
18316.62
18353.06
18391.85
18439.61
18498.25
18566.3
18640.87
18718.43
18794.14
18861.53
18913.44
18944.11
18950.84
18933.55
18892.47
18826.13
18732.69
18615.32
18486.8
18366.57
18269.45
18197.35
18142.24
18109.36
18099.29
18176.1
11013.15
12664.62
13622.76
14275.88
15368.35
16856.46
18121.93
18716.59
18648.52
18155.38
17451.69
16695.65
16050.15
15678.08
15678.37
16051.11
16723.37
17595.71
18564.92
19519.19
20332.1
20877.76
21066.06
20877.6
20377.33
19697.75
18999.11
18422.98
18056.91
17920.59
17974.78
18145.88
18354.88
18540.24
18668.73
18734.26
18749.26
18734.29
18710.04
18693.04
18693.81
18716.43
18758.53
18811.98
18864.63
18902.98
18915.53
18895.59
18841.98
18757.18
18645.31
18513.43
18375
18248.87
18150.2
18083.09
18043.23
18045.32
18079.32
18255.91
10679.13
11681.85
12713.06
13483.54
14317.8
15346.33
16342.03
17064.61
17448.04
17506.45
17242.54
16700.93
16042.15
15504.59
15284.86
15452.56
15956.15
16684.93
17524.57
18375.58
19146.14
19746.08
20097.38
20157.23
19938.72
19515
19002.16
18526.36
18187.81
18035.01
18057.94
18200.81
18387.24
18546.9
18633.93
18633.02
18554.57
18424.08
18271.27
18122.07
17994.59
17898.2
17834.57
17799.21
17782.97
17773.84
17759.85
17733.13
17692.77
17643.95
17593.78
17547.86
17510.7
17487.56
17483.45
17502.44
17546.66
17635.81
17739.67
18006.67
10676.01
11279.03
12470.91
13550.08
14171.87
14533.63
14984.38
15669.65
16461.39
17089.33
17322.2
17099.63
16560.23
15960.11
15539.97
15426.57
15617.81
16035.83
16594.36
17234.13
17916.89
18599.18
19215.39
19685.44
19942.72
19964.41
19785.74
19489.78
19177.41
18931.89
18793.52
18753.79
18768.18
18779.14
18738.08
18618.67
18418.85
18154.65
17850.59
17531.19
17216.32
16920.32
16653.3
16422.49
16232.22
16083.25
15973.29
15899.9
15864.11
15871.08
15925.73
16026.03
16160.12
16311.28
16467.66
16630.09
16805.19
17010.17
17192.53
17522.4
10758
11118.22
12412.56
13788.94
14348.63
14219.7
14180.48
14735.42
15755.67
16767.29
17369.27
17429.7
17060.25
16498.11
15982.26
15664.43
15581.29
15691.74
15945.26
16329.11
16864.33
17562.61
18382.59
19219.26
19934.5
20409.78
20591.43
20506.26
20243.2
19913.57
19609.96
19380.43
19224.64
19107.83
18982.7
18808.86
18563.47
18242.42
17855.14
17417.86
16948.98
16467.73
15994.76
15552.17
15161.51
14840.49
14600.68
14448.27
14387.22
14421.24
14550.74
14765.15
15038.18
15334.93
15629.35
15917.42
16205.07
16500.75
16738.87
17090.78
10886.89
11204.35
12468.24
13883.07
14482.47
14298.75
14122.29
14547.64
15513.29
16561.09
17281.46
17520.26
17344.66
16933.46
16480.91
16125.56
15916.45
15834.49
15853.63
15992.18
16312.94
16874.02
17669.2
18601.36
19506.88
20216.03
20615.91
20685.63
20491.91
20152.97
19790.75
19491.88
19289.64
19168.2
19081.75
18977.62
18814.03
18568.13
18235.29
17823.89
17350.28
16835.99
16306.91
15792.12
15321.14
14919.86
14607.23
14394.84
14289.11
14293.57
14407
14616.92
14894.87
15203.39
15513.72
15818.66
16119.61
16415.89
16647.9
16959.85
11055.31
11533.83
12653.24
13829.06
14520.23
14699.1
14770.27
15115.6
15781.77
16543.61
17140.87
17432.27
17416.39
17189.19
16885.73
16619.12
16438.7
16334.55
16284.29
16302.15
16448.77
16793.88
17360.33
18089.34
18850.01
19487.18
19880.81
19987.68
19849.08
19565.99
19256.53
19014.97
18886.75
18865.43
18907.51
18955.66
18959.65
18888.32
18731.23
18493.82
18190.75
17841.12
17465.98
17087.05
16725.18
16398.39
16120.46
15901.06
15747.26
15664.62
15655.73
15715.97
15830.5
15978.08
16141.08
16312.42
16488.35
16664.65
16806.57
17002.49
11292.09
12096.51
13048.7
13911.65
14726.48
15419.82
15892.76
16196.65
16478.22
16815.47
17153.62
17376.09
17411.53
17284.79
17092.1
16936.59
16873.46
16897.21
16970.84
17069.36
17204.28
17413.51
17726.54
18131.07
18563.93
18931.98
19150.75
19180.19
19040.62
18803.18
18561.24
18396.36
18352.9
18429.84
18590.03
18779.94
18950.25
19069.1
19125.24
19123.24
19075.47
18995.05
18891.78
18771.04
18634.61
18482.28
18313.97
18131.67
17940.38
17747.64
17561.94
17391.57
17244.05
17125.18
17036.48
16973.68
16929.5
16902.2
16890.43
16910.49
11792.47
13170.24
14055.61
14700.83
15582.87
16620.73
17379.71
17641.14
17584.56
17512.09
17554.68
17646.76
17677.63
17612.84
17505.67
17442.37
17484.33
17639.45
17867.65
18110.16
18323.25
18496.16
18644.17
18784.8
18915.28
19006.65
19017.71
18919.77
18717.26
18452.92
18194.93
18012.76
17953.31
18027.6
18212.37
18463.74
18735.32
18992.6
19219.12
19414.08
19584.79
19738.25
19875.22
19988.35
20064.08
20086.97
20044.36
19929.67
19742.98
19489.66
19179.67
18829.79
18465.58
18115.99
17800.05
17517.96
17262.09
17034.16
16863.78
16692.74
13150.25
15089.92
15795.55
16158.14
16884.19
17933.47
18744.14
18932.31
18630.19
18237.02
18032.58
18044.17
18152.14
18236.05
18247.78
18212.82
18194.14
18245.96
18380.42
18564.24
18744.11
18880.3
18964.25
19010.91
19035.52
19034.01
18980.81
18844.78
18612.33
18303.39
17971.01
17685.16
17508.92
17478.48
17594.79
17828.8
18135.94
18472.52
18807.5
19126.16
19426.3
19710.26
19977.09
20218.44
20419.14
20561.17
20628.31
20609.09
20497.03
20289.97
19991.73
19617.37
19196.41
18765.65
18352.06
17961.12
17589.12
17236.84
16957.72
16619.8
25882.33
23631.36
22097.47
21123.35
20882.95
21169.5
21410.36
21188.18
20540.87
19818.85
19360.54
19279.57
19455.02
19655.6
19688.21
19489.47
19128.62
18741.22
18445.9
18294.44
18273.58
18340.36
18457.37
18604.71
18768.66
18923.2
19022.74
19013.48
18857.13
18552.98
18145.83
17715.25
17351.08
17125.99
17075.99
17195.28
17445.38
17772.79