/*--------------------------------*- C++ -*----------------------------------*\
| =========                 |                                                 |
| \\      /  F ield         | OpenFOAM: The Open Source CFD Toolbox           |
|  \\    /   O peration     | Version:  2312                                  |
|   \\  /    A nd           | Website:  www.openfoam.com                      |
|    \\/     M anipulation  |                                                 |
\*---------------------------------------------------------------------------*/
FoamFile
{
    version     2.0;
    format      ascii;
    arch        "LSB;label=32;scalar=64";
    class       volScalarField;
    location    "4950";
    object      ILambda_9_0;
}
// * * * * * * * * * * * * * * * * * * * * * * * * * * * * * * * * * * * * * //

dimensions      [1 0 -3 0 0 0 0];

internalField   nonuniform List<scalar> 
12000
(
773.9683
766.8665
764.2561
761.376
759.2649
757.6086
756.3756
755.4821
754.8619
754.4478
754.1604
753.8936
753.5051
752.816
751.6263
749.7432
747.0205
743.3986
738.9376
733.8299
728.3878
723.0026
718.0808
713.9693
710.8839
708.8591
707.731
707.1604
706.6934
705.8468
704.202
701.4856
697.62
692.7329
687.1263
681.2137
675.4436
670.2276
665.8886
662.6374
660.5712
659.6826
659.8646
660.9
662.4411
663.9982
664.9667
664.7138
662.7208
658.7417
652.9162
645.7818
638.1698
631.0281
625.2355
621.4448
619.9571
620.6463
623.0026
626.2972
788.7272
779.7099
775.462
770.9459
767.2404
764.1093
761.5346
759.4439
757.7848
756.5253
755.6541
755.1644
755.0282
755.168
755.4338
755.5968
755.3645
754.4197
752.4783
749.3549
745.0205
739.6358
733.5494
727.2549
721.311
716.239
712.4204
710.0144
708.9191
708.7838
709.0739
709.1744
708.5095
706.6513
703.3948
698.7829
693.0802
686.7067
680.1515
673.893
668.3444
663.832
660.5992
658.8136
658.5527
659.7537
662.1379
665.149
667.9609
669.5955
669.148
666.0482
660.2548
652.2965
643.1573
634.0702
626.2779
620.7795
618.1103
618.2331
798.8934
789.3454
784.2184
778.8157
774.2044
770.2316
766.898
764.1106
761.7664
759.7707
758.0643
756.6334
755.5033
754.7149
754.2889
754.1872
754.2839
754.3555
754.0978
753.1718
751.2695
748.1869
743.8878
738.5376
732.4978
726.2751
720.4329
715.483
711.7807
709.4482
708.3446
708.0927
708.1556
707.9465
706.9467
704.8036
701.3873
696.7955
691.309
685.3167
679.2323
673.4312
668.2227
663.8597
660.5672
658.5573
658.0004
658.9378
661.1623
664.1256
666.949
668.5793
668.0614
664.8264
658.8758
650.8068
641.6882
632.8151
625.3802
620.1595
811.0373
801.4749
795.5268
789.0812
783.246
778.0422
773.5982
769.9
766.8638
764.3538
762.2245
760.3579
758.6922
757.2303
756.0281
755.161
754.6782
754.5553
754.6614
754.7505
754.4864
753.4989
751.4616
748.1749
743.6318
738.0481
731.8442
725.5786
719.8428
715.1418
711.7865
709.8251
709.0304
708.9478
708.9928
708.5746
707.2163
704.6432
700.82
695.9307
690.3112
684.3594
678.4508
672.8886
667.9034
663.6936
660.4781
658.5157
658.0513
659.1838
661.7013
664.9723
667.9847
669.5604
668.6811
664.8079
658.0885
649.37
639.94
631.0284
822.1321
814.1783
808.2593
801.391
794.5986
788.103
782.2249
777.1388
772.9103
769.4881
766.7334
764.4611
762.4897
760.6862
758.9962
757.4507
756.1447
755.1932
754.6738
754.5712
754.7402
754.9019
754.6772
753.6571
751.494
747.9938
743.1839
737.3366
730.9374
724.5995
718.9429
714.4641
711.428
709.8094
709.2989
709.3719
709.4045
708.8082
707.1493
704.2266
700.0894
694.9942
689.3177
683.4532
677.7264
672.3616
667.5101
663.3266
660.0484
658.015
657.5811
658.9265
661.8374
665.5793
668.9572
670.5829
669.2939
664.6161
657.0523
647.912
829.7907
825.3257
820.737
814.7182
807.9515
800.7886
793.6946
787.0598
781.1869
776.2463
772.2659
769.1431
766.6819
764.6464
762.8213
761.0631
759.3317
757.6913
756.2798
755.2523
754.7112
754.6439
754.884
755.1135
754.9085
753.8243
751.4998
747.7574
742.6695
736.572
730.0153
723.6604
718.1423
713.9335
711.24
709.9569
709.6943
709.8668
709.8245
708.9939
706.9941
703.7025
699.254
693.9779
688.2895
682.5726
677.0923
671.9766
667.2783
663.0968
659.6924
657.5099
657.0538
658.6306
662.0548
666.4566
670.3205
671.8636
669.7551
663.8797
831.614
831.9543
830.0025
826.4189
821.2602
814.8488
807.622
800.0749
792.7043
785.9415
780.0969
775.3234
771.6075
768.7907
766.6182
764.8054
763.1075
761.3774
759.5956
757.8647
756.3667
755.293
754.7637
754.7585
755.0804
755.3659
755.1461
753.947
751.4062
747.3771
741.99
735.6512
728.9747
722.6593
717.3404
713.4511
711.1279
710.1831
710.1509
710.3935
710.2437
709.1477
706.7786
703.0919
698.3117
692.8477
687.1646
681.6416
676.4747
671.6701
667.1482
662.9259
659.2853
656.819
656.2745
658.2
662.4769
667.9437
672.458
673.7299
826.9659
831.9215
833.2181
833.2054
831.2039
827.3295
821.7688
814.8998
807.2194
799.2894
791.6588
784.7905
778.9985
774.4117
770.9699
768.4558
766.5562
764.9414
763.3447
761.6233
759.786
757.9775
756.423
755.3438
754.8669
754.9526
755.3628
755.6839
755.4047
754.0322
751.2179
746.8622
741.1649
734.6058
727.856
721.6385
716.5726
713.0394
711.1007
710.4896
710.6729
710.9689
710.6954
709.3147
706.5464
702.4228
697.2665
691.5896
685.9302
680.6743
675.9329
671.5432
667.2271
662.8618
658.7507
655.7414
655.0401
657.6348
663.4735
670.9736
817.7553
825.34
829.3031
832.7943
834.5928
834.519
832.3675
828.1828
822.2065
814.8703
806.7397
798.441
790.5741
783.6279
777.9137
773.5296
770.3638
768.1385
766.4847
765.0345
763.5085
761.7784
759.8881
758.027
756.4591
755.4261
755.048
755.2514
755.7475
756.0705
755.6739
754.0602
750.9134
746.1969
740.1887
733.4404
726.6685
720.6037
715.834
712.6811
711.1345
710.8576
711.2593
711.6169
711.2248
709.5454
706.3324
701.6962
696.0825
690.1471
684.5426
679.6782
675.5488
671.7382
667.6482
662.9227
657.9249
653.9921
653.1157
656.8913
807.8859
815.0509
820.0036
825.5229
830.3064
833.9507
835.9034
835.8045
833.4732
828.9625
822.5593
814.7563
806.1884
797.546
789.475
782.4838
776.8728
772.702
769.8039
767.8404
766.3925
765.0637
763.5739
761.8199
759.8881
758.0124
756.4885
755.564
755.3354
755.6808
756.2519
756.5325
755.952
754.027
750.4934
745.3917
739.0816
732.1787
725.4295
719.5555
715.1042
712.3391
711.189
711.261
711.9131
712.3725
711.8876
709.8934
706.1621
700.8945
694.7027
688.45
682.9626
678.6917
675.4617
672.4593
668.5785
663.1144
656.5253
650.6263
801.3635
805.4868
809.4054
814.6601
820.3652
826.11
831.2303
835.1052
837.1737
837.0328
834.4989
829.6466
822.8113
814.5508
805.5703
796.621
788.3884
781.3909
775.9086
771.9559
769.3062
767.564
766.2686
765.008
763.5159
761.7262
759.7732
757.9327
756.5207
755.7735
755.7449
756.2501
756.8764
757.0629
756.2311
753.9322
749.9718
744.4765
737.8838
730.8591
724.1611
718.4899
714.3525
711.9672
711.2213
711.6804
712.6486
713.2796
712.7382
710.3976
706.0371
699.9731
693.0462
686.4117
681.1445
677.7563
675.813
673.9088
670.2108
663.5024
800.1129
800.4199
801.9653
804.9897
809.2751
814.6549
820.664
826.7214
832.1421
836.2348
838.3919
838.1816
835.4199
830.2108
822.9437
814.2449
804.8889
795.6824
787.3411
780.3822
775.0541
771.318
768.8866
767.312
766.1039
764.851
763.3167
761.4842
759.5391
757.793
756.5665
756.0646
756.2793
756.9511
757.6024
757.6395
756.4957
753.7773
749.3729
743.4952
736.6473
729.5249
722.8827
717.3961
713.5439
711.5238
711.2049
712.1186
713.4989
714.3883
713.8225
711.0805
705.9456
698.8839
691.0357
683.9434
679.0162
676.8541
676.7491
676.8422
802.8734
800.881
800.1105
800.3143
801.7839
804.7385
809.1239
814.6951
820.9841
827.3509
833.0516
837.3343
839.545
839.2292
836.2102
830.6294
822.9361
813.8279
804.1459
794.7447
786.3579
779.4878
774.3387
770.8112
768.5573
767.0854
765.8908
764.5817
762.9683
761.0934
759.1944
757.6079
756.6402
756.4431
756.9297
757.7588
758.3946
758.2279
756.7258
753.567
748.7276
742.4965
735.4217
728.2086
721.5986
716.2518
712.6446
710.9842
711.1397
712.6026
714.5063
715.7383
715.1668
711.9549
705.8918
697.6227
688.651
680.9959
676.4895
675.9335
805.9536
804.5867
802.8898
801.3561
800.3023
800.2753
801.6176
804.5374
809.0149
814.7871
821.3519
828.0147
833.9688
838.4031
840.6218
840.1555
836.8447
830.8768
822.7681
813.2889
803.3424
793.8204
785.4598
778.7318
773.7839
770.4497
768.3232
766.8809
765.6222
764.1952
762.4737
760.5676
758.7621
757.403
756.7604
756.9118
757.6783
758.6377
759.2098
758.7923
756.9068
753.3142
748.0722
741.5252
734.241
726.919
720.2911
715.0261
711.6318
710.3502
711.0527
713.1686
715.6953
717.3353
716.7703
713.0372
705.9266
696.2713
685.9139
677.1094
805.4508
807.3235
806.5915
805.4054
803.5903
801.7887
800.5059
800.2676
801.4849
804.3898
808.9733
814.9553
821.7931
828.7336
834.906
839.4428
841.613
840.9424
837.2999
830.9298
822.4219
812.6191
802.4803
792.9208
784.6634
778.1309
773.4012
770.2365
768.179
766.6884
765.2897
763.6916
761.8461
759.9333
758.2761
757.2099
756.9456
757.4679
758.5002
759.5482
760.0081
759.3081
757.0399
753.046
747.4469
740.6148
733.1152
725.6382
718.9271
713.6942
710.5085
709.6534
710.9836
713.836
717.0521
719.1428
718.5988
714.3235
706.0915
694.7722
799.5814
805.479
807.0088
808.0095
807.592
806.2197
804.2502
802.2173
800.7047
800.2783
801.3937
804.3098
809.0216
815.2261
822.3336
829.5287
835.876
840.4558
842.5109
841.5745
837.5572
830.7713
821.886
811.8157
801.5652
792.0572
783.9812
777.6933
773.1906
770.1626
768.1092
766.4924
764.8853
763.077
761.1078
759.2254
757.7749
757.0588
757.2068
758.099
759.3638
760.452
760.7612
759.7706
757.1476
752.8018
746.8884
739.7795
732.0278
724.3301
717.4762
712.2558
709.3093
708.9429
710.9654
714.6045
718.5414
721.0931
720.5979
716.0161
789.6509
798.146
801.9498
805.6767
807.9433
808.8721
808.4741
806.997
804.8569
802.6104
800.8872
800.3009
801.3482
804.3106
809.1801
815.6233
822.9967
830.4188
836.89
841.4446
843.3099
842.0408
837.6043
830.3922
821.1577
810.8835
800.6076
791.2417
783.4211
777.4184
773.1407
770.2076
768.0904
766.275
764.4045
762.3648
760.289
758.4829
757.2947
756.9705
757.5422
758.7815
760.2341
761.3193
761.4597
760.1976
757.268
752.6215
746.4164
739.007
730.9423
722.9593
715.931
710.739
708.0809
708.2639
711.0396
715.5122
720.2049
723.4652
779.0969
787.4922
792.4164
797.8933
802.5793
806.2843
808.7004
809.6851
809.2722
807.6969
805.3915
802.9467
801.0383
800.3279
801.3497
804.4019
809.4652
816.1666
823.8016
831.4189
837.9563
842.4101
844.0052
842.3344
837.4362
829.7929
820.2449
809.8362
799.6234
790.4864
782.9858
777.2959
773.2292
770.3425
768.096
766.0211
763.8508
761.578
759.4261
757.7444
756.8626
756.9516
757.9361
759.4855
761.0819
762.1372
762.1161
760.623
757.44
752.5274
746.0233
738.2653
729.8259
721.5155
714.3053
709.166
706.8574
707.6984
711.3577
716.8247
771.3146
777.2401
781.7619
787.207
792.7991
798.2097
803.0281
806.8562
809.3779
810.414
809.9768
808.2992
805.8328
803.2057
801.1421
800.3504
801.3977
804.5911
809.8898
816.8713
824.7621
832.5379
839.0778
843.3498
844.592
842.452
837.0555
828.9844
819.1661
808.6965
798.6326
789.8017
782.6711
777.306
773.425
770.5339
768.101
765.7233
763.2377
760.7468
758.5554
757.0389
756.4902
756.9929
758.3651
760.1866
761.8963
762.917
762.7603
761.0808
757.6822
752.5126
745.6857
737.538
728.6818
720.0026
712.5815
707.5346
705.7328
707.4084
767.7528
770.353
773.4835
777.4243
782.1851
787.4855
793.0602
798.5192
803.4331
807.3735
809.9847
811.0546
810.5769
808.7869
806.1605
803.3679
801.1832
800.3598
801.4917
804.8844
810.4643
817.7478
825.8851
833.7771
840.25
844.2562
845.0639
842.3939
836.4728
827.988
817.9505
807.4942
797.6573
789.1946
782.4654
777.4211
773.6928
770.7508
768.0896
765.3865
762.588
759.9023
757.7028
756.3766
756.1689
757.0738
758.8096
760.8799
762.693
763.6878
763.4183
761.5761
757.9775
752.5593
745.4154
736.8621
727.5142
718.3484
710.6647
705.7386
767.5149
767.5001
769.1903
771.2208
774.2093
777.9988
782.5803
787.7802
793.3215
798.8187
803.8167
807.8517
810.5291
811.6063
811.0632
809.1441
806.356
803.4162
801.1497
800.3515
801.6339
805.2891
811.197
818.8015
827.1697
835.1287
841.4601
845.1161
845.4137
842.164
835.7059
826.834
816.6341
806.2619
796.717
788.665
782.349
777.6093
774.0012
770.9745
768.0632
765.0306
761.9301
759.0664
756.8724
755.7418
755.8729
757.1755
759.2728
761.5924
763.5078
764.4688
764.0718
762.0627
758.299
752.7109
745.3036
736.2602
726.1647
716.1332
768.5977
767.2583
768.087
768.797
770.2069
772.2188
774.9929
778.5903
783.0009
788.0938
793.6025
799.1326
804.2019
808.3089
811.0211
812.0696
811.4277
809.3572
806.4043
803.338
801.0349
800.3257
801.8305
805.8139
812.0945
820.0327
828.6077
836.5763
842.6878
845.912
845.6341
841.7704
834.7791
825.5583
815.255
805.0281
795.8216
788.2016
782.2955
777.8416
774.3326
771.209
768.0468
764.6898
761.2888
758.2395
756.0381
755.096
755.5766
757.3069
759.8
762.3811
764.3654
765.2171
764.6273
762.4793
758.7057
753.1207
745.4255
735.5306
769.7412
767.7443
768.1917
768.4026
769.0559
769.9896
771.3308
773.2143
775.796
779.1961
783.4456
788.4418
793.9251
799.4867
804.6131
808.7637
811.4708
812.4453
811.6636
809.4153
806.2944
803.1265
800.8383
800.2888
802.092
806.4688
813.1615
821.4366
830.1836
838.0967
843.9085
846.6263
845.7216
841.2278
833.7229
824.1983
813.8453
803.8084
794.9641
787.779
782.2737
778.0985
774.6935
771.4882
768.0884
764.4018
760.6692
757.3877
755.1436
754.3969
755.2872
757.535
760.4866
763.3011
765.2172
765.7897
764.9603
762.8573
759.4085
754.1402
771.476
768.3693
768.2647
768.1964
768.639
769.3087
770.1468
771.1604
772.4518
774.195
776.5913
779.8086
783.9178
788.8386
794.3114
799.9063
805.074
809.2341
811.8879
812.735
811.766
809.3105
806.0199
802.7804
800.5655
800.2518
802.4314
807.2635
814.3991
823.0028
831.8762
839.6631
845.0982
847.2468
845.6824
840.5607
832.573
822.7885
812.4242
802.5969
794.1152
787.3568
782.2537
778.3806
775.1217
771.8748
768.2457
764.1864
760.0357
756.4342
754.1168
753.6322
755.0829
758.0012
761.4479
764.3422
765.9116
766.0113
765.0436
763.4775
775.5936
770.3744
768.9605
767.9759
767.8893
768.3749
769.2097
770.1969
771.2247
772.2952
773.5276
775.1323
777.3578
780.4187
784.4207
789.2981
794.7826
800.4155
805.6067
809.7366
812.2815
812.9401
811.7316
809.0387
805.5798
802.3043
800.2273
800.229
802.8616
808.2038
815.8016
824.7132
833.6589
841.2482
846.239
847.7736
845.5375
839.8064
831.3704
821.3564
810.9916
801.3626
793.2236
786.888
782.2194
778.7187
775.6884
772.4482
768.5613
764.0161
759.2947
755.2676
752.9034
752.8623
755.1298
758.886
762.7605
765.435
766.3036
765.7433
783.4458
775.7474
772.3301
769.462
767.8511
767.3097
767.6419
768.5659
769.7881
771.0641
772.2552
773.3618
774.5256
775.998
778.0758
781.0176
784.9568
789.8326
795.3575
801.0349
806.23
810.2848
812.6587
813.0628
811.5602
808.6012
804.98
801.7101
799.8393
800.2359
803.3917
809.2874
817.3526
826.5396
835.4992
842.8262
847.323
848.2232
845.3262
839.0149
830.157
819.9169
809.525
800.0516
792.2276
786.3357
782.1863
779.1841
776.4914
773.2797
769.0299
763.7952
758.3011
753.7778
751.507
752.2189
755.6182
760.3501
764.547
766.7651
794.3473
785.3199
780.0344
774.9134
770.9495
768.2505
766.8732
766.6902
767.4415
768.7837
770.3639
771.8939
773.2144
774.3316
775.417
776.7672
778.728
781.5973
785.5277
790.4515
796.0501
801.7796
806.9562
810.887
813.0238
813.1057
811.2561
808.0071
804.236
801.0183
799.423
800.2879
804.025
810.5005
819.0222
828.4426
837.3596
844.3753
848.3546
848.6289
845.102
838.2414
828.9663
818.4643
807.9777
798.5954
791.0727
785.6966
782.2181
779.8872
777.6331
774.4002
769.5789
763.3745
756.9076
751.8969
749.9598
751.8079
756.7669
763.0091
805.302
797.4625
791.5739
785.0727
778.9845
773.7208
769.6849
767.0909
765.9654
766.1418
767.3006
769.0352
770.9356
772.676
774.0845
775.1825
776.1791
777.4207
779.3012
782.1522
786.1345
791.1606
796.8676
802.6555
807.7883
811.5431
813.3765
813.0715
810.8291
807.2755
803.3751
800.26
799.0059
800.4006
804.7576
811.8182
820.7688
830.3748
839.2024
845.8818
849.3519
849.0369
844.9231
837.5317
827.8088
816.9636
806.2817
796.9268
789.7353
785.0187
782.4259
780.9526
779.1839
775.7845
770.1038
762.6319
755.0226
749.5619
748.2255
751.7138
812.3758
808.4001
803.8588
797.9408
791.2867
784.4339
778.0046
772.5437
768.4692
766.0033
765.1465
765.6848
767.2363
769.3306
771.5055
773.4046
774.854
775.9002
776.7981
777.9476
779.7894
782.6807
786.7785
791.9611
797.8085
803.6564
808.7163
812.2423
813.7096
812.9625
810.2945
806.4351
802.4362
799.4763
798.6206
800.5882
805.5799
813.2076
822.5453
832.29
840.999
847.3467
850.3472
849.4993
844.8385
836.9059
826.6592
815.3489
804.3594
795.0012
788.2397
784.397
782.9341
782.4717
781.1677
777.4092
770.5751
761.519
752.4622
746.1122
812.9099
814.082
812.5462
809.3347
804.3919
798.0984
791.0033
783.751
777.0126
771.3856
767.3102
765.0047
764.437
765.3391
767.2645
769.6801
772.077
774.0778
775.5175
776.4788
777.2702
778.3481
780.1962
783.1878
787.4627
792.8503
798.8621
804.7636
809.7163
812.9616
814.0085
812.7788
809.671
805.5222
801.4659
798.7129
798.2997
800.8606
806.4761
814.6333
824.3096
834.1567
842.7426
848.7935
851.3865
850.064
844.8724
836.3447
825.4541
813.5366
802.1496
792.8172
786.6495
783.9231
783.8119
784.482
783.629
779.3352
770.9455
759.505
807.2065
812.4946
814.3943
814.9984
813.5865
810.1481
804.8699
798.1661
790.641
783.0086
775.9981
770.2492
766.2184
764.1108
763.8542
765.1208
767.3971
770.0903
772.6521
774.6946
776.0742
776.9207
777.603
778.6348
780.5368
783.6872
788.1939
793.8237
800.0103
805.9474
810.7525
813.6678
814.2522
812.519
808.9793
804.5751
800.5101
798.0102
798.0662
801.2172
807.4244
816.0634
826.0364
835.9713
844.4584
850.2701
852.5211
850.7606
845.0118
835.7903
824.1131
811.4642
799.6406
790.4096
785.0009
783.5977
785.0593
787.0612
786.7419
781.8405
798.6036
804.986
809.2001
813.014
815.4515
816.0595
814.5491
810.869
805.236
798.1165
790.1764
782.1953
774.958
769.1397
765.2045
763.3354
763.4113
765.0396
767.6389
770.5611
773.2274
775.2522
776.5256
777.2347
777.8138
778.8318
780.838
784.2017
788.984
794.8772
801.2315
807.1719
811.7835
814.3245
814.4197
812.1838
808.2408
803.6287
799.6046
797.3915
797.9223
801.6398
808.3965
817.4765
827.7277
837.7668
846.2041
851.8376
853.7883
851.5812
845.204
835.1733
822.5946
809.1444
796.8702
787.7678
783.2101
783.3726
786.8727
791.0105
791.8369
795.7521
800.1147
805.035
809.8687
813.8863
816.4588
817.0707
815.4196
811.4674
805.4643
797.9305
789.5965
781.3058
773.8943
768.0652
764.2803
762.69
763.1166
765.0978
767.9856
771.083
773.7922
775.7431
776.8724
777.433
777.9268
778.9724
781.1353
784.7607
789.8485
796.0071
802.5031
808.4017
812.7707
814.902
814.4991
811.7818
807.4797
802.7105
798.7658
796.8519
797.8411
802.09
809.3624
818.8712
829.4211
839.6124
848.0541
853.541
855.1776
852.4644
845.3808
834.4826
820.9727
806.671
793.8283
784.7498
781.1812
783.5042
790.6076
789.732
792.0994
795.5623
800.2561
805.4735
810.5581
814.7731
817.4366
818.0088
816.1791
811.9257
805.5388
797.5966
788.8956
780.3413
772.8148
767.0378
763.4588
762.1849
762.9738
765.2908
768.4245
771.6382
774.3282
776.1547
777.1133
777.529
777.9694
779.093
781.4665
785.394
790.8011
797.2081
803.8034
809.6069
813.6879
815.3885
814.4982
811.337
806.7244
801.8369
797.9847
796.3532
797.766
802.5167
810.3041
820.2801
831.1944
841.5989
850.0634
855.3597
856.5958
853.3097
845.5365
833.856
819.4334
804.0836
790.2659
780.6229
795.7369
790.1012
789.3862
789.6472
791.8524
795.5938
800.5043
805.9791
811.2909
815.664
818.3764
818.8645
816.8158
812.232
805.4495
797.109
788.0742
779.3092
771.7326
766.0733
762.7545
761.8291
762.9829
765.6084
768.9362
772.2021
774.8122
776.472
777.2467
777.5365
777.9687
779.228
781.8638
786.1225
791.8461
798.4677
805.1099
810.7665
814.5281
815.7984
814.4513
810.892
806.0063
801.0094
797.2229
795.8253
797.6214
802.8756
811.2386
821.7855
833.1615
843.8066
852.2131
857.1605
857.8728
854.0547
845.8054
833.5307
818.0502
800.8613
804.9207
796.7691
793.3839
790.3278
789.024
789.4833
791.7787
795.7081
800.8441
806.5546
812.0669
816.5602
819.2759
819.6321
817.3216
812.3777
805.1903
796.4667
787.1381
778.2219
770.6648
765.1904
762.1829
761.6303
763.1413
766.0363
769.4978
772.7484
775.2214
776.6823
777.2743
777.472
777.9514
779.4054
782.3471
786.9507
792.9703
799.7607
806.397
811.8694
815.3058
816.174
814.4185
810.5028
805.3522
800.2068
796.4117
795.1754
797.3343
803.1585
812.244
823.5281
835.4514
846.2576
854.3682
858.7118
858.8385
854.7237
846.4175
833.9735
814.1388
806.6722
802.1741
797.2349
793.1225
790.1861
788.8541
789.3773
791.7987
795.9158
801.2757
807.2075
812.8926
817.4654
820.1349
820.3073
817.6899
812.3563
804.7576
795.6719
786.0961
777.0947
769.6306
764.4079
761.7579
761.5933
763.4419
766.5572
770.0853
773.2533
775.539
776.7818
777.2076
777.3587
777.9445
779.6458
782.9208
787.8622
794.1404
801.048
807.6373
812.9155
816.0562
816.5805
814.4743
810.2239
804.7686
799.376
795.4531
794.3042
796.8597
803.4181
813.4694
825.6884
838.1685
848.8979
856.3353
859.7993
859.4079
855.6553
819.818
815.5884
811.7891
807.0832
802.0592
797.1946
793.0179
790.0547
788.7375
789.3384
791.9049
796.2221
801.8074
807.9474
813.7756
818.3836
820.9528
820.8859
817.9144
812.1627
804.1505
794.7297
784.9604
775.9453
768.6498
763.7428
761.4889
761.7165
763.8718
767.1493
770.6744
773.6975
775.7585
776.7805
777.0712
777.2292
777.9773
779.9626
783.5744
788.8226
795.3071
802.2841
808.8084
813.9205
816.8345
817.0967
814.6914
810.088
804.2253
798.4266
794.2305
793.1258
796.1999
803.7666
815.0984
828.4374
841.4012
851.7253
858.0314
860.2304
820.4718
820.3378
818.4198
815.6419
811.7255
807.0669
802.0281
797.1228
792.9085
789.9339
788.6565
789.3626
792.0997
796.6344
802.4491
808.7839
814.723
819.3175
821.7279
821.3628
817.9897
811.7938
803.3712
793.6492
783.7468
774.7932
767.7414
763.2084
761.3785
761.9898
764.4095
767.7852
771.2399
774.0671
775.8836
776.7013
776.9025
777.1237
778.0782
780.3608
784.2842
789.7849
796.4171
803.4304
809.907
814.9241
817.714
817.803
815.122
810.0897
803.6518
797.2455
792.6374
791.5931
795.3916
804.3044
817.2622
831.9508
845.4403
855.2304
816.9456
820.094
820.2242
819.9452
818.3064
815.5254
811.6665
807.0069
801.948
797.0088
792.7717
789.8104
788.604
789.4494
792.3877
797.1609
803.21
809.7245
815.7387
820.2669
822.4561
821.7322
817.9107
811.2491
802.4258
792.4445
782.4751
773.6606
766.9238
762.8135
761.4221
762.3941
765.0255
768.4329
771.7572
774.3542
775.928
776.5776
776.7448
777.0811
778.2669
780.831
785.0129
790.6971
797.4251
804.4718
810.9607
815.9929
818.7774
818.7633
815.7805
810.1832
802.9616
795.7482
790.6269
789.6919
794.4144
805.016
820.147
837.1762
811.3333
816.1761
817.7557
819.4609
820.0855
819.7049
818.1418
815.3879
811.5488
806.8833
801.8009
796.8361
792.5947
789.6756
788.5766
789.6
792.7741
797.8086
804.0969
810.7736
816.8231
821.2276
823.1303
821.9867
817.6735
810.5309
801.3255
791.1347
781.1698
772.5714
766.214
762.5623
761.608
762.9039
765.6863
769.0607
772.2075
774.5604
775.9154
776.4483
776.6392
777.1281
778.5431
781.3425
785.7093
791.5085
798.3059
805.4262
812.031
817.2103
820.0934
819.9987
816.6314
810.3061
802.1187
793.9541
788.2307
787.3716
793.1096
805.8167
805.4268
810.6823
812.9646
815.6847
817.7649
819.2435
819.8756
819.4871
817.943
815.2046
811.3668
806.6847
801.5759
796.5937
792.3687
789.5239
788.5727
789.8168
793.264
798.5834
805.1139
811.9315
817.972
822.1916
823.7406
822.118
817.2752
809.6451
800.0857
789.7431
779.8575
771.5489
765.6252
762.453
761.9188
763.49
766.3601
769.6452
772.5853
774.7023
775.8808
776.3554
776.6176
777.2714
778.8802
781.842
786.3129
792.1795
799.0645
806.3482
813.2019
818.6479
821.6793
821.4604
817.6012
810.4373
801.2019
791.9823
785.3913
783.8687
799.7475
805.0039
807.6154
810.6529
813.3353
815.7386
817.71
819.0872
819.6711
819.2651
817.7181
814.9742
811.1183
806.4055
801.2657
796.274
792.0876
789.3524
788.5928
790.1033
793.8622
799.4893
806.262
813.1948
819.1771
823.1472
824.2753
822.1183
816.7157
808.6016
798.7258
788.2953
778.5635
770.6112
765.1621
762.4744
762.3298
764.1221
767.0218
770.1775
772.9043
774.8155
775.8713
776.3407
776.6987
777.4942
779.2275
782.2615
786.7683
792.6973
799.7452
807.325
814.5576
820.332
823.4758
823.0363
818.6075
810.5881
800.255
789.5182
793.7148
799.2042
802.2357
805.4955
808.439
811.1651
813.6552
815.8641
817.6877
818.9633
819.4867
819.0467
817.475
814.701
810.8033
806.0424
800.8649
795.8718
791.7478
789.16
788.639
790.4635
794.5729
800.5283
807.5389
814.5559
820.4264
824.0808
824.7228
821.9826
815.9999
807.4158
797.2695
786.8172
777.3087
769.7666
764.8164
762.6027
762.8085
764.77
767.6559
770.6655
773.1975
774.9503
775.9392
776.439
776.8833
777.7579
779.5182
782.5336
787.0422
793.0883
800.432
808.46
816.1617
822.2405
825.3766
824.5813
819.5271
810.7284
786.6571
792.5476
796.2201
799.9873
803.3856
806.4509
809.2156
811.7245
814.0032
816.0282
817.7082
818.8817
819.3359
818.8445
817.2231
814.3902
810.423
805.593
800.3697
795.3835
791.3479
788.9484
788.7152
790.9023
795.3993
801.6995
808.938
816.0028
821.7046
824.9775
825.074
821.7117
815.1407
806.1112
795.7454
785.3348
776.1074
769.0119
764.5664
762.8033
763.3183
765.4085
768.2593
771.133
773.5109
775.1617
776.1297
776.6674
777.15
778.0066
779.6817
782.6055
787.1312
793.4106
801.2258
809.8561
818.0814
824.3833
827.3363
826.1262
778.8227
784.6324
788.8476
793.2574
797.3954
801.1533
804.4864
807.4103
809.9874
812.2921
814.3758
816.2331
817.7811
818.8558
819.2329
818.671
816.9716
814.0465
809.9781
805.0558
799.7779
794.8083
790.8895
788.7219
788.8273
791.4244
796.3425
802.998
810.4478
817.5184
822.9927
825.8225
825.3236
821.3138
814.1599
804.7193
794.1859
783.8711
774.965
768.3316
764.3795
763.0367
763.8271
766.0253
768.8462
771.6175
773.8946
775.496
776.4689
777.0206
777.4605
778.18
779.659
782.4444
787.0429
793.7129
802.218
811.6597
820.5323
827.1509
771.6155
776.2119
780.3502
784.9895
789.7268
794.3048
798.5339
802.2935
805.5471
808.3321
810.7353
812.8572
814.7706
816.4838
817.9166
818.8982
819.1908
818.5371
816.7279
813.6738
809.4693
804.43
799.0893
794.1482
790.3777
788.4877
788.9827
792.0347
797.4013
804.4144
812.0507
819.0803
824.2695
826.602
825.4715
820.8054
813.0879
803.276
792.6219
782.4411
773.8746
767.6982
764.2176
763.2693
764.3193
766.6302
769.4489
772.1635
774.3902
775.979
776.9597
777.4791
777.7811
778.2416
779.4155
782.0141
786.7471
794.0225
803.5981
814.4242
766.9077
769.0839
772.2128
776.1595
780.7481
785.6619
790.6132
795.3363
799.6282
803.3716
806.5417
809.1958
811.4447
813.4118
815.1866
816.7849
818.1235
819.02
819.22
818.4514
816.4974
813.2743
808.8973
803.7161
798.3063
793.4088
789.8214
788.2564
789.1906
792.7369
798.571
805.9342
813.7242
820.6629
825.5136
827.307
825.5261
820.2117
811.9608
801.8169
791.0753
781.0439
772.8116
767.0733
764.0447
763.4835
764.8044
767.2563
770.1104
772.8062
775.0138
776.6076
777.5909
778.0398
778.1235
778.1994
778.9211
781.2429
786.2048
794.4605
765.9268
765.1432
766.4951
768.7689
772.1429
776.3781
781.2222
786.3666
791.496
796.3296
800.6582
804.3689
807.4519
809.9856
812.1038
813.9488
815.6218
817.1391
818.4078
819.2284
819.3276
818.419
816.2832
812.8494
808.263
802.9168
797.4347
792.5998
789.2329
788.0407
789.4598
793.5322
799.842
807.5373
815.4415
822.24
826.7085
827.938
825.5079
819.569
810.8188
800.3711
789.5512
779.6567
771.7338
766.4134
763.8368
763.6876
765.3198
767.9509
770.8631
773.5469
775.7389
777.3529
778.3662
778.7544
778.555
778.069
778.0806
779.8171
768.4943
765.2683
764.6705
764.7827
766.1192
768.6229
772.2112
776.6836
781.7564
787.0968
792.3683
797.2773
801.6132
805.2727
808.2643
810.689
812.7022
814.4618
816.0735
817.5469
818.7721
819.5269
819.5164
818.4417
816.0858
812.3999
807.5688
802.0378
796.4848
791.7353
788.6283
787.8543
789.7974
794.4164
801.1976
809.1967
817.1721
823.7875
827.8465
828.5101
825.4528
818.924
809.7023
798.9554
788.0336
778.2355
770.5887
765.6841
763.5976
763.9244
765.9255
768.7563
771.7027
774.3322
776.4954
778.1816
779.323
779.7045
779.1088
777.6542
773.0993
768.7874
766.7705
765.0137
764.1924
764.4425
765.9021
768.5845
772.3833
777.0764
782.3534
787.8569
793.2321
798.1781
802.4887
806.0757
808.97
811.297
813.2324
814.9447
816.5375
818.0055
819.2142
819.9129
819.7834
818.5163
815.9033
811.9262
806.8199
801.0901
795.4731
790.8357
788.0275
787.7114
790.2059
795.3774
802.6113
810.8772
818.8822
825.2856
828.9316
829.0539
825.4112
818.3288
808.644
797.567
786.4827
776.7212
769.3287
764.8789
763.3725
764.2729
766.6929
769.6929
772.5786
775.0614
777.1876
779.0596
780.5206
781.0764
777.7168
773.8358
771.3649
768.67
766.3487
764.641
763.8437
764.1805
765.7809
768.6498
772.66
777.5632
783.0215
788.6543
794.093
799.0351
803.285
806.7762
809.5661
811.8062
813.6905
815.3933
817.009
818.509
819.7263
820.3773
820.1188
818.6337
815.7298
811.4287
806.0247
800.0909
794.4242
789.9286
787.4551
787.6263
790.6836
796.3948
804.0473
812.5368
820.5375
826.7213
829.9807
829.6139
825.4398
817.8296
807.6568
796.1755
784.8362
775.0504
767.9267
764.0306
763.2489
764.8402
767.7011
770.7737
773.4262
775.6127
777.698
780.0101
780.8307
778.3361
776.3372
773.8019
771.0784
768.373
766.0016
764.2888
763.5383
763.983
765.7466
768.818
773.045
778.1502
783.7679
789.4963
794.9578
799.854
804.0074
807.3788
810.0567
812.2197
814.0782
815.8069
817.4836
819.0482
820.295
820.9029
820.5038
818.7775
815.5547
810.9065
805.1944
799.0636
793.3704
789.0492
786.9406
787.6141
791.2251
797.4421
805.4644
814.1329
822.1101
828.0946
831.0253
830.243
825.5912
817.452
806.722
794.7203
783.0165
773.1663
766.3784
763.1978
763.3352
765.76
769.075
772.0589
774.1559
775.6302
782.0645
780.991
779.9443
778.3176
776.1928
773.629
770.8245
768.0503
765.6388
763.9368
763.2592
763.8404
765.7938
769.0869
773.5383
778.8392
784.5955
790.3872
795.8318
800.6418
804.6645
807.8939
810.4534
812.5491
814.4049
816.1905
817.9595
819.6135
820.9022
821.4651
820.9113
818.9225
815.3611
810.3555
804.3405
798.0347
792.3488
788.2368
786.5151
787.6884
791.8217
798.4906
806.8245
815.6333
823.5896
829.4255
832.1113
830.9951
825.9011
817.1925
805.7915
793.1244
780.9463
771.0158
764.6684
762.4169
763.7492
767.2463
771.0614
773.68
782.1331
781.7491
781.5551
780.9559
779.901
778.268
776.0741
773.4233
770.527
767.6826
765.2434
763.5737
762.9973
763.7456
765.9163
769.4509
774.1351
779.6257
785.5012
791.3255
796.7166
801.4044
805.2671
808.3373
810.7754
812.8147
814.6889
816.5563
818.4399
820.1967
821.5284
822.0355
821.3081