/*--------------------------------*- C++ -*----------------------------------*\
| =========                 |                                                 |
| \\      /  F ield         | OpenFOAM: The Open Source CFD Toolbox           |
|  \\    /   O peration     | Version:  2312                                  |
|   \\  /    A nd           | Website:  www.openfoam.com                      |
|    \\/     M anipulation  |                                                 |
\*---------------------------------------------------------------------------*/
FoamFile
{
    version     2.0;
    format      ascii;
    arch        "LSB;label=32;scalar=64";
    class       volScalarField;
    location    "4950";
    object      nut;
}
// * * * * * * * * * * * * * * * * * * * * * * * * * * * * * * * * * * * * * //

dimensions      [0 2 -1 0 0 0 0];

internalField   nonuniform List<scalar> 
12000
(
3.463017e-05
0.0001795884
0.0001955474
0.0002224244
0.0002479583
0.0002401161
0.0002102307
0.000203618
0.0002410032
0.0002690378
0.0002225686
0.0001927759
0.0002177286
0.0002628271
0.0002290004
0.000186026
0.0001978263
0.0002527641
0.0002386674
0.0001858604
0.0001842227
0.0002304672
0.0002380451
0.0001920297
0.0001816535
0.0002095539
0.0002217592
0.0001976798
0.000187807
0.0001960201
0.0002008292
0.0002013025
0.0001998961
0.0001926594
0.0001836785
0.0001821613
0.0002009877
0.0002239467
0.0002021349
0.0001640619
0.0001562422
0.0001970184
0.0002630781
0.0002023264
0.000139186
0.0001371987
0.0002055206
0.0003166866
0.0001688001
0.0001167706
0.0001505465
0.0002390399
0.0001732674
0.0001179941
0.0001300985
0.0001401593
0.0001149075
8.781918e-05
7.760415e-05
6.287625e-05
2.105413e-05
0.0002327857
0.0002600548
0.0003049666
0.000352536
0.0003931959
0.0004526765
0.0005234869
0.0005943412
0.0006542066
0.0007310558
0.0008342868
0.0009204874
0.0009819904
0.001066114
0.00118986
0.001293262
0.00134026
0.001408586
0.001544256
0.001668494
0.001709197
0.001752685
0.001878245
0.002009807
0.00205819
0.002088415
0.002177952
0.002280045
0.002331718
0.002362092
0.002391412
0.002419631
0.00245671
0.002483076
0.002488344
0.002460078
0.002418572
0.002415967
0.002415566
0.002391602
0.00229886
0.002186513
0.001716617
0.001838166
0.001997395
0.001828412
0.001672254
0.001165067
0.001465151
0.001302963
0.001122232
0.0009569507
0.0008344133
0.0006793521
0.0005192857
0.0003597907
0.0002184325
0.000111057
6.029425e-05
3.060949e-05
0.0002863191
0.0004003223
0.0004890891
0.0006074783
0.0007366544
0.0008863448
0.00104959
0.001222385
0.001395106
0.001570661
0.001753139
0.001929307
0.002097736
0.00226797
0.002438281
0.002595252
0.002737562
0.002878734
0.003019158
0.003146125
0.003256496
0.003363481
0.003469146
0.003563571
0.003642983
0.003716248
0.003786032
0.003843878
0.003896376
0.003938857
0.003973717
0.004003411
0.004027069
0.00404227
0.004048251
0.004046232
0.004036732
0.004019347
0.003992404
0.003956707
0.003911708
0.003854192
0.003785821
0.003697188
0.003595297
0.003485478
0.003119627
0.00290694
0.002796233
0.002736083
0.002284794
0.002041544
0.001690601
0.001421273
0.001312455
0.0009102882
0.0005032692
0.0001840852
5.948057e-05
3.447335e-05
0.0003198544
0.000499665
0.0006468917
0.000840361
0.001055726
0.001293253
0.001544091
0.001801454
0.002061242
0.002321246
0.002576678
0.002772791
0.003045794
0.003257036
0.003456706
0.003642096
0.003812971
0.003971334
0.004117561
0.004252056
0.0043755
0.004489179
0.004593316
0.004687908
0.004773451
0.004850565
0.004918031
0.004980046
0.005032417
0.005075927
0.005111251
0.005139154
0.005158223
0.005167594
0.00516692
0.00515588
0.005133799
0.00509989
0.005053276
0.004993067
0.004918138
0.004827221
0.004716754
0.004590226
0.004443815
0.004275984
0.004084691
0.00386723
0.003622523
0.00314618
0.00256065
0.002366063
0.00211946
0.00199308
0.001575807
0.001133797
0.0006823429
0.000274564
6.083354e-05
3.493649e-05
0.0003580687
0.0006081505
0.0008200532
0.001082227
0.001369858
0.001676235
0.001992014
0.002308667
0.002620681
0.002922283
0.003213142
0.003490981
0.003749488
0.003985062
0.004200582
0.004400356
0.004584317
0.004754253
0.004910619
0.005054974
0.005188395
0.00531152
0.005424853
0.005528886
0.005623969
0.005710179
0.005786926
0.005856304
0.005915232
0.00596478
0.006005637
0.006037199
0.006058708
0.006069601
0.006069308
0.006057972
0.006034863
0.005999207
0.005950237
0.005887207
0.005809301
0.005715647
0.005604853
0.005475397
0.005326065
0.005155101
0.004959775
0.004739439
0.004217113
0.003637111
0.003556612
0.003350033
0.002987489
0.002558171
0.00204506
0.001469133
0.0008706847
0.0003381198
6.073325e-05
3.579618e-05
0.0003852564
0.0007044637
0.000972563
0.001286404
0.001627378
0.001984488
0.002347128
0.002705202
0.003051514
0.003379794
0.003688865
0.003978581
0.004250316
0.00450486
0.00473946
0.00495619
0.00515818
0.005344267
0.0055159
0.005674502
0.005821221
0.005956912
0.006082217
0.006197578
0.00630323
0.006396458
0.006484218
0.006560819
0.006626703
0.006682306
0.006727008
0.006760674
0.006782689
0.006792543
0.006789284
0.006772857
0.00674251
0.006697607
0.006637294
0.006560677
0.00646678
0.006354503
0.006222619
0.006069778
0.005891939
0.005691519
0.005466171
0.005212242
0.004922192
0.004589229
0.004210936
0.003790044
0.003325118
0.002812015
0.002248366
0.001639196
0.001002702
0.0004079465
6.116731e-05
3.704094e-05
0.0003974273
0.0007862921
0.001104374
0.001456738
0.00183369
0.002221885
0.002610091
0.002989563
0.003355269
0.003703732
0.004033802
0.004346254
0.004636353
0.004906105
0.005156873
0.005388608
0.005601743
0.005800973
0.005987235
0.006161169
0.006323432
0.006474536
0.006614812
0.006744412
0.006863331
0.006970924
0.00706879
0.007154839
0.007228784
0.007290762
0.007340149
0.007377018
0.007400577
0.007410271
0.007405565
0.007386106
0.007351102
0.007300033
0.007232337
0.007147346
0.007044265
0.006922121
0.006779776
0.006615682
0.006428797
0.006215998
0.005977147
0.005703891
0.005392113
0.005039479
0.004643024
0.004197916
0.003698486
0.00313988
0.00251964
0.001840987
0.001125454
0.0004567488
6.127588e-05
3.809483e-05
0.000408028
0.0008523966
0.001213058
0.001590515
0.001986491
0.002391915
0.002798642
0.00319989
0.003584633
0.00395008
0.004294201
0.004615271
0.004917202
0.005199606
0.005464589
0.005713944
0.005947776
0.006167081
0.006372922
0.006566138
0.006747379
0.006916959
0.007074765
0.007220557
0.007351347
0.007472545
0.007581678
0.007678269
0.007761806
0.007831384
0.007886458
0.007927293
0.007952956
0.007962793
0.007956285
0.007932947
0.007892251
0.007833684
0.007756698
0.007660686
0.007544931
0.007408581
0.007250426
0.00706928
0.006863689
0.006629424
0.006364665
0.006065071
0.00572769
0.005348811
0.004924316
0.00444936
0.003919271
0.003329979
0.00267926
0.001970009
0.001220361
0.0005071986
6.148797e-05
4.060148e-05
0.0004134851
0.0008980721
0.001295314
0.001691865
0.002105344
0.002525621
0.002942995
0.003348732
0.003741388
0.004116749
0.004472908
0.004809479
0.00512735
0.00542733
0.005710436
0.005978707
0.006233616
0.006475236
0.006702999
0.006916621
0.007115681
0.007301592
0.007475898
0.007638163
0.007787314
0.007925269
0.008048473
0.008156709
0.008249567
0.008326529
0.008387226
0.008431689
0.008459012
0.008468503
0.008459617
0.008431872
0.008384799
0.008317915
0.00823067
0.008122612
0.007993358
0.007842471
0.00766961
0.007471147
0.007246165
0.006992403
0.00670883
0.006391999
0.00603795
0.005640984
0.005198009
0.004702231
0.004147956
0.003529786
0.002844406
0.002094405
0.001299706
0.0005427219
6.155866e-05
3.967889e-05
0.0004346811
0.0009357459
0.001361879
0.001776194
0.002195534
0.002619385
0.003040421
0.003452612
0.003852416
0.004237116
0.004605286
0.00495658
0.005291384
0.005610401
0.005914475
0.006203059
0.006476076
0.006733941
0.006980186
0.007214645
0.007437599
0.007647699
0.007843464
0.008022214
0.008189302
0.008340997
0.008476656
0.008595684
0.008697492
0.008781489
0.008847278
0.008894664
0.008922801
0.008931026
0.0089188
0.008885688
0.008831349
0.008755543
0.008656627
0.008534176
0.008388025
0.008217591
0.008022076
0.007803614
0.007559227
0.007286902
0.006984093
0.006647773
0.00627479
0.005862021
0.005400501
0.004882955
0.004306526
0.003665665
0.002957324
0.002184007
0.001364115
0.0005771487
6.162795e-05
3.906867e-05
0.0004338638
0.0009516689
0.001403871
0.001829791
0.002254653
0.002681091
0.003104918
0.003521542
0.003927588
0.00432087
0.004700237
0.005065269
0.005415933
0.005752335
0.006072607
0.006379775
0.006674971
0.00695897
0.007229338
0.007486253
0.007729441
0.007958269
0.008172021
0.008368574
0.008550663
0.008715778
0.008863211
0.008992267
0.009102273
0.009192577
0.009262717
0.009312268
0.009340329
0.009346207
0.009329305
0.009289094
0.009225087
0.009136812
0.009025406
0.008890552
0.008731412
0.008547391
0.008337797
0.008101737
0.007836976
0.007545306
0.007223551
0.006869134
0.006478208
0.006045615
0.005566399
0.00503652
0.004444156
0.003784928
0.003055475
0.002258225
0.001412586
0.0006005869
6.162049e-05
4.440661e-05
0.0004110809
0.0009522899
0.001434739
0.00187579
0.002305409
0.002732219
0.003155704
0.003573266
0.003982566
0.004381992
0.004770546
0.005147661
0.005512968
0.00586501
0.006206281
0.00653484
0.006850671
0.00715365
0.007443293
0.007719129
0.007980368
0.00822642
0.008456562
0.008669285
0.008865341
0.009043018
0.009201424
0.009339716
0.009457091
0.009552771
0.009626095
0.009676545
0.009703615
0.009706823
0.009685688
0.00963975
0.009568582
0.009471787
0.009348982
0.009199907
0.009024394
0.008822302
0.00859342
0.008337492
0.008053498
0.007742549
0.007402725
0.00703229
0.006627898
0.006183999
0.005693429
0.005148467
0.004543791
0.003870568
0.003126776
0.002314549
0.001452731
0.0006222578
6.161464e-05
4.3904e-05
0.000411013
0.000947192
0.001444173
0.00189578
0.0023288
0.002755526
0.0031788
0.003597949
0.004011423
0.004417605
0.004815209
0.005203187
0.005580412
0.005946266
0.006298314
0.006558476
0.006767172
0.007090272
0.00745517
0.007862596
0.008184961
0.008450103
0.008697733
0.008926583
0.009136189
0.009325214
0.009492724
0.009638121
0.009760802
0.009860156
0.009935665
0.009986786
0.01001281
0.01001314
0.009987233
0.009934641
0.009854974
0.009747921
0.00961325
0.009450801
0.009260485
0.009042226
0.008795922
0.008521588
0.008219223
0.007878748
0.007473563
0.007120901
0.006732266
0.006280964
0.005783997
0.005232529
0.004618278
0.003936248
0.003181057
0.002355451
0.00147933
0.0006354348
6.156959e-05
4.408513e-05
0.0004018951
0.0009358894
0.001446232
0.001907746
0.002345176
0.002772622
0.003195325
0.003614166
0.004028411
0.004436837
0.004837898
0.005229319
0.005607518
0.005777871
0.005886534
0.006030941
0.006250615
0.006563132
0.006940783
0.00733881
0.007677557
0.0080227
0.008373123
0.008729198
0.009116285
0.009515303
0.009723355
0.009875031
0.01000299
0.01010624
0.01018401
0.01023567
0.01026056
0.01025808
0.01022772
0.01016907
0.01008182
0.009965753
0.009820715
0.009646589
0.009443453
0.00921166
0.008870399
0.008425555
0.007990104
0.007567875
0.007207052
0.0069535
0.006729393
0.006342361
0.00584492
0.005291244
0.004673243
0.003984339
0.003221305
0.002387077
0.001501524
0.0006472592
6.155522e-05
4.485066e-05
0.0003909923
0.0009186459
0.001436892
0.001909603
0.002353205
0.002782736
0.003205446
0.00362377
0.004037708
0.004445944
0.004846042
0.005234404
0.005411386
0.005540979
0.005710484
0.005905367
0.006126586
0.006348427
0.006610434
0.006911599
0.007277897
0.007661384
0.008053707
0.008457708
0.008826115
0.00916354
0.009483866
0.00979598
0.01009098
0.0102898
0.01036969
0.01042207
0.01044618
0.01044143
0.01040733
0.01034353
0.01024981
0.01012612
0.009972606
0.009692758
0.00935756
0.008986937
0.008578061
0.008127062
0.007682523
0.007301079
0.006988636
0.006735991
0.006545697
0.006358668
0.005885031
0.005330975
0.004710374
0.004017257
0.003248476
0.002407253
0.001514191
0.0006532057
6.148927e-05
4.568754e-05
0.0003807895
0.0009003617
0.001425038
0.001905964
0.002354887
0.002786465
0.003209123
0.003626322
0.004038559
0.004444553
0.004841827
0.005169165
0.005357714
0.005520932
0.005666827
0.005829091
0.006015311
0.006241002
0.006521343
0.006835498
0.007165057
0.007507058
0.007860386
0.00821911
0.008583098
0.008924366
0.009230557
0.009504777
0.009761156
0.01001531
0.01028403
0.01036692
0.01029147
0.01025021
0.01019234
0.01010525
0.009981436
0.009817824
0.009611593
0.009359205
0.00906018
0.008716849
0.008334347
0.007924824
0.00750738
0.007104363
0.006768639
0.006546921
0.006424685
0.006297516
0.00591117
0.005358147
0.004736633
0.004041111
0.003268724
0.002423075
0.001524971
0.0006583556
6.145088e-05
4.64275e-05
0.0003718736
0.0008813059
0.001407651
0.001894251
0.002348813
0.002783239
0.003206173
0.003621906
0.004031683
0.004434843
0.00482949
0.005200551
0.005379773
0.005499413
0.005622028
0.00577815
0.005981211
0.006232031
0.006493734
0.006785372
0.007091661
0.00742259
0.007766537
0.008110898
0.008442504
0.008749964
0.009028202
0.009279454
0.009514095
0.009755234
0.01004897
0.0101518
0.01005006
0.009979755
0.009915216
0.009833369
0.009722246
0.009573548
0.009380099
0.009137624
0.008847059
0.008513194
0.008142475
0.007747627
0.007351369
0.006983075
0.006671594
0.006438942
0.006299848
0.006196026
0.005929088
0.005377991
0.004756131
0.00405857
0.003283204
0.002434334
0.00153216
0.0006611907
6.138786e-05
4.703752e-05
0.0003645925
0.0008629807
0.001388949
0.001881341
0.002340143
0.002776509
0.003199358
0.003613394
0.004020448
0.00442039
0.004811736
0.005155035
0.005342267
0.005483083
0.005627638
0.005795481
0.005989629
0.006211579
0.006477939
0.006778177
0.00709897
0.007410639
0.007730631
0.008050095
0.008359451
0.008647459
0.008906578
0.009137741
0.009354993
0.009594095
0.009924986
0.01007067
0.009955825
0.009857807
0.009774804
0.00968565
0.009571836
0.009421423
0.009227723
0.008987639
0.008701385
0.008372485
0.008008081
0.007620415
0.007228541
0.006859305
0.006546489
0.006322932
0.006200703
0.006131083
0.005939215
0.00538963
0.004767986
0.004069684
0.00329286
0.002441381
0.001537251
0.0006634314
6.133335e-05
4.756984e-05
0.0003582397
0.0008461875
0.001369248
0.001863908
0.002325787
0.002765042
0.003188539
0.003601368
0.00400598
0.004402816
0.004790866
0.005146346
0.005342817
0.005489881
0.005637288
0.005807897
0.006011279
0.006249511
0.006520443
0.006805211
0.007109474
0.007428039
0.007749192
0.008063846
0.008363509
0.008639895
0.008888698
0.009112787
0.009323915
0.00954133
0.009784739
0.01005163
0.01004296
0.009836595
0.009717762
0.009616963
0.009497306
0.009341413
0.009141753
0.008896061
0.008605715
0.008275215
0.007912455
0.007529885
0.007145736
0.006784069
0.006474133
0.00624565
0.006115253
0.006052335
0.005917398
0.005395071
0.004773705
0.004074493
0.003296172
0.00244365
0.001538161
0.000663775
6.128086e-05
4.799267e-05
0.0003534626
0.000831136
0.001349614
0.001845574
0.002311139
0.002751693
0.003175438
0.003587286
0.003989941
0.004384364
0.0047702
0.005146245
0.005376318
0.005544553
0.005709023
0.00589144
0.006100672
0.006338206
0.006599645
0.006888381
0.0071942
0.007512511
0.007826216
0.008131281
0.008419829
0.008684316
0.008920553
0.00913156
0.009330017
0.009536674
0.009772185
0.01005037
0.01006908
0.009858445
0.009713112
0.00958663
0.009448813
0.009280673
0.009072368
0.008820679
0.008526947
0.008195902
0.007835485
0.007457558
0.007079113
0.006722893
0.006417823
0.006194274
0.006070425
0.006018587
0.005900536
0.005398756
0.004777661
0.004078085
0.003299119
0.002445814
0.001539504
0.0006646966
6.122757e-05
4.840634e-05
0.0003498982
0.000818318
0.001331816
0.001827245
0.002294285
0.002736763
0.003161019
0.003572294
0.003973666
0.00436661
0.004751418
0.005127035
0.005438564
0.005633537
0.005812281
0.006004526
0.006220506
0.00646292
0.006729434
0.007016183
0.007316307
0.007623725
0.007929789
0.008226592
0.008505287
0.008758536
0.008982128
0.009178125
0.009357779
0.009542852
0.009763848
0.01005746
0.01010419
0.009888916
0.009717602
0.00956609
0.009409773
0.009228722
0.009011263
0.008753224
0.008455828
0.008124001
0.007765738
0.007392494
0.007020248
0.006670101
0.006369401
0.006147792
0.006024731
0.005976863
0.005871994
0.005399062
0.00477838
0.004078463
0.00329889
0.002445111
0.001539251
0.0006642861
6.116027e-05
4.871303e-05
0.000347467
0.0008072677
0.0013148
0.00180899
0.002276951
0.002720782
0.003145901
0.003557233
0.00395815
0.004350574
0.004735317
0.005112975
0.005482232
0.005748818
0.005949466
0.00615447
0.006377756
0.006622023
0.006887103
0.007168519
0.007462917
0.007762967
0.008061278
0.008347044
0.008613204
0.00885309
0.009062492
0.009242551
0.009403332
0.009567156
0.00976968
0.01005759
0.01012321
0.009916028
0.009727858
0.009555532
0.009380917
0.009186003
0.008958876
0.008694657
0.008394133
0.008062047
0.007706172
0.007337454
0.006971033
0.006626918
0.00633162
0.00611437
0.005994971
0.005951631
0.005855391
0.005399089
0.004778421
0.004078045
0.003297919
0.002443947
0.001538176
0.0006639613
6.111437e-05
4.909364e-05
0.0003470205
0.0007993435
0.001300656
0.001792557
0.002260386
0.002705034
0.003130995
0.003542822
0.003943965
0.004336639
0.004722051
0.005100711
0.005473558
0.005840667
0.006113013
0.006330172
0.006559651
0.006807516
0.007070642
0.007346302
0.007633051
0.007923694
0.008209775
0.00848265
0.008735723
0.008962642
0.009159145
0.009324953
0.00946637
0.009600754
0.009765934
0.01003651
0.01017725
0.009984529
0.009733039
0.009541066
0.009355803
0.009151114
0.008915266
0.008644609
0.008340524
0.008007819
0.007654009
0.007289508
0.006928661
0.006590427
0.006300408
0.006087267
0.005970946
0.005930952
0.005841227
0.00539796
0.004777166
0.004076318
0.003295745
0.002441855
0.001536551
0.0006630536
6.105175e-05
4.940397e-05
0.0003465225
0.0007926715
0.001288205
0.001777129
0.002244724
0.002690073
0.003116987
0.003529705
0.003931679
0.004325339
0.004712232
0.005093282
0.005469069
0.005839764
0.006205447
0.006537435
0.006770822
0.007010843
0.007272465
0.007547924
0.007827416
0.008105334
0.008375845
0.008634557
0.008873878
0.009087132
0.009270242
0.009423984
0.009555839
0.00968047
0.009816986
0.009979134
0.01014794
0.0100576
0.009775132
0.009550913
0.009342615
0.009122951
0.008877346
0.008600534
0.00829331
0.007960247
0.007608562
0.007248162
0.006892692
0.00656027
0.006275801
0.006067464
0.005955077
0.005918591
0.005833255
0.00539701
0.004775796
0.004074336
0.003293346
0.002439266
0.001534507
0.0006621631
6.102111e-05
4.948052e-05
0.0003485615
0.0007894874
0.001278574
0.001764074
0.002230559
0.002676403
0.00310437
0.003518322
0.003921637
0.004316867
0.004705774
0.005089499
0.005468737
0.005843857
0.006215033
0.006582293
0.006945131
0.007258665
0.007506585
0.007763036
0.008033073
0.008303543
0.008563517
0.008807736
0.009032132
0.00923081
0.009399415
0.009537978
0.00965317
0.009758913
0.009872429
0.0100033
0.01015209
0.01007578
0.009800815
0.009563432
0.009337022
0.009101874
0.008845343
0.008561857
0.008251494
0.007918216
0.007568706
0.007212288
0.006861962
0.006535149
0.006256179
0.006052802
0.005944602
0.005911541
0.00582923
0.005396179
0.004774285
0.004072035
0.003290484
0.002436383
0.001532275
0.0006610676
6.097749e-05
4.961449e-05
0.0003508594
0.000786359
0.001270298
0.001752996
0.002218785
0.00266481
0.003093799
0.003509215
0.003914294
0.004311617
0.00470306
0.005089886
0.005472873
0.005852413
0.00622857
0.006601084
0.006969322
0.007332293
0.007688545
0.008015211
0.008267572
0.008511848
0.008756243
0.008986545
0.009198956
0.009383671
0.009537886
0.009661678
0.009759687
0.009842043
0.009924204
0.01002648
0.01016135
0.01009316
0.009824613
0.009575287
0.009332753
0.009083719
0.00881729
0.008527788
0.00821473
0.007881497
0.007534208
0.007181622
0.006836177
0.006514765
0.00624128
0.006043117
0.005939547
0.005910132
0.005829796
0.005396008
0.00477315
0.00406991
0.003287651
0.0024334
0.001529894
0.0006599519
6.09608e-05
5.17446e-05
0.0003466284
0.0007835859
0.001264027
0.001744046
0.002208575
0.002655233
0.003085564
0.003502827
0.003910163
0.004310149
0.004704711
0.00509517
0.005482329
0.005866545
0.006247772
0.006625572
0.006999126
0.007367227
0.007728282
0.008080358
0.008421203
0.008748099
0.008972487
0.009180044
0.009375722
0.009547271
0.00968723
0.009795094
0.009875602
0.009937697
0.009995012
0.01006488
0.01016865
0.01010054
0.009842854
0.00958607
0.009330596
0.009069269
0.008793609
0.008498387
0.008182795
0.00784967
0.007504547
0.007155615
0.006814803
0.006498588
0.006230526
0.00603771
0.005939015
0.005913243
0.005833882
0.005396619
0.004772588
0.004068212
0.003285146
0.002430678
0.001527668
0.0006588453
6.093729e-05
5.410837e-05
0.0003491045
0.0007798613
0.001260667
0.001737585
0.002201154
0.002648198
0.003080082
0.003499624
0.003909795
0.00431311
0.004711488
0.005106254
0.005498189
0.005887581
0.00627426
0.006657625
0.007036661
0.007409964
0.007775756
0.008131935
0.008476114
0.00880558
0.009117688
0.009407469
0.009584417
0.009727884
0.009847678
0.009939313
0.01000254
0.01004298
0.01007092
0.01010435
0.01017501
0.01012584
0.009875821
0.009591559
0.009324785
0.009055588
0.008773264
0.008473301
0.008155463
0.007822489
0.007479431
0.007133934
0.006797475
0.006486242
0.006223528
0.006036144
0.005942476
0.005920276
0.005841105
0.005398721
0.004772912
0.004067097
0.003282963
0.00242808
0.00152542
0.000657694
6.093953e-05
5.537734e-05
0.0003545921
0.0007676617
0.001260248
0.001733922
0.002196516
0.002644239
0.00307796
0.003500261
0.003913906
0.0043213
0.004724305
0.00512419
0.005521658
0.005916885
0.006309543
0.006698844
0.007083568
0.007462099
0.007832466
0.008192403
0.008539345
0.008870693
0.0091836
0.009475559
0.009743147
0.009917823
0.01002022
0.01009148
0.01013765
0.01016209
0.01017137
0.01017097
0.01015867
0.01011653
0.00991566
0.00960775
0.009324313
0.009044206
0.008754817
0.008450724
0.008131324
0.007799022
0.007458392
0.007116511
0.006784386
0.006477997
0.006220487
0.006038484
0.00594989
0.005931165
0.005851289
0.00540133
0.004774248
0.004066877
0.003281679
0.002426148
0.001523582
0.0006566981
6.093639e-05
5.558874e-05
0.0003594917
0.0007569865
0.001261418
0.001731791
0.002193796
0.002642715
0.003079042
0.003504952
0.003922983
0.004335416
0.004744016
0.005149951
0.0055538
0.005955577
0.006354769
0.006750376
0.007140964
0.007524713
0.007899469
0.008262684
0.008611924
0.008944412
0.009257332
0.009548354
0.009813918
0.01005193
0.01020315
0.01026414
0.01028945
0.01029172
0.01027602
0.01024546
0.01019706
0.0101251
0.009923016
0.009619351
0.009328046
0.009038265
0.008741544
0.008433353
0.008112716
0.007781215
0.007442585
0.00710343
0.006774776
0.006472729
0.006220311
0.006043858
0.005960717
0.00594573
0.005864727
0.005405333
0.004776313
0.004067431
0.003280911
0.002424643
0.001521927
0.000655728
6.09451e-05
5.5534e-05
0.0003642708
0.0007480798
0.001246334
0.001733444
0.00219466
0.002645173
0.003084798
0.003514788
0.003937959
0.004356346
0.004771505
0.005184424
0.005595491
0.006004512
0.00641075
0.006812981
0.007209563
0.007598337
0.007976765
0.008342808
0.008693631
0.009026462
0.009338659
0.009627334
0.009889977
0.01012425
0.01032805
0.01045395
0.01047008
0.0104466
0.01040011
0.01033367
0.01024964
0.01014752
0.00993593
0.009633357
0.009335253
0.009037259
0.008734004
0.008421723
0.008099189
0.007768021
0.007431886
0.007096537
0.006772048
0.006474201
0.006226329
0.006054463
0.005975936
0.005963889
0.005881269
0.005411009
0.00477985
0.004069158
0.003281054
0.002423809
0.001520834
0.0006549882
6.095335e-05
5.605849e-05
0.0003688271
0.0007404355
0.001231548
0.001737162
0.002198153
0.00265079
0.003093971
0.003529785
0.003959223
0.004384643
0.004807458
0.005228416
0.005647653
0.006064661
0.006478339
0.006887069
0.007288736
0.007681792
0.008063919
0.00843214
0.008783747
0.009116008
0.009426453
0.009712105
0.00997077
0.01020029
0.01039877
0.01056462
0.01064067
0.01061112
0.01053959
0.01044171
0.01032071
0.01017938
0.009951606
0.009650504
0.009347843
0.009043303
0.008734563
0.008419991
0.00809854
0.007770051
0.007434568
0.007098504
0.006774349
0.006479779
0.006236
0.00606989
0.005997541
0.005990166
0.005904277
0.005417999
0.004784399
0.004071527
0.003281854
0.002423461
0.001519931
0.0006542735
6.097769e-05
5.632053e-05
0.0003738065
0.0007340712
0.001217992
0.001744423
0.002205759
0.002660943
0.003108908
0.003550609
0.00398805
0.004422272
0.004853881
0.005283443
0.005710648
0.006135033
0.00655563
0.006970771
0.007378552
0.007776122
0.008160995
0.008530498
0.008881928
0.00921262
0.00952022
0.009801904
0.01005568
0.01027962
0.01047206
0.01063166
0.01075737
0.01077402
0.0106914
0.01056355
0.01040547
0.01022266
0.009973664
0.00966968
0.009361249
0.00905178
0.008740106
0.008423167
0.008097008
0.007763417
0.007429172
0.007100358
0.006783397
0.006492374
0.006251576
0.006088433
0.006017988
0.006011039
0.005923346
0.005426148
0.004790154
0.00407512
0.003283664
0.002423944
0.001519661
0.0006539709
6.101084e-05
5.703411e-05
0.0003784529
0.0007288758
0.001206203
0.001752959
0.002215776
0.00267472
0.003128403
0.003577339
0.004022636
0.004465275
0.004906187
0.005345337
0.005782373
0.006216051
0.006644681
0.007066428
0.007479076
0.007880103
0.008266877
0.008636727
0.008987011
0.009315237
0.009618896
0.009895794
0.01014396
0.01036169
0.01054757
0.01070049
0.01081964
0.01090449
0.01083905
0.01069131
0.01049878
0.01027346
0.009999965
0.009690602
0.009375966
0.009058893
0.008738952
0.008415042
0.008090271
0.007763133
0.007434338
0.007106913
0.006791305
0.006503033
0.006265802
0.006104386
0.006036366
0.006031985
0.005942525
0.005435517
0.004796973
0.004079629
0.003286295
0.002424863
0.001519571
0.0006536062
6.103898e-05
5.718912e-05
0.000383787
0.0007257776
0.001197802
0.001764388
0.002229975
0.0026938
0.003154265
0.003611548
0.00406636
0.00451931
0.004970631
0.005419977
0.005866458
0.006308643
0.006744674
0.007172386
0.007589362
0.007993026
0.008380752
0.008749949
0.009098095
0.009422844
0.009721872
0.00999322
0.01023514
0.01044617
0.01062512
0.01077111
0.01088353
0.01096204
0.01097256
0.01082341
0.01060213
0.01033538
0.01003379
0.009712868
0.009387736
0.009064739
0.008744779
0.008425099
0.008102349
0.007775332
0.007444873
0.007116186
0.006800031
0.00651366
0.006280173
0.006126524
0.006066133
0.006063409
0.005967635
0.005446425
0.004805047
0.004085135
0.003289545
0.00242657
0.001520165
0.0006536938
6.108e-05
5.766986e-05
0.0003885742
0.0007230704
0.001188775
0.001777338
0.002246533
0.002716303
0.003184806
0.003651768
0.004117336
0.004581546
0.005044061
0.005504058
0.005960236
0.006410859
0.006853843
0.00728685
0.007707379
0.008112857
0.008500723
0.008868479
0.00921375
0.009534306
0.00982812
0.01009342
0.01032871
0.01053275
0.01070461
0.0108436
0.01094933
0.01102159
0.01106044
0.01093641
0.01070498
0.01040627
0.01007163
0.009735217
0.009404344
0.009080743
0.008760753
0.008440667
0.008116239
0.007788107
0.007457869
0.007131088
0.006817072
0.00653234
0.006300479
0.006148076
0.006090054
0.006092196
0.005996423
0.005458239
0.004813956
0.004091463
0.003293636
0.002428817
0.001521014
0.0006538287
6.110136e-05
5.929321e-05
0.000392819
0.0007234623
0.0011847
0.001786474
0.002268174
0.002745555
0.003223619
0.00370145
0.004178602
0.004654543
0.005128409
0.005598925
0.006064421
0.006522884
0.006972048
0.007409476
0.007832655
0.008239055
0.008626201
0.008991654
0.0093333
0.009649052
0.009937119
0.01019597
0.01042435
0.01062126
0.01078599
0.01091805
0.01101722
0.01108344
0.01111685
0.01103779
0.01080937
0.01048673
0.01012185
0.009769681
0.009431619
0.009103613
0.008781211
0.008459744
0.008136172
0.007808745
0.007478738
0.007151421
0.006837214
0.00655331
0.006323753
0.006175012
0.006120582
0.00612282
0.006021221
0.005471181
0.00482384
0.004098571
0.003298305
0.002431439
0.001522189
0.0006542589
6.114832e-05
5.754034e-05
0.0004048196
0.0007241091
0.001180655
0.001785696
0.002292435
0.002777793
0.003266037
0.003755463
0.004244892
0.00473313
0.005218743
0.005699988
0.006174835
0.006641019
0.007096115
0.007537619
0.007963008
0.008369804
0.008755642
0.009118244
0.009455723
0.009766226
0.01004821
0.0103004
0.01052178
0.01071158
0.01086929
0.01099461
0.01108747
0.01114793
0.01117622
0.01114216
0.01091772
0.01057407
0.0101801
0.009810467
0.009463882
0.0091329
0.008809593
0.008487629
0.008163033
0.007834453
0.007503483
0.007175585
0.006861251
0.006577855
0.006349754
0.006203668
0.006152865
0.006157784
0.006052926
0.00548538
0.00483485
0.004106724
0.003303942
0.002434992
0.001523678
0.0006544624
6.118478e-05
5.652817e-05
0.0004105873
0.0007253717
0.001176529
0.001782871
0.002320249
0.002814875
0.003314408
0.003816367
0.004318793
0.004819788
0.005317335
0.005809234
0.006293127
0.006766535
0.00722692
0.007671746
0.008098533
0.008504915
0.008888691
0.009247832
0.009580625
0.009885497
0.01016116
0.01040657
0.01062094
0.01080372
0.01095459
0.01107342
0.01116023
0.0112152
0.01123862
0.01123083
0.01101077
0.01065088
0.01023429
0.009850955
0.009497522
0.009163654
0.008839174
0.008516568
0.008191363
0.007862009
0.007530036
0.007201094
0.006886046
0.006602735
0.006375914
0.006232332
0.00618438
0.006189527
0.006075607
0.005499998
0.004846391
0.004115419
0.003309986
0.002438581
0.001525605
0.0006551199
6.124763e-05
5.778515e-05
0.0004078224
0.0007279002
0.001174138
0.001782807
0.002351739
0.002856897
0.003368718
0.003883941
0.004399819
0.004913754
0.005423158
0.00592541
0.006417862
0.006897865
0.007362821
0.007810222
0.008237693
0.008643036
0.009023978
0.009379269
0.009707094
0.01000616
0.01027544
0.01051411
0.01072162
0.0108976
0.01104189
0.01115449
0.01123554
0.01128527
0.01130402
0.01129214
0.01108657
0.01071907
0.01028479
0.00989079
0.009532507
0.009197129
0.008872369
0.008549463
0.008223483
0.007892896
0.007559441
0.007229041
0.006912901
0.006629306
0.006403505
0.00626245
0.006217375
0.006221424
0.0060942
0.005515293
0.004858567
0.004124676
0.00331657
0.002442794
0.001527753
0.0006558355
6.128963e-05
6.032202e-05
0.0004122358
0.0007322129
0.001173016
0.00178365
0.002386715
0.002903308
0.003428205
0.003957252
0.004486877
0.005013789
0.005534861
0.006047089
0.006547582
0.007033578
0.007502467
0.007951811
0.008379371
0.008783128
0.009161046
0.009512108
0.009834755
0.01012794
0.01039085
0.01062291
0.01082375
0.01099318
0.01113117
0.01123784
0.0113134
0.01135817
0.01137248
0.01135671
0.01115453
0.01078051
0.01033425
0.00993342
0.009572103
0.009235652
0.008910328