/*--------------------------------*- C++ -*----------------------------------*\
| =========                 |                                                 |
| \\      /  F ield         | OpenFOAM: The Open Source CFD Toolbox           |
|  \\    /   O peration     | Version:  2312                                  |
|   \\  /    A nd           | Website:  www.openfoam.com                      |
|    \\/     M anipulation  |                                                 |
\*---------------------------------------------------------------------------*/
FoamFile
{
    version     2.0;
    format      ascii;
    arch        "LSB;label=32;scalar=64";
    class       volScalarField;
    location    "4950";
    object      qin;
}
// * * * * * * * * * * * * * * * * * * * * * * * * * * * * * * * * * * * * * //

dimensions      [1 0 -3 0 0 0 0];

internalField   uniform 0;

boundaryField
{
    plate
    {
        type            calculated;
        value           nonuniform List<scalar> 
200
(
2391.947
2336.621
2304.676
2281.094
2257.934
2239.681
2234.413
2242.543
2256.521
2269.688
2278.575
2279.649
2271.098
2257.028
2244.809
2239
2240.906
2251.723
2271.831
2297.423
2320.732
2334.545
2336.87
2332.722
2331.343
2339.233
2354.954
2372.171
2387.059
2399.783
2409.62
2413.604
2411.592
2408.455
2408.314
2409.869
2411.043
2415.056
2426.508
2443.013
2456.263
2460.915
2458.16
2451.78
2445.067
2440.948
2441.394
2446.093
2452.776
2458.672
2462.112
2464.375
2469.391
2479.177
2489.846
2494.831
2491.817
2483.877
2474.897
2467.552
2464.793
2468.718
2477.448
2486.185
2491.277
2491.421
2486.949
2480.433
2475.86
2474.954
2476.205
2478.456
2482.375
2487.287
2489.857
2487.755
2482.448
2476.859
2472.054
2467.716
2464.327
2462.755
2462.177
2460.368
2456.512
2452.62
2451.564
2454.18
2458.594
2461.932
2462.37
2459.99
2456.432
2453.977
2454.494
2458.583
2465.268
2472.496
2478.195
2481.299
2482.123
2481.917
2481.93
2482.596
2483.345
2483.075
2480.958
2477.065
2472.456
2468.702
2467.097
2468.002
2470.688
2473.742
2475.805
2476.219
2475.251
2473.839
2473.037
2473.504
2475.285
2477.934
2480.849
2483.596
2486.054
2488.344
2490.622
2492.877
2494.878
2496.266
2496.751
2496.272
2495.056
2493.53
2492.161
2491.273
2490.951
2491.032
2491.196
2491.109
2490.563
2489.576
2488.42
2487.568
2487.554
2488.766
2491.245
2494.553
2497.806
2499.879
2499.75
2496.858
2491.36
2484.149
2476.618
2470.219
2465.946
2463.915
2463.221
2462.219
2459.218
2453.386
2445.469
2437.885
2433.965
2436.545
2446.501
2461.995
2478.905
2492.36
2498.688
2496.919
2489.195
2479.932
2474.031
2474.749
2481.992
2491.74
2497.146
2491.469
2472.188
2444.326
2420.063
2413.135
2430.587
2467.951
2512.044
2548.932
2570.037
2572.663
2558.147
2532.537
2509.461
2509.569
2550.899
2632.557
2728.682
2809.367
2887.265
3024.12
)
;
    }
    riser
    {
        type            calculated;
        value           nonuniform List<scalar> 
200
(
5342.15
5174.119
5138.516
5176.152
5276.297
5391.838
5514.818
5529.319
5311.61
5120.915
5295.247
5580.615
5559.893
5422.778
5547.258
5829.438
5950.616
5846.756
5683.349
5629.237
5761.369
6061.322
6391.26
6575.86
6616.743
6653.589
6652.211
6477.765
6286.723
6392.982
6746.721
6947.729
6801.88
6614.741
6817.548
7365.233
7794.335
7907.154
7875.701
7676.559
7177.651
6697.838
6676.326
7014.177
7316.901
7395.816
7241.573
6919.922
6627.659
6545.602
6606.881
6602.904
6510.115
6474.756
6463.178
6327.966
6226.889
6501.323
7092.478
7540.647
7614.245
7464.826
7194.475
6827.667
6604.97
6714.875
6963.074
7145.22
7329.16
7492.847
7436.153
7218.1
7134.962
7221.862
7220.881
6998.51
6702.36
6519.905
6449.893
6378.44
6294.733
6304.406
6457.855
6673.008
6826.77
6862.622
6811.57
6744.828
6719.143
6749.545
6814.879
6881.991
6927.127
6943.186
6936.318
6919.78
6907.132
6904.379
6904.561
6890.198
6844.574
6764.775
6666.478
6576.979
6522.39
6517.253
6560.163
6636.025
6723.751
6805.109
6869.934
6915.887
6944.473
6956.694
6951.104
6925.175
6879.027
6818.682
6755.664
6703.052
6670.785
6662.419
6674.37
6698.043
6723.895
6745.219
6759.66
6768.285
6773.709
6778.537
6784.351
6791.621
6800.672
6812.51
6828.522
6849.547
6874.987
6902.162
6926.519
6943.233
6949.161
6943.806
6929.024
6908.036
6884.253
6860.174
6836.92
6814.902
6794.967
6778.601
6767.122
6760.814
6758.253
6756.068
6750.016
6737.265
6718.454
6698.515
6685.952
6690.204
6717.67
6768.255
6834.056
6900.716
6951.506
6972.862
6958.44
6909.688
6833.807
6740.882
6640.605
6539.588
6441.528
6350.361
6272.601
6215.508
6183.573
6178.71
6203.749
6263.338
6359.493
6482.363
6598.444
6649.461
6576.749
6363.068
6064.251
5796.81
5666.999
5681.995
5750.971
5805.685
5919.32
6129.359
6214.084
5892.878
5280.402
4879.469
4831.596
4945.454
)
;
    }
    topAndBottom
    {
        type            calculated;
        value           nonuniform List<scalar> 
120
(
8234.187
7258.024
6557.184
6085.413
5759.587
5560.098
5452.089
5377.992
5295.08
5194.026
5088.87
4997.332
4927.905
4878.39
4841.797
4812.798
4790.362
4776.279
4771.989
4776.257
4784.96
4792.637
4794.66
4788.761
4775.284
4756.275
4734.136
4710.617
4686.508
4661.939
4636.879
4611.498
4586.315
4562.212
4540.399
4522.294
4509.225
4502.005
4500.573
4503.929
4510.443
4518.361
4526.255
4533.241
4538.989
4543.514
4546.732
4547.756
4544.28
4532.719
4509.64
4474.1
4429.455
4382.867
4341.954
4310.281
4286.902
4269.799
4262.749
4315.23
7366.918
7391.261
7386.062
7224.172
6856.422
6381.139
5947.987
5643.532
5468.186
5375.068
5321.363
5305.858
5368.857
5549.828
5835.062
6141.757
6357.932
6408.779
6296.268
6083.977
5845.097
5616.231
5388.309
5133.363
4840.532
4533.911
4263.536
4080.428
4013.614
4060.527
4191.115
4359.206
4514.696
4613.799
4627.236
4546.158
4384.194
4173.78
3956.924
3773.36
3650.641
3599.706
3616.619
3688.338
3799.133
3934.994
4085.065
4240.721
4393.746
4535.251
4656.495
4751.565
4820.039
4866.882
4898.578
4917.9
4923.586
4910.022
4894.085
4830.015
)
;
    }
    frontAndBack
    {
        type            empty;
    }
}


// ************************************************************************* //
