/*--------------------------------*- C++ -*----------------------------------*\
| =========                 |                                                 |
| \\      /  F ield         | OpenFOAM: The Open Source CFD Toolbox           |
|  \\    /   O peration     | Version:  2312                                  |
|   \\  /    A nd           | Website:  www.openfoam.com                      |
|    \\/     M anipulation  |                                                 |
\*---------------------------------------------------------------------------*/
FoamFile
{
    version     2.0;
    format      ascii;
    arch        "LSB;label=32;scalar=64";
    class       volScalarField;
    location    "2000";
    object      G;
}
// * * * * * * * * * * * * * * * * * * * * * * * * * * * * * * * * * * * * * //

dimensions      [1 0 -3 0 0 0 0];

internalField   nonuniform List<scalar> 
12000
(
10727.05
10191.94
9958.208
9816.859
9722.994
9654.888
9600.335
9552.335
9509.137
9471.555
9440.201
9414.363
9392.399
9372.617
9353.817
9335.377
9317.085
9298.989
9281.293
9264.273
9248.142
9232.917
9218.411
9204.342
9190.469
9176.656
9162.856
9149.087
9135.398
9121.824
9108.38
9095.079
9081.962
9069.108
9056.559
9044.268
9032.007
9019.381
9005.961
8991.881
8977.329
8961.972
8945.072
8926.607
8907.908
8889.891
8870.74
8848.747
8824.294
8797.424
8765.808
8728.139
8685.942
8640.672
8590.78
8532.125
8459.728
8363.42
8236.16
8013.266
11021.95
10703.55
10471.17
10303.53
10172.29
10059.2
9962.346
9881.425
9814.905
9760.244
9714.426
9674.524
9638.28
9604.306
9571.876
9540.596
9510.227
9480.666
9451.938
9424.096
9397.112
9370.827
9345.028
9319.561
9294.395
9269.593
9245.249
9221.422
9198.107
9175.24
9152.724
9130.463
9108.368
9086.375
9064.437
9042.524
9020.585
8998.545
8976.284
8953.613
8930.273
8906.06
8881.022
8855.475
8829.696
8803.601
8776.871
8749.284
8720.305
8688.72
8652.922
8611.573
8563.89
8509.814
8449.973
8384.732
8313.012
8227.484
8124.027
7982.966
11021.26
10825.56
10635.84
10495.84
10386.72
10278.5
10170.84
10074.35
9995.015
9931.385
9878.458
9831.389
9787.124
9744.393
9703.03
9663.343
9625.746
9590.596
9558.065
9528.042
9500.122
9473.723
9448.269
9423.323
9398.628
9374.056
9349.539
9325.009
9300.39
9275.598
9250.568
9225.251
9199.609
9173.615
9147.256
9120.537
9093.457
9066.017
9038.158
9009.651
8980.124
8949.319
8917.322
8884.462
8850.941
8816.795
8782.284
8747.725
8712.707
8676.012
8636.125
8591.338
8540.014
8482.102
8420.545
8359.422
8298.801
8228.482
8146.171
8048.462
10930.58
10810.14
10648.15
10514.81
10428.52
10352.47
10265.92
10173.54
10087.63
10014.67
9954.046
9901.819
9853.957
9807.654
9761.527
9715.44
9670.162
9626.903
9586.817
9550.636
9518.556
9490.352
9465.581
9443.744
9424.336
9406.853
9390.781
9375.607
9360.838
9346.032
9330.812
9314.857
9297.892
9279.668
9259.966
9238.6
9215.44
9190.451
9163.613
9134.756
9103.592
9070.039
9034.484
8997.583
8959.805
8921.457
8883.067
8845.01
8806.645
8766.479
8723.023
8675.138
8622.458
8566.754
8512.093
8460.537
8406.984
8340.442
8270.343
8196.455
10790.52
10736.39
10611.88
10471.81
10381.1
10329.87
10283.06
10221.89
10149.05
10074.82
10006.94
9948.25
9898.03
9853.761
9812.513
9771.97
9730.958
9689.417
9648.013
9607.685
9569.345
9533.751
9501.467
9472.827
9447.9
9426.486
9408.166
9392.374
9378.477
9365.832
9353.83
9341.898
9329.504
9316.143
9301.352
9284.752
9266.13
9245.478
9222.882
9198.325
9171.719
9143.202
9113.272
9082.467
9050.942
9018.61
8985.508
8951.487
8915.725
8877.259
8835.967
8792.818
8749.594
8708.377
8669.477
8628.009
8575.964
8511.881
8459.775
8412.064
10671.29
10665.72
10589.61
10454.31
10340.98
10284.58
10264.4
10244.2
10204.92
10147.23
10080.65
10014.72
9955.552
9905.603
9864.539
9830.33
9800.265
9771.721
9742.633
9711.725
9678.565
9643.45
9607.167
9570.69
9534.916
9500.518
9467.911
9437.286
9408.669
9381.973
9357.036
9333.644
9311.532
9290.399
9269.937
9249.909
9230.237
9210.99
9192.218
9173.788
9155.428
9136.896
9117.941
9098.039
9076.357
9052.197
9025.341
8995.854
8963.981
8930.657
8897.905
8868.306
8843.566
8822.314
8798.14
8761.468
8709.594
8655.201
8626.648
8605.281
10618.56
10634.12
10601.01
10489.54
10359.14
10274.02
10247.72
10249.99
10246.25
10220.05
10172.08
10110.63
10044.9
9982.361
9928.121
9884.66
9851.865
9827.498
9808.082
9789.925
9769.956
9746.171
9717.669
9684.437
9647.041
9606.365
9563.419
9519.232
9474.775
9430.926
9388.448
9347.972
9309.988
9274.853
9242.816
9214.078
9188.802
9167.017
9148.453
9132.474
9118.193
9104.544
9090.215
9073.684
9053.702
9029.935
9003.089
8974.539
8946.156
8920.38
8899.842
8886.181
8878.079
8869.183
8848.951
8810.136
8760.3
8720.621
8711.498
8706.397
10625.35
10639.2
10632.1
10554.87
10427.68
10313.1
10254.72
10247.3
10258.7
10260.76
10241.44
10200.98
10144.86
10080.15
10014.1
9953.18
9901.905
9862.099
9832.939
9811.711
9794.839
9778.774
9760.575
9738.188
9710.499
9677.251
9638.867
9596.252
9550.585
9503.157
9455.243
9408.027
9362.54
9319.651
9280.057
9244.274
9212.563
9184.78
9160.304
9138.145
9117.147
9096.056
9073.517
9048.366
9020.29
8990.246
8960.142
8932.186
8908.57
8891.258
8881.307
8877.575
8875.112
8864.822
8837.705
8794.113
8749.663
8723.921
8724.105
8721.768
10658.24
10659.81
10661.52
10617.08
10512.57
10385.53
10290.01
10249.04
10248.23
10259.36
10261.47
10245.96
10212.09
10162.49
10101.47
10034.56
9967.696
9906.125
9853.415
9811.057
9778.599
9754.118
9734.846
9717.819
9700.403
9680.648
9657.41
9630.303
9599.533
9565.694
9529.585
9492.053
9453.894
9415.794
9378.292
9341.732
9306.163
9271.261
9236.417
9201.01
9164.645
9127.151
9088.547
9049.253
9010.442
8973.962
8941.745
8915.296
8895.617
8883.038
8876.444
8872.059
8862.851
8840.694
8802.638
8757.161
8721.489
8705.956
8706.633
8698.894
10690.3
10678.37
10677.39
10656.41
10583.61
10464.53
10343.66
10262.62
10230.64
10229.71
10236.34
10235.57
10221.75
10193.81
10152.07
10097.82
10033.85
9964.567
9895.2
9830.753
9775.02
9730.012
9695.887
9671.293
9653.956
9641.284
9630.856
9620.706
9609.426
9596.123
9580.298
9561.688
9540.142
9515.532
9487.71
9456.468
9421.504
9382.49
9339.308
9292.359
9242.665
9191.686
9141.083
9092.636
9048.141
9009.037
8976.048
8949.282
8928.539
8913.034
8900.245
8884.892
8860.002
8821.471
8773.905
8730.75
8704.65
8694.505
8690.595
8675.499
10706.99
10684.02
10675.16
10665.89
10622.54
10525.34
10397.42
10284.16
10215.09
10188.68
10185.26
10186.19
10182.02
10169.93
10148.74
10116.79
10072.68
10016.79
9951.901
9882.661
9814.489
9752.353
9699.887
9658.989
9629.844
9611.259
9601.138
9596.966
9596.204
9596.539
9595.991
9592.919
9585.983
9574.104
9556.447
9532.406
9501.63
9464.159
9420.651
9372.527
9321.815
9270.756
9221.452
9175.607
9134.254
9097.522
9064.827
9035.512
9009.151
8984.683
8958.889
8926.18
8881.728
8827.143
8773.248
8733.852
8713.765
8703.011
8691.573
8668.333
10696.99
10667.2
10650.85
10643.85
10621.34
10551.34
10433.94
10304.68
10203.9
10147.88
10126.9
10122.03
10119.85
10115.4
10107.7
10095.3
10075.29
10044.75
10002.4
9949.37
9888.898
9825.555
9764.236
9709.278
9663.812
9629.425
9606.143
9592.667
9586.769
9585.715
9586.657
9586.929
9584.265
9576.951
9563.873
9544.521
9518.966
9487.898
9452.64
9414.988
9376.838
9339.769
9304.816
9272.349
9241.975
9212.649
9183.257
9153.241
9122.335
9089.126
9049.887
8999.987
8938.557
8872.949
8816.853
8780.272
8760.387
8743.357
8723.036
8689.762
10656.31
10624.16
10604.2
10594.77
10583.86
10540.02
10446.23
10320.03
10200.61
10118.17
10077.35
10064.03
10061.65
10061.08
10060.15
10058.87
10055.91
10048.18
10032.2
10005.52
9967.542
9919.657
9864.949
9807.538
9751.773
9701.432
9659.114
9625.927
9601.494
9584.233
9571.798
9561.594
9551.261
9539.037
9523.937
9505.757
9484.985
9462.66
9440.141
9418.716
9399.194
9381.687
9365.673
9350.15
9333.77
9315.165
9293.433
9268.199
9238.672
9202.334
9155.193
9095.005
9025.798
8958.872
8906.639
8872.846
8849.673
8824.295
8796.58
8752.494
10588.32
10559.4
10541.5
10530.07
10524.7
10502.73
10439.3
10332.82
10211.13
10110.36
10049.98
10026.07
10022.55
10025.3
10028.24
10031.12
10034.92
10038.93
10040.5
10036.04
10022.34
9997.417
9960.994
9914.564
9861.025
9804.059
9747.393
9694.132
9646.314
9604.772
9569.276
9538.909
9512.518
9489.105
9468.054
9449.195
9432.749
9419.188
9408.965
9402.156
9398.22
9396.056
9394.269
9391.445
9386.35
9378.128
9366.287
9350.025
9327.074
9293.491
9245.902
9185.63
9121.091
9064.44
9023.376
8995.178
8970.417
8940.252
8910.451
8859.778
10508.98
10488.44
10477.43
10467.26
10464.85
10458.93
10425.47
10348.49
10239.34
10130.68
10052.57
10014.39
10005.86
10010.29
10016.17
10020.22
10023.91
10029.14
10035.82
10041.78
10043.65
10037.92
10021.74
9993.488
9953.053
9901.817
9842.39
9778.123
9712.558
9648.946
9589.921
9537.383
9492.511
9455.851
9427.417
9406.802
9393.32
9386.095
9384.045
9385.809
9389.791
9394.392
9398.296
9400.638
9401.041
9399.451
9395.487
9387.291
9370.916
9341.805
9298.599
9246.589
9196.668
9158.65
9134.002
9115.273
9094.195
9066.586
9041.945
8993.797
10441.44
10431.49
10429.09
10423.11
10422.77
10426.35
10416.22
10369.8
10282.59
10176.46
10084.5
10028.34
10008.07
10009.27
10016.41
10021.28
10023.15
10024.69
10028.11
10033.56
10039.29
10042.33
10039.25
10026.77
10002.31
9964.563
9913.749
9851.737
9781.794
9708.121
9635.265
9567.512
9508.358
9460.111
9423.72
9398.848
9384.167
9377.711
9377.176
9380.184
9384.58
9388.751
9391.816
9393.636
9394.605
9395.055
9394.137
9388.777
9374.182
9346.87
9308.742
9268.33
9236.412
9218.339
9210.062
9202.235
9189.322
9170.832
9156.749
9120.687
10404.86
10403.36
10407.5
10406.27
10407.05
10413.63
10416.71
10394.69
10332.28
10237.32
10137.92
10062.97
10024.51
10015.52
10020.26
10025.86
10027.26
10025.37
10023.07
10022.28
10023.16
10024.35
10023.5
10017.7
10003.92
9979.566
9943.052
9894.261
9834.758
9767.653
9697.156
9627.91
9564.232
9509.451
9465.49
9432.798
9410.567
9397.072
9390.054
9387.114
9386.136
9385.643
9384.959
9384.133
9383.534
9382.956
9380.473
9372.116
9353.682
9324.44
9289.875
9260.007
9243.086
9239.519
9242.059
9242.359
9238.033
9230.621
9227.635
9207.919
10404.39
10406.13
10412.38
10414.1
10414.62
10419.05
10425.45
10418.29
10378.27
10300.34
10201.84
10111.88
10052.3
10026.69
10023.73
10028.35
10030.51
10027.36
10020.45
10012.29
10004.47
9997.29
9990.104
9981.661
9970.269
9954.007
9931.053
9900.102
9860.753
9813.726
9760.848
9704.774
9648.527
9594.995
9546.529
9504.719
9470.325
9443.291
9422.85
9407.768
9396.711
9388.581
9382.697
9378.69
9375.983
9372.904
9366.079
9351.289
9326.264
9293.797
9262.005
9240.096
9232.226
9234.834
9240.288
9243.282
9244.144
9244.807
9248.791
9242.332
10430.57
10430.03
10433.99
10435.89
10434.94
10434.62
10437.61
10436.37
10413.48
10355.25
10266.11
10168.84
10089.97
10043.8
10027.28
10026.82
10028.73
10025.44
10015.66
10001.35
9984.902
9967.986
9951.532
9936.04
9921.674
9908.146
9894.613
9879.729
9861.884
9839.553
9811.646
9777.755
9738.262
9694.309
9647.676
9600.554
9555.211
9513.614
9477.128
9446.453
9421.76
9402.894
9389.438
9380.493
9374.119
9366.822
9353.989
9332.005
9301.271
9267.606
9239.767
9224.007
9219.997
9221.984
9224.196
9225.072
9226.676
9230.1
9235.154
9234.22
10466.07
10460.2
10459.39
10459.24
10456.38
10451.4
10448.65
10447.43
10435.78
10396.7
10323.28
10227.8
10135.39
10068.05
10032.71
10021.23
10019.14
10014.84
10003.34
9985.024
9962.561
9938.662
9915.409
9894.415
9877.012
9864.128
9855.965
9851.749
9849.698
9847.256
9841.525
9829.781
9809.982
9781.185
9743.769
9699.382
9650.595
9600.378
9551.607
9506.763
9467.8
9436.034
9411.867
9394.277
9380.306
9365.227
9344.204
9315.213
9281.343
9249.921
9228.063
9217.752
9214.879
9213.339
9210.255
9207.174
9206.704
9208.501
9210.265
9207.544
10495.57
10484.54
10478.9
10475.67
10471.15
10463.42
10456.1
10452.56
10447.01
10423.77
10368.67
10282.66
10184.28
10098.36
10040.93
10012.21
10000.84
9993.234
9980.797
9961.424
9937.186
9911.345
9886.67
9865.134
9848.172
9836.826
9831.6
9832.193
9837.325
9844.761
9851.555
9854.459
9850.442
9837.228
9813.708
9780.107
9737.859
9689.306
9637.364
9585.242
9536.131
9492.702
9456.363
9426.43
9399.802
9371.952
9339.465
9302.901
9267.512
9240.314
9225.081
9219.435
9216.937
9212.457
9205.734
9199.874
9196.952
9195.309
9192.506
9184.597
10511.67
10497.86
10488.98
10482.71
10476.94
10468.66
10459.53
10453.79
10450.42
10437.89
10399.64
10327.49
10230.57
10131.32
10051.76
10001.52
9975.847
9962.363
9949.865
9933.014
9912.007
9889.69
9868.957
9851.661
9838.693
9830.407
9826.876
9827.891
9832.821
9840.502
9849.195
9856.692
9860.545
9858.411
9848.389
9829.282
9800.747
9763.379
9718.781
9669.513
9618.742
9569.479
9523.497
9480.449
9437.982
9393.415
9346.437
9300.847
9263.29
9239.081
9228.178
9224.971
9222.42
9216.937
9209.681
9203.515
9199.281
9194.675
9188.616
9176.368
10515.35
10501.5
10491.36
10482.6
10475.67
10468.04
10459.36
10452.37
10448.43
10440.89
10415.07
10357.58
10268.16
10162.82
10065.16
9992.881
9949.929
9928.405
9916.421
9905.25
9891.845
9877.263
9863.794
9853.006
9845.285
9840.273
9837.456
9836.486
9837.216
9839.535
9843.165
9847.482
9851.446
9853.625
9852.306
9845.669
9832.05
9810.336
9780.358
9743.082
9700.316
9653.897
9604.695
9552.163
9495.138
9433.892
9372.1
9316.714
9274.879
9249.667
9238.07
9233.211
9229.043
9223.481
9217.666
9212.825
9208.396
9202.251
9195.201
9181.708
10512.35
10500.13
10490.05
10479.35
10470.84
10463.53
10455.85
10448.03
10441.6
10434.12
10415.25
10370.74
10293.15
10190.09
10082.18
9991.781
9931.496
9900.28
9888.068
9883.616
9879.867
9874.789
9869.23
9864.424
9860.734
9857.675
9854.525
9850.862
9846.766
9842.726
9839.403
9837.362
9836.851
9837.619
9838.793
9838.882
9835.991
9828.243
9814.245
9793.29
9765.084
9729.124
9684.246
9629.062
9563.547
9491.001
9418.623
9355.396
9307.963
9277.36
9259.294
9247.772
9238.908
9231.817
9226.649
9222.514
9217.762
9211.023
9204.605
9192.772
10509.1
10498.4
10488.5
10476
10465.09
10456.53
10448.55
10439.29
10429.25
10418.69
10402.29
10368.23
10305.21
10212.64
10104.65
10003.74
9928.812
9886.566
9871.294
9871.246
9875.818
9879.219
9880.09
9879.151
9877.176
9874.242
9869.971
9864.067
9856.648
9848.286
9839.861
9832.363
9826.677
9823.368
9822.462
9823.329
9824.77
9825.268
9823.204
9816.82
9803.864
9781.311
9745.739
9694.81
9629.397
9554.947
9480.462
9414.964
9363.486
9325.549
9297.283
9275.165
9258.003
9245.845
9237.75
9231.253
9224.303
9216.454
9210.61
9201.417
10509.08
10498.25
10487.58
10472.96
10458.78
10446.99
10436.5
10424.64
10410.79
10396.34
10380.17
10354.49
10307.4
10231.91
10133.91
10031.71
9946.718
9892.46
9869.505
9868.38
9876.74
9885.366
9890.186
9890.947
9888.831
9884.821
9879.266
9872.174
9863.606
9853.888
9843.621
9833.6
9824.699
9817.708
9813.169
9811.264
9811.813
9814.27
9817.552
9819.616
9817.025
9805.078
9779.037
9736.33
9678.656
9612.296
9545.777
9485.958
9435.261
9392.131
9354.121
9320.656
9293
9271.97
9256.192
9242.897
9230.478
9219.264
9211.952
9203.635
10511.81
10498.3
10485.39
10468.08
10450.14
10433.78
10419.05
10403.86
10387.07
10370.13
10354.34
10335.9
10304.6
10249.75
10169.28
10074.31
9984.626
9918.231
9882.661
9873.457
9879.252
9888.732
9895.04
9896.256
9893.409
9888.214
9881.826
9874.661
9866.738
9858.043
9848.72
9839.111
9829.71
9821.092
9813.851
9808.597
9805.913
9806.143
9808.858
9812.156
9812.3
9804.317
9783.803
9749.236
9703.309
9651.98
9601.389
9554.687
9511.191
9468.51
9425.649
9384.26
9347.101
9315.538
9288.68
9264.802
9243.469
9225.537
9213.3
9201.452
10513.34
10494.67
10478.33
10458.03
10436.63
10415.82
10396.72
10378.7
10360.89
10344.15
10330.4
10318.6
10301.36
10267.03
10207.51
10125.83
10036.82
9959.745
9908.291
9884.799
9881.701
9887.634
9893.448
9894.897
9891.909
9886.294
9879.807
9873.327
9866.953
9860.429
9853.501
9846.06
9838.16
9830.001
9821.971
9814.72
9809.104
9805.8
9804.596
9803.695
9799.684
9788.635
9768.076
9738.693
9704.355
9669.965
9638.395
9608.795
9577.711
9542.127
9501.825
9459.21
9417.16
9377.176
9339.41
9303.957
9271.866
9244.287
9223.673
9202.372
10507.81
10482.73
10462.96
10440.19
10416.74
10393.31
10371.64
10352.64
10336.19
10322.39
10312.45
10306.59
10300.23
10283.02
10243.69
10178.23
10094.73
10010.46
9943.005
9901.724
9884.953
9883.572
9887.262
9889.192
9887.206
9882.306
9876.408
9870.847
9865.999
9861.586
9857.12
9852.176
9846.472
9839.911
9832.66
9825.216
9818.264
9812.176
9806.336
9798.783
9786.754
9768.191
9743.441
9715.823
9690.199
9670.099
9655.341
9642.043
9625.12
9601.303
9570.351
9533.946
9493.828
9451.084
9406.801
9362.748
9321.196
9283.318
9252.754
9216.781
10490.54
10459.76
10438.11
10414.53
10391.37
10368.32
10347.16
10329.74
10316.64
10307.42
10302.06
10300.81
10301.34
10295.91
10273.02
10223.97
10149.97
10063.73
9983.646
9924.621
9891.718
9880.099
9879.954
9882.303
9882.292
9879.174
9874.391
9869.589
9865.599
9862.39
9859.468
9856.256
9852.304
9847.391
9841.583
9835.188
9828.439
9820.948
9811.274
9797.147
9776.642
9749.849
9719.89
9692.188
9671.924
9661.138
9657.52
9655.836
9650.888
9639.703
9621.569
9596.617
9564.833
9526.444
9482.846
9436.553
9390.312
9344.937
9306.162
9253.661
10460.38
10426.78
10406.02
10384.11
10363.93
10344.4
10326.84
10313.16
10304.33
10299.69
10298.22
10299.69
10303.19
10304.02
10292.56
10258.24
10196.64
10114.45
10027.72
9954.233
9905.132
9881.199
9875.08
9876.872
9879.056
9878.421
9875.175
9870.892
9866.897
9863.647
9860.898
9858.125
9854.88
9850.976
9846.489
9841.515
9835.685
9827.672
9815.184
9795.834
9768.758
9736.056
9702.856
9675.46
9658.371
9652.112
9653.345
9657.118
9659.407
9658.056
9651.919
9639.66
9619.718
9591.393
9555.669
9514.642
9470.642
9423.678
9381.802
9316.091
10420.86
10388.71
10371.91
10354.23
10339.15
10325.26
10313.19
10304.2
10299.21
10297.72
10298.39
10300.55
10304.04
10306.77
10302.11
10279.94
10232.25
10159.6
10073.27
9990.761
9927.443
9890.022
9875.375
9874.482
9877.977
9879.937
9878.583
9874.804
9870.201
9865.839
9861.974
9858.371
9854.755
9851.063
9847.371
9843.47
9838.301
9829.687
9814.841
9791.763
9760.919
9726.031
9693.116
9667.951
9653.447
9648.679
9650.169
9654.275
9658.757
9662.515
9664.315
9662.088
9653.571
9637.49
9614.031
9584.077
9548.917
9507.453
9469.357
9398.653
10379.58
10353.05
10342.32
10330.52
10321.37
10313.52
10306.99
10302.13
10299.55
10299.12
10299.89
10301.12
10302.97
10305.08
10303.8
10291
10257.21
10197.94
10118.5
10033.27
9959.263
9908.269
9882.528
9875.872
9878.595
9882.446
9883.168
9880.216
9874.972
9869.012
9863.264
9858.018
9853.323
9849.246
9845.732
9842.099
9836.584
9826.454
9809.033
9783.331
9751.325
9717.819
9688.598
9667.817
9656.314
9651.968
9651.708
9653.468
9656.638
9661.027
9665.662
9668.64
9667.982
9662.427
9651.46
9634.652
9612.167
9581.845
9553.572
9488.413
10345.35
10326.98
10322.65
10316.84
10312.92
10309.82
10307.27
10304.9
10302.94
10301.7
10301.01
10300.46
10300.27
10300.93
10301.02
10294.96
10273.67
10229.38
10161.58
10079.64
9999.453
9936.118
9897.354
9881.479
9880.328
9884.401
9886.955
9885.353
9880.063
9872.81
9865.186
9858.163
9852.216
9847.476
9843.553
9839.138
9831.863
9818.906
9798.372
9770.779
9739.559
9709.932
9686.568
9671.465
9663.478
9659.753
9657.868
9657.02
9657.585
9659.854
9663.272
9666.712
9669.145
9669.828
9667.983
9662.391
9652.492
9635.498
9619.949
9569.368
10324.83
10314.67
10315.17
10313.97
10313.43
10312.84
10311.95
10310.11
10307.3
10304.18
10301.33
10298.89
10297.07
10296.49
10297.03
10295.43
10284.23
10254.34
10200.67
10126.88
10045.45
9972.413
9919.997
9891.853
9883.201
9884.896
9888.336
9888.472
9884.138
9876.613
9867.898
9859.635
9852.736
9847.281
9842.373
9836.033
9825.553
9808.575
9784.557
9755.713
9726.562
9702.025
9685.112
9675.703
9671.23
9668.67
9666.293
9664.002
9662.416
9661.846
9662.106
9662.982
9664.525
9666.71
9668.98
9670.083
9669.347
9663.982
9660.044
9628.363
10320.22
10315.99
10318.61
10319.69
10320.33
10320.03
10318.7
10315.85
10311.45
10306.28
10301.4
10297.45
10294.66
10293.42
10294.06
10295.06
10291.06
10273.37
10234.12
10171.73
10093.84
10014.97
9950.005
9907.76
9888.166
9884.252
9886.782
9888.513
9886.12
9879.728
9871.242
9862.733
9855.427
9849.248
9842.736
9833.384
9818.566
9796.93
9769.602
9740.311
9714.034
9694.739
9683.598
9678.838
9677.238
9676.11
9674.333
9672.005
9669.458
9666.738
9663.875
9661.332
9659.922
9660.217
9662.159
9665.057
9668.575
9670.452
9673.905
9659.672
10328.8
10327.03
10328.97
10329.99
10330.06
10328.59
10325.65
10321.11
10315.11
10308.39
10302.12
10297.2
10293.93
10292.45
10293.04
10295.19
10295.57
10287.03
10260.78
10211.29
10141.01
10060.94
9986.343
9929.973
9896.963
9884.112
9883.164
9885.502
9885.533
9881.584
9874.779
9867.132
9859.935
9852.883
9844.08
9830.849
9811.154
9785.041
9755.282
9726.604
9703.703
9689.131
9682.383
9680.705
9680.942
9681.051
9680.363
9678.84
9676.347
9672.624
9667.786
9662.587
9658.115
9655.237
9654.397
9655.642
9659.075
9663.162
9668.744
9666.126
10344.6
10342.06
10341.44
10340.78
10339.35
10336.32
10331.7
10325.69
10318.62
10311.13
10304.2
10298.75
10295.19
10293.52
10293.83
10296.06
10298.45
10295.88
10280.16
10243.53
10183.78
10107.29
10027.42
9958.92
9911.606
9887.028
9879.581
9880.594
9882.639
9881.873
9877.897
9872.004
9865.172
9856.862
9845.061
9827.451
9803.071
9773.512
9742.826
9716
9696.773
9686.105
9682.224
9682.08
9683.074
9683.879
9684.088
9683.42
9681.368
9677.518
9672.007
9665.568
9659.161
9653.652
9649.79
9648.139
9649.015
9651.483
9654.984
9656.68
10361.08
10355.87
10352.19
10349.23
10346.23
10342.09
10336.53
10329.83
10322.48
10314.94
10307.92
10302.17
10298.22
10296.12
10295.8
10297.32
10299.99
10300.6
10292.55
10267.51
10219.89
10151.2
10071.17
9994.301
9933.669
9895.703
9878.783
9875.77
9878.369
9880.611
9879.968
9876.258
9869.699
9859.551
9844.14
9822.109
9793.935
9762.613
9732.842
9709.087
9693.664
9686.048
9683.74
9683.945
9684.829
9685.659
9686.13
9685.766
9683.933
9680.268
9674.942
9668.507
9661.625
9654.983
9649.354
9645.395
9643.29
9642.402
9641.863
9641.997
10373.56
10365.46
10359.41
10354.45
10350.34
10345.86
10340.37
10333.96
10327.04
10319.98
10313.17
10307.19
10302.61
10299.64
10298.28
10298.56
10300.36
10302.05
10298.95
10283.48
10248.2
10190.38
10115.2
10034.84
9963.648
9912.155
9883.416
9873.341
9874.103
9878.14
9880.488
9878.829
9872.154
9859.565
9840.203
9814.194
9783.623
9752.504
9725.437
9705.709
9694.031
9688.727
9687.106
9686.954
9687.171
9687.41
9687.372
9686.528
9684.363
9680.725
9675.843
9670.1
9663.878
9657.634
9651.918
9647.08
9642.929
9638.876
9634.579
9630.309
10380.44
10370.49
10363.39
10357.23
10352.59
10348.39
10343.76
10338.39
10332.41
10326.06
10319.56
10313.3
10307.87
10303.68
10300.88
10299.57
10299.89
10301.26
10300.84
10292.57
10268.62
10223.24
10157.02
10078.3
10000.62
9937.102
9895.366
9875.44
9871.415
9875.084
9879.192
9878.89
9871.565
9856.159
9832.961
9803.888
9772.551
9743.459
9720.447
9705.227
9697.011
9693.424
9691.996
9691.197
9690.479
9689.676
9688.486
9686.481
9683.426
9679.439
9674.839
9669.918
9664.898
9660.019
9655.446
9651.012
9646.139
9640.209
9633.789
9625.278
10382.9
10372.64
10365.77
10359.28
10354.49
10350.78
10347.26
10343.22
10338.38
10332.78
10326.55
10319.98
10313.6
10308
10303.56
10300.5
10299.08
10299.35
10299.89
10296.44
10281.9
10248.95
10194.27
10121.76
10042.3
9969.766
9915.372
9883.655
9871.841
9872.295
9876.114
9875.973
9867.471
9849.317
9823
9792.188
9761.693
9735.978
9717.667
9706.845
9701.563
9699.2
9697.746
9696.273
9694.556
9692.473
9689.765
9686.222
9681.934
9677.267
9672.633
9668.32
9664.494
9661.184
9658.134
9654.681
9650.05
9643.685
9636.999
9626.219
10383.71
10374.37
10368.53
10362.3
10357.49
10354.02
10351.3
10348.35
10344.53
10339.58
10333.55
10326.67
10319.44
10312.5
10306.44
10301.66
10298.51
10297.31
10297.62
10296.83
10289.27
10267.36
10225.12
10162.16
10085.59
10008.12
9942.998
9898.839
9876.703
9870.778
9871.612
9869.997
9859.873
9839.57
9811.478
9780.572
9752.323
9730.693
9716.97
9709.876
9706.782
9705.188
9703.61
9701.538
9698.873
9695.484
9691.213
9686.112
9680.553
9675.073
9670.155
9666.126
9663.119
9660.953
9659.011
9656.346
9652.268
9646.423
9640.717
9629.925
10385.67
10377.77
10373.05
10367.29
10362.34
10358.63
10355.99
10353.54
10350.33
10345.84
10339.97
10332.91
10325.07
10317.09
10309.66
10303.36
10298.61
10295.85
10295.19
10295.3
10292.16
10278.98
10248.51
10196.96
10127.28
10049.43
9976.883
9921.095
9886.985
9871.606
9866.359
9861.27
9849.11
9827.674
9799.632
9770.45
9745.565
9728.133
9718.275
9713.856
9712.075
9710.8
9709.004
9706.399
9702.884
9698.328
9692.718
9686.341
9679.749
9673.558
9668.284
9664.263
9661.549
9659.754
9658.05
9655.501
9651.729
9646.666
9642.275
9632.919
10390.47
10383.75
10379.72
10374.28
10368.97
10364.49
10361.17
10358.43
10355.3
10351.04
10345.35
10338.29
10330.19
10321.58
10313.2
10305.69
10299.58
10295.33
10293.28
10292.99
10291.98
10284.86
10264.4
10224.64
10164.73
10090.95
10015.12
9949.843
9903.231
9875.811
9861.307
9850.477
9835.76
9814.331
9788.328
9762.661
9741.971
9728.444
9721.417
9718.501
9717.175
9715.79
9713.645
9710.515
9706.253
9700.768
9694.203
9687.005
9679.797
9673.19
9667.665
9663.488
9660.562
9658.329
9655.95
9652.754
9648.78
9644.202
9640.714
9633.046
10398.25
10391.95
10387.94
10382.45
10376.58
10371
10366.41
10362.7
10359.13
10354.87
10349.38
10342.54
10334.52
10325.74
10316.85
10308.51
10301.3
10295.7
10292.12
10290.64
10289.98
10286.41
10273.65
10244.9
10196.38
10130.38
10055.58
9983.916
9925.435
9884.242
9857.623
9838.686
9820.631
9800.084
9777.853
9757.217
9741.295
9731.233
9726.031
9723.605
9722.041
9720.189
9717.543
9713.85
9708.934
9702.787
9695.685
9688.157
9680.805
9674.165
9668.605
9664.221
9660.715
9657.445
9653.751
9649.377
9644.723
9640.073
9636.721
9630.045
10407.85
10401.1
10396.47
10390.54
10384
10377.28
10371.21
10366.14
10361.74
10357.26
10351.99
10345.54
10337.9
10329.32
10320.31
10311.49
10303.47
10296.72
10291.67
10288.64
10287.22
10285.21
10277.83
10258.55
10221.76
10166.08
10096.19
10021.64
9952.975
9897.411
9856.578
9827.347
9804.836
9785.417
9768.011
9753.392
9742.57
9735.609
9731.525
9728.933
9726.703
9724.153
9720.879
9716.583
9711.103
9704.535
9697.26
9689.817
9682.737
9676.422
9671.051
9666.479
9662.219
9657.655
9652.44
9646.732
9641.139
9635.895
9631.959
9625.175
10417.45
10409.61
10403.99
10397.35
10390.18
10382.53
10375.15
10368.7
10363.31
10358.44
10353.33
10347.36
10340.26
10332.13
10323.3
10314.3
10305.72
10298.06
10291.74
10287.18
10284.51
10282.76
10278.79
10267.08
10241.29
10197.08
10134.95
10060.92
9984.575
9915.367
9859.398
9818.218
9789.873
9770.987
9758.461
9750.101
9744.44
9740.399
9737.158
9734.179
9731.151
9727.815
9723.851
9718.95
9713.005
9706.217
9699.032
9691.964
9685.44
9679.689
9674.652
9669.931
9664.925
9659.162
9652.634
9645.798
9639.279
9633.148
9628.215
9620.369
10425.36
10416.18
10409.56
10402.15
10394.47
10386.26
10378.03
10370.51
10364.15
10358.78
10353.7
10348.16
10341.67
10334.1
10325.64
10316.69
10307.81
10299.49
10292.18
10286.34
10282.4
10280.25
10278.21
10272.14
10255.79
10222.85
10170.03
10099.37
10018.38
9937.616
9867.083
9813.207
9777.616
9757.84
9749.125
9746.384
9745.604
9744.458
9742.189
9738.992
9735.28
9731.195
9726.55
9721.096
9714.81
9707.973
9701.058
9694.527
9688.686
9683.571
9678.878
9674.026
9668.415
9661.794
9654.434
9646.902
9639.694
9632.675
9626.714
9617.328
10430.55
10420.2
10412.84
10404.79
10396.8
10388.44
10379.89
10371.75
10364.65
10358.7
10353.47
10348.21
10342.26
10335.3
10327.32
10318.62
10309.65
10300.93
10292.94
10286.16
10281.18
10278.44
10277.37
10275.14
10266.14
10243.06
10199.74
10134.51
10052.15
9963.135
9880.219
9814.111
9770.163
9747.483
9740.488
9741.828
9745.202
9746.937
9746.016
9743.026
9738.908
9734.192
9728.928
9723.018
9716.54
9709.819
9703.304
9697.381
9692.214
9687.644
9683.178
9678.17
9672.15
9665.108
9657.468
9649.726
9642.172
9634.507
9627.797
9616.954
10432.9
10421.81
10414.13
10405.71
10397.62
10389.39
10380.97
10372.68
10365.08
10358.57
10353
10347.81
10342.27
10335.9
10328.49
10320.19
10311.35
10302.47
10294.06
10286.66
10280.97
10277.7
10276.95
10276.95
10272.95
10257.49
10222.71
10164.06
10083.55
9990.485
9898.831
9822.291
9769.52
9741.745
9733.665
9736.759
9743.033
9747.442
9748.27
9746.004
9741.83
9736.646
9730.85
9724.599
9718.09
9711.649
9705.65
9700.353
9695.759
9691.536
9687.101
9681.884
9675.639
9668.559
9661.079
9653.511
9645.946
9637.996
9630.964
9619.167
10433.02
10421.72
10414.11
10405.62
10397.58
10389.63
10381.58
10373.45
10365.63
10358.62
10352.59
10347.25
10341.97
10336.13
10329.36
10321.6
10313.08
10304.24
10295.62
10287.87
10281.73
10278.04
10277.16
10277.96
10276.55
10266
10237.99
10186.27
10110.49
10018.01
9922.315
9838.374
9777.215
9742.446
9730.218
9732.194
9739.566
9746.052
9748.828
9747.743
9743.877
9738.417
9732.194
9725.709
9719.312
9713.302
9707.918
9703.237
9699.073
9694.969
9690.368
9684.895
9678.558
9671.674
9664.586
9657.39
9650.043
9642.157
9635.206
9623.138
10431.94
10420.85
10413.57
10405.26
10397.36
10389.67
10382.01
10374.18
10366.34
10358.96
10352.45
10346.82
10341.63
10336.25
10330.13
10323.01
10314.96
10306.32
10297.67
10289.73
10283.33
10279.24
10277.81
10278.15
10277.08
10268.68
10245.26
10200.2
10131.47
10044.07
9949.478
9862.057
9793.933
9750.993
9731.803
9729.588
9735.787
9743.243
9747.791
9748.163
9744.949
9739.454
9732.939
9726.315
9720.127
9714.643
9709.925
9705.816
9701.934
9697.763
9692.871
9687.137
9680.787
9674.173
9667.495
9660.681
9653.642
9646.054
9639.445
9627.727
10430.66
10420
10413.14
10405.12
10397.39
10389.86
10382.47
10374.93
10367.2
10359.62
10352.71
10346.73
10341.5
10336.44
10330.93
10324.48
10316.99
10308.68
10300.13
10292.15
10285.56
10281
10278.56
10277.29
10274.62
10265.9
10244.94
10205.86
10145.8
10067.28
9978.694
9892.096
9819.311
9768.027
9739.779
9730.499
9732.967
9739.764
9745.431
9747.278
9745.02
9739.804
9733.205
9726.541
9720.597
9715.641
9711.545
9707.905
9704.168
9699.824
9694.624
9688.688
9682.372
9675.988
9669.598
9663.052
9656.294
9649.089
9642.903
9631.937
10429.83
10419.62
10413.11
10405.43
10397.86
10390.39
10383.09
10375.74
10368.18
10360.6
10353.44
10347.14
10341.74
10336.84
10331.78
10325.94
10319.02
10311.14
10302.84
10294.93
10288.18
10282.96
10278.99
10275.15
10269.36
10258.41
10238.14
10204.19
10153.62
10086.71
10008.14
9926.48
9851.95
9793.251