/*--------------------------------*- C++ -*----------------------------------*\
| =========                 |                                                 |
| \\      /  F ield         | OpenFOAM: The Open Source CFD Toolbox           |
|  \\    /   O peration     | Version:  2312                                  |
|   \\  /    A nd           | Website:  www.openfoam.com                      |
|    \\/     M anipulation  |                                                 |
\*---------------------------------------------------------------------------*/
FoamFile
{
    version     2.0;
    format      ascii;
    arch        "LSB;label=32;scalar=64";
    class       volScalarField;
    location    "2000";
    object      ILambda_7_0;
}
// * * * * * * * * * * * * * * * * * * * * * * * * * * * * * * * * * * * * * //

dimensions      [1 0 -3 0 0 0 0];

internalField   nonuniform List<scalar> 
12000
(
1175.286
1162.761
1147.568
1136.85
1132.958
1132.404
1130.521
1125.581
1119.203
1114.104
1111.826
1112.058
1113.379
1114.359
1114.176
1112.65
1110.01
1106.709
1103.303
1100.334
1098.177
1096.925
1096.397
1096.26
1096.192
1095.985
1095.557
1094.91
1094.068
1093.057
1091.903
1090.643
1089.325
1088.001
1086.706
1085.453
1084.234
1083.026
1081.804
1080.549
1079.25
1077.906
1076.517
1075.087
1073.628
1072.155
1070.692
1069.27
1067.929
1066.704
1065.619
1064.673
1063.838
1063.058
1062.255
1061.336
1060.25
1058.807
1057.507
1054.11
1168.188
1150.575
1137.185
1132.987
1133.92
1133.41
1128.633
1121.441
1115.409
1112.71
1113.091
1114.824
1116.167
1116.182
1114.717
1112.056
1108.667
1105.113
1101.97
1099.673
1098.36
1097.853
1097.784
1097.786
1097.623
1097.215
1096.575
1095.74
1094.738
1093.589
1092.326
1090.998
1089.66
1088.354
1087.097
1085.879
1084.676
1083.46
1082.211
1080.916
1079.573
1078.186
1076.758
1075.299
1073.822
1072.351
1070.918
1069.563
1068.323
1067.226
1066.277
1065.452
1064.696
1063.929
1063.063
1062.008
1060.729
1059.067
1057.56
1053.88
1160.768
1143.047
1135.171
1135.112
1135.741
1132.419
1125.601
1118.671
1114.526
1113.76
1115.045
1116.567
1117.106
1116.257
1114.136
1111.091
1107.603
1104.242
1101.529
1099.756
1098.885
1098.618
1098.578
1098.472
1098.161
1097.623
1096.884
1095.969
1094.895
1093.687
1092.387
1091.051
1089.729
1088.449
1087.213
1086.003
1084.792
1083.557
1082.283
1080.962
1079.596
1078.187
1076.743
1075.274
1073.799
1072.345
1070.95
1069.652
1068.486
1067.467
1066.588
1065.807
1065.056
1064.252
1063.308
1062.146
1060.749
1058.981
1057.388
1053.645
1150.286
1137.269
1135.36
1137.101
1135.748
1129.83
1122.211
1116.542
1114.476
1115.245
1116.961
1118.041
1117.779
1116.142
1113.41
1110.006
1106.475
1103.396
1101.194
1099.975
1099.522
1099.453
1099.413
1099.199
1098.752
1098.09
1097.243
1096.231
1095.07
1093.796
1092.462
1091.123
1089.82
1088.565
1087.346
1086.139
1084.915
1083.658
1082.355
1081.006
1079.613
1078.181
1076.72
1075.242
1073.774
1072.347
1071.002
1069.777
1068.698
1067.768
1066.96
1066.216
1065.458
1064.596
1063.552
1062.262
1060.731
1058.848
1057.169
1053.382
1140.793
1135.931
1137.921
1138.508
1134.046
1126.291
1119.256
1115.675
1115.585
1117.226
1118.712
1119.001
1117.883
1115.557
1112.372
1108.809
1105.451
1102.829
1101.203
1100.476
1100.3
1100.28
1100.145
1099.786
1099.205
1098.433
1097.49
1096.39
1095.157
1093.838
1092.492
1091.168
1089.891
1088.658
1087.448
1086.233
1084.99
1083.705
1082.374
1080.998
1079.581
1078.129
1076.656
1075.179
1073.728
1072.342
1071.062
1069.919
1068.929
1068.077
1067.32
1066.587
1065.79
1064.843
1063.68
1062.258
1060.604
1058.629
1056.891
1053.114
1136.241
1137.983
1140.352
1137.905
1130.727
1122.653
1117.412
1116.113
1117.398
1119.166
1119.992
1119.42
1117.555
1114.681
1111.198
1107.652
1104.64
1102.572
1101.502
1101.154
1101.117
1101.049
1100.782
1100.285
1099.589
1098.718
1097.684
1096.501
1095.207
1093.861
1092.519
1091.218
1089.967
1088.749
1087.538
1086.307
1085.039
1083.725
1082.366
1080.965
1079.526
1078.058
1076.578
1075.11
1073.69
1072.359
1071.154
1070.099
1069.195
1068.41
1067.683
1066.933
1066.07
1065.018
1063.726
1062.175
1060.41
1058.365
1056.592
1052.859
1136.929
1141.098
1141.106
1135.296
1126.716
1119.824
1116.99
1117.585
1119.454
1120.763
1120.739
1119.365
1116.875
1113.586
1109.969
1106.634
1104.118
1102.645
1102.052
1101.942
1101.917
1101.737
1101.327
1100.707
1099.908
1098.943
1097.819
1096.564
1095.228
1093.874
1092.55
1091.277
1090.047
1088.835
1087.613
1086.36
1085.064
1083.722
1082.336
1080.91
1079.452
1077.973
1076.494
1075.047
1073.671
1072.407
1071.286
1070.321
1069.495
1068.757
1068.035
1067.24
1066.287
1065.112
1063.688
1062.015
1060.16
1058.071
1056.288
1052.627
1140.394
1143.224
1139.63
1131.314
1122.995
1118.371
1117.895
1119.618
1121.326
1121.843
1120.976
1118.919
1115.925
1112.362
1108.799
1105.86
1103.938
1103.022
1102.774
1102.757
1102.654
1102.333
1101.791
1101.065
1100.172
1099.115
1097.908
1096.594
1095.236
1093.892
1092.595
1091.348
1090.13
1088.913
1087.673
1086.393
1085.069
1083.699
1082.287
1080.84
1079.366
1077.882
1076.415
1075.001
1073.682
1072.496
1071.465
1070.586
1069.822
1069.11
1068.364
1067.496
1066.432
1065.126
1063.572
1061.793
1059.873
1057.765
1055.996
1052.428
1143.947
1143.293
1136.208
1126.954
1120.417
1118.469
1119.725
1121.702
1122.739
1122.385
1120.787
1118.162
1114.777
1111.106
1107.801
1105.409
1104.1
1103.638
1103.581
1103.539
1103.306
1102.845
1102.191
1101.37
1100.383
1099.235
1097.956
1096.605
1095.245
1093.924
1092.655
1091.426
1090.211
1088.981
1087.717
1086.409
1085.055
1083.659
1082.224
1080.758
1079.273
1077.793
1076.348
1074.981
1073.732
1072.633
1071.692
1070.888
1070.168
1069.453
1068.654
1067.69
1066.499
1065.059
1063.387
1061.524
1059.564
1057.463
1055.727
1052.265
1145.976
1141.055
1131.631
1123.263
1119.469
1119.866
1121.917
1123.437
1123.598
1122.464
1120.256
1117.156
1113.511
1109.933
1107.082
1105.321
1104.563
1104.404
1104.394
1104.246
1103.869
1103.288
1102.537
1101.623
1100.542
1099.31
1097.977
1096.609
1095.265
1093.972
1092.727
1091.508
1090.286
1089.035
1087.744
1086.407
1085.026
1083.604
1082.148
1080.667
1079.178
1077.711
1076.303
1074.996
1073.829
1072.821
1071.964
1071.219
1070.517
1069.771
1068.893
1067.812
1066.487
1064.919
1063.146
1061.223
1059.249
1057.177
1055.493
1052.14
1145.658
1136.875
1127.009
1121.079
1120.162
1122.013
1123.945
1124.624
1123.952
1122.176
1119.443
1115.959
1112.23
1108.967
1106.717
1105.583
1105.246
1105.227
1105.153
1104.864
1104.357
1103.674
1102.832
1101.823
1100.649
1099.347
1097.982
1096.619
1095.301
1094.036
1092.808
1091.588
1090.35
1089.074
1087.754
1086.388
1084.981
1083.536
1082.061
1080.571
1079.087
1077.645
1076.287
1075.054
1073.976
1073.058
1072.274
1071.567
1070.855
1070.049
1069.068
1067.856
1066.398
1064.714
1062.862
1060.906
1058.943
1056.919
1055.297
1052.051
1142.673
1131.732
1123.497
1120.769
1122.051
1124.274
1125.471
1125.259
1123.908
1121.589
1118.386
1114.649
1111.061
1108.317
1106.734
1106.134
1106.05
1106.03
1105.829
1105.399
1104.783
1104.01
1103.076
1101.97
1100.712
1099.36
1097.985
1096.642
1095.354
1094.113
1092.891
1091.661
1090.4
1089.096
1087.746
1086.354
1084.922
1083.456
1081.968
1080.474
1079.007
1077.604
1076.31
1075.161
1074.175
1073.34
1072.611
1071.916
1071.166
1070.273
1069.17
1067.822
1066.237
1064.457
1062.55
1060.587
1058.658
1056.697
1055.143
1051.995
1137.621
1126.948
1121.891
1122.121
1124.436
1126.144
1126.401
1125.453
1123.556
1120.73
1117.135
1113.344
1110.138
1108.052
1107.101
1106.88
1106.881
1106.763
1106.414
1105.865
1105.159
1104.298
1103.266
1102.065
1100.74
1099.362
1097.997
1096.684
1095.423
1094.196
1092.97
1091.722
1090.434
1089.101
1087.723
1086.305
1084.85
1083.367
1081.87
1080.383
1078.944
1077.595
1076.378
1075.32
1074.424
1073.658
1072.962
1072.25
1071.433
1070.43
1069.194
1067.712
1066.014
1064.16
1062.227
1060.282
1058.405
1056.515
1055.031
1051.967
1131.664
1123.783
1122.365
1124.461
1126.64
1127.395
1126.828
1125.329
1122.932
1119.618
1115.775
1112.185
1109.571
1108.183
1107.739
1107.713
1107.666
1107.403
1106.923
1106.279
1105.489
1104.534
1103.4
1102.116
1100.747
1099.366
1098.026
1096.743
1095.504
1094.279
1093.041
1091.768
1090.451
1089.089
1087.685
1086.242
1084.767
1083.271
1081.773
1080.305
1078.908
1077.627
1076.497
1075.532
1074.717
1074.002
1073.311
1072.553
1071.642
1070.513
1069.138
1067.532
1065.742
1063.841
1061.907
1060.002
1058.189
1056.373
1054.957
1051.959
1126.533
1122.945
1124.396
1126.949
1128.244
1128.06
1126.909
1124.947
1122.028
1118.3
1114.444
1111.318
1109.42
1108.658
1108.538
1108.54
1108.365
1107.958
1107.373
1106.648
1105.77
1104.712
1103.482
1102.135
1100.746
1099.382
1098.073
1096.817
1095.589
1094.357
1093.098
1091.797
1090.452
1089.062
1087.633
1086.168
1084.676
1083.172
1081.683
1080.246
1078.907
1077.706
1076.668
1075.793
1075.044
1074.356
1073.641
1072.808
1071.782
1070.516
1069.008
1067.292
1065.435
1063.514
1061.605
1059.755
1058.016
1056.272
1054.916
1051.966
1123.708
1124.258
1127.048
1128.939
1129.173
1128.321
1126.752
1124.295
1120.846
1116.882
1113.305
1110.851
1109.674
1109.377
1109.388
1109.297
1108.97
1108.445
1107.779
1106.973
1105.996
1104.833
1103.521
1102.136
1100.752
1099.416
1098.139
1096.901
1095.672
1094.424
1093.14
1091.81
1090.436
1089.02
1087.567
1086.083
1084.578
1083.075
1081.607
1080.217
1078.949
1077.837
1076.893
1076.097
1075.394
1074.705
1073.936
1073.003
1071.845
1070.441
1068.81
1067.007
1065.109
1063.194
1061.33
1059.549
1057.884
1056.207
1054.901
1051.982
1123.719
1126.834
1129.429
1130.179
1129.6
1128.349
1126.365
1123.333
1119.445
1115.528
1112.511
1110.828
1110.256
1110.219
1110.199
1109.958
1109.496
1108.883
1108.144
1107.247
1106.161
1104.901
1103.531
1102.134
1100.773
1099.47
1098.218
1096.987
1095.748
1094.478
1093.165
1091.806
1090.405
1088.965
1087.49
1085.989
1084.478
1082.986
1081.553
1080.224
1079.039
1078.022
1077.167
1076.434
1075.752
1075.031
1074.179
1073.125
1071.828
1070.291
1068.555
1066.691
1064.78
1062.895
1061.091
1059.384
1057.792
1056.172
1054.905
1052
1125.95
1129.572
1131.045
1130.782
1129.763
1128.202
1125.68
1122.059
1117.963
1114.423
1112.164
1111.211
1111.048
1111.071
1110.92
1110.528
1109.965
1109.284
1108.465
1107.462
1106.266
1104.928
1103.528
1102.143
1100.814
1099.542
1098.304
1097.07
1095.812
1094.515
1093.173
1091.787
1090.36
1088.896
1087.402
1085.889
1084.382
1082.914
1081.53
1080.276
1079.184
1078.261
1077.483
1076.79
1076.099
1075.317
1074.358
1073.169
1071.732
1070.075
1068.258
1066.36
1064.462
1062.627
1060.894
1059.262
1057.735
1056.161
1054.921
1052.015
1129.113
1131.668
1131.876
1131.036
1129.801
1127.818
1124.635
1120.559
1116.595
1113.726
1112.282
1111.897
1111.917
1111.853
1111.54
1111.029
1110.397
1109.647
1108.73
1107.612
1106.32
1104.93
1103.527
1102.17
1100.875
1099.625
1098.391
1097.144
1095.862
1094.536
1093.165
1091.752
1090.301
1088.816
1087.306
1085.789
1084.295
1082.865
1081.547
1080.379
1079.383
1078.547
1077.828
1077.15
1076.42
1075.547
1074.462
1073.132
1071.564
1069.806
1067.934
1066.03
1064.168
1062.398
1060.74
1059.179
1057.707
1056.167
1054.942
1052.025
1131.945
1132.857
1132.214
1131.185
1129.695
1127.08
1123.242
1119.011
1115.546
1113.519
1112.797
1112.747
1112.755
1112.532
1112.077
1111.487
1110.797
1109.963
1108.931
1107.701
1106.336
1104.924
1103.541
1102.218
1100.952
1099.714
1098.473
1097.205
1095.895
1094.54
1093.141
1091.703
1090.229
1088.725
1087.205
1085.693
1084.226
1082.85
1081.61
1080.537
1079.635
1078.874
1078.19
1077.495
1076.696
1075.71
1074.486
1073.016
1071.331
1069.498
1067.6
1065.715
1063.908
1062.21
1060.627
1059.13
1057.701
1056.182
1054.963
1052.026
1133.755
1133.345
1132.403
1131.291
1129.304
1125.918
1121.629
1117.645
1114.97
1113.79
1113.577
1113.626
1113.498
1113.111
1112.56
1111.917
1111.159
1110.218
1109.064
1107.74
1106.332
1104.926
1103.575
1102.286
1101.038
1099.801
1098.544
1097.25
1095.911
1094.528
1093.103
1091.641
1090.146
1088.627
1087.104
1085.608
1084.183
1082.876
1081.726
1080.75
1079.934
1079.227
1078.55
1077.809
1076.912
1075.795
1074.429
1072.829
1071.049
1069.168
1067.27
1065.427
1063.687
1062.067
1060.553
1059.108
1057.71
1056.201
1054.978
1052.018
1134.523
1133.535
1132.626
1131.237
1128.478
1124.377
1120.021
1116.68
1114.924
1114.434
1114.469
1114.435
1114.129
1113.619
1113.013
1112.319
1111.468
1110.403
1109.136
1107.745
1106.326
1104.946
1103.631
1102.368
1101.128
1099.88
1098.601
1097.279
1095.911
1094.5
1093.051
1091.566
1090.053
1088.526
1087.009
1085.544
1084.176
1082.951
1081.898
1081.016
1080.271
1079.593
1078.893
1078.074
1077.058
1075.798
1074.293
1072.58
1070.731
1068.831
1066.959
1065.175
1063.511
1061.964
1060.512
1059.106
1057.727
1056.218
1054.986
1052
1134.671
1133.755
1132.839
1130.813
1127.158
1122.642
1118.683
1116.255
1115.355
1115.294
1115.338
1115.128
1114.669
1114.09
1113.445
1112.678
1111.709
1110.517
1109.16
1107.737
1106.332
1104.987
1103.705
1102.458
1101.214
1099.948
1098.642
1097.29
1095.895
1094.458
1092.986
1091.481
1089.954
1088.425
1086.927
1085.507
1084.212
1083.08
1082.125
1081.327
1080.632
1079.954
1079.199
1078.276
1077.124
1075.72
1074.088
1072.285
1070.395
1068.503
1066.678
1064.965
1063.377
1061.899
1060.496
1059.118
1057.746
1056.23
1054.983
1051.972
1134.708
1134.099
1132.821
1129.85
1125.445
1120.99
1117.836
1116.388
1116.121
1116.205
1116.102
1115.709
1115.156
1114.545
1113.85
1112.978
1111.875
1110.57
1109.157
1107.732
1106.358
1105.05
1103.791
1102.548
1101.292
1100.001
1098.666
1097.286
1095.863
1094.403
1092.908
1091.386
1089.851
1088.331
1086.867
1085.509
1084.3
1083.266
1082.405
1081.674
1081.001
1080.292
1079.452
1078.403
1077.106
1075.565
1073.824
1071.959
1070.057
1068.197
1066.435
1064.799
1063.285
1061.865
1060.498
1059.135
1057.762
1056.233
1054.97
1051.935
1134.965
1134.41
1132.312
1128.329
1123.588
1119.714
1117.59
1116.981
1117.04
1117.044
1116.738
1116.216
1115.624
1114.984
1114.205
1113.202
1111.968
1110.581
1109.146
1107.744
1106.408
1105.13
1103.883
1102.633
1101.356
1100.038
1098.673
1097.266
1095.818
1094.335
1092.82
1091.285
1089.75
1088.252
1086.838
1085.556
1084.443
1083.508
1082.728
1082.042
1081.362
1080.59
1079.638
1078.449
1077.007
1075.342
1073.517
1071.619
1069.731
1067.923
1066.236
1064.677
1063.228
1061.854
1060.512
1059.154
1057.771
1056.226
1054.946
1051.891
1135.445
1134.386
1131.153
1126.421
1121.919
1119.024
1117.918
1117.853
1117.946
1117.749
1117.272
1116.691
1116.086
1115.39
1114.492
1113.346
1112.004
1110.571
1109.145
1107.779
1106.478
1105.22
1103.973
1102.707
1101.405
1100.057
1098.665
1097.231
1095.76
1094.255
1092.723
1091.181
1089.658
1088.197
1086.848
1085.656
1084.643
1083.801
1083.084
1082.414
1081.694
1080.83
1079.747
1078.411
1076.833
1075.064
1073.183
1071.28
1069.431
1067.69
1066.081
1064.594
1063.201
1061.86
1060.53
1059.167
1057.77
1056.208
1054.912
1051.841
1135.887
1133.736
1129.386
1124.453
1120.747
1118.988
1118.667
1118.805
1118.733
1118.324
1117.753
1117.164
1116.533
1115.738
1114.694
1113.417
1112.003
1110.561
1109.164
1107.836
1106.563
1105.313
1104.056
1102.768
1101.437
1100.06
1098.641
1097.182
1095.689
1094.164
1092.62
1091.08
1089.582
1088.175
1086.907
1085.813
1084.9
1084.137
1083.458
1082.773
1081.982
1080.999
1079.772
1078.291
1076.593
1074.746
1072.84
1070.958
1069.166
1067.502
1065.969
1064.546
1063.196
1061.876
1060.547
1059.174
1057.76
1056.18
1054.869
1051.788
1135.893
1132.33
1127.274
1122.808
1120.258
1119.519
1119.622
1119.679
1119.368
1118.817
1118.227
1117.638
1116.939
1116.006
1114.814
1113.436
1111.988
1110.565
1109.207
1107.913
1106.655
1105.402
1104.127
1102.813
1101.452
1100.048
1098.602
1097.121
1095.606
1094.065
1092.516
1090.99
1089.533
1088.196
1087.021
1086.029
1085.206
1084.502
1083.832
1083.099
1082.207
1081.088
1079.712
1078.097
1076.301
1074.406
1072.502
1070.664
1068.944
1067.358
1065.896
1064.525
1063.205
1061.894
1060.559
1059.171
1057.739
1056.144
1054.819
1051.732
1135.112
1130.294
1125.226
1121.796
1120.46
1120.41
1120.576
1120.395
1119.885
1119.285
1118.713
1118.092
1117.274
1116.184
1114.863
1113.425
1111.98
1110.592
1109.272
1108.002
1106.749
1105.483
1104.184
1102.841
1101.451
1100.02
1098.551
1097.047
1095.513
1093.961
1092.416
1090.918
1089.519
1088.267
1087.193
1086.3
1085.553
1084.88
1084.188
1083.375
1082.359
1081.092
1079.572
1077.841
1075.973
1074.06
1072.184
1070.409
1068.767
1067.257
1065.856
1064.525
1063.222
1061.91
1060.562
1059.157
1057.708
1056.099
1054.764
1051.677
1133.439
1127.993
1123.664
1121.554
1121.192
1121.415
1121.389
1120.954
1120.346
1119.767
1119.201
1118.493
1117.519
1116.277
1114.866
1113.409
1111.991
1110.643
1109.354
1108.096
1106.837
1105.551
1104.224
1102.851
1101.434
1099.978
1098.486
1096.961
1095.412
1093.856
1092.328
1090.875
1089.55
1088.394
1087.424
1086.62
1085.926
1085.255
1084.506
1083.586
1082.428
1081.011
1079.359
1077.536
1075.628
1073.724
1071.899
1070.198
1068.634
1067.193
1065.842
1064.537
1063.24
1061.919
1060.556
1059.133
1057.668
1056.049
1054.706
1051.623
1131.087
1125.914
1122.876
1122.011
1122.197
1122.333
1122.017
1121.418
1120.814
1120.273
1119.66
1118.81
1117.668
1116.306
1114.849
1113.406
1112.027
1110.715
1109.446
1108.189
1106.915
1105.604
1104.248
1102.846
1101.403
1099.923
1098.409
1096.866
1095.306
1093.757
1092.261
1090.871
1089.634
1088.581
1087.709
1086.977
1086.309
1085.607
1084.77
1083.719
1082.411
1080.851
1079.087
1077.2
1075.281
1073.412
1071.653
1070.032
1068.543
1067.161
1065.845
1064.555
1063.254
1061.92
1060.539
1059.099
1057.621
1055.994
1054.646
1051.574
1128.533
1124.497
1122.923
1122.93
1123.211
1123.058
1122.502
1121.864
1121.317
1120.776
1120.05
1119.027
1117.735
1116.296
1114.834
1113.425
1112.086
1110.801
1109.541
1108.275
1106.979
1105.64
1104.254
1102.825
1101.358
1099.856
1098.322
1096.763
1095.201
1093.671
1092.225
1090.913
1089.776
1088.827
1088.042
1087.358
1086.683
1085.916
1084.964
1083.767
1082.308
1080.62
1078.771
1076.85
1074.948
1073.135
1071.453
1069.91
1068.489
1067.153
1065.86
1064.572
1063.262
1061.911
1060.512
1059.057
1057.568
1055.936
1054.586
1051.53
1126.373
1123.978
1123.637
1124.007
1124.056
1123.591
1122.927
1122.346
1121.846
1121.235
1120.342
1119.145
1117.743
1116.275
1114.837
1113.469
1112.164
1110.896
1109.633
1108.35
1107.027
1105.658
1104.244
1102.79
1101.3
1099.777
1098.224
1096.656
1095.103
1093.609
1092.229
1091.01
1089.978
1089.127
1088.409
1087.744
1087.03
1086.166
1085.078
1083.727
1082.127
1080.333
1078.427
1076.503
1074.642
1072.9
1071.299
1069.83
1068.464
1067.16
1065.878
1064.585
1063.26
1061.891
1060.475
1059.008
1057.511
1055.878
1054.529
1051.493
1125.078
1124.321
1124.705
1124.982
1124.671
1124.009
1123.374
1122.878
1122.361
1121.606
1120.525
1119.185
1117.724
1116.264
1114.865
1113.536
1112.254
1110.991
1109.717
1108.41
1107.059
1105.66
1104.219
1102.742
1101.23
1099.686
1098.119
1096.551
1095.02
1093.581
1092.283
1091.167
1090.24
1089.472
1088.796
1088.117
1087.329
1086.343
1085.104
1083.604
1081.879
1080.005
1078.074
1076.174
1074.374
1072.711
1071.188
1069.784
1068.461
1067.176
1065.895
1064.59
1063.247
1061.861
1060.431
1058.954
1057.453
1055.821
1054.477
1051.466
1124.831
1125.258
1125.795
1125.715
1125.107
1124.414
1123.885
1123.431
1122.811
1121.866
1120.611
1119.177
1117.703
1116.275
1114.918
1113.619
1112.35
1111.082
1109.789
1108.455
1107.073
1105.646
1104.181
1102.681
1101.148
1099.586
1098.011
1096.454
1094.964
1093.595
1092.394
1091.385
1090.554
1089.849
1089.185
1088.456
1087.564
1086.437
1085.043
1083.403
1081.578
1079.655
1077.728
1075.876
1074.15
1072.569
1071.118
1069.766
1068.472
1067.195
1065.906
1064.585
1063.224
1061.821
1060.38
1058.896
1057.394
1055.767
1054.431
1051.448
1125.491
1126.416
1126.675
1126.205
1125.474
1124.881
1124.452
1123.951
1123.155
1122.012
1120.627
1119.152
1117.698
1116.312
1114.991
1113.712
1112.445
1111.163
1109.846
1108.481
1107.07
1105.618
1104.13
1102.608
1101.055
1099.479
1097.905
1096.376
1094.943
1093.662
1092.566
1091.661
1090.911
1090.242
1089.555
1088.744
1087.723
1086.441
1084.898
1083.138
1081.24
1079.3
1077.404
1075.618
1073.973
1072.469
1071.081
1069.768
1068.489
1067.21
1065.908
1064.569
1063.191
1061.775
1060.324
1058.836
1057.336
1055.718
1054.395
1051.442
1126.678
1127.464
1127.267
1126.555
1125.882
1125.433
1125.025
1124.382
1123.376
1122.066
1120.606
1119.134
1117.719
1116.373
1115.079
1113.808
1112.534
1111.232
1109.885
1108.491
1107.052
1105.576
1104.067
1102.524
1100.953
1099.37
1097.811
1096.325
1094.969
1093.787
1092.8
1091.99
1091.297
1090.631
1089.887
1088.964
1087.795
1086.358
1084.678
1082.823
1080.884
1078.956
1077.114
1075.405
1073.842
1072.408
1071.069
1069.781
1068.507
1067.219
1065.9
1064.543
1063.15
1061.722
1060.266
1058.777
1057.282
1055.675
1054.369
1051.447
1127.95
1128.219
1127.636
1126.897
1126.389
1126.036
1125.54
1124.69
1123.483
1122.061
1120.58
1119.138
1117.765
1116.452
1115.173
1113.902
1112.613
1111.284
1109.907
1108.484
1107.02
1105.522
1103.991
1102.428
1100.844
1099.265
1097.736
1096.313
1095.048
1093.975
1093.092
1092.358
1091.694
1090.997
1090.162
1089.103
1087.778
1086.191
1084.396
1082.476
1080.528
1078.638
1076.866
1075.24
1073.754
1072.379
1071.075
1069.8
1068.522
1067.219
1065.881
1064.508
1063.101
1061.665
1060.206
1058.72
1057.234
1055.642
1054.356
1051.461
1128.971
1128.671
1127.924
1127.333
1126.99
1126.621
1125.942
1124.868
1123.507
1122.032
1120.568
1119.168
1117.833
1116.542
1115.269
1113.989
1112.678
1111.319
1109.912
1108.462
1106.976
1105.457
1103.904
1102.324
1100.734
1099.173
1097.693
1096.35
1095.189
1094.225
1093.434
1092.752
1092.084
1091.32
1090.364
1089.154
1087.672
1085.952
1084.069
1082.117
1080.188
1078.357
1076.665
1075.12
1073.702
1072.373
1071.09
1069.817
1068.528
1067.208
1065.852
1064.464
1063.047
1061.606
1060.146
1058.666
1057.194
1055.619
1054.357
1051.482
1129.605
1128.944
1128.273
1127.896
1127.624
1127.119
1126.205
1124.937
1123.486
1122.008
1120.582
1119.223
1117.916
1116.637
1115.363
1114.065
1112.726
1111.337
1109.901
1108.426
1106.919
1105.379
1103.806
1102.214
1100.63
1099.103
1097.69
1096.444
1095.393
1094.532
1093.814
1093.153
1092.444
1091.581
1090.483
1089.113
1087.484
1085.655
1083.715
1081.761
1079.877
1078.12
1076.512
1075.042
1073.68
1072.382
1071.109
1069.83
1068.524
1067.186
1065.814
1064.414
1062.989
1061.545
1060.089
1058.619
1057.163
1055.608
1054.372
1051.506
1129.916
1129.206
1128.764
1128.548
1128.21
1127.48
1126.337
1124.935
1123.455
1122.006
1120.622
1119.296
1118.008
1116.734
1115.448
1114.127
1112.757
1111.337
1109.875
1108.379
1106.851
1105.289
1103.699
1102.103
1100.541
1099.067
1097.739
1096.599
1095.658
1094.887
1094.214
1093.541
1092.756
1091.766
1090.512
1088.985
1087.227
1085.317
1083.352
1081.425
1079.606
1077.931
1076.404
1074.999
1073.679
1072.399
1071.126
1069.833
1068.51
1067.154
1065.769
1064.358
1062.929
1061.486
1060.037
1058.58
1057.144
1055.61
1054.398
1051.529
1130.086
1129.59
1129.393
1129.204
1128.676
1127.693
1126.37
1124.904
1123.438
1122.03
1120.684
1119.382
1118.104
1116.826
1115.521
1114.171
1112.769
1111.321
1109.837
1108.32
1106.771
1105.189
1103.588
1102
1100.476
1099.075
1097.847
1096.819
1095.981
1095.277
1094.618
1093.895
1093.002
1091.863
1090.448
1088.777
1086.915
1084.956
1082.998
1081.122
1079.38
1077.79
1076.336
1074.984
1073.691
1072.418
1071.136
1069.827
1068.486
1067.114
1065.716
1064.299
1062.868
1061.429
1059.991
1058.551
1057.137
1055.623
1054.433
1051.543
1130.314
1130.146
1130.088
1129.774
1128.986
1127.778
1126.348
1124.874
1123.446
1122.078
1120.761
1119.475
1118.2
1116.909
1115.579
1114.196
1112.764
1111.292
1109.787
1108.25
1106.678
1105.08
1103.477
1101.914
1100.448
1099.136
1098.019
1097.102
1096.349
1095.684
1095.003
1094.195
1093.167
1091.869
1090.297
1088.502
1086.567
1084.592
1082.667
1080.861
1079.203
1077.692
1076.301
1074.987
1073.71
1072.433
1071.137
1069.81
1068.452
1067.066
1065.66
1064.238
1062.809
1061.378
1059.954
1058.534
1057.143
1055.646
1054.472
1051.542
1130.729
1130.836
1130.75
1130.194
1129.144
1127.78
1126.312
1124.867
1123.48
1122.145
1120.848
1119.571
1118.291
1116.98
1115.618
1114.204
1112.744
1111.25
1109.726
1108.167
1106.575
1104.966
1103.375
1101.855
1100.467
1099.259
1098.256
1097.438
1096.748
1096.088
1095.348
1094.424
1093.243
1091.782
1090.069
1088.177
1086.201
1084.24
1082.373
1080.647
1079.073
1077.634
1076.291
1075.002
1073.728
1072.441
1071.127
1069.782
1068.409
1067.013
1065.6
1064.177
1062.753
1061.333
1059.927
1058.529
1057.161
1055.676
1054.509
1051.519
1131.352
1131.56
1131.286
1130.444
1129.185
1127.744
1126.29
1124.886
1123.535
1122.225
1120.942
1119.667
1118.373
1117.033
1115.639
1114.194
1112.712
1111.198
1109.653
1108.072
1106.464
1104.855
1103.293
1101.836
1100.542
1099.448
1098.554
1097.819
1097.16
1096.469
1095.635
1094.569
1093.225
1091.609
1089.778
1087.819
1085.836
1083.916
1082.123
1080.482
1078.987
1077.607
1076.299
1075.021
1073.741
1072.439
1071.107
1069.746
1068.359
1066.955
1065.539
1064.118
1062.702
1061.298
1059.912
1058.538
1057.188
1055.708
1054.535
1051.466
1132.107
1132.208
1131.646
1130.545
1129.16
1127.71
1126.293
1124.929
1123.605
1122.313
1121.039
1119.758
1118.44
1117.068
1115.641
1114.17
1112.668
1111.135
1109.568
1107.967
1106.35
1104.756
1103.241
1101.867
1100.681
1099.701
1098.905
1098.226
1097.564
1096.805
1095.847
1094.622
1093.115
1091.361
1089.44
1087.449
1085.488
1083.631
1081.921
1080.364
1078.938
1077.603
1076.316
1075.038
1073.746
1072.427
1071.077
1069.701
1068.304
1066.894
1065.478
1064.063
1062.659
1061.273
1059.91
1058.558
1057.221
1055.736
1054.541
1051.379
1132.868
1132.695
1131.829
1130.546
1129.119
1127.698
1126.323
1124.988
1123.686
1122.408
1121.135
1119.837
1118.489
1117.082
1115.626
1114.135
1112.614
1111.06
1109.47
1107.853
1106.239
1104.678
1103.232
1101.956
1100.885
1100.015
1099.297
1098.642
1097.94
1097.078
1095.971
1094.581
1092.92
1091.054
1089.074
1087.084
1085.171
1083.392
1081.769
1080.289
1078.918
1077.614
1076.335
1075.05
1073.741
1072.404
1071.038
1069.65
1068.245
1066.833
1065.419
1064.013
1062.625
1061.261
1059.921
1058.587
1057.254
1055.753
1054.518
1051.256
1133.508
1132.989
1131.877
1130.505
1129.092
1127.713
1126.372
1125.06
1123.775
1122.506
1121.225
1119.901
1118.518
1117.079
1115.599
1114.089
1112.549
1110.972
1109.362
1107.737
1106.142
1104.634
1103.275
1102.111
1101.156
1100.381
1099.712
1099.046
1098.265
1097.271
1096.001
1094.447
1092.654
1090.704
1088.701
1086.741
1084.896
1083.203
1081.662
1080.248
1078.919
1077.632
1076.351
1075.052
1073.726
1072.371
1070.991
1069.593
1068.184
1066.772
1065.364
1063.971
1062.603
1061.262
1059.944
1058.622
1057.281
1055.75
1054.457
1051.098
1133.951
1133.109
1131.848
1130.465
1129.093
1127.751
1126.433
1125.14
1123.87
1122.602
1121.302
1119.945
1118.527
1117.061
1115.561
1114.033
1112.472
1110.872
1109.246
1107.627
1106.069
1104.635
1103.379
1102.333
1101.486
1100.783
1100.131
1099.414
1098.522
1097.373
1095.935
1094.231
1092.331
1090.333
1088.339
1086.433
1084.669
1083.063
1081.597
1080.235
1078.933
1077.65
1076.359
1075.044
1073.7
1072.329
1070.938
1069.533
1068.122
1066.713
1065.316
1063.94
1062.593
1061.276
1059.975
1058.656
1057.293
1055.719
1054.35
1050.912
1134.179
1133.112
1131.799
1130.45
1129.119
1127.803
1126.504
1125.23
1123.97
1122.691
1121.362
1119.968
1118.518
1117.03
1115.514
1113.967
1112.381
1110.761
1109.13
1107.533
1106.033
1104.691
1103.551
1102.621
1101.865
1101.205
1100.532
1099.727
1098.694
1097.378
1095.778
1093.946
1091.971
1089.958
1088.001
1086.169
1084.493
1082.968
1081.564
1080.24
1078.951
1077.665
1076.359
1075.025
1073.664
1072.28
1070.881
1069.472
1068.061
1066.659
1065.276
1063.92
1062.597
1061.301
1060.01
1058.683
1057.282
1055.654
1054.195
1050.712
1134.233
1133.062
1131.768
1130.465
1129.162
1127.864
1126.585
1125.327
1124.067
1122.766
1121.4
1119.971
1118.496
1116.99
1115.457
1113.887
1112.278
1110.644
1109.021
1107.467
1106.046
1104.812
1103.79
1102.966
1102.278
1101.626
1100.892
1099.967
1098.773
1097.288
1095.541
1093.609
1091.594
1089.598
1087.703
1085.955
1084.365
1082.912
1081.557
1080.256
1078.969
1077.671
1076.348
1074.996
1073.62
1072.226
1070.82
1069.41
1068.003
1066.612
1065.246
1063.913
1062.614
1061.334
1060.043
1058.693
1057.24
1055.549
1053.993
1050.516
1134.187
1133.015
1131.768
1130.499
1129.213
1127.933
1126.675
1125.429
1124.155
1122.821
1121.417
1119.957
1118.463
1116.942
1115.388
1113.794
1112.164
1110.526
1108.93
1107.44
1106.116
1105
1104.095
1103.359
1102.706
1102.023
1101.191
1100.118
1098.754
1097.108
1095.238
1093.24
1091.219
1089.268
1087.45
1085.791
1084.281
1082.887
1081.566
1080.275
1078.981
1077.667
1076.326
1074.958
1073.57
1072.167
1070.758
1069.349
1067.95
1066.574
1065.229
1063.92
1062.641
1061.37
1060.067
1058.679
1057.159
1055.402
1053.752
1050.351
1134.113
1132.996
1131.794
1130.542
1129.271
1128.013
1126.775
1125.527
1124.226
1122.853
1121.414
1119.932
1118.422
1116.883
1115.306
1113.687
1112.045
1110.419
1108.871
1107.465
1106.253
1105.257
1104.456
1103.781
1103.127
1102.373
1101.412
1100.173
1098.64
1096.85
1094.889
1092.859
1090.863
1088.979
1087.248
1085.675
1084.234
1082.885
1081.583
1080.291
1078.985
1077.653
1076.294
1074.912
1073.514
1072.106
1070.695
1069.291
1067.905
1066.547
1065.225
1063.94
1062.676
1061.403
1060.073
1058.631
1057.034
1055.217
1053.486
1050.249
1134.065
1133.009
1131.831
1130.589
1129.338
1128.106
1126.879
1125.613
1124.275
1122.862
1121.395
1119.897
1118.372
1116.812
1115.21
1113.571
1111.927
1110.333
1108.854
1107.55
1106.459
1105.579
1104.861
1104.213
1103.518
1102.657
1101.542
1100.13
1098.437
1096.531
1094.512
1092.485
1090.541
1088.739
1087.097
1085.601
1084.216
1082.897
1081.602
1080.301
1078.978
1077.628
1076.253
1074.86
1073.454
1072.043
1070.635
1069.239
1067.868
1066.532
1065.235
1063.969
1062.712
1061.424
1060.051
1058.544
1056.866
1055.003
1053.221
1050.247
1134.058
1133.039
1131.869
1130.642
1129.419
1128.21
1126.978
1125.679
1124.299
1122.853
1121.367
1119.854
1118.312
1116.728
1115.1
1113.449
1111.822
1110.281
1108.891
1107.704
1106.734
1105.955
1105.292
1104.633
1103.857
1102.858
1101.572
1099.99
1098.16
1096.17
1094.128
1092.135
1090.263