/*--------------------------------*- C++ -*----------------------------------*\
| =========                 |                                                 |
| \\      /  F ield         | OpenFOAM: The Open Source CFD Toolbox           |
|  \\    /   O peration     | Version:  2312                                  |
|   \\  /    A nd           | Website:  www.openfoam.com                      |
|    \\/     M anipulation  |                                                 |
\*---------------------------------------------------------------------------*/
FoamFile
{
    version     2.0;
    format      ascii;
    arch        "LSB;label=32;scalar=64";
    class       volScalarField;
    location    "2000";
    object      ILambda_15_0;
}
// * * * * * * * * * * * * * * * * * * * * * * * * * * * * * * * * * * * * * //

dimensions      [1 0 -3 0 0 0 0];

internalField   nonuniform List<scalar> 
12000
(
720.8495
682.531
680.0048
678.6044
677.6213
676.7148
675.787
674.82
673.8538
672.94
672.0975
671.3126
670.5542
669.793
669.0111
668.2048
667.3778
666.5336
665.675
664.8101
663.9489
663.0914
662.2276
661.3505
660.4615
659.5606
658.6431
657.7074
656.7582
655.7979
654.8232
653.8317
652.8315
651.8438
650.8822
649.9454
648.9908
647.9416
646.7805
645.7137
644.8448
643.9404
642.6123
640.8987
639.3922
638.2825
636.7584
634.5334
632.3049
630.3252
627.8111
624.4586
620.7547
616.7701
611.867
605.8365
599.2457
591.2262
573.0368
505.7053
706.9279
678.0245
679.3427
677.9905
677.0871
676.1737
675.2265
674.2607
673.3251
672.4549
671.6495
670.8845
670.1287
669.3591
668.5654
667.7488
666.9136
666.0632
665.2025
664.3407
663.4833
662.6248
661.7555
660.8726
659.9779
659.0694
658.1431
657.2005
656.2458
655.2788
654.2961
653.3002
652.3055
651.3316
650.3854
649.445
648.4476
647.3426
646.2154
645.2385
644.3603
643.2617
641.7391
640.0905
638.7543
637.4805
635.6264
633.3455
631.1973
628.9813
626.0603
622.4732
618.5401
614.0317
608.749
603.3599
597.2449
581.8466
535.903
449.8421
696.335
676.0214
678.9395
677.4168
676.5771
675.6476
674.6948
673.7494
672.8555
672.0291
671.2544
670.502
669.7447
668.9664
668.1631
667.3389
666.4983
665.6453
664.7864
663.9294
663.0747
662.2138
661.3395
660.4516
659.5512
658.6353
657.7019
656.7539
655.794
654.8205
653.8319
652.8366
651.8523
650.8947
649.9569
648.9959
647.9486
646.8218
645.752
644.8267
643.8637
642.5685
640.9533
639.4127
638.1206
636.6112
634.5244
632.2413
630.0562
627.5322
624.2485
620.3827
616.0926
611.3505
606.6253
601.592
589.9231
556.1515
490.7084
425.9177
688.8982
675.5417
678.5508
676.8697
676.0827
675.1372
674.1958
673.2856
672.438
671.6505
670.898
670.1514
669.3891
668.6019
667.7908
666.9611
666.1174
665.2647
664.4099
663.5573
662.7032
661.8386
660.9593
660.0665
659.16
658.2371
657.2976
656.3448
655.3795
654.3999
653.4087
652.4191
651.4495
650.5059
649.5635
648.5663
647.4778
646.3641
645.3549
644.424
643.3205
641.8641
640.2449
638.7996
637.4335
635.6685
633.4397
631.1565
628.8236
625.9368
622.2815
618.1015
613.6691
609.3965
605.1621
596.5842
571.733
519.6862
454.5399
421.5808
684.0464
675.7495
678.0732
676.3499
675.6001
674.6474
673.7337
672.8672
672.064
671.3072
670.5681
669.821
669.0513
668.2558
667.4383
666.6049
665.7602
664.9099
664.0596
663.2098
662.354
661.4846
660.6002
659.702
658.7892
657.8597
656.9148
655.9571
654.9863
654.0022
653.0124
652.0336
651.0797
650.1424
649.1799
648.1408
647.0322
645.9555
644.9841
643.9874
642.7236
641.1673
639.596
638.1866
636.6598
634.6672
632.3609
630.0308
627.4418
624.1379
620.118
615.8171
611.7961
608.1331
601.8812
583.8946
542.983
482.7278
433.7546
428.1403
681.0872
676.1053
677.5061
675.8604
675.1292
674.184
673.3102
672.4896
671.7244
670.9888
670.2548
669.5028
668.7246
667.9214
667.0991
666.2635
665.4196
664.5727
663.7261
662.8768
662.0172
661.1423
660.2524
659.3486
658.4291
657.4934
656.5434
655.5806
654.6047
653.6188
652.6353
651.6707
650.7293
649.786
648.7912
647.7162
646.6122
645.5779
644.6026
643.4933
642.0853
640.4924
638.9758
637.5233
635.7924
633.6246
631.2639
628.7983
625.8454
622.1114
617.9062
613.9522
610.6216
606.0277
593.2628
561.8332
509.1015
453.8363
427.5346
438.7825
679.3775
676.3363
676.8934
675.4015
674.6736
673.7525
672.9247
672.1467
671.4105
670.6866
669.9514
669.1915
668.4045
667.5948
666.7691
665.9328
665.0908
664.2473
663.4026
662.5512
661.6864
660.8055
659.91
658.9999
658.0739
657.1324
656.1772
655.2093
654.2297
653.246
652.2731
651.323
650.3862
649.4238
648.3919
647.2967
646.2158
645.2087
644.1819
642.9379
641.4256
639.8406
638.3469
636.7796
634.8427
632.5482
630.1032
627.3829
623.9986
619.9725
615.997
612.7602
609.2558
600.3787
576.8552
532.622
477.2951
437.0656
431.3006
448.1302
678.4086
676.3541
676.2834
674.9708
674.2389
673.3557
672.5741
671.8315
671.1144
670.3941
669.6529
668.8837
668.0886
667.2738
666.4459
665.6101
664.7705
663.9294
663.0843
662.2287
661.3577
660.4707
659.5691
658.6526
657.7201
656.773
655.8127
654.8403
653.8598
652.8826
651.9231
650.9839
650.0405
649.0486
647.9842
646.8872
645.8349
644.8237
643.7053
642.3314
640.7615
639.1989
637.6746
635.9458
633.8261
631.4214
628.809
625.7269
621.9751
618.0133
614.6985
611.7931
605.7096
588.6019
552.8258
501.2886
453.298
431.879
439.3736
453.5187
677.826
676.1744
675.7103
674.5656
673.8306
672.994
672.2535
671.5368
670.8294
670.1063
669.3562
668.5776
667.7754
666.9569
666.128
665.2934
664.456
663.6156
662.7678
661.9065
661.0287
660.1355
659.2277
658.3045
657.3659
656.4133
655.4482
654.4731
653.4954
652.5285
651.5822
650.6462
649.6846
648.659
647.5737
646.4898
645.4556
644.4024
643.1693
641.6905
640.1002
638.5453
636.9347
635.0255
632.7451
630.1971
627.3123
623.8568
620.0075
616.5625
613.8662
609.6607
597.5989
569.6452
524.0961
473.4103
439.5862
434.7139
447.1741
455.109
677.4117
675.8553
675.1909
674.1842
673.4525
672.6647
671.9565
671.2561
670.5503
669.8197
669.0594
668.2719
667.4641
666.6432
665.8144
664.9812
664.145
663.3033
662.4508
661.5828
660.6983
659.7987
658.8844
657.9548
657.0103
656.0526
655.0837
654.1085
653.1376
652.1833
651.2462
650.3032
649.3142
648.2581
647.1663
646.1005
645.0607
643.9311
642.5805
641.0306
639.4377
637.8559
636.1149
634.0224
631.5762
628.8123
625.5993
621.9388
618.4147
615.6809
612.5988
604.3395
583.2484
544.7055
495.1825
453.0272
435.3327
441.1505
452.3649
454.5307
677.0499
675.4607
674.7289
673.8261
673.1061
672.3628
671.6767
670.9834
670.2728
669.5321
668.7614
667.9663
667.1545
666.3323
665.5041
664.672
663.8355
662.9905
662.132
661.2568
660.3656
659.4597
658.5389
657.603
656.6529
655.6908
654.7201
653.7484
652.7875
651.8449
650.9099
649.9493
648.929
647.8513
646.7649
645.7097
644.6338
643.405
641.9512
640.3607
638.7615
637.1108
635.2086
632.9251
630.2734
627.2315
623.7711
620.254
617.3853
614.8551
609.2924
593.9409
562.5905
516.9179
470.4945
441.5909
437.6052
447.6494
454.6591
453.3665
676.6918
675.0418
674.32
673.4918
672.7896
672.0825
671.4081
670.714
669.9944
669.2423
668.462
667.6609
666.8465
666.024
665.1965
664.3645
663.5259
662.676
661.8104
660.9282
660.0305
659.1181
658.1909
657.249
656.2939
655.3287
654.3589
653.3942
652.4449
651.5101
650.5676
649.5812
648.5317
647.4437
646.3672
645.3043
644.1628
642.827
641.294
639.6819
638.0553
636.2937
634.2036
631.7023
628.7968
625.5036
622.0522
619.0539
616.7018
612.9013
602.112
577.5673
537.4006
490.2612
452.9321
438.1066
442.922
452.2828
454.9284
452.7787
676.3259
674.6329
673.9571
673.1811
672.4992
671.8171
671.1453
670.4446
669.7133
668.9499
668.1616
667.3561
666.5402
665.7178
664.8905
664.0574
663.215
662.3588
661.4859
660.5967
659.6926
658.7739
657.8404
656.8929
655.934
654.9677
654.002
653.047
652.1081
651.1741
650.2146
649.1986
648.1267
647.0381
645.9661
644.8706
643.6414
642.2056
640.6183
638.9879
637.3008
635.3862
633.0747
630.3186
627.162
623.792
620.7049
618.3303
615.5652
608.2
589.6962
555.8349
510.7885
468.2527
443.2837
440.0716
448.4494
454.6254
454.417
453.5574
675.9578
674.2526
673.6324
672.8927
672.2293
671.5608
670.884
670.1727
669.4289
668.6553
667.8606
667.0522
666.2356
665.4132
664.5853
663.7495
662.9018
662.0385
661.1583
660.2625
659.352
658.427
657.4876
656.5354
655.574
654.6095
653.6509
652.7066
651.774
650.8321
649.8479
648.8035
647.7183
646.6331
645.5511
644.3973
643.0701
641.551
639.9282
638.2665
636.4761
634.3618
631.7901
628.7714
625.4796
622.336
619.8524
617.6108
612.6567
599.2129
571.7779
530.8253
486.2221
452.9854
440.4595
444.6166
452.5563
455.2575
454.3116
456.1923
675.5981
673.9082
673.3389
672.6239
671.9737
671.3084
670.6214
669.8973
669.1412
668.3591
667.5596
666.7495
665.9325
665.1097
664.2799
663.4398
662.5857
661.715
660.8278
659.9254
659.0087
658.0775
657.1328
656.1772
655.2156
654.2556
653.3064
652.3712
651.4383
650.4795
649.467
648.3995
647.309
646.2231
645.1103
643.8776
642.4544
640.8725
639.2208
637.4986
635.5519
633.1879
630.3366
627.1313
623.9497
621.3259
619.2779
615.9045
606.469
585.0755
549.44
505.5043
466.5178
444.7951
442.2524
449.3997
454.8269
455.2514
455.5046
460.5607
675.2567
673.5997
673.0702
672.3706
671.7266
671.0559
670.3554
669.6179
668.8508
668.0619
667.2593
666.4481
665.6306
664.8064
663.9732
663.1276
662.2663
661.3883
660.4943
659.5856
658.6627
657.7259
656.7768
655.8194
654.8602
653.9075
652.968
652.0377
651.0963
650.1138
649.0734
647.9902
646.8977
645.7993
644.6333
643.3103
641.8029
640.1754
638.4849
636.6555
634.4921
631.8419
628.755
625.5567
622.7845
620.7279
618.3021
611.8719
595.802
566.0172
524.9
482.8731
453.171
442.5347
446.2286
453.065
455.7516
455.72
458.3639
465.8285
674.9396
673.3232
672.8204
672.1283
671.4828
670.8008
670.0852
669.3348
668.5585
667.7646
666.9599
666.1479
665.3292
664.5024
663.6645
662.8124
661.9437
661.0585
660.1579
659.2431
658.3143
657.3724
656.4203
655.4634
654.5093
653.5655
652.6338
651.7021
650.744
649.7341
648.67
647.5775
646.4799
645.3514
644.1134
642.6992
641.1242
639.4574
637.6978
635.6997
633.2652
630.3411
627.1652
624.2536
622.0684
620.1315
615.8287
604.1934
580.2331
543.4294
500.9209
465.183
446.1931
444.2217
450.434
455.2877
456.2814
457.4402
462.5887
470.6993
674.6495
673.0727
672.5841
671.892
671.2384
670.5413
669.8106
669.0487
668.2652
667.4677
666.6615
665.8483
665.0275
664.1969
663.3532
662.4939
661.6178
660.7257
659.8189
658.898
657.9637
657.0179
656.0647
655.1108
654.164
653.229
652.3009
651.36
650.3788
649.3415
648.2595
647.1606
646.048
644.8702
643.5486
642.0514
640.4227
638.7052
636.8251
634.5925
631.8677
628.7699
625.7516
623.3738
621.604
618.7071
610.58
592.0113
560.3739
519.5566
480.0828
453.471
444.4101
447.7644
453.7663
456.5177
457.3619
460.593
467.3063
474.0494
674.386
672.8417
672.3561
671.6576
670.9906
670.277
669.5321
668.7605
667.9715
667.1715
666.3639
665.5489
664.7249
663.8892
663.0388
662.172
661.2887
660.39
659.4771
658.5506
657.6116
656.6633
655.7113
654.7628
653.8244
652.896
651.9653
651.0077
649.9998
648.9382
647.8437
646.7358
645.5933
644.3491
642.9417
641.374
639.6945
637.892
635.8253
633.3127
630.3511
627.2834
624.6968
622.8774
620.8178
615.3257
601.464
575.2826
537.8085
496.9311
464.1718
447.5134
446.0288
451.5316
455.9991
457.5652
459.5572
464.73
471.4504
475.4385
674.1462
672.6237
672.1319
671.4215
670.738
670.0079
669.2506
668.4712
667.6781
666.8761
666.0667
665.249
664.4206
663.5787
662.7211
661.8469
660.9567
660.0517
659.1329
658.2012
657.2587
656.3099
655.3614
654.4201
653.4896
652.5635
651.623
650.6427
649.6077
648.5265
647.4219
646.2966
645.1075
643.7862
642.298
640.669
638.9222
636.9792
634.6649
631.8821
628.8367
626.0688
624.0686
622.4139
618.7856
608.8274
587.9489
554.906
514.7374
477.7543
453.8676
446.1357
449.2439
454.6388
457.5377
459.171
462.8669
469.0014
474.231
475.2304
673.926
672.4128
671.9077
671.1816
670.48
669.7346
668.9668
668.1814
667.3853
666.5813
665.7694
664.9478
664.1139
663.2652
662.4001
661.5186
660.6218
659.7108
658.7865
657.8505
656.9061
655.959
655.0161
654.0828
653.1576
652.2279
651.2706
650.2641
649.2042
648.1078
646.9906
645.8354
644.585
643.1831
641.6221
639.9284
638.075
635.9273
633.3404
630.386
627.4981
625.2606
623.6983
621.2835
614.4038
598.3646
570.3088
532.5729
493.4514
463.4259
448.7777
447.716
452.6937
456.9352
459.0411
461.6985
466.7908
472.5437
475.432
474.2486
673.7205
672.2041
671.6808
670.9364
670.217
669.458
668.6819
667.8918
667.093
666.2866
665.4713
664.6448
663.8045
662.9484
662.0759
661.1874
660.2842
659.3675
658.4384
657.4994
656.5551
655.6119
654.676
653.7496
652.8254
651.8853
650.9056
649.8722
648.7912
647.6812
646.5447
645.3454
644.0238
642.5434
640.9122
639.1305
637.114
634.7148
631.9021
628.9719
626.5028
624.8284
623.1021
618.5187
606.6665
583.7027
549.6517
510.3925
475.8132
454.3453
447.7502
450.6929
455.6685
458.7681
461.0574
465.0328
470.5906
474.8264
475.3921
473.3008
673.5247
671.9935
671.4491
670.6855
669.9495
669.1793
668.3964
667.6026
666.8011
665.9915
665.1717
664.3393
663.4919
662.6283
661.7485
660.8534
659.9442
659.0222
658.0893
657.1489
656.2068
655.2694
654.3408
653.4185
652.4897
651.5326
650.5271
649.4683
648.3696
647.2441
646.0777
644.8217
643.4244
641.8679
640.1551
638.2421
636.0072
633.361
630.4639
627.8138
625.9182
624.4804
621.4927
613.085
594.9703
565.3752
527.7121
490.4148
462.9002
450.0026
449.3206
453.9265
458.0645
460.6514
463.7933
468.6916
473.6121
475.7979
474.737
472.8349
673.3339
671.7783
671.2118
670.4294
669.6787
668.8992
668.111
667.3138
666.5091
665.6954
664.8702
664.031
663.1762
662.3051
661.4182
660.5167
659.602
658.6756
657.7401
656.8003
655.8624
654.9317
654.0091
653.0867
652.1468
651.1674
650.1351
649.0538
647.9387
646.7921
645.584
644.2622
642.7877
641.1497
639.3253
637.228
634.7504
631.9441
629.1867
627.0398
625.611
623.6244
617.9027
604.1511
579.3445
544.6347
506.4779
474.2011
454.8924
449.2857
452.1353
456.84
460.1631
462.9707
467.0729
472.0672
475.5166
475.798
474.0521
472.8823
673.1441
671.5567
670.9687
670.1687
669.4056
668.6185
667.8258
667.0251
666.2166
665.3978
664.5662
663.7197
662.8572
661.9788
661.0852
660.1778
659.2581
658.3282
657.3919
656.4548
655.5226
654.5985
653.679
652.7509
651.7937
650.7887
649.7305
648.6293
647.4963
646.32
645.0595
643.6659
642.1099
640.3707
638.3901
636.0688
633.3883
630.599
628.2276
626.6387
625.1783
621.4232
611.3991
591.3479
560.5292
523.2117
487.766
462.5601
451.2026
450.8741
455.2328
459.353
462.3492
465.8202
470.4619
474.6739
476.3393
475.3306
473.6707
473.2069
672.952
671.3281
670.7203
669.9045
669.131
668.3378
667.5408
666.7362
665.9228
665.098
664.2593
663.4052
662.5352
661.6496
660.7497
659.8369
658.913
657.9811
657.0459
656.1132
655.1874
654.2683
653.3474
652.4076
651.4282
650.3963
649.3143
648.1943
647.0389
645.8235
644.5017
643.0301
641.3786
639.5031
637.322
634.7816
632.0235
629.4863
627.6604
626.3757
623.9473
616.9452
601.3341
574.9332
539.8691
502.9547
472.8715
455.5018
450.7693
453.5892
458.1349
461.6803
464.8801
468.9991
473.4718
476.2999
476.3875
474.8324
473.6358
473.5182
672.7555
671.0926
670.4675
669.6378
668.8558
668.0572
667.2558
666.4464
665.6273
664.7957
663.9494
663.0876
662.2102
661.3179
660.4121
659.4945
658.5676
657.6354
656.7032
655.776
654.8561
653.939
653.0114
652.054
651.0491
649.9907
648.8869
647.7472
646.5629
645.2988
643.9072
642.3459
640.5718
638.5178
636.1184
633.4359
630.8019
628.7307
627.3891
625.7537
621.0642
609.3809
587.5562
555.806
519.0553
485.4595
462.3795
452.3912
452.4014
456.6116
460.7677
464.0984
467.7739
472.1304
475.7461
477.0211
476.0607
474.5387
473.7999
473.6486
672.5531
670.8508
670.2112
669.3695
668.5804
667.7765
666.9703
666.1553
665.3296
664.4905
663.6365
662.767
661.8824
660.9837
660.0727
659.1513
658.2228
657.2921
656.3644
655.4432
654.5273
653.6077
652.6676
651.6879
650.6559
649.5726
648.4482
647.2855
646.0644
644.7422
643.2692
641.596
639.6617
637.3992
634.8193
632.1525
629.8705
628.3413
627.0847
624.0467
615.6618
598.266
570.5164
535.3611
499.7882
471.7875
456.1694
452.223
455.0668
459.5342
463.2842
466.7673
470.8268
474.8274
477.1575
477.105
475.6863
474.4735
473.9768
473.632
672.3443
670.604
669.9525
669.1004
668.3049
667.4956
666.6837
665.8623
665.0293
664.1823
663.3204
662.4434
661.552
660.6476
659.732
658.808
657.8797
656.9522
656.0298
655.1137
654.1987
653.2714
652.3134
651.308
650.249
649.1425
647.9971
646.8064
645.5396
644.1473
642.5736
640.7557
638.6262
636.164
633.5161
631.0783
629.3095
628.1368
626.1751
620.4137
607.0671
583.6465
551.2315
515.2254
483.4573
462.339
453.5801
453.9211
458.0582
462.2798
465.8729
469.6562
473.719
476.8308
477.7999
476.8697
475.4343
474.5329
474.0734
473.6911
672.1291
670.3533
669.6922
668.8309
668.0291
667.214
666.3956
665.567
664.7261
663.8711
663.0014
662.1172
661.2194
660.3098
659.3907
658.4656
657.5392
656.6161
655.6992
654.7861
653.8675
652.927
651.9465
650.9138
649.8289
648.7005
647.532
646.3066
644.9829
643.5029
641.7991
639.8003
637.4646
634.8746
632.3405
630.3342
629.0573
627.7046
623.907
614.073
594.9941
566.1329
531.1125
496.9478
470.92
456.8935
453.6642
456.5751
461.0194
464.9467
468.6222
472.5705
476.1475
478.0704
477.9029
476.5658
475.3228
474.6043
474.153
474.1425
671.908
670.0999
669.431
668.5611
667.7529
666.931
666.1055
665.269
664.4199
663.5568
662.6795
661.7884
660.8849
659.971
659.0497
658.1251
657.202
656.284
655.3714
654.4581
653.5308
652.5719
651.5656
650.5053
649.3961
648.2461
647.0508
645.7815
644.3847
642.7903
640.9207
638.7177
636.2142
633.6395
631.4296
629.9471
628.8505
626.4178
619.4767
604.495
579.6635
546.8243
511.7044
481.7279
462.4242
454.7794
455.4463
459.5658
463.8646
467.6543
471.4715
475.2435
477.9261
478.6455
477.7214
476.3224
475.2911
474.6641
474.4171
475.2555
671.6818
669.8448
669.1692
668.2907
667.4756
666.6463
665.8128
664.968
664.1106
663.2396
662.3549
661.4575
660.5489
659.6318
658.7098
657.7873
656.8686
655.9555
655.0448
654.1269
653.1857
652.204
651.1699
650.083
648.9512
647.7786
646.5501
645.2229
643.729
641.9857
639.9196
637.5246
634.9575
632.5933
630.8683
629.7822
628.2065
623.5196
612.2032
591.5615
561.8141
527.1212
494.4065
470.246
457.6736
455.1058
458.1169
462.5736
466.6461
470.4394
474.2425
477.44
479.0229
478.7516
477.4519
476.1635
475.2927
474.8159
475.1172
477.1164
671.4513
669.5887
668.9068
668.0196
667.1968
666.3594
665.5174
664.664
663.7983
662.9195
662.0279
661.1247
660.2121
659.2931
658.3719
657.4528
656.5388
655.6292
654.7172
653.7897
652.8295
651.8216
650.7596
649.6478
648.4944
647.2959
646.0235
644.6174
642.9936
641.0663
638.7965
636.278
633.8144
631.8532
630.624
629.5012
626.4635
618.2633
601.7012
575.6453
542.5976
508.4753
480.2451
462.6242
455.9971
456.9855
461.1265
465.502
469.43
473.2254
476.7155
479.0283
479.5356
478.5955
477.2002
476.0701
475.3624
475.2561
476.4328
479.5601
671.2174
669.332
668.6436
667.7471
666.916
666.0698
665.219
664.3569
663.4831
662.5968
661.6988
660.7906
659.8751
658.9557
658.0368
657.1219
656.2121
655.3034
654.3858
653.4435
652.4601
651.4243
650.3352
649.2006
648.0252
646.794
645.4603
643.9451
642.1543
640.0218
637.5861
635.0771
632.9133
631.4603
630.4902
628.5661
622.8821
610.0783
588.0077
557.5853
523.383
492.1409
469.7469
458.5101
456.5576
459.6923
464.1817
468.366
472.2169
475.8532
478.7093
480.0017
479.6304
478.3365
477.0033
476.0497
475.6284
476.1842
478.3704
482.2069
670.9808
669.0746
668.3793
667.4729
666.6327
665.7773
664.9175
664.0468
663.165
662.2717
661.3679
660.4558
659.5387
658.6204
657.7048
656.7943
655.887
654.9759
654.0477
653.086
652.0761
651.012
649.898
648.7421
647.5414
646.2645
644.8431
643.1817
641.1931
638.8678
636.3639
634.0461
632.3431
631.3194
630.0629
626.2996
616.7877
598.7208
571.6249
538.56
505.5219
478.987
462.9311
457.2396
458.544
462.7319
467.1758
471.1912
474.9235
478.1434
480.1328
480.4527
479.4786
478.0701
476.8799
476.1767
476.265
477.6999
480.7311
484.5928
670.742
668.8165
668.1134
667.1964
666.3467
665.4817
664.6128
663.7337
662.8442
661.9444
661.0358
660.121
659.2037
658.2878
657.3762
656.4691
655.5619
654.644
653.7004
652.7148
651.6768
650.5857
649.4492
648.2719
647.0376
645.6932
644.149
642.3046
640.1105
637.6568
635.2404
633.2993
632.0954
631.1566
628.7642
621.9967
607.7256
584.368
553.4664
519.8918
490.1301
469.408
459.4032
458.0261
461.2994
465.8307
470.094
473.9542
477.4105
479.9576
480.9954
480.5243
479.2159
477.85
476.8784
476.5842
477.4104
479.7351
483.1633
486.3381
670.5013
668.5572
667.8455
666.9174
666.0577
665.183
664.3051
663.4178
662.5211
661.6155
660.7031
659.787
658.871
657.9583
657.0505
656.1451
655.2344
654.305
653.3411
652.3289
651.2627
650.1469
648.9897
647.787
646.5027
645.0595
643.3531
641.303
638.9379
636.4797
634.3375
632.8902
632.0123
630.5129
625.9184
615.0667
595.587
567.6301
534.7171
502.8289
477.935
463.3382
458.5114
460.1242
464.3741
468.8729
472.9324
476.5708
479.5327
481.2347
481.3838
480.3625
478.9362
477.7267
477.0952
477.4123
479.0885
482.0534
485.2824
487.2743
670.2589
668.2962
667.575
666.6354
665.7655
664.8812
663.9945
663.0992
662.1959
661.2856
660.3706
659.4546
658.5409
657.6319
656.7269
655.8204
654.9018
653.9562
652.9681
651.9277
650.8348
649.6972
648.5188
647.2798
645.9195
644.3387
642.437
640.1902
637.7443
635.453
633.7475
632.7571
631.7586
628.7858
620.8699
605.172
580.6741
549.4734
516.641
488.3559
469.2167
460.3531
459.5155
462.9351
467.5096
471.821
475.652
478.9207
481.1853
481.9948
481.4233
480.09
478.7109
477.7765
477.654
478.739
481.1728
484.3198
486.8007
487.4769
670.0145
668.0331
667.3018
666.3505
665.4702
664.5763
663.681
662.7783
661.8692
660.9551
660.039
659.1243
658.2138
657.308
656.4037
655.4927
654.5616
653.5951
652.5801
651.5118
650.395
649.2374
648.0321
646.7368
645.2647
643.5073
641.399
639.0134
636.6323
634.6888
633.483
632.6817
630.8322
625.3168
613.1191
592.3305
563.6848
531.072
500.3819
477.0733
463.8402
459.8157
461.7268
466.0453
470.583
474.6499
478.1716
480.8873
482.3294
482.3193
481.2435
479.8043
478.6149
478.1038
478.6559
480.527
483.411
486.2108
487.6137
487.2
669.7681
667.7674
667.0255
666.0623
665.1717
664.2684
663.3649
662.4555
661.5415
660.625
659.7091
658.7967
657.8894
656.9856
656.0793
655.1594
654.2111
653.22
652.177
651.0828
649.9452
648.7659
647.5198
646.1376
644.5131
642.5529
640.2664
637.856
635.7183
634.2514
633.4279
632.2753
628.6205
619.5113
602.4443
576.9538
545.6187
513.6232
486.8021
469.1626
461.3594
461.028
464.5956
469.2088
473.5401
477.3113
480.3883
482.392
482.9926
482.3212
480.9613
479.5928
478.7408
478.8134
480.1255
482.6133
485.4995
487.5155
487.8094
486.7527
669.5192
667.4988
666.746
665.771
664.8702
663.9578
663.0466
662.1312
661.2136
660.296
659.3814
658.4719
657.5672
656.6633
655.7512
654.8178
653.8481
652.8301
651.7599
650.6428
649.4854
648.2763
646.9653
645.4573
643.6447
641.4851
639.1013
636.8273
635.0983
634.1085
633.3074
631.005
624.4957
610.965
588.9801
559.8088
527.6258
498.168
476.3881
464.4322
461.1539
463.3511
467.7385
472.2979
476.3412
479.7292
482.2092
483.413
483.2527
482.1208
480.6806
479.5472
479.1898
479.9669
481.9797
484.7475
487.1772
488.1886
487.6059
486.3819
669.2677
667.2272
666.4633
665.4765
664.5658
663.6446
662.7264
661.8061
660.8861
659.9687
659.0563
658.1496
657.2461
656.339
655.417
654.4656
653.471
652.4255
651.3305
650.1934
649.0128
647.7564
646.346
644.672
642.6551
640.3451
637.9983
636.0381
634.8029
634.0903
632.6883
628.2615
617.9329
599.5683
573.2318
541.912
510.831
485.4545
469.2366
462.421
462.5643
466.2768
470.9205
475.2463
478.9332
481.8166
483.5767
483.9837
483.2151
481.8338
480.5012
479.7664
480.0424
481.544
484.0357
486.6635
488.2983
488.3384
487.2543
486.2063
669.0132
666.9522
666.1774
665.179
664.2586
663.3293
662.405
661.4809
660.5598
659.6437
658.7338
657.829
656.9245
656.0106
655.0741
654.1007
653.0794
652.0076
650.891
649.7338
648.5188
647.1869
645.6366
643.7669
641.5662
639.2082
637.0689
635.5619
634.753
633.8708
631.019
623.4591
608.6251
585.562
556.0188
524.3781
496.1751
475.8675
465.1095
462.5265
464.9953
469.4475
474.011
478.0048
481.2464
483.4997
484.4822
484.1801
482.9957
481.5706
480.5244
480.3405
481.3234
483.4296
486.0555
488.1551
488.8603
488.1645
486.9506
486.2147
668.7554
666.674
665.8883
664.8787
663.9491
663.0124
662.0829
661.1564
660.2354
659.3212
658.4136
657.5091
656.6003
655.6754
654.7202
653.7218
652.6737
651.5785
650.4423
649.2591
647.9885
646.5436
644.8159
642.7475
640.4326
638.1769
636.4119
635.3922
634.7271
632.9821
627.7057
616.1488
596.5691
569.53
538.3604
508.2568
484.3004
469.4306
463.5366
464.1242
467.9744
472.638
476.9356
480.5187
483.2076
484.7384
484.9645
484.1042
482.7116
481.4396
480.8472
481.3239
482.9768
485.4333
487.8107
489.1268
488.9798
487.8769
486.7892
486.3162
668.4943
666.3925
665.5963
664.5757
663.6376
662.6943
661.761
660.8333
659.9133
659.0012
658.0948
657.1882
656.2714
655.3311
654.3535
653.3288
652.2558
651.14
649.9825
648.7587
647.4003
645.8022
643.8765
641.6479
639.3408
637.3596
636.074
635.402
634.3551
630.8654
622.214
606.1205
582.1004
552.3291
521.3277
494.3919
475.5009
465.8681
463.9329
466.6571
471.1665
475.7169
479.6396
482.725
484.7596
485.5347
485.0997
483.8707
482.4789
481.5452
481.5442
482.7086
484.8667
487.3354
489.1416
489.6038
488.8346
487.6299
486.765
486.4041
668.2297
666.1078
665.3015
664.2705
663.3245
662.3759
661.4399
660.5121
659.5937
658.6831
657.7761
656.8642
655.9353
654.9755
653.973
652.9227
651.8277
650.6923
649.5045
648.2148
646.7296
644.9462
642.8343
640.5355
638.3967
636.8379
636.0081
635.3221
633.144
626.9532
614.1746
593.4706
565.8677
534.9695
505.8932
483.3281
469.7374
464.7042
465.7063
469.6843
474.3558
478.605
482.0686
484.563
485.8761
485.933
484.9893
483.5992
482.4101
481.9768
482.6437
484.4116
486.8035
488.9428
489.9902
489.7027
488.5985
487.4923
486.8117
486.4078
667.9617
665.8201
665.0041
663.9634
663.0106
662.0577
661.1203
660.1932
659.2763
658.3661
657.4558
656.5348
655.5896
654.6072
653.5792
652.5054
651.3907
650.2315
648.995
647.6044
645.9545
643.9764
641.7361
639.5047
637.7006
636.6273
636.0408
634.7454
630.5387
620.7695
603.4724
578.6176
548.7516
518.4725
492.808
475.2787
466.7035
465.3721
468.3339
472.8905
477.4114
481.2446
484.1665
485.9892
486.5692
486.0113
484.7488
483.4091
482.6073
482.7904
484.1097
486.2849
488.5885
490.1341
490.3996
489.5805
488.393
487.4556
486.8505
486.3132
667.6902
665.5297
664.7045
663.655
662.6964
661.7406
660.8027
659.8767
658.9606
658.0487
657.1319
656.1976
655.2324
654.2256
653.1733
652.0788
650.9435
649.7483
648.4342
646.9036
645.0646
642.9204
640.6598
638.6608
637.3123
636.639
635.8597
633.1639
626.007
612.0272
590.2952
562.2619
531.7434
503.7329
482.5273
470.1501
465.9214
467.309
471.4025
476.069
480.2521
483.5832
485.8836
486.9895
486.8885
485.8723
484.5001
483.4134
483.1482
483.99
485.8399
488.1456
490.0609
490.8799
490.4825
489.3817
488.269
487.4668
486.8293
486.1567
667.4155
665.2367
664.4032
663.3458
662.3828
661.4251
660.4874
659.5622
658.6455
657.7292
656.802
655.8505
654.8626
653.8314
652.7572
651.6433
650.4805
649.227
647.7985
646.0943
644.0703
641.8364
639.7049
638.0912
637.2131
636.6551
635.0287
630.0358
619.1371
600.7018
575.1337
545.2962
515.8099
491.414
475.192
467.6115
466.8421
470.0228
474.615
479.091
482.8191
485.5717
487.1887
487.585
486.9156
485.6333
484.3636
483.7075
484.0697
485.5172
487.6809
489.817
491.1306
491.2339
490.377
489.2035
488.2176
487.4673
486.7395
485.9988
667.1376
664.9415
664.1006
663.0366
662.0702
661.1116
660.1744
659.249
658.3295
657.4053
656.4638
655.4919
654.4803
653.4263
652.3324
651.1961
649.9899
648.646
647.0657
645.1736
643.0106
640.811
638.9712
637.8298
637.2722
636.3257
633.034
624.8723
609.7239
587.0647
558.7276
528.685
501.7693
481.8884
470.6625
467.1856
468.93
473.1255
477.7737
481.8748
485.0629
487.1702
488.0784
487.8314
486.7555
485.4173
484.4489
484.3551
485.3536
487.256
489.4604
491.1664
491.7891
491.303
490.2043
489.0851
488.1982
487.4217
486.6096
485.896
666.8568
664.6448
663.7974
662.728
661.7594
660.8003
659.8631
658.936
658.0107
657.0749
656.1155
655.1212
654.0864
653.0119
651.8982
650.7291
649.4536
647.9821
646.223
644.1622
641.9543
639.9447
638.5292
637.8216
637.2307
635.1938
629.3562
617.3291
597.8291
571.6673
541.9715
513.3372
490.2011
475.2332
468.5879
468.3408
471.7211
476.3363
480.7528
484.3623
486.9411
488.3584
488.5823
487.8143
486.527
485.3435
484.842
485.3738
486.9238
489.0533
491.0226
492.1292
492.0965
491.2087
490.0437
489.0192
488.1685
487.3289
486.4868
485.88
666.5734
664.3469
663.4943
662.4206
661.4505
660.4911
659.5527
658.6214
657.687
656.7358
655.7558
654.7386
653.6826
652.589
651.4497
650.2283
648.8493
647.2164
645.2761
643.11
640.9936
639.3282
638.3836
637.8951
636.7069
632.7488
623.5561
607.2823
583.799
555.2781
525.7963
499.9956
481.4031
471.2687
468.4938
470.5671
474.8497
479.4664
483.4715
486.5079
488.4233
489.143
488.7625
487.6414
486.3532
485.5152
485.591
486.7267
488.6563
490.7487
492.2599
492.7125
492.1527
491.0538
489.9264
488.9756
488.1064
487.2155
486.4142
485.9501
666.2878
664.0485
663.1919
662.115
661.1438
660.1832
659.2418
658.3035
657.3561
656.3865
655.3844
654.3455
653.2703
652.1554
650.9767
649.674
648.1553
646.3426
644.2563
642.0948
640.2266
639.0107
638.4422
637.7538
635.2313
628.5013
615.3589
594.8741
568.2353
538.7844
511.0513
489.1614
475.395
469.6288
469.8658
473.4257
478.0508
482.3941
485.8738
488.2755
489.4989
489.5619
488.7092
487.4326
486.3494
486.0067
486.6958
488.3242
490.4013
492.2072
493.1282
492.9795
492.065
490.9039
489.8477
488.9248
488.0155
487.1199
486.4144
486.0796
666.0006
663.7503
662.8907
661.8112
660.8387
659.8758
658.9289
657.9799
657.0163
656.026
655.0021
653.9436
652.8492
651.7042
650.463
649.0438
647.3569
645.3756
643.2237
641.2114
639.7306
638.9657
638.4946
636.9915
632.3045
622.0665
604.7198
580.5166
551.9249
523.0785
498.4057
481.0633
471.9634
469.8433
472.2176
476.5721
481.1442
485.0407
487.9181
489.6435
490.1841
489.6835
488.5323
487.3091
486.6104
486.8504
488.1033
490.0383
492.0121
493.3421
493.6458
493.023
491.9215
490.7854
489.7859
488.8537
487.9198
487.0742
486.4848
486.2301
665.7123
663.453
662.5911
661.5093
660.5347
659.5674
658.6118
657.6488
656.6661
655.6545
654.6105
653.5335
652.4151
651.2227
649.8876
648.3184
646.4557
644.3572
642.2625
640.5516
639.5306
639.0637
638.2116
635.1335
627.4741
613.2403
591.8551
564.8523
535.7405
508.9488
488.2872
475.6709
470.7304
471.4149