/*--------------------------------*- C++ -*----------------------------------*\
| =========                 |                                                 |
| \\      /  F ield         | OpenFOAM: The Open Source CFD Toolbox           |
|  \\    /   O peration     | Version:  2312                                  |
|   \\  /    A nd           | Website:  www.openfoam.com                      |
|    \\/     M anipulation  |                                                 |
\*---------------------------------------------------------------------------*/
FoamFile
{
    version     2.0;
    format      ascii;
    arch        "LSB;label=32;scalar=64";
    class       volScalarField;
    location    "2000";
    object      k;
}
// * * * * * * * * * * * * * * * * * * * * * * * * * * * * * * * * * * * * * //

dimensions      [0 2 -2 0 0 0 0];

internalField   nonuniform List<scalar> 
12000
(
0.001935582
0.003996348
0.004710889
0.005454595
0.006030185
0.006552386
0.007002152
0.007408701
0.007775653
0.008112345
0.008415014
0.008696105
0.008948586
0.009184976
0.009396293
0.009591201
0.009762866
0.009924647
0.0100701
0.01020201
0.01031136
0.0104114
0.01050062
0.01058111
0.01064066
0.01069026
0.0107311
0.01076752
0.01078833
0.01079902
0.01080076
0.01078839
0.01078266
0.01075969
0.01073591
0.01070133
0.01066855
0.01063415
0.01060766
0.01057359
0.01050485
0.01037359
0.01022578
0.01015712
0.01014225
0.0100056
0.009720544
0.009576756
0.009487424
0.00930171
0.008955431
0.008710004
0.008467017
0.008127797
0.007656047
0.007169715
0.006672405
0.005895002
0.005428325
0.005142264
0.002074518
0.004995679
0.005586107
0.006327915
0.006962301
0.007672783
0.008499165
0.009318271
0.01006127
0.0109307
0.01171268
0.01253792
0.01329546
0.01406049
0.01481458
0.01557924
0.0162629
0.01685863
0.0174621
0.01813276
0.0187532
0.01922903
0.0196564
0.02018058
0.02070291
0.02109636
0.02138808
0.02173684
0.02211571
0.02243358
0.02267827
0.02290508
0.02310277
0.02330891
0.02349648
0.02363695
0.02374136
0.02381663
0.02386396
0.02392311
0.02396635
0.02397093
0.02390812
0.02383318
0.02372802
0.02359121
0.02340018
0.02318087
0.02274669
0.02223199
0.02176258
0.02121334
0.02039743
0.01952783
0.01841043
0.01696437
0.01470153
0.01156228
0.008795841
0.008478362
0.003019033
0.006140446
0.007073463
0.008151967
0.009307251
0.01054834
0.01173793
0.01290449
0.01384865
0.01480896
0.01575245
0.01662506
0.01747393
0.01822751
0.0189459
0.01961176
0.02021875
0.02075599
0.02123861
0.02169307
0.02212624
0.02251217
0.02284307
0.02314999
0.02345625
0.02373895
0.02396848
0.02415951
0.02434342
0.02452494
0.02467879
0.02479074
0.02489604
0.02500829
0.02510682
0.02519933
0.02528353
0.02535828
0.02542601
0.02549956
0.02559382
0.02570363
0.025803
0.02588051
0.02597282
0.02613441
0.02633444
0.02649535
0.02669898
0.0269208
0.02713899
0.02719616
0.02705535
0.02667759
0.02572218
0.02401783
0.02134103
0.01773622
0.01186419
0.01038833
0.003579099
0.006092992
0.00729823
0.008635881
0.01004734
0.01145126
0.01276132
0.01397912
0.01518376
0.01620369
0.01708374
0.01783028
0.01845757
0.01901747
0.01953213
0.02001297
0.02044976
0.0208565
0.0212419
0.02161495
0.02193736
0.02219702
0.02242701
0.0226397
0.02283833
0.0230214
0.02318232
0.02333027
0.02346746
0.02357892
0.02367459
0.02378034
0.02388196
0.02397565
0.02406934
0.02416674
0.02427004
0.02438024
0.02449774
0.02462462
0.02477143
0.02494702
0.02515064
0.02537177
0.0256293
0.02591474
0.02621554
0.0265069
0.02681421
0.02712738
0.02743832
0.02773295
0.02785586
0.02738724
0.02624643
0.02465954
0.02243767
0.0189257
0.0133309
0.01135556
0.004053869
0.006023911
0.007524929
0.00906833
0.01062957
0.01206817
0.01334247
0.01442381
0.01541834
0.01633189
0.01711881
0.01782272
0.01840766
0.0188525
0.01920718
0.01949217
0.01973463
0.01994019
0.02010787
0.02023243
0.02035025
0.0204859
0.0206318
0.02078146
0.02093354
0.02107202
0.02120464
0.02135126
0.02149679
0.02163972
0.02178354
0.02193115
0.02208456
0.02224613
0.02241827
0.02260393
0.02280755
0.02303367
0.02328551
0.02356578
0.02388631
0.02425394
0.02467368
0.02512511
0.02561117
0.02614601
0.02672713
0.02734151
0.02794994
0.02857984
0.02917688
0.02946262
0.02944612
0.02907216
0.02835222
0.02703472
0.02472959
0.02100452
0.01501879
0.01211612
0.0044687
0.005863889
0.007522081
0.00916373
0.0107665
0.01221554
0.01348359
0.0145549
0.01545916
0.01624382
0.0168774
0.01737708
0.01777163
0.01808231
0.01829951
0.01843315
0.01850721
0.01855647
0.0185924
0.0186291
0.01867944
0.01875055
0.01884032
0.01894653
0.01906786
0.01920242
0.01935237
0.01951739
0.01969603
0.01988706
0.02009156
0.02031125
0.02054739
0.02080181
0.02107709
0.02137585
0.02170415
0.02206629
0.0224693
0.02291043
0.0233947
0.02392559
0.0244963
0.02511148
0.02576579
0.02646254
0.02720075
0.02798041
0.02876752
0.02945817
0.02997115
0.03028862
0.03036547
0.03010468
0.02927371
0.0276735
0.02509801
0.02120981
0.0152452
0.0124815
0.004803035
0.005724084
0.007480275
0.00916008
0.01077998
0.01223668
0.01349202
0.01454461
0.01539326
0.01604952
0.01654656
0.01688563
0.01711655
0.01728499
0.01739264
0.01745598
0.01746789
0.01744053
0.01740643
0.01738863
0.01739087
0.01742203
0.01748334
0.01757449
0.01769465
0.01784262
0.01801732
0.01821764
0.01844231
0.01869051
0.01896199
0.01925722
0.01957708
0.01992461
0.02030464
0.02071632
0.02116316
0.0216514
0.02217952
0.02274795
0.02335749
0.02401479
0.02472159
0.02547582
0.02627614
0.02712553
0.02800769
0.02886779
0.02965671
0.03035208
0.03093049
0.03133377
0.03144501
0.03115186
0.03026672
0.02862385
0.02604349
0.02212898
0.01598832
0.01286366
0.005109313
0.005600453
0.007410137
0.009125801
0.01075948
0.01221509
0.01345284
0.01445582
0.01524924
0.01585046
0.01628614
0.01657427
0.01674211
0.01682104
0.0168341
0.01680758
0.01677137
0.01672946
0.01668061
0.0166458
0.01663776
0.01666068
0.01671875
0.01681301
0.01694329
0.01710873
0.0173081
0.01754011
0.01780366
0.01809793
0.01842266
0.01877822
0.01916573
0.01958671
0.02004234
0.02053421
0.02106283
0.02163176
0.02224497
0.02290434
0.02361072
0.02436494
0.0251661
0.02601678
0.0269115
0.02782166
0.02872014
0.02958852
0.03040783
0.03114557
0.03174712
0.03213855
0.03221456
0.03182187
0.03078364
0.02896896
0.02625281
0.0222589
0.01622904
0.01303186
0.005356574
0.005500342
0.007344218
0.009071681
0.0106981
0.01214042
0.01335814
0.01434514
0.01511959
0.01570437
0.01612383
0.01639962
0.01655761
0.01662768
0.01663481
0.01660167
0.01654672
0.01649718
0.01646186
0.01643872
0.01643708
0.01646441
0.01652589
0.01662435
0.01676081
0.01693521
0.0171469
0.01739501
0.01767868
0.01799734
0.0183509
0.01873992
0.0191676
0.01963407
0.02013722
0.02067961
0.02126363
0.02189126
0.02256438
0.02328402
0.02405049
0.02486393
0.02572609
0.02662597
0.02754511
0.02847083
0.029389
0.03027951
0.03111177
0.03184661
0.03243183
0.03278626
0.03280743
0.03234221
0.03123954
0.02940229
0.02669269
0.02271371
0.016614
0.0132217
0.005584057
0.005417567
0.007280862
0.009009821
0.01062137
0.01204975
0.01325976
0.01424884
0.01503264
0.01563248
0.01606976
0.01636599
0.01654631
0.01663163
0.01664862
0.01663262
0.01659972
0.01656706
0.01654938
0.01655001
0.01657207
0.0166197
0.01669659
0.01680635
0.01695191
0.01713451
0.01735441
0.01761149
0.01790538
0.01823583
0.01860301
0.0190104
0.01945845
0.01994506
0.02047206
0.0210414
0.0216549
0.02231397
0.02301976
0.02377279
0.02457463
0.02542377
0.02630972
0.02722251
0.02815244
0.02908726
0.03000887
0.03089417
0.03171322
0.03242703
0.03298329
0.03328649
0.03325187
0.03271466
0.03154609
0.02964016
0.02686525
0.02281194
0.01670147
0.01331941
0.005758693
0.005353941
0.007226605
0.008947254
0.01053755
0.01195057
0.01315748
0.01415592
0.01495813
0.01558121
0.0160446
0.01636981
0.01658139
0.01671382
0.01679172
0.0168331
0.01685749
0.01687937
0.01691053
0.01695755
0.01702271
0.01710557
0.01720605
0.01732861
0.01747775
0.01765691
0.01786958
0.01811761
0.01840198
0.0187234
0.01908572
0.01949126
0.01993786
0.02042604
0.02095765
0.02153422
0.02215709
0.02282736
0.02354598
0.02431422
0.02512851
0.02598211
0.02686875
0.02778063
0.02870729
0.02963438
0.03054356
0.0314113
0.03220721
0.03289225
0.03341122
0.03367815
0.03358576
0.0329958
0.0317892
0.02986214
0.02707553
0.02302921
0.01693731
0.01340358
0.005931649
0.005298715
0.007174305
0.008883228
0.01045331
0.0118551
0.01306468
0.01407765
0.01490204
0.01555219
0.01605093
0.01643204
0.01671521
0.01691666
0.01706115
0.01717027
0.01726146
0.0173474
0.01743719
0.01753579
0.01764448
0.0177629
0.0178913
0.01802986
0.01818078
0.01835271
0.01855271
0.01878495
0.01905217
0.01935662
0.01970325
0.02009376
0.02052677
0.02100382
0.0215266
0.02209654
0.0227149
0.02338307
0.02410128
0.02486638
0.02567468
0.02652152
0.02740067
0.02830315
0.02921743
0.0301287
0.03101817
0.0318622
0.03263057
0.03328529
0.03377348
0.0339978
0.03385739
0.03322941
0.03199342
0.03003462
0.02721895
0.02312634
0.01697585
0.0134763
0.006092247
0.005256326
0.007130871
0.008826436
0.01037752
0.01176988
0.01298375
0.01401325
0.01486433
0.01555388
0.01610787
0.0165602
0.01691998
0.01720272
0.01742989
0.01762134
0.01779162
0.01795045
0.01810361
0.01825377
0.01840116
0.01854535
0.01868733
0.01883017
0.01897867
0.01913841
0.01931928
0.01953056
0.01977558
0.02005746
0.0203815
0.02074963
0.0211614
0.02161896
0.0221242
0.02267865
0.02328375
0.02393943
0.02464402
0.02539526
0.02618974
0.02702241
0.0278861
0.02877143
0.02966641
0.03055593
0.03142133
0.03223915
0.03298146
0.03361122
0.03406303
0.03424366
0.03405976
0.03339696
0.03213493
0.03016016
0.02733176
0.0232423
0.01711108
0.01350785
0.006245869
0.005220194
0.007090567
0.008774087
0.01031052
0.01169772
0.01291923
0.01396835
0.01485034
0.01558343
0.01620858
0.01674279
0.01719081
0.0175655
0.01788453
0.01816452
0.01841796
0.01865149
0.0188677
0.01906615
0.01924534
0.01940453
0.01954644
0.01967782
0.0198078
0.0199458
0.02010123
0.02028674
0.0205054
0.02076158
0.02105996
0.02140175
0.02178808
0.02222168
0.02270464
0.02323876
0.02382447
0.02446125
0.02514774
0.02588153
0.02665864
0.02747353
0.0283187
0.02918444
0.03005854
0.0309259
0.03176798
0.03256328
0.03328589
0.03389184
0.03430834
0.0344531
0.03423983
0.03355807
0.0322836
0.03029495
0.0274535
0.02333312
0.01715725
0.01356892
0.006385475
0.005193607
0.007060606
0.008735752
0.01026191
0.0116464
0.01287628
0.01394579
0.01485988
0.01565072
0.016354
0.01697754
0.0175209
0.01799285
0.0184079
0.01877908
0.01911411
0.01941686
0.01968799
0.01992497
0.02012397
0.02028402
0.02041054
0.02051542
0.02061383
0.02071985
0.02084516
0.02100048
0.02119008
0.0214184
0.02168886
0.02200283
0.02236301
0.02277208
0.02323219
0.02374439
0.02430911
0.02492588
0.02559327
0.02630847
0.02706728
0.02786377
0.02869018
0.02953662
0.03039084
0.03123801
0.03205978
0.03283755
0.03354542
0.03412483
0.03450749
0.03462001
0.03437886
0.03367458
0.03238247
0.03038299
0.02753245
0.02341526
0.01724815
0.01357999
0.006519703
0.005175954
0.007038909
0.00870789
0.01022746
0.01161313
0.01285623
0.01395086
0.01490524
0.01575457
0.01654188
0.01725929
0.01790051
0.01847081
0.0189807
0.01943901
0.01985004
0.0202139
0.02052882
0.02079069
0.02099361
0.02113813
0.0212344
0.02130094
0.02135932
0.02142755
0.02151766
0.02164028
0.02179897
0.02199776
0.02223983
0.02252693
0.02286203
0.02324762
0.02368552
0.02417693
0.02472225
0.0253209
0.02597115
0.02666995
0.02741277
0.02819342
0.02900387
0.02983407
0.03067178
0.03150237
0.03231118
0.03308114
0.0337737
0.03432911
0.03468487
0.03477423
0.03451603
0.03380129
0.03250246
0.03049462
0.02763345
0.02349344
0.0172935
0.01362594
0.006643311
0.005165307
0.007028192
0.008696627
0.01021548
0.0116067
0.01286184
0.01398345
0.01498325
0.01590202
0.01677519
0.01758706
0.01832541
0.01899091
0.01958938
0.02012488
0.02059847
0.02100906
0.02135349
0.02162406
0.02181487
0.02192952
0.02198425
0.02200511
0.02201964
0.0220483
0.02210243
0.02219195
0.02231951
0.02248906
0.0227038
0.02296575
0.02327773
0.02364212
0.0240607
0.02453453
0.02506379
0.02564764
0.02628411
0.0269699
0.02770023
0.0284687
0.02926714
0.03008545
0.03091151
0.03173073
0.03253073
0.03329411
0.03397165
0.0345049
0.03483675
0.03490471
0.03462824
0.0338983
0.03258771
0.03057329
0.02770712
0.0235655
0.01736182
0.01363167
0.006765041
0.005166251
0.007030678
0.008700464
0.01022009
0.01161646
0.0128914
0.0140427
0.01509294
0.01608694
0.017047
0.01795079
0.01878183
0.01953532
0.02021187
0.02081228
0.02133673
0.02178177
0.02213956
0.02240157
0.02256453
0.02263633
0.02264177
0.02261416
0.02258541
0.022576
0.02259617
0.02265386
0.02275177
0.02289396
0.02308371
0.0233232
0.02361516
0.0239618
0.02436471
0.02482472
0.02534176
0.02591476
0.02654144
0.02721825
0.02794013
0.02870047
0.0294909
0.03030128
0.0311196
0.0319335
0.03273154
0.03348902
0.03415334
0.03466879
0.03498269
0.03503568
0.03474792
0.03401003
0.03269296
0.03067056
0.02779383
0.0236355
0.01740783
0.01366596
0.00688167
0.005177289
0.007047971
0.008723552
0.01024846
0.01165547
0.01294944
0.01413347
0.01523863
0.01631261
0.01736086
0.01835411
0.01926992
0.02009891
0.02083827
0.02148838
0.02204844
0.02251197
0.02286794
0.02310732
0.02323
0.02325115
0.02320395
0.02312898
0.02306046
0.0230158
0.02300483
0.02303318
0.02310415
0.02322191
0.02338984
0.02361026
0.02388578
0.02421842
0.02460954
0.02505967
0.02556845
0.02613452
0.0267553
0.02742698
0.02814427
0.02890035
0.02968668
0.03049297
0.03130717
0.03211876
0.03291639
0.03366817
0.03432023
0.03481957
0.03511685
0.0351547
0.03485345
0.0341039
0.03277767
0.03074941
0.0278665
0.02370084
0.01746197
0.01367033
0.006999641
0.005199502
0.007081267
0.008766625
0.01030091
0.01172251
0.01303972
0.01425747
0.01541781
0.01657378
0.01770728
0.01878177
0.01977092
0.02066247
0.02145325
0.02214165
0.0227221
0.0231863
0.02352388
0.02372733
0.02380007
0.02376737
0.02366952
0.02355263
0.0234503
0.0233752
0.02333665
0.02333917
0.02338685
0.02348399
0.02363404
0.02383946
0.02410263
0.02442531
0.02480856
0.02525262
0.02575685
0.02631958
0.02693807
0.02760825
0.02832463
0.02908005
0.02986577
0.03067133
0.03148452
0.03229607
0.03309454
0.03384174
0.03448349
0.03496963
0.03525351
0.03527949
0.0349683
0.03421097
0.03287814
0.03084107
0.02794696
0.02376619
0.0175065
0.01369658
0.007117787
0.005233576
0.007131262
0.008829748
0.01037669
0.01181461
0.01315515
0.0144121
0.01563623
0.01687161
0.01808394
0.0192283
0.02027683
0.02121867
0.02204818
0.02275907
0.02334463
0.02379591
0.02410261
0.02425988
0.02427837
0.02419125
0.02404767
0.02389586
0.02376515
0.02366459
0.02360223
0.0235832
0.02361188
0.02369267
0.02382906
0.02402356
0.02427833
0.02459487
0.02497394
0.02541548
0.02591857
0.02648125
0.02710049
0.02777192
0.02848983
0.02924703
0.03003465
0.03084199
0.0316564
0.03246919
0.03326857
0.03401129
0.03464338
0.03511714
0.03538774
0.03540084
0.03507699
0.03430768
0.03296528
0.03092091
0.02801705
0.02382467
0.01755112
0.01370043
0.007240091
0.005280398
0.007199194
0.008914146
0.01047538
0.01193074
0.01329569
0.01459795
0.01589269
0.0172025
0.01848235
0.01968502
0.02078384
0.02176359
0.02261582
0.02333421
0.02391114
0.02433688
0.02460215
0.02470555
0.02466752
0.02452981
0.02434802
0.02416914
0.02401456
0.02389318
0.02381175
0.02377583
0.02379015
0.02385908
0.02398607
0.02417365
0.0244238
0.02473775
0.02511597
0.02555814
0.02606302
0.02662837
0.02725083
0.02792585
0.02864756
0.02940861
0.03019993
0.03101057
0.03182774
0.03264307
0.0334435
0.03418203
0.03480538
0.03526809
0.03552706
0.03552902
0.03519499
0.03441622
0.03306274
0.03100416
0.02808544
0.02387969
0.01758973
0.01371997
0.007364511
0.005339236
0.007284852
0.009019498
0.010598
0.01207278
0.01346308
0.0148126
0.01617998
0.0175588
0.01889661
0.02014773
0.02128278
0.02228568
0.02314737
0.02386052
0.02441682
0.02480645
0.02502206
0.02506877
0.02497552
0.02479371
0.02458199
0.02438298
0.02420998
0.02407188
0.02397571
0.02392728
0.02393164
0.023993
0.02411472
0.0242993
0.02454843
0.02486307
0.02524343
0.02568888
0.02619795
0.02676817
0.02739599
0.02807661
0.02880388
0.0295701
0.03036595
0.03118044
0.0320015
0.03282063
0.03362129
0.03435505
0.03496938
0.03542049
0.03566666
0.0356549
0.03530691
0.0345158
0.03315198
0.03108324
0.02815218
0.02393049
0.01763271
0.01372677
0.007494279
0.005412271
0.007390477
0.009147443
0.01074439
0.01223925
0.01365828
0.01505892
0.01649548
0.01793448
0.01932108
0.02060856
0.02176716
0.02278076
0.02363969
0.02433608
0.02486123
0.0252058
0.02536536
0.02535362
0.02520939
0.02499202
0.02475922
0.02454445
0.02435765
0.02420738
0.024101
0.02404458
0.02404324
0.02410106
0.02422153
0.02440688
0.02465847
0.024977
0.0253624
0.02581379
0.02632941
0.02690656
0.02754142
0.02822902
0.02896299
0.02973551
0.03053709
0.0313564
0.03218199
0.03300526
0.03380597
0.03453462
0.03513981
0.03557944
0.03581332
0.03578905
0.03542826
0.03462234
0.03324273
0.03115953
0.02821559
0.02398055
0.01767059
0.01374193
0.007628062
0.005498304
0.00751391
0.009295299
0.01091146
0.01242458
0.01387828
0.0153368
0.0168338
0.01832539
0.01975095
0.02106297
0.02223309
0.02324552
0.02409043
0.02475962
0.02524423
0.02553618
0.02563635
0.02556765
0.02537915
0.02513506
0.02488862
0.02466201
0.02446542
0.02430727
0.0241949
0.0241346
0.02413153
0.02418957
0.02431237
0.02450182
0.02475891
0.02508406
0.02547694
0.02593641
0.02646049
0.02704622
0.02768959
0.0283854
0.02912708
0.02990659
0.03071425
0.03153855
0.03236889
0.03319619
0.03399623
0.03471879
0.03531361
0.03574006
0.03595904
0.03591911
0.03554305
0.03472226
0.033327
0.03123093
0.02827904
0.0240417
0.01772103
0.01375132
0.007764266
0.005596475
0.007655559
0.009463339
0.0110985
0.0126296
0.01412063
0.01564258
0.01719617
0.01872959
0.02018136
0.02150589
0.02267618
0.02367675
0.02449767
0.02513043
0.02556641
0.02579998
0.02583903
0.02571798
0.02549393
0.02523197
0.02497752
0.0247434
0.02454034
0.02437766
0.02426298
0.0242026
0.0242015
0.02426331
0.02439169
0.02458821
0.02485346
0.02518762
0.02559008
0.02605948
0.02659358
0.02718922
0.02784219
0.02854708
0.02929715
0.03008418
0.03089829
0.03172777
0.03256273
0.03339393
0.03419292
0.0349086
0.03549248
0.03590583
0.03611055
0.0360551
0.03566199
0.03482357
0.03341183
0.03130485
0.02834271
0.02408794
0.01774901
0.01375898
0.007905633
0.005710221
0.007817877
0.009652781
0.01130505
0.01285729
0.01439043
0.01596951
0.01757271
0.01913875
0.02060661
0.02193357
0.02309403
0.02407315
0.02486102
0.02544897
0.0258293
0.02600045
0.02597963
0.02581153
0.02556125
0.02528948
0.02502823
0.02478991
0.02458464
0.02442171
0.02430876
0.02425203
0.02425638
0.02432536
0.02446227
0.02466852
0.02494434
0.02528963
0.02570356
0.02618451
0.02673005
0.02733679
0.02800035
0.02871513
0.0294742
0.03026913
0.03108984
0.03192441
0.03276369
0.03359815
0.03439545
0.03510324
0.03567416
0.03607174
0.03625963
0.03618693
0.03577597
0.03491987
0.03349496
0.03137841
0.0284064
0.0241427
0.01779025
0.01376826
0.0080479
0.005833705
0.007992726
0.009854053
0.01152196
0.01310255
0.0146887
0.01632123
0.01796405
0.01955152
0.02102488
0.02234415
0.02348525
0.02443385
0.02518
0.02571519
0.02603362
0.02613997
0.02606306
0.02585644
0.02558813
0.0253119
0.02504767
0.02480801
0.02460367
0.02444381
0.02433597
0.0242862
0.0242991
0.02437822
0.02452631
0.02474469
0.02503323
0.02539158
0.02581864
0.0263126
0.0268708
0.02748969
0.02816468
0.02889002
0.0296586
0.03046177
0.03128923
0.0321288
0.03297206
0.03380923
0.0346038
0.035303
0.03586073
0.03624213
0.03641212
0.03632039
0.03588956
0.03501469
0.03357493
0.03144726
0.02846488
0.02418912
0.01781946
0.01377513
0.008192119
0.00597124
0.008187129
0.01007496
0.01175743
0.01336869
0.01501027
0.01669111
0.01836372
0.01996264
0.02143215
0.02273467
0.02384762
0.0247572
0.02545348
0.02592865
0.02618041
0.02622181
0.02609439
0.02585896
0.02558294
0.02530497
0.02504063
0.02480253
0.02460185
0.0244478
0.02434796
0.02430808
0.02433229
0.02442402
0.02458564
0.02481826
0.02512142
0.02549448
0.02593614
0.02644435
0.02701625
0.02764812
0.02833521
0.02907161
0.02985005
0.0306617
0.03149598
0.0323404
0.03318719
0.03402626
0.0348168
0.03550573
0.0360485
0.03641168
0.03656169
0.03644952
0.03599905
0.03510719
0.03365374
0.0315161
0.02852616
0.02424258
0.01785608
0.01378469
0.008338333
0.00611961
0.008391449
0.01030192
0.01200766
0.01366253
0.01535288
0.0170737
0.01876851
0.02037055
0.02182747
0.02310471
0.02418121
0.02504365
0.02568247
0.02609176
0.02627488
0.02625581
0.02608645
0.02583304
0.02555283
0.02527369
0.02501088
0.02477695
0.02458275
0.02443735
0.02434797
0.02432047
0.02435834
0.02446488
0.02464202
0.02489068
0.02521014
0.0255994
0.02605692
0.02658043
0.02716691
0.02781245
0.02851214
0.02925994
0.03004843
0.03086864
0.0317098
0.032559
0.03340913
0.03424959
0.03503516
0.03571281
0.0362397
0.03658396
0.03671275
0.03657814
0.03610653
0.03519661
0.03372891
0.03158076
0.02858186
0.02428699
0.01788552
0.0137915
0.008483533
0.00627604
0.00860545
0.01053822
0.01227161
0.01397834
0.01571925
0.01747213
0.01917746
0.02077247
0.02220801
0.02345174
0.02448381
0.02529141
0.02586585
0.02620452
0.02631859
0.02624554
0.02604277
0.02577761
0.02549649
0.02521894
0.02496012
0.02473283
0.0245478
0.02441384
0.02433787
0.02432512
0.02437891
0.02450257
0.02469691
0.024963
0.02530033
0.02570711
0.0261816
0.02672133
0.02732308
0.02798278
0.02869536
0.02945458
0.03025291
0.03108123
0.03192865
0.03278299
0.03363731
0.03447783
0.03525691
0.03592212
0.0364322
0.03675648
0.03686233
0.0367033
0.03620973
0.03528214
0.03380088
0.03164293
0.02863572
0.02433106
0.01791521
0.01379909
0.008628697
0.006442216
0.008827306
0.01078606
0.01255824
0.0143173
0.0161008
0.01787737
0.01958611
0.02116654
0.02257295
0.02377552
0.02475556
0.02550087
0.02600456
0.02626932
0.02631613
0.02619622
0.02596954
0.0256993
0.02541803
0.02514392
0.02489154
0.02467341
0.02450004
0.02437991
0.02431957
0.02432386
0.024396
0.02453842
0.02475181
0.025037
0.02539328
0.02581859
0.02631094
0.02686765
0.0274853
0.02815961
0.02888534
0.02965609
0.03046414
0.03130026
0.03215343
0.0330127
0.03387117
0.03471068
0.03548201
0.03613346
0.03662545
0.03692865
0.03701101
0.03682707
0.03630951
0.03536259
0.03386821
0.03170082
0.0286862
0.02437595
0.01794107
0.0138045
0.008772563
0.006612032
0.009051395
0.01104662
0.01286732
0.01467526
0.0164959
0.01828958
0.01999381
0.02155154
0.0229209
0.0240744
0.02499449
0.02567009
0.02609763
0.02628739
0.02627514
0.02611482
0.02587298
0.02560085
0.02532146
0.0250525
0.02480851
0.02460172
0.02444228
0.02433824
0.02429574
0.02431897
0.02441131
0.02457413
0.02480807
0.02511368
0.02549003
0.02593481
0.0264458
0.02702011
0.02765411
0.02834336
0.02908242
0.0298647
0.03068235
0.03152598
0.03238447
0.03324812
0.03410999
0.03494731
0.03570958
0.03634618
0.03681906
0.03709965
0.03715687
0.03694715
0.03640548
0.03543945
0.03393192
0.03175531
0.02873317
0.02441603
0.01796373
0.01381058
0.008914367
0.006786483
0.009282532
0.01132002
0.01319512
0.01505309
0.01690537
0.01870723
0.02039845
0.02192585
0.02325092
0.02434831
0.02520169
0.02580213
0.02615142
0.02626968
0.02620166
0.02601033
0.02575923
0.02548526
0.02520922
0.02494754
0.02471409
0.02452079
0.02437739
0.0242915
0.02426876
0.0243127
0.02442668
0.02461144
0.02486728
0.02519445
0.02559183
0.02605687
0.02658712
0.0271795
0.0278302
0.02853458
0.029287
0.03008073
0.03090772
0.03175843
0.03262166
0.03348894
0.03435329
0.03518717
0.0359389
0.0365592
0.03701187
0.03726896
0.03730018
0.03706406
0.03649816
0.03551371
0.03399351
0.03180755
0.02877774
0.02445231
0.01798579
0.01381638
0.009053473
0.00696281
0.009519811
0.01160875
0.01354318
0.01544793
0.01732474
0.01912706
0.02079752
0.02228704
0.02356032
0.02459385
0.02537277
0.02589145
0.02615896
0.02620971
0.02609808
0.02588621
0.02563061
0.02535725
0.025086
0.02483294
0.02461171
0.02443376
0.0243083
0.0242424
0.02424117
0.02430743
0.02444449
0.02465245
0.02493128
0.02528092
0.02570005
0.02618594
0.02673589
0.02734662
0.02801415
0.02873364
0.0294993
0.0303042
0.03114012
0.03199736
0.03286455
0.03373456
0.03460033
0.03542936
0.03616912
0.03677175
0.03720257
0.03743497
0.03744034
0.0371786
0.03658873
0.03558392
0.03405008
0.03185675
0.02882121
0.02448559
0.01799985
0.01382053
0.00918981
0.007142997
0.009767525
0.01191351
0.01390878
0.01585675
0.01775202
0.01954794
0.02119068
0.02263547
0.02385021
0.02481338
0.02551267
0.02594803
0.02613861
0.02612621
0.02597527
0.02574905
0.02548883
0.02521762
0.02495324
0.024711
0.0245041
0.02434348
0.0242378
0.02419355
0.02421511
0.02430584
0.02446708
0.02469928
0.02500193
0.02537454
0.02581589
0.02632313
0.02689301
0.02752214
0.02820635
0.02894069
0.0297192
0.03053478
0.03137904
0.03224211
0.03311242
0.03398406
0.0348499
0.03567234
0.03639839
0.03698196
0.03738974
0.03759659
0.03757615
0.03728947
0.03667629
0.03565101
0.03410378
0.0319034
0.02886249
0.02451565
0.01801337
0.0138262
0.009323441
0.007325692
0.01002487
0.01223365
0.01429146
0.01627924
0.01818629
0.01996817
0.02157574
0.02296853
0.02411726
0.02500254
0.02561567
0.02596403
0.02607974
0.02601632
0.02583764
0.02560247
0.02533999
0.02507202
0.02481564
0.02458568
0.02439478
0.02425323
0.02416903
0.02414803
0.02419379
0.02430962
0.02449626
0.02475363
0.02508105
0.02547725
0.0259409
0.02646942
0.02705916
0.02770647
0.02840703
0.02915569
0.02994636
0.03077183
0.03162359
0.03249165
0.0333642
0.03423648
0.03510101
0.03591517
0.03662577
0.03718837
0.03757164
0.03775255
0.03770649
0.03739595
0.03676158
0.03571778
0.03415542
0.03194439
0.02889659
0.02453889
0.01802245
0.01383113
0.009454342
0.007513344
0.01029356
0.01256928
0.01468911
0.01671236
0.01862487
0.02038581
0.02195138
0.02328543
0.02436159
0.02516341
0.02568781
0.02595206
0.02599771
0.0258901
0.02569072
0.02544701
0.02518425
0.02492161
0.02467533
0.02445966
0.02428663
0.02416587
0.02410469
0.0241083
0.02417986
0.02432182
0.02453446
0.0248175
0.02516989
0.02559003
0.0260763
0.02662598
0.02723524
0.02790025
0.02861648
0.0293786
0.03018038
0.03101447
0.03187232
0.03274388
0.03361845
0.03449175
0.03535285
0.03615655
0.03685019
0.03739065
0.03774836
0.03790274
0.03783098
0.037497
0.03684274
0.03578284
0.0342072
0.03198677
0.02892986
0.02456039
0.0180319
0.01383853
0.00958304
0.007703072
0.01057102
0.01292057
0.01510028
0.01715433
0.01906607
0.0207994
0.02231631
0.02358493
0.02458189
0.02529476
0.02572814
0.02591081
0.02589654
0.02575207
0.02553807
0.02528863
0.02502704
0.02477102
0.02453629
0.02433651
0.02418297
0.02408455
0.02404779
0.02407697
0.02417543
0.02434417
0.02458347
0.02489259
0.02527016
0.02571428
0.02622305
0.02679357
0.02742187
0.02810393
0.02883503
0.02960968
0.0304215
0.03126303
0.03212568
0.03299941
0.03387513
0.0347488
0.03560489
0.03639659
0.03707173
0.03758877
0.03792052
0.03804832
0.03795092
0.0375937
0.03691997
0.03584499
0.03425743
0.03202739
0.02896108
0.02458179
0.01804486
0.01384799
0.009709844
0.007895963
0.01085841
0.01328569
0.0155231
0.01760286
0.01950758
0.02120676
0.02266834
0.0238646
0.02477576
0.02539512
0.02573701
0.02584407
0.02577913
0.02560752
0.02538146
0.02512872
0.02487007
0.02462251
0.02440121
0.02421912
0.02408672
0.02401207
0.02400096
0.02405675
0.02418251
0.02437882
0.02464515
0.02498049
0.0253832
0.02585112
0.02638203
0.02697287
0.02761956
0.02831787
0.02906293
0.02984909
0.03066983
0.03151762
0.03238381
0.03325846
0.03413418
0.03500713
0.03585687
0.03663482
0.03728965
0.03778228
0.03808793
0.03818923
0.03806611
0.03768542
0.03699207
0.03590237
0.03430493
0.03206681
0.02899064
0.02460139
0.0180582
0.0138593
0.009834595
0.008092091
0.01115595
0.01366327
0.01595525
0.01805527
0.0199472
0.02160641
0.02300659
0.02412451
0.02494526
0.02547016
0.02572537
0.02576304
0.0256547
0.02546162
0.02522556
0.02497136
0.02471732
0.02447986
0.02427365
0.02411083
0.024001
0.02395132
0.02396671
0.02405054
0.02420416
0.02442801
0.02472133
0.02508272
0.02551023
0.02600143
0.02655383
0.0271642
0.02782838
0.02854194
0.02929985
0.0300963
0.03092468
0.03177739
0.03264577
0.03351995
0.03439413
0.03526466
0.03610626
0.03686892
0.03750239
0.03797019
0.03824943
0.03832407
0.0381752
0.03777109
0.03705829
0.0359544
0.03434791
0.0321028
0.02902215
0.02462863
0.01807898
0.01387389
0.00995854
0.008293752
0.01146503
0.01405251
0.01639466
0.01850938
0.020383
0.02199666
0.02332958
0.02436349
0.02508986
0.02551993
0.02569254
0.0256712
0.02552672
0.02531748
0.02507418
0.02481989
0.02457193
0.02434628
0.02415685
0.02401478
0.02392874
0.02390504
0.02394756
0.02405931
0.02424127
0.02449285
0.02481301
0.02520008
0.02565186
0.02616573
0.02673869
0.02736748
0.02804803
0.0287756
0.029545
0.03035036
0.03118497
0.03204119
0.03291035
0.03378262
0.03465381
0.0355204
0.03635204
0.0370976
0.03770873
0.03815135
0.03840428
0.03845262
0.03827856
0.0378518
0.03712049
0.03600349
0.03438885
0.03213929
0.02905271
0.02465396
0.01810229
0.01388947
0.01008148
0.00850014
0.01178318
0.01445041
0.01683926
0.0189637
0.02081346
0.0223758
0.02363571
0.0245807
0.02521038
0.02554774
0.02564414
0.02557165
0.02539872
0.02517475
0.02492676
0.02467472
0.02443534
0.02422378
0.02405291
0.02393304
0.02387197
0.02387516
0.02394585
0.02408594
0.02429586
0.02457479
0.02492128
0.02533334
0.02580851
0.02634395
0.02693646
0.02758253
0.02827801
0.02901807
0.02979745
0.03061017
0.03144948
0.03230774
0.03317631
0.03404535
0.03491216
0.03577315
0.03659281
0.03731983
0.0379082
0.03832583
0.03855277
0.03857524
0.03837653
0.03792778
0.03717866
0.03604928
0.03442797
0.03217544
0.02908633
0.02468586
0.01812446
0.01390496
0.010204
0.008712651
0.01211054
0.01485595
0.01728726
0.01941611
0.02123644
0.02274182
0.0239233
0.02477539
0.02530783
0.02555653
0.02558434
0.02546902
0.02527369
0.02503852
0.02478806
0.02454004
0.02431072
0.02411468
0.02396383
0.02386744
0.02383228
0.0238627
0.02396155
0.02413048
0.02436845
0.02467441
0.0250466
0.02548277
0.02598026
0.02653606
0.02714676
0.02780864
0.02851745
0.02926832
0.03005589
0.03087415
0.03171635
0.03257493
0.03344136
0.03430615
0.03516768
0.03602126
0.0368273
0.03753498
0.03810037
0.03849314
0.03869421
0.03869151
0.03846904
0.03799934
0.03723343
0.03609245
0.03446525
0.03221187
0.02912315
0.024721
0.01814912
0.01392322
0.01032565
0.008929907
0.01244416
0.01526593
0.01773602
0.01986462
0.02165041
0.02309357
0.02419202
0.02494886
0.02538569
0.02555184
0.0255208
0.02536872
0.02515563
0.024912
0.02466072
0.02441855