/*--------------------------------*- C++ -*----------------------------------*\
| =========                 |                                                 |
| \\      /  F ield         | OpenFOAM: The Open Source CFD Toolbox           |
|  \\    /   O peration     | Version:  2312                                  |
|   \\  /    A nd           | Website:  www.openfoam.com                      |
|    \\/     M anipulation  |                                                 |
\*---------------------------------------------------------------------------*/
FoamFile
{
    version     2.0;
    format      ascii;
    arch        "LSB;label=32;scalar=64";
    class       volScalarField;
    location    "2000";
    object      nut;
}
// * * * * * * * * * * * * * * * * * * * * * * * * * * * * * * * * * * * * * //

dimensions      [0 2 -1 0 0 0 0];

internalField   nonuniform List<scalar> 
12000
(
4.602749e-05
0.0001609985
0.0001706459
0.0001835236
0.0001915783
0.0001982325
0.000198953
0.000200251
0.0001998645
0.0001992339
0.0001989071
0.0001977996
0.0001997043
0.0001996436
0.0001937362
0.0001876114
0.0001916547
0.000200492
0.0001958847
0.0001819688
0.0001806458
0.0001937251
0.0001971206
0.0001821835
0.0001747875
0.0001841971
0.0001926329
0.0001845666
0.000175857
0.0001777928
0.0001827215
0.0001817506
0.0001782455
0.0001752852
0.0001741136
0.0001761464
0.0001782178
0.0001784417
0.0001750417
0.0001683564
0.0001663562
0.0001772936
0.0001940251
0.0001806029
0.000153877
0.0001602141
0.0001988374
0.0001922564
0.0001543127
0.0001571084
0.0001899217
0.0001876483
0.0001577218
0.0001529683
0.0001630268
0.0001542643
0.0001288244
0.0001033585
9.342975e-05
7.110783e-05
2.913492e-05
0.0002112667
0.0002462292
0.0003045275
0.0003455124
0.0003841513
0.0004313724
0.0004823098
0.0005333069
0.0005914795
0.0006485532
0.0007086992
0.0007672238
0.0008265281
0.0008875286
0.0009501751
0.001006852
0.00105647
0.001109783
0.001172298
0.001229628
0.001269995
0.001309028
0.001363497
0.001418979
0.001453853
0.001478759
0.00151657
0.001561657
0.001594796
0.001616544
0.001640071
0.001646521
0.001674837
0.001677901
0.001677282
0.001643677
0.001597113
0.001587822
0.001633276
0.00168066
0.001662141
0.001577824
0.001455182
0.00149956
0.001587423
0.001515719
0.001382213
0.001356113
0.00131352
0.001208008
0.001105459
0.001000303
0.0008793687
0.0007468714
0.0006112596
0.0004577776
0.0002867731
0.000156676
6.494919e-05
3.333629e-05
0.0003057611
0.0003765426
0.000457336
0.0005437899
0.000646164
0.0007550477
0.0008678247
0.0009823202
0.001098117
0.001214945
0.001329223
0.001440799
0.001548549
0.001651457
0.001750253
0.001842609
0.001929245
0.002011599
0.002089898
0.002162632
0.002229255
0.002291881
0.002351464
0.002406649
0.002456071
0.002501045
0.00254283
0.002581037
0.002614747
0.002541846
0.002562683
0.002625158
0.002613088
0.00263091
0.002624379
0.002601706
0.002582505
0.002599047
0.002664421
0.00270499
0.002654928
0.00257499
0.002613953
0.002655391
0.002620983
0.00258209
0.002533225
0.002475222
0.002404914
0.002319282
0.002206338
0.002055708
0.001885352
0.001441473
0.001221316
0.001068281
0.0006842124
0.0002787432
6.497093e-05
3.240527e-05
0.0003140665
0.0004368085
0.0005480872
0.0006779759
0.0008249483
0.0009813051
0.001142669
0.001312074
0.001476652
0.001634346
0.001784573
0.00192562
0.002060146
0.002186886
0.002307938
0.002423019
0.002532535
0.002637203
0.002737649
0.00282886
0.002909723
0.002983708
0.003051643
0.003113769
0.003170042
0.003220887
0.00326617
0.003306173
0.003340287
0.003368864
0.00339174
0.003409868
0.003423058
0.003429983
0.003431629
0.003427362
0.003416744
0.003399565
0.003375762
0.003345537
0.003308572
0.003263809
0.003210016
0.003148578
0.003077269
0.002994375
0.002898995
0.002792303
0.002671569
0.002536842
0.002388019
0.002219525
0.00194785
0.001768091
0.001469165
0.001128253
0.0007408687
0.0003363587
6.290885e-05
3.211676e-05
0.0003245731
0.0004940488
0.0006365655
0.0008033358
0.0009855855
0.001175418
0.001366418
0.001557019
0.001745882
0.001931564
0.002114372
0.002292516
0.0024576
0.002608419
0.002747473
0.00287558
0.002993465
0.003100949
0.003197473
0.003288422
0.003376749
0.003459777
0.003536874
0.003607971
0.003672336
0.003730496
0.00378244
0.003828253
0.003867472
0.00390031
0.003927001
0.003947273
0.003961108
0.003968424
0.003969223
0.003963495
0.003951208
0.003932288
0.003906488
0.003874012
0.003834998
0.003789904
0.003736443
0.003673287
0.003600208
0.003516273
0.003420142
0.003310065
0.003183464
0.003037843
0.002858235
0.00264823
0.002390721
0.002102845
0.001774011
0.001381453
0.0009214797
0.0004167717
6.296807e-05
3.241901e-05
0.0003227094
0.0005317659
0.0007007991
0.0008920224
0.001099144
0.001314289
0.00153131
0.001745812
0.001958813
0.002164237
0.002358392
0.002540216
0.002713885
0.002877615
0.003029313
0.003168773
0.00329741
0.003416803
0.003528374
0.003633668
0.003733489
0.003827381
0.003914915
0.003995862
0.00406989
0.004137312
0.004197695
0.004250931
0.004295576
0.004334504
0.004365626
0.004389108
0.004404925
0.00441304
0.004413333
0.004405947
0.004390711
0.004368223
0.004338255
0.00430028
0.00425264
0.00419363
0.004123833
0.004043367
0.003950408
0.003843916
0.003722998
0.0035858
0.003427972
0.003243916
0.003029806
0.002783353
0.002506931
0.002191848
0.001829417
0.001413617
0.000941139
0.0004390666
6.177172e-05
3.298761e-05
0.0003171481
0.0005603652
0.0007520676
0.0009616402
0.001187544
0.001421731
0.001658904
0.001891984
0.002116469
0.002331965
0.002535555
0.002727237
0.002909474
0.003082715
0.00324678
0.003401001
0.003545632
0.0036806
0.003808119
0.00392756
0.004040202
0.004146007
0.004244764
0.004336238
0.004420177
0.004496405
0.004564669
0.004623927
0.004675809
0.004719191
0.00475389
0.004779804
0.004797109
0.004806107
0.004806673
0.004798968
0.00478276
0.004756889
0.004720809
0.004674957
0.00461923
0.004553021
0.004475527
0.004385954
0.004283597
0.004167231
0.00403405
0.003880145
0.003701891
0.003496943
0.003263476
0.002997165
0.002695117
0.002318127
0.001944956
0.001525729
0.00102421
0.0004755336
6.221372e-05
3.363995e-05
0.0003096412
0.0005793895
0.0007939843
0.001019231
0.001259004
0.001506504
0.001754282
0.001998472
0.002235142
0.002462644
0.002679807
0.002886013
0.00308178
0.003267593
0.00344474
0.003613712
0.003774907
0.003927592
0.004071608
0.004207412
0.004334558
0.004453302
0.004563528
0.004665072
0.004757755
0.004841419
0.004914181
0.004979585
0.005035364
0.00508153
0.005118081
0.005145033
0.005162244
0.005169706
0.005167213
0.005154796
0.005132324
0.005099779
0.005056817
0.005003011
0.004937826
0.004860612
0.00477074
0.004667377
0.004548778
0.004412425
0.004255665
0.004076314
0.003872698
0.003642991
0.003384715
0.003086544
0.002641129
0.002263854
0.001930035
0.001544879
0.001036453
0.0004937601
6.15292e-05
3.431502e-05
0.0003014479
0.0005928598
0.0008281179
0.001065801
0.001315351
0.001571867
0.001829503
0.002084165
0.002332972
0.00257425
0.002806636
0.003029332
0.003242665
0.00344706
0.003643246
0.003831067
0.004010931
0.004182426
0.004344458
0.004496225
0.004637445
0.004767968
0.004887784
0.004996916
0.005095374
0.005182305
0.005259196
0.005325812
0.005381769
0.005427076
0.005461809
0.005486074
0.005499913
0.005503215
0.005495815
0.005477615
0.005448467
0.005408174
0.00535644
0.005292854
0.005216933
0.005128183
0.005025735
0.004908139
0.004773651
0.004620528
0.004447162
0.004251871
0.004032752
0.00378753
0.003501978
0.003037754
0.002639996
0.00231286
0.001995676
0.001594442
0.001076869
0.0005109475
6.189857e-05
3.498189e-05
0.0002932082
0.0006010931
0.000855546
0.001104473
0.001362073
0.001626322
0.001892767
0.002157638
0.002417859
0.002670313
0.002837795
0.002964891
0.003115572
0.00328471
0.003465172
0.003708489
0.004077304
0.004423027
0.004597883
0.004763637
0.004918604
0.00506132
0.005191207
0.005308423
0.005413125
0.005502808
0.005583165
0.005651213
0.005707104
0.005750919
0.005782794
0.005802956
0.005811535
0.005808537
0.005793931
0.005767659
0.005729595
0.005679539
0.005617208
0.005542283
0.005454326
0.005352537
0.005235797
0.005102819
0.004952277
0.004782737
0.004592644
0.004380267
0.004143755
0.003877097
0.003404141
0.002978371
0.002622197
0.00230337
0.001986829
0.001610884
0.001084831
0.0005203027
6.152882e-05
3.550633e-05
0.0002859585
0.0006064555
0.0008782357
0.001137623
0.001402261
0.001673084
0.001946848
0.002219707
0.002487377
0.002689541
0.002777586
0.002871379
0.002987901
0.003121881
0.003269214
0.003433905
0.0036515
0.003912029
0.004218325
0.0045797
0.005035737
0.005357147
0.005493473
0.005615497
0.005722841
0.005813682
0.005893036
0.005958723
0.00601105
0.006050354
0.006076985
0.006091111
0.006092808
0.006082135
0.006059106
0.006023715
0.005975897
0.005915503
0.005842338
0.005756038
0.005655992
0.005541395
0.005411321
0.00526476
0.005100569
0.004917437
0.004713922
0.004488424
0.004239233
0.0037972
0.003358099
0.002979801
0.002646403
0.002338024
0.002025636
0.001638447
0.001104976
0.0005299715
6.174807e-05
3.608724e-05
0.0002789501
0.0006087851
0.0008962971
0.001166094
0.001437712
0.001714581
0.001994345
0.002272652
0.002543501
0.002639185
0.00269235
0.00276448
0.002857875
0.002967406
0.00309218
0.003239943
0.003421785
0.003633369
0.003870759
0.004153693
0.004518917
0.005003141
0.005586694
0.005893109
0.006001922
0.00609365
0.006171103
0.006233752
0.006282036
0.006316471
0.006337494
0.006345259
0.006339863
0.006321317
0.006289503
0.006244733
0.006187192
0.00611667
0.006032864
0.005935377
0.005823655
0.00569703
0.005554712
0.00539579
0.005219184
0.00502364
0.004807758
0.004569984
0.00416576
0.003725864
0.003330231
0.002975931
0.002647461
0.002334437
0.002020102
0.001647616
0.00111053
0.0005342194
6.161112e-05
3.667879e-05
0.0002731133
0.0006100628
0.0009117824
0.00119189
0.001470434
0.001752744
0.002037119
0.002318587
0.002548596
0.00259527
0.002628122
0.002685185
0.002765798
0.00286256
0.002973226
0.003101828
0.003256254
0.003440701
0.003657445
0.003921089
0.004257257
0.004692986
0.005251188
0.005894543
0.00624692
0.006337369
0.006411461
0.0064703
0.00651443
0.006543977
0.006559222
0.006560468
0.006548035
0.006522236
0.006483403
0.006431271
0.006365507
0.006285957
0.006192362
0.006084807
0.005962804
0.005825766
0.005672991
0.005503643
0.005316725
0.005111063
0.004885336
0.004533503
0.00409749
0.003694665
0.00333118
0.002992495
0.002669596
0.002360065
0.002046617
0.001661816
0.001120668
0.0005396363
6.171351e-05
3.725653e-05
0.0002679346
0.000609902
0.0009244339
0.001214952
0.001500732
0.001788292
0.002076321
0.002359206
0.002519763
0.002543807
0.002568053
0.002620745
0.002697723
0.002792188
0.002902686
0.003028214
0.003173871
0.003339836
0.003536263
0.003777774
0.004094863
0.004520391
0.005079634
0.005763114
0.006427557
0.006534539
0.006608181
0.006665777
0.006707159
0.006733182
0.006744334
0.006740892
0.006723117
0.006691218
0.00664534
0.006585539
0.006511918
0.006424546
0.006323308
0.006207447
0.00607671
0.005930779
0.005769047
0.005590753
0.005394976
0.005180638
0.004888272
0.004455599
0.004045846
0.003678671
0.003335606
0.003002059
0.002676124
0.002360913
0.002044889
0.001670383
0.001125581
0.000541848
6.172545e-05
3.778229e-05
0.0002640126
0.0006101092
0.0009364177
0.001237346
0.001530481
0.001822956
0.00211377
0.002396716
0.002493427
0.002500489
0.002524145
0.002580023
0.002659604
0.002755665
0.00286485
0.002995974
0.003146044
0.003310027
0.003492059
0.003722787
0.004034015
0.004463624
0.005044298
0.005760824
0.006454593
0.006686184
0.006760805
0.006818443
0.006859198
0.006883735
0.006892538
0.006885999
0.006864445
0.006828136
0.006777277
0.006712015
0.006632435
0.006538556
0.006430222
0.0063074
0.006169747
0.00601658
0.005847564
0.005662016
0.00545903
0.00523749
0.004820747
0.004399255
0.004024819
0.003683307
0.003352051
0.003021776
0.002696697
0.002382583
0.002065306
0.001679131
0.001131566
0.0005453935
6.175545e-05
3.827406e-05
0.000260896
0.0006102402
0.0009472481
0.001258461
0.001559268
0.001856979
0.002150468
0.002433604
0.002464992
0.00246376
0.002493313
0.002556909
0.002644506
0.002748312
0.002866343
0.002998879
0.003149798
0.003310156
0.003483433
0.003714728
0.004033457
0.00448056
0.005091927
0.005847092
0.006565074
0.006796795
0.006874717
0.00693379
0.006975307
0.006999793
0.007007771
0.006999681
0.006975886
0.006936685
0.006882329
0.006813022
0.006728912
0.006630083
0.00651654
0.006388195
0.006244763
0.006086054
0.005911349
0.005720164
0.005511745
0.005188319
0.004759371
0.004363512
0.00401542
0.003690205
0.003364823
0.003033773
0.002704872
0.002386281
0.00206703
0.001686094
0.001135829
0.0005470271
6.181914e-05
3.871102e-05
0.0002587339
0.0006112754
0.0009584361
0.001280024
0.001588794
0.001891112
0.002186456
0.002421489
0.002438674
0.002439287
0.00247694
0.00255054
0.002647242
0.002760525
0.002890419
0.003035057
0.003187151
0.003337015
0.003513456
0.003748224
0.004080419
0.004555198
0.005206958
0.005999019
0.006719726
0.006873873
0.006955393
0.007017082
0.007060612
0.007086346
0.007094842
0.007086567
0.007061911
0.007021212
0.006964766
0.00689283
0.006805614
0.006703269
0.006585868
0.00645339
0.006305695
0.006142515
0.005963434
0.005767773
0.005554662
0.005143807
0.004718224
0.00434739
0.004021071
0.003707242
0.003385251
0.003053938
0.002724253
0.002404863
0.002082466
0.001692691
0.001140017
0.00054948
6.183509e-05
3.911825e-05
0.0002573911
0.0006130215
0.0009696632
0.001301263
0.001617669
0.001925345
0.00222234
0.002403099
0.002411852
0.002421289
0.002472145
0.002556175
0.002665514
0.002793243
0.002934819
0.003076747
0.003218481
0.003373313
0.003558011
0.003804414
0.004159619
0.004674483
0.005375922
0.00618788
0.006817833
0.006924156
0.007009476
0.007074657
0.007120916
0.007148804
0.007158841
0.007151482
0.007127123
0.007086119
0.0070288
0.006955465
0.006866377
0.006761748
0.006641716
0.006506326
0.006355505
0.006189049
0.006006603
0.005807569
0.005535781
0.005102188
0.004690946
0.00434125
0.0040297
0.003722285
0.0034008
0.003067025
0.0027339
0.002411313
0.002087453
0.001698232
0.001143481
0.0005509515
6.190274e-05
3.949186e-05
0.0002568852
0.0006160758
0.0009819063
0.001323395
0.001647642
0.001959908
0.002258181
0.002381112
0.002385561
0.002405905
0.002469421
0.002570249
0.002695835
0.002840102
0.002987917
0.003128311
0.003265635
0.003418118
0.003607947
0.003871571
0.004258622
0.004821308
0.005572279
0.00638383
0.006843832
0.00695395
0.007043028
0.00711196
0.007161357
0.007192067
0.007204433
0.00719887
0.007175753
0.007135436
0.007078265
0.007004568
0.006914648
0.006808766
0.006687116
0.006549802
0.006396818
0.006228021
0.006043117
0.005841648
0.005514525
0.00507628
0.004679587
0.004346796
0.004046197
0.003743064
0.003421657
0.0030864
0.00275162
0.002427414
0.002099575
0.001703824
0.0011469
0.0005527731
6.191948e-05
3.98472e-05
0.0002570662
0.0006201148
0.0009950657
0.001346513
0.001678877
0.001996209
0.002295724
0.002358713
0.002362755
0.002402022
0.002484178
0.00260193
0.002741065
0.002886927
0.00303057
0.003175599
0.003319587
0.003476205
0.003676489
0.003962668
0.004389006
0.005004637
0.005799232
0.00658983
0.006854423
0.00696803
0.007060786
0.007133434
0.007186357
0.007220363
0.007235655
0.007232575
0.007211452
0.007172618
0.007116414
0.007043182
0.006953256
0.006846935
0.006724463
0.006586
0.006431594
0.006261164
0.006074481
0.00587115
0.005495453
0.005055921
0.004674171
0.004355661
0.00406297
0.003761968
0.003439449
0.003101672
0.002763342
0.002434785
0.002105097
0.001708773
0.001150086
0.0005541942
6.197896e-05
4.019597e-05
0.0002579489
0.0006254758
0.00100926
0.001370448
0.001710495
0.002031658
0.00229387
0.002329228
0.002344986
0.002402249
0.002507531
0.002640978
0.00278387
0.002930776
0.003081352
0.00322672
0.003370937
0.003533139
0.003748867
0.00406605
0.004540835
0.005211167
0.006023977
0.006716109
0.006853671
0.006970277
0.007066539
0.0071429
0.007199584
0.007237206
0.007255858
0.007255783
0.007237239
0.007200514
0.007145927
0.007073818
0.006984538
0.006878418
0.006755741
0.006616714
0.006461442
0.006289904
0.00610193
0.005897183
0.005482137
0.005044372
0.004676212
0.004369235
0.004082299
0.003782413
0.003458922
0.003120055
0.002781228
0.002449423
0.002113041
0.001713702
0.001153025
0.0005556634
6.199295e-05
4.055106e-05
0.000259365
0.0006316178
0.001024604
0.001395278
0.001742523
0.002066935
0.002266441
0.00230129
0.00233529
0.002416046
0.002535351
0.002671559
0.002823361
0.002978609
0.003129807
0.003275331
0.003422131
0.003594119
0.003831837
0.004188152
0.004718325
0.005441188
0.006241059
0.006705063
0.006844427
0.006963712
0.007063265
0.007143291
0.007203943
0.007245385
0.00726771
0.007271032
0.007255516
0.007221385
0.007168916
0.007098435
0.007010294
0.006904845
0.006782407
0.006643235
0.006487489
0.006315203
0.006126258
0.005915564
0.005472101
0.005037704
0.004681735
0.004383677
0.004100675
0.003801033
0.003475675
0.003133283
0.002789758
0.002455429
0.002119613
0.001718028
0.001155636
0.0005565824
6.205156e-05
4.090888e-05
0.0002613509
0.0006389836
0.001040566
0.001420639
0.001774685
0.002101485
0.002237849
0.002275786
0.002333057
0.002432659
0.002559973
0.002709294
0.002866732
0.003024243
0.003176194
0.003322149
0.003473475
0.003659748
0.003926346
0.004327963
0.004913487
0.005674137
0.006439529
0.006687609
0.006828637
0.006950486
0.007053262
0.007136982
0.007201604
0.007247065
0.007273312
0.007280325
0.007268166
0.00723698
0.007186998
0.007118521
0.007031897
0.006927495
0.006805664
0.006666698
0.006510804
0.006338065
0.006148414
0.005914611
0.005466142
0.005038948
0.004691788
0.004400697
0.004120581
0.00382123
0.003495298
0.003152541
0.002805447
0.002465328
0.002125233
0.001722126
0.001157985
0.0005577221
6.208571e-05
4.128241e-05
0.0002638956
0.0006474236
0.001058273
0.001446799
0.001806937
0.002117904
0.002204701
0.002256918
0.002335825
0.002447234
0.002588155
0.002744904
0.002906618
0.003065996
0.003218341
0.003365805
0.003525099
0.003731834
0.004036289
0.004493242
0.005134456
0.005898907
0.006505309
0.006665905
0.006808334
0.006932569
0.007038484
0.007125874
0.007194463
0.00724404
0.007274397
0.007285281
0.007276686
0.007248672
0.007201412
0.007135177
0.00705031
0.006947192
0.0068262
0.006687669
0.006531852
0.006358882
0.006168744
0.00590602
0.005457329
0.005038331
0.004700858
0.004415403
0.004137783
0.00383787
0.003509018
0.003161946
0.002813761
0.002472833
0.002131239
0.001726126
0.001159896
0.0005584444
6.214688e-05
4.167981e-05
0.000266732
0.0006562739
0.001075393
0.00147299
0.001837371
0.002088049
0.002178686
0.002243915
0.002336638
0.00246397
0.002615777
0.002778626
0.002943605
0.00310401
0.003256955
0.003408089
0.003579958
0.003813959
0.004162906
0.004677089
0.00536557
0.006108112
0.006480429
0.00664113
0.006784881
0.006911439
0.007020457
0.00711151
0.007184088
0.007237834
0.007272375
0.007287227
0.007282307
0.007257585
0.007213177
0.007149319
0.007066348
0.006964656
0.006844649
0.006706703
0.006551117
0.006378077
0.006187615
0.00589554
0.00544729
0.005038539
0.004709671
0.004429885
0.004154947
0.003856958
0.003527666
0.003176811
0.002823444
0.002481515
0.002141839
0.00173
0.001162372
0.0005599033
6.218034e-05
4.20825e-05
0.0002700375
0.0006659721
0.001093934
0.001498137
0.001866653
0.00205601
0.002145631
0.002232434
0.002342518
0.002484178
0.002643678
0.002811016
0.002977864
0.003138749
0.003293112
0.003450967
0.003641268
0.003910597
0.004311175
0.004879306
0.005591319
0.006276964
0.006453445
0.006614388
0.006759521
0.006888423
0.007000549
0.007095264
0.007171829
0.007229742
0.007268457
0.007287283
0.00728605
0.007264641
0.007223111
0.007161667
0.007080638
0.00698043
0.006861477
0.006724195
0.00656893
0.006395915
0.00620523
0.005885327
0.005434773
0.005037587
0.004719495
0.004443878
0.004169156
0.003869055
0.003537947
0.003186731
0.002831916
0.002492692
0.002150914
0.001733493
0.001164107
0.0005606088
6.22142e-05
4.251315e-05
0.0002736833
0.0006762662
0.001112303
0.001523399
0.001865718
0.00202597
0.00212355
0.002222711
0.002351341
0.002503441
0.002669599
0.002840354
0.003008495
0.003170155
0.003327885
0.003496742
0.003711953
0.004023855
0.004480941
0.005100277
0.005797643
0.00625069
0.00642596
0.006587081
0.006733572
0.0068648
0.006980001
0.007078327
0.007158877
0.007220884
0.00726369
0.007286414
0.007288794
0.007270628
0.007231919
0.007172847
0.007093736
0.006995005
0.006877121
0.006740538
0.006585646
0.006412724
0.006221897
0.005874181
0.005422704
0.005033246
0.004726151
0.004459203
0.004187769
0.003886381
0.003551728
0.003197667
0.002844496
0.002503043
0.002156508
0.001736609
0.001165794
0.0005613678
6.225944e-05
4.295725e-05
0.000277441
0.0006863833
0.0011297
0.00154555
0.001837364
0.001989901
0.002101328
0.002218986
0.002361894
0.00252305
0.00269432
0.00286746
0.003036573
0.003199875
0.003363797
0.003549425
0.003797022
0.004156718
0.004666912
0.005318655
0.005978326
0.006223506
0.006398122
0.006559786
0.006707869
0.00684155
0.006959865
0.007061763
0.007146225
0.00721221
0.007258967
0.007285437
0.007291277
0.00727621
0.007240191
0.007183378
0.007106094
0.007008778
0.006891922
0.006756018
0.0066015
0.006428689
0.006237749
0.005860467
0.005409632
0.005030336
0.004730813
0.004469238
0.004199839
0.003897816
0.003561685
0.00320841
0.002856669
0.002512907
0.002162643
0.001739619
0.001167359
0.0005619746
6.229289e-05
4.340767e-05
0.0002816404
0.0006971977
0.001147207
0.00156292
0.001807782
0.001959851
0.002084152
0.00221975
0.002373585
0.002542128
0.002717457
0.002892446
0.003062764
0.003229394
0.003403275
0.003611647
0.00389898
0.00431301
0.004873403
0.005520001
0.006012506
0.006197877
0.006371938
0.006534155
0.006683773
0.006819845
0.006941209
0.007046568
0.007134762
0.007204548
0.007255055
0.007285057
0.00729414
0.007281963
0.007248444
0.007193726
0.007118136
0.00702213
0.00690623
0.006770961
0.006616792
0.006444082
0.006253032
0.005845129
0.005396371
0.005027826
0.00473719
0.004480242
0.004214753
0.003913701
0.00357637
0.003222057
0.002868035
0.002521712
0.002168716
0.001742482
0.001168855
0.0005625475
6.23343e-05
4.387878e-05
0.0002858892
0.0007073507
0.001162187
0.001540389
0.001776385
0.00193686
0.002072961
0.002221573
0.002385667
0.00256039
0.002738847
0.002915439
0.003087853
0.003260512
0.003449296
0.0036869
0.004019066
0.004485136
0.005081093
0.005699433
0.005990103
0.006174042
0.006347852
0.006510863
0.006662156
0.006800583
0.006924907
0.007033557
0.007125272
0.007198615
0.007252611
0.007285868
0.007297917
0.007288369
0.007257111
0.007204279
0.00713021
0.007035379
0.006920333
0.006785626
0.006631752
0.006459093
0.006267865
0.005825959
0.005380882
0.00502388
0.004742183
0.004490333
0.004226046
0.003925832
0.00359041
0.003235356
0.002879051
0.00253038
0.002174331
0.001745366
0.001170442
0.0005632202
6.236365e-05
4.435395e-05
0.000290213
0.0007172322
0.001175514
0.001519202
0.001744351
0.001910434
0.002065573
0.002227243
0.00239937
0.002578766
0.002759736
0.002938038
0.003113917
0.003295893
0.003505135
0.003779233
0.004162495
0.004675795
0.005274037
0.005777565
0.005969245
0.006152302
0.006326249
0.006490317
0.006643454
0.006784355
0.00691154
0.007023309
0.007118331
0.007194958
0.007252142
0.007288341
0.007303046
0.007295828
0.007266558
0.007215376
0.00714263
0.007048818
0.006934514
0.006800295
0.006646679
0.006474062
0.006259925
0.005805657
0.005368615
0.005022221
0.004747696
0.004498773
0.004234708
0.003937429
0.003607299
0.003250549
0.00288983
0.002538353
0.002178957
0.001747669
0.001171496
0.0005637149
6.23976e-05
4.483032e-05
0.0002947319
0.0007265009
0.001173469
0.001493499
0.001718964
0.001896544
0.002062573
0.002233634
0.002412765
0.002596241
0.002779407
0.00296004
0.003141721
0.003337457
0.003572934
0.003887835
0.004321008
0.004870832
0.005446582
0.005760796
0.005951136
0.006133694
0.00630801
0.00647325
0.006628246
0.006771554
0.00690151
0.007016339
0.007114407
0.007194019
0.00725407
0.007292861
0.007309877
0.007304663
0.007277086
0.007227292
0.007155651
0.007062683
0.006948987
0.006815163
0.006661746
0.006489146
0.006241047
0.005784094
0.005356306
0.005020421
0.004753324
0.004508113
0.004243994
0.003947521
0.003619834
0.003265336
0.00290296
0.002546579
0.002183276
0.001750008
0.001172736
0.0005641751
6.241772e-05
4.530757e-05
0.0002991167
0.000734424
0.001159923
0.001470814
0.001698983
0.00188403
0.002060761
0.002241188
0.002426423
0.002613282
0.002798635
0.002982766
0.003173059
0.003387333
0.003655767
0.004017305
0.004494181
0.005051207
0.005550217
0.005745631
0.005934605
0.006117115
0.006292392
0.006459376
0.006616697
0.006762567
0.006895218
0.007012949
0.00711382
0.007196118
0.0072587
0.007299728
0.0073187
0.007315152
0.007288959
0.007240285
0.007169521
0.007077215
0.006963985
0.006830453
0.006677164
0.006504533
0.006221247
0.00576247
0.005344976
0.005019236
0.004757745
0.004514499
0.004253048
0.003959502
0.00363346
0.003280464
0.002916256
0.002555369
0.002188188
0.001751996
0.001173604
0.0005643221
6.244294e-05
4.578067e-05
0.000303459
0.0007416992
0.001148357
0.001449457
0.001678704
0.00187529
0.002062873
0.002251008
0.002441015
0.002630651
0.002818528
0.003008025
0.003210737
0.003448805
0.003754903
0.004162845
0.00467502
0.005213523
0.005540194
0.005734066
0.005922567
0.006105313
0.006281523
0.006450026
0.006609297
0.006757678
0.006893012
0.007013422
0.007116859
0.007201534
0.007266301
0.007309196
0.007329758
0.007327531
0.007302407
0.007254578
0.007184461
0.007092628
0.006979718
0.006846364
0.00669312
0.006520395
0.006200416
0.005740235
0.005333633
0.005018548
0.004763111
0.004520176
0.004260653
0.003971596
0.003648159
0.003297719
0.00292951
0.002562618
0.002192447
0.001753962
0.001174615
0.0005647455
6.246689e-05
4.624394e-05
0.000307707
0.0007483968
0.001134955
0.001429783
0.0016645
0.001870473
0.002066833
0.002261515
0.002455531
0.002647703
0.002838962
0.003036334
0.003255785
0.003522913
0.003870334
0.004319773
0.004845023
0.005334657
0.00553236
0.005725514
0.005914064
0.006097559
0.006275127
0.006445485
0.006606984
0.0067577
0.006895354
0.007018203
0.007123881
0.007210566
0.007277127
0.007321495
0.007343265
0.007342003
0.00731763
0.007270368
0.007200664
0.007109113
0.006996368
0.006863071
0.006709773
0.006536878
0.006178212
0.005717249
0.005321828
0.005016416
0.00476633
0.004527336
0.004271253
0.003984245
0.003661726
0.003311173
0.002942182
0.002572036
0.002196932
0.001755541
0.001175189
0.0005648385
6.24817e-05
4.669655e-05
0.0003119564
0.0007548953
0.001123274
0.001413676
0.001653619
0.001867928
0.002072041
0.002272366
0.002469906
0.002664906
0.00286122
0.003069879
0.003310861
0.003611619
0.004000908
0.004484307
0.004996214
0.005331358
0.005527887
0.005720724
0.005909722
0.006094319
0.006273511
0.006445867
0.006609585
0.006762539
0.006902622
0.007027518
0.007135102
0.007223418
0.007291341
0.007336774
0.007359372
0.007358723
0.007334787
0.00728782
0.007218299
0.007126835
0.007014094
0.006880716
0.006727244
0.006554072
0.006155053
0.00569483
0.005311485
0.005015631
0.004769039
0.004534182
0.00428342
0.003997364
0.003673925
0.003322465
0.002956188
0.002582927
0.002200418
0.001757043
0.001175738
0.0005648809
6.250155e-05
4.713868e-05
0.0003161628
0.0007612681
0.001112974
0.001399418
0.001644983
0.001867649
0.002078894
0.00228397
0.002484505
0.002682817
0.002886192
0.003109791
0.003376721
0.003713687
0.004140345
0.004640442
0.005122572
0.00533027
0.005526514
0.005719726
0.005909714
0.006095824
0.006276923
0.00645144
0.006617427
0.006772561
0.00691475
0.007041555
0.007150741
0.007240422
0.007308918
0.007355083
0.007378165
0.007377804
0.00735401
0.00730708
0.00723752
0.007145957
0.007033059
0.006899452
0.006745659
0.006572043
0.006131058
0.005672574
0.005300804
0.005014429
0.004774675
0.004544759
0.004296673
0.004011556
0.003687419
0.003334035
0.002966278
0.002591421
0.002206191
0.001758216
0.001175893
0.0005647706
6.252305e-05
4.756964e-05
0.0003204649
0.0007662092
0.001104704
0.001388526
0.001639263
0.001869196
0.002086543
0.002295683
0.002499217
0.002702042
0.002915177
0.003157544
0.003454097
0.003828835
0.004288374
0.004780236
0.005133762
0.005332655
0.005529042
0.005723073
0.005914451
0.006102389
0.006285604
0.006462366
0.006630589
0.006787872
0.006931928
0.007060252
0.007170614
0.007261211
0.007330229
0.007376671
0.00739983
0.007399403
0.007375446
0.007328295
0.00725848
0.007166639
0.007053433
0.00691947
0.006765241
0.006563496
0.006106668
0.005655978
0.005294678
0.00501456
0.004781098
0.004557929
0.004312138
0.004027817
0.003702868
0.003346716
0.002975167
0.002598838
0.002209687
0.001759163
0.001175873
0.0005644894
6.25502e-05
4.798878e-05
0.0003246959
0.0007671117
0.001098543
0.001380472
0.001635614
0.001872046
0.002094752
0.002307446
0.002514279
0.002723277
0.002949302
0.003214181
0.003542274
0.003951212
0.004430362
0.004901158
0.005138982
0.005338164
0.005535416
0.00573085
0.005924077
0.006114176
0.006299714
0.006478807
0.006649154
0.006808457
0.006954097
0.007083646
0.007194844
0.007285971
0.007355145
0.007401495
0.007424386
0.007423578
0.007399184
0.007351577
0.00728131
0.007189025
0.007075369
0.006940926
0.006786151
0.006545136
0.006083672
0.005641215
0.005288862
0.00501652
0.004790651
0.004571633
0.004328126
0.004044595
0.003718861
0.003359761
0.002983232
0.002604852
0.002213826
0.001760051
0.001175812
0.0005642361
6.258465e-05
4.840016e-05
0.0003289082
0.0007685062
0.001094334
0.00137503
0.00163404
0.001875913
0.002103025
0.002318954
0.002529827
0.002747
0.002988861
0.003279295
0.003641013
0.004080903
0.004559185
0.004945395
0.005147298
0.005347333
0.005546005
0.005743339
0.005938815
0.00613136
0.00631938
0.006500835
0.00667323
0.006834269
0.006981291
0.007111744
0.007223417
0.007314684
0.007383645
0.007429552
0.007451853
0.007450381
0.007425302
0.00737703
0.007306134
0.007213254
0.007099018
0.006963978
0.006808549
0.00652432
0.006057595
0.005623933
0.005283584
0.005021892
0.004802024
0.004584597
0.004342223
0.004059625
0.003733797
0.00337278
0.002993073
0.002609702
0.002214572
0.00176057
0.001175456
0.0005638477
6.262972e-05
4.880017e-05
0.0003331782
0.0007701268
0.00109188
0.001372307
0.001634396
0.001880269
0.002110861
0.002330093
0.002546283
0.002774141
0.003034966
0.003352874
0.003745552
0.004207419
0.004673125
0.004956148
0.005158935
0.005360427
0.005561065
0.005760759
0.005958839
0.006154066