/*--------------------------------*- C++ -*----------------------------------*\
| =========                 |                                                 |
| \\      /  F ield         | OpenFOAM: The Open Source CFD Toolbox           |
|  \\    /   O peration     | Version:  2312                                  |
|   \\  /    A nd           | Website:  www.openfoam.com                      |
|    \\/     M anipulation  |                                                 |
\*---------------------------------------------------------------------------*/
FoamFile
{
    version     2.0;
    format      ascii;
    arch        "LSB;label=32;scalar=64";
    class       volScalarField;
    location    "2000";
    object      T;
}
// * * * * * * * * * * * * * * * * * * * * * * * * * * * * * * * * * * * * * //

dimensions      [0 0 0 1 0 0 0];

internalField   nonuniform List<scalar> 
12000
(
446.3778
438.8295
437.8697
437.6269
437.4734
437.3341
437.2001
437.069
436.9393
436.8107
436.6823
436.5539
436.425
436.2951
436.1635
436.0304
435.8965
435.7611
435.6231
435.4828
435.3414
435.1989
435.0541
434.9067
434.7579
434.6082
434.4563
434.3015
434.1445
433.9855
433.8235
433.6576
433.4888
433.3209
433.1559
432.9937
432.8272
432.6449
432.4427
432.2596
432.1218
431.9818
431.7559
431.4447
431.1785
431.0077
430.7464
430.3303
429.9265
429.6027
429.1773
428.5804
427.9257
427.2351
426.3699
425.2534
423.9205
421.9719
419.1616
414.237
446.6876
439.6783
439.0201
439.1002
439.3025
439.5342
439.7721
440.0065
440.2124
440.4178
440.6067
440.7838
440.9429
441.0796
441.1951
441.305
441.4113
441.4936
441.541
441.5808
441.6366
441.6853
441.6957
441.6879
441.7
441.7219
441.7156
441.6821
441.6525
441.6325
441.6021
441.5547
441.496
441.4336
441.3744
441.3135
441.2406
441.1455
441.0312
440.9087
440.775
440.626
440.4573
440.2677
440.0537
439.8101
439.5358
439.2208
438.8596
438.4357
437.9322
437.3301
436.6067
435.7326
434.6378
433.2592
431.4166
428.6423
424.289
416.3083
447.4075
440.5995
440.0173
440.2948
440.7416
441.2179
441.6873
442.1324
442.5445
442.9196
443.2591
443.5658
443.8408
444.084
444.2974
444.4856
444.6518
444.7958
444.9178
445.0217
445.1121
445.1895
445.2523
445.3019
445.3425
445.3757
445.3993
445.4126
445.4178
445.4165
445.4085
445.3921
445.3682
445.3357
445.2945
445.2448
445.1784
445.0984
445.0055
444.8988
444.7783
444.6443
444.4949
444.3265
444.1347
443.914
443.6623
443.3729
443.0411
442.6512
442.1916
441.6446
440.9901
440.1996
439.1829
437.8079
435.8994
433.0588
428.0809
417.3533
448.4085
441.4242
440.8339
441.2203
441.8195
442.4433
443.0448
443.6023
444.1252
444.5984
445.021
445.3936
445.7184
446.003
446.2489
446.4616
446.6456
446.8046
446.9415
447.0594
447.161
447.248
447.3218
447.3837
447.4352
447.4773
447.5104
447.535
447.5515
447.5604
447.5626
447.556
447.5414
447.5179
447.4837
447.4347
447.3736
447.3012
447.217
447.1192
447.0071
446.88
446.7359
446.5707
446.3817
446.1649
445.9142
445.6229
445.2848
444.8877
444.4198
443.8659
443.2016
442.3767
441.3258
439.9473
438.0458
435.193
430.1135
418.0402
449.4155
442.2058
441.5823
442.028
442.7228
443.4428
444.1256
444.7502
445.3142
445.8185
446.2628
446.6499
446.9841
447.272
447.5172
447.7256
447.903
448.0541
448.183
448.293
448.3875
448.4683
448.5372
448.595
448.6432
448.6823
448.7138
448.7374
448.7537
448.7626
448.7648
448.7595
448.7463
448.7245
448.6916
448.6481
448.5947
448.531
448.4562
448.369
448.2681
448.1512
448.0158
447.8588
447.677
447.4655
447.2186
446.9299
446.5914
446.1929
445.7209
445.1546
444.4636
443.606
442.5211
441.1166
439.2099
436.3744
431.3099
418.5646
450.4555
442.9559
442.2665
442.7249
443.4669
444.2417
444.9724
445.6337
446.2173
446.7251
447.1615
447.5334
447.8509
448.1206
448.348
448.5386
448.698
448.8313
448.9428
449.0364
449.1152
449.1815
449.2372
449.2834
449.3213
449.3517
449.3755
449.3931
449.4046
449.4102
449.4099
449.4033
449.39
449.3691
449.3397
449.3021
449.2561
449.2009
449.1354
449.058
448.9671
448.8604
448.7351
448.5881
448.4153
448.2122
447.9733
447.6918
447.3592
446.9636
446.4888
445.9133
445.2083
444.3347
443.2346
441.8157
439.9032
437.0779
432.0348
418.8947
451.4949
443.6847
442.9187
443.3646
444.1233
444.9227
445.6725
446.3421
446.9234
447.4191
447.8363
448.1841
448.4727
448.7117
448.909
449.0714
449.2049
449.3142
449.4038
449.4773
449.5376
449.5871
449.6275
449.6602
449.6864
449.7067
449.722
449.7325
449.7384
449.74
449.737
449.7293
449.7164
449.6974
449.6723
449.6407
449.602
449.5551
449.4988
449.4314
449.351
449.2552
449.1413
449.0058
448.8448
448.6537
448.4265
448.156
447.8322
447.4427
446.9714
446.397
445.6903
444.8095
443.6922
442.2513
440.3307
437.5174
432.4985
419.1607
452.5453
444.4011
443.5489
443.9646
444.7163
445.5164
446.2631
446.922
447.4851
447.9564
448.3449
448.6618
448.918
449.1242
449.2895
449.4217
449.5275
449.6121
449.6795
449.7333
449.7762
449.8102
449.8371
449.8582
449.8743
449.8863
449.8946
449.8995
449.9013
449.9
449.8955
449.8875
449.8756
449.8593
449.8384
449.8122
449.7798
449.7402
449.692
449.6335
449.5626
449.477
449.3737
449.2494
449.1001
448.9205
448.7046
448.4444
448.1301
447.7492
447.2855
446.7176
446.0152
445.1266
443.9877
442.5328
440.6148
437.8167
432.8201
419.3371
453.5928
445.1084
444.1668
444.5416
445.2688
446.0505
446.7769
447.4102
447.9427
448.3797
448.732
449.0125
449.2338
449.4074
449.5428
449.648
449.7295
449.7926
449.8413
449.8786
449.9073
449.9292
449.9458
449.9582
449.9671
449.9732
449.9769
449.9784
449.9778
449.975
449.97
449.9626
449.9522
449.9386
449.9212
449.8994
449.8722
449.8385
449.7968
449.7456
449.6826
449.6056
449.5115
449.3968
449.2573
449.0877
448.8816
448.6312
448.3265
447.9551
447.5005
446.9403
446.2338
445.3295
444.1839
442.73
440.8166
438.0278
433.0476
419.4918
454.6317
445.8092
444.7758
445.1016
445.7907
446.5387
447.2304
447.826
448.3178
448.7124
449.0218
449.2631
449.4514
449.5966
449.7071
449.7909
449.8539
449.9005
449.9344
449.9592
449.9776
449.991
450.0006
450.0073
450.0117
450.0142
450.0152
450.0148
450.013
450.0098
450.005
449.9984
449.9896
449.9781
449.9635
449.945
449.9217
449.8925
449.8558
449.8101
449.7534
449.683
449.5961
449.4891
449.3575
449.1961
448.9985
448.7567
448.4607
448.0981
447.6522
447.0922
446.3764
445.4692
444.3249
442.8709
440.9605
438.1822
433.2188
419.6154
455.651
446.5045
445.3776
445.6478
446.2877
446.9889
447.6339
448.1817
448.6255
448.9728
449.24
449.4467
449.6058
449.7261
449.8155
449.8812
449.929
449.9631
449.9872
450.0041
450.0158
450.0236
450.0287
450.0318
450.0334
450.0339
450.0334
450.032
450.0297
450.0264
450.022
450.0161
450.0085
449.9986
449.986
449.97
449.9495
449.9235
449.8907
449.8492
449.7972
449.7321
449.6508
449.5498
449.4246
449.27
449.0793
448.8448
448.5563
448.2013
447.757
447.1915
446.474
445.5692
444.4285
442.9787
441.0727
438.3004
433.35
419.7344
456.6539
447.1936
445.9711
446.18
446.7613
447.4054
447.9944
448.4879
448.8801
449.18
449.4086
449.5849
449.7184
449.8174
449.8894
449.941
449.9773
450.0024
450.0194
450.0306
450.0377
450.042
450.0443
450.0452
450.0452
450.0444
450.043
450.0411
450.0384
450.0351
450.0309
450.0255
450.0186
450.0098
449.9985
449.9841
449.9657
449.9421
449.9121
449.8738
449.8254
449.7642
449.6873
449.5911
449.471
449.3217
449.1368
448.9081
448.6259
448.2735
447.8265
447.2596
446.5449
445.6448
444.5078
443.0588
441.1552
438.3905
433.4529
419.8382
457.6273
447.8754
446.5551
446.6968
447.2118
447.7907
448.3174
448.7529
449.0926
449.3488
449.5434
449.6921
449.8032
449.8842
449.942
449.9823
450.01
450.0286
450.0405
450.0479
450.0521
450.0541
450.0546
450.0541
450.053
450.0514
450.0494
450.047
450.044
450.0405
450.0362
450.031
450.0245
450.0163
450.0059
449.9926
449.9756
449.9538
449.9258
449.8899
449.8442
449.7861
449.7126
449.6201
449.504
449.3591
449.1788
448.9551
448.6758
448.3223
447.8739
447.3086
446.5977
445.7022
444.5692
443.1241
441.224
438.4624
433.5337
419.9394
458.563
448.5472
447.1267
447.1959
447.6387
448.1469
448.6079
448.9845
449.2731
449.4893
449.6534
449.7776
449.8692
449.9349
449.9809
450.0125
450.0335
450.0472
450.0556
450.0604
450.0627
450.0632
450.0626
450.0611
450.0592
450.0571
450.0546
450.0517
450.0484
450.0446
450.0402
450.035
450.0286
450.0207
450.0108
449.9982
449.9822
449.9616
449.935
449.901
449.8573
449.8015
449.7307
449.641
449.5281
449.3866
449.21
448.9894
448.7102
448.355
447.907
447.3448
446.6385
445.7473
444.6174
443.1734
441.2747
438.5173
433.5967
420.0275
459.4541
449.2065
447.6838
447.6754
448.0415
448.4758
448.8698
449.1887
449.4295
449.6092
449.7456
449.8478
449.9223
449.9749
450.0112
450.0356
450.0514
450.0614
450.0672
450.0701
450.071
450.0706
450.0691
450.0671
450.0646
450.062
450.0591
450.0559
450.0523
450.0483
450.0437
450.0383
450.0319
450.0242
450.0146
450.0025
449.9871
449.9673
449.9419
449.9091
449.8669
449.8129
449.7441
449.6566
449.5462
449.4074
449.2336
449.014
448.7334
448.3779
447.9317
447.3729
446.6706
445.7832
444.6567
443.2165
441.3208
438.5653
433.6515
420.1065
460.3034
449.8506
448.2233
448.133
448.4194
448.7787
449.1063
449.3696
449.5664
449.7132
449.8244
449.907
449.9663
450.0076
450.0356
450.0541
450.0657
450.0727
450.0764
450.0779
450.0777
450.0765
450.0744
450.0719
450.0691
450.0662
450.0631
450.0597
450.0559
450.0516
450.0469
450.0414
450.0351
450.0274
450.018
450.0062
449.9913
449.9721
449.9474
449.9156
449.8746
449.8219
449.7545
449.6688
449.5603
449.4237
449.2511
449.0308
448.7495
448.3947
447.9506
447.3951
446.6964
445.8124
444.6885
443.2497
441.3555
438.603
433.6943
420.1673
461.1141
450.4773
448.7434
448.5677
448.773
449.0576
449.3207
449.5311
449.6881
449.8051
449.8933
449.9579
450.0037
450.0352
450.0562
450.0696
450.0777
450.0822
450.0841
450.0843
450.0832
450.0812
450.0785
450.0756
450.0725
450.0695
450.0662
450.0627
450.0589
450.0546
450.0499
450.0444
450.0381
450.0306
450.0214
450.0099
449.9953
449.9765
449.9524
449.9212
449.881
449.8293
449.7631
449.6786
449.5715
449.4365
449.2644
449.0432
448.7616
448.4078
447.966
447.4133
446.7176
445.8364
444.7154
443.2799
441.3881
438.6369
433.732
420.2152
461.8943
451.085
449.2422
448.9784
449.1022
449.314
449.5157
449.677
449.7973
449.8871
449.9542
450.0027
450.0365
450.0593
450.074
450.0831
450.0882
450.0904
450.0908
450.0897
450.0876
450.0848
450.0816
450.0783
450.0751
450.0719
450.0686
450.0651
450.0613
450.0571
450.0525
450.0473
450.0411
450.0338
450.0248
450.0135
449.9992
449.9808
449.957
449.9264
449.8868
449.8358
449.7704
449.6869
449.581
449.4466
449.2743
449.0525
448.771
448.4184
447.9786
447.4285
446.7353
445.8566
444.7379
443.3042
441.4143
438.6655
433.764
420.2503
462.6468
451.6722
449.7184
449.365
449.4083
449.5499
449.6938
449.8098
449.8965
449.9613
450.009
450.0429
450.066
450.081
450.0902
450.0953
450.0976
450.0978
450.0966
450.0943
450.0913
450.0877
450.084
450.0804
450.0769
450.0736
450.0703
450.0668
450.0631
450.0592
450.0548
450.0498
450.0439
450.0368
450.028
450.017
450.0029
449.9848
449.9614
449.9311
449.892
449.8416
449.7768
449.6941
449.589
449.4549
449.2821
449.0599
448.7788
448.4273
447.9893
447.4412
446.7503
445.8739
444.7578
443.3269
441.4392
438.6921
433.7939
420.2805
463.3733
452.2383
450.1716
449.7276
449.6923
449.767
449.8569
449.9314
449.9874
450.029
450.0591
450.0798
450.0931
450.1011
450.1053
450.1068
450.1065
450.1048
450.1021
450.0986
450.0945
450.0902
450.086
450.082
450.0784
450.075
450.0715
450.0681
450.0645
450.0607
450.0566
450.0518
450.0462
450.0394
450.0309
450.0202
450.0064
449.9886
449.9655
449.9355
449.8968
449.8467
449.7825
449.7003
449.5957
449.4618
449.2885
449.066
448.7852
448.4348
447.9984
447.4521
446.7632
445.8891
444.7753
443.3464
441.4607
438.7162
433.8212
420.3085
464.0722
452.7823
450.6014
450.0672
449.9557
449.9674
450.0071
450.0437
450.0716
450.0918
450.1057
450.1144
450.1189
450.1205
450.12
450.1182
450.1153
450.1117
450.1074
450.1027
450.0976
450.0926
450.0879
450.0836
450.0798
450.0762
450.0726
450.0691
450.0656
450.0619
450.0579
450.0534
450.048
450.0415
450.0333
450.0229
450.0094
449.9919
449.9691
449.9395
449.9011
449.8514
449.7874
449.7056
449.6014
449.4675
449.2937
449.0709
448.7904
448.441
448.006
447.4612
446.7741
445.9022
444.7911
443.3649
441.4814
438.739
433.8471
420.3379
464.7406
453.3036
451.0082
450.385
450.2006
450.1533
450.1469
450.1487
450.1504
450.1508
450.1499
450.1476
450.1441
450.1398
450.1349
450.1298
450.1244
450.1188
450.1129
450.1069
450.1009
450.0952
450.09
450.0854
450.0813
450.0774
450.0737
450.0701
450.0665
450.0628
450.0589
450.0545
450.0493
450.043
450.0351
450.0249
450.0117
449.9946
449.9721
449.9428
449.9047
449.8553
449.7917
449.7101
449.6061
449.472
449.2977
449.0747
448.7946
448.446
448.0121
447.4689
446.7835
445.9135
444.8044
443.3804
441.4994
438.7592
433.8695
420.368
465.376
453.8017
451.3927
450.6827
450.4289
450.3268
450.2782
450.2479
450.2251
450.2072
450.1925
450.1802
450.1693
450.1596
450.1506
450.1422
450.1343
450.1265
450.119
450.1116
450.1046
450.0982
450.0925
450.0875
450.0831
450.0789
450.0749
450.0711
450.0673
450.0636
450.0596
450.0552
450.0501
450.044
450.0362
450.0263
450.0134
449.9965
449.9744
449.9454
449.9076
449.8586
449.7952
449.7138
449.6098
449.4753
449.3007
449.0776
448.7978
448.4499
448.017
447.4749
446.7913
445.9236
444.8168
443.3953
441.5165
438.7783
433.8912
420.3985
465.9795
454.2771
451.7564
450.9622
450.6431
450.4902
450.4026
450.3423
450.2968
450.2618
450.2346
450.213
450.1953
450.1804
450.1674
450.1557
450.1451
450.1352
450.1258
450.117
450.109
450.1018
450.0955
450.09
450.0851
450.0805
450.0761
450.072
450.0681
450.0642
450.0601
450.0557
450.0506
450.0445
450.0369
450.0271
450.0144
449.9978
449.9759
449.9472
449.9097
449.8609
449.7978
449.7166
449.6125
449.4777
449.3026
449.0795
448.8
448.4528
448.0208
447.4799
446.7976
445.9314
444.8269
443.4082
441.5321
438.7952
433.9105
420.4273
466.5518
454.7301
452.1004
451.2257
450.8453
450.6457
450.5216
450.4332
450.3664
450.3157
450.2769
450.2467
450.2226
450.2027
450.1857
450.1707
450.1573
450.1449
450.1336
450.1233
450.114
450.1059
450.099
450.0929
450.0873
450.0822
450.0774
450.073
450.0688
450.0647
450.0605
450.056
450.0508
450.0447
450.0371
450.0274
450.0149
449.9984
449.9767
449.9483
449.911
449.8624
449.7995
449.7185
449.6143
449.479
449.3036
449.0803
448.8011
448.4544
448.0232
447.4836
446.8027
445.9382
444.8357
443.4204
441.5472
438.8113
433.9296
420.4549
467.0944
455.1616
452.4267
451.4753
451.0377
450.795
450.6367
450.5216
450.435
450.3697
450.3201
450.2819
450.2516
450.2267
450.2057
450.1873
450.1708
450.1559
450.1424
450.1303
450.1197
450.1106
450.1029
450.096
450.0897
450.0839
450.0787
450.0739
450.0695
450.0651
450.0607
450.0561
450.0509
450.0447
450.0371
450.0275
450.0149
449.9985
449.977
449.9486
449.9114
449.863
449.8002
449.7193
449.6151
449.4793
449.3035
449.0802
448.8013
448.4551
448.0248
447.4861
446.8066
445.9437
444.8438
443.4318
441.5608
438.8263
433.9479
420.4802
467.6109
455.5733
452.7373
451.7135
451.2231
450.9391
450.7482
450.6083
450.5034
450.4245
450.3648
450.3189
450.2825
450.2528
450.2276
450.2056
450.1859
450.1681
450.1522
450.1381
450.1261
450.1158
450.107
450.0991
450.092
450.0857
450.0799
450.0748
450.07
450.0654
450.0609
450.0561
450.0508
450.0446
450.037
450.0273
450.0147
449.9983
449.9768
449.9484
449.9113
449.8628
449.8001
449.7193
449.6149
449.4787
449.3024
449.079
448.8003
448.4548
448.0254
447.4878
446.8097
445.949
444.852
443.4425
441.5731
438.8395
433.9629
420.5049
468.1007
455.9658
453.0338
451.9421
451.4029
451.0795
450.8573
450.6941
450.5722
450.4808
450.4115
450.358
450.3156
450.2808
450.2513
450.2253
450.2021
450.1812
450.1627
450.1465
450.1328
450.1213
450.1112
450.1023
450.0943
450.0872
450.081
450.0754
450.0703
450.0656
450.0609
450.056
450.0507
450.0444
450.0367
450.0269
450.0143
449.9979
449.9762
449.9478
449.9106
449.8621
449.7993
449.7184
449.6138
449.4771
449.3004
449.0769
448.7985
448.4536
448.0249
447.4885
446.8119
445.9536
444.8593
443.4523
441.5846
438.8517
433.9767
420.53
468.5646
456.3411
453.3186
452.1638
451.5778
451.2164
450.9646
450.7799
450.6422
450.5388
450.4602
450.3993
450.3508
450.3107
450.2764
450.2462
450.2191
450.1949
450.1736
450.1553
450.1399
450.1268
450.1154
450.1053
450.0964
450.0887
450.0819
450.0759
450.0706
450.0656
450.0608
450.0558
450.0504
450.044
450.0363
450.0265
450.0138
449.9973
449.9755
449.947
449.9096
449.861
449.798
449.7171
449.6121
449.4748
449.2977
449.0741
448.7959
448.4515
448.0238
447.4887
446.8138
445.9577
444.8661
443.4614
441.5951
438.8623
433.9882
420.555
469.0033
456.7008
453.5937
452.3807
451.7484
451.35
451.0707
450.8659
450.7134
450.5987
450.5111
450.4427
450.3877
450.3419
450.3025
450.2676
450.2364
450.2087
450.1846
450.1641
450.1469
450.1322
450.1193
450.108
450.0983
450.0899
450.0826
450.0763
450.0707
450.0655
450.0606
450.0555
450.05
450.0436
450.0358
450.0259
450.0132
449.9965
449.9746
449.946
449.9085
449.8596
449.7965
449.7153
449.6099
449.4719
449.2943
449.0706
448.7926
448.4487
448.0219
447.4881
446.8152
445.9615
444.8725
443.4702
441.605
438.8722
433.9987
420.58
469.4142
457.0455
453.8603
452.5931
451.9157
451.4814
451.1761
450.9527
450.7862
450.6605
450.5638
450.4877
450.4259
450.3739
450.3288
450.2889
450.2534
450.2222
450.1954
450.1728
450.1537
450.1372
450.1229
450.1105
450.0999
450.0909
450.0831
450.0765
450.0706
450.0653
450.0603
450.0551
450.0495
450.043
450.0352
450.0252
450.0124
449.9956
449.9736
449.9448
449.9071
449.8582
449.7948
449.7133
449.6074
449.4687
449.2907
449.0668
448.789
448.4455
448.0193
447.4869
446.8163
445.9653
444.8789
443.4788
441.6145
438.8813
434.0078
420.6031
469.7981
457.3775
454.122
452.8002
452.0785
451.6108
451.2814
451.0404
450.8604
450.7237
450.6179
450.5338
450.4645
450.4058
450.3546
450.3095
450.2697
450.2352
450.2058
450.1811
450.1601
450.1418
450.1261
450.1126
450.1012
450.0916
450.0835
450.0765
450.0705
450.065
450.0598
450.0546
450.0489
450.0424
450.0344
450.0244
450.0115
449.9946
449.9725
449.9435
449.9057
449.8565
449.7931
449.7112
449.6046
449.4653
449.2868
449.0628
448.7852
448.442
448.0164
447.4853
446.8169
445.9688
444.8854
443.4872
441.6233
438.8893
434.0148
420.6219
470.157
457.698
454.3794
453.0028
452.2379
451.7387
451.3866
451.1287
450.9355
450.788
450.6728
450.58
450.5028
450.4368
450.3793
450.3289
450.2849
450.2473
450.2155
450.1887
450.1657
450.1458
450.1287
450.1143
450.1022
450.0921
450.0836
450.0764
450.0702
450.0646
450.0593
450.054
450.0483
450.0417
450.0336
450.0235
450.0105
449.9935
449.9712
449.9421
449.9041
449.8548
449.7912
449.7091
449.6018
449.4619
449.283
449.0589
448.7813
448.4384
448.0135
447.4836
446.8174
445.9723
444.8918
443.4954
441.6317
438.896
434.0192
420.6342
470.4929
458.0078
454.6318
453.2019
452.3948
451.8654
451.4917
451.2175
451.0112
450.8527
450.7274
450.6254
450.5398
450.4663
450.4023
450.3467
450.2988
450.2583
450.2244
450.1955
450.1706
450.1491
450.1309
450.1156
450.1029
450.0923
450.0836
450.0762
450.0698
450.0641
450.0588
450.0534
450.0476
450.0409
450.0328
450.0226
450.0094
449.9923
449.9699
449.9407
449.9025
449.8531
449.7894
449.7069
449.599
449.4585
449.2793
449.0551
448.7776
448.4349
448.0107
447.4822
446.8182
445.9761
444.8983
443.5035
441.6397
438.902
434.0221
420.6391
470.8093
458.3075
454.8796
453.3979
452.5496
451.9911
451.5965
451.3063
451.0867
450.9167
450.7809
450.6692
450.5747
450.4935
450.4232
450.3626
450.3112
450.2682
450.2321
450.2012
450.1745
450.1517
450.1325
450.1165
450.1032
450.0923
450.0833
450.0758
450.0693
450.0636
450.0582
450.0527
450.0469
450.0401
450.0319
450.0216
450.0083
449.9911
449.9686
449.9392
449.9009
449.8513
449.7875
449.7047
449.5962
449.4551
449.2756
449.0514
448.774
448.4318
448.0084
447.4813
446.8192
445.9797
444.9047
443.5117
441.6477
438.9077
434.0237
420.6363
471.1098
458.5978
455.1226
453.5911
452.7027
452.116
451.7008
451.3944
451.1614
450.9793
450.8324
450.7104
450.6069
450.518
450.4416
450.3766
450.3221
450.2769
450.2386
450.2058
450.1775
450.1536
450.1335
450.1169
450.1033
450.0921
450.0829
450.0753
450.0688
450.063
450.0575
450.052
450.0461
450.0393
450.031
450.0206
450.0073
449.9899
449.9672
449.9377
449.8993
449.8496
449.7856
449.7026
449.5934
449.4518
449.2721
449.0478
448.7707
448.4291
448.0068
447.481
446.8206
445.9834
444.9113
443.5202
441.6554
438.9129
434.0237
420.627
471.397
458.8793
455.3608
453.7815
452.8541
452.2396
451.804
451.4811
451.2342
451.0395
450.8809
450.7485
450.6359
450.5396
450.4577
450.3888
450.3316
450.2841
450.2438
450.2092
450.1796
450.1548
450.1341
450.117
450.1031
450.0917
450.0824
450.0747
450.0681
450.0623
450.0568
450.0513
450.0454
450.0385
450.0302
450.0197
450.0062
449.9887
449.9659
449.9362
449.8977
449.8479
449.7838
449.7004
449.5907
449.4486
449.2687
449.0445
448.7678
448.427
448.0058
447.4814
446.8228
445.9876
444.9178
443.5285
441.6635
438.9181
434.0224
420.6132
471.6722
459.1536
455.5933
453.9684
453.0035
452.3617
451.9056
451.5658
451.3044
451.0964
450.9258
450.7828
450.6614
450.5582
450.4713
450.3991
450.3396
450.2899
450.2476
450.2114
450.1809
450.1553
450.1341
450.1168
450.1026
450.0911
450.0817
450.074
450.0674
450.0616
450.0561
450.0506
450.0446
450.0377
450.0293
450.0187
450.0051
449.9875
449.9646
449.9349
449.8963
449.8464
449.7821
449.6982
449.588
449.4456
449.2655
449.0415
448.7652
448.4253
448.0054
447.4827
446.8261
445.9929
444.9247
443.5365
441.6712
438.9225
434.0194
420.5969
471.9364
459.4221
455.8195
454.151
453.1503
452.4817
452.0048
451.6478
451.3712
451.1495
450.9667
450.8132
450.6833
450.5739
450.4827
450.4076
450.346
450.2942
450.25
450.2126
450.1813
450.1552
450.1338
450.1162
450.1019
450.0904
450.081
450.0732
450.0667
450.0609
450.0554
450.0499
450.0439
450.0369
450.0284
450.0177
450.0041
449.9864
449.9634
449.9336
449.8949
449.845
449.7805
449.6961
449.5854
449.4428
449.2626
449.0389
448.7632
448.4242
448.0056
447.4848
446.8303
445.9991
444.9325
443.5449
441.6785
438.9258
434.0145
420.5798
472.1891
459.6841
456.0398
454.3294
453.2943
452.5992
452.1012
451.7263
451.434
451.1982
451.0031
450.8394
450.7018
450.5869
450.4921
450.4147
450.3508
450.2969
450.2512
450.2129
450.181
450.1546
450.133
450.1154
450.1011
450.0896
450.0802
450.0724
450.0659
450.0601
450.0546
450.0491
450.0431
450.0361
450.0275
450.0168
450.0031
449.9853
449.9623
449.9324
449.8937
449.8437
449.779
449.6943
449.5832
449.4402
449.2602
449.0367
448.7617
448.4236
448.0063
447.4872
446.8349
446.0059
444.9409
443.5534
441.6851
438.9278
434.0077
420.5624
472.4296
459.9393
456.2544
454.5036
453.4352
452.7138
452.1942
451.8008
451.4922
451.2422
451.035
450.8618
450.7171
450.5974
450.4997
450.4201
450.354
450.2982
450.2513
450.2122
450.18
450.1535
450.1319
450.1143
450.1002
450.0887
450.0793
450.0716
450.0651
450.0593
450.0539
450.0484
450.0423
450.0352
450.0267
450.0159
450.0021
449.9843
449.9612
449.9313
449.8925
449.8426
449.7778
449.6926
449.5812
449.4381
449.2581
449.0351
448.7607
448.4235
448.0073
447.4898
446.8395
446.0127
444.9491
443.5617
441.6912
438.9285
433.9989
420.5451
472.658
460.1873
456.4635
454.6736
453.5726
452.8248
452.2833
451.8709
451.5457
451.2814
451.0625
450.8803
450.7294
450.6059
450.5055
450.4238
450.3557
450.2983
450.2504
450.2108
450.1784
450.1519
450.1305
450.1131
450.0991
450.0877
450.0785
450.0708
450.0643
450.0586
450.0531
450.0476
450.0415
450.0344
450.0258
450.015
450.0012
449.9834
449.9603
449.9303
449.8916
449.8417
449.7768
449.6913
449.5795
449.4363
449.2566
449.034
448.7602
448.4237
448.0087
447.4927
446.8443
446.0194
444.9573
443.5698
441.697
438.9288
433.9903
420.5276
472.8745
460.4276
456.6673
454.8397
453.7065
452.932
452.368
451.9363
451.5942
451.3158
451.0858
450.8954
450.7392
450.6123
450.5099
450.426
450.3559
450.2972
450.2486
450.2087
450.1762
450.1499
450.1287
450.1116
450.0979
450.0867
450.0776
450.07
450.0636
450.0579
450.0524
450.0469
450.0408
450.0337
450.025
450.0142
450.0003
449.9825
449.9594
449.9295
449.8908
449.841
449.7759
449.6901
449.5781
449.435
449.2555
449.0333
448.7601
448.4245
448.0105
447.496
446.8494
446.0264
444.9657
443.5783
441.703
438.9292
433.9823
420.5088
473.0791
460.6597
456.8657
455.0016
453.8364
453.0351
452.4482
451.9967
451.6378
451.3456
451.1051
450.9075
450.7467
450.617
450.5126
450.4267
450.3548
450.2951
450.246
450.206
450.1737
450.1476
450.1268
450.11
450.0966
450.0856
450.0767
450.0692
450.0629
450.0571
450.0517
450.0461
450.04
450.0329
450.0243
450.0134
449.9996
449.9818
449.9587
449.9289
449.8902
449.8404
449.7753
449.6892
449.5771
449.4341
449.255
449.0333
448.7607
448.4258
448.013
447.4999
446.855
446.0339
444.9745
443.5872
441.7094
438.9297
433.9737
420.488
473.2725
460.8837
457.0585
455.1592
453.9623
453.1338
452.5237
452.0523
451.6765
451.3711
451.1209
450.9169
450.7522
450.6201
450.5137
450.4258
450.3526
450.2921
450.2427
450.2028
450.1707
450.1451
450.1246
450.1083
450.0952
450.0845
450.0758
450.0685
450.0622
450.0565
450.051
450.0455
450.0393
450.0322
450.0236
450.0127
449.999
449.9812
449.9582
449.9284
449.8899
449.8401
449.7748
449.6886
449.5766
449.4338
449.255
449.0338
448.7618
448.4278
448.0161
447.5045
446.8614
446.042
444.9839
443.5965
441.716
438.9301
433.9639
420.4652
473.4555
461.0997
457.2457
455.3123
454.0839
453.228
452.5943
452.1031
451.7107
451.3926
451.1335
450.9239
450.7559
450.6218
450.5133
450.4236
450.3493
450.2884
450.2389
450.1992
450.1675
450.1423
450.1223
450.1064
450.0937
450.0834
450.0749
450.0677
450.0615
450.0558
450.0504
450.0448
450.0387
450.0316
450.023
450.0122
449.9984
449.9807
449.9578
449.9281
449.8897
449.8399
449.7746
449.6884
449.5764
449.4339
449.2555
449.0349
448.7636
448.4305
448.02
447.51
446.8686
446.0509
444.9938
443.6059
441.7222
438.9296
433.953
420.4404
473.6284
461.3076
457.4273
455.4609
454.2012
453.3175
452.6602
452.1492
451.7407
451.4106
451.1434
450.9287
450.7578
450.6218
450.5115
450.4203
450.3452
450.284
450.2347
450.1953
450.164
450.1394
450.1199
450.1045
450.0922
450.0823
450.074
450.067
450.0609
450.0553
450.0498
450.0442
450.0381
450.031
450.0224
450.0117
449.998
449.9804
449.9575
449.9279
449.8897
449.84
449.7746
449.6884
449.5767
449.4345
449.2566
449.0366
448.7661
448.4339
448.0246
447.5161
446.8766
446.0605
445.0042
443.6154
441.728
438.9283
433.9405
420.4139
473.7919
461.5077
457.6032
455.6048
454.3138
453.4024
452.7212
452.1907
451.7666
451.4252
451.1507
450.9316
450.7581
450.6204
450.5084
450.416
450.3403
450.2791
450.23
450.1911
450.1604
450.1363
450.1175
450.1026
450.0907
450.0811
450.0731
450.0663
450.0603
450.0547
450.0493
450.0437
450.0376
450.0305
450.022
450.0113
449.9977
449.9801
449.9574
449.9279
449.8898
449.8403
449.7749
449.6889
449.5773
449.4356
449.2582
449.0389
448.7691
448.4379
448.0299
447.523
446.8851
446.0705
445.0149
443.6247
441.7333
438.9259
433.9266
420.3859
473.9463
461.6998
457.7733
455.7439
454.4218
453.4824
452.7775
452.2277
451.789
451.437
451.1557
450.9329
450.7571
450.6175
450.5041
450.4108
450.3349
450.2738
450.2252
450.1868
450.1568
450.1333
450.115
450.1006
450.0892
450.0799
450.0723
450.0657
450.0598
450.0543
450.0489
450.0433
450.0372
450.0301
450.0216
450.011
449.9974
449.98
449.9574
449.928
449.8902
449.8408
449.7755
449.6896
449.5784
449.4371
449.2604
449.0417
448.7727
448.4426
448.0358
447.5304
446.8942
446.081
445.0257
443.6339
441.7379
438.9225
433.9113
420.3564
474.0912
461.8841
457.9375
455.878
454.525
453.5576
452.8292
452.2607
451.8082
451.4462
451.1588
450.9324
450.7547
450.6135
450.4987
450.4048
450.3289
450.2682
450.2202
450.1825
450.1531
450.1303
450.1125
450.0987
450.0877
450.0788
450.0714
450.065
450.0593
450.0539
450.0485
450.043
450.0369
450.0298
450.0213
450.0107
449.9973
449.9799
449.9574
449.9283
449.8906
449.8414
449.7763
449.6906
449.5798
449.439
449.2629
449.0449
448.7769
448.4477
448.0422
447.5383
446.9037
446.0917
445.0366
443.6428
441.7417
438.9178
433.894
420.325
474.2269
462.0603
458.0954
456.0071
454.6235
453.628
452.8762
452.2896
451.824
451.4532
451.1601
450.9305
450.751
450.6083
450.4925
450.3983
450.3227
450.2625
450.2151
450.1781
450.1495
450.1273
450.1102
450.0968
450.0863
450.0777
450.0706
450.0645
450.0589
450.0535
450.0482
450.0427
450.0366
450.0296
450.0211
450.0106
449.9972
449.98
449.9576
449.9287
449.8913
449.8423
449.7774
449.692
449.5816
449.4414
449.2659
449.0487
448.7815
448.4533
448.0491
447.5467
446.9136
446.1028
445.0475
443.6513
441.7447
438.9119
433.8751
420.2916
474.3528
462.2282
458.2472
456.1307
454.7167
453.6938
452.9191
452.3149
451.8367
451.4578
451.1597
450.9273
450.7461
450.6022
450.4856
450.3914
450.3162
450.2567
450.2101
450.1739
450.146
450.1245
450.1079
450.095
450.0849
450.0767
450.0699
450.0639
450.0584
450.0532
450.048
450.0425
450.0364
450.0295
450.021
450.0106
449.9973
449.9801
449.958
449.9292
449.892
449.8433
449.7786
449.6936
449.5836
449.444
449.2693
449.0528
448.7865
448.4594
448.0564
447.5555
446.9239
446.1141
445.0585
443.6594
441.7467
438.9045
433.8543
420.2557
474.47
462.3882
458.3927
456.2488
454.8047
453.755
452.9581
452.3368
451.8467
451.4602
451.1576
450.9225
450.74
450.5953
450.4783
450.3843
450.3097
450.251
450.2052
450.1699
450.1427
450.1218
450.1058
450.0933
450.0836
450.0757
450.0691
450.0633
450.058
450.053
450.0478
450.0424
450.0364
450.0294
450.021
450.0106
449.9974
449.9804
449.9584
449.9299
449.8929
449.8444
449.78
449.6954
449.586
449.447
449.273
449.0574
448.7919
448.4659
448.0641
447.5646
446.9344
446.1256
445.0697
443.6671
441.7476
438.8958
433.8318
420.2171
474.5789
462.5402
458.5316
456.3613
454.8879
453.8114
452.9929
452.3555
451.8542
451.4605
451.1537
450.9166
450.733
450.5877
450.4707
450.3772
450.3033
450.2454
450.2006
450.166
450.1395
450.1193
450.1037
450.0917
450.0823
450.0747
450.0683
450.0628
450.0577
450.0527
450.0477
450.0424
450.0364
450.0295
450.0212
450.0108
449.9977
449.9808
449.959
449.9307
449.8939
449.8457
449.7816
449.6974
449.5886
449.4503
449.2771
449.0622
448.7977
448.4727
448.0722
447.574
446.9452
446.1373
445.0808
443.6745
441.7478
438.8858
433.8075
420.1753
474.6794
462.684
458.6634
456.4678
454.966
453.8636
453.024
452.3709
451.8591
451.459
451.1486
450.9096
450.7254
450.5797
450.4629
450.37
450.297
450.2401
450.1961
450.1624
450.1366
450.1169
450.1018
450.0901
450.081
450.0737
450.0675
450.0622
450.0573
450.0525
450.0476
450.0424
450.0365