/*--------------------------------*- C++ -*----------------------------------*\
| =========                 |                                                 |
| \\      /  F ield         | OpenFOAM: The Open Source CFD Toolbox           |
|  \\    /   O peration     | Version:  2312                                  |
|   \\  /    A nd           | Website:  www.openfoam.com                      |
|    \\/     M anipulation  |                                                 |
\*---------------------------------------------------------------------------*/
FoamFile
{
    version     2.0;
    format      ascii;
    arch        "LSB;label=32;scalar=64";
    class       volVectorField;
    location    "2000";
    object      U;
}
// * * * * * * * * * * * * * * * * * * * * * * * * * * * * * * * * * * * * * //

dimensions      [0 1 -1 0 0 0 0];

internalField   nonuniform List<vector> 
12000
(
(-0.02624426 0.06287938 0)
(-0.06557041 0.06902494 0)
(-0.1132189 0.07531236 0)
(-0.1601923 0.07794345 0)
(-0.2068078 0.07649861 0)
(-0.2507071 0.07551893 0)
(-0.2928386 0.07449462 0)
(-0.3303824 0.06663873 0)
(-0.3652154 0.06262576 0)
(-0.3989624 0.05564848 0)
(-0.428463 0.05161678 0)
(-0.4570586 0.04554751 0)
(-0.4816575 0.04203963 0)
(-0.5056233 0.04163625 0)
(-0.5277068 0.04182306 0)
(-0.5490694 0.03398295 0)
(-0.565943 0.02409049 0)
(-0.5810559 0.02573992 0)
(-0.5966879 0.03590149 0)
(-0.6139105 0.03308471 0)
(-0.6270117 0.0163673 0)
(-0.6361865 0.01129049 0)
(-0.6458574 0.02501927 0)
(-0.6588868 0.03033976 0)
(-0.6695394 0.01473972 0)
(-0.675516 0.003159513 0)
(-0.6806087 0.01196975 0)
(-0.6888165 0.02160152 0)
(-0.6967696 0.01527353 0)
(-0.7018322 0.005596684 0)
(-0.7052024 0.005898192 0)
(-0.7092427 0.01021246 0)
(-0.7135521 0.01066932 0)
(-0.7174009 0.00824534 0)
(-0.7199905 0.003203971 0)
(-0.7207478 -0.0007005727 0)
(-0.7210482 0.000950748 0)
(-0.7208339 0.003215618 0)
(-0.7209804 0.005877225 0)
(-0.7214793 -0.0005829857 0)
(-0.7180759 -0.01568835 0)
(-0.710765 -0.02683441 0)
(-0.7019951 -0.01073653 0)
(-0.6981111 0.0157798 0)
(-0.6974257 0.0004062673 0)
(-0.6862709 -0.0488761 0)
(-0.6660236 -0.04221737 0)
(-0.6537107 0.0006057037 0)
(-0.6453007 -0.01237099 0)
(-0.6245347 -0.06427514 0)
(-0.5941178 -0.06531743 0)
(-0.5676801 -0.03723495 0)
(-0.5399446 -0.05168302 0)
(-0.5008351 -0.09103275 0)
(-0.4514397 -0.1038861 0)
(-0.4000895 -0.1039239 0)
(-0.3383273 -0.120386 0)
(-0.2587412 -0.1525847 0)
(-0.1536781 -0.1709492 0)
(-0.05972504 -0.1716813 0)
(-0.02540952 0.1902622 0)
(-0.06823215 0.189518 0)
(-0.1110133 0.1933166 0)
(-0.1517689 0.19048 0)
(-0.1869326 0.1826404 0)
(-0.2239915 0.1702086 0)
(-0.2502823 0.1584944 0)
(-0.2850863 0.1385518 0)
(-0.3088732 0.1365063 0)
(-0.334474 0.1255064 0)
(-0.3557097 0.1167233 0)
(-0.3766696 0.1073463 0)
(-0.395118 0.09874197 0)
(-0.4122044 0.09110978 0)
(-0.426489 0.08408246 0)
(-0.4394309 0.07646244 0)
(-0.452503 0.06893417 0)
(-0.4653919 0.06347987 0)
(-0.475098 0.05961412 0)
(-0.4818758 0.05488053 0)
(-0.4895744 0.04872482 0)
(-0.499348 0.04396537 0)
(-0.5069596 0.04145115 0)
(-0.5104356 0.03876589 0)
(-0.5139063 0.03416909 0)
(-0.5203068 0.02984049 0)
(-0.5263034 0.02759458 0)
(-0.5286659 0.0260933 0)
(-0.5296337 0.02336786 0)
(-0.5320844 0.01985905 0)
(-0.5348663 0.01692843 0)
(-0.5362273 0.01497154 0)
(-0.5363758 0.01424548 0)
(-0.5357442 0.01130287 0)
(-0.5350794 0.007986535 0)
(-0.5346541 0.004284106 0)
(-0.533433 0.0006698991 0)
(-0.5309563 -0.001590541 0)
(-0.5268838 -0.003238585 0)
(-0.5215359 -0.006873365 0)
(-0.5174601 -0.01323615 0)
(-0.5150886 -0.01960762 0)
(-0.5115829 -0.02405611 0)
(-0.5014386 -0.02707746 0)
(-0.4860709 -0.03208717 0)
(-0.4771176 -0.04129999 0)
(-0.4730584 -0.05048465 0)
(-0.4591976 -0.05829678 0)
(-0.4365218 -0.06877026 0)
(-0.4193529 -0.08225507 0)
(-0.4068579 -0.09743748 0)
(-0.3846523 -0.1166699 0)
(-0.3549986 -0.1389202 0)
(-0.3320655 -0.1619521 0)
(-0.2977576 -0.1872806 0)
(-0.2801139 -0.209173 0)
(-0.2141451 -0.3018803 0)
(-0.1875531 -0.3490421 0)
(-0.1019476 -0.4287116 0)
(-0.06044602 -0.4567792 0)
(-0.02196256 0.32405 0)
(-0.05230107 0.3161454 0)
(-0.08742753 0.3079936 0)
(-0.1149618 0.2934233 0)
(-0.1435804 0.2757866 0)
(-0.1679374 0.2581626 0)
(-0.1926371 0.2402018 0)
(-0.2120044 0.2301844 0)
(-0.2390022 0.2021141 0)
(-0.2547945 0.1859153 0)
(-0.2738782 0.1700213 0)
(-0.2877657 0.1558951 0)
(-0.302159 0.1421097 0)
(-0.3147081 0.1297037 0)
(-0.3259126 0.1185499 0)
(-0.3362537 0.1078882 0)
(-0.3459881 0.09829017 0)
(-0.3550882 0.08991184 0)
(-0.3631726 0.0823338 0)
(-0.370302 0.07489439 0)
(-0.3769485 0.0677069 0)
(-0.3832732 0.06152862 0)
(-0.3888078 0.05611299 0)
(-0.3933626 0.05065346 0)
(-0.3973921 0.04496217 0)
(-0.4012391 0.03991583 0)
(-0.4045612 0.03561849 0)
(-0.406999 0.03145196 0)
(-0.4086834 0.02689452 0)
(-0.4102114 0.02221881 0)
(-0.4114333 0.01802598 0)
(-0.4118722 0.01548247 0)
(-0.4116934 0.01052325 0)
(-0.4105999 0.006166808 0)
(-0.4092157 0.001478589 0)
(-0.4073398 -0.00364033 0)
(-0.4050177 -0.008755864 0)
(-0.4020557 -0.01385491 0)
(-0.3981193 -0.01908427 0)
(-0.3932211 -0.025322 0)
(-0.3877976 -0.03276317 0)
(-0.3820341 -0.04078298 0)
(-0.3754898 -0.04849453 0)
(-0.3675448 -0.05665198 0)
(-0.3581046 -0.06711702 0)
(-0.3477193 -0.07939355 0)
(-0.3362025 -0.09209133 0)
(-0.3237885 -0.1054554 0)
(-0.3095326 -0.1220532 0)
(-0.293263 -0.1416135 0)
(-0.2770092 -0.1624695 0)
(-0.2555168 -0.1844848 0)
(-0.2391395 -0.2001179 0)
(-0.2153515 -0.2295296 0)
(-0.1899794 -0.2701654 0)
(-0.1507257 -0.3303681 0)
(-0.1235948 -0.380781 0)
(-0.09076819 -0.4482263 0)
(-0.06134251 -0.5343329 0)
(-0.01977055 -0.6056504 0)
(-0.01457915 0.4057758 0)
(-0.03612124 0.3902046 0)
(-0.05914619 0.3753034 0)
(-0.07871519 0.35561 0)
(-0.0988028 0.3335482 0)
(-0.1160326 0.3131526 0)
(-0.1331498 0.292558 0)
(-0.1472816 0.2761582 0)
(-0.1601267 0.2582077 0)
(-0.1760943 0.2350087 0)
(-0.1890645 0.2127697 0)
(-0.2049121 0.1917221 0)
(-0.2158458 0.1788325 0)
(-0.229137 0.1615627 0)
(-0.2391041 0.1478866 0)
(-0.2490896 0.1355533 0)
(-0.2579853 0.1241798 0)
(-0.2661579 0.1137207 0)
(-0.2734065 0.1040721 0)
(-0.2801265 0.09491471 0)
(-0.2863206 0.08622386 0)
(-0.2919336 0.07812567 0)
(-0.2967806 0.07056116 0)
(-0.3008588 0.06345365 0)
(-0.3043025 0.05665259 0)
(-0.3073867 0.0501603 0)
(-0.3099949 0.04388564 0)
(-0.3117581 0.0379185 0)
(-0.3130662 0.03209657 0)
(-0.3138059 0.02745582 0)
(-0.3142712 0.02168647 0)
(-0.3139662 0.01563037 0)
(-0.3130635 0.009905043 0)
(-0.3117527 0.004064052 0)
(-0.3099079 -0.001951306 0)
(-0.3076152 -0.008246666 0)
(-0.3048616 -0.01486945 0)
(-0.3015664 -0.02183858 0)
(-0.2976078 -0.02920873 0)
(-0.2929911 -0.03709943 0)
(-0.2878163 -0.04582243 0)
(-0.2821413 -0.05541946 0)
(-0.2756404 -0.06597632 0)
(-0.26858 -0.07726988 0)
(-0.2606598 -0.08995668 0)
(-0.2521303 -0.1043815 0)
(-0.2417012 -0.120412 0)
(-0.2322913 -0.1342959 0)
(-0.2199208 -0.1567369 0)
(-0.2077894 -0.1793475 0)
(-0.1944479 -0.2015403 0)
(-0.1820558 -0.2247402 0)
(-0.1638191 -0.2600837 0)
(-0.1412848 -0.308874 0)
(-0.1196693 -0.3574953 0)
(-0.09898173 -0.4062582 0)
(-0.07785539 -0.4643428 0)
(-0.05692506 -0.5327191 0)
(-0.03291766 -0.6203995 0)
(-0.01482832 -0.6897544 0)
(-0.01034715 0.4677289 0)
(-0.02684481 0.4481647 0)
(-0.04391374 0.4286506 0)
(-0.05922508 0.406015 0)
(-0.07452278 0.3814972 0)
(-0.08880674 0.3568417 0)
(-0.101518 0.3311291 0)
(-0.1146583 0.3045958 0)
(-0.1240851 0.2839202 0)
(-0.1338953 0.2646441 0)
(-0.1444761 0.2468419 0)
(-0.1528492 0.2312642 0)
(-0.1647037 0.2108027 0)
(-0.1736219 0.1920586 0)
(-0.1831138 0.1751041 0)
(-0.1912898 0.1600432 0)
(-0.198652 0.1461937 0)
(-0.205253 0.1332383 0)
(-0.2113085 0.1216711 0)
(-0.2168707 0.1110998 0)
(-0.221413 0.1016806 0)
(-0.2258638 0.09139656 0)
(-0.2296685 0.08153948 0)
(-0.2327463 0.07246039 0)
(-0.2355335 0.0635267 0)
(-0.2374005 0.0569058 0)
(-0.2391872 0.04836562 0)
(-0.2402205 0.04064198 0)
(-0.2409277 0.03332649 0)
(-0.2409575 0.02625926 0)
(-0.2404643 0.01919689 0)
(-0.2396588 0.01217248 0)
(-0.2383943 0.005059917 0)
(-0.2367187 -0.002139069 0)
(-0.2346026 -0.009526972 0)
(-0.2320729 -0.01715372 0)
(-0.2291266 -0.02517154 0)
(-0.2257542 -0.03362493 0)
(-0.2218194 -0.04263782 0)
(-0.2175891 -0.05222146 0)
(-0.2129302 -0.06271371 0)
(-0.2078091 -0.07421682 0)
(-0.2016888 -0.08674036 0)
(-0.1959045 -0.0979718 0)
(-0.1885646 -0.1138646 0)
(-0.1811186 -0.1307024 0)
(-0.1733178 -0.1487575 0)
(-0.1642659 -0.1684422 0)
(-0.1545699 -0.1890419 0)
(-0.1459012 -0.2105876 0)
(-0.1344297 -0.2385325 0)
(-0.1202806 -0.2741082 0)
(-0.105835 -0.3121702 0)
(-0.09168156 -0.3524059 0)
(-0.07860035 -0.396613 0)
(-0.06476883 -0.4477462 0)
(-0.05046639 -0.5058211 0)
(-0.03553977 -0.5744518 0)
(-0.02219634 -0.659114 0)
(-0.007319445 -0.7411431 0)
(-0.006935486 0.5127248 0)
(-0.01844715 0.4905045 0)
(-0.03018227 0.4680259 0)
(-0.04085382 0.4437552 0)
(-0.05146172 0.4179769 0)
(-0.06153711 0.3916934 0)
(-0.07111782 0.3652719 0)
(-0.08095599 0.339123 0)
(-0.09033863 0.3147224 0)
(-0.09909792 0.292039 0)
(-0.1070713 0.2709317 0)
(-0.1146953 0.2524387 0)
(-0.1205145 0.2358643 0)
(-0.128123 0.2174655 0)
(-0.1350796 0.1992933 0)
(-0.1427938 0.181193 0)
(-0.1494652 0.1651535 0)
(-0.1557388 0.1506467 0)
(-0.1613961 0.1371547 0)
(-0.1662416 0.1246356 0)
(-0.1703806 0.1127392 0)
(-0.1739091 0.101388 0)
(-0.1769444 0.09049166 0)
(-0.1794853 0.08011508 0)
(-0.1815975 0.07019401 0)
(-0.1830819 0.06078737 0)
(-0.1839817 0.05166931 0)
(-0.1845859 0.04283627 0)
(-0.1847379 0.03429098 0)
(-0.1844573 0.0259792 0)
(-0.183762 0.01773988 0)
(-0.1826881 0.009561995 0)
(-0.1812338 0.001358277 0)
(-0.1794344 -0.006913288 0)
(-0.1772134 -0.01539195 0)
(-0.174772 -0.02405823 0)
(-0.172081 -0.03314091 0)
(-0.1690593 -0.04276827 0)
(-0.1654832 -0.0530034 0)
(-0.1619542 -0.06235441 0)
(-0.1576589 -0.07441763 0)
(-0.1532551 -0.08710257 0)
(-0.148534 -0.1005981 0)
(-0.1431481 -0.1153896 0)
(-0.1373965 -0.1317477 0)
(-0.1314728 -0.1492783 0)
(-0.1252731 -0.167592 0)
(-0.1193713 -0.1870636 0)
(-0.1118596 -0.2108543 0)
(-0.1028614 -0.239756 0)
(-0.0935198 -0.2716408 0)
(-0.08398793 -0.3058795 0)
(-0.07479365 -0.343578 0)
(-0.06536096 -0.3861231 0)
(-0.05534657 -0.4337782 0)
(-0.04484716 -0.4869676 0)
(-0.03408033 -0.5467694 0)
(-0.02371449 -0.6154409 0)
(-0.01355654 -0.698946 0)
(-0.005073543 -0.774507 0)
(-0.004947468 0.5426363 0)
(-0.01345234 0.5185904 0)
(-0.0219526 0.4939617 0)
(-0.02974444 0.4684476 0)
(-0.03755795 0.441688 0)
(-0.045132 0.4144932 0)
(-0.05264375 0.3875256 0)
(-0.06027056 0.3613404 0)
(-0.06791612 0.3366305 0)
(-0.07554002 0.3132695 0)
(-0.08266416 0.2909611 0)
(-0.09007123 0.2692797 0)
(-0.09593277 0.2502919 0)
(-0.1015261 0.2326897 0)
(-0.1070547 0.216012 0)
(-0.1116008 0.200222 0)
(-0.117395 0.1830484 0)
(-0.1221262 0.1666894 0)
(-0.1265998 0.1513538 0)
(-0.1304588 0.1368858 0)
(-0.1337798 0.1231252 0)
(-0.136563 0.1100399 0)
(-0.1388446 0.09753291 0)
(-0.1406473 0.0856296 0)
(-0.1419945 0.07424625 0)
(-0.1428899 0.06340784 0)
(-0.1433522 0.0529503 0)
(-0.1434308 0.04288547 0)
(-0.1431358 0.03314745 0)
(-0.1424827 0.02367374 0)
(-0.141492 0.01437992 0)
(-0.1401993 0.005184898 0)
(-0.138563 -0.00399733 0)
(-0.1367885 -0.01326544 0)
(-0.1347243 -0.02274406 0)
(-0.1325296 -0.03129333 0)
(-0.1298978 -0.04139598 0)
(-0.1271245 -0.0518598 0)
(-0.1241451 -0.06280512 0)
(-0.1207669 -0.07441731 0)
(-0.1170249 -0.08691484 0)
(-0.1131744 -0.1002626 0)
(-0.109133 -0.1146827 0)
(-0.1047673 -0.1301384 0)
(-0.1002431 -0.1464799 0)
(-0.09594293 -0.1638969 0)
(-0.09067727 -0.1841144 0)
(-0.08444503 -0.2078674 0)
(-0.07798906 -0.2340462 0)
(-0.07132456 -0.262281 0)
(-0.06487271 -0.2931213 0)
(-0.05839775 -0.3273518 0)
(-0.05179575 -0.3654323 0)
(-0.04498471 -0.4079537 0)
(-0.03789423 -0.4556278 0)
(-0.0304573 -0.5086745 0)
(-0.02311891 -0.5671031 0)
(-0.01594863 -0.6334339 0)
(-0.009632836 -0.7137786 0)
(-0.003312582 -0.794663 0)
(-0.003440924 0.566648 0)
(-0.009587887 0.5411356 0)
(-0.01558872 0.5148634 0)
(-0.02116172 0.488734 0)
(-0.02687753 0.4618309 0)
(-0.03262134 0.434767 0)
(-0.03855208 0.4081614 0)
(-0.04468662 0.3824206 0)
(-0.05095772 0.3578168 0)
(-0.05727078 0.3343014 0)
(-0.06347677 0.3117588 0)
(-0.06970068 0.2898946 0)
(-0.07565564 0.268902 0)
(-0.08111958 0.2487982 0)
(-0.08592953 0.2294594 0)
(-0.09056236 0.2112993 0)
(-0.09368356 0.1947854 0)
(-0.09769214 0.1775811 0)
(-0.1008341 0.1610476 0)
(-0.1037374 0.1453275 0)
(-0.1061468 0.130296 0)
(-0.1081207 0.1159417 0)
(-0.1096642 0.1022293 0)
(-0.1108015 0.08913951 0)
(-0.111552 0.07663505 0)
(-0.1119326 0.06468207 0)
(-0.1119664 0.05322294 0)
(-0.1116827 0.04220748 0)
(-0.1110999 0.03157407 0)
(-0.1102376 0.02125505 0)
(-0.1091193 0.01117191 0)
(-0.1077488 0.001247715 0)
(-0.106198 -0.008619197 0)
(-0.1046109 -0.01764195 0)
(-0.1027492 -0.02773411 0)
(-0.1006558 -0.03792954 0)
(-0.09824929 -0.04845838 0)
(-0.09575613 -0.05939322 0)
(-0.09309307 -0.07086844 0)
(-0.09027109 -0.08297138 0)
(-0.08726559 -0.09593531 0)
(-0.0842292 -0.1098187 0)
(-0.08078341 -0.124624 0)
(-0.0777111 -0.1401498 0)
(-0.07397776 -0.1575947 0)
(-0.06970295 -0.1774802 0)
(-0.06525938 -0.1993463 0)
(-0.06064589 -0.2230063 0)
(-0.05613321 -0.2487775 0)
(-0.05161738 -0.277144 0)
(-0.04703596 -0.308449 0)
(-0.04238953 -0.3431534 0)
(-0.0376308 -0.3818286 0)
(-0.03257431 -0.4256137 0)
(-0.02713281 -0.4750573 0)
(-0.02158692 -0.5291456 0)
(-0.01619863 -0.5879047 0)
(-0.01109786 -0.654356 0)
(-0.00631503 -0.7345246 0)
(-0.002105334 -0.8112455 0)
(-0.002511941 0.5829084 0)
(-0.007140106 0.5561242 0)
(-0.01150384 0.528619 0)
(-0.01561537 0.502228 0)
(-0.01993106 0.4755596 0)
(-0.02442285 0.4489768 0)
(-0.0291918 0.4229378 0)
(-0.03420097 0.3976939 0)
(-0.03938731 0.3733381 0)
(-0.04465481 0.3498057 0)
(-0.04992186 0.3269878 0)
(-0.05512601 0.3047672 0)
(-0.06015939 0.2832434 0)
(-0.06488422 0.2624249 0)
(-0.06927072 0.24226 0)
(-0.07310108 0.2226618 0)
(-0.07673445 0.2038229 0)
(-0.07898564 0.1864352 0)
(-0.08167987 0.1689163 0)
(-0.08363421 0.1519422 0)
(-0.08534298 0.1356402 0)
(-0.08661276 0.1200538 0)
(-0.08750679 0.1051887 0)
(-0.08804441 0.09101784 0)
(-0.0882615 0.07750469 0)
(-0.08818646 0.0646103 0)
(-0.08784473 0.05228156 0)
(-0.08725941 0.04046225 0)
(-0.08645041 0.02908849 0)
(-0.08543849 0.01808722 0)
(-0.08422792 0.007386777 0)
(-0.0828808 -0.003113696 0)
(-0.08153898 -0.01277949 0)
(-0.079864 -0.02317727 0)
(-0.0780158 -0.03365025 0)
(-0.07607583 -0.04424858 0)
(-0.07400678 -0.05516545 0)
(-0.07183127 -0.06649329 0)
(-0.06953657 -0.07835566 0)
(-0.06715527 -0.09090276 0)
(-0.06464195 -0.1042221 0)
(-0.06203041 -0.1182634 0)
(-0.05959648 -0.133229 0)
(-0.05648144 -0.1500562 0)
(-0.05339222 -0.1684978 0)
(-0.05011922 -0.1884523 0)
(-0.04687988 -0.2101172 0)
(-0.04362211 -0.233798 0)
(-0.04032889 -0.2597194 0)
(-0.03699004 -0.28817 0)
(-0.03364587 -0.3195173 0)
(-0.03026066 -0.3542435 0)
(-0.02666007 -0.3934701 0)
(-0.02275362 -0.4380168 0)
(-0.01875204 -0.4871381 0)
(-0.01486115 -0.540112 0)
(-0.01117061 -0.5974241 0)
(-0.007651325 -0.662111 0)
(-0.004536755 -0.7401019 0)
(-0.001611685 -0.8190816 0)
(-0.001853408 0.5965066 0)
(-0.005351741 0.568534 0)
(-0.008532927 0.5400044 0)
(-0.01160776 0.5136102 0)
(-0.01493362 0.487475 0)
(-0.01852906 0.461635 0)
(-0.0224411 0.43634 0)
(-0.02661693 0.4117029 0)
(-0.03098782 0.3877311 0)
(-0.03549758 0.3643712 0)
(-0.04006561 0.3415444 0)
(-0.0445885 0.3190154 0)
(-0.04895618 0.2966805 0)
(-0.05302375 0.2746954 0)
(-0.05671968 0.253193 0)
(-0.06001887 0.2321919 0)
(-0.06281279 0.2116896 0)
(-0.06528137 0.1920816 0)
(-0.06678948 0.173825 0)
(-0.06815611 0.1560233 0)
(-0.06902075 0.1387452 0)
(-0.06955589 0.1221437 0)
(-0.06979035 0.106319 0)
(-0.06977608 0.09129874 0)
(-0.06953736 0.0770478 0)
(-0.06909677 0.06349982 0)
(-0.06848076 0.05058535 0)
(-0.06770595 0.0382363 0)
(-0.06679188 0.0263826 0)
(-0.06573258 0.01494251 0)
(-0.0645839 0.003850458 0)
(-0.0634567 -0.006425274 0)
(-0.06209927 -0.01712995 0)
(-0.06060077 -0.02777168 0)
(-0.05905282 -0.03848353 0)
(-0.0574282 -0.04935957 0)
(-0.05573403 -0.06052338 0)
(-0.05396071 -0.07209909 0)
(-0.05216869 -0.08420525 0)
(-0.05020864 -0.09690594 0)
(-0.04841049 -0.1101911 0)
(-0.04635721 -0.124596 0)
(-0.04408879 -0.140423 0)
(-0.04179163 -0.1575239 0)
(-0.03943946 -0.1759832 0)
(-0.03707807 -0.1960371 0)
(-0.03468879 -0.2178554 0)
(-0.03227555 -0.241651 0)
(-0.02984493 -0.2676673 0)
(-0.02742035 -0.2962012 0)
(-0.02498441 -0.3276189 0)
(-0.02238968 -0.3629364 0)
(-0.01954264 -0.4031653 0)
(-0.01656393 -0.4481238 0)
(-0.01364903 -0.4974115 0)
(-0.01081469 -0.5507193 0)
(-0.008096661 -0.6083761 0)
(-0.005509083 -0.6733725 0)
(-0.003130595 -0.7516424 0)
(-0.0009805367 -0.8286366 0)
(-0.001436213 0.6065631 0)
(-0.004147624 0.5773354 0)
(-0.00652398 0.548031 0)
(-0.008872504 0.521826 0)
(-0.01147584 0.4963528 0)
(-0.01436646 0.4713069 0)
(-0.01755238 0.4467463 0)
(-0.02097926 0.4226951 0)
(-0.02458241 0.3991459 0)
(-0.0283502 0.3760662 0)
(-0.0321649 0.3532553 0)
(-0.03592601 0.330399 0)
(-0.03949821 0.3074558 0)
(-0.04280409 0.2846761 0)
(-0.04579466 0.2622349 0)
(-0.04843471 0.2402075 0)
(-0.05070249 0.2186465 0)
(-0.05260514 0.1976564 0)
(-0.05401193 0.1774624 0)
(-0.05492341 0.1581496 0)
(-0.05539119 0.1396829 0)
(-0.05548192 0.1222511 0)
(-0.05525056 0.1058658 0)
(-0.05479246 0.09033501 0)
(-0.05418987 0.07559293 0)
(-0.05349877 0.06162518 0)
(-0.05272896 0.04834567 0)
(-0.05188032 0.03566871 0)
(-0.05097069 0.02351398 0)
(-0.04996273 0.01179826 0)
(-0.04897936 0.0008716518 0)
(-0.04790833 -0.01004852 0)
(-0.04669995 -0.0209731 0)
(-0.04547161 -0.03179443 0)
(-0.04419373 -0.0426617 0)
(-0.04287328 -0.05368882 0)
(-0.04152345 -0.06500501 0)
(-0.04012514 -0.07671254 0)
(-0.03868807 -0.08886706 0)
(-0.03733331 -0.1016227 0)
(-0.03570355 -0.1154188 0)
(-0.03408269 -0.1302587 0)
(-0.03237779 -0.1461739 0)
(-0.03067098 -0.1633084 0)
(-0.02893714 -0.181839 0)
(-0.02718192 -0.2019326 0)
(-0.02541061 -0.223776 0)
(-0.02362613 -0.247579 0)
(-0.0218473 -0.2735828 0)
(-0.02006928 -0.3020689 0)
(-0.01817183 -0.3338279 0)
(-0.01606774 -0.3698106 0)
(-0.01381577 -0.4102094 0)
(-0.01159393 -0.4548974 0)
(-0.009462609 -0.5036382 0)
(-0.007423784 -0.5561558 0)
(-0.005509315 -0.6128469 0)
(-0.003710372 -0.6766718 0)
(-0.00215557 -0.7534929 0)
(-0.0007776429 -0.8312475 0)
(-0.001118632 0.6151818 0)
(-0.003270075 0.5847417 0)
(-0.005098756 0.5547592 0)
(-0.006947108 0.5287847 0)
(-0.009038106 0.5039514 0)
(-0.01140288 0.4796216 0)
(-0.01403339 0.4556909 0)
(-0.01687326 0.4321337 0)
(-0.01989759 0.4089598 0)
(-0.02305605 0.3861871 0)
(-0.02624096 0.3633257 0)
(-0.02935293 0.3399682 0)
(-0.03224464 0.3163201 0)
(-0.0348842 0.2926911 0)
(-0.03722583 0.2692862 0)
(-0.03924208 0.2462257 0)
(-0.04091876 0.2236217 0)
(-0.04224989 0.2016239 0)
(-0.0432224 0.1803792 0)
(-0.04381504 0.1599293 0)
(-0.04404052 0.1403282 0)
(-0.04390693 0.1217255 0)
(-0.04343643 0.1043181 0)
(-0.04270704 0.08826722 0)
(-0.04184782 0.07338684 0)
(-0.04096033 0.05934702 0)
(-0.04009508 0.04598387 0)
(-0.03924577 0.03321835 0)
(-0.03839583 0.02097631 0)
(-0.03754343 0.009186924 0)
(-0.03668012 -0.001876035 0)
(-0.03575536 -0.01301713 0)
(-0.03482424 -0.02399842 0)
(-0.03387167 -0.03490828 0)
(-0.03289805 -0.04585731 0)
(-0.03192114 -0.05696375 0)
(-0.03087955 -0.06832969 0)
(-0.02990612 -0.08002041 0)
(-0.02883585 -0.0923067 0)
(-0.02767714 -0.1053914 0)
(-0.02650462 -0.1193093 0)
(-0.02530179 -0.1341652 0)
(-0.02408835 -0.1501249 0)
(-0.02285662 -0.1673248 0)
(-0.02160572 -0.1859195 0)
(-0.02033873 -0.2060733 0)
(-0.01905853 -0.2279649 0)
(-0.01777887 -0.2517953 0)
(-0.01650479 -0.2777987 0)
(-0.01514657 -0.3065773 0)
(-0.01362084 -0.3389607 0)
(-0.0119342 -0.3753405 0)
(-0.01022584 -0.4158196 0)
(-0.008578391 -0.4604427 0)
(-0.00701765 -0.5092022 0)
(-0.005526468 -0.5619484 0)
(-0.004119714 -0.6188961 0)
(-0.002788981 -0.6829538 0)
(-0.001585214 -0.7599342 0)
(-0.0004569122 -0.8369921 0)
(-0.0009060396 0.6220918 0)
(-0.002698086 0.590519 0)
(-0.004171696 0.5599955 0)
(-0.005681717 0.5342793 0)
(-0.007401128 0.5100359 0)
(-0.009360017 0.4863392 0)
(-0.01154645 0.4629651 0)
(-0.01391276 0.4398704 0)
(-0.01646814 0.4170783 0)
(-0.01911136 0.3944586 0)
(-0.02174789 0.3714171 0)
(-0.02425643 0.347594 0)
(-0.02656044 0.323308 0)
(-0.02862579 0.2989248 0)
(-0.03042231 0.2746868 0)
(-0.03193342 0.2507421 0)
(-0.03315172 0.227212 0)
(-0.03407281 0.2042346 0)
(-0.03468341 0.1819627 0)
(-0.03497171 0.1605137 0)
(-0.03494339 0.1399966 0)
(-0.03461947 0.1205796 0)
(-0.0340343 0.1024538 0)
(-0.03321864 0.08577944 0)
(-0.03225975 0.07061326 0)
(-0.03128747 0.05666451 0)
(-0.030374 0.04348172 0)
(-0.02954717 0.030835 0)
(-0.02875374 0.01867207 0)
(-0.02801757 0.006936318 0)
(-0.02730125 -0.004197205 0)
(-0.02654878 -0.01534876 0)
(-0.02582235 -0.02633769 0)
(-0.02509085 -0.03726608 0)
(-0.02437363 -0.04824358 0)
(-0.02362011 -0.05937706 0)
(-0.02293055 -0.07075793 0)
(-0.0221335 -0.08263149 0)
(-0.02134316 -0.09509466 0)
(-0.0205145 -0.1082377 0)
(-0.01967713 -0.122193 0)
(-0.01881962 -0.137106 0)
(-0.01794235 -0.1531151 0)
(-0.01704563 -0.1703631 0)
(-0.01613081 -0.1889992 0)
(-0.01520089 -0.2091814 0)
(-0.01426321 -0.2310792 0)
(-0.01333408 -0.2548923 0)
(-0.0123487 -0.2810641 0)
(-0.01122878 -0.3102947 0)
(-0.009940385 -0.3430656 0)
(-0.008584293 -0.3795364 0)
(-0.007255769 -0.4198418 0)
(-0.006002076 -0.4641422 0)
(-0.004832326 -0.5124653 0)
(-0.00374091 -0.564618 0)
(-0.002735418 -0.6208975 0)
(-0.001812097 -0.6842476 0)
(-0.00100346 -0.7605421 0)
(-0.0003680188 -0.8375518 0)
(-0.000760826 0.6282984 0)
(-0.002323433 0.5956678 0)
(-0.00357667 0.5646165 0)
(-0.004869916 0.5390886 0)
(-0.006333364 0.5153127 0)
(-0.007996587 0.4921192 0)
(-0.009846917 0.4691956 0)
(-0.01185024 0.4464938 0)
(-0.0140191 0.4240474 0)
(-0.016249 0.4014744 0)
(-0.01844214 0.3780975 0)
(-0.02046111 0.3537472 0)
(-0.02227909 0.3288264 0)
(-0.0238692 0.3037342 0)
(-0.02521747 0.2787373 0)
(-0.02630466 0.2540213 0)
(-0.02713011 0.2297389 0)
(-0.02769638 0.2060029 0)
(-0.0280173 0.1829392 0)
(-0.02808743 0.1606673 0)
(-0.02789401 0.1393268 0)
(-0.02744229 0.1191411 0)
(-0.02676788 0.1003703 0)
(-0.02592722 0.08323892 0)
(-0.02498126 0.06783081 0)
(-0.02404657 0.05398032 0)
(-0.02317297 0.04106357 0)
(-0.02239075 0.02861822 0)
(-0.02167075 0.01660211 0)
(-0.02103373 0.005091872 0)
(-0.02042767 -0.006086454 0)
(-0.01981509 -0.01720009 0)
(-0.01924782 -0.02814606 0)
(-0.01869529 -0.03904294 0)
(-0.01815393 -0.04998754 0)
(-0.01765077 -0.06109837 0)
(-0.01709429 -0.07256149 0)
(-0.01655117 -0.08447358 0)
(-0.0159925 -0.0969481 0)
(-0.01542607 -0.110124 0)
(-0.01484453 -0.1241295 0)
(-0.01424494 -0.1390984 0)
(-0.01362641 -0.1551663 0)
(-0.01298905 -0.1724713 0)
(-0.01233586 -0.1911569 0)
(-0.01166663 -0.2113733 0)
(-0.01100642 -0.2332861 0)
(-0.01032011 -0.2571987 0)
(-0.009538735 -0.2837283 0)
(-0.008598906 -0.3134236 0)
(-0.007555536 -0.3464456 0)
(-0.006502977 -0.3829246 0)
(-0.005500893 -0.423107 0)
(-0.004572812 -0.4672827 0)
(-0.003719545 -0.5155845 0)
(-0.002927077 -0.5678807 0)
(-0.002198517 -0.6243489 0)
(-0.001502911 -0.687861 0)
(-0.0008815335 -0.7640463 0)
(-0.000278031 -0.8409639 0)
(-0.0006855451 0.6337775 0)
(-0.002146488 0.6001704 0)
(-0.00330468 0.5686592 0)
(-0.004481571 0.5432738 0)
(-0.005781867 0.5198612 0)
(-0.00723906 0.4970601 0)
(-0.008843078 0.474491 0)
(-0.01057709 0.4521018 0)
(-0.01243468 0.4299209 0)
(-0.0143105 0.4073091 0)
(-0.01611566 0.3835154 0)
(-0.01772519 0.3586079 0)
(-0.01913702 0.3330737 0)
(-0.02033728 0.3073294 0)
(-0.02131782 0.2816459 0)
(-0.0220686 0.2562111 0)
(-0.02263484 0.23118 0)
(-0.02289757 0.2067666 0)
(-0.02303556 0.1830943 0)
(-0.02289325 0.1601721 0)
(-0.02256422 0.1381747 0)
(-0.0220194 0.1173881 0)
(-0.02130286 0.09814318 0)
(-0.02047568 0.08072519 0)
(-0.01960812 0.06524772 0)
(-0.01876721 0.0514934 0)
(-0.01799187 0.03878586 0)
(-0.01728779 0.02658557 0)
(-0.01665913 0.01476987 0)
(-0.01609767 0.00345607 0)
(-0.01556704 -0.007712445 0)
(-0.01507658 -0.01868474 0)
(-0.0146211 -0.02953411 0)
(-0.01420986 -0.04034768 0)
(-0.01380832 -0.05125693 0)
(-0.01340517 -0.06239418 0)
(-0.0130117 -0.07386555 0)
(-0.01261584 -0.0857872 0)
(-0.01221544 -0.09829069 0)
(-0.01180475 -0.1115034 0)
(-0.01138027 -0.1255545 0)
(-0.01093909 -0.1405736 0)
(-0.01048003 -0.1566919 0)
(-0.01000426 -0.174043 0)
(-0.009512739 -0.1927651 0)
(-0.009017468 -0.2130026 0)
(-0.008518504 -0.2349257 0)
(-0.007954181 -0.2590496 0)
(-0.007262469 -0.2860046 0)
(-0.006442168 -0.3159875 0)
(-0.005574291 -0.3490729 0)
(-0.00472191 -0.3854388 0)
(-0.003922821 -0.4254087 0)
(-0.003190313 -0.4693139 0)
(-0.002525184 -0.5172726 0)
(-0.001928789 -0.5691223 0)
(-0.001398224 -0.6251416 0)
(-0.0009356535 -0.6882855 0)
(-0.0005373486 -0.7643274 0)
(-0.0001920947 -0.8412355 0)
(-0.0006335112 0.639118 0)
(-0.002050737 0.6046066 0)
(-0.003163426 0.5725797 0)
(-0.004263241 0.5472025 0)
(-0.005443784 0.524008 0)
(-0.006746187 0.5014807 0)
(-0.008160921 0.4791798 0)
(-0.009700339 0.4570134 0)
(-0.01130565 0.4349576 0)
(-0.01288188 0.4121735 0)
(-0.01434031 0.3878943 0)
(-0.01560233 0.3624282 0)
(-0.01666936 0.3363149 0)
(-0.01753835 0.3099824 0)
(-0.01819602 0.2837171 0)
(-0.01869266 0.2577156 0)
(-0.01890553 0.2321411 0)
(-0.01907984 0.2071585 0)
(-0.01901382 0.1829411 0)
(-0.01878967 0.1594036 0)
(-0.01835435 0.1368263 0)
(-0.01775858 0.1155611 0)
(-0.0170437 0.09598605 0)
(-0.01627371 0.07842292 0)
(-0.0155116 0.06297695 0)
(-0.01480825 0.04937372 0)
(-0.01416508 0.03685816 0)
(-0.0135784 0.02484432 0)
(-0.01304594 0.01320425 0)
(-0.01256312 0.002017982 0)
(-0.01211968 -0.009017101 0)
(-0.01171818 -0.019868 0)
(-0.01136384 -0.03061324 0)
(-0.01102571 -0.04137208 0)
(-0.01071376 -0.05225055 0)
(-0.01041409 -0.06335555 0)
(-0.01012532 -0.07480665 0)
(-0.009839324 -0.08672951 0)
(-0.009550171 -0.09924941 0)
(-0.009252769 -0.1124924 0)
(-0.008943074 -0.1265841 0)
(-0.008618497 -0.1416501 0)
(-0.008277818 -0.1578159 0)
(-0.007922934 -0.1752085 0)
(-0.007551661 -0.1939574 0)
(-0.007188852 -0.2141996 0)
(-0.006794502 -0.2362647 0)
(-0.00632119 -0.2607369 0)
(-0.005715936 -0.288022 0)
(-0.0050346 -0.31819 0)
(-0.004335617 -0.3512988 0)
(-0.003666351 -0.387579 0)
(-0.00305104 -0.4274231 0)
(-0.00249741 -0.4712224 0)
(-0.002004861 -0.5191466 0)
(-0.001565504 -0.5710633 0)
(-0.001171824 -0.6271657 0)
(-0.0008008684 -0.6903002 0)
(-0.0004719178 -0.7662163 0)
(-0.0001646162 -0.8431339 0)
(-0.0006260325 0.6441784 0)
(-0.002072003 0.6088412 0)
(-0.003202442 0.576284 0)
(-0.004283946 0.5508382 0)
(-0.00540689 0.5277749 0)
(-0.006613365 0.5054479 0)
(-0.007897129 0.4833574 0)
(-0.009288059 0.46138 0)
(-0.0106935 0.4392747 0)
(-0.01202812 0.4161375 0)
(-0.01318852 0.3913516 0)
(-0.01415625 0.3653248 0)
(-0.01493473 0.3386384 0)
(-0.01552312 0.3117372 0)
(-0.01593403 0.2849027 0)
(-0.01615169 0.2583578 0)
(-0.01628113 0.232329 0)
(-0.0162339 0.2069827 0)
(-0.01599164 0.1822581 0)
(-0.01562106 0.1582471 0)
(-0.01508377 0.1352444 0)
(-0.01443802 0.1136544 0)
(-0.01372935 0.09391388 0)
(-0.01302577 0.07636373 0)
(-0.01238607 0.06106593 0)
(-0.01182505 0.04765614 0)
(-0.01131312 0.03528999 0)
(-0.0108338 0.02339512 0)
(-0.01039311 0.01188633 0)
(-0.009991147 0.0008060622 0)
(-0.009621583 -0.01010721 0)
(-0.009296824 -0.02084524 0)
(-0.008999672 -0.03150672 0)
(-0.008732768 -0.04219151 0)
(-0.008487541 -0.05300777 0)
(-0.008258825 -0.0640728 0)
(-0.008039203 -0.07550574 0)
(-0.00782202 -0.08742868 0)
(-0.007601485 -0.09996456 0)
(-0.007372752 -0.113236 0)
(-0.007132247 -0.127365 0)
(-0.006877706 -0.1424728 0)
(-0.006608711 -0.1586806 0)
(-0.006325477 -0.1761114 0)
(-0.006033289 -0.1948905 0)
(-0.005736099 -0.2151579 0)
(-0.005393232 -0.2373793 0)
(-0.004959521 -0.2621615 0)
(-0.004423522 -0.2896885 0)
(-0.003838845 -0.319944 0)
(-0.00325383 -0.3530004 0)
(-0.002702459 -0.38914 0)
(-0.002200623 -0.4287963 0)
(-0.00175398 -0.472372 0)
(-0.001364193 -0.5200238 0)
(-0.00103507 -0.571622 0)
(-0.000762139 -0.6274652 0)
(-0.0005279231 -0.6904749 0)
(-0.0003204437 -0.7663435 0)
(-0.0001200481 -0.8432745 0)
(-0.0006291224 0.6494332 0)
(-0.002114258 0.6132727 0)
(-0.003276158 0.5801071 0)
(-0.004352731 0.5544709 0)
(-0.005430333 0.531407 0)
(-0.006548432 0.5091571 0)
(-0.007706582 0.48717 0)
(-0.008937071 0.4652859 0)
(-0.01014443 0.4430087 0)
(-0.01123778 0.4193857 0)
(-0.01211431 0.3940298 0)
(-0.01278875 0.3674507 0)
(-0.01325914 0.3402453 0)
(-0.01357366 0.3128279 0)
(-0.01369746 0.2855462 0)
(-0.01374132 0.2586775 0)
(-0.01372572 0.2323258 0)
(-0.01355111 0.2064705 0)
(-0.01324232 0.1812454 0)
(-0.01278161 0.1568218 0)
(-0.01220274 0.1334994 0)
(-0.01154921 0.1117247 0)
(-0.0108849 0.09198217 0)
(-0.01027744 0.07460824 0)
(-0.009781007 0.05957011 0)
(-0.009362117 0.04633447 0)
(-0.008979418 0.03404713 0)
(-0.008605091 0.02223023 0)
(-0.008261854 0.01082003 0)
(-0.007945833 -0.0001758405 0)
(-0.007656818 -0.01098656 0)
(-0.00740102 -0.02163248 0)
(-0.007172801 -0.03221119 0)
(-0.006969852 -0.04282721 0)
(-0.00678639 -0.05359318 0)
(-0.006616415 -0.06462562 0)
(-0.006453639 -0.07604398 0)
(-0.006292068 -0.08796901 0)
(-0.006126368 -0.1005214 0)
(-0.005952305 -0.1138206 0)
(-0.005767103 -0.1279851 0)
(-0.005568949 -0.1431317 0)
(-0.005358221 -0.1593769 0)
(-0.005133265 -0.1768379 0)
(-0.004907701 -0.1956343 0)
(-0.004664163 -0.215992 0)
(-0.004369106 -0.2384446 0)
(-0.003981693 -0.2634877 0)
(-0.003525406 -0.2911854 0)
(-0.003041524 -0.3214902 0)
(-0.002568344 -0.3545018 0)
(-0.002129518 -0.390547 0)
(-0.001736167 -0.4300971 0)
(-0.00139162 -0.4735833 0)
(-0.001096879 -0.5211845 0)
(-0.0008481321 -0.5727769 0)
(-0.0006410151 -0.6286123 0)
(-0.0004514995 -0.6915996 0)
(-0.0002859257 -0.7674584 0)
(-0.0001100902 -0.8444506 0)
(-0.0006495743 0.6546353 0)
(-0.002224601 0.6176957 0)
(-0.003458126 0.5838926 0)
(-0.004559873 0.5579699 0)
(-0.005621952 0.5347944 0)
(-0.006683989 0.5125168 0)
(-0.007750742 0.4905394 0)
(-0.008851739 0.4686539 0)
(-0.009887324 0.4460927 0)
(-0.01077258 0.4218726 0)
(-0.01141074 0.3958811 0)
(-0.01183079 0.3686837 0)
(-0.01209812 0.3409059 0)
(-0.01212536 0.3130652 0)
(-0.01218505 0.2854839 0)
(-0.01205091 0.2583933 0)