# Region type : patch plate
# Faces        : 200
# Area         : 6.7000000e-01
# Scale factor : 1.0000000e+00
# Time         	areaAverage(T)
3700           	5.9644216e+02
3800           	5.9560517e+02
3900           	5.9753388e+02
