/*--------------------------------*- C++ -*----------------------------------*\
| =========                 |                                                 |
| \\      /  F ield         | OpenFOAM: The Open Source CFD Toolbox           |
|  \\    /   O peration     | Version:  2312                                  |
|   \\  /    A nd           | Website:  www.openfoam.com                      |
|    \\/     M anipulation  |                                                 |
\*---------------------------------------------------------------------------*/
FoamFile
{
    version     2.0;
    format      ascii;
    arch        "LSB;label=32;scalar=64";
    class       volScalarField;
    location    "3000";
    object      G;
}
// * * * * * * * * * * * * * * * * * * * * * * * * * * * * * * * * * * * * * //

dimensions      [1 0 -3 0 0 0 0];

internalField   nonuniform List<scalar> 
12000
(
8590.041
8386.649
8319.813
8301.107
8340.047
8416.361
8485.94
8510.779
8484.564
8428.322
8368.682
8321.023
8288.615
8273.235
8285.866
8347.642
8478.099
8678.315
8922.529
9165.588
9361.247
9479.777
9515.811
9484.52
9410.769
9318.238
9223.311
9134.42
9054.675
8985.013
8926.135
8878.877
8843.674
8819.982
8806.176
8799.883
8798.284
8798.268
8797.205
8793.999
8789.305
8783.764
8776.581
8766.841
8755.256
8742.446
8726.381
8704.558
8676.937
8644.719
8608.426
8569.803
8533.388
8503.494
8480.283
8459.259
8433.569
8397.501
8327.468
8231.665
8694.795
8599.655
8553.07
8557.625
8616.789
8679.184
8696.26
8657.465
8587.701
8519.496
8470.879
8443.026
8432.693
8445.727
8500.29
8616.736
8800.407
9030.029
9261.804
9447.507
9554.569
9576.431
9529.65
9442.227
9340.917
9243.566
9158.079
9085.782
9025.65
8976.949
8939.728
8913.947
8898.495
8890.94
8888.072
8886.784
8884.754
8880.653
8873.946
8864.479
8852.106
8836.521
8817.304
8794.073
8766.659
8735.301
8700.732
8664.088
8626.607
8589.402
8553.584
8520.751
8493.315
8473.95
8464.091
8462.504
8463.95
8461.278
8431.806
8428.615
8704.941
8662.324
8650.206
8690.337
8760.303
8796.414
8771.508
8705.276
8634.255
8582.475
8553.896
8542.211
8545.683
8575.552
8651.892
8789.044
8980.327
9193.819
9384.034
9512.16
9561.599
9540.574
9473.19
9386.327
9299.752
9222.969
9157.713
9102.522
9056.156
9018.634
8990.445
8971.286
8959.397
8951.845
8945.417
8937.503
8926.587
8912.219
8894.494
8873.359
8848.314
8818.795
8784.726
8746.57
8705.193
8662.227
8620.313
8582.319
8550.258
8525.053
8506.834
8495.137
8489.528
8490.86
8501.643
8523.644
8551.999
8574.313
8570.837
8599.62
8757.142
8725.61
8737.695
8792.788
8848.627
8851.942
8800.768
8729.815
8672.313
8639.968
8627.219
8626.331
8640.679
8687.33
8786.367
8943.709
9139.913
9334.409
9483.563
9560.512
9564.203
9514.325
9438.18
9358.372
9286.967
9226.602
9175.257
9130.744
9092.659
9061.919
9039.244
9023.971
9013.844
9005.672
8996.3
8983.381
8965.738
8943.233
8916.168
8884.588
8848.202
8807.11
8762.44
8716.114
8670.396
8628.153
8592.982
8568.074
8554.856
8552.942
8560.842
8576.485
8598.245
8626.637
8664.065
8709.937
8754.406
8782.935
8790.042
8821.994
8838.254
8800.883
8830.587
8875.622
8891.428
8861.607
8808.291
8760.779
8732.924
8721.589
8717.973
8720.727
8743.135
8808.098
8931.966
9108.313
9304.523
9475.131
9583.421
9616.923
9588.143
9523.074
9446.907
9375.119
9312.436
9257.202
9206.722
9160.329
9119.47
9086.062
9060.823
9042.567
9028.546
9015.379
9000.002
8980.334
8955.539
8925.846
8891.959
8854.508
8814.138
8772.187
8731.025
8693.517
8662.37
8640.206
8629.623
8632.34
8648.307
8675.953
8713.103
8757.585
8807.768
8862.756
8920.491
8973.801
9011.36
9028.15
9038.377
9060.44
8874.472
8858.631
8915.849
8948.943
8929.7
8883.902
8848.729
8837.356
8840.954
8845.092
8843.535
8845.892
8876.736
8962.566
9112.134
9304.721
9496.57
9641.889
9714.24
9714.957
9665.785
9593.652
9518.175
9447.509
9381.499
9317.57
9255.025
9195.989
9143.843
9101.061
9067.939
9042.573
9021.694
9001.75
8979.826
8954.214
8924.596
8891.794
8857.25
8822.607
8789.705
8760.792
8738.441
8725.02
8722.225
8731.077
8752.089
8785.154
8829.374
8883.226
8944.896
9012.363
9082.894
9151.637
9210.061
9247.425
9259.945
9258.021
9267.21
9272.582
8674.282
8805.334
8933.454
8983.376
8966.045
8935.098
8929.189
8947.988
8971.093
8982.238
8982.309
8991.847
9042.443
9157.239
9331.805
9530.901
9704.983
9814.942
9848.556
9819.891
9755.564
9679.16
9603.005
9529.065
9454.878
9379.186
9304.2
9234.485
9174.412
9126.158
9089.13
9060.597
9036.833
9014.238
8990.187
8963.5
8934.497
8904.688
8876.305
8851.904
8834.079
8825.144
8826.845
8840.182
8865.379
8901.909
8948.681
9004.441
9068.009
9138.071
9212.727
9288.906
9361.241
9420.683
9455.758
9459.733
9441.499
9421.963
9425.025
9410.745
8725.363
8934.877
9081.703
9127.264
9115.241
9099.713
9104.661
9122.366
9135.621
9136.863
9137.236
9164.574
9248.468
9398.276
9590.465
9777.247
9911.009
9967.08
9950.714
9887.068
9803.975
9719.302
9638.362
9559.024
9478.581
9397.771
9320.793
9252.828
9197.42
9155.203
9124.161
9100.725
9081.022
9061.858
9041.351
9019.165
8996.374
8975.085
8958.02
8948.098
8947.914
8959.177
8982.477
9017.528
9063.452
9118.744
9181.281
9248.785
9319.285
9390.912
9461.121
9525.614
9577.126
9605.526
9602.471
9570.47
9528.349
9497.249
9491.184
9460.645
9255.07
9384.445
9459.024
9458.017
9427.068
9398.617
9378.494
9359.981
9337.974
9317.788
9319.632
9372.328
9494.081
9673.034
9865.918
10018.67
10093.9
10086.05
10016.88
9918.288
9815.53
9719.918
9631.675
9547.299
9465.411
9388.392
9320.615
9265.655
9224.476
9195.286
9174.564
9158.409
9143.615
9128.279
9111.98
9095.62
9081.048
9070.68
9067.177
9073.088
9090.295
9119.478
9160.048
9210.577
9269.156
9333.298
9399.812
9465.268
9526.74
9582.009
9628.717
9662.767
9677.341
9665.1
9624.9
9568.179
9516.127
9481.594
9467.305
9428.252
9841.668
9896.586
9890.209
9844.982
9786.729
9723.021
9655.299
9587.763
9528.795
9493.724
9506.573
9589.698
9743.43
9934.258
10106.36
10209.87
10224.44
10163.08
10057.67
9939.575
9827.38
9726.046
9633.432
9547.335
9468.696
9400.755
9346.424
9306.233
9277.939
9257.576
9241.021
9225.256
9208.969
9192.505
9177.419
9165.856
9160.043
9162.029
9173.6
9196.09
9229.978
9274.507
9327.705
9386.792
9448.55
9509.406
9565.494
9613.166
9649.829
9674.216
9685.297
9680.399
9655.076
9607.171
9543.141
9478.848
9430.288
9398.617
9378.572
9337.172
10724.37
10578.9
10438.72
10320.93
10207.56
10083.15
9952.263
9830.509
9736.441
9692.101
9720.397
9830.301
10000.23
10178.89
10308.43
10353.38
10313.79
10216.52
10095.23
9973.972
9862.362
9760.404
9666.163
9580.307
9506.033
9446.407
9401.945
9369.987
9345.844
9324.729
9303.44
9281.155
9259.294
9240.694
9228.546
9225.476
9233.101
9252.065
9282.286
9323.045
9372.843
9429.21
9488.739
9547.403
9601.04
9645.834
9678.71
9697.688
9702.117
9692.316
9668.299
9628.681
9572.232
9502.574
9431.358
9373.129
9334.341
9306.06
9280.717
9236.449
11203.08
10984.67
10770.85
10605.16
10456.19
10297.99
10133.31
9981.962
9871.962
9834.097
9888.69
10026.96
10204.4
10357.92
10437.22
10427.19
10346.92
10230.78
10107.79
9992.062
9885.338
9785.24
9691.662
9607.99
9538.45
9484.907
9445.511
9415.6
9389.866
9364.514
9338.515
9313.669
9293.704
9282.869
9284.573
9300.503
9330.462
9372.762
9424.803
9483.486
9545.368
9606.683
9663.36
9711.241
9746.643
9767.134
9772.033
9762.185
9739.037
9703.415
9654.795
9592.347
9518.334
9441.424
9374.827
9327.34
9295.664
9265.479
9232.757
9179.805
11754.86
11356.07
11044.71
10815.02
10631.47
10458.08
10282.65
10120.3
10007.52
9983.812
10064.02
10219.7
10387.58
10502.1
10528.18
10471.65
10364.64
10241.55
10123.01
10014.07
9911.904
9814.247
9723.043
9642.87
9577.335
9526.659
9487.737
9456.014
9427.76
9401.636
9379.077
9363.59
9359.402
9369.984
9396.952
9439.612
9495.21
9559.608
9628.057
9695.834
9758.649
9812.802
9855.128
9883.011
9894.802
9890.508
9872.039
9842.276
9803.146
9754.122
9692.979
9619.421
9539.281
9464.554
9406.595
9366.728
9334.921
9296.761
9255.242
9189.776
11074.75
10944.23
10757.12
10586.2
10452.88
10333.71
10209.03
10091.25
10023.14
10046.69
10166.01
10335.47
10484.45
10558.06
10542.66
10461.52
10351.16
10239.11
10135.84
10039.86
9947.074
9856.879
9772.683
9698.873
9637.768
9588.666
9549.014
9516.392
9490.045
9471.354
9463.264
9469.093
9491.252
9530.304
9584.613
9650.582
9723.279
9797.206
9867.025
9928.177
9977.32
10012.45
10032.65
10037.82
10028.73
10007.26
9976.333
9938.602
9894.41
9841.029
9775.189
9698.207
9619.118
9550.842
9500.643
9463.465
9426.958
9380.45
9333.509
9261.051
10653.49
10635.24
10525.63
10387.53
10280.02
10200.8
10130.16
10075.01
10072.14
10151.05
10297.63
10455.18
10560.43
10581.2
10527.05
10431.81
10327.92
10231.55
10143.52
10058.53
9973.283
9889.261
9810.762
9741.712
9683.803
9636.748
9599.757
9572.935
9557.788
9556.758
9572.153
9605.011
9654.38
9717.224
9788.929
9864.088
9937.273
10003.6
10059.13
10101.22
10128.75
10142.03
10142.44
10131.9
10112.48
10086.29
10055.06
10019.09
9976.259
9922.702
9856.401
9781.64
9709.394
9650.79
9608.22
9573.187
9535.016
9488.347
9445.324
9381.672
10396.94
10410.52
10348.74
10227.4
10119.09
10054.3
10030.18
10049.73
10128.97
10267.51
10427.79
10551.76
10597.86
10563.54
10477.8
10376.52
10282.11
10198.89
10120.9
10041.89
9960.672
9880.768
9807.341
9744.47
9694.264
9657.495
9634.688
9626.73
9634.74
9659.396
9700.139
9754.662
9818.965
9887.957
9956.373
10019.59
10074.06
10117.41
10148.35
10166.62
10173.01
10169.24
10157.67
10140.76
10120.5
10097.85
10072.14
10040.85
10000.24
9947.597
9884.556
9818.707
9760.673
9717.233
9686.246
9659.034
9629.042
9595.804
9568.629
9532.983
10207.1
10235.18
10216.36
10122.07
10008.27
9936.486
9940.8
10031.02
10193.93
10386.45
10546.61
10625.18
10611.46
10531.76
10426.17
10324.59
10237.21
10159.61
10083.67
10005.48
9927.162
9854.42
9793.226
9747.763
9720.05
9710.509
9718.614
9743.13
9781.997
9832.145
9889.488
9949.225
10006.48
10057.08
10098.23
10128.7
10148.57
10158.71
10160.24
10154.28
10142
10124.83
10104.55
10083.09
10061.78
10040.37
10016.32
9985.479
9944.412
9893.616
9839.159
9790.542
9755.248
9733.979
9721.034
9709.881
9698.672
9690.238
9687.09
9690.51
10086.15
10104.87
10113.86
10057.52
9952.547
9871.514
9888.653
10029.89
10255.07
10479.95
10625.35
10658.61
10599.38
10493.54
10381.3
10281.19
10192.77
10108.51
10023.86
9941.01
9866.976
9809.79
9775.328
9766.005
9781.003
9817.199
9870.036
9934.04
10003.13
10071
10131.66
10180.21
10213.5
10230.61
10232.85
10223.11
10204.99
10181.75
10155.69
10127.92
10098.75
10068.35
10037.44
10007.31
9978.979
9951.791
9922.769
9888.012
9846.134
9801.348
9762.793
9739.21
9732.79
9738.002
9746.975
9756.273
9767.952
9786.146
9806.319
9843.313
9965.123
9977.265
10002.46
9988.025
9916.503
9850.46
9884.174
10054.14
10302.9
10524.29
10639.37
10636.49
10555.89
10447.97
10342.88
10246.07
10150.79
10052.12
9953.569
9865.727
9801.029
9768.851
9772.893
9811.029
9876.778
9961.307
10055.14
10149.22
10235.43
10307
10358.93
10388.47
10395.46
10382.24
10353.12
10313.38
10268.19
10221.55
10175.84
10131.74
10088.87
10046.75
10005.63
9966.59
9930.557
9896.922
9863.226
9827.131
9789.916
9758.344
9741.843
9745.828
9766.831
9794.908
9821.835
9847.117
9875.259
9910.034
9943.322
9993.303
9861.678
9861.475
9887.255
9903.592
9882.136
9865.944
9935.762
10117.03
10345.33
10522.17
10590.65
10560.32
10477.56
10383.54
10294.02
10204.93
10108.56
10005.62
9907.333
9830.178
9788.551
9789.796
9832.867
9909.896
10009.17
10118.13
10225.51
10322.31
10402.05
10460.52
10495.64
10507.41
10497.75
10470.2
10429.33
10380.02
10326.69
10272.75
10220.35
10170.37
10122.95
10078.17
10036.54
9998.835
9965.252
9934.659
9905.135
9876.207
9851.325
9837.781
9842.581
9866.647
9902.662
9939.712
9971.271
9999.024
10028.38
10061.96
10092.96
10131.16
9750.881
9742.866
9763.439
9799.007
9837.044
9902.257
10030.56
10212.09
10385.27
10487.18
10498.85
10445.58
10366.32
10286.56
10211.81
10136.78
10057.94
9980.388
9916.797
9881.233
9882.636
9921.609
9991.167
10079.95
10175.81
10268.44
10350.5
10417.62
10467.69
10500.2
10515.71
10515.64
10502.03
10477.34
10444.26
10405.44
10363.37
10320.34
10278.29
10238.85
10203.3
10172.59
10147.25
10126.87
10109.81
10093.66
10076.86
10060.68
10049.89
10050.52
10065.69
10092.44
10122.76
10148.56
10166.73
10180.12
10193.63
10208.81
10223.75
10233.71
9608.259
9608.409
9629.434
9682.519
9787.479
9951.761
10147.74
10319.08
10417.94
10433.59
10388.55
10315.03
10236.67
10164.52
10101.92
10050.17
10012.02
9992.422
9996.768
10027.55
10081.82
10151.33
10225.22
10293.7
10350.45
10393.2
10422.79
10441.55
10451.96
10456.06
10455.29
10450.66
10442.91
10432.56
10420.01
10405.64
10390.05
10374.24
10359.68
10348.1
10341.11
10339.57
10342.87
10348.55
10352.8
10352.3
10346.46
10338.53
10333.98
10336.7
10345.9
10356.41
10362.34
10360.86
10352.96
10341.54
10329.77
10318.38
10311.28
10291.11
9475.765
9484.66
9510.204
9586.952
9763.884
10023.46
10272.63
10418.39
10437.7
10372.8
10279.79
10191.43
10116.24
10055.11
10012.51
9996.377
10012.77
10061.93
10137.55
10228.11
10319.44
10397.91
10453.73
10483.14
10488.51
10476.5
10455.33
10432.25
10412.26
10398.01
10390.38
10389.22
10393.89
10403.43
10416.72
10432.62
10450.27
10469.29
10490
10513.09
10539.15
10567.6
10595.95
10619.77
10634.26
10636.86
10629.39
10617.48
10607
10599.62
10591.53
10576.98
10553.34
10522.94
10490.02
10456.7
10423.53
10390.13
10364.72
10323.81
9358.739
9378.828
9418.384
9536.177
9788.215
10117.78
10384.21
10486.83
10435.3
10310.65
10188.2
10099.73
10044.13
10013.63
10008.3
10034.47
10096.26
10189.26
10300.11
10410.69
10503.7
10567.13
10596.36
10594.05
10568.22
10529.38
10487.72
10451.11
10424.39
10409.67
10407.23
10416.39
10435.92
10464.3
10499.74
10540.26
10583.95
10629.27
10675.18
10721
10765.71
10807.06
10840.97
10862.31
10867.2
10855.74
10833.03
10806.88
10782.97
10761.08
10735.79
10701.8
10659.04
10612.74
10568.34
10526.78
10485.97
10443.57
10409.55
10359.51
9283.141
9310.659
9376.796
9556.816
9875.945
10228.67
10464.03
10511.53
10413.89
10266.53
10146.18
10082.26
10068.15
10085.7
10122.61
10176.38
10248.3
10335.81
10429.47
10515.93
10583.39
10625.68
10643
10640.19
10624.26
10602.4
10580.72
10563.72
10554.28
10553.95
10563.32
10582.32
10610.31
10646.12
10688.04
10734
10781.84
10829.62
10875.77
10918.89
10957
10986.86
11003.94
11003.92
10985.23
10951.13
10909.27
10868.02
10831.9
10799.27
10764.7
10724.17
10678.8
10633.75
10593.47
10557.75
10522.96
10484.45
10451.27
10399.66
9264.24
9294.818
9405.146
9661.465
10018.81
10334.69
10497.88
10497.76
10398.21
10279.81
10200.38
10181.1
10211.16
10264.36
10318.13
10364.18
10406.25
10450.89
10500.03
10550.34
10597.04
10637.6
10672.5
10703.44
10731.59
10756.96
10779.05
10797.7
10813.6
10828.2
10843.21
10860.16
10879.92
10902.59
10927.52
10953.55
10979.33
11003.6
11025.28
11043.05
11054.73
11056.94
11045.78
11018.71
10976.72
10925.18
10871.97
10823.68
10782.46
10745.89
10710.05
10673.07
10636.38
10603.12
10575.36
10552.15
10529.98
10503.02
10477.01
10429.93
9310.569
9345.479
9519.635
9843.771
10187.2
10414.38
10497.36
10486.52
10440.24
10397.27
10380.27
10397.24
10438.85
10484.26
10515.45
10528.28
10532.24
10541.3
10564.97
10605.15
10658.83
10722.03
10791.56
10864.36
10936.31
11002.3
11057.5
11098.95
11126.18
11140.95
11146.21
11145.08
11140.09
11132.95
11124.57
11115.29
11105.19
11094.19
11081.92
11067.33
11048.25
11021.73
10985.27
10938.59
10884.83
10829.79
10779.19
10735.86
10698.9
10665.67
10634.64
10606.46
10582.66
10563.96
10549.97
10539.6
10530.89
10519.05
10504.93
10473.11
9411.5
9468.762
9719.076
10070.96
10344.22
10471.8
10514.61
10546.67
10589.7
10630.87
10658.94
10674.86
10683.29
10685.64
10681.87
10675.44
10674.68
10689.23
10725.05
10781.9
10854.72
10936.9
11022.61
11107.07
11185.65
11253.47
11306.13
11340.94
11357.61
11358.06
11345.48
11323.26
11294.34
11260.98
11224.84
11187.23
11149.26
11111.65
11074.44
11036.57
10996.05
10950.92
10900.8
10848.05
10797.45
10753.89
10719.65
10693.13
10670.58
10649.41
10630.2
10615.41
10606.45
10602.19
10600.67
10601.27
10604.21
10607.87
10608.67
10603.88
9569.228
9675.742
9988.641
10308.17
10489.51
10564.85
10632.76
10737.4
10855.46
10943.38
10977.41
10963.68
10926.87
10893.07
10878.23
10886.09
10913.24
10955.07
11008.27
11069.83
11135.7
11201.08
11261.82
11315.31
11360.12
11395.19
11419.47
11432.29
11433.85
11425.3
11408.35
11384.59
11355.26
11321.2
11283.22
11242.34
11199.73
11156.35
11112.31
11066.72
11018.32
10966.98
10915.09
10867.74
10830.72
10807.39
10796.47
10792.74
10790.58
10787.52
10785.07
10786.06
10791.18
10798.3
10804.92
10811.1
10819.01
10830.99
10842.84
10862.26
9754.723
9949.4
10291.8
10546.18
10678.97
10779.38
10909.11
11062.97
11202.51
11290.68
11311.21
11275.83
11217.78
11173.5
11163.92
11187.99
11230.42
11275.07
11313.55
11345.05
11371.54
11393.95
11411.82
11424.82
11433.81
11440.51
11446.47
11452.5
11458.61
11464.28
11468.59
11470.24
11467.62
11459.17
11443.91
11421.75
11393.3
11359.29
11319.95
11274.98
11224.67
11171.38
11120.48
11079.18
11053.5
11044.99
11049.72
11060.62
11071.66
11080.72
11089.17
11098.84
11109.46
11118.48
11123.44
11124.55
11124.89
11129.82
11139.73
11159.33
9981.217
10295.58
10645.74
10866.77
11024.52
11183.17
11344.84
11490.13
11603.71
11671.82
11684.43
11647.25
11586.15
11534.62
11514.18
11524.26
11548.2
11567.93
11575.12
11572.33
11566.66
11563.29
11563.37
11565.96
11570.72
11578.83
11592.13
11611.68
11637.11
11666.63
11697.52
11726.55
11750.4
11766.11
11771.54
11765.66
11748.29
11719.61
11679.77
11629.28
11570.21
11507.46
11448.63
11401.88
11372.48
11360.35
11360.41
11365.8
11371.62
11376.47
11381.12
11386.04
11390.06
11390.77
11385.79
11374.5
11359.4
11346.41
11342.48
11336.72
10214.74
10791.98
11200.22
11454.85
11658.67
11829.03
11957.87
12052.72
12125.09
12172.03
12180.31
12145.08
12080.76
12014.18
11967.76
11947.32
11943.05
11940.43
11931.24
11917.08
11904.95
11900.54
11904.8
11915.06
11928.39
11943.79
11962.03
11984.16
12010.11
12038.36
12066.41
12091.4
12110.56
12121.49
12122.33
12111.65
12088.38
12051.53
12000.57
11936.31
11862.08
11784.31
11711.33
11650.65
11605.99
11576.11
11556.37
11541.85
11529.81
11519.8
11511.99
11505.71
11499.37
11490.95
11478.32
11459.8
11436.2
11411.13
11394.6
11360.78
10722.02
11611.22
12030.93
12256.5
12408.15
12508.28
12570.67
12613.97
12648.02
12667.44
12659.4
12616.83
12546.13
12464.89
12392.26
12339.05
12304.12
12278.65
12254.38
12229.25
12207
12192.52
12187.35
12189
12193.3
12197.32
12200.38
12203.13
12206.11
12208.96
12210.65
12210.03
12206.25
12198.65
12186.39
12167.95
12141.04
12103.03
12052.02
11988.35
11915.54
11840
11768.98
11707.86
11658.31
11618.57
11585.62
11557.39
11533.54
11514.43
11499.74
11488.17
11478.15
11468.37
11457.58
11444.17
11427.33
11406.41
11389.08
11345.34
16608.46
15581.84
15015.04
14632.6
14331.44
14095.89
13920.57
13787.99
13677.05
13571.76
13462.66
13344.48
13215.44
13079.2
12945.31
12825.09
12725
12643.41
12573.44
12509.21
12449.77
12397.95
12356.2
12323.67
12296.55
12270.63
12243.46
12214.65
12184.83
12154.69
12124.69
12095.48
12068.09
12043.54
12021.95
12001.74
11979.6
11951.42
11914.13
11867.38
11814.1
11759.31
11707.8
11661.95
11621.33
11584.22
11549.67
11518.31
11491.6
11470.25
11453.56
11440.08
11428.73
11419.35
11412.34
11407.42
11403.01
11394.08
11382.85
11343.97
17026.51
16326.96
15784.32
15380.87
15033.58
14734.35
14497.24
14312.99
14158.83
14019.3
13889.47
13765.35
13638.21
13499.97
13351.92
13206.05
13076.94
12971.97
12888.09
12816.86
12751.73
12691.33
12637.37
12590.47
12548.21
12506.29
12461.12
12411.31
12357.51
12301.34
12244.77
12189.97
12139.34
12095.01
12057.8
12026.42
11997.48
11966.84
11931.6
11891.5
11848.87
11806.88
11767.34
11729.64
11691.71
11652.15
11611.71
11572.76
11537.48
11506.33
11478.29
11452.16
11427.82
11406.61
11390.75
11381.5
11377.12
11369.86
11357.52
11318.61
17068.62
16669.2
16213.15
15863.37
15576.91
15301.86
15039.37
14803.81
14599.97
14428.21
14287.57
14169.45
14055.11
13925.04
13772.52
13608.59
13454.05
13325.52
13226.82
13150.58
13086.48
13028.29
12975.09
12927.75
12885.27
12844.06
12799.88
12750.13
12694.63
12635.02
12573.71
12513.21
12455.91
12403.66
12357.08
12315.07
12275.16
12234.76
12192.73
12150
12108.7
12070.24
12033.77
11996.36
11954.94
11908.47
11858.57
11808.08
11758.88
11710.88
11662.8
11613.96
11565.41
11519.94
11481.18
11451.13
11428.28
11404.77
11378.69
11324.8
17034.85
16803.73
16393.31
16040.28
15801.05
15599.69
15376.11
15129.06
14888.31
14683.82
14529.54
14417.67
14322.76
14215.43
14078.52
13915.34
13744.93
13588.78
13458.69
13353.56
13264.95
13185.41
13112.8
13048.82
12994.95
12949.79
12909.59
12870.61
12830.95
12790.72
12751.12
12713.34
12677.99
12644.92
12613.19
12581.33
12547.97
12512.85
12477.32
12443.88
12414.58
12389.27
12365.12
12337.85
12304.05
12262.93
12216.16
12166.03
12113.62
12058.25
11998.62
11934.55
11867.91
11802.41
11742.08
11688.85
11641.79
11595.3
11552.57
11480.45
16996.33
16873.74
16520.26
16131.07
15865.73
15702.25
15542.88
15337.94
15105.31
14888.38
14717.37
14595.93
14505.87
14419.67
14314.29
14181.1
14027.46
13869.54
13721.27
13587.34
13464.05
13345.96
13231.79
13125.42
13032.37
12955.66
12894.38
12845.31
12805.3
12772.71
12746.96
12727.4
12712.4
12699.32
12685.22
12667.89
12646.9
12624.05
12602.79
12586.54
12576.8
12572
12567.99
12560.05
12545.05
12522.33
12493.04
12458.44
12418.71
12372.87
12319.82
12259.71
12194.59
12127.9
12062.82
12000.46
11940.63
11881.31
11831.58
11755.01
16939.42
16874.81
16606.07
16213.75
15879.84
15675.33
15540.45
15398.89
15228.43
15049.02
14885.93
14751.12
14642.58
14549
14454.98
14347.87
14223.91
14088.97
13952.64
13820.5
13691.2
13559.93
13424.67
13289.38
13162.06
13050.04
12956.54
12880.62
12819.49
12770.75
12732.93
12704.55
12683.04
12664.7
12645.71
12623.91
12599.9
12577
12559.72
12551.4
12552.4
12559.85
12568.99
12575.48
12576.78
12572.34
12562.52
12547.44
12526.55
12498.94
12464.03
12422.23
12375.13
12324.67
12271.93
12216.63
12159.32
12101.6
12055.7
11987.84
16844.52
16799.31
16622.3
16284.22
15902.79
15609.03
15432.03
15323.7
15232.03
15132.94
15022.7
14905.35
14787.05
14672.09
14559.28
14442.87
14318.48
14188.26
14059.65
13938.96
13826.08
13715.01
13599.5
13478.5
13356.96
13242.3
13139.82
13050.72
12973.3
12905.26
12845.07
12791.54
12742.87
12696.29
12649.22
12600.88
12553.42
12511.32
12479.34
12460.11
12452.85
12453.93
12458.91
12464.37
12468.63
12471.13
12471.35
12468.35
12461.09
12448.95
12432.06
12411.07
12386.5
12357.94
12323.71
12282.11
12234.59
12185.11
12146.18
12086.07
16692.23
16649.54
16549.22
16301.53
15927.8
15557.3
15300.25
15173.96
15129.39
15108.1
15072.77
15009.57
14919.78
14810.09
14685.19
14545.81
14392.82
14232.6
14077.64
13940.8
13827.94
13735.2
13652.85
13572.2
13490.13
13408.59
13330.83
13258.08
13189
13121.16
13052.73
12982.77
12910.68
12835.75
12757.81
12678.43
12601.4
12531.92
12474.46
12430.87
12399.84
12378.15
12362.64
12351.44
12343.9
12339.52
12337.18
12335.22
12332.34
12328.32
12323.88
12319.53
12314.28
12305.02
12287.7
12259.89
12223.93
12183.99
12151.09
12092.57
16473.23
16436.79
16391.34
16236.08
15918.96
15525.23
15200.08
15023.61
14976.6
14991.77
15011.13
15006.06
14969.24
14900.93
14800.81
14667.04
14500.43
14309.81
14113.38
13933.43
13787.15
13679.74
13604.52
13549.06
13502.57
13459.4
13417.91
13377.24
13335.18
13288.32
13233.51
13168.95
13094.39
13010.79
12920.33
12826.58
12734.32
12648.4
12572.25
12506.81
12450.87
12402.48
12360.46
12324.83
12296.14
12274.35
12258.35
12246.55
12237.97
12232.98
12232.64
12236.98
12243.38
12246.69
12241.74
12226.32
12202.96
12173.82
12147.32
12091.55
16198.88
16181.1
16171.54
16087.78
15850.87
15493.29
15144.57
14916.72
14829.86
14833.38
14866.32
14892.27
14898.18
14879.49
14830.07
14741.05
14605.66
14426.05
14217.23
14004.54
13814.56
13664.95
13559.25
13489.46
13443.29
13410.75
13386.19
13366.44
13347.99
13325.9
13294.84
13250.92
13192.91
13122.36
13042.93
12959.37
12876.3
12797.14
12723.32
12654.42
12589.18
12526.82
12467.83
12413.63
12365.67
12324.45
12289.54
12260.26
12236.75
12220.3
12212.43
12212.85
12218.15
12222.7
12221.84
12214.08
12201.05
12181.67
12161.45
12114.18
15904.44
15912.34
15922.79
15882.39
15725.82
15445.91
15122.54
14861.62
14717.36
14674.49
14685.52
14711.05
14732.73
14744.69
14741.34
14711.62
14641.24
14520.06
14350
14147.83
13940.04
13752.24
13599.86
13485.36
13402.47
13343.03
13301.32
13273.91
13257.12
13245.08
13230.36
13206.4
13169.96
13122.01
13066.61
13008.85
12952.65
12899.53
12848.7
12798.15
12746.16
12692.3
12637.48
12583.21
12530.68
12480.35
12432.31
12387.03
12346.08
12311.93
12286.7
12270.45
12260.44
12252.55
12243.92
12233.72
12221.91
12204.78
12186.09
12146.57
15639.04
15665.05
15679.38
15657.61
15567.73
15381.13
15116.8
14846
14642.52
14534.5
14502.07
14508.23
14526.61
14547.62
14569.02
14584.51
14579.3
14534.63
14437.48
14288.95
14105.29
13910.85
13727.66
13568.39
13436.05
13328.81
13244.69
13182.9
13141.85
13116.79
13099.82
13082.57
13059.6
13030.21
12997.63
12966.31
12939.17
12916.28
12895.38
12873.53
12848.66
12820.17
12788.39
12753.66
12715.76
12674.09
12628.45
12579.81
12530.52
12483.65
12441.68
12405.37
12373.77
12345.55
12320.16
12297.03
12274.82
12248.82
12223.68
12181.44
15439.78
15463.05
15464.91
15445.67
15404.29
15303.13
15109.37
14848.88
14596.9
14419.52
14332.95
14311.62
14321.4
14342.81
14371.94
14408.15
14442.9
14457.85
14432.22
14353.47
14223.92
14059.15
13879.93
13703.48
13539.63
13392.52
13264.61
13158.86
13077.54
13019.67
12980.04
12951.15
12926.66
12903.99
12884.28
12870.07
12862.72
12861.16
12862.6
12864.15
12864.04
12861.74
12856.99
12848.91
12835.73
12815.55
12787.3
12751.53
12710.17
12665.62
12619.7
12573.42
12527.66
12483.78
12442.99
12404.75
12367.37
12326.72
12290.87
12234.98
15306.89
15304.5
15282.29
15259.63
15249.63
15210.91
15080.61
14846.1
14567.83
14331.9
14188.9
14134.68
14134.57
14156.8
14187.85
14227.04
14273.09
14315.32
14334.97
14313.93
14243.92
14129.93
13986.17
13828.33
13667.75
13510.56
13360.71
13222.84
13102.48
13003.72
12927.08
12869.56
12826.9
12795.98
12775.7
12765.83
12765.42
12772.09
12782.71
12794.71
12806.88
12818.97
12830.71
12840.91
12847.42
12847.98
12841.15
12826.77
12805.49
12777.9
12744.17
12704.72
12661.26
12616.54
12572.44
12528.24
12482.8
12433.2
12391.38
12322.64
15205
15163.37
15115.17
15090.67
15097.95
15094.32
15011.89
14816.03
14541.81
14271.68
14078.23
13984.42
13967.21
13988.25
14020.89
14057.15
14098.44
14142.92
14179.78
14192.94
14169.6
14106.86
14011.7
13895.53
13767.66
13632.56
13491.76
13347.65
13205.7
13073.46
12957.78
12862.64
12788.88
12735.41
12700.34
12681.26
12675.1
12678.13
12686.7
12698.1
12710.94
12724.76
12739.24
12753.57
12766.5
12776.81
12783.8
12787.17
12786.41
12780.21
12766.98
12746.16
12719.21
12688.67
12655.98
12620.26
12581.24
12537.1
12501.22
12434.84
15080.68
15001.58
14936.24
14914.28
14928.24
14938.68
14891.2
14744.87
14505.79
14232.79
14002.62
13863.52
13815.43
13825.44
13857.71
13892.91
13928.46
13967.11
14006.1
14034.83
14040.55
14016.12
13963.42
13890.32
13804.28
13707.76
13598.54
13473.99
13335.6
13190.41
13048.88
12921.16
12814.14
12730.63
12670.03
12629.68
12605.91
12594.79
12592.67
12596.52
12604
12613.42
12623.53
12633.54
12643.2
12652.84
12663.11
12674.24
12685.28
12694.05
12698.17
12696.51
12689.78
12679.37
12665.81
12648.41
12627.73
12602.75
12584.39
12540.38
14877.31
14779.77
14715.07
14700.52
14716.41
14733.08
14716.31
14627.54
14447.22
14201.1
13953.92
13770.37
13678.28
13662.69
13688.02
13724.72
13761.13
13798.2
13837.47
13873.53
13895.54
13894.51
13869.08
13825.27
13770.8
13708.76
13635.54
13544.25
13430.73
13297.72
13154.69
13014.04
12886.52
12778.37
12691.29
12624.03
12574.34
12540.04
12519.06
12509.08
12507.22
12510.27
12515.35
12520.69
12525.97
12532.19
12540.76
12552.33
12566.05
12579.96
12592.12
12601.66
12608.69
12613.47
12616.02
12616.49
12616.35
12615.18
12618.38
12608.22
14547.87
14467.72
14427.87
14428.34
14450.22
14478.12
14494.48
14465.75
14355.63
14158.91
13918.1
13701.27
13560.4
13506
13513.71
13549.73
13591.98
13634.39
13678.03
13720.68
13753.75
13767.32
13757.22
13727.81
13688.09
13644.57
13596.43
13536.47
13456.74
13354.57
13234.77
13107.31
12982.64
12867.85
12765.86
12677.02
12601.32
12539.59
12492.98
12461.65
12443.89
12436.27
12434.84
12436.49
12439.87
12445.2
12453.26
12464.19
12477.04
12490.36
12503.12
12515.02
12525.92
12535.62
12544.52
12554.29
12567.46
12584.2
12603.92
12623.98
14076.35
14061.8
14073.81
14101.79
14140.7
14189.74
14241.44
14268.14
14227.88
14093.93
13883.14
13653.52
13470.39
13370
13347.94
13375.01
13421.82
13472.85
13524.59
13575.61
13619.48
13646.04
13648.08
13626.79
13591.01
13551.01
13511.71
13470.24
13419.22
13352.6
13269.77
13175.39
13076.05
12976.63
12879.15
12784.07
12692.67
12608.16
12535
12476.91
12435.19
12408.38
12393.33
12386.74
12386.34
12390.94
12399.76
12411.53
12424.52
12437.2
12448.8
12459.05
12467.6
12474.42
12480.94
12490.57
12506.77
12530.26
12556.59
12592.16
13541.8
13623.4
13701.08
13764.78
13827.67
13900.91
13983.1
14053.48
14073.49
14005.84
13843.86
13625.57
13415.93
13270.32
13208.26
13214.1
13257.62
13314.74
13374.72
13434.37
13489.05
13529.47
13545.84
13534.71
13501.82
13458.79
13416.16
13378.1
13341.98
13302.19
13254.68
13198.76
13135.9
13067.19
12992.14
12909.65
12820.14
12726.98
12636.05
12553.74
12484.88
12431.57
12393.49
12369.06
12356.44
12353.82
12359.16
12369.86
12383.14
12396.67
12408.84
12418.47
12424.63
12427.54
12429.58
12435.12
12448
12469.14
12493.55
12528.61
13171.11
13301.95
13418.26
13504.22
13580.39
13664.99
13761.47
13856.42
13919.19
13910.54
13805.97
13619.24
13402.59
13219.63
13111.73
13083.02
13110.41
13165.35
13229.14
13294.33
13356.94
13409.58
13441.56
13444.81
13419.66
13375.49
13325.7
13281.07
13245.77
13217.95
13193.11
13167.28
13137.88
13102.66
13058.69
13002.7
12932.68
12849.6
12757.83
12663.96
12574.88
12496.05
12430.84
12380.76
12345.95
12325.54
12317.64
12319.48
12327.91
12339.81
12352.32
12362.81
12369.51
12372.48
12374.12
12378.32
12388.14
12404.16
12423.31
12448.54
13056.76
13162.19
13273.6
13360.07
13432.56
13509.58
13599.96
13698.41
13783.58
13819.65
13771.37
13629.55
13425.7
13219.54
13067.1
12993.95
12991.39
13032.74
13093.18
13159.17
13225.23
13285.85
13331.3
13350.7
13338.69
13299.7
13246.38
13193.37
13150.98
13122.46
13105.32
13094.75
13086.22
13075.91
13059.96
13033.86
12993.16
12935.23