/*--------------------------------*- C++ -*----------------------------------*\
| =========                 |                                                 |
| \\      /  F ield         | OpenFOAM: The Open Source CFD Toolbox           |
|  \\    /   O peration     | Version:  2312                                  |
|   \\  /    A nd           | Website:  www.openfoam.com                      |
|    \\/     M anipulation  |                                                 |
\*---------------------------------------------------------------------------*/
FoamFile
{
    version     2.0;
    format      ascii;
    arch        "LSB;label=32;scalar=64";
    class       volScalarField;
    location    "3000";
    object      ILambda_3_0;
}
// * * * * * * * * * * * * * * * * * * * * * * * * * * * * * * * * * * * * * //

dimensions      [1 0 -3 0 0 0 0];

internalField   nonuniform List<scalar> 
12000
(
775.2089
763.2684
750.7364
738.9016
727.9784
718.1051
709.3155
701.4485
694.3381
687.8477
681.866
676.3069
671.1236
666.3362
662.0343
658.3425
655.3682
653.1547
651.6659
650.8048
650.4459
650.458
650.7104
651.0734
651.4237
651.6588
651.7116
651.5589
651.2166
650.7256
650.1345
649.4858
648.8088
648.1197
647.427
646.7428
646.0885
645.4735
644.8747
644.2503
643.5923
642.9304
642.2585
641.5065
640.6336
639.6887
638.7026
637.6205
636.3986
635.0743
633.6792
632.177
630.5313
628.7497
626.845
624.7353
622.4163
619.4367
616.6489
608.6219
789.7435
791.9341
793.2452
793.4353
792.5151
790.4692
787.4802
783.7555
779.4428
774.6783
769.5732
764.2149
758.6629
752.9477
747.0818
741.0788
734.9714
728.8209
722.7103
716.7281
710.953
705.4475
700.2584
695.4206
690.9574
686.8777
683.1737
679.8206
676.7814
674.0138
671.4775
669.1388
666.972
664.9585
663.0838
661.334
659.6942
658.1556
656.7195
655.39
654.1583
653.0056
651.9265
650.932
650.0185
649.1558
648.3246
647.5318
646.7765
646.0335
645.2843
644.532
643.7775
643.0071
642.2072
641.3826
640.5765
639.7007
639.127
637.9326
788.6409
788.9223
789.4727
790.2547
791.2371
792.2306
793.1163
793.8229
794.2846
794.4562
794.3081
793.8232
792.9932
791.8136
790.2803
788.388
786.1321
783.5125
780.5372
777.2236
773.5986
769.6958
765.5538
761.2143
756.7214
752.1195
747.4525
742.7609
738.081
733.443
728.8715
724.3861
720.0018
715.7307
711.5823
707.564
703.6807
699.9359
696.3319
692.8722
689.5594
686.394
683.3751
680.5028
677.7782
675.1997
672.7626
670.4626
668.2965
666.2592
664.3431
662.5408
660.8465
659.2537
657.7492
656.3414
655.0106
653.7189
652.6962
650.992
802.5311
801.0656
799.7118
798.4693
797.4128
796.5707
795.9286
795.4798
795.2052
795.0798
795.0743
795.1574
795.2974
795.4631
795.6244
795.7521
795.8172
795.7907
795.6443
795.3507
794.8848
794.2248
793.3528
792.255
790.9221
789.349
787.535
785.4836
783.2021
780.7009
777.9931
775.094
772.0201
768.7886
765.4175
761.9248
758.3285
754.6464
750.8957
747.0929
743.2541
739.395
735.5304
731.6743
727.8399
724.0396
720.2856
716.5885
712.958
709.4028
705.9309
702.5485
699.2618
696.0732
692.9857
690.0075
687.1348
684.3099
681.9353
677.8809
827.2842
825.3574
823.4218
821.4577
819.4899
817.549
815.6491
813.8105
812.0519
810.3887
808.8339
807.3971
806.0847
804.9001
803.844
802.9144
802.1068
801.4144
800.8279
800.3357
799.9238
799.5763
799.2754
799.0025
798.7379
798.4617
798.154
797.7955
797.3678
796.8538
796.2379
795.5062
794.6467
793.6495
792.5066
791.2118
789.7612
788.1523
786.3846
784.4593
782.3787
780.147
777.7693
775.252
772.6023
769.8287
766.9402
763.9465
760.858
757.6852
754.4394
751.1312
747.7734
744.3728
740.9474
737.4916
734.0696
730.4929
727.511
721.9741
844.3804
844.1123
843.676
843.069
842.2932
841.3701
840.306
839.1109
837.799
836.3843
834.8819
833.3076
831.6775
830.0077
828.3142
826.6124
824.917
823.2419
821.6002
820.0033
818.4617
816.984
815.5771
814.2461
812.9941
811.8223
810.7299
809.7142
808.771
807.8941
807.0761
806.3082
805.5806
804.8827
804.2032
803.5304
802.8524
802.1573
801.4332
800.6686
799.8525
798.9745
798.0247
796.9941
795.8747
794.6592
793.3414
791.9161
790.3793
788.7278
786.9597
785.0738
783.0714
780.9499
778.7177
776.3594
773.9484
771.2434
769.0645
764.3965
802.3564
805.4885
808.4837
811.3388
814.0287
816.5471
818.8886
821.0424
823.0005
824.7583
826.3125
827.6619
828.8071
829.7505
830.4962
831.0497
831.4182
831.6102
831.6352
831.504
831.2282
830.82
830.2923
829.6583
828.9314
828.1249
827.252
826.3252
825.3567
824.3578
823.3388
822.3094
821.2777
820.2509
819.2349
818.2344
817.2529
816.2923
815.3537
814.4368
813.5403
812.6617
811.7976
810.9439
810.0955
809.2467
808.3913
807.5226
806.6336
805.7169
804.7653
803.7711
802.7277
801.6266
800.4605
799.2219
797.9311
796.4536
795.2559
792.5028
798.8342
797.0303
795.6587
794.7351
794.2294
794.0925
794.2916
794.7915
795.5535
796.5416
797.721
799.0583
800.5217
802.0813
803.7088
805.3778
807.064
808.7449
810.4003
812.0119
813.5635
815.0409
816.4322
817.7272
818.9179
819.9979
820.9631
821.8106
822.5393
823.1497
823.6435
824.0236
824.2939
824.4593
824.5255
824.4985
824.3849
824.1918
823.926
823.5946
823.2045
822.7623
822.2744
821.7466
821.1842
820.5919
819.9739
819.3334
818.6731
817.9948
817.2996
816.5877
815.8587
815.1124
814.3406
813.5538
812.7374
811.869
811.0944
809.5555
886.2989
878.6234
871.2505
864.2241
857.594
851.3724
845.5626
840.1761
835.2177
830.6866
826.5791
822.8885
819.6054
816.7177
814.2111
812.0694
810.2749
808.8081
807.6489
806.7758
806.167
805.8001
805.6525
805.7018
805.9255
806.3018
806.8093
807.4272
808.1357
808.9159
809.7499
810.6211
811.5138
812.414
813.3087
814.1862
815.0364
815.8502
816.62
817.3393
818.003
818.6068
819.1479
819.6241
820.0343
820.3781
820.656
820.8687
821.0179
821.1052
821.1329
821.1032
821.0184
820.8823
820.6912
820.4588
820.1752
819.8427
819.5093
818.7946
974.4176
966.8614
959.2559
951.6123
943.9779
936.3846
928.8468
921.3917
914.0465
906.8352
899.7815
892.9078
886.2354
879.7838
873.5706
867.6117
861.921
856.5103
851.3892
846.5653
842.0439
837.8284
833.9201
830.3184
827.0206
824.0224
821.3179
818.8995
816.7582
814.8839
813.265
811.8894
810.7436
809.814
809.086
808.5447
808.1753
807.9623
807.8907
807.9454
808.1116
808.3749
808.7212
809.1373
809.6101
810.1275
810.6782
811.2514
811.8371
812.4264
813.0108
813.5828
814.1356
814.6639
815.1603
815.6219
816.0484
816.4283
816.7434
817.0924
1127.89
1117.166
1106.562
1096.051
1085.649
1075.375
1065.208
1055.144
1045.189
1035.342
1025.607
1015.987
1006.489
997.1198
987.8877
978.8019
969.8725
961.1101
952.5258
944.1309
935.9369
927.955
920.1963
912.6714
905.3904
898.3627
891.5968
885.1005
878.8804
872.9422
867.2904
861.9282
856.8577
852.08
847.5945
843.3997
839.4929
835.8702
832.5264
829.4555
826.6504
824.1028
821.8041
819.7444
817.9133
816.2998
814.8925
813.6794
812.6482
811.7865
811.0814
810.5201
810.0901
809.7787
809.5749
809.4595
809.4373
809.4724
809.5644
809.7409
1201.245
1196.112
1190.577
1184.646
1178.352
1171.745
1164.847
1157.68
1150.275
1142.651
1134.832
1126.837
1118.685
1110.395
1101.983
1093.467
1084.863
1076.187
1067.455
1058.682
1049.884
1041.076
1032.275
1023.494
1014.75
1006.058
997.4326
988.8893
980.4426
972.1072
963.8971
955.8263
947.9081
940.1552
932.5799
925.1938
918.0076
911.0314
904.2744
897.7448
891.45
885.3963
879.5889
874.0323
868.7295
863.6827
858.8931
854.3604
850.0838
846.0609
842.2886
838.7626
835.4781
832.4286
829.6112
827.0053
824.6348
822.3997
820.6341
817.7954
1318.374
1313.194
1307.83
1302.252
1296.45
1290.453
1284.247
1277.827
1271.202
1264.373
1257.345
1250.124
1242.716
1235.129
1227.369
1219.446
1211.368
1203.143
1194.78
1186.289
1177.679
1168.961
1160.143
1151.237
1142.252
1133.199
1124.088
1114.932
1105.74
1096.524
1087.296
1078.068
1068.851
1059.657
1050.499
1041.389
1032.339
1023.361
1014.467
1005.67
996.9814
988.4127
979.9755
971.6811
963.54
955.5627
947.7588
940.1377
932.7079
925.4772
918.4529
911.6413
905.0482
898.6779
892.539
886.6167
880.9702
875.3801
870.8138
862.922
1186.524
1198.054
1208.609
1218.196
1226.801
1234.469
1241.242
1247.139
1252.188
1256.418
1259.855
1262.527
1264.462
1265.686
1266.227
1266.112
1265.368
1264.02
1262.095
1259.619
1256.617
1253.115
1249.138
1244.709
1239.853
1234.592
1228.951
1222.952
1216.616
1209.965
1203.021
1195.804
1188.334
1180.633
1172.718
1164.609
1156.326
1147.886
1139.307
1130.609
1121.807
1112.919
1103.962
1094.953
1085.908
1076.842
1067.772
1058.713
1049.68
1040.687
1031.747
1022.876
1014.085
1005.388
996.8008
988.3125
980.0233
971.5679
964.598
951.9238
1116.296
1119.729
1123.891
1128.763
1134.224
1140.152
1146.46
1153.054
1159.839
1166.735
1173.664
1180.555
1187.344
1193.973
1200.388
1206.541
1212.39
1217.897
1223.028
1227.755
1232.053
1235.901
1239.283
1242.184
1244.594
1246.505
1247.914
1248.817
1249.216
1249.112
1248.511
1247.418
1245.842
1243.791
1241.278
1238.312
1234.909
1231.081
1226.843
1222.211
1217.201
1211.83
1206.114
1200.071
1193.72
1187.078
1180.162
1172.993
1165.587
1157.963
1150.139
1142.135
1133.967
1125.653
1117.217
1108.651
1100.078
1091.056
1083.574
1069.224
1081.982
1083.354
1084.73
1086.226
1087.92
1089.847
1092.053
1094.57
1097.415
1100.598
1104.119
1107.973
1112.147
1116.622
1121.376
1126.382
1131.61
1137.029
1142.603
1148.298
1154.075
1159.899
1165.732
1171.536
1177.277
1182.917
1188.424
1193.765
1198.907
1203.822
1208.482
1212.861
1216.936
1220.684
1224.087
1227.126
1229.787
1232.055
1233.92
1235.372
1236.404
1237.01
1237.186
1236.931
1236.245
1235.128
1233.583
1231.614
1229.228
1226.43
1223.229
1219.633
1215.652
1211.298
1206.585
1201.508
1196.161
1190.195
1185.173
1174.632
1055.175
1056.5
1057.756
1058.966
1060.15
1061.314
1062.475
1063.656
1064.879
1066.165
1067.542
1069.031
1070.656
1072.438
1074.397
1076.549
1078.909
1081.487
1084.293
1087.331
1090.604
1094.11
1097.845
1101.802
1105.971
1110.341
1114.896
1119.62
1124.493
1129.496
1134.606
1139.799
1145.053
1150.341
1155.637
1160.917
1166.153
1171.321
1176.392
1181.344
1186.149
1190.785
1195.228
1199.455
1203.445
1207.178
1210.634
1213.797
1216.649
1219.175
1221.362
1223.197
1224.67
1225.771
1226.494
1226.825
1226.787
1226.257
1225.709
1223.291
1037.805
1038.708
1039.595
1040.485
1041.382
1042.281
1043.18
1044.077
1044.968
1045.853
1046.733
1047.613
1048.496
1049.391
1050.307
1051.253
1052.241
1053.283
1054.394
1055.587
1056.875
1058.273
1059.794
1061.451
1063.256
1065.219
1067.35
1069.657
1072.146
1074.824
1077.692
1080.751
1084.003
1087.443
1091.068
1094.872
1098.847
1102.983
1107.269
1111.693
1116.24
1120.894
1125.64
1130.459
1135.333
1140.243
1145.167
1150.085
1154.977
1159.821
1164.594
1169.277
1173.846
1178.282
1182.564
1186.672
1190.567
1194.342
1197.427
1202.331
1016.703
1017.982
1019.197
1020.377
1021.53
1022.66
1023.77
1024.864
1025.94
1026.998
1028.038
1029.058
1030.058
1031.037
1031.993
1032.928
1033.842
1034.736
1035.613
1036.477
1037.332
1038.183
1039.037
1039.901
1040.783
1041.691
1042.636
1043.628
1044.676
1045.792
1046.985
1048.268
1049.65
1051.141
1052.751
1054.49
1056.364
1058.383
1060.551
1062.876
1065.36
1068.006
1070.817
1073.793
1076.933
1080.234
1083.693
1087.304
1091.061
1094.955
1098.978
1103.12
1107.367
1111.709
1116.13
1120.624
1125.129
1129.842
1133.784
1141.103
997.9164
999.0308
1000.119
1001.207
1002.3
1003.395
1004.495
1005.599
1006.705
1007.812
1008.92
1010.025
1011.128
1012.225
1013.315
1014.396
1015.466
1016.522
1017.564
1018.587
1019.593
1020.577
1021.541
1022.483
1023.403
1024.302
1025.181
1026.042
1026.887
1027.719
1028.542
1029.362
1030.182
1031.01
1031.852
1032.714
1033.604
1034.531
1035.501
1036.525
1037.61
1038.765
1039.999
1041.32
1042.735
1044.254
1045.882
1047.628
1049.496
1051.492
1053.621
1055.885
1058.289
1060.833
1063.517
1066.352
1069.288
1072.512
1075.227
1080.71
978.2493
979.5664
980.8239
982.0519
983.26
984.4495
985.6268
986.795
987.9547
989.1077
990.255
991.3974
992.5355
993.6698
994.8003
995.9271
997.05
998.1685
999.282
1000.39
1001.491
1002.584
1003.669
1004.743
1005.805
1006.854
1007.888
1008.906
1009.906
1010.887
1011.848
1012.789
1013.709
1014.608
1015.486
1016.343
1017.182
1018.003
1018.809
1019.603
1020.387
1021.166
1021.943
1022.723
1023.511
1024.313
1025.134
1025.98
1026.859
1027.776
1028.738
1029.751
1030.824
1031.961
1033.169
1034.464
1035.818
1037.349
1038.623
1041.357
952.647
954.3448
955.9847
957.5941
959.1784
960.7359
962.2715
963.7863
965.2795
966.752
968.2042
969.6364
971.0493
972.4432
973.8189
975.1769
976.5178
977.8423
979.1509
980.4443
981.7231
982.9879
984.2391
985.477
986.7018
987.9136
989.1124
990.298
991.47
992.6281
993.7716
994.8999
996.0122
997.1077
998.1854
999.2444
1000.284
1001.303
1002.3
1003.276
1004.228
1005.158
1006.065
1006.949
1007.809
1008.648
1009.465
1010.263
1011.041
1011.803
1012.551
1013.287
1014.014
1014.736
1015.455
1016.182
1016.903
1017.674
1018.298
1019.536
929.5703
930.9935
932.4025
933.8257
935.2679
936.7244
938.1972
939.6851
941.1845
942.6931
944.2085
945.7283
947.2503
948.7721
950.2919
951.8077
953.3177
954.8206
956.3149
957.7996
959.2736
960.7363
962.1869
963.625
965.05
966.4616
967.8596
969.2439
970.6142
971.9704
973.3125
974.6403
975.9537
977.2525
978.5363
979.8049
981.0579
982.2947
983.5148
984.7175
985.9021
987.0678
988.2138
989.3391
990.4428
991.5239
992.5814
993.6144
994.6219
995.6031
996.5571
997.4834
998.3815
999.2512
1000.091
1000.906
1001.686
1002.459
1003.096
1004.15
908.8502
910.0461
911.2206
912.4051
913.6097
914.8328
916.079
917.3499
918.6443
919.962
921.3023
922.6641
924.0461
925.447
926.8652
928.2991
929.7469
931.207
932.6777
934.1571
935.6437
937.1359
938.6321
940.1307
941.6303
943.1295
944.627
946.1216
947.6122
949.0977
950.5773
952.05
953.5152
954.972
956.4197
957.8579
959.2858
960.7029
962.1086
963.5023
964.8835
966.2515
967.6057
968.9453
970.2697
971.5779
972.8691
974.1421
975.3958
976.6291
977.8407
979.0293
980.1937
981.3325
982.4428
983.5277
984.5779
985.6207
986.4895
987.9309
894.959
895.5788
896.2012
896.8562
897.5533
898.2898
899.0681
899.8887
900.75
901.6509
902.5905
903.5676
904.5808
905.629
906.7109
907.825
908.9701
910.1447
911.3474
912.577
913.8319
915.1109
916.4123
917.7349
919.077
920.4372
921.8139
923.2058
924.6113
926.029
927.4575
928.8953
930.3412
931.7938
933.2517
934.7138
936.1788
937.6456
939.1129
940.5798
942.0451
943.5078
944.9669
946.4214
947.8702
949.3123
950.7467
952.1722
953.5877
954.992
956.3838
957.7618
959.1247
960.4713
961.7988
963.1099
964.3926
965.6902
966.7665
968.6422
890.8469
890.7087
890.5812
890.4948
890.4625
890.4837
890.5604
890.6941
890.8837
891.1287
891.4281
891.7809
892.186
892.6423
893.1484
893.703
894.305
894.953
895.6458
896.3821
897.1607
897.9804
898.8399
899.738
900.6734
901.6447
902.6506
903.69
904.7613
905.8634
906.9947
908.1541
909.34
910.551
911.7859
913.0431
914.3212
915.6189
916.9346
918.2669
919.6145
920.9759
922.3498
923.7346
925.1291
926.5317
927.9411
929.3557
930.774
932.1946
933.616
935.0365
936.4548
937.8692
939.2771
940.6813
942.0662
943.49
944.6654
946.7909
898.5594
897.5971
896.6456
895.7329
894.8741
894.0713
893.3262
892.641
892.0162
891.4519
890.9483
890.5052
890.1223
889.7992
889.5353
889.3301
889.1829
889.0931
889.06
889.0828
889.1608
889.2931
889.4791
889.7178
890.0084
890.3498
890.7412
891.1816
891.6701
892.2055
892.7869
893.4132
894.0833
894.796
895.5501
896.3445
897.1779
898.0491
898.9566
899.8992
900.8756
901.8842
902.9238
903.9927
905.0896
906.2129
907.361
908.5322
909.7248
910.9371
912.1675
913.414
914.675
915.9488
917.2322
918.5283
919.8196
921.1682
922.2822
924.3497
915.8575
914.2409
912.6247
911.0333
909.4827
907.9775
906.519
905.1101
903.7521
902.4461
901.1929
899.9931
898.8474
897.7562
896.7199
895.7389
894.8134
893.9438
893.1301
892.3726
891.6715
891.0269
890.4388
889.9071
889.4317
889.0127
888.6497
888.3426
888.0911
887.895
887.7537
887.667
887.6343
887.6551
887.7289
887.855
888.0326
888.2612
888.5397
888.8675
889.2435
889.6668
890.1364
890.6512
891.21
891.8116
892.4546
893.1376
893.8591
894.6176
895.4115
896.239
897.0986
897.9885
898.9059
899.8532
900.8148
901.8421
902.6965
904.3259
943.105
940.8914
938.6723
936.468
934.2944
932.1583
930.0598
928.0013
925.9847
924.0108
922.0806
920.1948
918.3541
916.559
914.8101
913.1081
911.4534
909.8467
908.2885
906.7795
905.3202
903.9112
902.553
901.2463
899.9914
898.7889
897.6393
896.5429
895.5003
894.5117
893.5775
892.6981
891.8735
891.1041
890.39
889.7313
889.128
888.58
888.0873
887.6498
887.2673
886.9394
886.6658
886.4462
886.2799
886.1665
886.1052
886.0951
886.1354
886.2251
886.3631
886.5481
886.7791
887.0548
887.373
887.7351
888.1314
888.5889
888.9798
889.7752
972.8837
970.5528
968.1841
965.7979
963.4105
961.0318
958.6637
956.3099
953.974
951.6584
949.3652
947.0964
944.8536
942.6385
940.4525
938.297
936.173
934.0819
932.0247
930.0023
928.016
926.0664
924.1546
922.2814
920.4474
918.6535
916.9004
915.1887
913.5193
911.8927
910.3096
908.7705
907.2761
905.827
904.4236
903.0666
901.7563
900.4932
899.2779
898.1107
896.9919
895.922
894.9011
893.9296
893.0076
892.1353
891.3126
890.5395
889.8158
889.1413
888.5157
887.9387
887.4097
886.9284
886.4938
886.1059
885.7641
885.4617
885.2224
884.859
1006.681
1004.452
1002.137
999.7566
997.3205
994.841
992.3198
989.7608
987.1698
984.5512
981.9096
979.25
976.5771
973.8958
971.2109
968.527
965.8489
963.1808
960.5273
957.8922
955.2796
952.6931
950.136
947.6115
945.1223
942.6712
940.2605
937.8924
935.5686
933.291
931.0609
928.8796
926.7482
924.6675
922.6382
920.661
918.7361
916.8639
915.0445
913.2781
911.5645
909.9036
908.2954
906.7394
905.2353
903.7827
902.3811
901.0299
899.7284
898.476
897.2718
896.1152
895.0054
893.9414
892.9228
891.9465
891.0215
890.1067
889.3575
888.0399
1018.119
1018.286
1018.537
1018.819
1019.103
1019.378
1019.606
1019.756
1019.807
1019.737
1019.529
1019.171
1018.652
1017.964
1017.103
1016.067
1014.854
1013.468
1011.912
1010.19
1008.309
1006.278
1004.103
1001.794
999.3614
996.8147
994.1646
991.4217
988.597
985.701
982.7445
979.7379
976.6915
973.615
970.5181
967.41
964.2991
961.1939
958.1021
955.0309
951.9871
948.9768
946.006
943.0796
940.2025
937.3789
934.6123
931.9061
929.2628
926.6848
924.174
921.7317
919.3592
917.057
914.8265
912.662
910.5914
908.5002
906.8194
903.7611
991.3916
974.4028
959.4773
946.678
935.9173
926.9669
919.7004
913.9938
909.6955
906.6679
904.7786
903.9008
903.9136
904.7026
906.1595
908.1828
910.6774
913.555
916.7337
920.1381
923.6991
927.354
931.0457
934.7232
938.3411
941.8591
945.2421
948.4599
951.4868
954.3012
956.8857
959.2264
961.3131
963.1383
964.6979
965.9901
967.0154
967.7766
968.2783
968.5268
968.5298
968.2963
967.8361
967.1603
966.2803
965.2081
963.9563
962.5373
960.9641
959.2494
957.406
955.4464
953.3831
951.228
948.9932
946.6875
944.3455
941.8362
939.7865
935.652
2154.421
2072.772
1993.672
1917.242
1843.84
1773.63
1706.571
1642.74
1582.203
1524.963
1471.013
1420.326
1372.86
1328.558
1287.348
1249.147
1213.864
1181.396
1151.634
1124.465
1099.768
1077.421
1057.299
1039.274
1023.22
1009.01
996.5178
985.6202
976.1954
968.1251
961.2942
955.5917
950.9106
947.1484
944.2074
941.9948
940.4226
939.4082
938.8739
938.7471
938.9605
939.4516
940.163
941.0421
942.0408
943.1156
944.2273
945.341
946.4255
947.4536
948.4015
949.2488
949.9783
950.5753
951.0297
951.3349
951.4666
951.4383
951.3266
950.5671
2173.524
2187.564
2194.785
2195.176
2189.174
2177.486
2160.601
2139.006
2113.234
2083.784
2051.136
2015.752
1978.07
1938.507
1897.458
1855.289
1812.347
1768.949
1725.39
1681.94
1638.843
1596.321
1554.572
1513.769
1474.066
1435.594
1398.467
1362.777
1328.598
1295.989
1264.994
1235.639
1207.94
1181.898
1157.506
1134.743
1113.583
1093.989
1075.919
1059.322
1044.146
1030.332
1017.817
1006.536
996.424
987.4111
979.4286
972.4069
966.2769
960.9699
956.4184
952.5564
949.3194
946.6439
944.4768
942.7474
941.4013
940.4282
939.6738
939.1188
2140.245
2143.597
2148.877
2155.506
2162.731
2170.019
2176.863
2182.783
2187.381
2190.324
2191.342
2190.217
2186.788
2180.941
2172.606
2161.755
2148.395
2132.566
2114.339
2093.806
2071.085
2046.309
2019.628
1991.202
1961.202
1929.805
1897.191
1863.545
1829.048
1793.882
1758.225
1722.249
1686.121
1650
1614.037
1578.375
1543.147
1508.475
1474.472
1441.242
1408.875
1377.454
1347.048
1317.72
1289.519
1262.487
1236.656
1212.05
1188.681
1166.559
1145.68
1126.039
1107.621
1090.404
1074.377
1059.462
1045.769
1032.761
1022.413
1005.881
2125.844
2125.423
2125.175
2125.432
2126.318
2127.919
2130.293
2133.423
2137.247
2141.665
2146.547
2151.74
2157.074
2162.368
2167.436
2172.091
2176.148
2179.43
2181.768
2183.006
2183.003
2181.631
2178.78
2174.358
2168.29
2160.519
2151.008
2139.736
2126.699
2111.91
2095.397
2077.203
2057.385
2036.011
2013.16
1988.922
1963.394
1936.681
1908.892
1880.144
1850.554
1820.243
1789.332
1757.944
1726.199
1694.215
1662.11
1629.994
1597.978
1566.164
1534.651
1503.533
1472.895
1442.818
1413.391
1384.606
1356.825
1328.85
1306.053
1265.622
2117.758
2117.206
2116.514
2115.756
2114.98
2114.232
2113.582
2113.103
2112.869
2112.947
2113.398
2114.268
2115.594
2117.395
2119.674
2122.421
2125.606
2129.188
2133.11
2137.303
2141.684
2146.164
2150.644
2155.019
2159.179
2163.013
2166.407
2169.249
2171.43
2172.842
2173.385
2172.965
2171.493
2168.892
2165.09
2160.027
2153.653
2145.929
2136.824
2126.321
2114.41
2101.095
2086.389
2070.312
2052.897
2034.184
2014.221
1993.064
1970.776
1947.425
1923.085
1897.836
1871.759
1844.941
1817.481
1789.399
1761.108
1731.24
1706.329
1658.706
2109.46
2109.146
2108.749
2108.284
2107.763
2107.181
2106.536
2105.833
2105.081
2104.296
2103.501
2102.724
2102
2101.364
2100.857
2100.518
2100.386
2100.498
2100.889
2101.586
2102.614
2103.988
2105.718
2107.805
2110.242
2113.013
2116.095
2119.456
2123.055
2126.844
2130.769
2134.769
2138.777
2142.722
2146.528
2150.118
2153.411
2156.327
2158.785
2160.703
2162.004
2162.611
2162.451
2161.456
2159.563
2156.711
2152.849
2147.929
2141.912
2134.764
2126.46
2116.98
2106.314
2094.456
2081.422
2067.163
2051.931
2034.728
2020.04
1988.996
2095.824
2096.046
2096.179
2096.245
2096.256
2096.216
2096.125
2095.981
2095.779
2095.515
2095.187
2094.791
2094.329
2093.802
2093.216
2092.58
2091.904
2091.206
2090.502
2089.815
2089.168
2088.586
2088.096
2087.725
2087.503
2087.454
2087.605
2087.98
2088.599
2089.479
2090.634
2092.073
2093.801
2095.818
2098.116
2100.684
2103.506
2106.559
2109.815
2113.24
2116.796
2120.44
2124.125
2127.798
2131.407
2134.892
2138.195
2141.253
2144.003
2146.383
2148.328
2149.777
2150.666
2150.937
2150.542
2149.386
2147.534
2144.533
2141.884
2133.647
2072.377
2073.414
2074.345
2075.197
2075.978
2076.695
2077.351
2077.948
2078.488
2078.969
2079.392
2079.755
2080.055
2080.291
2080.458
2080.556
2080.581
2080.532
2080.407
2080.208
2079.936
2079.594
2079.19
2078.728
2078.221
2077.678
2077.115
2076.545
2075.988
2075.46
2074.983
2074.577
2074.262
2074.062
2073.996
2074.084
2074.346
2074.8
2075.46
2076.34
2077.45
2078.797
2080.386
2082.217
2084.287
2086.587
2089.108
2091.833
2094.744
2097.816
2101.022
2104.332
2107.71
2111.118
2114.524
2117.861
2121.113
2124.225
2126.934
2130.75
2036.856
2038.78
2040.599
2042.341
2044.011
2045.613
2047.152
2048.628
2050.04
2051.389
2052.676
2053.901
2055.063
2056.164
2057.201
2058.175
2059.084
2059.927
2060.703
2061.409
2062.043
2062.603
2063.086
2063.492
2063.817
2064.062
2064.225
2064.308
2064.312
2064.239
2064.095
2063.885
2063.615
2063.294
2062.931
2062.539
2062.13
2061.718
2061.317
2060.944
2060.615
2060.348
2060.159
2060.065
2060.085
2060.233
2060.525
2060.975
2061.597
2062.4
2063.394
2064.585
2065.978
2067.573
2069.375
2071.374
2073.541
2075.994
2078.141
2082.484
1991.022
1993.582
1996.06
1998.487
2000.867
2003.2
2005.489
2007.733
2009.931
2012.079
2014.177
2016.224
2018.218
2020.158
2022.043
2023.872
2025.644
2027.358
2029.014
2030.611
2032.147
2033.622
2035.033
2036.381
2037.662
2038.875
2040.018
2041.088
2042.083
2043.002
2043.841
2044.599
2045.274
2045.866
2046.372
2046.795
2047.133
2047.389
2047.565
2047.665
2047.694
2047.657
2047.56
2047.413
2047.223
2047.002
2046.759
2046.507
2046.259
2046.027
2045.825
2045.667
2045.567
2045.539
2045.598
2045.764
2046.012
2046.459
2046.81
2048.038
1941.121
1943.766
1946.37
1948.966
1951.561
1954.148
1956.733
1959.313
1961.884
1964.443
1966.988
1969.516
1972.023
1974.507
1976.965
1979.394
1981.791
1984.155
1986.484
1988.774
1991.025
1993.234
1995.399
1997.52
1999.593
2001.619
2003.594
2005.518
2007.387
2009.201
2010.958
2012.654
2014.288
2015.857
2017.359
2018.791
2020.15
2021.434
2022.64
2023.767
2024.811
2025.772
2026.648
2027.437
2028.14
2028.757
2029.289
2029.737
2030.103
2030.392
2030.606
2030.752
2030.834
2030.859
2030.835
2030.778
2030.671
2030.566
2030.418
2030.22
1896.061
1898.151
1900.239
1902.361
1904.525
1906.727
1908.97
1911.255
1913.576
1915.931
1918.318
1920.733
1923.173
1925.634
1928.114
1930.61
1933.117
1935.632
1938.153
1940.675
1943.197
1945.714
1948.224
1950.724
1953.211
1955.683
1958.136
1960.569
1962.978
1965.362
1967.718
1970.043
1972.336
1974.594
1976.814
1978.994
1981.131
1983.223
1985.267
1987.26
1989.2
1991.082
1992.904
1994.664
1996.357
1997.981
1999.532
2001.008
2002.405
2003.721
2004.954
2006.101
2007.161
2008.132
2009.013
2009.811
2010.51
2011.131
2011.623
2012.211
1862.747
1863.924
1865.11
1866.342
1867.636
1868.989
1870.405
1871.886
1873.432
1875.04
1876.711
1878.443
1880.234
1882.082
1883.986
1885.943
1887.952
1890.01
1892.114
1894.262
1896.451
1898.679
1900.943
1903.239
1905.566
1907.919
1910.296
1912.694
1915.111
1917.542
1919.985
1922.438
1924.897
1927.36
1929.823
1932.285
1934.741
1937.189
1939.628
1942.052
1944.461
1946.85
1949.217
1951.559
1953.872
1956.153
1958.4
1960.607
1962.772
1964.891
1966.96
1968.975
1970.932
1972.828
1974.656
1976.421
1978.102
1979.739
1981.105
1983.281
1841.498
1841.932
1842.351
1842.792
1843.271
1843.793
1844.362
1844.983
1845.658
1846.389
1847.177
1848.024
1848.932
1849.901
1850.932
1852.025
1853.181
1854.4
1855.682
1857.026
1858.433
1859.902
1861.431
1863.02
1864.667
1866.372
1868.132
1869.947
1871.814
1873.732
1875.697
1877.709
1879.766
1881.863
1884.001
1886.175
1888.383
1890.623
1892.893
1895.189
1897.509
1899.85
1902.209
1904.584
1906.972
1909.369
1911.772
1914.179
1916.586
1918.99
1921.387
1923.773
1926.144
1928.498
1930.828
1933.137
1935.4
1937.697
1939.608
1942.983
1826.381
1826.634
1826.828
1826.996
1827.156
1827.314
1827.476
1827.648
1827.834
1828.037
1828.261
1828.509
1828.785
1829.091
1829.431
1829.807
1830.223
1830.68
1831.182
1831.729
1832.326
1832.972
1833.671
1834.424
1835.231
1836.095
1837.016
1837.996
1839.034
1840.132
1841.289
1842.505
1843.781
1845.116
1846.51
1847.962
1849.471
1851.037
1852.657
1854.332
1856.059
1857.837
1859.665
1861.54
1863.461
1865.426
1867.432
1869.478
1871.56
1873.677
1875.825
1878.002
1880.205
1882.43
1884.674
1886.94
1889.2
1891.556
1893.511
1897.166
1808.389
1809.158
1809.821
1810.408
1810.932
1811.403
1811.827
1812.209
1812.553
1812.863
1813.144
1813.398
1813.63
1813.845
1814.045
1814.234
1814.416
1814.595
1814.775
1814.958
1815.15
1815.352
1815.569
1815.804
1816.059
1816.339
1816.647
1816.984
1817.354
1817.76
1818.204
1818.688
1819.215
1819.786
1820.404
1821.07
1821.785
1822.552
1823.371
1824.244
1825.17
1826.151
1827.188
1828.28
1829.427
1830.63
1831.888
1833.201
1834.568
1835.988
1837.461
1838.984
1840.557
1842.178
1843.844
1845.56
1847.301
1849.161
1850.707
1853.712
1777.757
1779.733
1781.559
1783.263
1784.856
1786.345
1787.738
1789.04
1790.254
1791.383
1792.431
1793.402
1794.3
1795.127
1795.888
1796.587
1797.226
1797.811
1798.343
1798.828
1799.269
1799.67
1800.035
1800.368
1800.671
1800.95
1801.208
1801.449
1801.676
1801.893
1802.104
1802.312
1802.521
1802.735
1802.956
1803.188
1803.435
1803.699
1803.984
1804.291
1804.625
1804.987
1805.38
1805.807
1806.269
1806.769
1807.309
1807.889
1808.511
1809.177
1809.888
1810.645
1811.447
1812.297
1813.192
1814.139
1815.121
1816.2
1817.102
1818.918
1725.72
1729.457
1733.013
1736.421
1739.682
1742.803
1745.792
1748.651
1751.381
1753.986
1756.467
1758.828
1761.071
1763.198
1765.212
1767.117
1768.915
1770.609
1772.203
1773.699
1775.101
1776.412
1777.637
1778.777
1779.837
1780.821
1781.732
1782.573
1783.349
1784.062
1784.718
1785.319
1785.87
1786.373
1786.834
1787.255
1787.641
1787.995
1788.321
1788.623
1788.904
1789.167
1789.417
1789.657
1789.891
1790.12
1790.349
1790.581
1790.819
1791.065
1791.322
1791.592
1791.879
1792.183
1792.507
1792.855
1793.223
1793.636
1793.983
1794.683
1647.374
1652.916
1658.301
1663.565
1668.701
1673.707
1678.588
1683.344
1687.969
1692.463
1696.823
1701.049
1705.14
1709.095
1712.914
1716.597
1720.145
1723.557
1726.836
1729.981
1732.995
1735.88
1738.636
1741.267
1743.773
1746.158
1748.425
1750.575
1752.611
1754.537
1756.356
1758.07
1759.682
1761.197
1762.617
1763.945
1765.186
1766.342
1767.418
1768.417
1769.342
1770.198
1770.987
1771.714
1772.382
1772.995
1773.556
1774.069
1774.538
1774.965
1775.354
1775.709
1776.032
1776.328
1776.597
1776.845
1777.074
1777.289
1777.462
1777.698
1554.231
1560.014
1565.787
1571.589
1577.411
1583.233
1589.056
1594.87
1600.661
1606.42
1612.135
1617.799
1623.4
1628.932
1634.387
1639.757
1645.035
1650.215
1655.293
1660.262
1665.118
1669.858
1674.478
1678.974
1683.344
1687.587
1691.7
1695.681
1699.531
1703.249
1706.833
1710.286
1713.605
1716.794
1719.852
1722.78
1725.581
1728.255
1730.805
1733.233
1735.541
1737.731
1739.807
1741.77
1743.623
1745.369
1747.012
1748.554
1749.998
1751.348
1752.605
1753.775
1754.859
1755.861
1756.783
1757.63
1758.404
1759.119
1759.693
1760.51
1489.897
1492.747
1495.776
1499.035
1502.528
1506.232
1510.145
1514.257
1518.553
1523.02
1527.645
1532.413
1537.31
1542.322
1547.437
1552.639
1557.916
1563.253
1568.64
1574.061
1579.507
1584.964
1590.421
1595.867
1601.293
1606.687
1612.04
1617.344
1622.59
1627.77
1632.876
1637.903
1642.842
1647.689
1652.438
1657.084
1661.623
1666.051
1670.365
1674.56
1678.636
1682.589
1686.417
1690.12
1693.696
1697.145
1700.465
1703.658
1706.722
1709.658
1712.466
1715.148
1717.705
1720.137
1722.444
1724.635
1726.693
1728.687
1730.306
1732.929
1473.029
1472.596
1472.294
1472.178
1472.282
1472.604
1473.154
1473.941
1474.966
1476.232
1477.739
1479.485
1481.469
1483.687
1486.135
1488.807
1491.698
1494.8
1498.105
1501.605
1505.291
1509.153
1513.18
1517.363
1521.691
1526.151
1530.734
1535.428
1540.22
1545.1
1550.056
1555.077
1560.15