/*--------------------------------*- C++ -*----------------------------------*\
| =========                 |                                                 |
| \\      /  F ield         | OpenFOAM: The Open Source CFD Toolbox           |
|  \\    /   O peration     | Version:  2312                                  |
|   \\  /    A nd           | Website:  www.openfoam.com                      |
|    \\/     M anipulation  |                                                 |
\*---------------------------------------------------------------------------*/
FoamFile
{
    version     2.0;
    format      ascii;
    arch        "LSB;label=32;scalar=64";
    class       volScalarField;
    location    "3000";
    object      nut;
}
// * * * * * * * * * * * * * * * * * * * * * * * * * * * * * * * * * * * * * //

dimensions      [0 2 -1 0 0 0 0];

internalField   nonuniform List<scalar> 
12000
(
6.266136e-05
0.0001871171
0.0002012262
0.0002190218
0.0002259115
0.0002265389
0.0002292566
0.0002320482
0.0002364373
0.0002329954
0.0002223282
0.0002214499
0.0002298708
0.0002344249
0.0002239934
0.0002134301
0.0002148992
0.0002231045
0.0002225353
0.0002136357
0.0002088189
0.0002113507
0.0002139104
0.0002110436
0.0002057573
0.0002034372
0.0002053872
0.0002077067
0.0002050016
0.0001991563
0.0001973791
0.0002005107
0.0002025042
0.0002010179
0.000196389
0.0001900523
0.0001881277
0.0001986362
0.0002147154
0.0002015257
0.0001728682
0.0001718131
0.0002106497
0.0002266353
0.0001757691
0.0001593105
0.0001940821
0.0002252206
0.0001802061
0.0001584452
0.0001798971
0.0001982513
0.0001743661
0.000153746
0.0001624331
0.0001554977
0.0001294467
0.0001029049
9.592041e-05
7.640195e-05
3.9586e-05
0.0002360402
0.0002776356
0.0003431667
0.0004049362
0.000456096
0.0005174071
0.0005829082
0.000651816
0.0007266843
0.0008100431
0.0008935325
0.0009735352
0.001050306
0.001135631
0.001225844
0.001310039
0.001382189
0.001455051
0.00153546
0.001615863
0.001685933
0.001749355
0.001814717
0.001882691
0.001945639
0.001997671
0.002041999
0.002088221
0.002138847
0.002181571
0.002207376
0.002224085
0.002243957
0.002265358
0.002280647
0.002282624
0.002266347
0.002239189
0.002225889
0.002223012
0.0021969
0.002125143
0.002052804
0.001898706
0.001954699
0.001849036
0.001735918
0.001613182
0.001525713
0.001381879
0.001236536
0.001095632
0.0009397743
0.0007909799
0.0006329547
0.0004534086
0.000268477
0.0001472529
6.802019e-05
3.80463e-05
0.0003670807
0.0004523889
0.0005569042
0.0006756548
0.0008143888
0.0009642429
0.001120821
0.00128327
0.001444213
0.001607484
0.001768107
0.0019232
0.002072245
0.00221563
0.002353479
0.002482074
0.002601455
0.002713335
0.002818362
0.002915738
0.003004897
0.003086604
0.003161616
0.003229989
0.003291367
0.003345726
0.003389495
0.003401883
0.003472729
0.003503508
0.003411838
0.00347008
0.003548715
0.003521219
0.003584974
0.003587004
0.003557719
0.003432846
0.00350018
0.00355369
0.00353294
0.003506973
0.00344166
0.003432971
0.003379688
0.00331738
0.003237633
0.003075098
0.0029274
0.002696412
0.002481326
0.002294209
0.00181087
0.001468475
0.001345869
0.001076051
0.0006554599
0.0002436632
6.877913e-05
3.659731e-05
0.0003861099
0.0005373669
0.0006872208
0.0008706943
0.001079675
0.001306237
0.001536903
0.001772246
0.002004089
0.002224575
0.00243276
0.002627619
0.002811025
0.002980573
0.003139039
0.003286272
0.003422685
0.003549054
0.003665929
0.00377341
0.003871847
0.00396165
0.004043156
0.004116659
0.004182385
0.004240531
0.004291248
0.004334627
0.004370455
0.004328011
0.004420359
0.004435647
0.004443691
0.004445149
0.004438858
0.004425707
0.004405172
0.004376866
0.004339547
0.004293894
0.004239777
0.004175606
0.004101712
0.00401524
0.003915556
0.00380078
0.003668819
0.003519028
0.003349114
0.003157105
0.00294376
0.00251752
0.002263196
0.002067706
0.001683743
0.001249973
0.0007779001
0.0003349514
6.742205e-05
3.591125e-05
0.0004103991
0.0006255333
0.0008280621
0.001071292
0.001336116
0.00161035
0.001882165
0.002145539
0.002401484
0.002648279
0.002885
0.003109691
0.003322845
0.003520467
0.003699602
0.003864141
0.004015733
0.004155094
0.004283214
0.00440053
0.004507966
0.004606103
0.004695153
0.004775271
0.004846687
0.004909648
0.004964373
0.005011142
0.005049271
0.005077199
0.005101369
0.005117931
0.005126856
0.005128
0.005121085
0.005105915
0.00508288
0.005051732
0.005012055
0.004963607
0.004907523
0.004840943
0.004763963
0.004675717
0.004575292
0.004460988
0.004331041
0.004182078
0.004011146
0.003813388
0.003585107
0.003307529
0.002973022
0.002585355
0.002135253
0.001612186
0.001016754
0.0004163
6.704754e-05
3.605154e-05
0.0004178632
0.0006910875
0.0009329578
0.001209971
0.001504808
0.001805655
0.002105427
0.002399127
0.002685848
0.002958237
0.00321347
0.003451519
0.003669374
0.003868263
0.004054024
0.004226571
0.004386825
0.004535487
0.004673838
0.004802778
0.004922922
0.005034379
0.005137205
0.005231426
0.005317047
0.005394035
0.005462319
0.005521772
0.005569844
0.005612739
0.005645735
0.005669061
0.005682835
0.005687144
0.005681741
0.005665762
0.005639243
0.005603654
0.005557753
0.005500218
0.005428956
0.00534522
0.00524865
0.005137479
0.005010502
0.004866328
0.004703122
0.004519839
0.004313848
0.004076405
0.003803152
0.003490529
0.003131129
0.002716247
0.002237011
0.00168957
0.001083079
0.0004721785
6.637284e-05
3.682127e-05
0.0004221757
0.0007374289
0.001010653
0.00130974
0.001627807
0.001953134
0.002274453
0.002584436
0.00287608
0.003151477
0.00340946
0.003650247
0.003875932
0.004087346
0.004284502
0.004468127
0.004639623
0.004800517
0.004952124
0.005095346
0.005230677
0.005358253
0.005477984
0.005589643
0.005692926
0.005787481
0.005872928
0.005945511
0.006012528
0.006068746
0.006114013
0.006147928
0.006170338
0.006181696
0.006181906
0.006170528
0.006147217
0.006109373
0.006057816
0.005993097
0.005914716
0.005821933
0.005713882
0.005589547
0.005447809
0.005287592
0.005108207
0.00490725
0.004679652
0.004418819
0.004125399
0.003790979
0.003412251
0.002976615
0.002471856
0.001885555
0.001216721
0.000526821
6.639102e-05
3.772214e-05
0.0004143232
0.0007715162
0.00107241
0.001387463
0.001715021
0.002046276
0.002372726
0.002687203
0.002985207
0.003265726
0.003528384
0.003773736
0.004003622
0.004220966
0.004427598
0.004623579
0.004810037
0.004987427
0.005156191
0.005317284
0.005471174
0.005617951
0.005757395
0.005889047
0.006012297
0.006126446
0.00623075
0.006323628
0.006406797
0.006478112
0.006536963
0.006582875
0.006615949
0.006635191
0.006639775
0.00662944
0.006604121
0.0065636
0.006507363
0.00643491
0.006345648
0.006238871
0.006113776
0.005969436
0.005805173
0.005620275
0.005412688
0.005179473
0.004918326
0.00462662
0.004302495
0.003940682
0.003533934
0.003068435
0.002537357
0.001930855
0.001253946
0.0005583611
6.590806e-05
3.908736e-05
0.0004005341
0.0007868196
0.001111884
0.001437155
0.001770422
0.002104931
0.002433357
0.002749964
0.003051276
0.003335894
0.003603736
0.003855633
0.004092966
0.004317519
0.004532241
0.004738683
0.004938178
0.005131409
0.005318325
0.005499089
0.005673648
0.005841693
0.006002662
0.006155799
0.006300189
0.006434835
0.006556249
0.00666853
0.006767953
0.006853576
0.006924643
0.006980796
0.007021658
0.007046512
0.007054758
0.00704594
0.007019667
0.006975543
0.006913136
0.00683197
0.006731513
0.006611186
0.006470324
0.00630833
0.006124324
0.005916695
0.005683484
0.005422996
0.0051338
0.004811502
0.004461356
0.004065754
0.003657249
0.003189097
0.002650318
0.00202931
0.00132433
0.0005915365
6.604032e-05
4.030215e-05
0.0003877549
0.000795669
0.00114176
0.001474118
0.001807628
0.002139948
0.002465994
0.002781297
0.003082982
0.003369806
0.003641878
0.003900139
0.004146007
0.004380947
0.00460711
0.004826099
0.005039711
0.005248846
0.005453947
0.00565481
0.005850883
0.006041346
0.00622484
0.0063999
0.006565075
0.006718923
0.0068589
0.006986121
0.007098606
0.007196291
0.007277965
0.007342725
0.007389713
0.007418261
0.007427814
0.007417907
0.007388118
0.00733804
0.00726725
0.007175294
0.007061686
0.006925929
0.006767576
0.006585939
0.006380053
0.006148749
0.005891057
0.005605986
0.00529195
0.00477488
0.004297479
0.003941644
0.003644994
0.003240568
0.002689017
0.002055924
0.001344865
0.0006078261
6.568915e-05
4.172613e-05
0.0003714153
0.0007926927
0.00115485
0.001492252
0.00182516
0.002155348
0.002479147
0.002792916
0.003094466
0.003383152
0.003659332
0.003924078
0.004178943
0.004425684
0.004666055
0.004901518
0.005133205
0.00536109
0.005584834
0.00580358
0.0060159
0.006220896
0.006420149
0.006611695
0.006793703
0.006964435
0.007121872
0.007265485
0.007393021
0.007502392
0.007592917
0.007663999
0.007714927
0.00774505
0.007753864
0.007740953
0.007705954
0.007648509
0.007568238
0.007464693
0.00733731
0.007185648
0.007009997
0.0068097
0.006583996
0.006332226
0.006052762
0.005668222
0.005085089
0.004582747
0.00419706
0.003898818
0.00363645
0.003291262
0.002739473
0.002102273
0.001379157
0.0006255157
6.5828e-05
4.295223e-05
0.0003554129
0.0007804701
0.001157629
0.001501035
0.00183262
0.002158024
0.002476832
0.002787498
0.003088605
0.003379416
0.003660108
0.003931737
0.004195896
0.004454197
0.004707961
0.004957231
0.005200458
0.005440993
0.00567909
0.005914548
0.006146931
0.006374941
0.006594647
0.006804875
0.007003953
0.007190067
0.007361286
0.007516071
0.007652676
0.00776963
0.007865745
0.007940052
0.007991851
0.008020734
0.008026343
0.008008361
0.007966505
0.00790053
0.007810218
0.007695391
0.007555941
0.0073915
0.007200804
0.006983557
0.006739595
0.006468875
0.006054445
0.005463867
0.004928791
0.004488637
0.004132297
0.003843985
0.003598721
0.003309804
0.002762145
0.002118109
0.001390752
0.0006339863
6.558717e-05
4.402976e-05
0.0003423898
0.0007678574
0.001155383
0.001503411
0.001833548
0.002154946
0.002469579
0.002776791
0.003075809
0.003366486
0.003649511
0.003925841
0.004196372
0.004461701
0.004722191
0.004934753
0.005139637
0.005363255
0.00562296
0.005929374
0.006270427
0.00652029
0.00675659
0.006982263
0.007195003
0.007392872
0.007573987
0.007736632
0.00787924
0.008000508
0.008099382
0.00817508
0.008226958
0.008254412
0.008257003
0.008234397
0.008186331
0.008112582
0.008012946
0.007887219
0.007735186
0.007556595
0.007351351
0.007119346
0.006860448
0.006443343
0.005887421
0.00534245
0.004849334
0.004431949
0.00408798
0.003813596
0.003581674
0.003309421
0.002782977
0.002137731
0.001406065
0.0006424201
6.566574e-05
4.479659e-05
0.0003299534
0.0007517785
0.001146639
0.001498957
0.001828695
0.002146807
0.002457055
0.002760236
0.003056541
0.003346469
0.003630679
0.003909981
0.004185162
0.004452763
0.004653343
0.004822509
0.004981963
0.005152133
0.005352773
0.005598822
0.005894858
0.006254595
0.006684978
0.007127337
0.007350147
0.007557276
0.007746351
0.007915922
0.00806378
0.008188913
0.008290218
0.008366808
0.008418003
0.008443268
0.008442202
0.008414527
0.00836005
0.008278634
0.008170186
0.008034636
0.007871935
0.007682045
0.007464947
0.007220636
0.006828144
0.006263376
0.005717321
0.005223091
0.00478122
0.004391925
0.004057842
0.003781566
0.003549202
0.003289118
0.002793779
0.002146722
0.001412148
0.0006462004
6.555094e-05
4.524114e-05
0.0003190164
0.0007343845
0.001133679
0.00148947
0.001818906
0.002133958
0.002440066
0.002739439
0.003033132
0.003321878
0.003606446
0.003887707
0.004166362
0.004442218
0.00465148
0.004802878
0.004926544
0.005051831
0.005205401
0.005406154
0.005662034
0.005978067
0.00635985
0.006802986
0.007277825
0.007692048
0.00788711
0.008061838
0.008213402
0.008340994
0.008443483
0.008519972
0.008569798
0.008592456
0.008587581
0.008554959
0.008494476
0.008406096
0.00828984
0.008145772
0.007973988
0.007774622
0.00754784
0.007214991
0.006699723
0.006153834
0.005625382
0.005142769
0.004722405
0.004355784
0.004034811
0.003762307
0.00353596
0.003284638
0.002803561
0.002154811
0.001418197
0.0006496703
6.555664e-05
4.558573e-05
0.0003097599
0.0007174184
0.001117982
0.001476308
0.001805668
0.00211821
0.002420636
0.002716321
0.003007101
0.003294214
0.003578693
0.003861388
0.004142871
0.004423142
0.004697046
0.00484072
0.004932927
0.005014031
0.005119764
0.005277244
0.005500955
0.005796502
0.006162544
0.006585089
0.007041437
0.007502733
0.007919213
0.008176928
0.008331213
0.008460416
0.008563409
0.008639309
0.00868748
0.008707455
0.008698916
0.008661721
0.008595842
0.008501346
0.008378373
0.008227117
0.008047819
0.007840758
0.007582477
0.007124077
0.006598631
0.006066759
0.005565037
0.005107807
0.004691158
0.004318636
0.004000579
0.003740281
0.003522472
0.003276648
0.002807284
0.002158463
0.001420643
0.0006505202
6.552403e-05
4.57648e-05
0.000301575
0.0007006516
0.001100769
0.001460421
0.001789666
0.002100178
0.002399458
0.002691825
0.002979863
0.00326532
0.00354952
0.003833467
0.004117738
0.004401762
0.004685276
0.004920828
0.005006448
0.005045324
0.005103153
0.005220863
0.005415914
0.005692627
0.006047935
0.006470324
0.006935796
0.007406743
0.007841311
0.008198317
0.008420972
0.00855152
0.008654792
0.008729962
0.008776463
0.00879389
0.008781996
0.008740719
0.008670133
0.008570414
0.008441825
0.008284699
0.008099418
0.007886412
0.007524504
0.007051384
0.006528391
0.006004834
0.005514481
0.005069522
0.00466951
0.004311356
0.003994662
0.003727518
0.003504925
0.003264699
0.002812065
0.00216257
0.001423684
0.0006523847
6.549577e-05
4.596126e-05
0.0002954623
0.0006860494
0.001083434
0.001443197
0.001772002
0.002080743
0.002377336
0.00266683
0.002952479
0.003236539
0.003520662
0.003806002
0.00409314
0.004382662
0.004671756
0.00495978
0.005104027
0.005113997
0.005122391
0.00519785
0.005365506
0.005627871
0.005977739
0.006401066
0.006874256
0.007361396
0.007816506
0.00819624
0.008471917
0.008619821
0.008723175
0.008797519
0.008842366
0.008857401
0.008842458
0.008797572
0.008722917
0.008618788
0.008485573
0.008323738
0.00813381
0.00788234
0.007486608
0.007001247
0.006476923
0.005959852
0.005478237
0.005040193
0.004643213
0.004286327
0.003974402
0.003714375
0.003498891
0.003262405
0.002813051
0.002163457
0.001424362
0.000652509
6.547476e-05
4.606128e-05
0.00029049
0.0006725545
0.001066035
0.001424996
0.001753138
0.002060387
0.002354823
0.002642051
0.002925912
0.003209133
0.003493675
0.003780832
0.004071175
0.004364436
0.004660816
0.004955514
0.005217663
0.0052151
0.005175166
0.00520606
0.005345869
0.00559578
0.005944393
0.006374273
0.006859596
0.00736246
0.007834999
0.008229474
0.008513826
0.008671252
0.008774337
0.008847641
0.00889074
0.008903435
0.008885674
0.008837559
0.008759371
0.008651518
0.008514508
0.008348928
0.008155427
0.007876497
0.007468037
0.006974615
0.006447947
0.005932828
0.005455652
0.005023
0.004631243
0.004277927
0.003966414
0.003704392
0.003487199
0.003253856
0.002814255
0.002164469
0.00142485
0.0006526535
6.546634e-05
4.603539e-05
0.0002868331
0.0006613216
0.001049873
0.001406976
0.001734039
0.00203993
0.002332684
0.002618298
0.002901096
0.003184216
0.003469895
0.003759552
0.004053739
0.004352069
0.004653154
0.004955885
0.005254319
0.00532339
0.005249116
0.005232938
0.00534307
0.005581633
0.005931665
0.00637093
0.006870535
0.007389945
0.007877993
0.008283717
0.008571283
0.008711398
0.008813626
0.008885483
0.008926619
0.008936916
0.008916418
0.008865318
0.008783995
0.008672954
0.008532807
0.008364244
0.008168008
0.007879011
0.007460429
0.006958739
0.006428081
0.005912842
0.005437788
0.005007903
0.004618709
0.004267774
0.003958925
0.003699954
0.003485666
0.003254246
0.002814838
0.002164775
0.001424982
0.0006527092
6.545412e-05
4.612494e-05
0.0002851374
0.0006518783
0.001034733
0.001389236
0.001714929
0.002019655
0.002311284
0.002596067
0.002878714
0.003162706
0.003450503
0.003743594
0.004042449
0.004346456
0.004653886
0.004961976
0.00526835
0.005431445
0.005334355
0.005275047
0.005356408
0.005584983
0.005938938
0.00639053
0.006906686
0.007443459
0.007944972
0.008351925
0.008613575
0.008744557
0.008845294
0.008915245
0.008954123
0.008961886
0.008938657
0.008884719
0.008800535
0.008686699
0.008543909
0.008372932
0.00817458
0.007888431
0.007462929
0.006953327
0.00641747
0.00590029
0.005425704
0.004997607
0.004610559
0.004261368
0.0039535
0.003694904
0.003481088
0.00325128
0.002815109
0.00216487
0.001424795
0.0006524294
6.545087e-05
4.626242e-05
0.0002839936
0.0006443439
0.001021325
0.001372715
0.001696793
0.002000533
0.002291573
0.00257633
0.002859805
0.003145742
0.003436748
0.003734299
0.004038699
0.004349011
0.004663124
0.004977903
0.005289438
0.005532737
0.005416781
0.005321854
0.005380384
0.0056029
0.005963737
0.006430072
0.006964029
0.007517205
0.008028111
0.008428849
0.008644835
0.008774002
0.008872609
0.008940172
0.008976462
0.008981502
0.008955488
0.008898779
0.008811913
0.008695555
0.008550468
0.008377481
0.008177449
0.007901538
0.00747137
0.006954125
0.006412445
0.00589229
0.005417056
0.004989751
0.004604142
0.004256527
0.003950197
0.003692991
0.003480414
0.003251529
0.002815652
0.002165053
0.001424708
0.0006522944
6.545332e-05
4.633748e-05
0.0002839973
0.0006380073
0.001009054
0.001357089
0.001679504
0.001982569
0.002273698
0.002559392
0.002844847
0.00313397
0.003429413
0.003732544
0.004043399
0.004360668
0.004681834
0.005003368
0.00532079
0.005608717
0.005479081
0.005361152
0.0054068
0.005629867
0.006002195
0.00648654
0.007039583
0.00760679
0.008121102
0.008509339
0.008675476
0.00880207
0.008897935
0.008962638
0.008996006
0.008998117
0.00896923
0.008909766
0.008820323
0.008701624
0.008554481
0.008379759
0.008178343
0.00791665
0.007483822
0.006959729
0.006411978
0.005888095
0.00541145
0.004984344
0.004599683
0.004253052
0.003947417
0.003690948
0.003479483
0.003251644
0.002816064
0.002165078
0.001424405
0.0006519886
6.54563e-05
4.638579e-05
0.0002849609
0.0006337441
0.0009988735
0.001343478
0.001664341
0.001967147
0.0022591
0.002546741
0.002835387
0.003129006
0.00343017
0.003739999
0.004058107
0.004382713
0.004710805
0.005038436
0.005361419
0.005674761
0.005532145
0.005398638
0.0054398
0.00566994
0.006058104
0.006563173
0.00713692
0.007716953
0.008222021
0.008553174
0.008706968
0.0088303
0.008922866
0.00898428
0.009014418
0.009013401
0.00898154
0.00891931
0.008827352
0.008706431
0.00855739
0.008381118
0.008178512
0.007931977
0.007497952
0.006968105
0.006414347
0.005886325
0.005407797
0.004980421
0.00459634
0.004250823
0.003946686
0.003691179
0.003480204
0.003253101
0.002816942
0.002165407
0.001424299
0.0006517476
6.546847e-05
4.656195e-05
0.000286232
0.0006303955
0.0009899543
0.001331105
0.001650591
0.001953662
0.002247315
0.002538061
0.002831225
0.00313071
0.003438887
0.003756506
0.004082694
0.004415132
0.004750323
0.005083737
0.005410815
0.00571443
0.00555662
0.005419313
0.005468058
0.00571499
0.006125993
0.006655729
0.007250262
0.007838497
0.00832722
0.008590165
0.008740066
0.008859577
0.008948388
0.009006159
0.009032809
0.009028498
0.008993577
0.008928562
0.008834128
0.008711064
0.008560233
0.008382531
0.008178844
0.00794756
0.007513933
0.00697982
0.006420276
0.005887943
0.005407477
0.004979725
0.004596512
0.004251534
0.003944785
0.003689252
0.003482418
0.003256827
0.002817898
0.002165697
0.001424128
0.0006514949
6.548152e-05
4.673608e-05
0.0002880285
0.0006282299
0.0009828205
0.00132115
0.001639873
0.001943998
0.002240386
0.002535493
0.002834558
0.003141284
0.003457662
0.003783871
0.004118433
0.004458453
0.00479996
0.005138494
0.005468814
0.005736597
0.005568584
0.005440871
0.005507836
0.005777013
0.006213468
0.00676895
0.007382048
0.007973351
0.008438898
0.008629678
0.008775146
0.008890387
0.008975083
0.009028936
0.009051901
0.00904417
0.009006127
0.008938318
0.008841441
0.008716301
0.008563768
0.008384733
0.008180068
0.007950582
0.007528885
0.006992041
0.006426366
0.00588964
0.005407298
0.004979125
0.004594854
0.004246838
0.003943077
0.003692498
0.003485849
0.003259857
0.002819172
0.002166264
0.001424094
0.0006512082
6.549519e-05
4.703517e-05
0.0002899172
0.0006264597
0.0009767306
0.001312609
0.001631102
0.001937114
0.002237372
0.002538193
0.002844617
0.003159986
0.003485709
0.003821333
0.004164804
0.004512758
0.004859997
0.005202443
0.005534975
0.005763659
0.005577431
0.005454899
0.005545995
0.005852724
0.006331457
0.006923405
0.007556831
0.008130818
0.008501975
0.008671575
0.00881219
0.008922882
0.009003234
0.009052989
0.009072142
0.009060913
0.009019712
0.008949111
0.008849823
0.008722657
0.00856848
0.008388171
0.008182576
0.007952474
0.007543374
0.007003901
0.006432472
0.005892385
0.005408495
0.004976759
0.004589002
0.004246382
0.003947858
0.003697251
0.003489679
0.003263111
0.002820616
0.002166976
0.001424157
0.0006509846
6.551567e-05
4.719438e-05
0.0002923489
0.0006261945
0.0009726115
0.001306672
0.001625848
0.001934869
0.002240285
0.002548213
0.002863331
0.003188367
0.00352404
0.003869249
0.004221297
0.00457532
0.0049281
0.005273699
0.005607177
0.005750263
0.005555204
0.005467983
0.005601647
0.005943247
0.00645612
0.007078022
0.00772557
0.008276981
0.008550598
0.008715411
0.008851166
0.008957158
0.009033011
0.009078551
0.009093814
0.009079047
0.009034683
0.00896131
0.008859646
0.0087305
0.008574726
0.008393182
0.008186684
0.007955971
0.007558179
0.007016224
0.006439558
0.005894007
0.005404599
0.004973818
0.004593286
0.004252276
0.003952185
0.003699995
0.003492224
0.00326575
0.002822653
0.002168219
0.001424593
0.000650902
6.553621e-05
4.755286e-05
0.0002949285
0.0006260898
0.0009696401
0.001302805
0.001623495
0.001936557
0.002248451
0.002564944
0.002890054
0.003225761
0.003572088
0.003927234
0.004286655
0.00464766
0.005004426
0.005351775
0.005684835
0.005708061
0.005521807
0.005479211
0.005661237
0.006044009
0.006582095
0.007224832
0.00787768
0.008404653
0.008602123
0.00876138
0.008891905
0.008993076
0.009064418
0.009105706
0.009117051
0.009098742
0.009051239
0.008975128
0.008871132
0.008740048
0.008582714
0.008399959
0.008192565
0.007961226
0.007571556
0.007026792
0.006443804
0.005892119
0.005402478
0.00497654
0.004598192
0.004256834
0.003955528
0.003703168
0.003495614
0.00326941
0.002824802
0.00216943
0.001424906
0.0006506905
6.555764e-05
4.775292e-05
0.0002974035
0.0006263205
0.000967516
0.001300485
0.00162404
0.001942936
0.002263136
0.00258967
0.002925852
0.003273031
0.003630457
0.003994066
0.004362023
0.004728485
0.005088253
0.005436249
0.005767849
0.005657022
0.005486102
0.005496296
0.005727049
0.006155259
0.006734196
0.007398817
0.008039519
0.008474171
0.00865559
0.00880936
0.008934608
0.009030735
0.009097364
0.009134394
0.009141876
0.009120087
0.009069482
0.008990687
0.008884405
0.008751424
0.008592558
0.008408605
0.008200306
0.00796831
0.00758477
0.007035125
0.006444919
0.005891705
0.0054056
0.004981481
0.004602735
0.004261293
0.003959565
0.003706634
0.003498939
0.003272825
0.002827431
0.002171155
0.001425657
0.0006506651
6.558677e-05
4.814058e-05
0.000300235
0.0006243764
0.0009681301
0.001302239
0.00162998
0.001955799
0.00228518
0.002622647
0.002970906
0.003330148
0.003696925
0.004070533
0.004445255
0.004815908
0.00517724
0.005524308
0.005790943
0.00559839
0.005457852
0.005529313
0.005818846
0.006296775
0.006914999
0.007593255
0.008204462
0.008534601
0.00871041
0.008858718
0.008978737
0.009069921
0.009131946
0.009164711
0.009168326
0.009143093
0.009089473
0.00900804
0.008899521
0.008764681
0.008604304
0.008419154
0.008209933
0.007977241
0.007594864
0.007038743
0.006446329
0.005894619
0.005410203
0.004986304
0.004608062
0.004266241
0.003963777
0.003710293
0.003502511
0.003276548
0.002830272
0.002172973
0.001426389
0.0006505849
6.561303e-05
4.859477e-05
0.0003034565
0.0006183553
0.0009692963
0.00130526
0.001638405
0.001972658
0.002313135
0.00266358
0.003024667
0.003394067
0.003772574
0.004154545
0.004534936
0.004908396
0.005269723
0.005614177
0.005721731
0.005526538
0.005441136
0.005571301
0.005919216
0.00644619
0.007098549
0.007788013
0.008365495
0.008596189
0.008766407
0.008909301
0.009024149
0.009110455
0.00916794
0.009196531
0.009196364
0.009167753
0.009111163
0.009027191
0.008916497
0.008779821
0.008617954
0.008431602
0.008221432
0.007987995
0.007602964
0.007044189
0.006449771
0.005898295
0.00541434
0.004991621
0.004613641
0.004271399
0.003968167
0.003714051
0.00350611
0.00328032
0.002833478
0.002175127
0.001427435
0.0006507314
6.565048e-05
4.836691e-05
0.0003061785
0.0006132715
0.000972378
0.001311823
0.001651513
0.001996177
0.002348828
0.002710655
0.003083637
0.003467092
0.003855888
0.004245379
0.004630298
0.00500532
0.00536546
0.005706322
0.005635216
0.00544954
0.005430486
0.005633363
0.006041544
0.006616976
0.007298756
0.007976713
0.008467886
0.008658791
0.008823431
0.008960959
0.009070706
0.009152221
0.009205255
0.009229766
0.009225908
0.009194004
0.00913452
0.009048047
0.008935259
0.008796838
0.008633461
0.0084459
0.008234729
0.008000466
0.007612765
0.007049289
0.006452605
0.005901186
0.005418992
0.004997482
0.00461978
0.004276972
0.003972806
0.003717926
0.003509741
0.003284103
0.0028366
0.002177428
0.001428547
0.0006509041
6.567603e-05
4.978362e-05
0.0003064302
0.0006094607
0.0009770539
0.001320821
0.001669792
0.00202474
0.002389154
0.002766022
0.003153184
0.003547998
0.003945873
0.004341527
0.00472948
0.005104472
0.005461748
0.005724047
0.005531602
0.005389071
0.00544155
0.005713636
0.006179858
0.006800263
0.007504553
0.0081594
0.008536793
0.008721974
0.008881161
0.009013444
0.009118215
0.009195062
0.009243769
0.009264315
0.009256872
0.009221769
0.009159471
0.009070555
0.008955676
0.008815526
0.008650749
0.008461927
0.008249738
0.008014591
0.007620116
0.007051802
0.006454409
0.005904514
0.005424172
0.005003881
0.004626334
0.004282796
0.003977541
0.003721782
0.003513305
0.003287865
0.002840094
0.002179632
0.001429903
0.0006511849
6.571159e-05
5.123533e-05
0.000309314
0.0006068807
0.0009833971
0.001332534
0.001689759
0.002057584
0.002437541
0.002828946
0.003229526
0.003635319
0.004041203
0.0044416
0.004830996
0.005204297
0.005557033
0.005625167
0.005429427
0.005346051
0.005475139
0.005814702
0.006336469
0.006996507
0.007713266
0.008335425
0.008605752
0.008785481
0.00893937
0.009066568
0.009166516
0.009238842
0.009283359
0.009300067
0.00928915
0.009250945
0.009185907
0.009094603
0.008977666
0.008835756
0.008669525
0.008479575
0.008266324
0.008030259
0.007626773
0.007054021
0.00645617
0.005908088
0.005429905
0.005010893
0.004633388
0.004288943
0.003982429
0.003725667
0.003516842
0.003291614
0.002843497
0.002182002
0.001431204
0.0006516175
6.573429e-05
5.191912e-05
0.0003126211
0.0006050283
0.0009914042
0.001347414
0.001715789
0.002097486
0.002492376
0.002898433
0.003311931
0.003727896
0.004140697
0.004544615
0.004934264
0.005304854
0.005652318
0.005505775
0.005331716
0.005327378
0.005534395
0.005938474
0.006511527
0.007204156
0.007917188
0.008475205
0.00867471
0.008849163
0.008997924
0.009120209
0.0092155
0.009283463
0.009323937
0.009336941
0.009322672
0.009281466
0.009213776
0.009120153
0.009001208
0.008857574
0.008689866
0.008498648
0.008284397
0.008047401
0.00763354
0.00705577
0.006457813
0.005912021
0.005436229
0.00501846
0.00464083
0.004295267
0.003987306
0.003729402
0.003520161
0.003295192
0.002846863
0.002184392
0.001432564
0.0006520365
6.576292e-05
5.201339e-05
0.0003154908
0.0006039521
0.001001125
0.00136545
0.001746209
0.002142766
0.002553156
0.002973693
0.003399333
0.003824253
0.004242421
0.004648048
0.005035888
0.005401371
0.005566565
0.005378269
0.005261695
0.005335113
0.00561294
0.006076984
0.006697567
0.007417008
0.008110037
0.008549418
0.00874363
0.008912949
0.009056743
0.009174283
0.009265086
0.009328847
0.009365429
0.009374867
0.009357367
0.009313266
0.009243008
0.009147128
0.009026215
0.008880867
0.008711663
0.008519122
0.008303674
0.008065639
0.007639324
0.007056578
0.006459175
0.005916225
0.005443073
0.00502653
0.004648627
0.004301765
0.003992195
0.003733029
0.003523314
0.003298654
0.002850192
0.002186905
0.001433997
0.00065263
6.578013e-05
5.223346e-05
0.0003181699
0.0006037715
0.001008093
0.00138659
0.001780787
0.002192979
0.002619101
0.003053739
0.003490646
0.003923326
0.004345521
0.004751536
0.005136417
0.005495998
0.005437541
0.00526041
0.005215805
0.005369454
0.005715144
0.006233948
0.006895002
0.007630192
0.008293562
0.008622958
0.00881217
0.008976609
0.009115662
0.009228663
0.009315169
0.009374904
0.009407753
0.009413767
0.00939316
0.009346269
0.009273528
0.009175457
0.009052617
0.008905579
0.008734882
0.008541002
0.008324327
0.008085129
0.007644416
0.007056686
0.006460406
0.005920762
0.005450418
0.005035035
0.004656679
0.004308323
0.003996983
0.00373643
0.003526153
0.003301859
0.002854009
0.002189729
0.001435683
0.0006532531
6.580058e-05
5.250885e-05
0.000320853
0.0006042147
0.001008629
0.001411426
0.001819687
0.002247826
0.002689459
0.00313744
0.003584431
0.004023413
0.004448021
0.004852712
0.00523279
0.00545975
0.005296529
0.005166944
0.005202748
0.005429188
0.00583553
0.006403091
0.007097352
0.007838051
0.008464198
0.00869584
0.008880291
0.009040084
0.009174614
0.009283282
0.009365681
0.009421563
0.009450836
0.009453565
0.009429971
0.00938039
0.009305247
0.009205045
0.009080319
0.008931609
0.008759417
0.008564179
0.008346239
0.008105825
0.007649005
0.007056303
0.006461666
0.005925725
0.005458305
0.00504398
0.004664977
0.004314934
0.004001673
0.003739636
0.003528777
0.003304925
0.002857674
0.002192386
0.001437255
0.0006538499
6.58178e-05
5.280033e-05
0.0003235836
0.0006052557
0.001009737
0.001439352
0.001862305
0.002306516
0.002763293
0.003223803
0.003679733
0.004123669
0.004549237
0.004951088
0.005324784
0.005323984
0.005161227
0.005099463
0.005213999
0.005508123
0.005970445
0.00658347
0.007305685
0.008033042
0.008564662
0.008768222
0.008948053
0.00910338
0.009233574
0.009338095
0.009416563
0.009468756
0.009494602
0.009494178
0.009467711
0.009415535
0.009338064
0.009235783
0.009109204
0.008958835
0.008785143
0.008588527
0.008369289
0.00812762
0.007653155
0.007055553
0.006463033
0.005931112
0.005466669
0.005053273
0.004673427
0.004321518
0.004006206
0.00374261
0.003531142
0.003307769
0.002861341
0.002195119
0.001438906
0.0006544536
6.583796e-05
5.308987e-05
0.0003264248
0.0006069546
0.001011873
0.001470654
0.001908795
0.00236889
0.002839976
0.003311724
0.003775045
0.004222251
0.004646981
0.005044016
0.00530185
0.00517597
0.005053204
0.00506791
0.00525384
0.005607584
0.006119473
0.006771886
0.007514254
0.008218382
0.008640771
0.008839938