/*--------------------------------*- C++ -*----------------------------------*\
| =========                 |                                                 |
| \\      /  F ield         | OpenFOAM: The Open Source CFD Toolbox           |
|  \\    /   O peration     | Version:  2312                                  |
|   \\  /    A nd           | Website:  www.openfoam.com                      |
|    \\/     M anipulation  |                                                 |
\*---------------------------------------------------------------------------*/
FoamFile
{
    version     2.0;
    format      ascii;
    arch        "LSB;label=32;scalar=64";
    class       volScalarField;
    location    "3000";
    object      omega;
}
// * * * * * * * * * * * * * * * * * * * * * * * * * * * * * * * * * * * * * //

dimensions      [0 0 -1 0 0 0 0];

internalField   nonuniform List<scalar> 
12000
(
40.96265
20.18373
21.88516
23.46677
24.63591
25.64517
26.48525
27.22154
27.86978
28.44959
28.9606
29.41145
29.81412
30.17766
30.50699
30.79426
31.04679
31.26892
31.47113
31.64625
31.79597
31.91917
32.02509
32.11076
32.1787
32.22435
32.25461
32.26923
32.27191
32.25923
32.23394
32.19401
32.14819
32.09351
32.03195
31.95788
31.8484
31.65393
31.43589
31.29893
31.2374
31.04451
30.6234
30.23735
30.11079
29.93469
29.37966
28.80671
28.48387
28.11077
27.45678
26.68634
26.04701
25.30791
24.38406
23.27035
22.12991
20.60302
19.7095
43.2712
67.79153
23.27313
22.75864
23.18962
23.21851
22.98063
22.56837
22.02315
21.44181
20.88551
20.28478
19.71695
19.18089
18.69775
18.19843
17.71041
17.2882
16.9457
16.60797
16.24686
15.90446
15.62731
15.38519
15.13543
14.88055
14.65711
14.48762
14.3484
14.19697
14.02762
13.9015
13.85476
13.83264
13.7807
13.73784
13.73014
13.77989
13.91471
14.08599
14.17876
14.19291
14.34224
14.78507
15.23094
15.42553
15.64094
16.36765
17.21266
17.82883
18.45566
19.64521
21.11532
22.52056
24.30158
26.46397
29.54112
33.87151
42.49663
57.4309
81.0056
73.05397
22.63287
21.76487
20.83691
19.84047
18.85096
17.75164
16.8595
15.94433
15.09205
14.3964
13.78552
13.26961
12.79268
12.39215
12.04231
11.74389
11.47826
11.23596
11.01987
10.83457
10.6752
10.53245
10.40433
10.29388
10.20241
10.12647
10.06057
10.00207
9.955175
9.925906
9.910985
9.898311
9.896971
9.912199
9.936914
9.98292
10.04567
10.11306
10.18077
10.26748
10.39523
10.55051
10.7087
10.87852
11.09536
11.35686
11.65065
11.99571
12.40705
12.91211
13.55302
14.40045
15.45799
16.8667
18.97837
22.38037
28.75031
47.70213
89.63575
76.07417
21.90047
19.45059
18.36154
17.12443
15.96372
14.88337
13.90552
13.06894
12.31231
11.65194
11.09266
10.61596
10.2025
9.85574
9.561852
9.306108
9.084805
8.893425
8.725114
8.578577
8.451214
8.341088
8.246329
8.165556
8.097671
8.041526
7.99621
7.961342
7.937299
7.922677
7.916976
7.921082
7.946654
7.981989
8.031526
8.095708
8.177788
8.27897
8.401133
8.544412
8.712673
8.910337
9.142406
9.407683
9.711803
10.05882
10.45413
10.90712
11.43065
12.04949
12.79392
13.65968
14.62495
15.90884
17.90735
21.13358
27.21308
42.73624
94.56535
79.04822
20.96699
17.76738
16.577
15.28517
14.08677
12.99963
12.02415
11.18649
10.50457
9.935675
9.437444
8.995488
8.619547
8.301526
8.029618
7.795724
7.593881
7.417938
7.260492
7.122399
7.004069
6.903331
6.816516
6.742191
6.679825
6.628864
6.58908
6.560879
6.539851
6.53268
6.53785
6.555187
6.58634
6.632128
6.693315
6.770977
6.867427
6.984138
7.122287
7.284142
7.471629
7.682889
7.923431
8.199985
8.512609
8.863526
9.257049
9.683894
10.17645
10.73941
11.34047
12.02112
12.90845
14.08678
15.73699
18.3863
23.71637
39.04437
98.07963
81.32938
20.52319
16.44404
15.16257
13.90931
12.75101
11.71429
10.80618
10.03008
9.376787
8.819246
8.350123
7.950424
7.593437
7.279422
7.008906
6.774261
6.569709
6.389742
6.232096
6.094819
5.975859
5.873069
5.784954
5.71067
5.649674
5.601596
5.566262
5.543673
5.536235
5.538527
5.555781
5.587951
5.635912
5.701075
5.78471
5.885127
6.005198
6.149683
6.318482
6.51324
6.7364
6.990433
7.275243
7.596428
7.957272
8.361334
8.81022
9.315489
9.868754
10.45501
11.10729
11.85862
12.76279
13.91491
15.53963
18.13645
23.12461
36.79962
100.347
82.41439
20.15195
15.47292
14.07976
12.88334
11.79007
10.81541
9.962359
9.22702
8.598347
8.059491
7.59728
7.20182
6.864569
6.564277
6.291974
6.051344
5.839438
5.653889
5.491675
5.350447
5.228307
5.123719
5.03555
4.963011
4.905559
4.862846
4.834706
4.823907
4.824349
4.840506
4.872931
4.921066
4.984569
5.066089
5.167477
5.2891
5.431529
5.597081
5.787663
6.005127
6.251505
6.528924
6.839624
7.185985
7.570569
7.996333
8.469664
8.98322
9.531466
10.1281
10.78446
11.51897
12.36161
13.41201
14.87135
17.22614
21.91311
35.2468
102.049
83.84663
20.2875
14.76309
13.24772
12.11309
11.08992
10.1735
9.367928
8.669411
8.066912
7.546831
7.094791
6.699942
6.355662
6.055634
5.790456
5.551584
5.336701
5.145276
4.977461
4.831826
4.706954
4.601504
4.514381
4.444728
4.391922
4.355539
4.335336
4.331811
4.343376
4.371277
4.415867
4.477223
4.555763
4.652585
4.76884
4.905691
5.064454
5.24675
5.454417
5.68951
5.954314
6.251333
6.583236
6.952896
7.364959
7.822361
8.320294
8.858817
9.441306
10.06865
10.74657
11.48482
12.322
13.3676
14.81255
17.1262
21.60651
34.06576
103.0456
86.44036
20.72616
14.34763
12.63628
11.52494
10.56547
9.711251
8.955492
8.291663
7.71078
7.202804
6.756887
6.36415
6.015907
5.708171
5.437119
5.198028
4.985981
4.79748
4.630683
4.485338
4.360867
4.25662
4.171862
4.105835
4.057823
4.027266
4.015282
4.0185
4.038543
4.07542
4.129487
4.201133
4.290538
4.398256
4.525316
4.672893
4.842324
5.035175
5.253263
5.498676
5.773779
6.081305
6.424041
6.805984
7.228921
7.693192
8.201999
8.758466
9.363966
10.0208
10.71613
11.45306
12.26331
13.22689
14.57939
16.77646
21.13207
33.38186
103.8655
88.62201
21.13919
14.04183
12.16274
11.06999
10.1655
9.359663
8.642365
8.009553
7.453425
6.963195
6.529149
6.143635
5.800084
5.493819
5.221066
4.97887
4.765601
4.578505
4.414745
4.272857
4.151895
4.050876
3.969227
3.906593
3.862544
3.836582
3.828907
3.837793
3.863768
3.906782
3.967326
4.045636
4.141719
4.256187
4.389934
4.54406
4.719894
4.919009
5.143258
5.394793
5.676112
5.989974
6.339905
6.728536
7.158967
7.634089
8.157051
8.729141
9.351042
10.01887
10.72998
11.4704
12.26499
13.2201
14.56209
16.73988
20.98049
32.75306
104.2796
91.36865
21.82494
13.93377
11.83511
10.71815
9.848889
9.092256
8.419205
7.8186
7.283391
6.807271
6.383716
6.006512
5.669424
5.367831
5.098474
4.858375
4.645383
4.458282
4.296035
4.156756
4.039181
3.942331
3.865089
3.80653
3.766248
3.743892
3.739344
3.751832
3.781386
3.827928
3.891918
3.97359
4.072957
4.190608
4.327389
4.484368
4.662864
4.864472
5.091097
5.344992
5.628831
5.945572
6.297845
6.689118
7.122866
7.603211
8.134402
8.719096
9.361111
10.0536
10.76832
11.49668
12.27401
13.20293
14.49314
16.60525
20.78771
32.47132
104.6745
92.82094
22.47279
13.94586
11.61181
10.45445
9.61211
8.893891
8.253737
7.681501
7.169516
6.71156
6.300694
5.931369
5.599867
5.303033
5.038002
4.80254
4.594373
4.411509
4.252279
4.115465
3.999955
3.905045
3.830058
3.774224
3.736689
3.716928
3.714564
3.729184
3.760622
3.808819
3.874076
3.95689
4.057466
4.176143
4.313723
4.471262
4.650075
4.851763
5.078222
5.331653
5.61453
5.929855
6.281557
6.673522
7.109779
7.594409
8.132363
8.733768
9.394979
10.09285
10.80617
11.53153
12.30186
13.2152
14.49063
16.58871
20.7096
32.13011
104.8538
94.52579
23.0466
13.99276
11.4624
10.25419
9.418198
8.726973
8.119999
7.577109
7.089731
6.649937
6.253073
5.895358
5.573553
5.285172
5.028635
4.799929
4.595243
4.41361
4.25504
4.118988
4.005262
3.912273
3.838712
3.784052
3.747727
3.729167
3.727902
3.743554
3.775904
3.824837
3.890406
3.972868
4.072578
4.190074
4.32616
4.481907
4.658658
4.858065
5.082125
5.333232
5.614221
5.928427
6.27955
6.671529
7.108548
7.59809
8.150524
8.766686
9.433902
10.13226
10.84311
11.56249
12.32323
13.22372
14.48077
16.54596
20.63384
32.01481
105.0176
93.56699
23.62987
14.09445
11.36848
10.09724
9.259384
8.590166
8.010559
7.492889
7.025374
6.602787
6.221084
5.876326
5.565573
5.286547
5.036714
4.813688
4.615767
4.440878
4.287344
4.154708
4.042305
3.949837
3.877116
3.823781
3.788563
3.770507
3.769227
3.784325
3.815944
3.863874
3.928208
4.009165
4.107199
4.222879
4.356944
4.510477
4.684844
4.881725
5.103154
5.351563
5.629843
5.941387
6.290144
6.680606
7.12048
7.62152
8.188579
8.813953
9.48323
10.17888
10.88563
11.60126
12.35704
13.24918
14.49252
16.54171
20.60402
31.87234
105.1245
93.04967
24.12579
14.23109
11.32025
9.979744
9.129487
8.47285
7.914135
7.418492
6.971817
6.567104
6.199693
5.86704
5.567023
5.299055
5.06035
4.847537
4.658102
4.490002
4.341789
4.212694
4.102353
4.010618
3.937472
3.882885
3.846576
3.82785
3.82587
3.839925
3.870303
3.916687
3.979157
4.057959
4.153678
4.266934
4.398411
4.549213
4.720729
4.914663
5.133086
5.378488
5.653846
5.962696
6.30919
6.699739
7.145016
7.653756
8.226209
8.855098
9.525675
10.21987
10.92278
11.63258
12.38015
13.26258
14.49474
16.53322
20.58199
31.80181
105.1898
92.78258
24.56393
14.37532
11.30283
9.890846
9.020933
8.369741
7.82664
7.349544
6.920953
6.532531
6.179734
5.859606
5.570893
5.312719
5.084711
4.883441
4.704679
4.545906
4.405292
4.281711
4.174717
4.084372
4.011051
3.955143
3.916772
3.895724
3.89155
3.903421
3.931631
3.975806
4.035946
4.112255
4.205367
4.315935
4.444612
4.592525
4.761084
4.952022
5.167448
5.409911
5.682486
5.988871
6.333903
6.726723
7.177754
7.691712
8.26721
8.896337
9.566223
10.26049
10.9628
11.66934
12.412
13.28888
14.51363
16.53976
20.57575
31.79288
105.2445
92.53562
24.95857
14.53547
11.30626
9.823217
8.927883
8.275619
7.742931
7.280752
6.867958
6.494603
6.155548
5.848006
5.570362
5.322725
5.104118
4.91341
4.746416
4.598755
4.467687
4.351492
4.24943
4.161599
4.088689
4.031594
3.991019
3.967248
3.960164
3.969218
3.994608
4.03602
4.093475
4.167084
4.257479
4.365321
4.491244
4.636381
4.802162
4.990345
5.20307
5.442937
5.71311
6.017437
6.36271
6.758575
7.213054
7.730095
8.307704
8.937399
9.605393
10.2952
10.99259
11.69528
12.43388
13.30485
14.52171
16.54012
20.56786
31.75024
105.2587
92.3466
25.24556
14.67361
11.31877
9.768259
8.844838
8.18678
7.660008
7.20917
6.809651
6.449761
6.123627
5.828228
5.562078
5.323648
5.115097
4.934468
4.778949
4.643282
4.523165
4.415902
4.320166
4.235939
4.164198
4.106372
4.063775
4.037247
4.027089
4.033082
4.055398
4.093825
4.148428
4.219287
4.306992
4.412223
4.535613
4.678282
4.841667
5.02754
5.238064
5.475876
5.744204
6.047539
6.393433
6.791171
7.247992
7.767177
8.346206
8.97648
9.644515
10.33386
11.02919
11.72742
12.46003
13.32552
14.53792
16.55173
20.57174
31.74719
105.2369
91.90668
25.50813
14.81412
11.33932
9.722521
8.768156
8.100239
7.575406
7.132638
6.744002
6.396014
6.081917
5.7983
5.543509
5.316823
5.116431
4.945192
4.800261
4.676594
4.56804
4.470702
4.382366
4.302683
4.232848
4.174852
4.130672
4.101733
4.088764
4.091894
4.111281
4.146875
4.198776
4.267111
4.352248
4.45503
4.576279
4.716895
4.878343
5.06242
5.271311
5.507678
5.77479
6.077585
6.423872
6.822604
7.28075
7.801166
8.380844
9.01074
9.677099
10.36362
11.05574
11.75102
12.4808
13.3428
14.55067
16.55977
20.57723
31.74648
105.2027
91.69177
25.67559
14.93191
11.3592
9.680948
8.694747
8.013993
7.487817
7.050252
6.670307
6.332709
6.029713
5.757374
5.513729
5.297817
5.109115
4.945958
4.810876
4.698152
4.601106
4.51418
4.433945
4.359497
4.292182
4.234571
4.189337
4.158507
4.143236
4.143978
4.160689
4.193884
4.243489
4.309617
4.392636
4.493407
4.612814
4.751782
4.911775
5.09459
5.30241
5.5379
5.804339
6.106796
6.453246
6.852664
7.311884
7.833443
8.413949
9.044033
9.709736
10.39458
11.08375
11.77484
12.49984
13.35766
14.5627
16.56997
20.58453
31.74458
105.1571
91.38527
25.82511
15.03668
11.37563
9.639519
8.621403
7.925983
7.396068
6.961426
6.588318
6.25977
5.967014
5.705493
5.472825
5.267891
5.089949
4.938441
4.811484
4.708883
4.62271
4.546
4.474041
4.405177
4.340804
4.284072
4.238353
4.206258
4.189336
4.188283
4.203041
4.234386
4.282159
4.346518
4.427864
4.52708
4.645092
4.782857
4.941846
5.123855
5.331063
5.56612
5.83229
6.134546
6.480944
6.88071
7.340633
7.862989
8.444001
9.073918
9.738536
10.42138
11.10791
11.79608
12.51816
13.37317
14.57551
16.58039
20.59352
31.75123
105.116
91.18138
25.97486
15.13379
11.38821
9.596816
8.546576
7.835011
7.29945
6.865913
6.498164
6.17762
5.894494
5.643574
5.422064
5.22838
5.061449
4.920389
4.80442
4.710501
4.634346
4.567163
4.503108
4.439751
4.378488
4.323012
4.277358
4.244659
4.226793
4.224623
4.238225
4.268321
4.314795
4.37788
4.458031
4.556151
4.673198
4.810175
4.968563
5.150158
5.357128
5.5921
5.858306
6.1605
6.506774
6.90674
7.367218
7.890278
8.471802
9.101672
9.765404
10.44638
11.13011
11.81477
12.5332
13.38518
14.58563
16.58971
20.60229
31.75764
105.0906
90.83799
26.10456
15.22591
11.39783
9.552216
8.470014
7.741504
7.199024
6.765264
6.401737
6.08834
5.81428
5.573608
5.363185
5.180835
5.025183
4.894947
4.789026
4.705673
4.638268
4.579676
4.522718
4.464343
4.406005
4.351939
4.306782
4.274089
4.255959
4.25335
4.26643
4.295858
4.341564
4.403865
4.483285
4.580744
4.697232
4.833802
4.991945
5.173458
5.380495
5.615662
5.882145
6.184416
6.53056
6.930628
7.391521
7.915157
8.497105
9.126887
9.789758
10.46905
11.15041
11.83226
12.54779
13.39732
14.59616
16.59952
20.61218
31.7676
105.0699
90.59721
26.21821
15.30444
11.40089
9.503015
8.389137
7.643263
7.093197
6.65852
6.298641
5.992032
5.726914
5.496676
5.29739
5.126556
4.982278
4.863096
4.76741
4.693522
4.635508
4.584516
4.533788
4.479735
4.424032
4.371466
4.327196
4.295093
4.277369
4.274962
4.288086
4.317342
4.362762
4.424739
4.503856
4.601053
4.71735
4.853851
5.012057
5.193766
5.401124
5.63671
5.90367
6.206169
6.552255
6.952403
7.413635
7.93777
8.520087
9.149756
9.811766
10.48934
11.1682
11.84705
12.55957
13.40677
14.60451
16.60805
20.62188
31.77948
105.0648
90.53295
26.39436
15.38819
11.40107
9.451522
8.30648
7.543115
6.98494
6.54874
6.191998
5.891861
5.635488
5.415652
5.22762
5.068385
4.935575
4.827417
4.742034
4.677376
4.627462
4.58361
4.537953
4.487411
4.433851
4.382713
4.339593
4.308534
4.291731
4.290033
4.30367
4.333195
4.378751
4.440806
4.520001
4.617291
4.733724
4.870453
5.028988
5.211127
5.41901
5.655201
5.922813
6.225716
6.571866
6.972094
7.433599
7.958156
8.540761
9.170252
9.831378
10.50739
11.18439
11.86083
12.57045
13.41554
14.61253
16.6167
20.63209
31.79182
105.0626
90.6165
26.55204
15.46744
11.39978
9.395893
8.219005
7.43825
6.872244
6.434744
6.081326
5.78772
5.54038
5.33108
5.154597
5.007095
4.886004
4.788968
4.713874
4.65813
4.615596
4.57753
4.535985
4.487495
4.435559
4.385945
4.344416
4.314942
4.299574
4.299057
4.31364
4.343841
4.389922
4.452425
4.532047
4.629754
4.746621
4.883842
5.042935
5.225698
5.434258
5.671163
5.9395
6.243081
6.589593
6.989913
7.451701
7.976707
8.55962
9.188967
9.849361
10.52401
11.19829
11.87133
12.57896
13.4234
14.62061
16.62581
20.64362
31.80926
105.0595
90.90755
26.79003
15.55471
11.39583
9.339459
8.131378
7.333047
6.758859
6.319888
5.969721
5.682965
5.444857
5.246139
5.080777
4.944719
4.834919
4.748646
4.683466
4.636244
4.600637
4.567683
4.529283
4.482907
4.431982
4.383411
4.34328
4.315439
4.301772
4.302746
4.318639
4.349854
4.396802
4.460081
4.540436
4.63884
4.756391
4.894325
5.054167
5.237711
5.44708
5.684806
5.953952
6.258303
6.605282
7.00579
7.467929
7.993377
8.576526
9.205746
9.865422
10.5379
11.20931
11.88049
12.58701
13.43063
14.62755
16.6336
20.65426
31.82658
105.0695
91.25167
26.9866
15.64009
11.39014
9.278159
8.038762
7.224072
6.642928
6.20321
5.857052
5.577694
5.349048
5.160982
5.006952
4.882504
4.78392
4.708189
4.652652
4.613513
4.583898
4.554561
4.517782
4.472081
4.422159
4.375204
4.337224
4.311759
4.299991
4.302512
4.31979
4.352205
4.40023
4.464496
4.545781
4.645067
4.763473
4.902267
5.062981
5.24741
5.457667
5.696272
5.966273
6.271429
6.618929
7.019694
7.48221
8.00817
8.591764
9.220599
9.878376
10.54863
11.21854
11.88868
12.59414
13.43678
14.63312
16.63949
20.66255
31.84352
105.0859
91.84916
27.23974
15.73068
11.38312
9.217717
7.947561
7.116106
6.527898
6.088197
5.746833
5.475071
5.255743
5.078258
4.935591
4.822481
4.734836
4.669283
4.62291
4.591168
4.566512
4.539576
4.503411
4.457981
4.408948
4.363578
4.327658
4.304356
4.294695
4.299095
4.317935
4.351648
4.40083
4.466196
4.548539
4.648834
4.768207
4.907963
5.069635
5.255014
5.46621
5.70573
5.976608
6.282582
6.630669
7.031819
7.494856
8.021442
8.605224
9.233216
9.889509
10.55827
11.22687
11.89571
12.59999
13.44175
14.6379
16.64533
20.67208
31.86428
105.1
92.3657
27.46087
15.82572
11.38209
9.158649
7.856496
7.009071
6.415021
5.976212
5.6398
5.375766
5.166121
4.99954
4.868091
4.766019
4.688834
4.632862
4.594971
4.569773
4.549035
4.52329
4.486781
4.440981
4.392515
4.348774
4.315091
4.294038
4.286421
4.29265
4.313126
4.348332
4.39888
4.465471
4.54897
4.650369
4.770814
4.911613
5.074308
5.260685
5.472848
5.713297
5.985054
6.291843
6.64055
7.042196
7.505875
8.032935
8.616465
9.243527
9.898648
10.56614
11.23355
11.9014
12.60482
13.44582
14.64151
16.64939
20.67934
31.88548
105.133
93.13727
27.72527
15.91107
11.37231
9.094084
7.762598
6.901982
6.304358
5.867245
5.536162
5.280231
5.08057
4.924743
4.804257
4.712852
4.645695
4.598891
4.568743
4.549109
4.531043
4.505153
4.467347
4.420844
4.373036
4.331162
4.299912
4.281213
4.275688
4.283784
4.305941
4.342687
4.394653
4.462583
4.547352
4.649958
4.771544
4.913454
5.077214
5.264615
5.477755
5.719128
5.991748
6.299335
6.648732
7.051052
7.51537
8.04268
8.625887
9.252175
9.906191
10.57252
11.23892
11.90591
12.60851
13.44872
14.64386
16.65213
20.6852
31.90539
105.1739
93.49126
27.9207
15.98793
11.3616
9.034232
7.674978
6.800403
6.197941
5.76259
5.437716
5.190463
5.000735
4.855457
4.74552
4.664255
4.606554
4.568406
4.545145
4.529862
4.513014
4.485876
4.446163
4.398794
4.351691
4.311713
4.282884
4.266532
4.263133
4.273118
4.296979
4.335289
4.388713
4.458014
4.544091
4.647952
4.770728
4.913753
5.078586
5.267019
5.481129
5.723419
5.996891
6.305246
6.65534
7.058315
7.523185
8.050737
8.633707
9.259233
9.912179
10.57746
11.24301
11.90935
12.61134
13.45083
14.64509
16.65389
20.69024
31.92504
105.2433
93.4696
28.15654
16.07495
11.3507
8.975108
7.589454
6.70268
6.097322
5.664793
5.346248
5.107553
4.927589
4.79247
4.69255
4.620783
4.57184
4.541519
4.524348
4.512285
4.495153
4.465501
4.423376
4.375165
4.328987
4.291083
4.264609
4.250489
4.249153
4.26103
4.286629
4.326538
4.381445
4.452137
4.53954
4.644669
4.768649
4.912813
5.078701
5.268119
5.483189
5.726347
6.000613
6.309678
6.660444
7.064107
7.529589
8.057405
8.640057
9.264729
9.916594
10.58091
11.2458
11.91172
12.61334
13.45248
14.64652
16.65384
20.69244
31.93797
105.3072
103.9749
28.62778
16.17054
11.33992
8.917377
7.507579
6.610361
6.002925
5.573737
5.261916
5.031843
4.861386
4.735977
4.645522
4.582706
4.542067
4.51882
4.506566
4.496111
4.477177
4.444163
4.399441
4.350543
4.305468
4.269687
4.245488
4.233548
4.234187
4.247901
4.275213
4.316729
4.373142
4.445245
4.533984
4.640384
4.765563
4.910855
5.077795
5.268164
5.484075
5.728055
6.003038
6.312759
6.664208
7.068639
7.534735
8.062707
8.644923
9.268693
9.919515
10.58304
11.24743
11.91309
12.61448
13.45256
14.64627
16.65522
20.69339
31.95386
105.3799
104.7166
28.86734
16.24874
11.32759
8.861837
7.429858
6.52361
5.91534
5.490261
5.185424
4.963872
4.802568
4.68635
4.604744
4.550235
4.51726
4.500187
4.491507
4.480988
4.458834
4.421855
4.374577
4.325264
4.28148
4.247831
4.225837
4.215962
4.218524
4.234035
4.263032
4.306134
4.364043
4.437557
4.527631
4.635292
4.76165
4.908042
5.076001
5.267307
5.484048
5.728702
6.004343
6.314623
6.666692
7.071876
7.53854
8.066603
8.648313
9.27116
9.920883
10.58355
11.24762
11.91317
12.61447
13.4527
14.64623
16.65486
20.69386
31.95917
105.4386
104.8263
29.03334
16.31748
11.31536
8.809767
7.357818
6.444003
5.835716
5.415079
5.117193
4.90385
4.751213
4.643611
4.57026
4.52346
4.497446
4.485595
4.478974
4.466482
4.439857
4.398615
4.349054
4.29971
4.257442
4.225884
4.205967
4.198049
4.202454
4.219705
4.250347
4.295003
4.354381
4.429277
4.520655
4.629542
4.757041
4.904485
5.073406
5.26558
5.483092
5.72842
6.004563
6.315284
6.667954
7.073866
7.541063
8.069143
8.650255
9.272079
9.92111
10.58346
11.24769
11.91366
12.61489
13.45365
14.64625
16.65452
20.69448
31.96869
105.495
104.8321
29.19229
16.38613
11.3059
8.762397
7.292199
6.372181
5.764659
5.34873
5.057663
4.852124
4.707578
4.607947
4.542252
4.502766
4.482863
4.474824
4.468358
4.452245
4.420388
4.374897
4.323406
4.274358
4.233746
4.204162
4.186159
4.180085
4.186256
4.205186
4.237421
4.283586
4.344389
4.420627
4.513266
4.62333
4.751916
4.900352
5.070169
5.263141
5.481354
5.727293
6.003966
6.315089
6.668187
7.074756
7.542455
8.070445
8.650863
9.271742
9.919794
10.58179
11.24637
11.91307
12.61477
13.45332
14.64606
16.65279
20.69347
31.969
105.5305
105.123
29.35692
16.45531
11.29972
8.721131
7.23477
6.309404
5.702936
5.291622
5.007013
4.808749
4.67169
4.579408
4.520767
4.48793
4.473213
4.467478
4.459169
4.437891
4.400293
4.350809
4.297856
4.249407
4.210495
4.182803
4.166617
4.162286
4.170138
4.190676
4.224444
4.272066
4.334246
4.411778
4.505626
4.616811
4.746421
4.895781
5.066416
5.260101
5.478921
5.725367
6.002457
6.313924
6.667549
7.074799
7.542878
8.07072
8.650343
9.270079
9.917227
10.5789
11.24379
11.91119
12.61376
13.45183
14.64305
16.64855
20.68902
31.96861
105.5577
105.4262
29.51583
16.52804
11.29423
8.682771
7.184517
6.255527
5.650646
5.24385
4.965255
4.773652
4.643427
4.557939
4.50598
4.478926
4.468014
4.462669
4.450549
4.423083
4.379716
4.326708
4.272765
4.225153
4.187931
4.162033
4.147564
4.144876
4.15432
4.176389
4.211623
4.260638
4.324134
4.402898
4.497892
4.610127
4.740686
4.890886
5.062251
5.256551
5.475876
5.722719
6.000112
6.311808
6.665872
7.073837
7.542286
8.069785
8.64847
9.267086
9.913431
10.57497
11.24037
11.90853
12.61151
13.44946
14.64011
16.64474
20.68511
31.96818
105.5825
105.7037
29.66365
16.60385
11.29592
8.650686
7.143083
6.211638
5.608485
5.205819
4.932621
4.747
4.622964
4.543737
4.49811
4.476303
4.467852
4.460535
4.442648
4.408146
4.359084
4.303006
4.248509
4.201959
4.166314
4.142014
4.129142
4.128
4.138958
4.162485
4.199115
4.249456
4.314199
4.394125
4.490188
4.603395
4.734817
4.885768
5.057765
5.252579
5.4723
5.719427
5.997003
6.308797
6.663181
7.071739
7.540461
8.067582
8.645316
9.262839
9.908477
10.57004
11.23618
11.90535
12.60901
13.44685
14.63653
16.63978
20.67962
31.96714
105.6143
105.9224
29.80047
16.68126
11.29682
8.623832
7.109084
6.176404
5.57546
5.17687
4.908704
4.728608
4.610435
4.537403
4.497408
4.478494
4.470135
4.459095
4.434374
4.392717
4.338442
4.279882
4.225213
4.17983
4.145662
4.122827
4.111511
4.111813
4.124192
4.149094
4.187041
4.238631
4.304546
4.385556
4.482609
4.596701
4.728896
4.880502
5.053032
5.248257
5.468266
5.71557
5.993221
6.305009
6.659628
7.068713
7.537619
8.064264
8.640981
9.257411
9.902415
10.56413
11.23114
11.90145
12.60586
13.44366
14.63249
16.63446
20.67371
31.96554
105.651
106.0659
29.92802
16.7613
11.30525
8.605308
7.085822
6.152392
5.553065
5.157584
4.893558
4.718383
4.605757
4.537977
4.501599
4.485345
4.475391
4.458408
4.425811
4.37704
4.3181
4.257607
4.203066
4.158877
4.126112
4.10466
4.094723
4.096394
4.110111
4.136307
4.175492
4.228253
4.29526
4.377272
4.475227
4.590113
4.722985
4.875146
5.048105
5.243632
5.463823
5.711194
5.988818
6.300502
6.655272
7.064795
7.533774
8.059838
8.635485
9.250846
9.895318
10.55735
11.22543
11.89706
12.60236
13.44015
14.62803
16.6285
20.66672
31.96027
105.6874
106.1462
30.05108
16.84474
11.31932
8.593866
7.068575
6.13509
5.538277
5.146816
4.887578
4.717239
4.608573
4.545461
4.512699
4.496523
4.482468
4.457982
4.417029
4.361448
4.298415
4.236454
4.182242
4.139219
4.107755
4.087582
4.078915
4.081857
4.09682
4.124223
4.164561
4.218407
4.286418
4.369342
4.468105
4.583687
4.717134
4.869742
5.043018
5.238733
5.458987
5.70631
5.983793
6.295324
6.650208
7.060045
7.528955
8.054326
8.628857
9.243185
9.887232
10.54972
11.21904
11.89213
12.59842
13.43626
14.62318
16.62211
20.65926
31.95469
105.7219
106.2074
30.17097
16.93222
11.34191
8.594211
7.066802
6.132702
5.536916
5.146949
4.889054
4.721796
4.619287
4.560335
4.529108
4.510816
4.490593
4.457494
4.408069
4.346139
4.279599
4.216621
4.162948
4.120982
4.090638
4.071629
4.064137
4.068262
4.084385
4.112909
4.154312
4.209154
4.278077
4.361817
4.461288
4.577461
4.711374
4.864316
5.037792
5.233572
5.453761
5.700901
5.97811
6.289521
6.644559
7.054513
7.523161
8.047726
8.621117
9.234473
9.878222
10.54134
11.21206
11.88677
12.59414
13.43203
14.61792
16.61509
20.65077
31.94686
105.7527
106.3142
30.29302
17.02499
11.37217
8.599085
7.068227
6.134297
5.539385
5.151788
4.898745
4.736745
4.638016
4.581336
4.549802
4.527256
4.499183
4.456799
4.399088
4.331381
4.261894
4.198233
4.145182
4.104166
4.074811
4.056861
4.050446
4.05566
4.072852
4.102405
4.144782
4.200525
4.270264
4.354721
4.454799
4.571457
4.705727
4.858893
5.032455
5.228185
5.448198
5.69505
5.971885
6.283105
6.638225
7.048155
7.516377
8.040033
8.612285
9.224757
9.868353
10.53227
11.20455
11.88101
12.58953
13.42748
14.6123
16.60768
20.64192
31.93878
105.7808
106.518
30.41869
17.12342
11.41616
8.613434
7.077705
6.145641
5.55245
5.16725
4.917374
4.759907
4.664093
4.608016
4.573975
4.545047
4.507852
4.455908
4.390291
4.317404
4.245462
4.181361
4.128937
4.088787
4.060322
4.043324
4.037884
4.044086
4.062248
4.092735
4.135989
4.192537
4.262993
4.348066
4.448647
4.565685
4.700204
4.853483
5.027021
5.222593
5.442322
5.688782
5.965145
6.276089
6.631205
7.040974
7.508618
8.031271
8.602387
9.214073
9.857669
10.52256
11.19656
11.87485
12.58457
13.42256
14.6062
16.59959
20.63205
31.92882
105.8045
106.8206
30.55013
17.22877
11.47208
8.636363
7.094538
6.164703
5.573476
5.191
4.945504
4.791042
4.696296
4.639156
4.600553
4.563548
4.51641
4.454924
4.381895
4.304415
4.230446
4.166076
4.114245
4.074865
4.047193
4.031042
4.026475
4.033563
4.052597
4.083918
4.12795
4.185202
4.256274
4.34186
4.442838
4.560148
4.694807
4.848091
5.021496
5.216803
5.436144
5.682111
5.957901
6.268478
6.62349
7.032966
7.499896
8.021467
8.591468
9.202478
9.846238
10.51226
11.18812
11.86835
12.57928
13.41728
14.59967
16.59103
20.62174
31.91849
105.8241
107.177
30.68614
17.34066
11.53984
8.669475
7.11954
6.191334
5.602461
5.223741
4.981854
4.829007
4.733941
4.673881
4.628816
4.582387
4.524825
4.454018
4.374122
4.292597
4.216958
4.152436
4.101137
4.062418
4.035435
4.020028
4.01623
4.024105
4.043909
4.075962
4.12067
4.178523
4.250105
4.336097
4.437365
4.554838
4.689529
4.842709
5.015876
5.210813
5.429664
5.675039
5.950157
6.260269
6.615068
7.02412
7.490215
8.010646
8.579566
9.190018
9.834101
10.50142
11.17924
11.86145
12.57359
13.41153
14.59259
16.58175
20.61041
31.9064
105.8398
107.5192
30.82572
17.45937
11.61743
8.71087
7.15297
6.226363
5.639981
5.26574
5.026081
4.873114
4.776288
4.711446
4.658136
4.60128
4.533128
4.453363
4.367152
4.282075
4.205094
4.140547
4.089645
4.05141
4.025009
4.01025
4.00713
4.015694
4.036169
4.068855
4.114135
4.172484
4.244469
4.33076
4.432209
4.549738
4.684353
4.837323
5.010147
5.204614
5.422878
5.667564
5.941917
6.251461
6.605927
7.014428
7.479584
7.998837
8.566729
9.17675
9.821315
10.49007
11.16995
11.85418
12.5675
13.40534
14.58502
16.57194
20.5985
31.8934
105.8529
107.7741
30.96821
17.58396
11.70524
8.765156
7.194216
6.267873
5.686928
5.315625
5.076283
4.922312
4.822181
4.750778
4.687931
4.620081
4.541427
4.45318
4.361206
4.272995
4.194887
4.130333
4.079715
4.04184
4.015914
4.001701
3.999158
4.008309
4.029354
4.062567
4.108315
4.167054
4.239336
4.325819
4.427342
4.54482
4.679255
4.831913
5.004295
5.198195
5.415777
5.659683
5.93318
6.242051
6.59606
7.003884
7.468011
7.98607
8.553002
9.16272
9.807916
10.47823
11.16025
11.84649
12.56096
13.39865
14.57688
16.56148
20.58572
31.87905
105.8653
107.8745
31.1129
17.71384
11.80258
8.830427
7.244069
6.31846
5.742095
5.372176
5.132172
4.97596
4.87093
4.791401
4.71797
4.638786
4.549838
4.453575
4.356346
4.265392
4.186314
4.121731
4.071309
4.033695
4.008138
3.994364
3.992291
4.001924
4.023432
4.057067
4.103176
4.162198
4.234672
4.321241
4.422734
4.540058
4.674212
4.82646
4.998304
5.191545
5.408357
5.651397
5.923952
6.232047
6.585468
6.992494
7.455519
7.972386
8.538436
9.147983
9.793946
10.46592
11.15012
11.83839
12.55398
13.39149
14.56823
16.55044
20.5722
31.86338
105.8769
107.7744
31.25884
17.84825
11.90847
8.906545
7.305186
6.378463
5.80401
5.434323
5.19296
5.033256
4.921787
4.832827
4.748061
4.657419
4.558501
4.454739
4.352731
4.259326
4.17937
4.114703
4.064386
4.026938
4.001648
3.988208
3.9865
3.996508
4.018371
4.052321
4.098685
4.157885
4.230444
4.316995
4.418357
4.535428
4.669203
4.820947
4.992164
5.184659
5.400617
5.64271
5.914246
6.221462
6.574164
6.980276
7.442137
7.957825
8.52308
9.13258
9.779433
10.45315
11.13956
11.82985
12.54654
13.38383
14.55906
16.53883
20.55788
31.84513
105.8823
107.5495
31.40572
17.98564
12.02164
8.993437
7.377982
6.447252
5.872143
5.501588
5.257935
5.093536
4.974233
4.874678
4.778041
4.675991
4.567505
4.456761
4.350411
4.25481
4.174037
4.109217
4.058907
4.021529
3.996406
3.983194
3.981747
3.992022
4.014135
4.048294
4.094806
4.154079
4.226621
4.313054
4.414185
4.530906
4.664212
4.815364
4.985869
5.177538
5.392566
5.633637
5.904079
6.210318
6.562172
6.967258
7.427902
7.942437
8.506985
9.116558
9.764405
10.43993
11.12857
11.82087
12.53865
13.37571
14.54941
16.52679
20.54322
31.82463
105.8901
107.5506
31.55945
18.12517
12.1415
9.090776
7.461534
6.524661
5.946763
5.573905
5.326666
5.156102
5.027624
4.916641
4.807883
4.694623
4.577016
4.459789
4.349507
4.251894
4.170316
4.105252
4.05484
4.017429
3.992367
3.979279
3.977987
3.988425
4.010681
4.044944
4.091501
4.150745
4.22317
4.309386
4.410193
4.526475
4.659225
4.809703
4.979419
5.170188
5.384215
5.624197
5.893478
6.198645
6.549524
6.953477
7.412858
7.926267
8.490195
9.099948
9.748878
10.42625
11.11713
11.81143
12.53027
13.36706
14.53918
16.51428
20.52902
31.80891
105.8965
107.9374
31.72196
18.26552
12.2676
9.198126
7.555164
6.610366
6.027774
5.651011
5.398678
5.2205
5.081689
4.958639
4.837642
4.713425
4.587118
4.463822
4.349888
4.25049
4.168147
4.102755
4.052128
4.014579
3.989474
3.976407
3.975168
3.985666
4.007964
4.042228
4.088731
4.147846
4.220059