/*--------------------------------*- C++ -*----------------------------------*\
| =========                 |                                                 |
| \\      /  F ield         | OpenFOAM: The Open Source CFD Toolbox           |
|  \\    /   O peration     | Version:  2312                                  |
|   \\  /    A nd           | Website:  www.openfoam.com                      |
|    \\/     M anipulation  |                                                 |
\*---------------------------------------------------------------------------*/
FoamFile
{
    version     2.0;
    format      ascii;
    arch        "LSB;label=32;scalar=64";
    class       surfaceScalarField;
    location    "3000";
    object      phi;
}
// * * * * * * * * * * * * * * * * * * * * * * * * * * * * * * * * * * * * * //

dimensions      [1 0 -1 0 0 0 0];

oriented        oriented;

internalField   nonuniform List<scalar> 
23740
(
-0.0001294205
0.0001293377
-0.0002674146
0.0001379936
-0.000411238
0.000143823
-0.0005552662
0.0001440277
-0.0006969705
0.0001417039
-0.0008329594
0.0001359885
-0.0009594065
0.0001264467
-0.001075361
0.0001159542
-0.001185133
0.0001097714
-0.001292122
0.0001069894
-0.001390524
9.840197e-05
-0.001477011
8.648646e-05
-0.001553441
7.643002e-05
-0.001627835
7.439443e-05
-0.001700565
7.272988e-05
-0.001765148
6.458314e-05
-0.00181842
5.327225e-05
-0.001866552
4.813266e-05
-0.001914882
4.83299e-05
-0.001961025
4.61431e-05
-0.002000247
3.922285e-05
-0.002033353
3.310589e-05
-0.002064394
3.104104e-05
-0.002094661
3.026806e-05
-0.002121766
2.710507e-05
-0.00214345
2.168409e-05
-0.002160641
1.719114e-05
-0.002176721
1.608116e-05
-0.002193163
1.644255e-05
-0.002206867
1.370413e-05
-0.002214499
7.632088e-06
-0.00221779
3.291393e-06
-0.002221205
3.4162e-06
-0.002224941
3.736316e-06
-0.002226991
2.050345e-06
-0.002223113
-3.877571e-06
-0.00220905
-1.406334e-05
-0.002187482
-2.156779e-05
-0.002172875
-1.460672e-05
-0.002170579
-2.295604e-06
-0.002159238
-1.134123e-05
-0.002118265
-4.09733e-05
-0.00206855
-4.971541e-05
-0.002043792
-2.475793e-05
-0.002024527
-1.926589e-05
-0.001969415
-5.511239e-05
-0.001893147
-7.626857e-05
-0.001836199
-5.694874e-05
-0.00178537
-5.082876e-05
-0.001703802
-8.156923e-05
-0.001599259
-0.0001045432
-0.001497819
-0.0001014413
-0.001391432
-0.0001063869
-0.00126244
-0.0001289933
-0.001111203
-0.000151237
-0.0009502268
-0.0001609771
-0.0007472297
-0.0002029979
-0.0005210556
-0.0002261753
-0.0002586642
-0.0002623937
-0.0002586646
-0.0001442439
0.0002735811
-0.0002840296
0.0002777787
-0.0004160018
0.0002757948
-0.0005394482
0.0002674735
-0.0006545252
0.0002567804
-0.0007610173
0.0002424801
-0.0008597314
0.0002251604
-0.0009519953
0.0002082177
-0.001032996
0.0001907716
-0.001104264
0.0001782574
-0.001171126
0.0001652636
-0.001236334
0.0001516954
-0.001298611
0.0001387067
-0.001351908
0.0001276915
-0.00139692
0.0001177426
-0.001439625
0.0001072882
-0.001483333
9.698099e-05
-0.001523332
8.813166e-05
-0.00155571
8.07082e-05
-0.001583176
7.360988e-05
-0.001610334
6.638141e-05
-0.001636831
5.960311e-05
-0.001659472
5.368252e-05
-0.001677454
4.825063e-05
-0.001693132
4.278344e-05
-0.00170866
3.721309e-05
-0.001723434
3.196549e-05
-0.001734722
2.737027e-05
-0.001741503
2.32242e-05
-0.00174653
1.873182e-05
-0.001752347
1.344892e-05
-0.001757263
8.208814e-06
-0.001758891
5.043848e-06
-0.001755348
1.938731e-07
-0.001748338
-4.958459e-06
-0.001741391
-1.082403e-05
-0.001737861
-1.759297e-05
-0.001735444
-2.398463e-05
-0.001721064
-2.898664e-05
-0.001689359
-3.400124e-05
-0.001659028
-4.167212e-05
-0.001648554
-5.14475e-05
-0.001638045
-6.022479e-05
-0.001595384
-6.741968e-05
-0.001538353
-7.629746e-05
-0.001504615
-8.885137e-05
-0.001479204
-0.0001016805
-0.00142299
-0.0001131633
-0.001346694
-0.0001271255
-0.001283872
-0.0001443924
-0.001226057
-0.0001623595
-0.001145861
-0.0001816381
-0.001052232
-0.0002000171
-0.0009630251
-0.0002182006
-0.0008604056
-0.0002538574
-0.0007317831
-0.0002896009
-0.0005847289
-0.0003500533
-0.0004185776
-0.0003923281
-0.0002268056
-0.0004541678
-0.0004854705
-0.0001137073
0.0003872877
-0.0002206482
0.0003847191
-0.000320528
0.0003756741
-0.0004136222
0.0003605672
-0.0005003341
0.0003434917
-0.0005824235
0.000324569
-0.0006582906
0.000301027
-0.0007317267
0.0002816535
-0.0008025665
0.0002616111
-0.0008651001
0.0002407909
-0.000920088
0.0002202514
-0.0009702341
0.0002018415
-0.00101801
0.0001864829
-0.001059906
0.000169588
-0.00109773
0.000155567
-0.00113284
0.000142398
-0.001165993
0.0001301345
-0.001196763
0.0001189027
-0.001224667
0.0001086122
-0.001249897
9.884034e-05
-0.001273015
8.950059e-05
-0.001294157
8.074485e-05
-0.001313048
7.257469e-05
-0.001329634
6.483668e-05
-0.0013442
5.735059e-05
-0.00135704
5.005394e-05
-0.001368074
4.299988e-05
-0.001376954
3.625105e-05
-0.001383543
2.981365e-05
-0.001388261
2.345007e-05
-0.001391554
1.674287e-05
-0.001394158
1.081378e-05
-0.001393347
4.233303e-06
-0.001389593
-3.559568e-06
-0.001383891
-1.06606e-05
-0.001376531
-1.818323e-05
-0.001367735
-2.638916e-05
-0.001356769
-3.49499e-05
-0.001342293
-4.346322e-05
-0.001324075
-5.221905e-05
-0.001303473
-6.227414e-05
-0.001281264
-7.365762e-05
-0.001256146
-8.534292e-05
-0.001225982
-9.758385e-05
-0.001191055
-0.0001112249
-0.001153163
-0.0001267441
-0.00111104
-0.0001438043
-0.001064967
-0.0001592377
-0.001011669
-0.000180424
-0.0009528699
-0.0002031925
-0.0008891148
-0.0002261155
-0.0008222153
-0.0002485384
-0.0007467726
-0.0002754605
-0.0006564455
-0.0003085287
-0.0005557595
-0.0003545446
-0.0004507509
-0.0003946107
-0.000360046
-0.0004407595
-0.0002533835
-0.0004989922
-0.0001363891
-0.0005711641
-0.0006218598
-8.26071e-05
0.0004698942
-0.0001598785
0.0004619901
-0.0002319117
0.0004477068
-0.0002993836
0.0004280386
-0.0003614652
0.0004055729
-0.0004186745
0.0003817779
-0.0004738229
0.0003561751
-0.0005229381
0.0003307685
-0.0005725819
0.0003112547
-0.0006209664
0.0002891753
-0.0006677139
0.0002669989
-0.0007121429
0.0002462706
-0.0007535909
0.0002279311
-0.0007920131
0.0002080104
-0.000827038
0.0001905922
-0.0008593071
0.0001746675
-0.0008889515
0.0001597793
-0.0009157312
0.0001456829
-0.0009407194
0.0001336008
-0.0009637586
0.0001218799
-0.0009847717
0.0001105141
-0.001003312
9.928508e-05
-0.001019554
8.881743e-05
-0.001033718
7.900097e-05
-0.00104599
6.962378e-05
-0.001056519
6.058299e-05
-0.00106533
5.181178e-05
-0.001072307
4.322863e-05
-0.001077252
3.47584e-05
-0.001081086
2.728501e-05
-0.001082953
1.861024e-05
-0.001083131
1.099172e-05
-0.001080651
1.753853e-06
-0.00107695
-7.260367e-06
-0.00107126
-1.634951e-05
-0.001063685
-2.575819e-05
-0.00105453
-3.554409e-05
-0.00104352
-4.596017e-05
-0.001030036
-5.694725e-05
-0.001013675
-6.857975e-05
-0.0009949133
-8.103605e-05
-0.0009740224
-9.454884e-05
-0.0009518694
-0.0001074962
-0.0009258021
-0.0001236517
-0.0008962281
-0.0001407994
-0.0008637053
-0.0001592674
-0.0008284856
-0.0001790244
-0.0007893112
-0.0001984128
-0.0007461329
-0.0002236029
-0.0007016646
-0.0002476614
-0.0006540677
-0.0002737131
-0.0005983393
-0.0003042676
-0.0005317147
-0.0003420859
-0.0004591764
-0.0003810678
-0.0003921285
-0.0004215933
-0.0003212812
-0.0004654589
-0.0002452745
-0.0005167671
-0.0001678969
-0.0005763712
-8.891754e-05
-0.000650145
-0.0007107775
-6.204391e-05
0.0005319378
-0.0001221536
0.0005220995
-0.0001785614
0.0005041143
-0.0002319286
0.0004814055
-0.000282156
0.0004558
-0.0003290315
0.0004286531
-0.0003734569
0.0004006003
-0.0004152408
0.0003725523
-0.0004496464
0.0003456602
-0.0004823087
0.0003218375
-0.0005152092
0.0002998995
-0.0005487736
0.0002798351
-0.0005791772
0.0002583348
-0.0006080211
0.0002368545
-0.0006347111
0.0002172825
-0.0006593448
0.0001993015
-0.0006820549
0.0001824897
-0.0007028119
0.0001664401
-0.0007217122
0.0001525014
-0.0007390249
0.0001391929
-0.0007547693
0.0001262589
-0.0007688775
0.0001133936
-0.0007813049
0.0001012452
-0.0007920749
8.977125e-05
-0.0008012508
7.880005e-05
-0.0008089037
6.823634e-05
-0.0008150951
5.80035e-05
-0.0008198606
4.799452e-05
-0.0008231681
3.806622e-05
-0.0008250132
2.913037e-05
-0.000825358
1.895541e-05
-0.0008234118
9.045859e-06
-0.000820682
-9.757209e-07
-0.0008167097
-1.123235e-05
-0.0008112279
-2.183112e-05
-0.0008041531
-3.283276e-05
-0.0007963371
-4.336003e-05
-0.0007866897
-5.560747e-05
-0.0007752896
-6.834739e-05
-0.0007621451
-8.172427e-05
-0.0007472221
-9.595924e-05
-0.0007306565
-0.0001111146
-0.0007121154
-0.0001260375
-0.0006913987
-0.0001443686
-0.0006685712
-0.0001636273
-0.0006435168
-0.0001843222
-0.0006160343
-0.0002065073
-0.0005838698
-0.0002305777
-0.0005519474
-0.0002555258
-0.0005166551
-0.0002829543
-0.0004749803
-0.0003153884
-0.0004273952
-0.0003518532
-0.0003798682
-0.0003896136
-0.0003315999
-0.0004293368
-0.0002807527
-0.0004724412
-0.000226708
-0.0005195044
-0.0001716941
-0.0005717818
-0.0001159607
-0.0006321058
-6.054258e-05
-0.0007055645
-0.0007713202
-4.333521e-05
0.0005752729
-8.555906e-05
0.0005643233
-0.0001247381
0.0005432932
-0.000161516
0.0005181833
-0.0001961007
0.0004903846
-0.000228768
0.0004613203
-0.0002601189
0.0004319511
-0.0002906825
0.0004031158
-0.0003204658
0.0003754434
-0.0003479991
0.0003493709
-0.0003728149
0.0003247153
-0.0003955803
0.0003026006
-0.000418831
0.0002815856
-0.0004423083
0.0002603319
-0.0004641359
0.0002391103
-0.0004842656
0.0002194314
-0.0005027714
0.0002009957
-0.000520124
0.0001837929
-0.0005353712
0.0001677489
-0.0005488219
0.0001526439
-0.0005607816
0.0001382188
-0.0005717489
0.0001243612
-0.0005815861
0.0001110827
-0.0005901694
9.835484e-05
-0.000597479
8.610995e-05
-0.0006035178
7.427539e-05
-0.0006082913
6.277731e-05
-0.0006118317
5.153514e-05
-0.0006142189
4.045368e-05
-0.0006146014
2.951314e-05
-0.0006141174
1.847169e-05
-0.0006124282
7.356862e-06
-0.0006100516
-3.352067e-06
-0.0006070035
-1.428025e-05
-0.0006025626
-2.627197e-05
-0.0005969003
-3.849488e-05
-0.0005900335
-5.022676e-05
-0.0005819526
-6.36883e-05
-0.0005726932
-7.760686e-05
-0.0005622185
-9.219903e-05
-0.0005505398
-0.0001076379
-0.0005375911
-0.0001240635
-0.0005219593
-0.0001416695
-0.0005055053
-0.0001608229
-0.0004876761
-0.0001814568
-0.0004682412
-0.0002037574
-0.0004471105
-0.0002276384
-0.0004249152
-0.0002527734
-0.0003997559
-0.0002806855
-0.0003696555
-0.0003130551
-0.0003374058
-0.0003476386
-0.0003048449
-0.0003844146
-0.0002708807
-0.0004235783
-0.0002347683
-0.0004654497
-0.0001970109
-0.0005101992
-0.0001581139
-0.0005584019
-0.0001185708
-0.0006113256
-7.917021e-05
-0.0006715074
-4.062385e-05
-0.000744112
-0.0008119442
-3.107835e-05
0.0006063514
-6.138587e-05
0.0005946309
-8.915019e-05
0.0005710576
-0.0001150579
0.0005440911
-0.0001394868
0.0005148134
-0.0001627685
0.000484602
-0.000185248
0.0004544306
-0.0002071068
0.0004249745
-0.0002283044
0.000396641
-0.0002485857
0.0003696521
-0.0002678009
0.0003439306
-0.000284569
0.0003193687
-0.0002997377
0.0002967544
-0.0003155356
0.00027613
-0.0003320171
0.0002555919
-0.0003477695
0.000235184
-0.0003624459
0.0002156723
-0.0003757748
0.0001971219
-0.000387819
0.0001797933
-0.0003985785
0.0001634035
-0.000408151
0.0001477916
-0.0004166491
0.0001328596
-0.0004241155
0.0001185493
-0.0004305606
0.0001048001
-0.0004359924
9.154205e-05
-0.0004404184
7.870163e-05
-0.0004438442
6.620326e-05
-0.0004462763
5.396745e-05
-0.0004477343
4.191188e-05
-0.0004481899
2.996895e-05
-0.0004477253
1.800733e-05
-0.000446371
6.002698e-06
-0.000444645
-5.077891e-06
-0.000441997
-1.69282e-05
-0.0004384904
-2.977838e-05
-0.0004341624
-4.282289e-05
-0.0004281765
-5.621254e-05
-0.0004216175
-7.024732e-05
-0.0004142879
-8.49365e-05
-0.0004060708
-0.0001004161
-0.0003968953
-0.0001168136
-0.0003866841
-0.0001342748
-0.0003754156
-0.0001529381
-0.000363203
-0.0001730356
-0.0003499801
-0.0001946799
-0.0003361495
-0.0002175881
-0.0003215774
-0.0002422108
-0.0003048655
-0.0002694855
-0.0002852073
-0.0003003441
-0.0002647987
-0.0003334641
-0.0002434065
-0.0003690312
-0.0002205405
-0.0004072809
-0.0001959657
-0.0004481536
-0.0001698368
-0.0004915791
-0.0001424186
-0.0005376178
-0.0001140835
-0.0005867376
-8.533544e-05
-0.0006400742
-5.676201e-05
-0.0007000817
-2.915057e-05
-0.0007717245
-0.0008410948
-2.073102e-05
0.0006270827
-4.05702e-05
0.0006144703
-5.813217e-05
0.0005886198
-7.44114e-05
0.0005603705
-9.00051e-05
0.0005304072
-0.0001052535
0.0004998504
-0.0001203315
0.0004695086
-0.0001352435
0.0004398864
-0.0001498903
0.0004112878
-0.0001640912
0.000383853
-0.0001777623
0.0003576016
-0.0001908392
0.0003324456
-0.0002026155
0.0003085306
-0.0002125986
0.0002861131
-0.0002226192
0.0002656126
-0.00023333
0.0002458949
-0.0002444345
0.0002267769
-0.0002553431
0.0002080307
-0.0002653735
0.000189824
-0.0002743977
0.0001724279
-0.0002824103
0.0001558043
-0.0002894664
0.0001399159
-0.000295637
0.00012472
-0.0003009804
0.0001101438
-0.0003055217
9.608357e-05
-0.0003092773
8.245735e-05
-0.0003122595
6.918568e-05
-0.0003144822
5.619033e-05
-0.0003159633
4.339307e-05
-0.0003167107
3.071655e-05
-0.0003167781
1.807484e-05
-0.0003165258
5.750586e-06
-0.0003154802
-6.123386e-06
-0.0003132632
-1.914517e-05
-0.0003106005
-3.244099e-05
-0.0003073706
-4.605273e-05
-0.000303497
-6.008606e-05
-0.0002990462
-7.469812e-05
-0.0002940052
-8.997749e-05
-0.000288372
-0.0001060494
-0.0002821434
-0.0001230422
-0.0002753159
-0.0001411024
-0.0002678872
-0.0001603669
-0.0002598334
-0.0001810896
-0.0002514196
-0.0002030939
-0.0002420984
-0.0002269095
-0.0002309839
-0.0002533255
-0.0002180676
-0.0002824021
-0.000204613
-0.0003137989
-0.0001903724
-0.000347705
-0.000174985
-0.0003844189
-0.00015824
-0.0004240263
-0.0001400273
-0.0004663666
-0.0001205459
-0.0005110608
-0.0001002716
-0.0005578925
-7.967347e-05
-0.0006073362
-5.911439e-05
-0.0006606338
-3.896309e-05
-0.0007202337
-1.968846e-05
-0.000791
-0.0008607834
-1.318761e-05
0.0006402708
-2.544271e-05
0.0006267258
-3.606471e-05
0.0005992421
-4.589151e-05
0.0005701975
-5.54074e-05
0.0005399232
-6.48312e-05
0.0005092743
-7.428384e-05
0.0004789613
-8.389218e-05
0.0004494947
-9.368516e-05
0.0004210808
-0.0001035641
0.0003937319
-0.0001134353
0.0003674728
-0.0001232722
0.0003422825
-0.0001329423
0.0003182007
-0.0001419047
0.0002950756
-0.000149566
0.000273274
-0.0001563919
0.0002527208
-0.0001628193
0.0002332044
-0.0001693469
0.0002145584
-0.0001758421
0.0001963193
-0.0001821062
0.0001786921
-0.0001880015
0.0001616998
-0.0001934164
0.000145331
-0.0001982433
0.000129547
-0.0002024804
0.000114381
-0.0002061414
9.974471e-05
-0.0002092329
8.554898e-05
-0.0002117633
7.171628e-05
-0.0002137428
5.816994e-05
-0.0002151841
4.483448e-05
-0.0002160986
3.16312e-05
-0.0002165081
1.848447e-05
-0.0002166589
5.901404e-06
-0.0002158208
-6.961328e-06
-0.0002145456
-2.042034e-05
-0.0002128546
-3.413191e-05
-0.0002107238
-4.818351e-05
-0.0002081316
-6.267817e-05
-0.0002051025
-7.772724e-05
-0.0002016392
-9.344078e-05
-0.000197749
-0.0001099396
-0.0001934374
-0.0001273539
-0.0001887202
-0.0001458196
-0.0001835745
-0.0001655127
-0.0001781523
-0.0001865119
-0.0001720674
-0.0002091788
-0.0001648713
-0.0002341059
-0.0001570607
-0.0002611362
-0.0001490637
-0.0002903993
-0.0001407529
-0.0003221099
-0.0001318633
-0.0003565949
-0.0001220173
-0.0003942651
-0.0001107146
-0.0004353294
-9.784725e-05
-0.0004792343
-8.389056e-05
-0.0005250178
-6.954033e-05
-0.0005722431
-5.521259e-05
-0.0006216644
-4.103315e-05
-0.0006748137
-2.715819e-05
-0.0007341092
-1.387314e-05
-0.0008042858
-0.0008746566
-8.08617e-06
0.0006483575
-1.521972e-05
0.0006338599
-2.044988e-05
0.0006044726
-2.488963e-05
0.0005746376
-2.920255e-05
0.0005442363
-3.373464e-05
0.0005138065
-3.858741e-05
0.0004838141
-4.371394e-05
0.0004546213
-4.908962e-05
0.0004264564
-5.465985e-05
0.000399302
-6.042881e-05
0.0003732417
-6.638979e-05
0.0003482434
-7.243401e-05
0.0003242449
-7.851946e-05
0.000301161
-8.426048e-05
0.000279015
-8.939403e-05
0.0002578544
-9.385666e-05
0.000237667
-9.792844e-05
0.0002186302
-0.0001021248
0.0002005157
-0.0001064687
0.0001830362
-0.0001109276
0.0001661588
-0.0001154289
0.0001498323
-0.0001197875
0.0001339057
-0.0001237618
0.0001183554
-0.0001272986
0.0001032817
-0.0001303715
8.862198e-05
-0.0001329862
7.433107e-05
-0.0001351603
6.034416e-05
-0.0001369191
4.659333e-05
-0.0001382964
3.300864e-05
-0.0001393302
1.951833e-05
-0.0001398812
6.452488e-06
-0.0001397629
-7.079566e-06
-0.0001393531
-2.083006e-05
-0.0001386389
-3.484604e-05
-0.0001376031
-4.921935e-05
-0.0001362378
-6.404338e-05
-0.0001345426
-7.942244e-05
-0.0001325167
-9.546675e-05
-0.0001301606
-0.0001122957
-0.0001274761
-0.0001300384
-0.0001244644
-0.0001488314
-0.0001211445
-0.0001688327
-0.0001174952
-0.0001901612
-0.0001134277
-0.0002132464
-0.0001093127
-0.000238221
-0.0001052063
-0.0002652428
-0.000101007
-0.0002945988
-9.648129e-05
-0.0003266358
-9.122699e-05
-0.0003618494
-8.473344e-05
-0.0004007589
-7.680998e-05
-0.0004432531
-6.766349e-05
-0.000488381
-5.777025e-05
-0.0005349113
-4.769108e-05
-0.0005823226
-3.772577e-05
-0.00063163
-2.787218e-05
-0.0006846677
-1.822742e-05
-0.0007437545
-9.076623e-06
-0.0008134372
-0.0008837333
-2.808659e-06
0.000651167
-4.110332e-06
0.0006351623
-4.180871e-06
0.0006045437
-4.095006e-06
0.000574552
-4.52985e-06
0.0005446714
-5.713564e-06
0.0005149903
-7.649639e-06
0.0004857502
-1.021711e-05
0.0004571887
-1.316557e-05
0.0004294048
-1.651262e-05
0.000402649
-2.016506e-05
0.0003768941
-2.403845e-05
0.0003521168
-2.81217e-05
0.0003283281
-3.246792e-05
0.0003055072
-3.705558e-05
0.0002836027
-4.178371e-05
0.0002625825
-4.648026e-05
0.0002423636
-5.075512e-05
0.0002229051
-5.453639e-05
0.000204297
-5.790829e-05
0.0001864081
-6.09114e-05
0.000169162
-6.361367e-05
0.0001525347
-6.625346e-05
0.0001365456
-6.887129e-05
0.0001209733
-7.134602e-05
0.0001057565
-7.365826e-05
9.09343e-05
-7.57784e-05
7.645129e-05
-7.768943e-05
6.225527e-05
-7.937614e-05
4.828011e-05
-8.082406e-05
3.445664e-05
-8.202385e-05
2.071818e-05
-8.27717e-05
7.200405e-06
-8.330957e-05
-6.541638e-06
-8.36047e-05
-2.053489e-05
-8.36655e-05
-3.47852e-05
-8.350021e-05
-4.938461e-05
-8.311348e-05
-6.443008e-05
-8.251081e-05
-8.002509e-05
-8.169704e-05
-9.628052e-05
-8.067622e-05
-0.0001133165
-7.945156e-05
-0.0001312631
-7.801847e-05
-0.0001502645
-7.638642e-05
-0.0001704648
-7.44714e-05
-0.0001920763
-7.245034e-05
-0.0002152676
-7.050452e-05
-0.0002401669
-6.865858e-05
-0.0002670889
-6.674892e-05
-0.0002965086
-6.437222e-05
-0.0003290127
-6.103842e-05
-0.0003651833
-5.658003e-05
-0.0004052175
-5.124988e-05
-0.0004485835
-4.527485e-05
-0.0004943563
-3.87601e-05
-0.0005414263
-3.198808e-05
-0.0005890948
-2.525877e-05
-0.0006383596
-1.865942e-05
-0.0006912673
-1.227395e-05
-0.0007501404
-6.241665e-06
-0.00081947
-0.000889975
-3.800886e-07
0.0006515478
9.784946e-07
0.0006338042
3.501468e-06
0.0006020211
6.396792e-06
0.000571657
9.211156e-06
0.0005418572
1.171923e-05
0.0005124823
1.364263e-05
0.0004838269
1.463245e-05
0.0004561989
1.45476e-05
0.0004294896
1.350356e-05
0.000403693
1.177963e-05
0.0003786179
9.542705e-06
0.0003543536
6.850244e-06
0.0003310205
3.782644e-06
0.0003085747
3.857669e-07
0.0002869995
-3.266487e-06
0.0002662348
-7.078313e-06
0.0002461754
-1.088303e-05
0.0002267098
-1.441177e-05
0.0002078257
-1.75575e-05
0.0001895539
-2.03089e-05
0.0001719134
-2.268958e-05
0.0001549154
-2.47159e-05
0.000138572
-2.659288e-05
0.0001228503
-2.845245e-05
0.0001076161
-3.030145e-05
9.278336e-05
-3.213728e-05
7.828718e-05
-3.394e-05
6.405806e-05
-3.568694e-05
5.002711e-05
-3.734513e-05
3.611489e-05
-3.8875e-05
2.22481e-05
-4.010973e-05
8.435188e-06
-4.120708e-05
-5.444237e-06
-4.215958e-05
-1.958235e-05
-4.29657e-05
-3.397904e-05
-4.363238e-05
-4.871791e-05
-4.416685e-05
-6.389559e-05
-4.457867e-05
-7.961327e-05
-4.487899e-05
-9.59802e-05
-4.508055e-05
-0.000113115
-4.519627e-05
-0.0001311474
-4.523939e-05
-0.0001502215
-4.520801e-05
-0.0001704962
-4.512268e-05
-0.0001921617
-4.498525e-05
-0.0002154051
-4.472088e-05
-0.0002404313
-4.422431e-05
-0.0002675856
-4.337746e-05
-0.0002973556
-4.196429e-05
-0.000330426
-3.980331e-05
-0.0003673445
-3.705204e-05
-0.0004079689
-3.380016e-05
-0.0004518355
-3.004809e-05
-0.0004981085
-2.580953e-05
-0.0005456651
-2.127072e-05
-0.0005936338
-1.669915e-05
-0.0006429314
-1.223002e-05
-0.0006957367
-7.90259e-06
-0.0007544682
-3.85109e-06
-0.0008235219
-0.0008938262
8.959925e-07
0.0006506529
3.954081e-06
0.0006307468
8.569743e-06
0.0005974059
1.357798e-05
0.0005666491
1.835789e-05
0.0005370775
2.250423e-05
0.0005083361
2.58082e-05
0.0004805229
2.851065e-05
0.0004534964
3.063849e-05
0.0004273617
3.223677e-05
0.0004020946
3.304568e-05
0.0003778089
3.286859e-05
0.0003545306
3.192595e-05
0.000331963
3.03423e-05
0.0003101583
2.818795e-05
0.0002891537
2.556018e-05
0.0002688625
2.259459e-05
0.000249141
1.942371e-05
0.0002298807
1.618834e-05
0.0002110611
1.303129e-05
0.0001927109
1.005812e-05
0.0001748866
7.328686e-06
0.0001576448
4.926959e-06
0.0001409737
2.860679e-06
0.0001249167
9.903646e-07
0.0001094865
-7.67101e-07
9.454087e-05
-2.431876e-06
7.995201e-05
-4.025854e-06
6.565209e-05
-5.562339e-06
5.156365e-05
-7.069137e-06
3.762173e-05
-8.561062e-06
2.374007e-05
-9.965035e-06
9.839204e-06
-1.126064e-05
-4.148592e-06
-1.252389e-05
-1.831907e-05
-1.37236e-05
-3.27793e-05
-1.485324e-05
-4.758825e-05
-1.59125e-05
-6.283632e-05
-1.69047e-05
-7.862106e-05
-1.78369e-05
-9.5048e-05
-1.872006e-05
-0.0001122318
-1.956934e-05
-0.0001302981
-2.04053e-05
-0.0001493855
-2.125228e-05
-0.0001696493
-2.214915e-05
-0.0001912649
-2.311043e-05
-0.0002144439
-2.406132e-05
-0.0002394805
-2.476357e-05
-0.0002668834
-2.484548e-05
-0.0002972738
-2.422267e-05
-0.0003310489
-2.316301e-05
-0.0003684043
-2.176123e-05
-0.0004093709
-2.002632e-05
-0.0004535706
-1.794797e-05
-0.0005001871
-1.549195e-05
-0.0005481213
-1.272991e-05
-0.000596396
-9.891262e-06
-0.0006457702
-7.175637e-06
-0.0006984525
-4.610483e-06
-0.0007570336
-2.292195e-06
-0.0008258406
-0.0008961184
2.238346e-06
0.0006484153
6.87532e-06
0.0006261105
1.303496e-05
0.0005912468
1.951841e-05
0.000560166
2.565395e-05
0.0005309422
3.113704e-05
0.0005028531
3.596064e-05
0.0004756993
4.005508e-05
0.0004494019
4.341164e-05
0.000424005
4.5986e-05
0.0003995201
4.779569e-05
0.000375999
4.903099e-05
0.0003532951
4.95052e-05
0.0003314887
4.916682e-05
0.0003104965
4.80927e-05
0.0002902278
4.634643e-05
0.0002706086
4.405678e-05
0.0002514305
4.136844e-05
0.0002325689
3.845259e-05
0.0002139769
3.548417e-05
0.0001956793
3.262122e-05
0.0001777495
2.99905e-05
0.0001602756
2.763526e-05
0.000143329
2.556032e-05
0.0001269916
2.371975e-05
0.0001113271
2.200409e-05
9.625656e-05
2.030529e-05
8.165084e-05
1.858719e-05
6.737023e-05
1.686324e-05
5.328763e-05
1.515393e-05
3.933109e-05
1.346571e-05
2.542833e-05
1.180524e-05
1.149971e-05
1.019201e-05
-2.535335e-06
8.567519e-06
-1.669455e-05
6.975824e-06
-3.118758e-05
5.420061e-06
-4.603246e-05
3.900111e-06
-6.131636e-05
2.413242e-06
-7.713418e-05
9.530779e-07
-9.358783e-05
-4.910782e-07
-0.0001107877
-1.935408e-06
-0.0001288538
-3.403296e-06
-0.0001479177
-4.928312e-06
-0.0001681243
-6.556719e-06
-0.0001896365
-8.308567e-06
-0.0002126921
-1.003986e-05
-0.0002377493
-1.147436e-05
-0.000265449
-1.24197e-05
-0.0002963286
-1.279786e-05
-0.0003306709
-1.26245e-05
-0.0003685778
-1.209477e-05
-0.0004099007
-1.137834e-05
-0.0004542872
-1.040452e-05
-0.000501161
-9.109283e-06
-0.0005494167
-7.550759e-06
-0.0005979547
-5.916441e-06
-0.0006474047
-4.348114e-06
-0.000700021
-2.823504e-06
-0.0007585584
-1.369967e-06
-0.0008272944
-0.0008974884
2.665925e-06
0.0006457502
8.302917e-06
0.0006204743
1.552617e-05
0.0005840242
2.312679e-05
0.0005525658
3.044142e-05
0.0005236278
3.715565e-05
0.000496139
4.311444e-05
0.0004697405
4.821599e-05
0.0004443002
5.243723e-05
0.0004197837
5.579271e-05
0.0003961645
5.839313e-05
0.0003733984
6.023355e-05
0.0003514545
6.137183e-05
0.0003303502
6.181741e-05
0.0003100508
6.151775e-05
0.0002905273
6.050404e-05
0.0002716222
5.880714e-05
0.0002531273
5.656956e-05
0.0002348065
5.397499e-05
0.0002165714
5.121814e-05
0.0001984361
4.847086e-05
0.0001804968
4.58589e-05
0.0001628875
4.34491e-05
0.0001457388
4.127589e-05
0.0001291649
3.935794e-05
0.0001132451
3.762539e-05
9.798914e-05
3.594675e-05
8.332951e-05
3.421659e-05
6.910043e-05
3.239384e-05
5.511041e-05
3.05017e-05
4.122326e-05
2.858161e-05
2.734846e-05
2.666052e-05
1.342083e-05
2.475428e-05
-6.290645e-07
2.283052e-05
-1.477076e-05
2.092665e-05
-2.928369e-05
1.90427e-05
-4.414849e-05
1.7177e-05
-5.945065e-05
1.532489e-05
-7.528206e-05
1.347822e-05
-9.174116e-05
1.162468e-05
-0.0001089342
9.74684e-06
-0.000126976
7.821112e-06
-0.000145992
5.815527e-06
-0.0001661187
3.706466e-06
-0.0001875275
1.588353e-06
-0.000210574
-3.301409e-07
-0.0002358309
-1.923146e-06
-0.0002638561
-3.188819e-06
-0.000295063
-4.133086e-06
-0.0003297267
-4.763124e-06
-0.0003679479
-5.04394e-06
-0.0004096201
-4.904965e-06
-0.0004544263
-4.448874e-06
-0.0005016172
-3.796691e-06
-0.000550069
-2.999414e-06
-0.0005987521
-2.185972e-06
-0.0006482182
-1.446018e-06
-0.0007007611
-8.144032e-07
-0.0007591902
-3.427107e-07
-0.0008277662
-0.0008978311
2.906952e-06
0.0006428443
9.047273e-06
0.0006143349
1.685001e-05
0.0005762221
2.50778e-05
0.0005443385
3.306568e-05
0.0005156402
4.047522e-05
0.0004887296
4.712935e-05
0.0004630864
5.293073e-05
0.0004384988
5.784327e-05
0.000414871
6.186513e-05
0.0003921424
6.500224e-05
0.0003702611
6.72724e-05
0.0003491841
6.875012e-05
0.0003288723
6.950871e-05
0.000309292
6.961167e-05
0.0002904241
6.902091e-05
0.0002722128
6.772793e-05
0.0002544202
6.578344e-05
0.0002367508
6.33672e-05
0.0002189876
6.069706e-05
0.0002011062
5.797147e-05
0.0001832224
5.533643e-05
0.0001655225
5.287352e-05
0.0001482017
5.061312e-05
0.0001314253
4.855551e-05
0.0001153027
4.667923e-05
9.986544e-05
4.493904e-05
8.506973e-05
4.323661e-05
7.080288e-05
4.146563e-05
5.688142e-05
3.958798e-05
4.310094e-05
3.762336e-05
2.931311e-05
3.560667e-05
1.543755e-05
3.356285e-05
1.414781e-06
3.148684e-05
-1.269472e-05
2.940747e-05
-2.72043e-05
2.733004e-05
-4.207104e-05
2.525586e-05
-5.737646e-05
2.318282e-05
-7.320901e-05
2.1105e-05
-8.966335e-05
1.901211e-05
-0.0001068413
1.688853e-05
-0.0001248524
1.471149e-05
-0.0001438149
1.245183e-05
-0.0001638591
1.014293e-05
-0.0001852186
7.920666e-06
-0.0002083518
5.912131e-06
-0.0002338224
4.169867e-06
-0.0002621139
2.702004e-06
-0.0002935952
1.464265e-06
-0.0003284891
4.080467e-07
-0.0003668918
-4.509117e-07
-0.0004087612
-1.09164e-06
-0.0004537857
-1.472459e-06
-0.0005012365
-1.564172e-06
-0.0005499774
-1.391217e-06
-0.0005989251
-1.075876e-06
-0.0006485337
-7.578782e-07
-0.0007010792
-4.456385e-07
-0.0007595025
-1.664247e-07
-0.0008280455
-0.0008979975
2.884896e-06
0.0006399605
9.202591e-06
0.0006080181
1.723522e-05
0.0005681902
2.57467e-05
0.0005358275
3.407677e-05
0.0005073105
4.186327e-05
0.0004809432
4.890721e-05
0.0004560424
5.509873e-05
0.0004323071
6.03869e-05
0.0004095826
6.475719e-05
0.0003877718
6.821653e-05
0.0003668015
7.079024e-05
0.0003466101
7.251873e-05
0.0003271435
7.346727e-05
0.0003083432
7.372422e-05
0.000290167
7.336832e-05
0.0002725686
7.235601e-05
0.0002554323
7.065857e-05
0.0002384482
6.839715e-05
0.0002212489
6.579853e-05
0.0002037047
6.308439e-05
0.0001859364
6.042025e-05
0.0001681867
5.790395e-05
0.000150718
5.557713e-05
0.0001337521
5.34398e-05
0.00011744
5.145956e-05
0.0001018457
4.958825e-05
8.694105e-05
4.777578e-05
7.261538e-05
4.595753e-05
5.869969e-05
4.406865e-05
4.498985e-05
4.209354e-05
3.128825e-05
4.005534e-05
1.747578e-05
3.797528e-05
3.494865e-06
3.586112e-05
-1.058054e-05
3.372494e-05
-2.50681e-05
3.157836e-05
-3.992444e-05
2.942505e-05
-5.522313e-05
2.726572e-05
-7.104968e-05
2.509738e-05
-8.7495e-05
2.2913e-05
-0.0001046569
2.070029e-05
-0.0001226397
1.843953e-05
-0.0001415542
1.612204e-05
-0.0001615416
1.381763e-05
-0.0001829143
1.163429e-05
-0.0002061685
9.63334e-06
-0.0002318215
7.852588e-06
-0.0002603332
6.307148e-06
-0.0002920499
4.99521e-06
-0.0003271773
3.900901e-06
-0.0003657976
2.983496e-06
-0.0004078439
2.210774e-06
-0.0004530131
1.600819e-06
-0.0005006267
1.178132e-06
-0.0005495548
9.052615e-07
-0.0005986524
7.141322e-07
-0.0006483426
5.347129e-07
-0.0007008998
3.618779e-07
-0.0007593298
1.925943e-07
-0.0008278764
-0.0008978049
2.628679e-06
0.000637333
8.87675e-06
0.0006017711
1.68667e-05
0.0005602011
2.539802e-05
0.0005272967
3.380093e-05
0.0004989079
4.17028e-05
0.0004730414
4.888554e-05
0.0004488596
5.522645e-05
0.000425966
6.066232e-05
0.0004041464
6.516959e-05
0.0003832643
6.875209e-05
0.0003632186
7.143525e-05
0.0003439267
7.326336e-05
0.0003253151
7.429094e-05
0.0003073153
7.459839e-05
0.0002898593
7.427961e-05
0.0002728871
7.338558e-05
0.0002563262
7.186509e-05
0.0002399685
6.974209e-05
0.0002233718
6.722349e-05
0.0002062233
6.454605e-05
0.0001886138
6.18922e-05
0.0001708405
5.936828e-05
0.0001532419
5.70166e-05
0.0001361038
5.483603e-05
0.0001196206
5.27983e-05
0.0001038834
5.085965e-05
8.887972e-05
4.897099e-05
7.450406e-05
4.70884e-05
6.058231e-05
4.517278e-05
4.69055e-05
4.320292e-05
3.325814e-05
4.118156e-05
1.949716e-05
3.911675e-05
5.5597e-06
3.707705e-05
-8.540823e-06
3.495611e-05
-2.294713e-05
3.282316e-05
-3.779148e-05
3.06825e-05
-5.308246e-05
2.853478e-05
-6.890195e-05
2.637869e-05
-8.53389e-05
2.421053e-05
-0.0001024887
2.202305e-05
-0.0001204522
1.980402e-05
-0.0001393352
1.756673e-05
-0.0001593044
1.536577e-05
-0.0001807134
1.326404e-05
-0.0002040668
1.131141e-05
-0.000229869
9.540302e-06
-0.0002585622
7.964498e-06
-0.0002904742
6.584064e-06
-0.0003257969
5.395738e-06
-0.0003646093
4.4014e-06
-0.0004068497
3.601848e-06
-0.0004522136
2.977486e-06
-0.0005000024
2.493683e-06
-0.0005490711
2.111379e-06
-0.0005982701
1.753302e-06
-0.0006479846
1.377095e-06
-0.0007005236
9.781194e-07
-0.0007589308
5.337862e-07
-0.0008274321
-0.0008972712
2.254552e-06
0.0006350798
8.227341e-06
0.0005957995
1.598366e-05
0.0005524456
2.431337e-05
0.0005189676
3.257069e-05
0.0004906509
4.036474e-05
0.0004652475
4.746737e-05
0.0004417569
5.374426e-05
0.0004196889
5.912441e-05
0.000398766
6.357971e-05
0.0003788086
6.711332e-05
0.0003596846
6.975252e-05
0.0003412871
7.154399e-05
0.0003235233