/*--------------------------------*- C++ -*----------------------------------*\
| =========                 |                                                 |
| \\      /  F ield         | OpenFOAM: The Open Source CFD Toolbox           |
|  \\    /   O peration     | Version:  2312                                  |
|   \\  /    A nd           | Website:  www.openfoam.com                      |
|    \\/     M anipulation  |                                                 |
\*---------------------------------------------------------------------------*/
FoamFile
{
    version     2.0;
    format      ascii;
    arch        "LSB;label=32;scalar=64";
    class       volScalarField;
    location    "3000";
    object      qr;
}
// * * * * * * * * * * * * * * * * * * * * * * * * * * * * * * * * * * * * * //

dimensions      [1 0 -3 0 0 0 0];

internalField   uniform 0;

boundaryField
{
    plate
    {
        type            calculated;
        value           nonuniform List<scalar> 
200
(
-615.5048
-644.6711
-647.2413
-717.5013
-834.4846
-916.7045
-791.0274
-783.2175
-1054.285
-1317.558
-1795.689
-2014.143
-2388.947
-1962.215
-1775.243
-1685.276
-1608.624
-1552.549
-1476.006
-1404.742
-1331.051
-1241.25
-1162.563
-1091.657
-1042.699
-1025.47
-1047.43
-1101.528
-1188.678
-1284.247
-1392.281
-1425.071
-1367.987
-5117.819
-5008.315
-4927.156
-4880.05
-4850.878
-4821.26
-4774.441
-4695.358
-4576.692
-4425.224
-4262.354
-4116.924
-4010.058
-3941.521
-3891.747
-3831.882
-3730.833
-3561.062
-3308.295
-3011.992
-2812.216
-2763.014
-2791.033
-2835.111
-2861.833
-2860.374
-2837.946
-2809.382
-2787.824
-2779.179
-2781.917
-2790.134
-2797.615
-2801.039
-2801.125
-2801.311
-2805.038
-2813.393
-2824.527
-2835.001
-2841.625
-2843.406
-2841.336
-2837.652
-2834.439
-2832.668
-2832.128
-2832.072
-2832.17
-2833.059
-2836.26
-2843.399
-2855.29
-2871.279
-2889.274
-2906.412
-2919.979
-2928.34
-2931.216
-2929.674
-2925.408
-2920.254
-2915.499
-2911.861
-2909.391
-2907.907
-2907.05
-2906.643
-2906.501
-2906.624
-2906.913
-2907.42
-2908.119
-2909.187
-2910.73
-2912.963
-2915.893
-2919.461
-2923.352
-2927.215
-2930.588
-2933.197
-2934.831
-2935.446
-2935.233
-2934.272
-2932.775
-2930.913
-2928.735
-2926.445
-2924.386
-2922.556
-2921.004
-2919.862
-2919.067
-2918.577
-2918.432
-2918.749
-2919.759
-2921.47
-2923.547
-2924.95
-2924.124
-2919.199
-2908.822
-2892.724
-2872.414
-2850.995
-2832.603
-2821.173
-2819.206
-2827.035
-2842.734
-2862.903
-2883.712
-2901.794
-2914.943
-2921.785
-2922.014
-2915.711
-2904.17
-2889.58
-2875.694
-2866.739
-2866.55
-2876.606
-2895.089
-2916.547
-2934.639
-2944.441
-2946.536
-2945.276
-2948.222
-2959.708
-2979.623
-2998.287
-3002.983
-2980.969
-2935.238
-2882.724
-2851.512
-2863.537
-2924.711
-3018.122
-3112.526
-3167.426
-3166.271
-3110.268
-3034.821
-2973.336
-2956.284
-2987.751
-3075.191
-3185.782
-3321.328
-3385.72
-3426.496
-3350.139
-3371.043
-3444.246
-3594.836
-1884.438
-794.7051
-10.00638
536.5454
733.2937
808.0595
)
;
    }
    riser
    {
        type            calculated;
        value           nonuniform List<scalar> 
200
(
1246.598
1332.933
1375.668
1432.392
1496.879
1562.065
1614.601
1640.9
1632.093
1593.434
1548.345
1522.682
1524.606
1548.474
1589.993
1644.181
1702.599
1762.295
1825.856
1888.602
1937.254
1964.746
1979.875
1996.186
2014.405
2026.187
2042.52
2103.378
2231.3
2379.625
2462.689
2461.511
2440.003
2429.424
2407.73
2404.481
2483.956
2626.658
2743.07
2785.008
2777.892
2766.222
2766.042
2771.336
2779.343
2797.514
2831.825
2876.718
2918.221
2943.923
2948.826
2934.912
2907.974
2873.195
2831.697
2782.674
2729.307
2680.306
2644.984
2628.325
2630.417
2648.326
2677.331
2711.395
2744.3
2771.572
2791.742
2805.838
2815.526
2821.466
2823.066
2819.546
2811.206
2799.863
2788.173
2778.379
2771.303
2766.108
2760.877
2753.619
2743.181
2729.673
2714.317
2698.886
2685.048
2673.902
2665.831
2660.611
2657.638
2656.146
2655.347
2654.529
2653.137
2650.867
2647.742
2644.127
2640.646
2638.028
2636.912
2637.673
2640.341
2644.61
2649.938
2655.684
2661.248
2666.179
2670.216
2673.298
2675.527
2677.121
2678.36
2679.528
2680.866
2682.534
2684.581
2686.937
2689.432
2691.821
2693.831
2695.193
2695.688
2695.181
2693.67
2691.301
2688.379
2685.353
2682.771
2681.187
2681.054
2682.637
2685.954
2690.777
2696.675
2703.112
2709.557
2715.593
2720.999
2725.811
2730.324
2735.056
2740.625
2747.553
2756.019
2765.626
2775.314
2783.511
2788.567
2789.376
2785.966
2779.793
2773.519
2770.227
2772.292
2780.302
2792.519
2805.195
2813.747
2814.326
2805.085
2786.501
2760.63
2729.793
2695.581
2658.87
2620.943
2584.951
2556.455
2542.131
2546.852
2570.757
2608.308
2650.264
2687.573
2714.859
2731.264
2737.849
2733.295
2711.739
2665.895
2594.596
2508.646
2428.547
2374.127
2354.261
2365.334
2398.137
2442.329
2480.012
2479.68
2413.705
2290.259
2155.95
2055.42
2005.443
2016.588
2090.542
2166.919
2152.586
2043.168
1806.06
)
;
    }
    topAndBottom
    {
        type            calculated;
        value           nonuniform List<scalar> 
120
(
-1409.945
-1207.047
-935.7947
-664.9596
-471.8581
-362.8775
-304.7836
-257.1167
-198.776
-125.9654
-44.59026
35.01041
102.5382
154.0177
193.1103
225.0359
252.0466
275.5171
297.3098
317.5349
334.6172
348.6258
361.4118
374.1416
386.1447
396.8329
405.9573
413.5447
419.8713
425.57
431.422
438.0863
445.8711
454.6461
463.9025
472.8907
480.7544
486.6619
489.9886
490.5461
488.738
485.4787
481.8328
478.5218
475.5954
472.5077
468.5965
463.6378
458.0664
452.6777
448.0421
444.0419
439.8701
434.5945
428.0055
420.9494
414.768
411.2509
426.4775
576.8844
-65.73189
85.02157
106.6005
124.5539
166.5942
227.3903
280.7922
303.2482
291.3308
259.4461
225.2786
198.5021
180.2606
170.6543
176.7264
213.1376
293.3294
418.0192
570.509
722.2195
844.407
918.9555
942.8522
925.5046
882.1015
827.2247
771.2289
719.6402
674.4559
635.9449
603.9779
578.5717
559.8324
547.6386
541.2957
539.3313
539.9507
542.0415
545.0929
548.1867
549.5304
548.6856
548.0015
549.5015
551.3848
551.0114
549.7754
549.7445
549.1525
545.6812
541.3779
540.3482
544.792
555.9913
575.5088
604.0791
639.1862
686.3705
740.011
856.9268
)
;
    }
    frontAndBack
    {
        type            empty;
    }
}


// ************************************************************************* //
