/*--------------------------------*- C++ -*----------------------------------*\
| =========                 |                                                 |
| \\      /  F ield         | OpenFOAM: The Open Source CFD Toolbox           |
|  \\    /   O peration     | Version:  2312                                  |
|   \\  /    A nd           | Website:  www.openfoam.com                      |
|    \\/     M anipulation  |                                                 |
\*---------------------------------------------------------------------------*/
FoamFile
{
    version     2.0;
    format      ascii;
    arch        "LSB;label=32;scalar=64";
    class       volScalarField;
    location    "3000";
    object      T;
}
// * * * * * * * * * * * * * * * * * * * * * * * * * * * * * * * * * * * * * //

dimensions      [0 0 0 1 0 0 0];

internalField   nonuniform List<scalar> 
12000
(
442.8586
434.2654
433.2133
433.0573
433.0092
432.9735
432.9408
432.9095
432.8787
432.8472
432.8146
432.7812
432.7467
432.7103
432.6712
432.6298
432.5866
432.5409
432.4921
432.4401
432.3854
432.328
432.2675
432.2038
432.1369
432.0669
431.9935
431.9165
431.836
431.7534
431.6694
431.5829
431.4897
431.3844
431.2684
431.1597
431.0738
430.9789
430.8207
430.6017
430.4172
430.311
430.1678
429.8827
429.5667
429.3646
429.1622
428.8006
428.3642
427.9958
427.6175
427.0922
426.4538
425.7779
425.0173
424.046
422.8423
421.0875
418.6432
414.3105
442.9148
434.8624
434.1299
434.2627
434.5224
434.8026
435.0891
435.3756
435.6474
435.8974
436.1367
436.3708
436.5942
436.7885
436.9564
437.1152
437.2722
437.413
437.5274
437.6245
437.7167
437.8023
437.8726
437.9267
437.9719
438.0138
438.05
438.0724
438.0788
438.0787
438.0799
438.0762
438.0589
438.0254
437.9824
437.934
437.8738
437.8001
437.7091
437.6021
437.4826
437.3473
437.1908
437.0085
436.8017
436.5664
436.2972
435.9843
435.6262
435.2164
434.7364
434.1712
433.5056
432.7155
431.7769
430.5811
428.9909
426.6415
423.0268
416.5519
443.5156
435.6405
434.9258
435.2103
435.6842
436.1901
436.6915
437.1751
437.6325
438.0535
438.4429
438.8041
439.1383
439.4428
439.7182
439.9681
440.1958
440.4018
440.5861
440.7503
440.8969
441.0276
441.1428
441.2432
441.3299
441.4046
441.4678
441.5195
441.5595
441.588
441.6067
441.6178
441.6174
441.6068
441.581
441.541
441.4886
441.4239
441.3454
441.2505
441.1386
441.0091
440.8601
440.689
440.4932
440.2678
440.0115
439.7194
439.3872
439.0019
438.5538
438.0278
437.4088
436.6586
435.7057
434.4733
432.8271
430.4109
426.2622
417.6465
444.4464
436.3472
435.5853
435.9457
436.5488
437.1917
437.8243
438.4254
438.9935
439.5243
440.016
440.4682
440.8821
441.2611
441.6047
441.9163
442.1987
442.4546
442.6858
442.8944
443.0822
443.2507
443.4011
443.5345
443.6522
443.755
443.8438
443.9189
443.9807
444.0286
444.0631
444.0842
444.0922
444.0877
444.0672
444.0298
443.9769
443.909
443.8257
443.7246
443.6036
443.4623
443.2982
443.1106
442.8951
442.6482
442.3658
442.0436
441.6779
441.257
440.7732
440.2151
439.5533
438.7497
437.771
436.5379
434.8825
432.4387
428.1697
418.4409
445.4459
437.0235
436.1885
436.5808
437.2637
437.9962
438.7131
439.392
440.0257
440.6183
441.1689
441.6772
442.1438
442.5719
442.9619
443.3165
443.6388
443.9313
444.1962
444.4361
444.6531
444.8486
445.0237
445.1796
445.3174
445.4379
445.5421
445.6304
445.7034
445.7611
445.804
445.8305
445.8427
445.8385
445.817
445.7788
445.7237
445.6518
445.5619
445.4525
445.322
445.1682
444.9891
444.7828
444.5452
444.2726
443.9607
443.6045
443.1975
442.7332
442.2027
441.5915
440.8785
440.0332
439.0153
437.7523
436.0912
433.6746
429.4188
419.0404
446.5055
437.6824
436.7334
437.1067
437.8192
438.6001
439.3694
440.1013
440.7869
441.424
442.0136
442.5583
443.0617
443.5253
443.9496
444.3368
444.689
445.0089
445.2986
445.5605
445.7972
446.0102
446.2007
446.37
446.5191
446.6492
446.761
446.8554
446.9329
446.9938
447.0386
447.0668
447.0782
447.0714
447.0474
447.0061
446.9472
446.8705
446.7746
446.6581
446.5193
446.3559
446.1656
445.9454
445.6916
445.4002
445.0663
444.6846
444.2491
443.7524
443.1833
442.5279
441.7693
440.883
439.8292
438.5355
436.8552
434.4374
430.2019
419.4656
447.5338
438.3224
437.2434
437.5697
438.281
439.0832
439.8816
440.6442
441.3604
442.0274
442.6457
443.2171
443.7449
444.2321
444.6802
445.0902
445.4639
445.8032
446.1103
446.3875
446.6368
446.86
447.0587
447.2343
447.3881
447.5214
447.6351
447.7302
447.8074
447.8672
447.9098
447.9352
447.9432
447.9333
447.9062
447.8619
447.7999
447.7195
447.6196
447.4986
447.3547
447.1856
446.9884
446.7599
446.4961
446.1926
445.8441
445.445
444.9881
444.4642
443.8627
443.1712
442.3745
441.4504
440.3624
439.0419
437.3479
434.9387
430.7344
419.7756
448.6224
438.9525
437.7276
437.9846
438.669
439.4695
440.2785
441.0574
441.7924
442.4795
443.1182
443.7099
444.2565
444.7602
445.2237
445.6488
446.0369
446.3895
446.7084
446.9953
447.2522
447.4809
447.6833
447.8608
448.0152
448.1477
448.2596
448.3521
448.426
448.482
448.5205
448.5418
448.5457
448.5324
448.5023
448.4552
448.3907
448.3079
448.2057
448.0824
447.9361
447.7642
447.5638
447.3314
447.0627
446.7531
446.3969
445.9871
445.5155
444.9724
444.3469
443.6269
442.7988
441.8443
440.7307
439.3912
437.6859
435.2772
431.0974
419.9915
449.8625
439.5857
438.196
438.3705
439.0115
439.7942
440.6002
441.3842
442.1291
442.8287
443.4815
444.088
444.6491
445.1662
445.6411
446.0758
446.4721
446.8317
447.1565
447.4479
447.7078
447.938
448.1403
448.3165
448.4683
448.5973
448.7051
448.7929
448.8618
448.9128
448.9465
448.9632
448.9632
448.9468
448.914
448.8649
448.7988
448.7148
448.6118
448.488
448.3414
448.1694
447.9688
447.7359
447.4664
447.1551
446.7954
446.3798
445.8991
445.3425
444.697
443.9497
443.0892
442.1046
440.9701
439.6183
437.9083
435.5068
431.3529
420.1679
451.1806
440.2246
438.6566
438.7391
439.3239
440.076
440.8677
441.6475
442.3942
443.0995
443.7604
444.3762
444.9472
445.4743
445.9584
446.401
446.8035
447.1676
447.4953
447.7881
448.0481
448.277
448.4768
448.6494
448.7967
448.9206
449.0229
449.105
449.1683
449.2139
449.2425
449.2548
449.2512
449.2319
449.197
449.1463
449.0793
448.995
448.8921
448.7689
448.6232
448.4524
448.2531
448.0216
447.7533
447.4424
447.0822
446.6647
446.1801
445.617
444.9559
444.1772
443.2796
442.268
441.123
439.7701
438.0601
435.6646
431.5344
420.3078
452.6137
440.8784
439.1122
439.0934
439.6129
440.3253
441.0949
441.8641
442.6076
443.3144
443.9799
444.602
445.1803
445.715
446.2065
446.6556
447.0632
447.4307
447.7596
448.0518
448.3095
448.5348
448.7299
448.897
449.0383
449.1559
449.2517
449.3274
449.3846
449.4245
449.4481
449.4562
449.4491
449.4272
449.3904
449.3386
449.2712
449.187
449.0847
448.9626
448.8185
448.6494
448.4523
448.223
447.9569
447.6482
447.29
446.8742
446.3888
445.8128
445.1262
444.3238
443.407
442.3781
441.2229
439.8684
438.1598
435.7719
431.6634
420.4374
454.0325
441.537
439.5695
439.4498
439.8999
440.5646
441.3036
442.0543
442.788
443.4911
444.157
444.782
445.3647
445.9042
446.4004
446.8539
447.2645
447.6338
447.9633
448.2549
448.5106
448.7323
448.9225
449.0838
449.2186
449.3294
449.4184
449.4875
449.5385
449.5728
449.5915
449.5954
449.5851
449.5607
449.5223
449.4696
449.4019
449.318
449.2166
449.0958
448.9533
448.7863
448.5915
448.3648
448.1015
447.7958
447.4409
447.0258
446.5315
445.9393
445.2387
444.4245
443.4953
442.4527
441.2883
439.9327
438.227
435.846
431.7577
420.5502
455.4301
442.2099
440.0373
439.8134
440.1912
440.8047
441.509
442.2374
442.9574
443.6527
444.3147
444.9384
445.5211
446.0609
446.5567
447.0081
447.4174
447.7871
448.1182
448.4112
448.6667
448.8855
449.071
449.2268
449.3555
449.4597
449.542
449.6046
449.6496
449.6784
449.6924
449.6924
449.6789
449.6523
449.6124
449.5589
449.491
449.4075
449.307
449.1876
449.0469
448.8821
448.6898
448.466
448.2058
447.9035
447.5495
447.1282
446.6235
446.0223
445.3142
444.4925
443.5549
442.5032
441.3309
439.9726
438.2701
435.8956
431.8245
420.657
456.6936
442.8998
440.5161
440.185
440.4889
441.049
441.7156
442.4183
443.1215
443.8061
444.4613
445.0807
445.6598
446.1956
446.6859
447.1322
447.5382
447.9058
448.2358
448.5285
448.7841
449.0035
449.1883
449.3406
449.463
449.5601
449.6357
449.6921
449.7313
449.755
449.7646
449.7609
449.7446
449.7158
449.6745
449.6201
449.552
449.4688
449.369
449.2508
449.1116
448.9488
448.7588
448.5378
448.2809
447.9805
447.623
447.1937
446.6807
446.073
445.3605
444.5349
443.5925
442.534
441.3547
439.9942
438.2955
435.9266
431.87
420.7494
457.8987
443.59
441.0013
440.5636
440.7943
441.3003
441.9275
442.6024
443.2863
443.9578
444.6039
445.2166
445.7902
446.3207
446.8051
447.2447
447.6441
448.0061
448.3323
448.6225
448.8764
449.0942
449.277
449.4268
449.5463
449.639
449.7086
449.7589
449.7927
449.8117
449.8172
449.8102
449.7912
449.7604
449.7177
449.6625
449.5939
449.5108
449.4116
449.2942
449.1563
448.995
448.807
448.5884
448.3332
448.0312
447.6691
447.2352
446.7174
446.1051
445.3887
444.5598
443.6136
442.5509
441.3679
440.0067
438.3108
435.9468
431.9026
420.8281
459.053
444.2796
441.4913
440.949
441.1082
441.5608
442.1483
442.7941
443.4571
444.1136
444.7488
445.3532
445.9201
446.4446
446.9236
447.3557
447.7456
448.0991
448.4185
448.7038
448.9541
449.169
449.3489
449.4953
449.6111
449.6998
449.7651
449.8108
449.8398
449.8546
449.8566
449.8465
449.8251
449.7925
449.7484
449.6922
449.6232
449.5399
449.4408
449.3238
449.1866
449.0263
448.8396
448.6224
448.3669
448.062
447.6965
447.2591
446.7387
446.1243
445.4051
444.5726
443.6229
442.5569
441.371
440.0092
438.3158
435.9557
431.92
420.8848
460.1606
444.9622
441.9834
441.3401
441.4306
441.8315
442.3798
442.9963
443.6376
444.278
444.9011
445.4959
446.0547
446.5722
447.0447
447.4705
447.8511
448.1933
448.5028
448.7805
449.0251
449.2352
449.4107
449.5528
449.6642
449.7486
449.8096
449.8512
449.8763
449.8876
449.8865
449.8739
449.8504
449.8161
449.7707
449.7137
449.644
449.5603
449.461
449.344
449.207
449.0472
448.8613
448.644
448.3868
448.0795
447.7113
447.271
446.7479
446.1313
445.411
444.5778
443.6267
442.5583
441.3697
440.0078
438.3174
435.9609
431.9318
420.9238
461.2294
445.6347
442.4761
441.7361
441.7611
442.1128
442.6232
443.2109
443.8304
444.4541
445.0642
445.6485
446.1983
446.7076
447.1724
447.5908
447.9624
448.2927
448.5899
448.8574
449.094
449.2975
449.4671
449.6037
449.71
449.7895
449.8461
449.8836
449.9052
449.9134
449.9097
449.895
449.8697
449.834
449.7874
449.7294
449.659
449.5747
449.475
449.3577
449.2206
449.0608
448.8748
448.6567
448.3979
448.0886
447.718
447.2754
446.7502
446.1318
445.4096
444.5747
443.6221
442.5528
441.364
440.0032
438.3152
435.9621
431.9387
420.9452
462.2579
446.2957
442.9677
442.136
442.0993
442.4046
442.879
443.4388
444.0368
444.6438
445.2403
445.8131
446.3527
446.8525
447.3082
447.7176
448.0803
448.3987
448.6819
448.937
449.1635
449.3587
449.521
449.651
449.7512
449.8253
449.8771
449.9106
449.9288
449.9341
449.9281
449.9115
449.8847
449.8477
449.8001
449.7413
449.67
449.5851
449.4847
449.3669
449.2293
449.069
448.8825
448.6634
448.4033
448.0921
447.7195
447.2748
446.7477
446.1276
445.4042
444.5684
443.6151
442.5449
441.3555
439.9957
438.3106
435.961
431.9424
420.9561
463.2471
446.94
443.4571
442.539
442.4443
442.7062
443.147
443.6803
444.2574
444.8476
445.4302
445.9908
446.519
447.0078
447.4527
447.8513
448.2033
448.5098
448.779
449.0202
449.2348
449.4201
449.5738
449.6961
449.7896
449.8577
449.9045
449.9338
449.9486
449.9512
449.943
449.9246
449.8965
449.8583
449.8098
449.7501
449.6782
449.5925
449.4915
449.3729
449.2346
449.0737
448.8863
448.6663
448.4049
448.0923
447.7179
447.2714
446.7425
446.1208
445.3962
444.5594
443.6055
442.5354
441.3467
439.9885
438.3059
435.9598
431.9466
420.9671
464.1935
447.5784
443.9456
442.9449
442.7956
443.0171
443.4264
443.9348
444.4919
445.0656
445.6339
446.1813
446.6969
447.1732
447.6054
447.9913
448.3307
448.6249
448.8801
449.1063
449.3079
449.4821
449.6261
449.74
449.826
449.8877
449.9292
449.9542
449.9656
449.9655
449.9552
449.9352
449.9057
449.8665
449.8171
449.7567
449.684
449.5977
449.496
449.3767
449.2375
449.0758
448.8876
448.6667
448.4042
448.0902
447.7143
447.2661
446.7356
446.1125
445.3867
444.5492
443.595
442.5251
441.3372
439.9806
438.3009
435.9586
431.9514
420.9816
465.0901
448.2044
444.4319
443.3529
443.1523
443.3364
443.7165
444.2016
444.7395
445.2968
445.8503
446.3837
446.8854
447.3474
447.7652
448.1366
448.4617
448.7422
448.9829
449.1941
449.3821
449.5443
449.6779
449.7826
449.8607
449.9158
449.9519
449.9725
449.9805
449.9778
449.9653
449.9437
449.9129
449.8726
449.8224
449.7613
449.688
449.6011
449.4987
449.3787
449.2387
449.0761
448.8871
448.6654
448.402
448.0868
447.7095
447.2598
446.7277
446.1034
445.3766
444.5385
443.5841
442.5147
441.328
439.9734
438.2965
435.9583
431.9576
421.0013
465.9377
448.8157
444.9149
443.7622
443.5137
443.663
444.0163
444.4796
444.9991
445.5401
446.0783
446.5965
447.0828
447.529
447.9305
448.2856
448.5947
448.8601
449.0857
449.282
449.4563
449.6061
449.7287
449.8239
449.8938
449.9422
449.9728
449.9891
449.9938
449.9884
449.9739
449.9506
449.9184
449.8772
449.8261
449.7643
449.6904
449.6029
449.4999
449.3792
449.2385
449.075
448.8852
448.6629
448.3987
448.0825
447.704
447.2529
446.7196
446.094
445.3663
444.5277
443.5734
442.5046
441.3193
439.9668
438.2927
435.9586
431.9649
421.0247
466.7268
449.423
445.3962
444.1728
443.8791
443.9961
444.3245
444.7674
445.2691
445.7936
446.3158
446.8177
447.2869
447.7155
448.0991
448.4363
448.7281
448.9771
449.1871
449.3688
449.5293
449.6667
449.7781
449.8635
449.9252
449.9669
449.9921
450.0043
450.0057
449.9978
449.9812
449.9563
449.9228
449.8805
449.8286
449.7661
449.6915
449.6034
449.4998
449.3786
449.2372
449.0729
448.8824
448.6594
448.3946
448.0777
447.6981
447.2459
446.7114
446.0848
445.3563
444.5173
443.5631
442.4951
441.3114
439.9612
438.2898
435.9599
431.9733
421.0504
467.4649
450.0264
445.876
444.5844
444.2478
444.3347
444.6399
445.0635
445.5478
446.0555
446.5605
447.0447
447.4953
447.9046
448.2687
448.5866
448.8599
449.0915
449.2858
449.4532
449.6004
449.7253
449.8255
449.9011
449.9547
449.9897
450.0099
450.0181
450.0164
450.0061
449.9876
449.9611
449.9264
449.883
449.8302
449.7669
449.6917
449.603
449.4988
449.3769
449.2349
449.0699
448.8786
448.6552
448.3899
448.0723
447.692
447.2389
446.7034
446.0761
445.3471
444.5078
443.5536
442.4864
441.3046
439.9565
438.2877
435.9619
431.9828
421.0784
468.163
450.6243
446.3543
444.9968
444.6194
444.678
444.9614
445.3664
445.8333
446.3235
446.8104
447.2752
447.7056
448.0941
448.4373
448.7348
448.9888
449.2024
449.381
449.5345
449.6686
449.7812
449.8703
449.9364
449.982
450.0108
450.0261
450.0306
450.0261
450.0135
449.9932
449.9652
449.9293
449.8849
449.8312
449.7672
449.6913
449.6019
449.4971
449.3746
449.2319
449.0662
448.8743
448.6503
448.3847
448.0667
447.6858
447.2319
446.6958
446.0678
445.3383
444.4987
443.5451
442.4791
441.2988
439.9525
438.2862
435.9646
431.9934
421.1091
468.838
451.2137
446.8319
445.4098
444.993
445.0248
445.2873
445.674
446.1231
446.5949
447.0622
447.5061
447.9147
448.281
448.6022
448.8787
449.113
449.3087
449.4717
449.6116
449.733
449.8338
449.9121
449.969
450.0071
450.03
450.0408
450.042
450.0348
450.0201
449.9981
449.9688
449.9317
449.8864
449.8319
449.7671
449.6904
449.6004
449.4949
449.3718
449.2285
449.0621
448.8695
448.645
448.3791
448.0608
447.6794
447.2249
446.6882
446.0596
445.3297
444.4906
443.5378
442.4728
441.2937
439.9491
438.2854
435.9681
432.005
421.144
469.4959
451.7897
447.3116
445.8237
445.3685
445.3743
445.6165
445.9849
446.4156
446.8678
447.3138
447.7352
448.1204
448.4634
448.7619
449.017
449.2314
449.4091
449.5571
449.6842
449.7935
449.8826
449.9507
449.9988
450.03
450.0475
450.0543
450.0524
450.0428
450.0262
450.0026
449.972
449.9339
449.8877
449.8324
449.7668
449.6895
449.5988
449.4926
449.3688
449.2249
449.0578
448.8646
448.6396
448.3735
448.0549
447.673
447.218
446.6807
446.0519
445.3224
444.4839
443.5317
442.4674
441.2894
439.9465
438.2853
435.9723
432.0181
421.1842
470.1481
452.3576
447.7901
446.2398
445.7457
445.7256
445.9473
446.2967
446.7079
447.139
447.5623
447.9597
448.3205
448.6393
448.9148
449.1484
449.3433
449.5036
449.6372
449.7522
449.8498
449.9279
449.986
450.026
450.0508
450.0635
450.0666
450.0619
450.0501
450.0317
450.0067
449.9749
449.9359
449.8888
449.8327
449.7664
449.6885
449.5971
449.4903
449.3659
449.2213
449.0537
448.8599
448.6345
448.3681
448.0492
447.6668
447.2113
446.6736
446.045
445.316
444.478
443.5264
442.4629
441.286
439.9447
438.2857
435.9767
432.0311
421.2287
470.7927
452.9132
448.2633
446.6561
446.1243
446.078
446.2789
446.6085
446.9989
447.4072
447.8061
448.1782
448.5136
448.8078
449.0602
449.2726
449.4485
449.5921
449.7123
449.8157
449.902
449.9695
450.0185
450.051
450.0699
450.0782
450.078
450.0707
450.0569
450.0369
450.0105
449.9776
449.9376
449.8898
449.833
449.766
449.6875
449.5955
449.4882
449.3632
449.218
449.0499
448.8556
448.6298
448.3631
448.0437
447.6608
447.2049
446.6672
446.0388
445.3103
444.4729
443.5219
442.4591
441.2833
439.9434
438.2867
435.9812
432.0437
421.2761
471.4254
453.4601
448.7297
447.0699
446.5036
446.4316
446.6106
446.9189
447.2866
447.6706
448.0436
448.3892
448.6985
448.9678
449.1971
449.3887
449.5462
449.6746
449.7826
449.8749
449.9503
450.0077
450.0481
450.0738
450.0875
450.0918
450.0887
450.079
450.0633
450.0417
450.0141
449.9802
449.9393
449.8907
449.8332
449.7657
449.6865
449.594
449.4862
449.3607
449.2151
449.0465
448.8518
448.6257
448.3586
448.0387
447.6554
447.1992
446.6616
446.0335
445.3055
444.4686
443.5183
442.4562
441.2813
439.9429
438.2881
435.986
432.0556
421.3234
472.0331
454.0022
449.1891
447.4798
446.8814
446.7842
446.9405
447.2258
447.569
447.9268
448.2726
448.591
448.8739
449.1185
449.3254
449.4969
449.6368
449.7514
449.8483
449.9298
449.9948
450.0429
450.0754
450.0948
450.1037
450.1045
450.0986
450.0868
450.0693
450.0463
450.0176
449.9827
449.941
449.8916
449.8335
449.7654
449.6857
449.5927
449.4844
449.3586
449.2126
449.0436
448.8486
448.6221
448.3547
448.0345
447.6508
447.1944
446.6568
446.0292
445.3017
444.4654
443.5157
442.4542
441.2801
439.9429
438.2899
435.9906
432.0664
421.3673
472.5934
454.5342
449.6404
447.8846
447.2562
447.1342
447.2669
447.5276
447.8445
448.1746
448.4921
448.7827
449.0393
449.2597
449.4449
449.5976
449.7211
449.8231
449.9095
449.9808
450.036
450.0753
450.1005
450.1142
450.1189
450.1165
450.1081
450.0942
450.0751
450.0507
450.0209
449.985
449.9425
449.8925
449.8338
449.7651
449.685
449.5916
449.4829
449.3567
449.2104
449.0412
448.8459
448.6193
448.3516
448.031
447.6471
447.1906
446.6532
446.0259
445.299
444.4634
443.5141
442.4531
441.2798
439.9436
438.2922
435.9954
432.0762
421.4048
473.1815
455.0458
450.0818
448.2831
447.6263
447.4793
447.5874
447.822
448.1111
448.4123
448.701
448.9638
449.1945
449.3915
449.556
449.6905
449.7996
449.8903
449.9667
450.0281
450.074
450.1051
450.1238
450.1324
450.1332
450.1279
450.1171
450.1014
450.0807
450.055
450.0241
449.9873
449.9441
449.8934
449.8341
449.765
449.6844
449.5906
449.4816
449.3552
449.2087
449.0393
448.844
448.6172
448.3493
448.0284
447.6442
447.1877
446.6505
446.0238
445.2975
444.4625
443.5137
442.4531
441.2803
439.9451
438.2951
436.0003
432.0849
421.4339
473.5911
455.5432
450.5144
448.6753
447.9908
447.8183
447.9004
448.1075
448.3675
448.6392
448.8989
449.1343
449.3399
449.5145
449.6593
449.7769
449.8729
449.9534
450.02
450.072
450.1091
450.1328
450.1454
450.1495
450.1468
450.1388
450.1258
450.1082
450.086
450.0591
450.0272
449.9896
449.9456
449.8942
449.8345
449.7649
449.6839
449.5898
449.4806
449.3539
449.2073
449.0379
448.8426
448.6158
448.3476
448.0265
447.6421
447.1857
446.649
446.0229
445.2973
444.4629
443.5145
442.4542
441.2819
439.9475
438.2987
436.0057
432.0931
421.4547
474.0154
456.0256
450.937
449.0597
448.348
448.1493
448.2043
448.3826
448.6128
448.8546
449.0856
449.2943
449.4758
449.629
449.7555
449.8576
449.9417
450.0126
450.0698
450.1126
450.1415
450.1585
450.1657
450.1656
450.1598
450.1491
450.1341
450.1147
450.0912
450.0631
450.0302
449.9917
449.9471
449.8951
449.8349
449.7649
449.6836
449.5892
449.4798
449.353
449.2064
449.037
448.8417
448.6149
448.3466
448.0253
447.6409
447.1847
446.6485
446.0231
445.2983
444.4645
443.5166
442.4565
441.2845
439.9507
438.3031
436.0116
432.1011
421.4689
474.4445
456.4942
451.3491
449.4355
448.6968
448.4713
448.498
448.6466
448.8464
449.0585
449.2614
449.4443
449.6028
449.7359
449.8448
449.9333
450.007
450.0683
450.1161
450.1503
450.1717
450.1824
450.1849
450.181
450.1722
450.1591
450.142
450.121
450.0961
450.0669
450.0331
449.9938
449.9485
449.896
449.8353
449.765
449.6834
449.5888
449.4793
449.3524
449.2058
449.0365
448.8414
448.6147
448.3463
448.0248
447.6404
447.1846
446.649
446.0244
445.3005
444.4673
443.5197
442.4598
441.288
439.9549
438.3084
436.0184
432.1096
421.4789
474.8712
456.9498
451.7514
449.8013
449.0357
448.7829
448.7805
448.8988
449.0683
449.2511
449.4267
449.585
449.7217
449.8359
449.9287
450.0049
450.0688
450.1205
450.1593
450.1852
450.1997
450.2049
450.2029
450.1956
450.1841
450.1687
450.1496
450.1271
450.1008
450.0706
450.0358
449.9959
449.9499
449.8969
449.8358
449.7651
449.6833
449.5886
449.479
449.3522
449.2056
449.0365
448.8417
448.6151
448.3466
448.025
447.6407
447.1853
446.6504
446.0268
445.3038
444.4713
443.5241
442.4642
441.2925
439.96
438.3145
436.026
432.1188
421.4872
475.2942
457.3933
452.145
450.1555
449.363
449.0831
449.0514
449.1392
449.2787
449.4329
449.5823
449.7171
449.8332
449.9295
450.008
450.0731
450.1272
450.1695
450.1995
450.2177
450.2258
450.2259
450.22
450.2096
450.1955
450.1778
450.157
450.1329
450.1054
450.0741
450.0384
449.9978
449.9512
449.8978
449.8363
449.7654
449.6834
449.5886
449.479
449.3522
449.2059
449.037
448.8424
448.616
448.3475
448.0258
447.6417
447.1868
446.6528
446.0303
445.3082
444.4765
443.5295
442.4697
441.298
439.9659
438.3216
436.0344
432.129
421.496
475.7146
457.8253
452.5291
450.4982
449.6784
449.3716
449.3103
449.368
449.478
449.6046
449.729
449.8416
449.9383
450.0179
450.0834
450.1382
450.1824
450.2154
450.2369
450.2479
450.2502
450.2457
450.2363
450.223
450.2063
450.1866
450.1639
450.1384
450.1096
450.0773
450.0409
449.9996
449.9525
449.8987
449.8369
449.7657
449.6836
449.5888
449.4792
449.3526
449.2065
449.0379
448.8437
448.6176
448.349
448.0274
447.6435
447.1892
446.6562
446.0347
445.3137
444.4827
443.536
442.4762
441.3044
439.9727
438.3294
436.0437
432.14
421.5067
476.1364
458.2468
452.9031
450.8294
449.982
449.6481
449.5575
449.5854
449.6668
449.767
449.8675
449.959
450.0374
450.102
450.1558
450.2002
450.2345
450.2583
450.2718
450.2761
450.2731
450.2644
450.2517
450.2357
450.2167
450.1949
450.1706
450.1436
450.1137
450.0804
450.0432
450.0013
449.9537
449.8995
449.8374
449.7661
449.684
449.5892
449.4797
449.3533
449.2075
449.0393
448.8456
448.6197
448.3511
448.0296
447.6461
447.1925
446.6605
446.0402
445.3203
444.49
443.5436
442.4835
441.3116
439.9802
438.3378
436.0535
432.1516
421.5194
476.5639
458.6586
453.2669
451.1493
450.2738
449.9129
449.7933
449.7922
449.846
449.9209
449.9988
450.0705
450.1317
450.1826
450.2251
450.259
450.2836
450.2985
450.3043
450.3024
450.2944
450.282
450.2662
450.2477
450.2265
450.2029
450.1769
450.1485
450.1175
450.0833
450.0453
450.0028
449.9548
449.9003
449.838
449.7666
449.6844
449.5897
449.4805
449.3544
449.2088
449.0411
448.8479
448.6224
448.3539
448.0324
447.6494
447.1966
446.6658
446.0467
445.3279
444.4983
443.5521
442.4918
441.3196
439.9884
438.3468
436.0638
432.1637
421.5332
476.9993
459.0616
453.6207
451.458
450.5541
450.1664
450.0182
449.989
450.0164
450.0672
450.1237
450.1765
450.2219
450.2601
450.2914
450.3148
450.3297
450.3361
450.3347
450.327
450.3144
450.2985
450.28
450.2591
450.2358
450.2103
450.1829
450.1532
450.1211
450.086
450.0473
450.0043
449.9559
449.9011
449.8386
449.7672
449.6851
449.5905
449.4815
449.3557
449.2106
449.0433
448.8506
448.6255
448.3572
448.036
447.6534
447.2016
446.672
446.0542
445.3364
444.5075
443.5614
442.5008
441.3282
439.9971
438.3563
436.0744
432.1762
421.5473
477.4408
459.4565
453.9646
451.756
450.8235
450.4091
450.233
450.1767
450.1788
450.2067
450.2429
450.278
450.3088
450.3346
450.3546
450.3676
450.373
450.3712
450.3631
450.3499
450.3332
450.314
450.2928
450.2697
450.2444
450.2173
450.1884
450.1575
450.1244
450.0885
450.0492
450.0056
449.9569
449.9019
449.8393
449.7679
449.6858
449.5915
449.4827
449.3573
449.2126
449.0459
448.8539
448.6291
448.361
448.0401
447.6582
447.2074
446.679
446.0625
445.3458
444.5176
443.5715
442.5105
441.3373
440.0062
438.3661
436.0854
432.189
421.5616
477.8835
459.8437
454.2995
452.0447
451.0818
450.6412
450.4384
450.356
450.334
450.3401
450.3569
450.3756
450.3925
450.406
450.4147
450.4173
450.4136
450.404
450.3896
450.3714
450.3508
450.3285
450.3049
450.2795
450.2524
450.2238
450.1936
450.1616
450.1275
450.0908
450.0509
450.0069
449.9578
449.9026
449.8401
449.7686
449.6868
449.5927
449.4842
449.3592
449.2151
449.049
448.8575
448.6332
448.3654
448.0449
447.6637
447.2139
446.6868
446.0717
445.3561
444.5284
443.5823
442.5207
441.3468
440.0156
438.3762
436.0966
432.202
421.5759
478.3212
460.2228
454.6263
452.3258
451.3295
450.8629
450.6348
450.5277
450.4827
450.4682
450.4668
450.4697
450.473
450.4742
450.4715
450.4641
450.4517
450.4347
450.4143
450.3914
450.3672
450.3421
450.316
450.2886
450.2598
450.2297
450.1983
450.1653
450.1303
450.0929
450.0525
450.0081
449.9588
449.9035
449.8409
449.7696
449.6879
449.5941
449.486
449.3615
449.2179
449.0524
448.8615
448.6376
448.3701
448.0502
447.6698
447.2212
446.6954
446.0816
445.367
444.5398
443.5936
442.5314
441.3567
440.0253
438.3865
436.1081
432.2153
421.5905
478.7484
460.5938
454.9455
452.5991
451.5678
451.0753
450.8231
450.6925
450.6257
450.5916
450.5728
450.5605
450.5501
450.5389
450.5252
450.5081
450.4873
450.4634
450.4374
450.4101
450.3825
450.3547
450.3263
450.2969
450.2666
450.2351
450.2026
450.1686
450.1329
450.0949
450.054
450.0092
449.9597
449.9043
449.8418
449.7706
449.6892
449.5957
449.488
449.364
449.221
449.0562
448.8659
448.6424
448.3754
448.056
447.6765
447.2291
446.7047
446.0921
445.3785
444.5518
443.6054
442.5424
441.3668
440.0352
438.397
436.1197
432.2288
421.6054
479.1618
460.956
455.2575
452.8651
451.7977
451.2795
451.0042
450.8512
450.7637
450.7107
450.675
450.6475
450.6236
450.6003
450.5758
450.5493
450.5206
450.4901
450.4589
450.4275
450.3967
450.3663
450.3358
450.3045
450.2726
450.24
450.2065
450.1717
450.1353
450.0967
450.0554
450.0103
449.9607
449.9053
449.8428
449.7718
449.6906
449.5975
449.4903
449.3668
449.2244
449.0604
448.8706
448.6475
448.381
448.0624
447.6838
447.2376
446.7146
446.1033
445.3906
444.5642
443.6175
442.5536
441.3771
440.0452
438.4077
436.1316
432.2426
421.6207
479.5611
461.3095
455.5624
453.1242
452.0203
451.4766
451.1791
451.0046
450.8974
450.8259
450.7733
450.7308
450.6935
450.6583
450.6234
450.5879
450.5516
450.515
450.4789
450.4437
450.4099
450.377
450.3444
450.3114
450.2781
450.2444
450.2099
450.1744
450.1374
450.0984
450.0567
450.0114
449.9617
449.9063
449.8439
449.7731
449.6923
449.5995
449.4928
449.3698
449.2281
449.0648
448.8757
448.653
448.387
448.0691
447.6917
447.2467
446.725
446.115
445.4031
444.577
443.6299
442.5651
441.3876
440.0554
438.4185
436.1436
432.2565
421.6365
479.948
461.6544
455.8605
453.3775
452.2376
451.6671
451.3479
451.1535
451.0266
450.9367
450.8675
450.8103
450.7599
450.7131
450.6681
450.624
450.5805
450.5382
450.4974
450.4587
450.4221
450.3869
450.3522
450.3176
450.283
450.2482
450.213
450.1768
450.1394
450.1
450.058
450.0126
449.9627
449.9073
449.8451
449.7746
449.6941
449.6017
449.4955
449.3731
449.232
449.0694
448.881
448.6589
448.3934
448.0764
447.7
447.2564
446.736
446.1271
445.416
444.5901
443.6425
442.5767
441.3982
440.0657
438.4295
436.1558
432.2707
421.6528
480.3247
461.9908
456.1522
453.6257
452.45
451.8523
451.5119
451.2977
451.1513
451.0431
450.9576
450.8859
450.8227
450.7647
450.71
450.6577
450.6074
450.5596
450.5146
450.4726
450.4333
450.3958
450.3592
450.3231
450.2873
450.2516
450.2156
450.179
450.1411
450.1014
450.0593
450.0137
449.9639
449.9086
449.8465
449.7762
449.696
449.6041
449.4984
449.3766
449.2362
449.0744
448.8866
448.665
448.4002
448.084
447.7088
447.2664
446.7474
446.1396
445.4292
444.6034
443.6553
442.5885
441.409
440.0762
438.4407
436.1682
432.285
421.6695
480.6907
462.3189
456.4378
453.8694
452.6585
452.0337
451.6714
451.437
451.2713
451.1452
451.0436
450.9577
450.882
450.8132
450.7492
450.6891
450.6325
450.5795
450.5305
450.4853
450.4436
450.404
450.3655
450.328
450.2911
450.2545
450.2179
450.1808
450.1427
450.1028
450.0605
450.0149
449.9651
449.9099
449.848
449.778
449.6982
449.6067
449.5015
449.3803
449.2406
449.0795
448.8925
448.6714
448.4073
448.092
447.718
447.277
446.7592
446.1524
445.4427
444.6169
443.6683
442.6004
441.4198
440.0867
438.4519
436.1807
432.2995
421.6864
481.0413
462.6382
456.7174
454.1091
452.8639
452.2117
451.8266
451.5716
451.3867
451.243
451.1257
451.0259
450.9381
450.8588
450.786
450.7184
450.6557
450.598
450.5452
450.4971
450.4529
450.4113
450.3712
450.3323
450.2943
450.257
450.2199
450.1824
450.144
450.1041
450.0617
450.0162
449.9664
449.9114
449.8497
449.78
449.7005
449.6095
449.5049
449.3843
449.2452
449.0849
448.8985
448.6781
448.4148
448.1005
447.7276
447.288
446.7714
446.1656
445.4564
444.6307
443.6814
442.6125
441.4307
440.0973
438.4633
436.1933
432.3143
421.7033
481.3751
462.9483
456.9916
454.3456
453.0666
452.3865
451.9778
451.7018
451.4977
451.3367
451.2039
451.0905
450.991
450.9017
450.8203
450.7457
450.6773
450.615
450.5587
450.5079
450.4615
450.4179
450.3762
450.336
450.2971
450.2591
450.2215
450.1838
450.1452
450.1052
450.0629
450.0175
449.9678
449.913
449.8516
449.7822
449.7031
449.6125
449.5084
449.3884
449.2501
449.0905
448.9049
448.6851
448.4226
448.1094
447.7377
447.2994
446.784
446.1791
445.4704
444.6446
443.6946
442.6246
441.4417
440.108
438.4747
436.206
432.3292
421.7202
481.6946
463.2487
457.2605
454.5792
453.2666
452.5581
452.1252
451.8278
451.6045
451.4263
451.2784
451.1519
451.041
450.942
450.8525
450.7711
450.6973
450.6308
450.5712
450.5177
450.4692
450.4239
450.3806
450.3393
450.2995
450.2608
450.2228
450.1849
450.1463
450.1063
450.0641
450.0188