/*--------------------------------*- C++ -*----------------------------------*\
| =========                 |                                                 |
| \\      /  F ield         | OpenFOAM: The Open Source CFD Toolbox           |
|  \\    /   O peration     | Version:  2312                                  |
|   \\  /    A nd           | Website:  www.openfoam.com                      |
|    \\/     M anipulation  |                                                 |
\*---------------------------------------------------------------------------*/
FoamFile
{
    version     2.0;
    format      ascii;
    arch        "LSB;label=32;scalar=64";
    class       volVectorField;
    location    "3000";
    object      U;
}
// * * * * * * * * * * * * * * * * * * * * * * * * * * * * * * * * * * * * * //

dimensions      [0 1 -1 0 0 0 0];

internalField   nonuniform List<vector> 
12000
(
(-0.02712571 0.06579015 0)
(-0.07078489 0.07655873 0)
(-0.1243803 0.08460238 0)
(-0.1766243 0.08906214 0)
(-0.2293521 0.09268738 0)
(-0.2798307 0.09178866 0)
(-0.3290285 0.08444794 0)
(-0.3718292 0.0787299 0)
(-0.413348 0.07101394 0)
(-0.4523793 0.0742487 0)
(-0.4910152 0.06567662 0)
(-0.524457 0.0525734 0)
(-0.5538534 0.04273114 0)
(-0.5802958 0.04721575 0)
(-0.6079223 0.05111469 0)
(-0.6333786 0.04284228 0)
(-0.6548673 0.02858002 0)
(-0.6721768 0.02564988 0)
(-0.689784 0.031912 0)
(-0.7073207 0.03292037 0)
(-0.7232434 0.02460598 0)
(-0.7357745 0.01779136 0)
(-0.7471647 0.01840156 0)
(-0.7582137 0.02106949 0)
(-0.768991 0.01889193 0)
(-0.7777449 0.01235837 0)
(-0.7845302 0.007475335 0)
(-0.7900164 0.008818913 0)
(-0.7959446 0.01269982 0)
(-0.8017207 0.010638 0)
(-0.8056188 0.00261081 0)
(-0.806983 -0.001525169 0)
(-0.8077464 0.001118572 0)
(-0.8089623 0.004242394 0)
(-0.8099474 0.00531931 0)
(-0.8101275 -0.001965595 0)
(-0.8067729 -0.01656805 0)
(-0.799511 -0.02679462 0)
(-0.7905698 -0.008772048 0)
(-0.7883572 0.02047031 0)
(-0.7880636 0.008137263 0)
(-0.7793406 -0.04494023 0)
(-0.7582525 -0.05552452 0)
(-0.7425315 0.001754462 0)
(-0.7394374 0.01929907 0)
(-0.7274484 -0.04466758 0)
(-0.6984106 -0.07786859 0)
(-0.6718597 -0.02862461 0)
(-0.6560922 -0.005215286 0)
(-0.6335908 -0.05510605 0)
(-0.5956906 -0.08771218 0)
(-0.5578658 -0.06377981 0)
(-0.5198429 -0.05401189 0)
(-0.4818865 -0.08621432 0)
(-0.4222745 -0.1098606 0)
(-0.3752322 -0.1003971 0)
(-0.3010237 -0.1056507 0)
(-0.2338127 -0.1267129 0)
(-0.1280589 -0.144863 0)
(-0.0559457 -0.1305167 0)
(-0.02953316 0.2079744 0)
(-0.07878311 0.212809 0)
(-0.1291591 0.2160375 0)
(-0.1758978 0.2118335 0)
(-0.2194977 0.2034872 0)
(-0.2608235 0.1922723 0)
(-0.297394 0.1800169 0)
(-0.334152 0.1636675 0)
(-0.3654296 0.1584322 0)
(-0.3938526 0.1496196 0)
(-0.4187348 0.1401729 0)
(-0.4432289 0.1284474 0)
(-0.4672363 0.1173058 0)
(-0.4892924 0.1085889 0)
(-0.5072022 0.1011023 0)
(-0.5229111 0.09226735 0)
(-0.5390165 0.08286013 0)
(-0.5552638 0.07508323 0)
(-0.5689228 0.06920538 0)
(-0.5796233 0.0635541 0)
(-0.589505 0.0573448 0)
(-0.5997487 0.05137627 0)
(-0.6092137 0.04645177 0)
(-0.616732 0.04213487 0)
(-0.622739 0.03764411 0)
(-0.6284237 0.03281421 0)
(-0.6342429 0.02830418 0)
(-0.6393566 0.0246439 0)
(-0.6426827 0.02147838 0)
(-0.6445162 0.01775243 0)
(-0.6463717 0.01306248 0)
(-0.6486732 0.008165629 0)
(-0.6499535 0.005792301 0)
(-0.649818 0.00329445 0)
(-0.647437 -0.001351611 0)
(-0.6443578 -0.006837881 0)
(-0.6421983 -0.01320409 0)
(-0.6415451 -0.01863 0)
(-0.6396822 -0.02208548 0)
(-0.630751 -0.02572879 0)
(-0.6165815 -0.03242773 0)
(-0.608513 -0.04128206 0)
(-0.6073172 -0.04879171 0)
(-0.5993104 -0.0540339 0)
(-0.5771041 -0.06038493 0)
(-0.5576328 -0.07116008 0)
(-0.5498523 -0.08190505 0)
(-0.5371325 -0.09089685 0)
(-0.5094166 -0.1018594 0)
(-0.4810976 -0.1159694 0)
(-0.4605597 -0.1309301 0)
(-0.4379029 -0.1486792 0)
(-0.4003796 -0.1689648 0)
(-0.3700261 -0.18258 0)
(-0.3293393 -0.2037574 0)
(-0.2990895 -0.2340729 0)
(-0.2304976 -0.3160623 0)
(-0.1928845 -0.3415902 0)
(-0.1027827 -0.3956709 0)
(-0.05937211 -0.4060495 0)
(-0.02517874 0.3665694 0)
(-0.06150038 0.3615148 0)
(-0.09966378 0.3545545 0)
(-0.1358137 0.3422626 0)
(-0.1682342 0.3289123 0)
(-0.1986374 0.3115613 0)
(-0.2316723 0.2878999 0)
(-0.2533875 0.2699459 0)
(-0.285964 0.2396549 0)
(-0.3080117 0.2220188 0)
(-0.3311969 0.2047166 0)
(-0.3498764 0.18843 0)
(-0.3687428 0.1726964 0)
(-0.3856006 0.1585082 0)
(-0.40047 0.1454994 0)
(-0.4141169 0.1327572 0)
(-0.4269802 0.1208311 0)
(-0.4391303 0.1101392 0)
(-0.4502377 0.1005143 0)
(-0.4602361 0.09140114 0)
(-0.4693342 0.08258539 0)
(-0.4777142 0.07437545 0)
(-0.485316 0.06684657 0)
(-0.4920205 0.05974356 0)
(-0.4978788 0.05278656 0)
(-0.5030462 0.04594955 0)
(-0.5075882 0.03941953 0)
(-0.511388 0.03335517 0)
(-0.5143149 0.02775312 0)
(-0.5164031 0.0220659 0)
(-0.5177983 0.01568513 0)
(-0.5190488 0.009395915 0)
(-0.5195018 0.005098407 0)
(-0.5186446 -0.002634516 0)
(-0.516697 -0.008849194 0)
(-0.5142205 -0.01573021 0)
(-0.5111397 -0.02362936 0)
(-0.5074873 -0.03169049 0)
(-0.5027884 -0.0390389 0)
(-0.4965348 -0.04626253 0)
(-0.4890345 -0.0555907 0)
(-0.4809088 -0.06680412 0)
(-0.472191 -0.07780741 0)
(-0.461889 -0.0883517 0)
(-0.4493815 -0.1005779 0)
(-0.4356407 -0.1154698 0)
(-0.4204427 -0.1315559 0)
(-0.4041945 -0.1472447 0)
(-0.3854721 -0.1653795 0)
(-0.3640702 -0.186781 0)
(-0.3417089 -0.2094308 0)
(-0.3157133 -0.2315337 0)
(-0.289632 -0.2487068 0)
(-0.2630872 -0.2737507 0)
(-0.2207252 -0.3276766 0)
(-0.1841348 -0.3687744 0)
(-0.1480045 -0.409664 0)
(-0.1128487 -0.4673397 0)
(-0.07056199 -0.5334455 0)
(-0.02580078 -0.5693252 0)
(-0.0177315 0.4604769 0)
(-0.04453223 0.4450776 0)
(-0.07248137 0.4316632 0)
(-0.09823068 0.4131997 0)
(-0.1222412 0.3921207 0)
(-0.1443346 0.3703606 0)
(-0.1640511 0.3459039 0)
(-0.1868615 0.3231585 0)
(-0.2011057 0.311295 0)
(-0.222063 0.286815 0)
(-0.2389619 0.2612538 0)
(-0.2575201 0.2387774 0)
(-0.2717295 0.222456 0)
(-0.288599 0.2013735 0)
(-0.3016866 0.184636 0)
(-0.3145926 0.1694926 0)
(-0.326281 0.1554051 0)
(-0.3370206 0.1423324 0)
(-0.3467895 0.1301307 0)
(-0.3559616 0.1184698 0)
(-0.3643851 0.1073818 0)
(-0.3718733 0.09698807 0)
(-0.378501 0.08718307 0)
(-0.3842934 0.07786286 0)
(-0.3893231 0.06890908 0)
(-0.3936676 0.0602255 0)
(-0.3973706 0.05175414 0)
(-0.4004304 0.0434736 0)
(-0.4026572 0.03540938 0)
(-0.4043615 0.02751782 0)
(-0.4054915 0.01961708 0)
(-0.4058789 0.01338285 0)
(-0.4054874 0.003669672 0)
(-0.4042555 -0.005227104 0)
(-0.4025532 -0.01407599 0)
(-0.399986 -0.02319148 0)
(-0.3967931 -0.03272802 0)
(-0.393008 -0.04286843 0)
(-0.3884019 -0.05353579 0)
(-0.3827452 -0.06479848 0)
(-0.3760518 -0.07683134 0)
(-0.368354 -0.08991947 0)
(-0.3603329 -0.1037652 0)
(-0.3513129 -0.1189231 0)
(-0.3405867 -0.1355229 0)
(-0.329183 -0.1536617 0)
(-0.3152076 -0.1734916 0)
(-0.3028514 -0.1900949 0)
(-0.2860929 -0.2168557 0)
(-0.2696311 -0.2432361 0)
(-0.2513744 -0.2677391 0)
(-0.235254 -0.2926783 0)
(-0.209442 -0.3321728 0)
(-0.183359 -0.3741618 0)
(-0.1568272 -0.4141452 0)
(-0.1321196 -0.4559381 0)
(-0.1039068 -0.5075121 0)
(-0.07609008 -0.5657099 0)
(-0.04506325 -0.6367917 0)
(-0.01895867 -0.6778268 0)
(-0.01287149 0.5419539 0)
(-0.03380344 0.5217477 0)
(-0.05577704 0.5036632 0)
(-0.07585386 0.4817535 0)
(-0.09520723 0.4569603 0)
(-0.1132246 0.4303068 0)
(-0.1301812 0.402117 0)
(-0.146467 0.3731431 0)
(-0.1613054 0.3452645 0)
(-0.1732592 0.3229392 0)
(-0.1855816 0.3022397 0)
(-0.1981083 0.2817069 0)
(-0.210652 0.25962 0)
(-0.221759 0.2386928 0)
(-0.2323862 0.2191115 0)
(-0.2421452 0.2008727 0)
(-0.2511017 0.1837056 0)
(-0.2596859 0.1670487 0)
(-0.2669244 0.1537979 0)
(-0.2740228 0.140758 0)
(-0.2802212 0.1278612 0)
(-0.2860134 0.1145126 0)
(-0.2911488 0.1021143 0)
(-0.2955868 0.09058129 0)
(-0.2994098 0.07960149 0)
(-0.3026455 0.0690504 0)
(-0.305316 0.05884412 0)
(-0.3074168 0.04883936 0)
(-0.3090339 0.0388325 0)
(-0.3099653 0.03081465 0)
(-0.3105374 0.02019486 0)
(-0.3101643 0.01017581 0)
(-0.3092353 0.0001267005 0)
(-0.3080352 -0.01018772 0)
(-0.3062667 -0.02076093 0)
(-0.3038072 -0.03172497 0)
(-0.3010001 -0.04310391 0)
(-0.2977331 -0.05517979 0)
(-0.2936966 -0.06796352 0)
(-0.2889921 -0.08150533 0)
(-0.2837883 -0.09600792 0)
(-0.2773671 -0.1116129 0)
(-0.2712758 -0.1252486 0)
(-0.2633413 -0.1444715 0)
(-0.2552416 -0.1642109 0)
(-0.2460437 -0.1851308 0)
(-0.2361571 -0.2072531 0)
(-0.2251301 -0.2315791 0)
(-0.2114286 -0.2574564 0)
(-0.2007215 -0.2816784 0)
(-0.1857951 -0.3127902 0)
(-0.1678958 -0.3515265 0)
(-0.1501872 -0.3904277 0)
(-0.1321589 -0.4300178 0)
(-0.1137029 -0.4734532 0)
(-0.09383674 -0.5208679 0)
(-0.0733029 -0.5729432 0)
(-0.05267513 -0.6322939 0)
(-0.03193831 -0.7014931 0)
(-0.01139601 -0.7505812 0)
(-0.008748494 0.5973175 0)
(-0.02372738 0.5743515 0)
(-0.03909881 0.5524929 0)
(-0.05295022 0.5276871 0)
(-0.06629312 0.5002805 0)
(-0.07875788 0.4714262 0)
(-0.09071263 0.4419741 0)
(-0.1022983 0.4128574 0)
(-0.1138651 0.3848676 0)
(-0.1244128 0.3583176 0)
(-0.1352728 0.3335543 0)
(-0.1430363 0.3123632 0)
(-0.1519589 0.2897151 0)
(-0.1614522 0.2655814 0)
(-0.1698255 0.2437631 0)
(-0.1779188 0.2240319 0)
(-0.1852619 0.2055912 0)
(-0.1921221 0.1882512 0)
(-0.1984259 0.171979 0)
(-0.2038963 0.1567246 0)
(-0.208714 0.1421079 0)
(-0.213152 0.128008 0)
(-0.2171751 0.1144858 0)
(-0.220726 0.1015309 0)
(-0.2237898 0.08907424 0)
(-0.2263702 0.07704136 0)
(-0.2284645 0.06535734 0)
(-0.2300598 0.05393889 0)
(-0.231278 0.04268612 0)
(-0.2318049 0.03157725 0)
(-0.2317634 0.02038157 0)
(-0.2313748 0.009139015 0)
(-0.2305645 -0.002265272 0)
(-0.2295864 -0.01395626 0)
(-0.2282356 -0.02608848 0)
(-0.226172 -0.03867935 0)
(-0.2239386 -0.04982336 0)
(-0.2209677 -0.06398888 0)
(-0.2177001 -0.07845107 0)
(-0.2139165 -0.09350774 0)
(-0.2096648 -0.1094012 0)
(-0.2050568 -0.1262203 0)
(-0.1995641 -0.1443731 0)
(-0.1933193 -0.1641628 0)
(-0.1868694 -0.1854082 0)
(-0.1796549 -0.2084714 0)
(-0.1722918 -0.2334492 0)
(-0.16292 -0.2599209 0)
(-0.1558126 -0.28692 0)
(-0.1438857 -0.3205983 0)
(-0.1323672 -0.3569801 0)
(-0.1198831 -0.3947101 0)
(-0.1074657 -0.4346099 0)
(-0.09420281 -0.4772076 0)
(-0.08020196 -0.5225457 0)
(-0.06576599 -0.571169 0)
(-0.0509495 -0.6243325 0)
(-0.03629382 -0.6839312 0)
(-0.02145054 -0.7531004 0)
(-0.007869017 -0.8004938 0)
(-0.006100699 0.6374907 0)
(-0.0170487 0.6120309 0)
(-0.0280498 0.5870432 0)
(-0.03781366 0.5600733 0)
(-0.04722292 0.5308359 0)
(-0.05607774 0.5003797 0)
(-0.06465362 0.469652 0)
(-0.07298932 0.4394389 0)
(-0.08112903 0.4102849 0)
(-0.08905392 0.3825955 0)
(-0.09633554 0.3561091 0)
(-0.1036055 0.3310207 0)
(-0.1098681 0.3090915 0)
(-0.1144678 0.2885891 0)
(-0.1218551 0.2659141 0)
(-0.1276043 0.2440262 0)
(-0.1335788 0.2235009 0)
(-0.1389204 0.2044204 0)
(-0.1437989 0.1866273 0)
(-0.1481762 0.1697979 0)
(-0.1520751 0.1537178 0)
(-0.1555519 0.1383021 0)
(-0.1586303 0.1235104 0)
(-0.1613156 0.1092896 0)
(-0.1636109 0.09557184 0)
(-0.1655199 0.08228264 0)
(-0.1670443 0.06934368 0)
(-0.168183 0.0566685 0)
(-0.1689499 0.04416268 0)
(-0.1693274 0.031771 0)
(-0.1693498 0.01927912 0)
(-0.1689656 0.006670718 0)
(-0.168387 -0.004922403 0)
(-0.16762 -0.01668722 0)
(-0.1663946 -0.03030852 0)
(-0.1649716 -0.04398236 0)
(-0.1629823 -0.05800146 0)
(-0.1605166 -0.07270385 0)
(-0.1578984 -0.08808826 0)
(-0.1549221 -0.1042972 0)
(-0.1515988 -0.1214654 0)
(-0.1478919 -0.1397516 0)
(-0.1437722 -0.1592672 0)
(-0.1392488 -0.1803505 0)
(-0.1344795 -0.2031232 0)
(-0.1291557 -0.2274982 0)
(-0.12344 -0.2529799 0)
(-0.1185202 -0.2799659 0)
(-0.1106042 -0.3120116 0)
(-0.1032425 -0.346484 0)
(-0.09523261 -0.3830702 0)
(-0.08687819 -0.4223333 0)
(-0.07786061 -0.4640834 0)
(-0.06823481 -0.5083115 0)
(-0.05809117 -0.5550933 0)
(-0.04754638 -0.604759 0)
(-0.03678784 -0.6581032 0)
(-0.02602146 -0.7169631 0)
(-0.01553167 -0.7842555 0)
(-0.005482534 -0.8346731 0)
(-0.003918812 0.6667962 0)
(-0.01136244 0.6396063 0)
(-0.01843385 0.6118079 0)
(-0.02455444 0.5829086 0)
(-0.03049412 0.5523358 0)
(-0.03621958 0.5210574 0)
(-0.04191378 0.4899081 0)
(-0.04756646 0.4594604 0)
(-0.05316082 0.4300266 0)
(-0.05865585 0.401732 0)
(-0.06391924 0.3745913 0)
(-0.06912314 0.3484271 0)
(-0.07371017 0.3234227 0)
(-0.07835841 0.3005921 0)
(-0.08138155 0.2798698 0)
(-0.08573832 0.2588603 0)
(-0.08972555 0.2381539 0)
(-0.09427156 0.2178778 0)
(-0.09818794 0.1987803 0)
(-0.1018757 0.180686 0)
(-0.1051294 0.163446 0)
(-0.1080214 0.1469536 0)
(-0.11056 0.1311277 0)
(-0.112775 0.1158993 0)
(-0.11468 0.1011923 0)
(-0.116281 0.08692863 0)
(-0.1175826 0.07302953 0)
(-0.1185898 0.05941453 0)
(-0.1193079 0.04600257 0)
(-0.1197464 0.03271898 0)
(-0.1198848 0.01947918 0)
(-0.1198465 0.006249922 0)
(-0.1196768 -0.005995196 0)
(-0.1190232 -0.019715 0)
(-0.11805 -0.03373602 0)
(-0.1169499 -0.04810093 0)
(-0.1155842 -0.06288875 0)
(-0.113985 -0.07833337 0)
(-0.1121673 -0.09448862 0)
(-0.1101188 -0.1114921 0)
(-0.1078413 -0.1294755 0)
(-0.1053402 -0.1485902 0)
(-0.1025692 -0.1689773 0)
(-0.09975089 -0.1908712 0)
(-0.09615463 -0.2141845 0)
(-0.09332137 -0.2385944 0)
(-0.08933396 -0.2657742 0)
(-0.08445116 -0.2965704 0)
(-0.07950172 -0.3297562 0)
(-0.07421313 -0.3652405 0)
(-0.0685909 -0.4034152 0)
(-0.0624828 -0.4442959 0)
(-0.05583311 -0.4877583 0)
(-0.0486539 -0.5335309 0)
(-0.04108894 -0.5814633 0)
(-0.03335208 -0.6318714 0)
(-0.02558908 -0.6856816 0)
(-0.01795798 -0.7446621 0)
(-0.01057661 -0.8113435 0)
(-0.003657075 -0.8597721 0)
(-0.002469428 0.6860085 0)
(-0.007131414 0.6560421 0)
(-0.01150878 0.6256366 0)
(-0.01518366 0.5957409 0)
(-0.01879019 0.5650004 0)
(-0.02230933 0.5338328 0)
(-0.02584844 0.5027949 0)
(-0.02943219 0.472284 0)
(-0.03310291 0.4426208 0)
(-0.03684572 0.4139987 0)
(-0.04058378 0.3864885 0)
(-0.04437397 0.3600792 0)
(-0.04798136 0.3348388 0)
(-0.05176764 0.3105921 0)
(-0.05485114 0.2881448 0)
(-0.0576665 0.2672851 0)
(-0.06024627 0.2473346 0)
(-0.06254907 0.2277429 0)
(-0.06509629 0.2081697 0)
(-0.06756648 0.1892283 0)
(-0.06992229 0.1710077 0)
(-0.0721087 0.153546 0)
(-0.07408524 0.1368606 0)
(-0.07582626 0.12087 0)
(-0.07734584 0.1054271 0)
(-0.07864514 0.09044302 0)
(-0.07972703 0.07583145 0)
(-0.08059549 0.06150974 0)
(-0.08125286 0.04739486 0)
(-0.08171314 0.03339884 0)
(-0.08194127 0.01942671 0)
(-0.08208473 0.006120316 0)
(-0.08197549 -0.007197431 0)
(-0.08152122 -0.02153623 0)
(-0.08096602 -0.03613469 0)
(-0.08023421 -0.05107191 0)
(-0.07932839 -0.06647188 0)
(-0.07824763 -0.08245796 0)
(-0.07700155 -0.09914698 0)
(-0.0755872 -0.1166684 0)
(-0.07401677 -0.1351594 0)
(-0.07225204 -0.1547696 0)
(-0.07048034 -0.1756662 0)
(-0.06810914 -0.1980351 0)
(-0.0664478 -0.2218076 0)
(-0.06349664 -0.2482388 0)
(-0.06073496 -0.2770777 0)
(-0.05764086 -0.3080506 0)
(-0.05454569 -0.3414234 0)
(-0.05128082 -0.3775528 0)
(-0.04772929 -0.4166615 0)
(-0.04372307 -0.4587818 0)
(-0.03910212 -0.5035999 0)
(-0.03395347 -0.5504565 0)
(-0.02854825 -0.5988528 0)
(-0.02311182 -0.6491338 0)
(-0.017756 -0.7023322 0)
(-0.01248325 -0.7602674 0)
(-0.007429603 -0.8256508 0)
(-0.002601394 -0.8755834 0)
(-0.001348144 0.6988323 0)
(-0.004415357 0.667106 0)
(-0.006716098 0.6351799 0)
(-0.008425092 0.6042777 0)
(-0.01002801 0.5728447 0)
(-0.01165183 0.5412529 0)
(-0.01343276 0.510082 0)
(-0.01530266 0.4799384 0)
(-0.01730184 0.4509129 0)
(-0.01937385 0.4228159 0)
(-0.02152212 0.3956611 0)
(-0.02376238 0.3694372 0)
(-0.02604683 0.3441847 0)
(-0.02838388 0.3197888 0)
(-0.03070903 0.2963063 0)
(-0.03270289 0.273843 0)
(-0.03466528 0.2525623 0)
(-0.03605573 0.2326551 0)
(-0.03779775 0.2134299 0)
(-0.03937763 0.194779 0)
(-0.04109237 0.1767062 0)
(-0.04275913 0.1591625 0)
(-0.04456352 0.1420118 0)
(-0.04611564 0.1254307 0)
(-0.04756904 0.109427 0)
(-0.04883166 0.09388257 0)
(-0.04991917 0.07872681 0)
(-0.05083317 0.06388069 0)
(-0.051583 0.04926863 0)
(-0.05217698 0.03481334 0)
(-0.05264051 0.02044556 0)
(-0.05296503 0.006633441 0)
(-0.05303642 -0.007781284 0)
(-0.05290737 -0.02244485 0)
(-0.05269939 -0.03739788 0)
(-0.05236128 -0.05273337 0)
(-0.05189938 -0.06854908 0)
(-0.05130993 -0.08495629 0)
(-0.0505936 -0.1020703 0)
(-0.04975051 -0.120016 0)
(-0.04877871 -0.138928 0)
(-0.04769015 -0.1589445 0)
(-0.04643676 -0.1802432 0)
(-0.04518775 -0.2028822 0)
(-0.04357616 -0.2275163 0)
(-0.04206067 -0.254232 0)
(-0.04044388 -0.2830504 0)
(-0.03886889 -0.3142634 0)
(-0.03721377 -0.3480926 0)
(-0.03536907 -0.3848174 0)
(-0.03315506 -0.4249932 0)
(-0.03038767 -0.4689325 0)
(-0.02710001 -0.515648 0)
(-0.02343145 -0.5636386 0)
(-0.01962832 -0.6123148 0)
(-0.01582468 -0.662592 0)
(-0.01210725 -0.7159866 0)
(-0.00843937 -0.7742058 0)
(-0.004932384 -0.8394926 0)
(-0.001638651 -0.8881772 0)
(-0.0005698398 0.707583 0)
(-0.001222204 0.6728109 0)
(-0.001597422 0.6379288 0)
(-0.001513501 0.6061879 0)
(-0.001528683 0.5751226 0)
(-0.001880228 0.5444257 0)
(-0.002283239 0.5141552 0)
(-0.003422976 0.4842045 0)
(-0.004289187 0.4549708 0)
(-0.005531829 0.4267167 0)
(-0.006842297 0.3996046 0)
(-0.008275302 0.3736116 0)
(-0.009773786 0.3485698 0)
(-0.0113685 0.3244295 0)
(-0.01306649 0.3011959 0)
(-0.01485404 0.2788802 0)
(-0.01659149 0.2573663 0)
(-0.01846506 0.2367735 0)
(-0.01990964 0.2173369 0)
(-0.02129172 0.1986478 0)
(-0.0224973 0.1805989 0)
(-0.0236274 0.1631418 0)
(-0.02449317 0.1461658 0)
(-0.02564077 0.1294071 0)
(-0.02655987 0.1130182 0)
(-0.02749024 0.09704046 0)
(-0.02833454 0.0814408 0)
(-0.02910512 0.06616732 0)
(-0.02979293 0.0511531 0)
(-0.0303862 0.03633052 0)
(-0.03090778 0.02161763 0)
(-0.03127256 0.007257827 0)
(-0.03150187 -0.007511774 0)
(-0.03166326 -0.02249394 0)
(-0.03172595 -0.03775668 0)
(-0.03170219 -0.05339894 0)
(-0.03159226 -0.0695211 0)
(-0.03139842 -0.0862326 0)
(-0.03112231 -0.1036503 0)
(-0.03076691 -0.1219004 0)
(-0.03032811 -0.1411183 0)
(-0.02983071 -0.1614506 0)
(-0.02917173 -0.1830472 0)
(-0.02863389 -0.2060883 0)
(-0.02770741 -0.2308558 0)
(-0.02699027 -0.2574557 0)
(-0.02621331 -0.2861633 0)
(-0.02558199 -0.3173558 0)
(-0.02474525 -0.3514725 0)
(-0.02368091 -0.3891725 0)
(-0.02217733 -0.4309265 0)
(-0.0202752 -0.4760717 0)
(-0.01810669 -0.5234556 0)
(-0.01570815 -0.571853 0)
(-0.01318301 -0.6206065 0)
(-0.01060896 -0.6706232 0)
(-0.008100182 -0.7235637 0)
(-0.005658947 -0.7810438 0)
(-0.003349966 -0.8453908 0)
(-0.00117203 -0.8946858 0)
(-3.576599e-05 0.7096944 0)
(-1.4981e-05 0.6726141 0)
(0.0007963211 0.6370171 0)
(0.001812799 0.6051825 0)
(0.002929201 0.5743943 0)
(0.003904913 0.5440253 0)
(0.004717474 0.5140784 0)
(0.005475761 0.4852214 0)
(0.005494176 0.4571735 0)
(0.005403616 0.4300353 0)
(0.004712931 0.4035791 0)
(0.004065729 0.3777842 0)
(0.003111982 0.3529658 0)
(0.002033511 0.3291255 0)
(0.0008133843 0.3061635 0)
(-0.0005242564 0.2840256 0)
(-0.00193927 0.2626349 0)
(-0.003408085 0.2418773 0)
(-0.004811117 0.2217389 0)
(-0.006085201 0.2022808 0)
(-0.00718697 0.1834865 0)
(-0.008181107 0.165355 0)
(-0.009032255 0.1480009 0)
(-0.009688689 0.1312882 0)
(-0.01044069 0.114978 0)
(-0.011134 0.09906018 0)
(-0.01183828 0.08347164 0)
(-0.01253279 0.06815438 0)
(-0.01320375 0.05304046 0)
(-0.01386247 0.03804618 0)
(-0.01447428 0.02311571 0)
(-0.01500099 0.008306925 0)
(-0.01542906 -0.006569402 0)
(-0.01582256 -0.02177652 0)
(-0.0161526 -0.03725064 0)
(-0.01642956 -0.0530888 0)
(-0.01665389 -0.06939627 0)
(-0.01682912 -0.08628259 0)
(-0.01695909 -0.1038649 0)
(-0.01704833 -0.1222698 0)
(-0.01710188 -0.1416345 0)
(-0.0171233 -0.1621116 0)
(-0.01712686 -0.1838589 0)
(-0.01705599 -0.2071002 0)
(-0.01706929 -0.2319364 0)
(-0.01693294 -0.2585595 0)
(-0.01688649 -0.2873074 0)
(-0.01647934 -0.3186886 0)
(-0.01614896 -0.3534676 0)
(-0.01545395 -0.3922484 0)
(-0.01447923 -0.4348232 0)
(-0.01332528 -0.4805842 0)
(-0.01199015 -0.5286169 0)
(-0.01045647 -0.5776946 0)
(-0.00878068 -0.6268651 0)
(-0.00704354 -0.6770124 0)
(-0.005332928 -0.7300913 0)
(-0.00368545 -0.7878161 0)
(-0.002119215 -0.8523314 0)
(-0.0006728612 -0.9011653 0)
(0.0002778978 0.7122423 0)
(0.0007215928 0.6713858 0)
(0.002296424 0.633647 0)
(0.00410293 0.6009818 0)
(0.005953483 0.5700324 0)
(0.007729569 0.5400192 0)
(0.009015089 0.5111272 0)
(0.01019051 0.4830415 0)
(0.01113173 0.4557968 0)
(0.01170778 0.4293427 0)
(0.0124224 0.4035962 0)
(0.01247135 0.3788211 0)
(0.0121964 0.3547652 0)
(0.01178424 0.3314053 0)
(0.01106848 0.3088726 0)
(0.01017196 0.2870917 0)
(0.009112771 0.2659438 0)
(0.007948466 0.2453068 0)
(0.006729442 0.2251786 0)
(0.005513607 0.205599 0)
(0.004344164 0.1866323 0)
(0.003278974 0.1683294 0)
(0.002275833 0.1506243 0)
(0.001449101 0.1335479 0)
(0.0007151185 0.1170584 0)
(3.408757e-05 0.1010267 0)
(-0.0006149382 0.08537325 0)
(-0.001227805 0.07001106 0)
(-0.001832248 0.05485908 0)
(-0.002385435 0.03984454 0)
(-0.002971951 0.02486585 0)
(-0.003524494 0.009871317 0)
(-0.004033237 -0.005198038 0)
(-0.004512534 -0.02049535 0)
(-0.004985127 -0.03607716 0)
(-0.005424657 -0.05202572 0)
(-0.005839059 -0.06843977 0)
(-0.006226215 -0.08542414 0)
(-0.006588659 -0.1030923 0)
(-0.006929611 -0.1215674 0)
(-0.007253822 -0.1409843 0)
(-0.007568209 -0.161492 0)
(-0.007880462 -0.1832592 0)
(-0.008202458 -0.2064747 0)
(-0.008550039 -0.2313876 0)
(-0.008934124 -0.2582128 0)
(-0.009214131 -0.287322 0)
(-0.009482529 -0.3192866 0)
(-0.009277073 -0.3547229 0)
(-0.008915506 -0.3939938 0)
(-0.008498173 -0.4369786 0)
(-0.007854799 -0.4832 0)
(-0.007140565 -0.5316429 0)
(-0.006272633 -0.5810525 0)
(-0.005270174 -0.6304178 0)
(-0.004199837 -0.680493 0)
(-0.003139076 -0.7332216 0)
(-0.002152704 -0.7904181 0)
(-0.001235861 -0.8542298 0)
(-0.0004283557 -0.9030797 0)
(0.0003444606 0.7121171 0)
(0.001605416 0.6682776 0)
(0.003658953 0.6286654 0)
(0.00604742 0.5955582 0)
(0.008442436 0.5649187 0)
(0.01063225 0.5355884 0)
(0.01255856 0.507202 0)
(0.01425771 0.4796103 0)
(0.01565757 0.4528815 0)
(0.01684757 0.4270178 0)
(0.01762451 0.40224 0)
(0.01815816 0.3783041 0)
(0.01870646 0.355076 0)
(0.01858967 0.3326394 0)
(0.01840201 0.3108707 0)
(0.01786494 0.2897421 0)
(0.01710929 0.2690637 0)
(0.01616739 0.2487458 0)
(0.01510322 0.2287622 0)
(0.01398417 0.209146 0)
(0.01287345 0.1899678 0)
(0.01183389 0.171306 0)
(0.01088997 0.1532176 0)
(0.01005566 0.1357894 0)
(0.009324422 0.1190918 0)
(0.008664266 0.1029449 0)
(0.008023187 0.08716142 0)
(0.00737802 0.07169102 0)
(0.00672783 0.05645737 0)
(0.006067291 0.04138509 0)
(0.005428534 0.02639529 0)
(0.004790071 0.01138404 0)
(0.004170851 -0.00373945 0)
(0.003559486 -0.0190239 0)
(0.002943611 -0.03464327 0)
(0.002348004 -0.0506392 0)
(0.001764124 -0.06710491 0)
(0.00119434 -0.08414192 0)
(0.0006362901 -0.1018595 0)
(8.707051e-05 -0.1203759 0)
(-0.0004582481 -0.1398195 0)
(-0.001006962 -0.1603305 0)
(-0.001568902 -0.1820635 0)
(-0.00216047 -0.20519 0)
(-0.002806419 -0.2299071 0)
(-0.003476968 -0.2565991 0)
(-0.004102796 -0.2859583 0)
(-0.00453582 -0.3186481 0)
(-0.004815367 -0.3548623 0)
(-0.004867926 -0.3946417 0)
(-0.004623714 -0.4379631 0)
(-0.004412909 -0.4843759 0)
(-0.004121227 -0.5331147 0)
(-0.003666086 -0.5829742 0)
(-0.003116851 -0.632762 0)
(-0.002502477 -0.6830467 0)
(-0.001891053 -0.7358483 0)
(-0.001314948 -0.7932376 0)
(-0.0007618615 -0.8572464 0)
(-0.0002363284 -0.9060899 0)
(0.0004607856 0.7111541 0)
(0.00199115 0.6636416 0)
(0.004400225 0.622048 0)
(0.007179366 0.5883794 0)
(0.01000745 0.5579361 0)
(0.01264512 0.5291537 0)
(0.01503684 0.5015132 0)
(0.01713221 0.4748118 0)
(0.01889877 0.4490026 0)
(0.0203475 0.4240582 0)
(0.02146681 0.3999159 0)
(0.02239336 0.3765338 0)
(0.02284303 0.354077 0)
(0.02333286 0.3323734 0)
(0.02328023 0.3114347 0)
(0.02308982 0.291063 0)
(0.02258342 0.2710649 0)
(0.02184371 0.2512699 0)
(0.0209274 0.2316167 0)
(0.01991075 0.2121369 0)
(0.01886557 0.1929283 0)
(0.01785054 0.1741138 0)
(0.0169022 0.1558021 0)
(0.01603552 0.1380939 0)
(0.01526893 0.1210698 0)
(0.01458672 0.1047479 0)
(0.01395578 0.08904288 0)
(0.01331712 0.07370933 0)
(0.01264489 0.05855249 0)
(0.0119373 0.04350344 0)
(0.01121091 0.0284871 0)
(0.01047949 0.01343238 0)
(0.009754745 -0.001739868 0)
(0.00902711 -0.0170162 0)
(0.008298062 -0.03267249 0)
(0.007579072 -0.0487025 0)
(0.006867098 -0.06519829 0)
(0.006161593 -0.0822591 0)
(0.005460083 -0.09999075 0)
(0.004758851 -0.1185072 0)
(0.004052468 -0.1379315 0)
(0.00333313 -0.1583976 0)
(0.002592029 -0.1800516 0)
(0.001806278 -0.2030591 0)
(0.0009946818 -0.2277118 0)
(0.0002150631 -0.2545848 0)
(-0.000457543 -0.284324 0)
(-0.0009923052 -0.3173754 0)
(-0.001414421 -0.3540549 0)
(-0.001682853 -0.3944219 0)
(-0.0018903 -0.4381635 0)
(-0.001932534 -0.4848734 0)
(-0.001735341 -0.5338723 0)
(-0.001567886 -0.5839341 0)
(-0.00126996 -0.633842 0)
(-0.0009624814 -0.6840734 0)
(-0.0006650104 -0.7366823 0)
(-0.0004071007 -0.7938175 0)
(-0.0001951517 -0.8575336 0)
(-5.737364e-05 -0.9063646 0)
(0.0004920237 0.7099579 0)
(0.002218191 0.6583015 0)
(0.004786685 0.6147115 0)
(0.007794654 0.580462 0)
(0.01086266 0.5501833 0)
(0.01375941 0.5219346 0)
(0.01641359 0.4950206 0)
(0.01876965 0.4691619 0)
(0.0208026 0.4442413 0)
(0.02250672 0.4201925 0)
(0.0238813 0.396962 0)
(0.0249194 0.3745146 0)
(0.02567913 0.3527978 0)
(0.02605041 0.3318516 0)
(0.0263273 0.311616 0)
(0.02620728 0.2920259 0)
(0.02589169 0.2727972 0)
(0.02528654 0.2536315 0)
(0.02446052 0.2344096 0)
(0.02349331 0.2151399 0)
(0.02246797 0.1959404 0)
(0.02145235 0.1769875 0)
(0.02048976 0.1584633 0)
(0.01959965 0.1405238 0)
(0.01878721 0.1232695 0)
(0.01804769 0.1067172 0)
(0.01737276 0.09081658 0)
(0.01672977 0.07545776 0)
(0.01608005 0.06042598 0)
(0.01538864 0.04549964 0)
(0.01465686 0.03056211 0)
(0.01389806 0.01554817 0)
(0.01312624 0.0003891469 0)
(0.01234276 -0.01486027 0)
(0.01155158 -0.030525 0)
(0.0107615 -0.04656683 0)
(0.009972584 -0.06307487 0)
(0.009184798 -0.08014438 0)
(0.00839667 -0.09787725 0)
(0.007605345 -0.1163828 0)
(0.006805705 -0.1357786 0)
(0.005992537 -0.1561916 0)
(0.005148471 -0.1777598 0)
(0.0042747 -0.2006697 0)
(0.003404626 -0.225375 0)
(0.002591114 -0.2525058 0)
(0.001878884 -0.2825683 0)
(0.001272865 -0.3159447 0)
(0.0007664586 -0.3528476 0)
(0.0003368301 -0.3933556 0)
(-3.115359e-05 -0.4374173 0)
(-0.0002953291 -0.4846317 0)
(-0.0005227754 -0.5340356 0)
(-0.0005870065 -0.5843395 0)
(-0.0005838644 -0.6344359 0)
(-0.0004546209 -0.6847471 0)
(-0.0003405022 -0.7373811 0)
(-0.0002240321 -0.794538 0)
(-0.0001061233 -0.8582411 0)
(-2.744097e-05 -0.9069902 0)
(0.0005153221 0.7083001 0)
(0.002254503 0.6526115 0)
(0.004904712 0.6069033 0)
(0.007987659 0.5720124 0)
(0.01118216 0.541839 0)
(0.01421265 0.5140982 0)
(0.01701315 0.4879145 0)
(0.01951612 0.4629125 0)
(0.02169518 0.4389084 0)
(0.02353633 0.4157951 0)
(0.0250372 0.3934971 0)
(0.02620101 0.3719569 0)
(0.02703577 0.3511302 0)
(0.02757752 0.3309504 0)
(0.02779453 0.3114204 0)
(0.02783373 0.292492 0)
(0.02758501 0.27399 0)
(0.02709516 0.2555756 0)
(0.02634786 0.2369221 0)
(0.02542179 0.2179764 0)
(0.02441063 0.1988767 0)
(0.02339047 0.179857 0)
(0.02241129 0.1611652 0)
(0.0214984 0.1430132 0)
(0.02065889 0.1255473 0)
(0.01988585 0.1088267 0)
(0.01916245 0.0928152 0)
(0.01847151 0.0773902 0)
(0.01778994 0.0623759 0)
(0.0170906 0.04755346 0)
(0.01635712 0.0327225 0)
(0.01559309 0.01777773 0)
(0.01480798 0.002661744 0)
(0.01401262 -0.01254798 0)
(0.01320212 -0.02819872 0)
(0.01238791 -0.04423565 0)
(0.01157028 -0.06074121 0)
(0.01075051 -0.07780753 0)
(0.009928203 -0.0955323 0)
(0.009101563 -0.1140201 0)
(0.008267252 -0.1333826 0)
(0.007419131 -0.153739 0)
(0.006544884 -0.1752202 0)
(0.005662178 -0.1981278 0)
(0.004799163 -0.2229752 0)
(0.004001386 -0.2503122 0)
(0.003281195 -0.2806268 0)
(0.002649889 -0.3142754 0)
(0.002109144 -0.3514511 0)
(0.001655761 -0.3921942 0)
(0.001279384 -0.4363699 0)
(0.0009595587 -0.483602 0)
(0.0006979237 -0.5331528 0)
(0.0004955944 -0.5837888 0)
(0.0003910021 -0.6342267 0)
(0.0002771128 -0.684759 0)
(0.0002339221 -0.737406 0)
(0.0001580215 -0.7945605 0)
(9.919235e-05 -0.8582544 0)
(3.107944e-05 -0.9070034 0)
(0.0003948022 0.7069539 0)
(0.002224123 0.6467782 0)
(0.00475604 0.599018 0)
(0.007868187 0.563441 0)
(0.01106639 0.5333279 0)
(0.01413947 0.5060558 0)
(0.01698707 0.4805804 0)
(0.01954556 0.4564252 0)
(0.02178109 0.4333429 0)
(0.02367621 0.411184 0)
(0.02522567 0.3898445 0)
(0.02643309 0.3692437 0)
(0.02730937 0.3493138 0)
(0.02787309 0.3299934 0)
(0.02814331 0.3112172 0)
(0.02816052 0.2929397 0)
(0.02795764 0.2750949 0)
(0.02751946 0.2573851 0)
(0.02684221 0.2393595 0)
(0.02595555 0.2208045 0)
(0.02496455 0.2018457 0)
(0.02395159 0.1827789 0)
(0.02297228 0.1639303 0)
(0.0220531 0.1455768 0)
(0.0212004 0.1279087 0)
(0.02040761 0.1110146 0)
(0.0196604 0.09487889 0)
(0.01894024 0.07939044 0)
(0.01823007 0.06436619 0)
(0.01751242 0.04958971 0)
(0.01677553 0.03483649 0)
(0.01601904 0.01995694 0)
(0.01523472 0.004886037 0)
(0.01446042 -0.01028952 0)
(0.01367141 -0.02591046 0)
(0.01285701 -0.04193086 0)
(0.01204561 -0.05842614 0)
(0.01122996 -0.07548446 0)
(0.01041188 -0.09319988 0)
(0.009589969 -0.1116731 0)
(0.008763183 -0.1310104 0)
(0.007924589 -0.1513228 0)
(0.007075859 -0.1727718 0)
(0.006226801 -0.1957148 0)
(0.005403624 -0.2206835 0)
(0.004629973 -0.2482066 0)
(0.003920624 -0.2787433 0)
(0.003284781 -0.3126246 0)
(0.002724053 -0.3500294 0)
(0.002236981 -0.3910065 0)
(0.001822875 -0.4354431 0)
(0.001483224 -0.4829496 0)
(0.00121567 -0.5327033 0)
(0.001008042 -0.5834247 0)
(0.0008487945 -0.6338594 0)
(0.0007154631 -0.6843448 0)
(0.0005776904 -0.736988 0)
(0.0004322619 -0.7941524 0)
(0.0002789365 -0.8578619 0)
(0.0001009038 -0.9066378 0)
(0.0004607487 0.705697 0)
(0.001993373 0.6411973 0)
(0.004516194 0.591267 0)
(0.007488192 0.554952 0)
(0.01064597 0.5248368 0)
(0.01366511 0.4979949 0)
(0.01648113 0.4732047 0)
(0.01901222 0.4498867 0)
(0.02122541 0.4277256 0)
(0.02309961 0.4065257 0)
(0.02462902 0.3861491 0)
(0.02581757 0.366489 0)
(0.02667746 0.3474553 0)
(0.02722785 0.3289681 0)
(0.02749351 0.3109529 0)
(0.02750175 0.293341 0)
(0.02730076 0.2760573 0)
(0.02689707 0.2589685 0)
(0.02628161 0.2415934 0)
(0.02545857 0.2234833 0)
(0.02451089 0.2047134 0)
(0.02353087 0.1856327 0)
(0.02257795 0.166652 0)
(0.02167935 0.1481208 0)
(0.02083977 0.1302789 0)
(0.02005092 0.1132438 0)
(0.01929824 0.09701282 0)
(0.01856562 0.08147654 0)
(0.01783849 0.06644662 0)
(0.01710652 0.051692 0)