/*--------------------------------*- C++ -*----------------------------------*\
| =========                 |                                                 |
| \\      /  F ield         | OpenFOAM: The Open Source CFD Toolbox           |
|  \\    /   O peration     | Version:  2312                                  |
|   \\  /    A nd           | Website:  www.openfoam.com                      |
|    \\/     M anipulation  |                                                 |
\*---------------------------------------------------------------------------*/
FoamFile
{
    version     2.0;
    format      ascii;
    arch        "LSB;label=32;scalar=64";
    class       volScalarField;
    location    "4800";
    object      ILambda_15_0;
}
// * * * * * * * * * * * * * * * * * * * * * * * * * * * * * * * * * * * * * //

dimensions      [1 0 -3 0 0 0 0];

internalField   nonuniform List<scalar> 
12000
(
866.539
802.7774
798.4765
791.1628
779.1777
765.4541
753.8847
746.1805
741.8284
739.4546
738.1604
738.2475
740.8942
746.8479
755.1805
763.2568
768.0733
767.9831
763.5005
756.6358
749.392
742.6062
735.873
728.3815
719.9031
711.2198
703.7996
699.0433
697.6181
699.2098
702.707
706.6257
709.5583
710.5021
709.0172
705.257
699.8982
693.9181
688.2632
683.6152
680.3363
678.5385
678.2649
679.2978
681.1531
683.3853
685.8386
688.5522
691.2266
693.3182
694.545
695.0746
694.8826
693.6865
691.3752
687.8349
682.5699
674.5609
660.313
632.8796
843.3367
795.0878
794.5651
784.2044
771.0773
758.396
748.9982
743.2893
740.1302
738.3405
737.7555
739.2861
743.9288
751.4389
759.8057
766.0913
768.0607
765.3717
759.4713
752.3929
745.4428
738.6971
731.4912
723.3588
714.6841
706.6723
700.7649
697.9387
698.2898
701.041
704.8617
708.2998
710.1593
709.7404
706.9349
702.2013
696.4076
690.5407
685.4148
681.5343
679.1216
678.2208
678.718
680.2383
682.3169
684.68
687.2759
689.9731
692.336
693.9604
694.7902
694.9125
694.1748
692.3824
689.4848
685.2403
678.5906
666.6487
645.0962
615.5028
825.6507
790.2105
789.3673
776.4976
763.4527
752.5021
745.2574
741.102
738.7414
737.5682
738.1342
741.5007
747.9668
756.193
763.525
767.3711
766.611
762.0042
755.3916
748.3932
741.5725
734.542
726.7409
718.2112
709.8395
702.9894
698.8439
697.8731
699.6681
703.128
706.8394
709.4732
710.09
708.3097
704.3476
698.9157
692.9826
687.4668
683.0192
679.9812
678.4587
678.3858
679.4953
681.3533
683.6006
686.0959
688.7554
691.2878
693.2592
694.444
694.8712
694.519
693.2183
690.8881
687.4221
682.006
672.2409
654.4885
628.7068
606.0799
812.7024
786.2017
782.8307
768.6548
756.7461
747.8576
742.46
739.3816
737.6636
737.4229
739.6049
744.8804
752.5638
760.465
765.8904
767.0857
764.0607
758.2553
751.4082
744.5151
737.5595
730.0354
721.7368
713.2163
705.6591
700.3382
698.0296
698.6968
701.5306
705.2421
708.447
710.012
709.292
706.2368
701.3557
695.5355
689.7506
684.7902
681.1338
678.9786
678.3142
678.9471
680.5096
682.6036
684.9947
687.5855
690.1891
692.4322
693.978
694.7359
694.7231
693.858
692.0447
689.2264
684.8549
677
662.3736
639.5518
615.3897
605.7869
803.0956
781.7144
775.3981
761.3127
751.2088
744.3158
740.3103
738.0078
737.086
738.2205
742.2624
749.0932
757.0928
763.7055
766.7448
765.492
760.8269
754.3964
747.5142
740.5725
733.252
725.2166
716.7124
708.6783
702.3662
698.7711
698.2038
700.1832
703.6191
707.1531
709.5195
709.8368
707.7822
703.6263
698.1149
692.2173
686.8312
682.5824
679.7857
678.5056
678.6115
679.8025
681.6883
683.9607
686.4697
689.0798
691.5046
693.3789
694.4882
694.8063
694.319
692.9675
690.71
687.2026
680.9729
669.0947
649.2643
624.9398
608.6889
614.6823
795.4002
776.2368
767.7652
754.9306
746.838
741.6028
738.6007
737.0602
737.2961
740.1489
745.9264
753.6032
760.9573
765.6024
766.1934
762.9581
757.249
750.5362
743.5979
736.404
728.6191
720.2483
711.95
704.8571
700.084
698.2391
699.1825
702.0827
705.6849
708.6611
709.9364
708.925
705.6359
700.6252
694.7953
689.1059
684.3197
680.8874
678.9705
678.507
679.2581
680.8669
682.9868
685.402
687.9806
690.5095
692.6523
694.1119
694.7726
694.6319
693.6847
691.9175
689.1237
684.2332
674.7549
657.9585
634.8624
614.3499
610.3194
629.0581
788.5184
769.9302
760.6002
749.6924
743.4429
739.4705
737.3069
736.7651
738.5321
743.1667
750.186
757.8264
763.7314
766.101
764.5053
759.8365
753.5266
746.6505
739.5204
731.9321
723.752
715.3688
707.7198
701.9317
698.8345
698.6156
700.745
704.1459
707.5042
709.6073
709.63
707.3101
702.9744
697.4017
691.5598
686.322
682.2826
679.7202
678.6541
678.9078
680.168
682.082
684.3791
686.8984
689.4706
691.8118
693.5939
694.6087
694.8112
694.2282
692.889
690.6887
686.8803
679.4356
665.5485
644.5786
622.2046
610.5153
619.3037
644.2417
781.8305
763.3103
754.3484
745.5371
740.7826
737.8081
736.5715
737.3679
740.8612
746.9974
754.5149
761.2713
765.2173
765.3475
762.0019
756.3851
749.7202
742.6442
735.182
727.1861
718.8362
710.8399
704.2396
699.9886
698.5529
699.7198
702.6541
706.1365
708.8871
709.8815
708.5895
705.0791
699.9522
694.1278
688.552
683.9569
680.7559
679.066
678.7782
679.627
681.2729
683.4121
685.8428
688.4083
690.8774
692.9316
694.2955
694.851
694.6165
693.6587
691.9577
689.0184
683.2527
672.0175
653.6348
631.1745
614.335
614.3362
632.6188
654.6385
775.1519
756.9403
749.1763
742.2731
738.6905
736.6662
736.6102
739.0092
744.1361
751.204
758.4028
763.6249
765.4287
763.5958
758.9645
752.7385
745.7934
738.4197
730.5649
722.2955
714.1084
706.9004
701.6505
699.0251
699.1065
701.3382
704.6718
707.842
709.6859
709.4286
706.8618
702.3626
696.7406
690.9655
685.8888
682.0701
679.7446
678.8828
679.2702
680.5907
682.5249
684.8329
687.3481
689.8782
692.1386
693.8224
694.7359
694.8513
694.248
692.9755
690.7373
686.3355
677.4284
661.784
640.4596
620.6178
613.3353
624.4445
644.9959
653.8402
768.5793
751.2344
745.0327
739.7085
737.1337
736.2034
737.5989
741.6532
748.0275
755.2999
761.4577
764.7735
764.5257
761.115
755.5824
748.9247
741.6718
733.9299
725.7449
717.4595
709.8108
703.7331
700.0091
698.9623
700.3154
703.2422
706.5726
709.0835
709.8032
708.2517
704.5448
699.3206
693.5121
688.0553
683.6558
680.689
679.2249
679.1095
680.0558
681.7401
683.8909
686.3186
688.851
691.2456
693.1979
694.4565
694.9268
694.6675
693.773
692.1045
688.7998
681.8821
668.9221
649.5231
628.4345
615.5001
619.1335
636.3717
650.4036
644.8016
762.3262
746.3945
741.7655
737.7402
736.2007
736.5942
739.5865
745.0828
752.1066
758.8535
763.4554
764.7685
762.7327
758.123
751.9442
744.9085
737.2989
729.2056
720.8769
712.9073
706.1524
701.4466
699.2925
699.6626
701.9712
705.2031
708.1542
709.7252
709.1971
706.4095
701.7764
696.126
690.4258
685.5089
681.9052
679.8103
679.1498
679.6759
681.0685
683.0307
685.3421
687.8316
690.2939
692.4501
694.0198
694.841
694.9226
694.3724
693.1703
690.7387
685.4834
675.0251
658.0044
637.066
620.2051
616.7901
628.6353
644.407
648.346
641.4046
756.5932
742.4494
739.2343
736.3802
736.0375
737.9403
742.4605
748.9501
755.9403
761.5574
764.3374
763.7637
760.2665
754.7563
748.0629
740.6436
732.6747
724.3567
716.1634
708.8575
703.2833
700.0727
699.4115
700.9478
703.8529
707.0047
709.2488
709.6823
707.8831
704.009
698.7198
692.949
687.6171
683.405
680.6567
679.4043
679.4579
680.5133
682.2544
684.4268
686.8436
689.3213
691.6168
693.4483
694.6014
695.0204
694.7931
693.9778
692.2318
688.3333
680.1148
665.6608
645.914
626.8027
617.4253
622.933
637.358
646.7423
645.542
648.5263
751.5074
739.3427
737.376
735.7249
736.7668
740.2143
745.9642
752.8538
759.1709
763.2537
764.1707
761.9462
757.291
751.0748
743.9167
736.1156
727.87
719.5522
711.8184
705.4879
701.283
699.5723
700.2259
702.6152
705.741
708.4553
709.7323
708.9253
705.9305
701.1936
695.5476
689.9442
685.1906
681.7877
679.8998
679.4214
680.0828
681.5613
683.5701
685.8935
688.3517
690.7322
692.7712
694.2242
694.9713
695.0544
694.5689
693.3561
690.5374
684.2515
672.3476
654.4925
634.6055
620.6983
619.8259
630.7645
642.8198
646.633
647.0125
655.6946
747.127
737.0149
736.2148
735.8906
738.4227
743.25
749.7528
756.4185
761.5606
763.9177
763.0898
759.4838
753.9038
747.0893
739.4925
731.3672
723.0197
714.9903
708.0336
702.9166
700.1605
699.8478
701.5606
704.4527
707.4296
709.3982
709.5319
707.4811
703.4539
698.1285
692.4267
687.2401
683.2163
680.668
679.5996
679.8009
680.961
682.77
684.9785
687.3928
689.8179
692.0142
693.728
694.7867
695.1731
694.9827
694.1877
692.2086
687.5338
678.0139
662.4436
642.9664
626.0531
619.4224
625.5192
637.6344
645.5344
647.2576
650.7173
658.1269
743.4697
735.4502
735.8264
736.9479
740.9187
746.7731
753.4631
759.3519
762.999
763.617
761.2437
756.4968
750.1488
742.7998
734.8173
726.5031
718.3004
710.8658
704.9552
701.1952
699.8619
700.7575
703.2195
706.2502
708.7382
709.7216
708.6302
705.4282
700.6009
694.9846
689.5057
684.9328
681.7291
680.0282
679.7039
680.4794
682.0373
684.0985
686.4448
688.8831
691.1938
693.1278
694.4761
695.161
695.2491
694.7929
693.4578
690.0855
682.6904
669.5465
651.3461
632.8573
621.52
622.2379
632.23
642.4918
646.8933
648.7066
654.2147
664.3229
740.5487
734.6798
736.2827
738.875
744.0547
750.4557
756.7745
761.4704
763.4794
762.4622
758.7579
753.0562
746.0448
738.2276
729.9715
721.6765
713.9019
707.3438
702.6715
700.3119
700.2818
702.1286
704.9981
707.8129
709.5223
709.3653
707.0649
702.8877
697.5372
691.9246
686.9054
683.083
680.7313
679.828
680.1523
681.3978
683.266
685.5119
687.9325
690.3194
692.4337
694.0456
695.0228
695.3858
695.2213
694.3808
692.0351
686.4624
675.7013
659.3459
640.5088
625.7179
621.2048
627.5603
638.2388
645.3569
647.6815
650.7974
659.906
678.9786
738.3933
734.7526
737.6002
741.5446
747.5537
753.9748
759.4491
762.6949
763.0608
760.5665
755.7204
749.2013
741.6162
733.4362
725.0854
717.0659
709.9996
704.5421
701.2098
700.1995
701.276
703.7699
706.6961
708.9718
709.6831
708.324
704.923
700.0099
694.4312
689.0902
684.7129
681.7165
680.1987
680.0138
680.8845
682.5054
684.609
686.9758
689.4005
691.6544
693.4991
694.7589
695.3991
695.5037
695.0514
693.4993
689.4395
680.8943
666.6987
648.4912
631.5268
622.418
624.3162
633.6136
642.5845
646.7
648.8096
655.3012
670.4594
694.8848
737.0471
735.6933
739.7109
744.7402
751.1116
757.0589
761.3427
763.0247
761.8284
758.0224
752.1878
744.9646
736.9165
728.5354
720.3224
712.8492
706.7333
702.5232
700.5411
700.7462
702.6737
705.4845
708.1289
709.5952
709.1733
706.6458
702.3308
696.96
691.4397
686.5935
682.9797
680.8288
680.0884
680.527
681.8454
683.7593
686.0312
688.4518
690.8019
692.8429
694.3682
695.2878
695.6552
695.5219
694.5768
691.7372
685.1656
673.2411
656.3844
638.4367
625.6684
622.9047
629.4063
638.8981
645.0643
647.5696
651.9723
663.889
683.672
702.9496
736.5496
737.4673
742.4599
748.194
754.4446
759.5125
762.3938
762.5041
759.8646
754.8966
748.2034
740.3969
732.0401
723.6725
715.8565
709.1806
704.1951
701.2946
700.5883
701.8067
704.2889
707.0806
709.1391
709.5968
707.9992
704.425
699.4402
693.9019
688.6965
684.5129
681.7246
680.3919
680.3472
681.3106
682.9874
685.1214
687.4948
689.8948
692.0889
693.8531
695.0484
695.6805
695.8268
695.348
693.4677
688.5896
678.8905
663.8615
645.9557
630.6066
623.4729
626.2557
634.8455
642.5711
646.3638
649.6493
658.5987
675.4419
694.2153
701.583
736.9109
739.9645
745.6274
751.6295
757.3221
761.2181
762.5984
761.1931
757.2371
751.2412
743.8191
735.5823
727.1195
719.0139
711.8495
706.1751
702.4251
700.8137
701.2357
703.2133
705.9316
708.3837
709.6069
708.9416
706.2179
701.7919
696.414
690.9858
686.3051
682.8921
680.9384
680.3624
680.9195
682.3128
684.2677
686.5526
688.9564
691.2564
693.223
694.68
695.5792
695.9867
695.8758
694.7358
691.2629
683.6308
670.6881
653.6413
636.8027
625.9491
624.5984
631.0292
639.3645
644.741
647.9493
654.4706
668.3135
686.3932
698.6374
696.253
738.0917
743.0057
748.9629
754.799
759.5803
762.1218
761.9836
759.1488
754.0006
747.1104
739.1132
730.6414
722.3123
714.724
708.433
703.9003
701.4132
700.9959
702.3387
704.7858
707.4194
709.2478
709.4582
707.6459
703.9297
698.8982
693.411
688.3374
684.3357
681.7441
680.5912
680.6891
681.7511
683.4866
685.6451
688.0106
690.3689
692.4944
694.1877
695.3499
696.0122
696.2066
695.6341
693.2937
687.4992
676.7189
661.1263
643.8046
630.0986
624.6587
627.9986
635.8009
642.4966
646.4278
651.3931
662.2968
678.7784
693.4159
697.8969
694.2971
739.9946
746.366
752.2207
757.5046
761.1182
762.2113
760.5863
756.4217
750.2097
742.5785
734.1972
725.7237
717.7828
710.9461
705.6968
702.375
701.105
701.7228
703.7337
706.3428
708.5887
709.5652
708.6686
705.7745
701.2667
695.9032
690.5741
686.0519
682.8257
681.0567
680.6401
681.3181
682.7912
684.7874
687.0772
689.45
691.6884
693.5832
694.995
695.9083
696.3716
696.2386
694.7904
690.57
681.8881
668.1316
651.1847
635.5848
626.4662
626.1814
632.3464
639.6737
644.6969
649.0473
657.4493
671.7483
687.1427
695.7794
696.3411
700.516
742.4699
749.8055
755.1865
759.6045
761.8828
761.496
758.4445
753.0619
745.9341
737.7496
729.2137
720.9925
713.6831
707.7885
703.6854
701.5732
701.4093
702.8516
705.2475
707.712
709.3055
709.2734
707.2639
703.4315
698.3792
692.9598
688.0209
684.1924
681.7835
680.7989
681.0345
682.1961
683.9917
686.1715
688.52
690.827
692.8831
694.5212
695.6788
696.3904
696.6075
695.8518
692.938
686.193
674.4655
658.5696
642.0237
629.8929
625.847
629.4769
636.5231
642.5473
647.0374
653.6401
665.5516
680.5709
691.9299
695.83
698.7107
713.8801
745.332
753.0972
757.6902
761.0058
761.8515
759.9947
755.5989
749.1321
741.2703
732.7592
724.3239
716.6065
710.1372
705.318
702.3984
701.4297
702.2058
704.223
706.7077
708.7415
709.4742
708.3586
705.3146
700.7497
695.4219
690.2035
685.8397
682.791
681.1944
680.927
681.7207
683.2716
685.3064
687.5954
689.9306
692.1063
693.94
695.3287
696.2756
696.7829
696.562
694.7038
689.6749
680.0142
665.6549
649.0253
634.6963
627.0996
627.5967
633.4169
639.9807
645.0332
650.6106
660.2949
674.1232
687.0377
694.0123
697.3306
706.6502
727.6355
748.3812
756.0464
759.6063
761.6513
761.0185
757.7327
752.1015
744.7196
736.3459
727.7658
719.6917
712.7034
707.2319
703.5578
701.7954
701.8475
703.3528
705.6709
707.9525
709.3094
709.0439
706.8544
702.928
697.8768
692.5417
687.7449
684.0873
681.8525
681.0255
681.3899
682.6447
684.4953
686.691
689.0174
691.2722
693.2664
694.866
696.0367
696.7952
696.9893
695.9649
692.4036
684.7283
672.2081
656.2234
640.5617
629.8949
626.9899
630.7536
637.1672
642.8417
648.0593
655.9488
668.1236
681.5251
690.9961
695.8584
702.5403
717.4727
736.1601
751.4223
758.4973
760.8459
761.5067
759.3891
754.7477
748.0278
739.9426
731.3153
722.937
715.4671
709.3884
705.0125
702.4911
701.8025
702.7048
704.6959
707.0315
708.8414
709.3322
708.0107
704.8368
700.2364
694.963
689.8672
685.6656
682.7912
681.3592
681.232
682.1329
683.7541
685.8207
688.1037
690.3996
692.5173
694.3023
695.683
696.6665
697.1882
696.8106
694.465
688.6094
678.0682
663.2962
647.1408
634.0696
627.8057
628.8904
634.3765
640.4171
645.7155
652.3648
662.7762
675.804
686.994
693.7528
699.5836
710.7495
727.3405
740.3646
754.2815
760.3304
761.3461
760.5533
756.9827
751.0996
743.484
734.9492
726.3478
718.4331
711.772
706.7275
703.4841
702.066
702.3183
703.862
706.0754
708.1532
709.2644
708.7699
706.4153
702.4152
697.385
692.1491
687.5025
684.0172
681.9524
681.2761
681.7611
683.1011
684.9992
687.2049
689.5064
691.7112
693.6518
695.2251
696.4143
697.2019
697.3201
695.9526
691.6988
683.14
669.9791
654.0829
639.3746
630.0637
628.1055
631.9198
637.8394
643.3876
649.3307
658.1395
670.2097
682.3097
690.9077
696.9846
705.7294
719.9197
734.7421
741.9044
756.807
761.4553
761.0626
758.788
753.8403
746.8794
738.609
729.9083
721.6128
714.3921
708.6921
704.7465
702.6158
702.2017
703.2209
705.1697
707.3366
708.9065
709.149
707.627
704.3382
699.7211
694.5191
689.5577
685.5234
682.8224
681.5501
681.5562
682.5571
684.2418
686.3351
688.609
690.8661
692.9309
694.6757
696.0544
697.0648
697.562
696.9606
694.0665
687.3875
676.0721
661.0608
645.5071
633.67
628.5777
630.1048
635.2868
640.988
646.6334
654.1607
664.9658
677.2388
687.3531
694.3376
701.7841
713.6838
728.5395
739.1205
738.1528
758.8722
761.8022
759.9676
756.2293
750.0333
742.2126
733.5682
724.9961
717.2633
710.919
706.2734
703.4342
702.3463
702.7945
704.3743
706.4759
708.338
709.1926
708.4649
705.9508
701.8901
696.8969
691.7743
687.2866
683.9759
682.0783
681.5467
682.1456
683.565
685.5068
687.7208
689.9982
692.1564
694.0493
695.6015
696.8051
697.5942
697.5793
695.8003
690.8239
681.441
667.7892
652.141
638.4378
630.3788
629.1991
633.0002
638.5377
644.1062
650.7253
660.1958
672.0438
683.1888
691.3838
698.43
708.4319
722.303
735.0066
738.8658
730.1318
760.371
761.3192
758.0541
752.9254
745.6699
737.2569
728.5416
720.3797
713.4237
708.08
704.5238
702.7475
702.5896
703.7237
705.6347
707.6346
708.9609
708.9494
707.2246
703.8251
699.2016
694.0837
689.2672
685.4059
682.8781
681.7608
681.8934
682.9882
684.7331
686.8528
689.1202
691.3427
693.36
695.0699
696.4458
697.465
697.891
696.9975
693.5012
686.0148
674.0386
658.9539
644.1119
633.4738
629.4002
631.2435
636.1512
641.6554
647.7
655.9442
666.9488
678.5705
687.9862
695.3103
703.9625
716.3727
729.7646
737.2679
734.3874
727.5073
761.2134
759.9747
755.3443
748.9622
740.8942
732.1917
723.7081
716.2027
710.1814
705.9024
703.4173
702.6169
703.2406
704.8571
706.8581
708.515
709.1171
708.1553
705.4804
701.3614
696.412
691.4115
687.0898
683.9564
682.2232
681.8299
682.5355
684.0298
686.0152
688.2414
690.5008
692.6194
694.4715
696.0055
697.2133
697.9686
697.7572
695.4992
689.7792
679.6427
665.6507
650.396
637.731
630.8154
630.2633
634.0081
639.2667
644.963
652.1942
662.1284
673.6924
684.1136
692.164
700.0795
710.9677
724.1238
734.003
735.2355
730.9321
737.187
761.3247
757.7644
751.8971
744.4649
735.8795
727.204
719.2296
712.5748
707.5843
704.3775
702.8999
702.9522
704.1804
706.0574
707.908
709.0088
708.7542
706.8297
703.3187
698.6888
693.6579
688.9913
685.3065
682.9515
681.984
682.2355
683.4177
685.2206
687.3699
689.638
691.8352
693.8146
695.497
696.8684
697.8726
698.1734
696.915
692.7673
684.5004
671.9831
656.9823
642.9412
633.4533
630.2568
632.3205
636.9998
642.4264
648.8868
657.6964
668.7566
679.8199
688.81
696.5807
706.1546
718.4951
729.7915
734.4781
732.4931
734.1273
752.5287
760.6488
754.7213
747.8136
739.5948
730.8157
722.4715
715.2383
709.566
705.6421
703.4664
702.8955
703.648
705.2813
707.1888
708.6637
709.0381
707.8589
705.0293
700.8512
695.9431
691.0639
686.909
683.9527
682.3807
682.1186
682.9232
684.4873
686.5165
688.7607
691.0121
693.1032
694.9267
696.449
697.6498
698.3298
697.852
695.048
688.5725
677.7626
663.5786
648.8439
637.2291
631.3482
631.3004
634.9738
640.0508
645.9442
653.705
663.9445
675.2155
685.1365
693.2598
701.9121
713.128
724.9746
732.4176
733.2776
733.4864
743.193
760.9114
759.1556
750.9228
743.2356
734.5383
725.8928
718.1485
711.8282
707.2067
704.3317
703.106
703.3108
704.5874
706.4125
708.1243
709.0276
708.56
706.4568
702.8425
698.2048
693.2559
688.7346
685.2231
683.0374
682.214
682.5767
683.8392
685.6968
687.878
690.1545
692.3386
694.2954
695.9638
697.3315
698.2945
698.4102
696.7129
691.8723
682.8645
669.9304
655.1566
641.9795
633.5783
631.1308
633.3476
637.8524
643.293
650.1567
659.4018
670.4456
681.0957
689.911
698.1393
708.1934
719.8681
729.2477
732.9251
733.5249
738.8868
751.673
760.2978
756.8493
746.4934
738.3382
729.492
721.2844
714.354
709.0525
705.4906
703.6028
703.2148
704.0407
705.6478
707.4466
708.7531
708.9315
707.5689
704.6084
700.3804
695.5114
690.7458
686.7498
683.9639
682.5466
682.4088
683.3049
684.933
687.0043
689.27
691.5225
693.6011
695.4132
696.9345
698.1174
698.6774
697.8628
694.4534
687.2262
675.8351
661.6008
647.4857
636.9045
631.9441
632.2962
635.9013
640.8842
647.0193
655.2327
665.6763
676.7098
686.3506
694.6599
703.7662
714.7674
725.2478
731.4278
733.3554
736.4335
745.1901
755.8131
762.7788
753.7758
741.6007
733.3165
724.646
717.1344
711.1659
706.9246
704.3817
703.3849
703.698
704.9714
706.7053
708.2658
708.9878
708.3416
706.0958
702.4036
697.7677
692.8972
688.5112
685.162
683.1358
682.4484
682.915
684.2515
686.1597
688.3719
690.661
692.8428
694.7936
696.464
697.8299
698.7238
698.5952
696.3939
690.8381
681.1482
667.9243
653.4976
641.2109
633.8083
631.9863
634.3109
638.7057
644.2422
651.4935
661.0766
672.0781
682.457
691.2524
699.811
709.9128
720.7194
728.8815
732.6584
735.0145
740.5974
749.6606
759.7732
778.4039
750.0262
736.444
728.3688
720.1677
713.5476
708.6206
705.424
703.82
703.5927
704.4513
705.9855
707.6405
708.7693
708.77
707.2593
704.205
699.9527
695.1316
690.4747
686.6252
683.996
682.7219
682.6998
683.6814
685.369
687.4792
689.7661
692.0246
694.1022
695.9187
697.4482
698.6001
698.9961
697.7834
693.7309
685.7822
673.915
659.7571
646.3224
636.7205
632.5554
633.2226
636.7885
641.774
648.1918
656.7903
667.36
678.205
687.7046
696.1912
705.4579
715.9806
725.4413
731.2005
734.0163
737.6799
744.521
754.1655
769.95
801.2115
745.7331
731.2384
723.6794
716.1899
710.5858
706.7159
704.5026
703.7289
704.1302
705.3648
706.9663
708.3453
708.8797
708.074
705.7211
701.987
697.3773
692.5929
688.3354
685.1341
683.2524
682.6892
683.2524
684.6588
686.6146
688.8554
691.157
693.3413
695.2966
696.9793
698.3396
699.1348
698.7104
695.9617
689.6989
679.4085
666.0174
652.0237
640.6092
634.0938
632.7869
635.2076
639.5806
645.2951
652.9115
662.7387
673.6697
683.8682
692.7038
701.4366
711.3314
721.3602
728.8661
732.9033
735.824
740.7176
748.931
762.5406
786.4473
818.8768
741.0661
726.1951
719.4044
712.803
708.2691
705.4179
704.0924
704.0199
704.8952
706.3268
707.8031
708.7287
708.5476
706.9082
703.7937
699.5511
694.8001
690.2574
686.5458
684.0579
682.912
682.9954
684.0574
685.8025
687.95
690.2558
692.5198
694.6
696.4268
697.9639
699.0652
699.2562
697.6028
692.9006
684.2895
672.0582
658.0782
645.3409
636.6327
633.1427
634.0751
637.6631
642.7509
649.4744
658.3788
668.9999
679.6917
689.1357
697.7559
706.9861
716.965
725.7058
731.2958
734.4637
738.0235
744.4458
755.927
775.8284
803.9384
827.5408
736.2178
721.5039
715.6609
710.0538
706.5808
704.6684
704.1116
704.5973
705.7819
707.2279
708.3968
708.7225
707.7552
705.3133
701.5684
697.0153
692.3358
688.2097
685.1466
683.3942
682.942
683.5944
685.0685
687.0717
689.3401
691.6514
693.8365
695.7961
697.4882
698.8281
699.4919
698.7321
695.4198
688.489
677.6948
664.2452
650.7326
640.1385
634.397
633.5266
636.0676
640.5131
646.4615
654.3948
664.3756
675.2238
685.3217
694.2298
703.0177
712.576
721.9281
728.9931
733.1203
736.1406
740.897
750.1093
766.8002
791.9469
817.6379
826.6213
731.3838
717.3179
712.5219
707.9478
705.4751
704.3926
704.4698
705.3612
706.6847
707.966
708.6661
708.2863
706.5168
703.3583
699.1521
694.497
690.0834
686.5105
684.154
683.1228
683.3015
684.4399
686.2431
688.429
690.7525
693.0179
695.0959
696.9261
698.4561
699.4787
699.4281
697.3109
691.9801
682.7848
670.2966
656.5671
644.5129
636.6067
633.6996
634.8849
638.5663
643.8268
650.8399
659.9649
670.5914
681.1853
690.6453
699.3541
708.4176
717.8328
725.9894
731.4178
734.6913
738.2785
745.284
758.948
781.1828
807.5623
823.6631
812.4022
726.7507
713.7442
710.0169
706.4562
704.8851
704.5048
705.0722
706.2104
707.5018
708.4514
708.5521
707.4094
704.8769
701.1338
696.6589
692.1048
688.1214
685.1956
683.5635
683.2117
683.9471
685.4886
687.5418
689.8389
692.1575
694.337
696.2913
697.977
699.27
699.7672
698.6432
694.7719
687.2307
676.0303
662.6099
649.6
639.767
634.7106
634.2371
636.9392
641.5242
647.7139
655.894
665.9624
676.7517
686.8303
695.8241
704.5701
713.7139
722.4461
729.1383
733.2646
736.3866
741.5343
752.2761
771.3542
796.9004
818.1169
818.3497
789.3841
722.4802
710.8406
708.1365
705.5229
704.73
704.9139
705.822
707.046
708.1397
708.6118
708.0222
706.1112
702.9056
698.7442
694.2007
689.9314
686.505
684.2784
683.3551
683.6227
684.8356
686.6992
688.9264
691.2676
693.5301
695.5963
697.4143
698.9121
699.8217
699.4959
696.9043
690.98
681.2814
668.6284
655.1999
643.8066
636.6323
634.2557
635.7054
639.532
644.9839
652.2334
661.5048
672.131
682.6998
692.2282
700.9741
709.7763
718.6185
726.2524
731.5122
734.8752
738.7747
746.8654
762.6148
786.1479
809.9152
819.1263
803.2739
773.4026
718.699
708.617
706.8395
705.0741
704.9219
705.5269
706.6236
707.7738
708.5177
708.3969
707.072
704.4387
700.6921
696.2987
691.8799
688.0493
685.2662
683.7538
683.4991
684.3154
685.9254
688.0318
690.3598
692.6839
694.8508
696.7866
698.4438
699.658
699.9523
698.4411
694.0234
685.9301
674.4092
661.087
648.5926
639.4792
635.0575
634.9712
637.8661
642.6102
649.0015
657.3545
667.4826
678.2695
688.4037
697.4765
706.0933
714.7631
722.8967
729.2371
733.3596
736.7489
742.7066
755.1622
775.8915
800.2858
815.9013
810.3254
787.2575
774.11
715.4905
707.0429
706.062
705.0248
705.3697
706.2511
707.3846
708.3091
708.5723
707.7814
705.725
702.4622
698.3371
693.9036
689.7829
686.5092
684.4171
683.6034
683.9602
685.2489
687.1754
689.4465
691.8055
694.061
696.1062
697.895
699.3337
700.0951
699.4625
696.3895
689.905
679.7729
667.0302
653.9431
643.2009
636.7221
634.856
636.5826
640.5674
646.1806
653.5981
662.9745
673.6393
684.2675
693.8945
702.6101
711.0587
719.2992
726.4274
731.5328
735.0954
739.6397
749.1133
766.558
790.0516
809.915
813.2144
797.0874
779.221
785.952
712.8974
706.0561
705.7254
705.2853
705.983
706.9966
708.0191
708.58
708.2615
706.7664
704.0301
700.2687
695.945
691.6549
687.9771
685.3408
683.9532
683.8
684.7007
686.3822
688.5438
690.9028
693.2301
695.379
697.2853
698.8944
699.9998
700.0571
698.1367
693.1822
684.5848
672.8128
659.646
647.686
639.2769
635.4701
635.7691
638.8598
643.7375
650.2709
658.7502
668.9612
679.8292
690.0756
699.1847
707.5645
715.6872
723.2207
729.2405
733.4493
737.3624
744.4465
758.4788
779.8598
801.9176
812.5125
804.3269
786.5625
781.1999
797.5816
710.9217
705.5733
705.7438
705.7654
706.6739
707.6785
708.451
708.5316
707.5663
705.3786
702.0566
697.955
693.616
689.6335
686.5098
684.5557
683.8583
684.3114
685.6809
687.6729
689.9875
692.3617
694.6063
696.6244
698.3722
699.7301
700.3124
699.3438
695.7795
688.7594
678.2489
665.4788
652.7737
642.6899
636.895
635.5291
637.5253
641.644
647.3681
654.9086
664.4017
675.1806
685.9384
695.6453
704.222
712.2118
719.8261
726.4927
731.5361
735.4968
740.9699
751.8487
770.3041
792.6729
808.6649
808.4494
794.2902
782.9713
788.6424
800.5145
709.5304
705.4998
706.0297
706.3774
707.3588
708.2191
708.6171
708.1292
706.4924
703.6675
699.8888
695.6198
691.4404
687.9026
685.4095
684.1511
684.108
685.1014
686.8592
689.076
691.4625
693.7883
695.915
697.7859
699.3343
700.3077
700.0984
697.7472
692.2595
683.1944
671.2288
658.2702
646.8723
639.1683
635.9642
636.6322
639.8922
644.8613
651.4983
660.1097
670.4682
681.4902
691.8476
700.8927
708.9116
716.4396
723.4222
729.2256
733.6826
738.3508
746.6655
761.8617
782.9803
802.3134
809.2859
800.7718
787.7021
785.7166
794.4004
791.542
708.6642
705.7376
706.4972
707.0378
707.9602
708.5506
708.4706
707.3597
705.0688
701.7012
697.6188
693.3579
689.4942
686.5073
684.6883
684.113
684.6721
686.1304
688.1899
690.5443
692.9275
695.1562
697.144
698.8453
700.1083
700.4873
699.1566
695.0898
687.5517
676.7089
663.9676
651.687
642.2766
637.1564
636.2684
638.5033
642.7185
648.5234
656.1928
665.858
676.8196
687.7159
697.4133
705.7192
713.1818
720.2145
726.5351
731.6604
736.1975
742.7268
754.8035
773.583
794.2495
807.0059
805.0704
793.4337
786.2456
790.3413
792.9135
774.8736
708.2456
706.1917
707.0649
707.6691
708.4086
708.618
707.9831
706.2324
703.3452
699.5605
695.3406
691.2544
687.8376
685.4756
684.3452
684.4194
685.5148
687.3539
689.6241
692.0311
694.3483
696.4488
698.2824
699.7638
700.5888
700.0888
697.2873
691.2686
681.7679
669.6616
656.9626
646.1548
639.1537
636.5273
637.5282
640.9211
645.9582
652.7082
661.5021
672.0711
683.2604
693.65
702.4981
710.0707
717.0361
723.5885
729.3138
734.1556
739.6916
749.1588
765.0579
785.3287
802.0672
806.666
798.8279
789.14
788.1175
791.6225
783.6898
759.8205
708.1874
706.7735
707.6568
708.2006
708.6445
708.3815
707.1465
704.7779
701.3876
697.3334
693.1435
689.3817
686.5142
684.8207
684.3683
685.0406
686.5945
688.7225
691.1109
693.4943
695.7008
697.6562
699.3091
700.4683
700.6252
698.9108
694.333
686.2954
675.1659
662.5083
650.6914
641.9616
637.4922
637.0412
639.4756
643.7668
649.6656
657.5131
667.4097
678.57
689.5357
699.0944
707.0314
713.9816
720.5502
726.6632
731.9803
737.1766
744.747
757.7433
776.3538
795.1619
805.4222
802.8208
793.3509
788.1136
789.6774
787.1653
771.2923
752.1676
708.3985
707.4032
708.2032
708.5698
708.6203
707.8187
705.9731
703.0452
699.2737
695.109
691.1087
687.7977
685.5525
684.5435
684.7366
685.9396
687.8629
690.1828
692.6017
694.9018
696.9722
698.7677
700.178
700.8416
700.0308
696.7646
690.2222
680.322
668.1293
655.7377
645.5385
639.2217
637.1296
638.4186
641.9217
647.041
653.9534
662.988
673.7869
685.085
695.3853
703.9308
711.0529
717.5614
723.8209
729.5645
734.8454
741.2552
751.7256
767.9646
787.1095
801.5857
804.674
797.737
790.0764
788.5166
788.1163
778.5223
760.8095
749.4993
708.7904
708.0101
708.6412
708.7243
708.3026
706.9253
704.494
701.0982
697.0871
692.9725
689.3059
686.5458
684.9672
684.6333
685.4198
687.0713
689.2658
691.6809
694.0556
696.2338
698.1551
699.7577
700.8046
700.7222
698.607
693.5168
685.006
673.64
661.1198
649.797
641.7389
637.8784
637.8142
640.4186
644.7961
650.8368
658.921
669.0735
680.3858
691.311
700.6236
708.1699
714.6948
720.93
726.9252
732.4685
738.331
746.8769
760.562
778.7152
795.7158
804.0576
801.2489
793.3147
788.7355
788.0337
782.9312
768.8327
753.716
747.2684
709.2793
708.5325
708.916
708.6231
707.6738
705.7152
702.7573
699.0112
694.913
691.002
687.792
685.6553
684.7602
685.0689
686.378
688.3828
690.7461
693.1682
695.4443
697.4814
699.2375
700.571
701.059
699.9194
696.1803
689.1304
678.8746
666.6519
654.6094
645.0231
639.3557
637.7447
639.2837
642.8983
648.1423
655.275
664.5808
675.5759
686.8874
696.995
705.2025
711.9393
718.1077
724.1588
729.9439
735.6651
742.9331
754.2898
770.6358
788.5458
801.0557
803.0961
796.9225
790.3904
787.9912
785.2276
775.278
760.0924
748.9885
745.6271
709.7912
708.9172
708.9815
708.2381
706.7324
704.2197
700.8242
696.8641
692.8333
689.2655
686.6107
685.142
684.9213
685.8177
687.5616
689.8154
692.2484
694.6067
696.7529
698.6389
700.1876
701.1106
700.7708
698.2409
692.6446
683.6957
672.1487
659.8171
649.0078
641.5987
638.2964
638.5731
641.3365
645.8327
652.0696
660.4255
670.8133