/*--------------------------------*- C++ -*----------------------------------*\
| =========                 |                                                 |
| \\      /  F ield         | OpenFOAM: The Open Source CFD Toolbox           |
|  \\    /   O peration     | Version:  2312                                  |
|   \\  /    A nd           | Website:  www.openfoam.com                      |
|    \\/     M anipulation  |                                                 |
\*---------------------------------------------------------------------------*/
FoamFile
{
    version     2.0;
    format      ascii;
    arch        "LSB;label=32;scalar=64";
    class       volScalarField;
    location    "4800";
    object      ILambda_3_0;
}
// * * * * * * * * * * * * * * * * * * * * * * * * * * * * * * * * * * * * * //

dimensions      [1 0 -3 0 0 0 0];

internalField   nonuniform List<scalar> 
12000
(
3567.809
3288.353
3028.184
2788.368
2567.718
2364.883
2178.738
2008.44
1853.187
1712.053
1584.131
1468.685
1365.122
1272.848
1191.12
1119.027
1055.578
999.8077
950.8319
907.8188
869.9525
836.439
806.5798
779.8665
756.0294
734.9966
716.7827
701.365
688.6122
678.2858
670.0931
663.7441
658.9769
655.5514
653.2279
651.7572
650.898
650.4527
650.2932
650.3605
650.6479
651.1683
651.9499
653.0248
654.4038
656.0671
657.9793
660.1292
662.512
665.0835
667.7462
670.4064
672.99
675.4042
677.54
679.2945
680.5611
681.0206
681.0165
677.169
3785.6
3844.986
3876.315
3881.066
3862.103
3822.523
3765.201
3692.646
3607.209
3511.095
3406.302
3294.613
3177.635
3056.857
2933.683
2809.423
2685.255
2562.201
2441.131
2322.783
2207.787
2096.66
1989.78
1887.38
1789.552
1696.297
1607.588
1523.412
1443.792
1368.763
1298.348
1232.531
1171.251
1114.407
1061.876
1013.518
969.1776
928.678
891.8215
858.3955
828.1818
800.9679
776.5479
754.7254
735.3195
718.1653
703.1072
689.9878
678.6559
668.9804
660.8496
654.1508
648.7678
644.5901
641.5149
639.4479
638.2603
637.9412
638.1558
640.1853
3761.43
3770.595
3786.902
3808.027
3831.307
3854.39
3875.372
3892.643
3904.888
3911.09
3910.481
3902.516
3886.843
3863.276
3831.789
3792.495
3745.637
3691.562
3630.706
3563.572
3490.717
3412.741
3330.266
3243.925
3154.335
3062.089
2967.747
2871.837
2774.861
2677.301
2579.619
2482.259
2385.64
2290.152
2196.153
2103.969
2013.894
1926.19
1841.081
1758.762
1679.391
1603.097
1529.976
1460.101
1393.517
1330.249
1270.304
1213.669
1160.314
1110.196
1063.26
1019.442
978.6691
940.8559
905.9312
873.7578
844.402
816.9974
795.0954
761.5344
3751.403
3749.606
3748.296
3748.387
3750.535
3755.059
3762.06
3771.446
3782.948
3796.172
3810.631
3825.77
3840.995
3855.694
3869.25
3881.061
3890.548
3897.175
3900.451
3899.942
3895.274
3886.137
3872.288
3853.549
3829.811
3801.024
3767.199
3728.395
3684.717
3636.312
3583.36
3526.078
3464.709
3399.526
3330.825
3258.919
3184.137
3106.819
3027.311
2945.962
2863.121
2779.133
2694.337
2609.062
2523.627
2438.335
2353.477
2269.328
2186.145
2104.169
2023.623
1944.708
1867.612
1792.493
1719.538
1648.722
1580.803
1513.096
1457.786
1361.93
3724.753
3724.364
3723.635
3722.571
3721.31
3720.031
3718.958
3718.34
3718.42
3719.42
3721.527
3724.884
3729.585
3735.669
3743.123
3751.878
3761.816
3772.767
3784.52
3796.827
3809.407
3821.953
3834.14
3845.633
3856.091
3865.175
3872.553
3877.907
3880.937
3881.362
3878.923
3873.39
3864.558
3852.252
3836.327
3816.671
3793.202
3765.871
3734.662
3699.587
3660.69
3618.043
3571.743
3521.914
3468.701
3412.27
3352.806
3290.51
3225.595
3158.288
3088.824
3017.446
2944.402
2869.933
2794.341
2717.661
2641.074
2560.8
2494.234
2368.663
3702.39
3701.31
3700.288
3699.279
3698.239
3697.126
3695.908
3694.575
3693.143
3691.652
3690.164
3688.764
3687.549
3686.631
3686.124
3686.146
3686.809
3688.216
3690.459
3693.608
3697.718
3702.818
3708.911
3715.978
3723.969
3732.811
3742.405
3752.626
3763.329
3774.348
3785.501
3796.588
3807.401
3817.719
3827.316
3835.963
3843.428
3849.484
3853.906
3856.478
3856.993
3855.257
3851.089
3844.324
3834.815
3822.431
3807.064
3788.624
3767.042
3742.27
3714.282
3683.071
3648.653
3611.053
3570.368
3526.492
3480.267
3428.591
3385.01
3294.032
3698.395
3695.818
3693.362
3691.049
3688.885
3686.871
3684.994
3683.231
3681.559
3679.952
3678.383
3676.831
3675.282
3673.727
3672.17
3670.621
3669.105
3667.654
3666.312
3665.131
3664.169
3663.492
3663.167
3663.264
3663.851
3664.995
3666.754
3669.181
3672.32
3676.202
3680.848
3686.263
3692.439
3699.352
3706.962
3715.216
3724.042
3733.354
3743.053
3753.024
3763.14
3773.264
3783.246
3792.931
3802.155
3810.749
3818.54
3825.354
3831.018
3835.358
3838.207
3839.399
3838.78
3836.191
3831.519
3824.548
3815.487
3802.909
3791.942
3762.143
3711.149
3706.599
3701.434
3695.756
3689.724
3683.45
3677.034
3670.575
3664.154
3657.842
3651.695
3645.757
3640.062
3634.636
3629.493
3624.644
3620.09
3615.833
3611.87
3608.199
3604.816
3601.72
3598.915
3596.405
3594.2
3592.313
3590.762
3589.57
3588.763
3588.369
3588.42
3588.949
3589.991
3591.577
3593.742
3596.513
3599.917
3603.974
3608.7
3614.103
3620.184
3626.935
3634.34
3642.372
3650.995
3660.163
3669.818
3679.895
3690.317
3700.996
3711.838
3722.737
3733.583
3744.252
3754.627
3764.572
3773.934
3782.701
3789.95
3799.868
3759.841
3802.766
3839.919
3871.48
3897.656
3918.802
3935.356
3947.663
3956.066
3960.921
3962.568
3961.332
3957.526
3951.449
3943.382
3933.593
3922.329
3909.824
3896.294
3881.936
3866.933
3851.452
3835.643
3819.645
3803.582
3787.565
3771.696
3756.065
3740.754
3725.837
3711.381
3697.448
3684.092
3671.364
3659.313
3647.981
3637.408
3627.633
3618.689
3610.609
3603.422
3597.155
3591.829
3587.465
3584.078
3581.679
3580.276
3579.869
3580.456
3582.025
3584.562
3588.043
3592.439
3597.711
3603.817
3610.724
3618.247
3626.868
3634.228
3649.645
779.2593
987.9025
1190.521
1386.55
1575.549
1756.913
1930.321
2095.615
2252.595
2401.123
2541.148
2672.668
2795.731
2910.432
3016.906
3115.327
3205.898
3288.853
3364.449
3432.963
3494.689
3549.934
3599.013
3642.249
3679.97
3712.503
3740.176
3763.314
3782.236
3797.259
3808.687
3816.822
3821.952
3824.358
3824.31
3822.068
3817.88
3811.985
3804.609
3795.969
3786.27
3775.708
3764.466
3752.718
3740.63
3728.354
3716.036
3703.81
3691.803
3680.13
3668.899
3658.207
3648.144
3638.79
3630.217
3622.474
3615.651
3609.698
3605.01
3599.541
627.0146
546.2969
488.0778
451.7014
436.2093
439.986
461.1948
498.3009
549.7634
614.0239
689.5898
775.0216
868.9388
970.0246
1077.029
1188.772
1304.145
1422.114
1541.716
1662.065
1782.346
1901.818
2019.81
2135.721
2249.017
2359.228
2465.947
2568.825
2667.568
2761.939
2851.746
2936.846
3017.137
3092.56
3163.089
3228.734
3289.534
3345.555
3396.89
3443.65
3485.969
3523.995
3557.891
3587.834
3614.009
3636.61
3655.837
3671.898
3684.999
3695.354
3703.172
3708.666
3712.045
3713.52
3713.286
3711.535
3708.567
3704.107
3700.08
3689.955
3704.62
3531.038
3353.84
3174.998
2996.726
2821.499
2651.264
2487.573
2331.896
2185.476
2049.312
1924.202
1810.759
1709.416
1620.448
1543.978
1479.998
1428.379
1388.882
1361.176
1344.846
1339.405
1344.31
1358.964
1382.734
1414.956
1454.945
1502.003
1555.425
1614.507
1678.552
1746.875
1818.806
1893.698
1970.927
2049.896
2130.038
2210.818
2291.735
2372.322
2452.146
2530.812
2607.96
2683.264
2756.436
2827.221
2895.397
2960.777
3023.204
3082.552
3138.723
3191.647
3241.28
3287.609
3330.606
3370.39
3406.712
3440.724
3467.831
3509.25
832.0507
1074.074
1291.366
1483.425
1650.396
1792.949
1912.272
2009.633
2086.359
2143.924
2183.896
2207.891
2217.554
2214.538
2200.484
2177.006
2145.67
2107.989
2065.404
2019.283
1970.904
1921.46
1872.045
1823.657
1777.196
1733.46
1693.152
1656.875
1625.138
1598.359
1576.868
1560.912
1550.658
1546.201
1547.567
1554.719
1567.563
1585.952
1609.695
1638.558
1672.274
1710.543
1753.044
1799.432
1849.349
1902.426
1958.284
2016.544
2076.826
2138.754
2201.958
2266.076
2330.76
2395.679
2460.478
2525.011
2588.295
2653.07
2706.3
2802.328
690.4658
664.7252
661.2741
678.2615
712.9555
762.2511
823.2113
893.2084
969.7678
1050.606
1133.672
1217.137
1299.392
1379.049
1454.93
1526.059
1591.658
1651.129
1704.047
1750.143
1789.296
1821.513
1846.922
1865.752
1878.322
1885.029
1886.333
1882.746
1874.818
1863.131
1848.281
1830.875
1811.522
1790.82
1769.353
1747.686
1726.355
1705.867
1686.692
1669.264
1653.974
1641.175
1631.173
1624.23
1620.567
1620.358
1623.737
1630.795
1641.583
1656.116
1674.369
1696.287
1721.782
1750.743
1783.004
1818.502
1856.524
1899.389
1935.828
2011.955
724.5162
715.8015
702.945
687.9109
672.9123
659.7741
649.8796
644.3501
644.0173
649.4247
660.8706
678.4374
702.0201
731.3551
766.0466
805.5927
849.4086
896.8497
947.2309
999.8461
1053.984
1108.944
1164.047
1218.649
1272.147
1323.99
1373.683
1420.791
1464.943
1505.833
1543.22
1576.93
1606.851
1632.934
1655.185
1673.668
1688.496
1699.828
1707.865
1712.843
1715.031
1714.721
1712.229
1707.885
1702.031
1695.015
1687.187
1678.895
1670.481
1662.277
1654.603
1647.761
1642.039
1637.706
1634.989
1634.145
1635.232
1639.064
1642.975
1658.248
734.0884
733.82
732.8441
730.569
726.6568
721.0542
713.8463
705.2612
695.6554
685.4664
675.1837
665.322
656.3979
648.9107
643.3267
640.066
639.4932
641.9099
647.5507
656.5805
669.0943
685.1187
704.6145
727.4806
753.5596
782.6427
814.477
848.7717
885.2051
923.4318
963.0896
1003.806
1045.206
1086.917
1128.573
1169.823
1210.336
1249.8
1287.932
1324.474
1359.203
1391.927
1422.489
1450.764
1476.665
1500.138
1521.164
1539.754
1555.953
1569.834
1581.497
1591.067
1598.691
1604.545
1608.788
1611.664
1613.311
1614.053
1614.083
1613.033
739.9467
739.7016
739.5855
739.5805
739.5499
739.3479
738.808
737.755
736.0325
733.5145
730.1144
725.7905
720.5487
714.4421
707.5692
700.0702
692.1216
683.9308
675.7291
667.7653
660.2982
653.5904
647.9011
643.4805
640.5639
639.367
640.0814
642.8713
647.8706
655.1809
664.8703
676.9727
691.4881
708.3831
727.5926
749.021
772.5448
798.0152
825.2611
854.0918
884.3008
915.6691
947.9682
980.9641
1014.421
1048.102
1081.778
1115.222
1148.221
1180.573
1212.088
1242.595
1271.939
1299.992
1326.617
1351.781
1375.187
1397.691
1415.567
1444.42
744.0736
743.8725
743.6318
743.4225
743.2751
743.2046
743.216
743.2951
743.4085
743.5052
743.5201
743.3771
742.9938
742.2857
741.1715
739.5768
737.4384
734.7075
731.3529
727.3625
722.7453
717.5319
711.7744
705.5461
698.9401
692.0675
685.0556
678.0453
671.188
664.643
658.5745
653.1481
648.5277
644.873
642.3362
641.0593
641.1723
642.7901
646.0117
650.9181
657.5711
666.0129
676.2655
688.3304
702.1887
717.802
735.113
754.0464
774.5102
796.3974
819.5877
843.9486
869.3381
895.6101
922.5944
950.184
977.9428
1007.048
1031.338
1076.636
745.0565
745.1141
745.1012
745.0515
744.9842
744.9089
744.8388
744.7889
744.7729
744.8023
744.8851
745.0238
745.2142
745.4446
745.6953
745.9392
746.1415
746.2612
746.2523
746.0651
745.6481
744.9499
743.9211
742.516
740.695
738.4254
735.6839
732.4572
728.7432
724.5518
719.9056
714.8396
709.4015
703.6509
697.6591
691.5078
685.2881
679.0993
673.0474
667.2432
661.8009
656.8365
652.4657
648.8021
645.9562
644.0327
643.13
643.3379
644.7373
647.398
651.3791
656.7267
663.4747
671.646
681.2397
692.2797
704.5706
718.964
731.4649
758.7489
742.8936
743.1493
743.352
743.5236
743.6765
743.8117
743.9299
744.0336
744.1254
744.2092
744.2904
744.3761
744.4739
744.5919
744.7379
744.9188
745.1392
745.4015
745.7048
746.0443
746.4111
746.7922
747.1698
747.5219
747.8227
748.0428
748.1497
748.1091
747.8853
747.4423
746.7448
745.7592
744.4547
742.8046
740.7864
738.3837
735.5862
732.391
728.8023
724.8327
720.5029
715.8417
710.8864
705.6819
700.281
694.7435
689.1355
683.5289
678.0004
672.6305
667.503
662.7031
658.3169
654.4326
651.1287
648.4991
646.5672
645.6247
644.9967
647.0788
739.8453
740.0762
740.2776
740.4685
740.6602
740.8539
741.0484
741.2437
741.4385
741.6309
741.8199
742.0044
742.1841
742.3597
742.5326
742.7051
742.8808
743.0636
743.2584
743.4702
743.7041
743.965
744.257
744.583
744.9445
745.3411
745.7703
746.2269
746.7034
747.1891
747.6707
748.132
748.5542
748.9162
749.1945
749.3641
749.3989
749.2718
748.9557
748.4242
747.6516
746.6144
745.2912
743.6637
741.7173
739.4415
736.8301
733.8823
730.6024
727.0005
723.0924
718.8998
714.4498
709.7776
704.9185
699.9151
694.8339
689.5893
685.0613
677.1356
739.2633
739.2342
739.1903
739.152
739.1308
739.1292
739.1467
739.1839
739.2403
739.3145
739.4051
739.5106
739.629
739.7586
739.8974
740.0438
740.1961
740.3532
740.5144
740.6793
740.8484
741.0225
741.2033
741.3931
741.5945
741.8107
742.0453
742.3017
742.5834
742.8937
743.2349
743.6088
744.0161
744.4561
744.9266
745.4239
745.9421
746.4737
747.0091
747.5366
748.0428
748.5121
748.9276
749.2706
749.5214
749.6592
749.6628
749.5106
749.1814
748.6545
747.9103
746.9311
745.7002
744.2053
742.435
740.3716
738.0506
735.2897
732.8955
727.4473
742.8491
742.5147
742.16
741.8092
741.476
741.1655
740.8796
740.6208
740.3906
740.1896
740.0187
739.878
739.7675
739.6869
739.6356
739.6125
739.6165
739.6462
739.6999
739.7758
739.872
739.9865
740.1174
740.2631
740.422
740.5928
740.7749
740.9676
741.1711
741.3858
741.6126
741.8528
742.1081
742.3805
742.6722
742.9853
743.3219
743.684
744.073
744.4899
744.9349
745.4073
745.9055
746.4266
746.9665
747.5199
748.0797
748.6376
749.184
749.7076
750.1962
750.636
751.0125
751.3102
751.5147
751.5984
751.573
751.3293
751.1605
749.992
749.1125
748.6594
748.1378
747.5706
746.9679
746.3295
745.656
744.9498
744.2138
743.4518
742.6684
741.8689
741.059
740.2446
739.4319
738.6271
737.8361
737.0648
736.3187
735.6027
734.9216
734.2794
733.6797
733.1254
732.6189
732.1623
731.7568
731.4034
731.1027
730.8547
730.6595
730.5166
730.4256
730.3858
730.3967
730.4577
730.5682
730.7277
730.9359
731.1924
731.4971
731.8497
732.2501
732.6979
733.1928
733.7341
734.3208
734.9516
735.6246
736.3375
737.0873
737.8702
738.6818
739.5164
740.3695
741.2273
742.0864
742.9502
743.6954
744.8696
754.7262
755.3094
756.4619
758.1382
760.2075
762.5781
765.1629
767.8719
770.6295
773.3695
776.0349
778.5773
780.9563
783.1392
785.0996
786.818
788.2802
789.4773
790.405
791.0631
791.4548
791.5869
791.4683
791.1106
790.527
789.7323
788.7424
787.574
786.2445
784.7713
783.1723
781.465
779.6666
777.794
775.8636
773.891
771.8913
769.8788
767.8669
765.8684
763.8951
761.9581
760.0677
758.2334
756.4638
754.767
753.1501
751.6195
750.1809
748.8394
747.5993
746.4643
745.4373
744.5203
743.716
743.0182
742.4388
741.9588
741.5908
741.231
731.4526
685.7504
645.5443
610.7083
581.0561
556.2489
535.868
519.5831
507.0663
497.98
492.0036
488.829
488.1612
489.7188
493.235
498.4577
505.1495
513.0884
522.067
531.8933
542.3897
553.3933
564.7552
576.3403
588.0267
599.7052
611.2789
622.6625
633.7815
644.5721
654.9798
664.9596
674.4747
683.4962
692.0023
699.9779
707.4137
714.3059
720.6555
726.4679
731.7521
736.5208
740.7893
744.5754
747.8991
750.7822
753.2476
755.3197
757.0235
758.3847
759.4293
760.1836
760.6738
760.9264
760.9644
760.8148
760.5147
760.0141
759.5783
758.3717
3650.332
3445.083
3246.212
3054.244
2869.489
2692.452
2523.366
2362.295
2209.361
2064.631
1928.098
1799.714
1679.391
1567.002
1462.388
1365.359
1275.702
1193.177
1117.53
1048.488
985.7672
929.0723
878.1024
832.5512
792.1105
756.4716
725.3274
698.3746
675.3145
655.8548
639.711
626.607
616.2762
608.4624
602.9202
599.4155
597.726
597.6413
598.9632
601.5058
605.095
609.5692
614.7783
620.584
626.8594
633.4886
640.3664
647.3977
654.4975
661.59
668.6088
675.4955
682.2004
688.6808
694.8945
700.8417
706.4177
711.8301
716.2145
723.2675
3771.524
3801.295
3814.006
3810.256
3790.938
3757.38
3711.036
3653.159
3584.995
3507.787
3422.722
3330.939
3233.527
3131.518
3025.887
2917.551
2807.365
2696.126
2584.566
2473.36
2363.122
2254.405
2147.707
2043.469
1942.079
1843.873
1749.135
1658.106
1570.979
1487.908
1409.006
1334.349
1263.982
1197.917
1136.137
1078.603
1025.248
975.9889
930.7221
889.329
851.6773
817.6233
787.0141
759.6891
735.4819
714.222
695.7363
679.8506
666.3905
655.183
646.0574
638.8463
633.387
629.5173
627.0865
625.9664
625.919
627.1215
628.4031
633.3084
3745.175
3750.635
3760.488
3773.515
3788.073
3802.606
3815.87
3826.745
3834.249
3837.572
3836.053
3829.17
3816.529
3797.859
3772.995
3741.874
3704.523
3661.048
3611.627
3556.499
3495.957
3430.339
3360.021
3285.406
3206.924
3125.018
3040.144
2952.762
2863.332
2772.31
2680.143
2587.268
2494.105
2401.056
2308.505
2216.812
2126.315
2037.327
1950.135
1865.002
1782.162
1701.824
1624.171
1549.361
1477.526
1408.774
1343.189
1280.833
1221.747
1165.952
1113.45
1064.225
1018.245
975.4569
935.8257
899.2079
865.7526
834.3948
809.3699
770.7282
3737.475
3735.48
3733.874
3733.275
3734.153
3736.7
3740.998
3747.016
3754.596
3763.492
3773.382
3783.891
3794.6
3805.067
3814.837
3823.452
3830.461
3835.432
3837.953
3837.646
3834.163
3827.199
3816.487
3801.805
3782.974
3759.861
3732.378
3700.48
3664.164
3623.469
3578.472
3529.286
3476.057
3418.962
3358.204
3294.013
3226.638
3156.346
3083.418
3008.148
2930.839
2851.797
2771.332
2689.756
2607.376
2524.496
2441.412
2358.414
2275.779
2193.773
2112.651
2032.65
1953.996
1876.888
1801.562
1728.017
1657.127
1585.966
1527.83
1425.812
3728.066
3726.493
3724.684
3722.659
3720.546
3718.474
3716.594
3715.079
3714.101
3713.82
3714.376
3715.88
3718.411
3722.011
3726.684
3732.397
3739.076
3746.612
3754.862
3763.652
3772.781
3782.023
3791.135
3799.857
3807.92
3815.048
3820.963
3825.39
3828.06
3828.713
3827.101
3822.995
3816.181
3806.467
3793.685
3777.69
3758.36
3735.604
3709.353
3679.567
3646.232
3609.361
3568.99
3525.182
3478.023
3427.619
3374.098
3317.609
3258.314
3196.395
3132.045
3065.469
2996.884
2926.504
2854.606
2781.221
2707.48
2629.673
2564.998
2441.6
3715.589
3714.289
3712.919
3711.466
3709.919
3708.265
3706.493
3704.605
3702.62
3700.572
3698.511
3696.502
3694.621
3692.951
3691.583
3690.608
3690.114
3690.187
3690.9
3692.318
3694.491
3697.453
3701.221
3705.79
3711.139
3717.224
3723.981
3731.326
3739.157
3747.351
3755.771
3764.263
3772.661
3780.787
3788.454
3795.468
3801.63
3806.739
3810.595
3812.999
3813.757
3812.682
3809.595
3804.328
3796.724
3786.641
3773.95
3758.539
3740.313
3719.196
3695.127
3668.067
3637.993
3604.895
3568.827
3529.667
3488.128
3441.376
3401.798
3318.32
3702.944
3701.641
3700.288
3698.915
3697.529
3696.133
3694.716
3693.268
3691.774
3690.22
3688.594
3686.886
3685.093
3683.215
3681.261
3679.248
3677.2
3675.149
3673.133
3671.199
3669.4
3667.789
3666.428
3665.377
3664.696
3664.445
3664.68
3665.452
3666.804
3668.773
3671.386
3674.66
3678.599
3683.195
3688.429
3694.267
3700.661
3707.552
3714.865
3722.514
3730.4
3738.413
3746.433
3754.328
3761.962
3769.189
3775.859
3781.817
3786.906
3790.967
3793.842
3795.377
3795.419
3793.812
3790.444
3785.098
3777.935
3767.695
3758.745
3733.685
3689.829
3688.558
3687.229
3685.875
3684.51
3683.142
3681.772
3680.403
3679.031
3677.654
3676.266
3674.861
3673.431
3671.966
3670.456
3668.892
3667.265
3665.568
3663.796
3661.946
3660.019
3658.021
3655.962
3653.856
3651.722
3649.584
3647.47
3645.415
3643.456
3641.632
3639.987
3638.566
3637.417
3636.585
3636.115
3636.053
3636.439
3637.31
3638.698
3640.631
3643.129
3646.203
3649.859
3654.093
3658.891
3664.23
3670.078
3676.392
3683.121
3690.202
3697.563
3705.124
3712.798
3720.481
3728.083
3735.474
3742.556
3749.229
3754.879
3762.657
3678.055
3676.664
3675.254
3673.86
3672.497
3671.178
3669.906
3668.683
3667.509
3666.382
3665.3
3664.259
3663.253
3662.276
3661.321
3660.379
3659.442
3658.499
3657.538
3656.55
3655.521
3654.441
3653.298
3652.081
3650.783
3649.394
3647.91
3646.327
3644.645
3642.866
3640.996
3639.045
3637.025
3634.954
3632.851
3630.741
3628.651
3626.612
3624.656
3622.819
3621.137
3619.651
3618.398
3617.418
3616.749
3616.428
3616.49
3616.967
3617.889
3619.279
3621.157
3623.538
3626.431
3629.835
3633.748
3638.173
3643.015
3648.554
3653.378
3663.438
3668.815
3666.341
3663.25
3659.637
3655.651
3651.389
3646.937
3642.383
3637.799
3633.25
3628.789
3624.464
3620.313
3616.368
3612.654
3609.19
3605.991
3603.064
3600.414
3598.039
3595.936
3594.097
3592.509
3591.16
3590.033
3589.108
3588.366
3587.785
3587.342
3587.014
3586.778
3586.611
3586.491
3586.397
3586.31
3586.212
3586.088
3585.926
3585.715
3585.45
3585.126
3584.745
3584.309
3583.826
3583.307
3582.765
3582.217
3581.684
3581.188
3580.755
3580.412
3580.188
3580.114
3580.219
3580.53
3581.105
3581.891
3583.131
3584.166
3587.391
3689.516
3729.959
3765.175
3795.333
3820.627
3841.377
3857.977
3870.735
3879.959
3885.967
3889.059
3889.528
3887.651
3883.695
3877.914
3870.547
3861.822
3851.948
3841.125
3829.537
3817.354
3804.731
3791.811
3778.725
3765.588
3752.504
3739.566
3726.854
3714.438
3702.375
3690.716
3679.499
3668.755
3658.508
3648.772
3639.556
3630.861
3622.686
3615.022
3607.857
3601.176
3594.96
3589.19
3583.843
3578.896
3574.328
3570.114
3566.233
3562.663
3559.385
3556.38
3553.633
3551.132
3548.864
3546.819
3545.005
3543.382
3542.019
3540.837
3539.559
971.0937
1160.834
1345.122
1523.458
1695.448
1860.542
2018.447
2169.022
2312.084
2447.508
2575.249
2695.305
2807.721
2912.582
3010.013
3100.169
3183.236
3259.425
3328.971
3392.123
3449.15
3500.33
3545.952
3586.309
3621.701
3652.429
3678.792
3701.089
3719.614
3734.654
3746.492
3755.401
3761.645
3765.479
3767.145
3766.875
3764.889
3761.395
3756.588
3750.649
3743.75
3736.046
3727.684
3718.794
3709.499
3699.908
3690.119
3680.22
3670.29
3660.398
3650.603
3640.959
3631.511
3622.297
3613.353
3604.678
3596.404
3588.165
3581.454
3569.927
840.2185
768.2861
717.2275
686.4015
674.8237
680.9568
703.0675
739.6899
789.3669
850.6335
922.0915
1002.399
1090.272
1184.493
1283.91
1387.437
1494.061
1602.835
1712.887
1823.412
1933.676
2043.01
2150.816
2256.556
2359.758
2460.008
2556.948
2650.278
2739.747
2825.152
2906.337
2983.189
3055.633
3123.629
3187.172
3246.286
3301.022
3351.455
3397.682
3439.818
3477.993
3512.353
3543.052
3570.255
3594.134
3614.866
3632.63
3647.608
3659.982
3669.933
3677.64
3683.277
3687.016
3689.027
3689.464
3688.459
3686.306
3682.616
3679.327
3670.017
3531.002
3336.701
3143.995
2954.536
2770.158
2592.786
2423.802
2264.316
2115.361
1977.76
1852.128
1738.914
1638.409
1550.757
1475.968
1413.934
1364.437
1327.165
1301.722
1287.639
1284.387
1291.384
1308.007
1333.602
1367.488
1408.973
1457.351
1511.919
1571.974
1636.826
1705.798
1778.231
1853.49
1930.965
2010.076
2090.27
2171.031
2251.874
2332.349
2412.043
2490.576
2567.605
2642.823
2715.955
2786.763
2855.038
2920.606
2983.32
3043.064
3099.749
3153.311
3203.709
3250.926
3294.97
3335.833
3373.638
3408.185
3440.52
3466.36
3505.844
3624.96
3653.993
3666.911
3663.719
3644.807
3611.213
3564.195
3504.927
3434.696
3354.87
3266.835
3171.986
3071.709
2967.362
2860.266
2751.688
2642.835
2534.841
2428.765
2325.581
2226.177
2131.35
2041.809
1958.169
1880.956
1810.604
1747.464
1691.799
1643.795
1603.56
1571.129
1546.472
1529.497
1520.052
1517.937
1522.905
1534.666
1552.896
1577.242
1607.322
1642.737
1683.071
1727.895
1776.775
1829.273
1884.951
1943.374
2004.116
2066.757
2130.893
2196.132
2262.098
2328.432
2394.802
2460.851
2526.451
2590.603
2656.087
2709.842
2806.422
3581.069
3587.458
3598.064
3611.79
3627.029
3642.24
3656.143
3667.547
3675.387
3678.765
3676.937
3669.311
3655.446
3635.043
3607.94
3574.103
3533.614
3486.665
3433.545
3374.628
3310.365
3241.269
3167.908
3090.888
3010.852
2928.459
2844.385
2759.307
2673.896
2588.814
2504.701
2422.173
2341.815
2264.178
2189.772
2119.068
2052.489
1990.414
1933.172
1881.044
1834.265
1793.018
1757.441
1727.624
1703.613
1685.412
1672.983
1666.249
1665.1
1669.391
1678.946
1693.565
1713.021
1737.067
1765.42
1797.914
1833.664
1875.034
1910.387
1986.222
3561.351
3559.439
3557.377
3555.848
3555.435
3556.414
3558.95
3563.091
3568.742
3575.7
3583.671
3592.289
3601.136
3609.752
3617.656
3624.358
3629.372
3632.226
3632.475
3629.708
3623.556
3613.696
3599.86
3581.832
3559.456
3532.636
3501.331
3465.564
3425.409
3380.998
3332.511
3280.178
3224.272
3165.103
3103.018
3038.391
2971.623
2903.131
2833.35
2762.721
2691.693
2620.711
2550.221
2480.654
2412.435
2345.968
2281.641
2219.82
2160.845
2105.032
2052.667
2004.007
1959.278
1918.676
1882.369
1850.468
1823.123
1800.234
1782.77
1764.721
3569.707
3607.203
3639.774
3667.578
3690.91
3710.189
3725.921
3738.56
3748.558
3756.361
3762.383
3766.997
3770.531
3773.261
3775.409
3777.143
3778.575
3779.764
3780.718
3781.396
3781.715
3781.555
3780.762
3779.154
3776.53
3772.674
3767.358
3760.355
3751.435
3740.381
3726.983
3711.052
3692.416
3670.928
3646.468
3618.944
3588.295
3554.493
3517.54
3477.473
3434.361
3388.304
3339.433
3287.909
3233.919
3177.677
3119.418
3059.4
2997.896
2935.197
2871.605
2807.43
2742.99
2678.604
2614.615
2551.224
2489.301
2426.599
2374.88
2283.854
1079.435
1252.049
1419.207
1580.466
1735.565
1884.065
2025.752
2160.576
2288.447
2409.34
2523.31
2630.461
2730.941
2824.941
2912.687
2994.43
3070.441
3141.004
3206.409
3266.948
3322.907
3374.561
3422.172
3465.982
3506.217
3543.074
3576.73
3607.334
3635.01
3659.859
3681.953
3701.345
3718.065
3732.123
3743.512
3752.211
3758.189
3761.403
3761.807
3759.349
3753.98
3745.651
3734.319
3719.948
3702.514
3682.002
3658.412
3631.759
3602.074
3569.404
3533.818
3495.398
3454.248
3410.487
3364.282
3315.638
3265.397
3210.821
3164.797
3073.425
995.9582
966.798
952.1684
951.6118
964.3913
989.3854
1025.349
1071.206
1125.883
1188.308
1257.455
1332.346
1412.049
1495.685
1582.431
1671.522
1762.252
1853.975
1946.105
2038.114
2129.53
2219.937
2308.97
2396.312
2481.694
2564.885
2645.693
2723.962
2799.563
2872.394
2942.374
3009.443
3073.553
3134.67
3192.768
3247.83
3299.839
3348.785
3394.656
3437.44
3477.124
3513.695
3547.134
3577.423
3604.542
3628.466
3649.173
3666.639
3680.841
3691.756
3699.368
3703.661
3704.626
3702.257
3696.579
3687.498
3675.462
3658.834
3644.203
3605.913
1040.415
1032.188
1020.076
1005.182
988.9386
972.696
957.5278
944.3978
934.1504
927.4805
924.9547
927.0182
934.004
946.1413
963.5651
986.3249
1014.394
1047.678
1086.025
1129.231
1177.052
1229.207
1285.39
1345.272
1408.51
1474.753
1543.642
1614.823
1687.941
1762.649
1838.612
1915.503
1993.01
2070.836
2148.698
2226.329
2303.477
2379.908
2455.401
2529.751
2602.767
2674.27
2744.094
2812.087
2878.103
2942.009
3003.68
3062.999
3119.855
3174.147
3225.777
3274.654
3320.694
3363.817
3403.943
3441.021
3474.878
3506.08
3531.224
3567.213
1065.483
1063.965
1061.983
1059.067
1054.838
1049.147
1041.928
1033.211
1023.134
1011.911
999.8166
987.1762
974.3474
961.7098
949.6536
938.5701
928.8431
920.8415
914.9132
911.3802
910.5345
912.6352
917.906
926.5341
938.6699
954.4262
973.8799
997.0722
1024.011
1054.67
1088.997
1126.909
1168.299
1213.036
1260.972
1311.94
1365.755
1422.225
1481.143
1542.295
1605.463
1670.422
1736.946
1804.805
1873.774
1943.625
2014.133
2085.078
2156.243
2227.414
2298.384
2368.951
2438.917
2508.096
2576.273
2643.411
2708.689
2774.791
2829.132
2925.567
1088.389
1086.744
1085.178
1083.737
1082.334
1080.871
1079.224
1077.247
1074.794
1071.726
1067.926
1063.295
1057.768
1051.308
1043.911
1035.606
1026.456
1016.554
1006.022
995.0086
983.6854
972.2437
960.8908
949.8462
939.3381
929.5993
920.8641
913.3645
907.3272
902.9709
900.5035
900.1196
901.9992
906.3051
913.1825
922.7572
935.1356
950.4034
968.6261
989.8488
1014.096
1041.374
1071.667
1104.944
1141.154
1180.232
1222.094
1266.646
1313.776
1363.364
1415.276
1469.369
1525.493
1583.492
1643.163
1704.515
1766.561
1832.631
1887.613
1994.216
1112.085
1110.254
1108.372
1106.513
1104.713
1102.994
1101.371
1099.844
1098.399
1097.004
1095.618
1094.183
1092.634
1090.898
1088.896
1086.55
1083.782
1080.519
1076.696
1072.257
1067.159
1061.371
1054.88
1047.687
1039.811
1031.289
1022.173
1012.534
1002.459
992.0492
981.4207
970.7019
960.0324
949.5611
939.4442
929.8441
920.9268
912.8603
905.8128
899.9507
895.4376
892.4315
891.0846
891.541
893.9359
898.3944
905.0306
913.9467
925.2325
938.9647
955.2067
974.0078
995.4043
1019.424
1046.039
1075.385
1106.871
1142.859
1173.343
1239.148
1137.51
1135.564
1133.556
1131.521
1129.48
1127.446
1125.435
1123.459
1121.532
1119.667
1117.877
1116.17
1114.548
1113.011
1111.55
1110.15
1108.79
1107.442
1106.071
1104.635
1103.09
1101.386
1099.472
1097.292
1094.795
1091.927
1088.641
1084.891
1080.638
1075.849
1070.501
1064.577
1058.072
1050.991
1043.348
1035.17
1026.496
1017.373
1007.863
998.0352
987.9709
977.7603
967.5024
957.3039
947.2788
937.5467
928.2322
919.4635
911.3716
904.089
897.7485
892.4821
888.4197
885.6951
884.4065
884.7393
886.5989
890.846
894.7467
908.889
1161.941
1160.138
1158.242
1156.279
1154.26
1152.19
1150.073
1147.914
1145.715
1143.485
1141.231
1138.963
1136.692
1134.432
1132.195
1129.993
1127.84
1125.745
1123.718
1121.764
1119.886
1118.083
1116.351
1114.679
1113.053
1111.456
1109.864
1108.25
1106.584
1104.831
1102.956
1100.919
1098.68
1096.2
1093.438
1090.355
1086.916
1083.087
1078.838
1074.143
1068.984
1063.346
1057.222
1050.612
1043.522
1035.969
1027.975
1019.571
1010.796
1001.698
992.3323
982.7618
973.0558
963.2971
953.5562
943.9298
934.5487
925.2643
917.4939
904.8604
1181.296
1180.541
1180.132
1180.045
1180.196
1180.525
1180.977
1181.488
1182.008
1182.491
1182.896
1183.192
1183.351
1183.352
1183.178
1182.819
1182.268
1181.525
1180.591
1179.472
1178.178
1176.719
1175.108
1173.359
1171.489
1169.51
1167.439
1165.288
1163.069
1160.792
1158.464
1156.09
1153.671
1151.205
1148.688
1146.111
1143.463
1140.729
1137.892
1134.931
1131.826
1128.552
1125.083
1121.395
1117.461
1113.255
1108.753
1103.93
1098.767
1093.245
1087.348
1081.066
1074.391
1067.322
1059.862
1051.99
1043.852
1034.947
1027.438
1012.322
1175.592
1143.159
1114.466
1089.438
1067.957
1049.793
1034.661
1022.335
1012.589
1005.19
999.9188
996.5616
994.9147
994.7838
995.9843
998.3419
1001.693
1005.883
1010.77
1016.222
1022.117
1028.344
1034.803
1041.403
1048.063
1054.712
1061.287
1067.733
1074.006
1080.065
1085.878
1091.42
1096.668
1101.609
1106.228
1110.519
1114.475
1118.093
1121.371
1124.308
1126.905
1129.161
1131.076
1132.651
1133.883
1134.771
1135.311
1135.499
1135.328
1134.793
1133.886
1132.598
1130.92
1128.843
1126.361
1123.434
1120.168
1116.161
1112.821
1104.747
3200.1
3058.282
2920.736
2787.844
2659.833
2537.062
2419.702
2307.803
2201.456
2100.712
2005.571
1916.006
1831.959
1753.347
1680.064
1611.982
1548.955
1490.823
1437.411
1388.532
1343.992
1303.59
1267.118
1234.367
1205.124
1179.178
1156.318
1136.337
1119.029
1104.196