/*--------------------------------*- C++ -*----------------------------------*\
| =========                 |                                                 |
| \\      /  F ield         | OpenFOAM: The Open Source CFD Toolbox           |
|  \\    /   O peration     | Version:  2312                                  |
|   \\  /    A nd           | Website:  www.openfoam.com                      |
|    \\/     M anipulation  |                                                 |
\*---------------------------------------------------------------------------*/
FoamFile
{
    version     2.0;
    format      ascii;
    arch        "LSB;label=32;scalar=64";
    class       volScalarField;
    location    "4800";
    object      ILambda_11_0;
}
// * * * * * * * * * * * * * * * * * * * * * * * * * * * * * * * * * * * * * //

dimensions      [1 0 -3 0 0 0 0];

internalField   nonuniform List<scalar> 
12000
(
629.1388
627.3486
626.4742
625.3922
624.3674
623.339
622.3242
621.3219
620.3353
619.3663
618.4172
617.49
616.5868
615.7095
614.8598
614.0394
613.25
612.4929
611.7695
611.0811
610.4286
609.8132
609.2355
608.6964
608.1964
607.736
607.3155
606.9351
606.5949
606.2948
606.0348
605.8145
605.6336
605.4915
605.3878
605.3217
605.2926
605.2994
605.3413
605.4171
605.5257
605.6659
605.8365
606.0359
606.2626
606.5149
606.7915
607.0906
607.4103
607.7487
608.1042
608.475
608.8593
609.255
609.6606
610.0746
610.4956
610.9227
611.3553
611.793
650.5077
649.1655
648.4312
647.5095
646.577
645.5952
644.5754
643.5179
642.4258
641.3017
640.1484
638.969
637.7665
636.5441
635.305
634.0523
632.7895
631.5197
630.2463
628.9725
627.7016
626.4367
625.181
623.9375
622.7092
621.4991
620.3098
619.1441
618.0046
616.8937
615.8138
614.767
613.7555
612.7813
611.8461
610.9518
610.0999
609.2918
608.5289
607.8125
607.1436
606.5232
605.9522
605.4312
604.961
604.542
604.1746
603.8591
603.5955
603.3839
603.2241
603.1159
603.0589
603.0525
603.0963
603.1897
603.3324
603.5246
603.767
604.0605
655.2686
655.1144
654.9951
654.8195
654.5916
654.3098
653.973
653.5808
653.133
652.6297
652.0712
651.4583
650.7917
650.0726
649.3024
648.4826
647.6149
646.7015
645.7446
644.7464
643.7096
642.6368
641.5309
640.3949
639.2317
638.0446
636.8367
635.6112
634.3714
633.1205
631.8618
630.5985
629.3338
628.0707
626.8125
625.562
624.3221
623.0956
621.8853
620.6937
619.5233
618.3765
617.2557
616.1631
615.1007
614.0707
613.0749
612.1154
611.194
610.3127
609.4731
608.6772
607.9268
607.2236
606.5699
605.9678
605.42
604.9298
604.5022
604.1459
652.9341
653.5497
653.8887
654.2819
654.6326
654.9598
655.254
655.5138
655.7357
655.9169
656.0548
656.1465
656.1899
656.1826
656.1228
656.0086
655.8385
655.6112
655.3259
654.9818
654.5784
654.1157
653.5939
653.0135
652.3752
651.6801
650.9297
650.1256
649.2697
648.3642
647.4115
646.4143
645.3752
644.2974
643.1838
642.0379
640.8628
639.6619
638.4388
637.1968
635.9393
634.6696
633.3912
632.1071
630.8205
629.5344
628.2517
626.9751
625.7072
624.4504
623.2071
621.9795
620.7698
619.5802
618.4128
617.2699
616.1543
615.0698
614.022
613.0224
646.8251
647.3424
647.7003
648.1356
648.5782
649.0409
649.5168
650.0043
650.5002
651.0014
651.5047
652.0067
652.5038
652.9924
653.4685
653.9284
654.3682
654.7838
655.1715
655.5272
655.8473
656.1279
656.3655
656.5567
656.6983
656.7873
656.8211
656.7971
656.7133
656.5679
656.3595
656.087
655.7498
655.3475
654.8804
654.349
653.7542
653.0973
652.38
651.6044
650.773
649.8883
648.9536
647.972
646.9471
645.8825
644.7821
643.6498
642.4896
641.3056
640.1016
638.8818
637.65
636.4099
635.1651
633.9193
632.6764
631.4411
630.2201
629.0245
644.5368
644.267
644.2356
644.2003
644.2106
644.2543
644.3346
644.4515
644.6057
644.7974
645.0265
645.2928
645.5956
645.9341
646.3071
646.713
647.1499
647.6156
648.1076
648.6231
649.1588
649.7113
650.2768
650.8513
651.4305
652.0099
652.5849
653.1506
653.7022
654.2345
654.7425
655.2212
655.6656
656.0708
656.4321
656.7449
657.0049
657.2081
657.3509
657.43
657.4424
657.3857
657.2582
657.0583
656.7853
656.4389
656.0193
655.5276
654.9651
654.334
653.6369
652.877
652.0581
651.1844
650.2608
649.2927
648.2861
647.2485
646.19
645.124
648.987
648.0972
647.7193
647.2395
646.7996
646.3656
645.9477
645.5463
645.1643
644.8043
644.4689
644.1609
643.8829
643.6376
643.4275
643.255
643.1226
643.0324
642.9863
642.9862
643.0334
643.1291
643.2744
643.4696
643.7148
644.01
644.3542
644.7466
645.1854
645.6686
646.1938
646.7579
647.3575
647.9888
648.6473
649.3283
650.0266
650.7366
651.4526
652.1682
652.8771
653.5727
654.2482
654.8969
655.512
656.0866
656.6143
657.0886
657.5034
657.8531
658.1324
658.3365
658.4615
658.5038
658.4611
658.3316
658.1153
657.8136
657.4315
656.9796
656.5684
655.6381
655.2369
654.704
654.1963
653.6708
653.1372
652.5928
652.0386
651.4751
650.9033
650.3242
649.7394
649.1504
648.5593
647.9682
647.3796
646.7961
646.2208
645.6567
645.1072
644.5759
644.0663
643.5823
643.1277
642.7064
642.3224
641.9796
641.6817
641.4325
641.2355
641.094
641.0111
640.9895
641.0316
641.1393
641.3142
641.5572
641.8688
642.2489
642.6966
643.2107
643.7891
644.4289
645.1268
645.8786
646.6793
647.5235
648.4048
649.3164
650.2508
651.1999
652.1553
653.1079
654.0487
654.9682
655.8575
656.7085
657.5146
658.2746
663.4549
662.5464
662.1868
661.7101
661.2766
660.8389
660.4058
659.9723
659.5368
659.0974
658.6518
658.1984
657.735
657.2599
656.7715
656.2681
655.7484
655.2112
654.6555
654.0808
653.4865
652.8726
652.2393
651.5872
650.9173
650.2308
649.5296
648.8157
648.0917
647.3605
646.6256
645.8905
645.1596
644.4371
643.728
643.0374
642.3706
641.7332
641.131
640.5699
640.0559
639.5951
639.1933
638.8564
638.5901
638.3996
638.2901
638.2661
638.3317
638.4905
638.7453
639.0982
639.5506
640.103
640.755
641.5055
642.3526
643.2938
644.3265
645.4481
671.2451
669.9408
669.3644
668.6544
668.0121
667.3849
666.7853
666.2098
665.6589
665.1319
664.6281
664.1465
663.6859
663.2448
662.8214
662.4137
662.0194
661.6362
661.2614
660.8922
660.5255
660.1584
659.7877
659.4101
659.0225
658.6215
658.2042
657.7674
657.3083
656.824
656.3122
655.7707
655.1975
654.5911
653.9505
653.2749
652.5642
651.8187
651.0393
650.2275
649.3853
648.5155
647.6214
646.7069
645.7768
644.8363
643.8913
642.9483
642.0144
641.0972
640.2048
639.3458
638.5291
637.764
637.0601
636.4273
635.8758
635.4163
635.0604
634.8212
682.9327
681.2807
680.4424
679.433
678.4685
677.5006
676.5431
675.5962
674.6635
673.7478
672.8522
671.9793
671.1318
670.3122
669.5226
668.765
668.041
667.352
666.6991
666.0829
665.504
664.9622
664.4572
663.9884
663.5545
663.1541
662.7852
662.4456
662.1327
661.8434
661.5743
661.3219
661.0821
660.8506
660.6231
660.3947
660.1608
659.9163
659.6562
659.3755
659.0693
658.7326
658.3609
657.9495
657.4943
656.9916
656.4379
655.8303
655.1664
654.4445
653.6635
652.823
651.9235
650.9663
649.9536
648.8889
647.7769
646.6242
645.4415
644.2486
695.6338
694.406
693.7215
692.8872
692.0383
691.1468
690.2197
689.2581
688.265
687.2433
686.1962
685.1274
684.0405
682.9393
681.8278
680.71
679.5902
678.4726
677.3613
676.2608
675.1751
674.1086
673.0652
672.0491
671.0639
670.1133
669.2007
668.3294
667.5021
666.7214
665.9897
665.3086
664.6797
664.104
663.582
663.1138
662.6991
662.337
662.026
661.7641
661.5491
661.3778
661.2468
661.1521
661.0891
661.053
661.0383
661.0392
661.0494
661.0624
661.0713
661.069
661.0481
661.0013
660.9213
660.8008
660.6332
660.4133
660.1396
659.8214
702.3785
702.159
702.0314
701.8474
701.6158
701.3329
700.9954
700.6025
700.1531
699.6468
699.0834
698.463
697.7862
697.0537
696.2666
695.4263
694.5343
693.5928
692.6039
691.5702
690.4948
689.3807
688.2313
687.0505
685.8422
684.6106
683.3601
682.0953
680.821
679.5423
678.2642
676.9919
675.7306
674.4858
673.2626
672.0665
670.9025
669.776
668.6918
667.6548
666.6697
665.7406
664.8718
664.0669
663.3292
662.6617
662.0668
661.5465
661.1022
660.7348
660.4443
660.2303
660.0917
660.0268
660.0332
660.1081
660.2481
660.4503
660.7129
661.0362
700.7653
701.2151
701.5415
701.8933
702.2232
702.5343
702.82
703.0772
703.3021
703.4917
703.6428
703.7523
703.8175
703.8357
703.8042
703.7207
703.5828
703.3884
703.1358
702.8232
702.4495
702.0134
701.5141
700.951
700.324
699.6329
698.8781
698.0604
697.1806
696.2402
695.2408
694.1844
693.0736
691.9109
690.6996
689.4431
688.1453
686.8102
685.4425
684.047
682.6287
681.1932
679.7461
678.2934
676.8412
675.3961
673.9646
672.5533
671.1691
669.8186
668.5087
667.2459
666.037
664.8883
663.8064
662.7976
661.8685
661.0257
660.2763
659.6238
696.0922
696.3137
696.6049
696.9186
697.2662
697.6352
698.0244
698.4301
698.8494
699.2794
699.7171
700.1593
700.6031
701.045
701.4818
701.9101
702.3262
702.7268
703.1083
703.4671
703.7996
704.1024
704.3719
704.6047
704.7973
704.9464
705.0487
705.1011
705.1005
705.0442
704.9292
704.7533
704.5139
704.2091
703.837
703.396
702.885
702.3028
701.6488
700.9228
700.1248
699.2552
698.3149
697.3051
696.2275
695.0841
693.8775
692.6107
691.2869
689.9101
688.4842
687.0139
685.504
683.96
682.3878
680.7939
679.1854
677.5709
675.96
674.3629
695.8506
695.219
695.0704
694.8663
694.7363
694.6423
694.5924
694.5836
694.6157
694.688
694.7999
694.9504
695.1385
695.3631
695.6227
695.9156
696.2402
696.5944
696.9761
697.3831
697.8129
698.2628
698.7301
699.2119
699.705
700.2061
700.712
701.219
701.7237
702.2222
702.7107
703.1855
703.6425
704.0778
704.4875
704.8675
705.214
705.523
705.7906
706.0132
706.1869
706.3084
706.3742
706.3811
706.3261
706.2063
706.0192
705.7625
705.4341
705.0321
704.555
704.0013
703.3702
702.661
701.8737
701.0086
700.0671
699.0514
697.9668
696.8253
703.3021
701.876
701.2525
700.4865
699.7955
699.1243
698.4873
697.8822
697.3114
696.7762
696.2783
695.8191
695.4001
695.0226
694.6878
694.3968
694.1503
693.9491
693.7939
693.6849
693.6224
693.6066
693.6371
693.7137
693.8356
694.0022
694.2123
694.4647
694.7579
695.0901
695.4595
695.8639
696.3008
696.7678
697.2622
697.7809
698.3209
698.879
699.4517
700.0356
700.6269
701.2219
701.8169
702.4079
702.991
703.5622
704.1175
704.653
705.1645
705.6482
706.0998
706.5153
706.8907
707.2221
707.5059
707.7385
707.917
708.0393
708.1053
708.125
716.007
714.3436
713.5244
712.5265
711.5732
710.6108
709.6524
708.6967
707.746
706.8023
705.8679
704.9452
704.0365
703.1444
702.2712
701.4196
700.5919
699.7907
699.0184
698.2776
697.5706
696.8999
696.2675
695.6758
695.1267
694.6222
694.1639
693.7534
693.3922
693.0813
692.8218
692.6146
692.4601
692.3586
692.3104
692.3152
692.3728
692.4825
692.6435
692.8548
693.1151
693.4228
693.7763
694.1736
694.6127
695.0913
695.6068
696.1567
696.7381
697.3481
697.9834
698.6406
699.3162
700.0066
700.7083
701.4179
702.1323
702.8488
703.567
704.2935
728.7166
727.3926
726.7166
725.8898
725.0734
724.2287
723.3631
722.475
721.5655
720.6352
719.6854
718.7173
717.7323
716.7321
715.7184
714.6929
713.6577
712.6148
711.5666
710.5154
709.4638
708.4143
707.3697
706.3328
705.3064
704.2935
703.297
702.32
701.3654
700.4362
699.5355
698.666
697.8309
697.0328
696.2745
695.5586
694.8877
694.2641
693.69
693.1675
692.6984
692.2845
691.9271
691.6276
691.387
691.206
691.0853
691.0251
691.0254
691.0861
691.2065
691.3857
691.6225
691.9155
692.2633
692.6643
693.1173
693.6217
694.1793
694.796
737.3095
736.5724
736.2174
735.77
735.3142
734.829
734.3158
733.7735
733.2014
732.5993
731.9669
731.3042
730.6111
729.8879
729.1345
728.3514
727.5386
726.6968
725.8263
724.928
724.0025
723.0509
722.0742
721.0736
720.0505
719.0064
717.9429
716.8618
715.7652
714.6551
713.5339
712.404
711.268
710.1288
708.9892
707.8524
706.7214
705.5998
704.4908
703.398
702.325
701.2755
700.2532
699.2617
698.3048
697.3861
696.5092
695.6776
694.8948
694.1639
693.4878
692.8692
692.3105
691.8139
691.3815
691.0153
690.7174
690.4905
690.3399
690.2726
740.5667
740.3849
740.3574
740.2893
740.206
740.0985
739.9658
739.8071
739.6216
739.409
739.169
738.9014
738.6059
738.2825
737.9308
737.5506
737.1418
736.7039
736.2367
735.74
735.2134
734.6566
734.0692
733.4511
732.8017
732.1209
731.4084
730.6638
729.887
729.0778
728.2363
727.3625
726.4566
725.5189
724.5499
723.5504
722.5211
721.4632
720.3781
719.2672
718.1325
716.976
715.8001
714.6075
713.4011
712.1841
710.9599
709.7324
708.5056
707.2834
706.0703
704.8706
703.6889
702.5296
701.3978
700.2986
699.2374
698.2205
697.2557
696.3517
739.085
739.3588
739.6097
739.8605
740.0953
740.3105
740.504
740.6742
740.8204
740.9419
741.0382
741.1092
741.1548
741.1749
741.1698
741.1396
741.0845
741.0048
740.9006
740.7723
740.6201
740.4444
740.2451
740.0226
739.7767
739.5075
739.2148
738.8983
738.5576
738.1923
737.8017
737.3852
736.9419
736.471
735.9715
735.4422
734.8822
734.2904
733.6655
733.0065
732.3124
731.582
730.8147
730.0095
729.166
728.2838
727.3626
726.4026
725.4041
724.3678
723.2945
722.1854
721.042
719.8663
718.6608
717.4286
716.1735
714.9004
713.6154
712.3262
734.2748
734.7602
735.1668
735.606
736.0471
736.4848
736.9162
737.3378
737.747
738.1417
738.5197
738.8793
739.2189
739.5374
739.8335
740.1063
740.3551
740.5794
740.7788
740.9531
741.1025
741.227
741.327
741.403
741.4554
741.4849
741.4923
741.4783
741.4436
741.3891
741.3154
741.2234
741.1137
740.9869
740.8435
740.6837
740.5079
740.3162
740.1084
739.8843
739.6434
739.3851
739.1085
738.8127
738.4963
738.158
737.7963
737.4094
736.9954
736.5523
736.0778
735.5697
735.0255
734.4428
733.8195
733.1538
732.4442
731.69
730.8917
730.0537
729.5244
729.65
729.9033
730.1831
730.5078
730.8605
731.2411
731.6447
732.0685
732.5092
732.9637
733.429
733.9019
734.3794
734.8586
735.3364
735.8101
736.2769
736.734
737.179
737.6095
738.0234
738.4186
738.7933
739.146
739.4753
739.7801
740.0595
740.3129
740.5399
740.7403
740.9144
741.0624
741.1849
741.2827
741.3569
741.4086
741.4391
741.4501
741.4429
741.4195
741.3813
741.3303
741.2682
741.1966
741.1171
741.0313
740.9404
740.8456
740.7476
740.6469
740.5438
740.4378
740.3285
740.2152
740.0969
739.9725
739.8414
739.7038
739.5653
730.1242
729.3526
729.1155
728.8324
728.627
728.4646
728.3522
728.2872
728.2697
728.2989
728.3743
728.4948
728.6594
728.8665
729.1145
729.4015
729.7252
730.0833
730.473
730.8915
731.3355
731.802
732.2875
732.7883
733.3009
733.8216
734.3467
734.8723
735.3949
735.9108
736.4164
736.9086
737.3839
737.8396
738.2729
738.6814
739.0629
739.4156
739.7381
740.0294
740.2887
740.5159
740.7109
740.8743
741.0071
741.1106
741.1865
741.2368
741.2639
741.2705
741.2592
741.2331
741.1953
741.149
741.0978
741.0453
740.9957
740.9537
740.926
740.9258
738.5089
737.0592
736.3858
735.5785
734.8274
734.0894
733.3759
732.6875
732.0277
731.3996
730.8064
730.2512
729.7372
729.2673
728.8441
728.4701
728.1475
727.8782
727.6638
727.5054
727.4039
727.3598
727.3729
727.4431
727.5694
727.7506
727.9851
728.2707
728.6051
728.9853
729.4082
729.8701
730.3673
730.8956
731.4505
732.0276
732.622
733.2289
733.8433
734.4603
735.0749
735.6824
736.278
736.8571
737.4155
737.9491
738.4544
738.9279
739.3667
739.7684
740.1308
740.4524
740.7318
740.9686
741.163
741.316
741.4295
741.5073
741.5565
741.5931
750.0005
748.7902
748.1844
747.4347
746.6859
745.9043
745.0963
744.2622
743.4044
742.5255
741.6287
740.7175
739.7959
738.8678
737.9379
737.0105
736.0905
735.1828
734.2923
733.424
732.5827
731.7736
731.0012
730.2704
729.5855
728.9509
728.3704
727.8478
727.3863
726.9889
726.6581
726.396
726.2041
726.0837
726.0353
726.059
726.1544
726.3204
726.5555
726.8578
727.2245
727.6525
728.1384
728.678
729.2668
729.9
730.5723
731.278
732.0114
732.7661
733.536
734.3142
735.0943
735.8694
736.6333
737.3798
738.1036
738.8006
739.4702
740.1195
757.1789
756.7135
756.5446
756.3026
756.0477
755.7573
755.4299
755.0617
754.6499
754.1926
753.6879
753.135
752.533
751.882
751.1822
750.4343
749.6396
748.7999
747.9173
746.9943
746.034
745.0398
744.0157
742.9658
741.8947
740.8074
739.709
738.6051
737.5014
736.4038
735.3183
734.2512
733.2087
732.197
731.2224
730.291
729.4088
728.5815
727.8148
727.114
726.4838
725.929
725.4535
725.0609
724.7545
724.5366
724.4092
724.3737
724.4305
724.5797
724.8203
725.1508
725.5686
726.071
726.6542
727.3143
728.047
728.848
729.7142
730.6443
759.4207
759.0378
759.0258
758.9769
758.9737
758.9827
759.0039
759.03
759.0561
759.077
759.0877
759.0834
759.0593
759.0108
758.9333
758.8225
758.6743
758.4848
758.2503
757.9675
757.6334
757.2451
756.8003
756.2973
755.7344
755.1107
754.4256
753.6792
752.8719
752.0049
751.0796
750.0984
749.0639
747.9795
746.849
745.6768
744.4679
743.2277
741.9621
740.6775
739.3806
738.0785
736.7787
735.489
734.2171
732.9713
731.7596
730.5902
729.4713
728.4107
727.4161
726.4949
725.654
724.9001
724.2395
723.6783
723.2221
722.8762
722.6457
722.5325
764.5998
763.2252
762.748
762.1513
761.6711
761.2406
760.8725
760.5604
760.3029
760.0974
759.9414
759.832
759.7662
759.7406
759.7515
759.795
759.8668
759.9624
760.0772
760.206
760.3437
760.4849
760.6239
760.7552
760.873
760.9715
761.0449
761.0875
761.0935
761.0577
760.9746
760.8393
760.6469
760.3933
760.0743
759.6866
759.227
758.6931
758.0831
757.3957
756.6304
755.7872
754.8669
753.8712
752.8024
751.6635
750.4583
749.1914
747.8681
746.4942
745.0763
743.6215
742.1375
740.6324
739.1153
737.5957
736.0837
734.5904
733.1276
731.7068
779.5045
776.9926
775.8537
774.4615
773.1922
771.9523
770.7656
769.6285
768.5448
767.5166
766.5463
765.6362
764.7883
764.0044
763.2862
762.6349
762.0515
761.5364
761.0899
760.7118
760.4013
760.1573
759.9782
759.862
759.8062
759.8077
759.863
759.9682
760.1189
760.3103
760.5371
760.7936
761.0739
761.3715
761.68
761.9923
762.3013
762.5999
762.8807
763.1363
763.3594
763.5426
763.6789
763.7613
763.7833
763.7385
763.6212
763.4261
763.1482
762.7833
762.3279
761.7789
761.1342
760.3923
759.553
758.6171
757.5867
756.4654
755.2603
753.9851
801.1241
798.483
797.1596
795.5363
793.9742
792.3863
790.7947
789.1974
787.5992
786.0034
784.4145
782.8365
781.2741
779.7317
778.214
776.7257
775.2714
773.8559
772.4837
771.1594
769.8872
768.6715
767.5164
766.4255
765.4026
764.451
763.5735
762.773
762.0517
761.4114
760.8536
760.3792
759.9887
759.6821
759.4587
759.3174
759.2564
759.2733
759.3653
759.5287
759.7594
760.0526
760.403
760.8046
761.2509
761.7349
762.2492
762.7859
763.3365
763.8923
764.4443
764.9831
765.4992
765.983
766.4253
766.8169
767.1493
767.4153
767.6104
767.7399
819.3134
817.7221
816.8777
815.8246
814.7569
813.6257
812.4411
811.2015
809.9088
808.5648
807.1716
805.7319
804.2484
802.724
801.1619
799.5657
797.9389
796.2853
794.6089
792.914
791.2047
789.4858
787.7618
786.0376
784.3182
782.6086
780.9143
779.2405
777.5928
775.9767
774.3977
772.8616
771.3739
769.9403
768.5663
767.2574
766.0188
764.8557
763.7729
762.775
761.8663
761.0508
760.332
759.7127
759.1956
758.7826
758.4749
758.2733
758.1775
758.1867
758.2991
758.5121
758.8221
759.2249
759.7155
760.2881
760.9365
761.6543
762.4362
763.2811
825.8598
825.8392
825.8166
825.7524
825.621
825.4233
825.1549
824.8155
824.4041
823.9209
823.3658
822.7394
822.0422
821.275
820.4386
819.5341
818.5627
817.5255
816.4239
815.2595
814.0337
812.7482
811.4049
810.0058
808.5528
807.0484
805.4949
803.8949
802.2513
800.5673
798.8459
797.0909
795.306
793.4954
791.6633
789.8146
787.9541
786.0871
784.2193
782.3566
780.505
778.6713
776.8619
775.0841
773.3449
771.6518
770.0124
768.4342
766.9249
765.4922
764.1435
762.8861
761.7269
760.6729
759.7305
758.9063
758.2062
757.6364
757.2038
756.9147
819.0309
820.425
821.193
822.0831
822.8853
823.6411
824.3342
824.9649
825.5301
826.0283
826.4583
826.8189
827.1095
827.3294
827.4783
827.556
827.5624
827.4976
827.3616
827.1546
826.877
826.5291
826.111
825.6234
825.0664
824.4406
823.7463
822.984
822.1541
821.2571
820.2933
819.2633
818.1676
817.0068
815.7815
814.4924
813.1403
811.7263
810.2513
808.7168
807.1241
805.4752
803.7721
802.017
800.2128
798.3626
796.4699
794.5387
792.5734
790.5789
788.5604
786.5239
784.4757
782.4226
780.3723
778.3333
776.315
774.3277
772.3845
770.5016
802.3728
804.5066
805.7551
807.2328
808.6487
810.059
811.4411
812.7937
814.1112
815.3897
816.6253
817.8147
818.9547
820.0426
821.0756
822.0517
822.9686
823.8247
824.6183
825.3482
826.0133
826.6126
827.1456
827.6118
828.0108
828.3426
828.6072
828.8047
828.9355
828.9998
828.9982
828.931
828.7989
828.6022
828.3416
828.0173
827.63
827.1797
826.6668
826.0914
825.4536
824.7531
823.9897
823.1632
822.2731
821.3188
820.2996
819.2149
818.0638
816.8455
815.559
814.2036
812.7782
811.2825
809.716
808.079
806.3726
804.5989
802.7627
800.8757
783.4338
785.1586
786.2993
787.6653
789.0475
790.4801
791.9462
793.4421
794.9618
796.5
798.0514
799.6109
801.1734
802.7338
804.287
805.8282
807.3524
808.855
810.3312
811.7766
813.187
814.5581
815.8862
817.1675
818.3987
819.5768
820.699
821.7627
822.7658
823.7066
824.5835
825.3955
826.1416
826.8215
827.435
827.9822
828.4636
828.8799
829.232
829.5211
829.7486
829.916
830.0249
830.077
830.0739
830.0176
829.9095
829.7513
829.5444
829.2899
828.9887
828.6412
828.2477
827.808
827.322
826.789
826.2084
825.58
824.9042
824.185
772.1208
772.3522
772.7495
773.2352
773.8179
774.4839
775.2325
776.0605
776.9659
777.9463
778.9992
780.122
781.3117
782.565
783.8783
785.2479
786.6695
788.1387
789.6508
791.2007
792.7832
794.393
796.0244
797.6717
799.329
800.9904
802.6499
804.3015
805.9393
807.5575
809.1503
810.7122
812.2377
813.7219
815.1597
816.5467
817.8788
819.1522
820.3634
821.5097
822.5886
823.5981
824.5368
825.4039
826.199
826.9222
827.5743
828.1564
828.6702
829.1179
829.5018
829.8248
830.0901
830.3011
830.4619
830.5767
830.6504
830.6882
830.6967
830.6838
774.5736
773.2407
772.7467
772.1536
771.6725
771.2476
770.8938
770.6098
770.3993
770.2647
770.2088
770.234
770.3427
770.5369
770.8183
771.1882
771.6478
772.1975
772.8376
773.5678
774.3874
775.2953
776.2899
777.3691
778.5305
779.7709
781.087
782.475
783.9304
785.4486
787.0244
788.6522
790.3263
792.0405
793.7881
795.5626
797.3568
799.1638
800.9762
802.7866
804.5877
806.3721
808.1324
809.8616
811.5527
813.1989
814.7937
816.3312
817.8056
819.2116
820.5445
821.7999
822.9742
824.0643
825.0683
825.9849
826.8142
827.558
828.221
828.815
786.8932
785.1254
784.2845
783.2504
782.269
781.278
780.2945
779.3184
778.3547
777.408
776.483
775.585
774.7189
773.8902
773.104
772.3656
771.6802
771.0528
770.4884
769.9918
769.5678
769.2206
768.9546
768.7736
768.6814
768.6811
768.7759
768.9684
769.2607
769.6547
770.1517
770.7527
771.4581
772.2678
773.1812
774.1971
775.314
776.5295
777.841
779.2449
780.7376
782.3144
783.9703
785.6999
787.497
789.355
791.267
793.2254
795.2221
797.249
799.297
801.3571
803.4199
805.4757
807.5152
809.5288
811.5076
813.444
815.3333
817.1805
797.6961
796.8376
796.4063
795.8462
795.2612
794.6201
793.9287
793.1862
792.3948
791.5566
790.6745
789.7514
788.791
787.7969
786.7731
785.7241
784.6541
783.5681
782.4708
781.3674
780.2632
779.1635
778.0739
777
775.9476
774.9226
773.9308
772.9781
772.0706
771.2141
770.4146
769.6779
769.0098
768.4159
767.9017
767.4725
767.1336
766.8898
766.7457
766.7057
766.7739
766.9539
767.2489
767.6618
768.1951
768.8505
769.6296
770.533
771.5611
772.7133
773.9885
775.3847
776.8994
778.5292
780.2705
782.1187
784.069
786.1164
788.2574
790.4928
797.8752
798.4325
798.7639
799.1217
799.4148
799.6545
799.8319
799.9456
799.9934
799.9742
799.8869
799.7312
799.5068
799.2138
798.8526
798.4239
797.9286
797.368
796.7435
796.0569
795.3101
794.5055
793.6457
792.7334
791.7718
790.7641
789.7141
788.6256
787.5026
786.3497
785.1713
783.9724
782.758
781.5335
780.3042
779.0758
777.8544
776.6459
775.4565
774.2926
773.1607
772.0674
771.0194
770.0234
769.0863
768.2149
767.4161
766.6966
766.0633
765.5226
765.0811
764.7449
764.5199
764.4121
764.4271
764.5706
764.8479
765.2645
765.8264
766.5389
786.9037
788.4003
789.2953
790.348
791.3475
792.3322
793.2841
794.2019
795.0807
795.9174
796.7086
797.4512
798.1425
798.7798
799.3605
799.8822
800.3427
800.74
801.0722
801.3376
801.5346
801.662
801.7187
801.7038
801.6167
801.4569
801.2244
800.9192
800.5416
800.0923
799.5722
798.9823
798.3242
797.5995
796.8101
795.9584
795.0468
794.0781
793.0553
791.9819
790.8615
789.6978
788.4951
787.2577
785.9903
784.6978
783.3855
782.0585
780.7226
779.3836
778.0473
776.7197
775.4073
774.1163
772.8538
771.6269
770.4434
769.3115
768.2408
767.2412
771.0381
772.5691
773.5475
774.72
775.8822
777.0718
778.2716
779.4807
780.6946
781.9102
783.1242
784.3334
785.5344
786.7241
787.8991
789.056
790.1915
791.3022
792.3845
793.4352
794.4508
795.428
796.3634
797.2537
798.0958
798.8867
799.6233
800.3029
800.9228
801.4804
801.9734
802.3996
802.7572
803.0445
803.2598
803.402
803.47
803.4632
803.3811
803.2233
802.9901
802.6817
802.2988
801.8422
801.3132
800.7132
800.0438
799.3072
798.5054
797.641
796.7164
795.7344
794.6979
793.6103
792.4751
791.2964
790.0786
788.8273
787.5497
786.2558
757.6389
758.5314
759.1946
759.9967
760.8278
761.7046
762.6179
763.5674
764.5512
765.5681
766.6169
767.6963
768.8048
769.941
771.1032
772.2894
773.4976
774.7258
775.9713
777.2318
778.5043
779.7861
781.0741
782.365
783.6554
784.9419
786.2209
787.4887
788.7415
789.9755
791.1869
792.3718
793.5262
794.6465
795.7286
796.769
797.764
798.7101
799.6038
800.4421
801.2219
801.9403
802.5948
803.1829
803.7027
804.1523
804.5302
804.8351
805.066
805.2221
805.3031
805.3086
805.2387
805.0939
804.8749
804.5832
804.2206
803.79
803.2964
802.7486
750.4408
750.6182
750.8823
751.1977
751.554
751.9441
752.3671
752.8224
753.3106
753.8324
754.3886
754.98
755.6077
756.2723
756.9748
757.7158
758.4958
759.3153
760.1745
761.0736
762.0125
762.9909
764.0083
765.0641
766.1574
767.2869
768.4514
769.6493
770.8786
772.1374
773.4232
774.7335
776.0656
777.4162
778.7823
780.1604
781.5467
782.9376
784.3291
785.717
787.0971
788.4652
789.8169
791.1477
792.4534
793.7295
794.9718
796.1759
797.3377
798.4532
799.5183
800.5293
801.4824
802.3745
803.2026
803.9643
804.658
805.283
805.8409
806.3389
748.2441
748.0755
748.1274
748.1749
748.2537
748.3438
748.4477
748.5636
748.6923
748.8346
748.9915
749.1643
749.3544
749.5632
749.7923
750.0434
750.3181
750.6182
750.9455
751.3016
751.6885
752.1078
752.5614
753.0509
753.578
754.1442
754.7512
755.4003
756.0928
756.8299
757.6125
758.4415
759.3175
760.241
761.212
762.2307
763.2967
764.4094
765.5679
766.7713
768.0179
769.3061
770.6338
771.9987
773.398
774.8289
776.2881
777.772
779.2767
780.7981
782.3317
783.8727
785.4162
786.9571
788.4903
790.011
791.5144
792.9968
794.457
795.9002
747.5443
747.3816
747.4284
747.4611
747.5145
747.5679
747.6228
747.6765
747.7291
747.7803
747.8302
747.8791
747.9274
747.9757
748.0244
748.0744
748.1264
748.1812
748.2398
748.3032
748.3727
748.4493
748.5344
748.6296
748.7363
748.8563
748.9912
749.1431
749.3138
749.5055
749.7204
749.9608
750.2289
750.5272
750.8581
751.2242
751.628
752.0719
752.5585
753.0901
753.6692
754.298
754.9786
755.7131
756.5032
757.3506
758.2567
759.2225
760.2489
761.3361
762.4843
763.6929
764.961
766.2876
767.671
769.1097
770.6016
772.1456
773.7421
775.3978
746.087
746.0364
746.1495
746.2588
746.3838
746.5087
746.6326
746.7534
746.8705
746.9835
747.0921
747.1962
747.2959
747.391
747.4817
747.5679
747.6497
747.727
747.7999
747.8683
747.9324
747.992
748.0473
748.0982
748.1448
748.1873
748.2257
748.2605
748.2918
748.32
748.3458
748.3697
748.3926
748.4153
748.4389
748.4647
748.4942
748.5289
748.5708
748.622
748.6846
748.7611
748.8543
748.967
749.1024
749.2637
749.4544
749.6781
749.9384
750.2391
750.584
750.9766
751.4207
751.92
752.4784
753.0996
753.7875
754.5465
755.3829
756.3065
743.707
743.7237
743.8833
744.0502
744.2327
744.4185
744.6045
744.7887
744.9699
745.1475
745.3209
745.4901
745.655
745.8155
745.9719
746.1242
746.2727
746.4176
746.5591
746.6975
746.8329
746.9656
747.0957
747.2232
747.3482
747.4707
747.5906
747.7077
747.8217
747.9325
748.0395
748.1425
748.2409
748.3341
748.4217
748.5031
748.5777
748.6449
748.7043
748.7553
748.7976
748.831
748.8553
748.8705
748.8768
748.8747
748.8647
748.8479
748.8253
748.7983
748.7685
748.7379
748.7085
748.6832
748.6651
748.6577
748.6655
748.6935
748.7488
748.8411
741.5345
741.4089
741.5183
741.6343
741.7847
741.9511
742.13
742.3178
742.5118
742.71
742.9108
743.1125
743.314
743.514
743.7118
743.9065
744.0976
744.2846
744.4672
744.6453
744.8188
744.9879
745.1527
745.3136
745.4709
745.6252
745.777
745.9268
746.0754
746.2232
746.3709
746.519
746.6682
746.8188
746.9713
747.126
747.2831
747.4427
747.6047
747.7689
747.935
748.1026
748.271
748.4396
748.6073
748.7733
748.9363
749.0952
749.2486
749.395
749.5329
749.6606
749.7765
749.8791
749.9672
750.0398
750.0964
750.1373
750.1641
750.1807
742.3969
741.6444
741.4576
741.2323
741.0871
740.9811
740.9162
740.887
740.8906
740.9242
740.985
741.0704
741.1779
741.3049
741.449
741.6076
741.7784
741.9591
742.1475
742.3414
742.5389
742.7381
742.9373
743.135
743.3299
743.5208
743.7067
743.887
744.061
744.2285
744.3894
744.5437
744.6917
744.834
744.9713
745.1044
745.2342
745.3621
745.4892
745.6169
745.7466
745.8798
746.0181
746.1628
746.3154
746.4773
746.6498
746.8339
747.0306
747.2405
747.464
747.7012
747.9518
748.2155
748.4916
748.7795
749.0784
749.3879
749.7081
750.0398
750.5103
748.6918
747.9439
747.0495
746.276
745.5497
744.884
744.2732
743.7176
743.2162
742.7683
742.3731
742.0293
741.736
741.4914
741.2942
741.1422
741.0336
740.966
740.937
740.944
740.9843
741.0551
741.1533
741.276
741.4201
741.5824
741.76
741.9497
742.1486
742.3537
742.5624
742.7719
742.9799
743.1841
743.3825
743.5733
743.7551
743.9267
744.0872
744.2362
744.3733
744.4989
744.6132
744.7173
744.8123
744.8996
744.9811
745.0588
745.1349
745.2119
745.2923
745.3787
745.4741
745.5815
745.7043
745.8459
746.0107
746.2041
746.4326
767.4118
764.7744
763.5374
762.039
760.6529
759.2832
757.9519
756.655
755.3961
754.1774
753.0015
751.8711
750.7887
749.7565
748.7768
747.8515
746.9824
746.1709
745.4183
744.7255
744.0932
743.5216
743.0109
742.5606
742.1701
741.8385
741.5644
741.3462
741.1821
741.0697
741.0065
740.9897
741.0162
741.0827
741.1857
741.3215
741.4862
741.6759
741.8866
742.1142
742.3546
742.6038
742.858
743.1133
743.3661
743.613
743.851
744.0772
744.2892
744.4847
744.662
744.8195
744.9563
745.072
745.1668
745.2417
745.2986
745.3407
745.3746
745.4128
787.9788
785.5085
784.2872
782.781
781.3295
779.8452
778.3475
776.8329
775.3052
773.767
772.2218
770.6731
769.1249
767.5808
766.0451
764.5218
763.015
761.529
760.0678
758.6357
757.2368
755.875
754.5545
753.2789
752.052
750.8773
749.7581
748.6975
747.6983
746.763
745.894
745.093
744.3617
743.7012