/*--------------------------------*- C++ -*----------------------------------*\
| =========                 |                                                 |
| \\      /  F ield         | OpenFOAM: The Open Source CFD Toolbox           |
|  \\    /   O peration     | Version:  2312                                  |
|   \\  /    A nd           | Website:  www.openfoam.com                      |
|    \\/     M anipulation  |                                                 |
\*---------------------------------------------------------------------------*/
FoamFile
{
    version     2.0;
    format      ascii;
    arch        "LSB;label=32;scalar=64";
    class       volScalarField;
    location    "4800";
    object      ILambda_4_0;
}
// * * * * * * * * * * * * * * * * * * * * * * * * * * * * * * * * * * * * * //

dimensions      [1 0 -3 0 0 0 0];

internalField   nonuniform List<scalar> 
12000
(
3712.668
3711.735
3710.822
3709.941
3709.094
3708.275
3707.474
3706.689
3705.912
3705.137
3704.359
3703.57
3702.763
3701.933
3701.071
3700.169
3699.218
3698.209
3697.13
3695.972
3694.722
3693.371
3691.907
3690.32
3688.602
3686.744
3684.74
3682.588
3680.285
3677.834
3675.239
3672.51
3669.657
3666.696
3663.647
3660.53
3657.371
3654.199
3651.045
3647.942
3644.924
3642.028
3639.289
3636.745
3634.43
3632.38
3630.626
3629.197
3628.121
3627.418
3627.108
3627.201
3627.707
3628.622
3629.949
3631.677
3633.76
3636.301
3638.623
3643.677
3744.052
3743.442
3742.729
3741.921
3741.011
3739.994
3738.867
3737.625
3736.261
3734.77
3733.142
3731.37
3729.444
3727.353
3725.088
3722.638
3719.998
3717.161
3714.126
3710.894
3707.473
3703.873
3700.114
3696.216
3692.211
3688.131
3684.019
3679.917
3675.877
3671.95
3668.192
3664.659
3661.408
3658.494
3655.971
3653.888
3652.29
3651.217
3650.7
3650.763
3651.421
3652.679
3654.531
3656.962
3659.944
3663.438
3667.395
3671.755
3676.444
3681.383
3686.48
3691.635
3696.742
3701.682
3706.349
3710.589
3714.346
3717.292
3719.762
3720.845
3759.617
3757.25
3754.739
3752.088
3749.296
3746.364
3743.287
3740.058
3736.667
3733.107
3729.37
3725.456
3721.368
3717.118
3712.725
3708.219
3703.636
3699.023
3694.434
3689.932
3685.583
3681.46
3677.636
3674.186
3671.182
3668.693
3666.782
3665.503
3664.901
3665.01
3665.85
3667.427
3669.733
3672.742
3676.414
3680.693
3685.506
3690.765
3696.368
3702.199
3708.131
3714.024
3719.732
3725.1
3729.968
3734.172
3737.547
3739.928
3741.155
3741.069
3739.518
3736.36
3731.462
3724.695
3715.97
3705.12
3692.349
3676.328
3662.347
3628.465
3750.147
3746.055
3741.887
3737.616
3733.23
3728.721
3724.085
3719.332
3714.49
3709.607
3704.748
3699.993
3695.435
3691.176
3687.321
3683.979
3681.251
3679.232
3678.004
3677.633
3678.166
3679.629
3682.024
3685.33
3689.5
3694.46
3700.114
3706.342
3713.001
3719.93
3726.947
3733.86
3740.462
3746.539
3751.87
3756.234
3759.411
3761.182
3761.341
3759.688
3756.037
3750.219
3742.08
3731.488
3718.331
3702.517
3683.981
3662.678
3638.589
3611.717
3582.092
3549.763
3514.802
3477.299
3437.395
3395.094
3351.121
3303.002
3262.426
3180.724
3722.719
3718.402
3713.935
3709.348
3704.774
3700.35
3696.245
3692.65
3689.756
3687.742
3686.759
3686.927
3688.324
3690.981
3694.886
3699.974
3706.137
3713.222
3721.033
3729.34
3737.883
3746.375
3754.511
3761.975
3768.442
3773.59
3777.104
3778.677
3778.023
3774.875
3768.992
3760.165
3748.213
3732.992
3714.393
3692.342
3666.804
3637.781
3605.309
3569.46
3530.339
3488.082
3442.855
3394.846
3344.271
3291.363
3236.373
3179.565
3121.214
3061.603
3001.016
2939.743
2878.068
2816.266
2754.645
2693.316
2633.186
2571.64
2521.098
2429.687
3701.275
3697.944
3695.163
3693.616
3693.778
3695.855
3699.935
3705.968
3713.756
3722.992
3733.28
3744.152
3755.095
3765.566
3775.01
3782.876
3788.63
3791.771
3791.836
3788.413
3781.144
3769.734
3753.951
3733.629
3708.667
3679.032
3644.754
3605.922
3562.682
3515.235
3463.827
3408.747
3350.319
3288.898
3224.864
3158.615
3090.561
3021.12
2950.71
2879.746
2808.636
2737.773
2667.535
2598.279
2530.34
2464.027
2399.621
2337.374
2277.507
2220.21
2165.641
2113.928
2065.166
2019.411
1976.734
1937.033
1900.631
1866.205
1838.87
1795.967
3700.184
3706.119
3716.864
3731.086
3746.927
3762.661
3776.843
3788.134
3795.364
3797.567
3793.967
3783.974
3767.179
3743.341
3712.376
3674.346
3629.441
3577.967
3520.329
3457.016
3388.587
3315.654
3238.868
3158.908
3076.467
2992.239
2906.911
2821.153
2735.606
2650.882
2567.551
2486.14
2407.128
2330.942
2257.957
2188.492
2122.812
2061.129
2003.599
1950.328
1901.373
1856.742
1816.4
1780.272
1748.244
1720.168
1695.869
1675.143
1657.764
1643.488
1632.058
1623.202
1616.643
1612.094
1609.289
1607.923
1607.699
1608.523
1609.478
1612.474
3736.622
3768.428
3782.162
3777.731
3755.72
3717.458
3664.474
3598.255
3520.42
3432.663
3336.674
3234.127
3126.648
3015.797
2903.048
2789.78
2677.261
2566.641
2458.951
2355.095
2255.851
2161.876
2073.701
1991.743
1916.306
1847.588
1785.687
1730.612
1682.287
1640.562
1605.219
1575.984
1552.53
1534.491
1521.466
1513.028
1508.729
1508.11
1510.706
1516.05
1523.681
1533.148
1544.011
1555.85
1568.263
1580.875
1593.332
1605.31
1616.513
1626.674
1635.555
1642.95
1648.683
1652.603
1654.599
1654.566
1652.516
1647.887
1643.288
1627.774
3627.247
3409.831
3194.793
2984.568
2781.716
2588.526
2406.578
2237.082
2081.021
1939.045
1811.498
1698.487
1599.895
1515.421
1444.599
1386.83
1341.403
1307.518
1284.306
1270.849
1266.196
1269.381
1279.431
1295.386
1316.303
1341.27
1369.41
1399.89
1431.927
1464.788
1497.801
1530.346
1561.869
1591.871
1619.916
1645.627
1668.683
1688.822
1705.833
1719.558
1729.886
1736.754
1740.136
1740.051
1736.548
1729.71
1719.648
1706.498
1690.417
1671.582
1650.182
1626.42
1600.509
1572.667
1543.129
1512.038
1480.032
1445.436
1416.546
1359.816
624.543
553.0571
509.3899
491.5909
496.8014
521.6556
562.9735
617.9683
683.9937
758.5834
839.4978
924.7033
1012.368
1100.853
1188.709
1274.663
1357.615
1436.624
1510.903
1579.804
1642.813
1699.539
1749.702
1793.125
1829.724
1859.498
1882.521
1898.933
1908.933
1912.765
1910.718
1903.116
1890.31
1872.671
1850.59
1824.464
1794.7
1761.703
1725.878
1687.622
1647.324
1605.36
1562.094
1517.871
1473.021
1427.851
1382.652
1337.693
1293.219
1249.456
1206.608
1164.858
1124.366
1085.27
1047.711
1011.696
977.6621
944.29
917.3249
872.1769
808.9024
1053.113
1273.781
1470.869
1644.806
1796.398
1926.818
2037.182
2128.571
2202.134
2259.044
2300.477
2327.605
2341.59
2343.578
2334.687
2316.011
2288.604
2253.485
2211.63
2163.968
2111.383
2054.708
1994.725
1932.168
1867.715
1801.995
1735.584
1669.011
1602.752
1537.236
1472.846
1409.921
1348.754
1289.6
1232.674
1178.154
1126.186
1076.88
1030.319
986.5574
945.625
907.5278
872.2513
839.7622
810.0106
782.9318
758.4481
736.471
716.9025
699.6371
684.5628
671.5631
660.5156
651.308
643.7968
637.856
633.4523
630.2238
628.1219
3706.836
3542.562
3379.151
3217.241
3057.412
2900.542
2747.261
2597.988
2453.198
2313.307
2178.644
2049.483
1926.041
1808.484
1696.929
1591.446
1492.064
1398.772
1311.525
1230.245
1154.826
1085.137
1021.024
962.3131
908.8146
860.3247
816.6285
777.5019
742.7143
712.0303
685.212
662.0205
642.2176
625.5673
611.8371
600.7988
592.2304
585.9159
581.6468
579.2227
578.4513
579.1495
581.1432
584.2678
588.3683
593.2992
598.9249
605.1192
611.7653
618.7561
625.9931
633.387
640.8569
648.3307
655.7405
663.0531
670.107
677.2475
683.0383
693.0841
675.2095
627.9836
585.8187
548.685
516.5264
489.0669
465.977
447.0126
431.9094
420.3871
412.1729
406.998
404.5985
404.7174
407.1049
411.5204
417.7323
425.5194
434.6711
444.9882
456.2827
468.3782
481.1105
494.3267
507.8861
521.6591
535.5278
549.3852
563.1351
576.6917
589.9789
602.9305
615.4889
627.6052
639.2387
650.3557
660.9301
670.9417
680.3768
689.2266
697.4877
705.1611
712.2517
718.7683
724.7226
730.1295
735.0059
739.3712
743.2465
746.6543
749.6187
752.1643
754.3166
756.1031
757.5475
758.6798
759.5199
760.0835
760.4868
760.4518
714.0835
715.9856
718.5235
721.6326
725.1836
729.0848
733.2432
737.5657
741.9711
746.3867
750.749
755.0021
759.0984
762.9973
766.6652
770.0751
773.2058
776.0416
778.5718
780.7903
782.695
784.2875
785.5726
786.5579
787.2535
787.6715
787.8256
787.7309
787.4037
786.8608
786.1197
785.1982
784.114
782.885
781.5286
780.0619
778.5016
776.8637
775.1637
773.4164
771.6359
769.8356
768.0282
766.2256
764.4392
762.6795
760.9564
759.2792
757.6565
756.0965
754.6068
753.1943
751.8651
750.6262
749.4839
748.4319
747.4925
746.6397
745.9657
745.0281
726.7602
727.4155
727.9914
728.5066
728.9672
729.3687
729.7101
729.9925
730.217
730.3858
730.5025
730.5712
730.5969
730.5849
730.541
730.4712
730.3813
730.2773
730.1649
730.0493
729.9357
729.8285
729.732
729.6496
729.5844
729.539
729.5154
729.5151
729.5392
729.5885
729.6632
729.7635
729.8892
730.0402
730.2161
730.4167
730.6419
730.8916
731.1661
731.4656
731.791
732.143
732.523
732.9322
733.3722
733.8448
734.3516
734.8945
735.475
736.0946
736.7545
737.4555
738.1973
738.9804
739.8056
740.6582
741.5443
742.4957
743.2929
744.8141
734.4073
734.8841
735.3153
735.7272
736.13
736.5265
736.9186
737.3083
737.6961
738.0826
738.468
738.8523
739.2354
739.6171
739.9967
740.3736
740.7468
741.1151
741.4772
741.8314
742.1763
742.51
742.831
743.1378
743.4291
743.7038
743.9613
744.2014
744.4243
744.6311
744.8231
745.0024
745.1718
745.3345
745.4943
745.6555
745.8227
746.0008
746.1947
746.4094
746.6495
746.9192
747.2222
747.5613
747.9384
748.354
748.8075
749.2967
749.8175
750.3645
750.9303
751.5056
752.0789
752.6379
753.1701
753.6394
754.0684
754.3628
754.6589
754.5383
740.2916
740.6531
740.9689
741.2618
741.5392
741.8033
742.0549
742.2947
742.5224
742.7372
742.9385
743.1254
743.2969
743.4519
743.5896
743.7089
743.8091
743.8898
743.951
743.9929
744.0167
744.0241
744.0174
744
743.9758
743.9495
743.9265
743.9128
743.9148
743.9389
743.9918
744.0797
744.2084
744.3831
744.6077
744.885
745.2162
745.6004
746.0351
746.5154
747.0338
747.5807
748.1436
748.7076
749.2552
749.7665
750.2191
750.5886
750.8488
750.9717
750.9284
750.689
750.2226
749.5008
748.4939
747.1512
745.5216
743.3319
741.4648
736.3781
744.2416
744.4045
744.5176
744.6007
744.6618
744.7035
744.7272
744.7333
744.7217
744.6922
744.6447
744.5794
744.4969
744.3989
744.2875
744.1662
744.0393
743.9123
743.7916
743.6842
743.598
743.541
743.5213
743.5466
743.6239
743.7591
743.9564
744.218
744.5439
744.9314
745.3749
745.8653
746.3906
746.935
747.4796
748.002
748.4766
748.8749
749.166
749.3165
749.2916
749.055
748.5699
747.7995
746.7078
745.2597
743.4226
741.1662
738.4638
735.2926
731.6346
727.4771
722.8123
717.6431
711.9691
705.7921
699.215
691.8815
685.5597
672.6329
744.9762
744.8986
744.7702
744.6118
744.4335
744.2389
744.0301
743.8099
743.5815
743.3495
743.1202
742.9014
742.7022
742.5329
742.4043
742.3269
742.3108
742.3643
742.4936
742.702
742.9893
743.3513
743.7793
744.26
744.7749
745.301
745.8103
746.2704
746.6449
746.8938
746.9746
746.8425
746.4516
745.7559
744.71
743.2702
741.3959
739.0498
736.1997
732.819
728.8873
724.3919
719.3279
713.6987
707.5171
700.805
693.5941
685.9257
677.851
669.4305
660.7345
651.8421
642.8402
633.8296
624.8981
616.1735
607.7685
599.6884
592.897
582.7783
742.6612
742.4573
742.2051
741.9359
741.6671
741.4094
741.1761
740.9821
740.8435
740.7759
740.7926
740.9037
741.1141
741.4225
741.8206
742.2922
742.8133
743.3518
743.8683
744.3165
744.6443
744.7953
744.7097
744.3261
743.5832
742.4212
740.7839
738.62
735.8847
732.5413
728.5624
723.9312
718.6422
712.7024
706.1317
698.9631
691.2431
683.0317
674.402
665.4396
656.2426
646.92
637.5914
628.3856
619.4395
610.8968
602.9066
595.6219
589.1984
583.7928
579.5615
576.6588
575.2357
575.4441
577.3997
581.3086
587.0416
595.7216
603.4322
625.8804
739.6941
739.6003
739.4863
739.4251
739.4517
739.5887
739.8517
740.2404
740.738
741.3103
741.907
742.4638
742.9045
743.1442
743.0931
742.6593
741.7532
740.2901
738.194
735.4002
731.8578
727.5323
722.4069
716.484
709.7859
702.3554
694.2559
685.5705
676.4018
666.8705
657.1142
647.2856
637.5505
628.0862
619.079
610.7221
603.213
596.7515
591.5374
587.768
585.6359
585.3272
587.0194
590.8793
597.062
605.7085
616.9454
630.8831
647.6152
667.2175
689.7482
715.2461
743.7331
775.2163
809.6445
847.1315
886.9917
931.9295
970.0083
1050.483
739.4024
739.7006
740.1473
740.7686
741.4632
742.1139
742.5731
742.6695
742.2328
741.1029
739.1404
736.2337
732.3038
727.308
721.2419
714.1396
706.0733
697.1517
687.5173
677.3437
666.8317
656.2055
645.7088
635.5997
626.1472
617.6259
610.3128
604.4822
600.4025
598.3324
598.5176
601.1879
606.5545
614.8081
626.1164
640.6233
658.447
679.68
704.3881
732.6104
764.3595
799.6218
838.3586
880.5063
925.9784
974.6661
1026.44
1081.153
1138.638
1198.715
1261.189
1325.855
1392.497
1460.896
1530.779
1602.112
1673.781
1749.383
1812.2
1931.927
743.3924
744.1111
744.3394
743.5005
741.1681
737.1602
731.3935
723.9036
714.8494
704.4788
693.1132
681.1294
668.9438
656.9989
645.7499
635.654
627.1601
620.701
616.6852
615.4918
617.4652
622.911
632.0937
645.2343
662.5094
684.0508
709.9455
740.2367
774.9252
813.9713
857.2965
904.7865
956.2938
1011.64
1070.621
1133.006
1198.545
1266.971
1338
1411.338
1486.684
1563.729
1642.162
1721.673
1801.954
1882.7
1963.614
2044.409
2124.806
2204.538
2283.353
2361.011
2437.289
2511.986
2584.868
2655.932
2724.329
2792.838
2848.785
2946.404
748.2654
741.3742
729.9755
715.3635
699.2269
683.1055
668.2423
655.7644
646.6526
641.7154
641.6133
646.8671
657.8676
674.886
698.0836
727.5222
763.1737
804.9295
852.6104
905.9751
964.7291
1028.533
1097.01
1169.754
1246.335
1326.308
1409.218
1494.602
1582.001
1670.957
1761.023
1851.763
1942.755
2033.599
2123.909
2213.327
2301.515
2388.161
2472.977
2555.703
2636.104
2713.972
2789.125
2861.405
2930.683
2996.849
3059.82
3119.534
3175.95
3229.048
3278.826
3325.298
3368.497
3408.472
3445.259
3478.999
3509.572
3537.846
3560.365
3593.922
731.7377
700.4693
686.1122
688.1846
705.7978
737.5903
782.1335
838.1827
904.4866
979.8026
1062.943
1152.767
1248.188
1348.172
1451.743
1557.985
1666.041
1775.116
1884.476
1993.447
2101.416
2207.827
2312.184
2414.046
2513.026
2608.789
2701.049
2789.569
2874.155
2954.654
3030.955
3102.982
3170.692
3234.074
3293.146
3347.95
3398.551
3445.035
3487.507
3526.087
3560.905
3592.108
3619.846
3644.282
3665.58
3683.909
3699.441
3712.348
3722.803
3730.975
3737.032
3741.139
3743.456
3744.14
3743.339
3741.176
3737.923
3733.179
3728.998
3718.214
860.689
1063.942
1260.685
1450.471
1632.959
1807.663
1974.387
2133.059
2283.554
2425.81
2559.836
2685.681
2803.435
2913.225
3015.213
3109.587
3196.565
3276.383
3349.3
3415.588
3475.533
3529.429
3577.579
3620.29
3657.871
3690.634
3718.884
3742.928
3763.066
3779.589
3792.785
3802.93
3810.291
3815.125
3817.677
3818.181
3816.858
3813.919
3809.558
3803.961
3797.297
3789.727
3781.396
3772.439
3762.979
3753.128
3742.986
3732.644
3722.184
3711.677
3701.189
3690.774
3680.483
3670.357
3660.439
3650.734
3641.374
3631.97
3624.245
3610.745
3779.242
3822.32
3859.799
3891.836
3918.644
3940.592
3958.094
3971.479
3981.081
3987.237
3990.269
3990.487
3988.186
3983.647
3977.138
3968.912
3959.206
3948.244
3936.233
3923.366
3909.821
3895.763
3881.342
3866.692
3851.936
3837.184
3822.533
3808.068
3793.862
3779.977
3766.467
3753.374
3740.731
3728.565
3716.892
3705.725
3695.066
3684.917
3675.27
3666.116
3657.443
3649.234
3641.471
3634.135
3627.206
3620.664
3614.488
3608.659
3603.159
3597.971
3593.08
3588.474
3584.143
3580.077
3576.273
3572.731
3569.432
3566.384
3563.805
3560.079
3747.884
3744.464
3740.356
3735.673
3730.563
3725.129
3719.464
3713.661
3707.797
3701.94
3696.148
3690.472
3684.952
3679.624
3674.514
3669.643
3665.028
3660.676
3656.595
3652.783
3649.237
3645.949
3642.909
3640.103
3637.514
3635.123
3632.911
3630.855
3628.932
3627.121
3625.397
3623.737
3622.121
3620.528
3618.94
3617.339
3615.713
3614.05
3612.342
3610.585
3608.778
3606.924
3605.028
3603.101
3601.156
3599.21
3597.282
3595.395
3593.573
3591.844
3590.236
3588.779
3587.504
3586.437
3585.61
3585.061
3584.772
3584.885
3585.043
3586.529
3743.548
3740.946
3738.303
3735.654
3733.014
3730.396
3727.806
3725.244
3722.711
3720.206
3717.727
3715.27
3712.831
3710.404
3707.982
3705.557
3703.121
3700.664
3698.175
3695.644
3693.059
3690.409
3687.684
3684.874
3681.971
3678.969
3675.862
3672.65
3669.335
3665.92
3662.414
3658.83
3655.183
3651.495
3647.787
3644.089
3640.43
3636.845
3633.37
3630.043
3626.904
3623.992
3621.349
3619.013
3617.022
3615.411
3614.212
3613.454
3613.158
3613.344
3614.021
3615.196
3616.866
3619.017
3621.64
3624.697
3628.148
3632.064
3635.624
3642.641
3737.08
3734.246
3731.34
3728.395
3725.424
3722.434
3719.429
3716.411
3713.377
3710.327
3707.256
3704.159
3701.028
3697.855
3694.631
3691.348
3687.998
3684.576
3681.076
3677.499
3673.848
3670.13
3666.357
3662.546
3658.72
3654.906
3651.136
3647.448
3643.88
3640.479
3637.289
3634.359
3631.737
3629.472
3627.608
3626.189
3625.253
3624.835
3624.961
3625.65
3626.914
3628.756
3631.168
3634.131
3637.617
3641.586
3645.986
3650.757
3655.825
3661.107
3666.51
3671.932
3677.263
3682.381
3687.178
3691.481
3695.262
3698.115
3700.532
3701.132
3727.275
3724.2
3721.077
3717.932
3714.772
3711.598
3708.406
3705.181
3701.914
3698.59
3695.198
3691.731
3688.186
3684.565
3680.88
3677.148
3673.397
3669.661
3665.982
3662.41
3659
3655.811
3652.906
3650.347
3648.198
3646.519
3645.363
3644.782
3644.813
3645.489
3646.828
3648.836
3651.505
3654.815
3658.727
3663.189
3668.134
3673.478
3679.124
3684.961
3690.865
3696.701
3702.322
3707.575
3712.298
3716.324
3719.486
3721.611
3722.529
3722.074
3720.082
3716.398
3710.872
3703.364
3693.766
3681.882
3667.958
3650.463
3635.276
3598.25
3714.675
3711.576
3708.419
3705.19
3701.879
3698.477
3694.973
3691.37
3687.688
3683.963
3680.247
3676.605
3673.118
3669.872
3666.959
3664.473
3662.506
3661.142
3660.456
3660.511
3661.351
3663.003
3665.474
3668.747
3672.784
3677.521
3682.874
3688.734
3694.972
3701.437
3707.961
3714.362
3720.442
3725.994
3730.803
3734.649
3737.311
3738.569
3738.207
3736.018
3731.803
3725.378
3716.573
3705.235
3691.23
3674.447
3654.796
3632.21
3606.648
3578.093
3546.553
3512.062
3474.678
3434.481
3391.6
3346.039
3298.569
3246.509
3202.515
3113.759
3702.004
3698.784
3695.35
3691.736
3688.064
3684.456
3681.066
3678.064
3675.623
3673.907
3673.056
3673.181
3674.36
3676.629
3679.984
3684.376
3689.714
3695.868
3702.666
3709.905
3717.349
3724.736
3731.785
3738.199
3743.671
3747.893
3750.554
3751.353
3749.999
3746.22
3739.762
3730.397
3717.924
3702.171
3683.003
3660.314
3634.038
3604.143
3570.634
3533.551
3492.971
3449.005
3401.795
3351.517
3298.373
3242.593
3184.43
3124.16
3062.075
2998.484
2933.709
2868.081
2801.937
2735.616
2669.479
2603.749
2539.364
2473.856
2419.873
2324.032
3688.793
3685.481
3682.553
3680.642
3680.188
3681.387
3684.334
3688.996
3695.209
3702.713
3711.162
3720.145
3729.205
3737.854
3745.583
3751.886
3756.261
3758.23
3757.344
3753.191
3745.407
3733.676
3717.739
3697.394
3672.498
3642.969
3608.784
3569.982
3526.654
3478.948
3427.063
3371.243
3311.776
3248.987
3183.235
3114.907
3044.413
2972.182
2898.656
2824.284
2749.521
2674.82
2600.63
2527.389
2455.524
2385.447
2317.55
2252.204
2189.755
2130.525
2074.808
2022.87
1974.947
1931.241
1891.934
1857.153
1827.075
1801.513
1781.839
1760.378
3678.519
3682.549
3690.856
3702.288
3715.19
3728.028
3739.515
3748.444
3753.749
3754.532
3750.053
3739.727
3723.119
3699.941
3670.042
3633.396
3590.1
3540.354
3484.46
3422.8
3355.834
3284.083
3208.12
3128.558
3046.039
2961.227
2874.796
2787.421
2699.772
2612.505
2526.256
2441.636
2359.224
2279.564
2203.163
2130.485
2061.949
1997.93
1938.758
1884.713
1836.03
1792.898
1755.46
1723.813
1698.015
1678.081
1663.987
1655.673
1653.046
1655.98
1664.322
1677.889
1696.481
1719.868
1747.792
1780.12
1815.939
1857.776
1893.533
1971.335
3690.196
3717.306
3728.156
3722.701
3701.397
3665.358
3615.847
3554.061
3481.314
3398.998
3308.513
3211.271
3108.666
3002.067
2892.797
2782.127
2671.262
2561.333
2453.392
2348.407
2247.256
2150.727
2059.516
1974.228
1895.376
1823.386
1758.597
1701.266
1651.573
1609.62
1575.445
1549.018
1530.252
1519.005
1515.088
1518.266
1528.271
1544.798
1567.517
1596.072
1630.091
1669.186
1712.958
1761.003
1812.912
1868.274
1926.684
1987.738
2051.04
2116.203
2182.852
2250.619
2319.155
2388.122
2457.168
2526.16
2594.02
2663.755
2721.244
2825.5
3567.919
3369.708
3173.43
2980.721
2793.458
2613.51
2442.197
2280.616
2129.777
1990.47
1863.283
1748.637
1646.794
1557.871
1481.852
1418.604
1367.885
1329.365
1302.629
1287.196
1282.526
1288.034
1303.098
1327.067
1359.274
1399.039
1445.679
1498.515
1556.874
1620.098
1687.545
1758.595
1832.653
1909.148
1987.539
2067.312
2147.987
2229.111
2310.263
2391.055
2471.126
2550.145
2627.809
2703.844
2778
2850.053
2919.801
2987.065
3051.687
3113.527
3172.463
3228.389
3281.216
3330.868
3377.266
3420.427
3460.06
3497.134
3526.988
3571.736
830.0552
759.4519
709.4951
679.6216
668.8222
675.5015
697.9551
734.7199
784.323
845.2944
916.2322
995.793
1082.698
1175.737
1273.773
1375.744
1480.662
1587.62
1695.783
1804.394
1912.772
2020.303
2126.445
2230.721
2332.716
2432.072
2528.487
2621.707
2711.524
2797.773
2880.322
2959.077
3033.97
3104.958
3172.021
3235.157
3294.379
3349.713
3401.194
3448.865
3492.774
3532.976
3569.524
3602.475
3631.885
3657.812
3680.308
3699.429
3715.227
3727.751
3737.051
3743.175
3746.169
3746.077
3742.961
3736.782
3727.95
3715.073
3703.722
3672.704
980.6743
1167.723
1349.296
1524.874
1693.998
1856.123
2010.976
2158.407
2298.247
2430.411
2554.897
2671.762
2781.118
2883.125
2977.986
3065.935
3147.236
3222.173
3291.045
3354.157
3411.819
3464.339
3512.019
3555.148
3594.006
3628.855
3659.939
3687.482
3711.691
3732.747
3750.813
3766.032
3778.523
3788.39
3795.717
3800.569
3802.998
3803.044
3800.731
3796.077
3789.088
3779.768
3768.113
3754.117
3737.774
3719.078
3698.024
3674.612
3648.845
3620.733
3590.292
3557.545
3522.522
3485.259
3445.84
3404.158
3360.946
3313.495
3273.598
3192.318
3649.382
3687.588
3720.434
3748.075
3770.803
3789.059
3803.352
3814.136
3821.864
3826.988
3829.929
3831.069
3830.753
3829.283
3826.913
3823.852
3820.263
3816.262
3811.924
3807.282
3802.335
3797.045
3791.345
3785.144
3778.329
3770.769
3762.321
3752.832
3742.145
3730.1
3716.54
3701.314
3684.276
3665.291
3644.239
3621.012
3595.517
3567.681
3537.446
3504.775
3469.648
3432.066
3392.046
3349.627
3304.862
3257.825
3208.602
3157.299
3104.032
3048.931
2992.137
2933.804
2874.09
2813.158
2751.221
2688.277
2625.259
2559.068
2504.077
2399.829
3601.501
3596.638
3591.541
3586.83
3583.018
3580.359
3579.012
3579.033
3580.358
3582.839
3586.255
3590.329
3594.746
3599.158
3603.203
3606.511
3608.712
3609.447
3608.373
3605.169
3599.541
3591.223
3579.983
3565.625
3547.987
3526.947
3502.418
3474.349
3442.727
3407.57
3368.932
3326.895
3281.571
3233.099
3181.64
3127.375
3070.506
3011.251
2949.837
2886.506
2821.505
2755.087
2687.51
2619.03
2549.903
2480.382
2410.715
2341.144
2271.9
2203.208
2135.281
2068.322
2002.519
1938.044
1875.095
1813.674
1754.505
1695.193
1646.728
1561.913
3579.472
3582.262
3588.83
3598.124
3608.73
3619.354
3628.944
3636.543
3641.318
3642.58
3639.766
3632.432
3620.244
3602.97
3580.47
3552.691
3519.655
3481.453
3438.237
3390.211
3337.626
3280.769
3219.962
3155.551
3087.9
3017.391
2944.41
2869.352
2792.61
2714.572
2635.622
2556.131
2476.458
2396.946
2317.924
2239.698
2162.556
2086.766
2012.572
1940.198
1869.843
1801.687
1735.886
1672.573
1611.861
1553.842
1498.59
1446.157
1396.578
1349.871
1306.04
1265.07
1226.937
1191.596
1159.017
1129.078
1101.89
1076.648
1056.553
1026.209
3580.155
3603.791
3612.924
3608.022
3589.876
3559.666
3518.621
3467.809
3408.304
3341.171
3267.428
3188.049
3103.967
3016.065
2925.178
2832.088
2737.527
2642.175
2546.659
2451.554
2357.381
2264.614
2173.676
2084.941
1998.738
1915.351
1835.021
1757.95
1684.301
1614.199
1547.74
1484.985
1425.968
1370.696
1319.154
1271.301
1227.081
1186.419
1149.224
1115.394
1084.812
1057.356
1032.894
1011.288
992.3946
976.0685
962.1615
950.5246
941.0088
933.4661
927.7504
923.7179
921.2285
920.1431
920.332
921.6773
923.9595
927.4491
930.5921
938.7162
3458.94
3283.134
3112.88
2948.618
2790.671
2639.46
2495.154
2357.816
2227.552
2104.411
1988.382
1879.42
1777.446
1682.346
1593.979
1512.179
1436.757
1367.505
1304.2
1246.603
1194.468
1147.537
1105.549
1068.237
1035.333
1006.571
981.6834
960.4084
942.4881
927.6705
915.7105
906.3709
899.4233
894.6483
891.8365
890.7883
891.3147
893.237
896.3872
900.6076
905.751
911.68
918.2674
925.3951
932.9545
940.8454
948.976
957.2624
965.6278
974.0025
982.3234
990.533
998.5797
1006.418
1014
1021.305
1028.238
1035.004
1040.553
1049.511
970.2973
932.6699
899.764
871.5035
847.7319
828.1403
812.3762
800.1575
791.1974
785.2037
781.8989
781.0156
782.298
785.5021
790.3963
796.7617
804.3924
813.0959
822.6927
833.0166
843.9145
855.2463
866.8845
878.7139
890.6313
902.5449
914.374
926.0479
937.506
948.6966
959.5763
970.1096
980.2678
990.0283
999.3744
1008.294
1016.778
1024.823
1032.427
1039.59
1046.315
1052.604
1058.461
1063.891
1068.899
1073.489
1077.663
1081.427
1084.782
1087.73
1090.274
1092.413
1094.148
1095.482
1096.41
1096.925
1097.077
1096.696
1096.326
1094.132
1017.816
1020.275
1023.213
1026.589
1030.302
1034.274
1038.427
1042.684
1046.978
1051.252
1055.454
1059.541
1063.478
1067.237
1070.795
1074.135
1077.249
1080.13
1082.777
1085.196
1087.391
1089.375
1091.158
1092.756
1094.183
1095.455
1096.589
1097.599
1098.499
1099.302
1100.02
1100.659
1101.227
1101.726
1102.157
1102.519
1102.805
1103.008
1103.118
1103.122
1103.006
1102.754
1102.349
1101.772
1101.006
1100.031
1098.831
1097.389
1095.69
1093.721
1091.473
1088.939
1086.114
1083.002
1079.601
1075.912
1072.004
1067.658
1063.909
1056.323
1043.255
1044.825
1046.304
1047.72
1049.084
1050.398
1051.661
1052.878
1054.052
1055.187
1056.291
1057.373
1058.443
1059.512
1060.592
1061.694
1062.83
1064.01
1065.242
1066.533
1067.885
1069.3
1070.773
1072.299
1073.867
1075.463
1077.068
1078.661
1080.218
1081.712
1083.112
1084.388
1085.507
1086.438
1087.147
1087.603
1087.777
1087.643
1087.176
1086.356
1085.168
1083.602
1081.652
1079.319
1076.611
1073.541
1070.129
1066.402
1062.393
1058.142
1053.697
1049.108
1044.435
1039.744
1035.093
1030.571
1026.239
1022.162
1018.71
1013.951
1066.953
1068.434
1069.851
1071.236
1072.611
1073.987
1075.375
1076.787
1078.237
1079.734
1081.289
1082.908
1084.595
1086.349
1088.163
1090.025
1091.919
1093.821
1095.703
1097.531
1099.27
1100.879
1102.316
1103.536
1104.498
1105.159
1105.479
1105.422
1104.957
1104.058
1102.706
1100.889
1098.603
1095.853
1092.654
1089.027
1085.006
1080.632
1075.955
1071.036
1065.941
1060.746
1055.533
1050.39
1045.412
1040.696
1036.344
1032.461
1029.151
1026.52
1024.675
1023.72
1023.755
1024.883
1027.179
1030.785
1035.6
1042.422
1048.436
1064.983
1089.979
1091.48
1092.937
1094.408
1095.927
1097.511
1099.173
1100.913
1102.72
1104.568
1106.423
1108.239
1109.963
1111.535
1112.892
1113.969
1114.705
1115.041
1114.923
1114.306
1113.156
1111.449
1109.174
1106.333
1102.942
1099.031
1094.646
1089.844
1084.697
1079.29
1073.718
1068.087
1062.512
1057.115
1052.026
1047.376
1043.301
1039.938
1037.422
1035.888
1035.466
1036.282
1038.454
1042.093
1047.303
1054.177
1062.797
1073.235
1085.552
1099.795
1115.999
1134.189
1154.376
1176.561
1200.707
1226.893
1254.638
1285.816
1312.202
1367.699
1113.826
1115.54
1117.315
1119.178
1121.068
1122.906
1124.592
1126.008
1127.035
1127.563
1127.495
1126.754
1125.285
1123.06
1120.077
1116.359
1111.957
1106.949
1101.434
1095.532
1089.385
1083.148
1076.991
1071.092
1065.638
1060.819
1056.825
1053.845
1052.063
1051.656
1052.79
1055.621
1060.29
1066.926
1075.639
1086.523
1099.655
1115.092
1132.874
1153.021
1175.539
1200.41
1227.604
1257.074
1288.755
1322.569
1358.427
1396.226
1435.852
1477.182
1520.086
1564.427
1610.062
1656.849
1704.606
1753.326
1802.237
1853.85
1896.681
1978.463
1139.42
1141.25
1142.68
1143.322
1142.896
1141.28
1138.419
1134.343
1129.164
1123.055
1116.241
1108.984
1101.576
1094.322
1087.54
1081.546
1076.651
1073.153
1071.335
1071.456
1073.752
1078.431
1085.673
1095.624
1108.401
1124.09
1142.743
1164.383
1189.005
1216.571
1247.021
1280.269
1316.205
1354.701
1395.61
1438.77
1484.003
1531.125
1579.94
1630.246
1681.84
1734.513
1788.06
1842.274
1896.954
1951.903
2006.932
2061.856
2116.502
2170.703
2224.305
2277.161
2329.139
2380.117
2429.955
2478.672
2525.68
2572.974
2611.628
2679.736
1162.625
1158.863
1151.92
1142.716
1132.438
1122.158
1112.741
1104.97
1099.523
1096.959
1097.732
1102.199
1110.625
1123.193
1140.008
1161.105
1186.457
1215.98
1249.539
1286.96
1328.027
1372.497
1420.1
1470.546
1523.53
1578.738
1635.849
1694.542
1754.497
1815.4
1876.944
1938.834
2000.788
2062.539
2123.837
2184.448
2244.159
2302.773
2360.115
2416.028
2470.376
2523.039
2573.918
2622.929
2670.007
2715.099
2758.171
2799.198
2838.169
2875.084
2909.952
2942.789
2973.621
3002.478
3029.384
3054.415
3077.47
3099.207
3116.744
3143.902
1166.327
1145.426
1136.218
1138.378
1151.283
1173.977
1205.46
1244.858
1291.291
1343.886
1401.808
1464.256
1530.465
1599.706
1671.296
1744.588
1818.984
1893.926
1968.903
2043.448
2117.137
2189.594
2260.483
2329.511
2396.427
2461.02
2523.114
2582.571
2639.286
2693.185
2744.222
2792.379
2837.659
2880.09
2919.715
2956.595
2990.803
3022.424
3051.551
3078.283
3102.724
3124.98
3145.158
3163.362
3179.695
3194.256
3207.137
3218.427
3228.207
3236.549
3243.52
3249.177
3253.573
3256.746
3258.741
3259.542
3259.325
3257.593
3256.011
3248.927
1265.841
1407.161
1543.736
1675.27
1801.529
1922.186
2037.111
2146.255
2249.531
2346.899
2438.368
2523.975
2603.791
2677.917
2746.479
2809.631
2867.548
2920.425
2968.474
3011.925
3051.016
3085.995
3117.118
3144.643
3168.828
3189.93
3208.202
3223.889
3237.23
3248.448
3257.76
3265.363
3271.443
3276.168
3279.689
3282.14
3283.638
3284.281
3284.151
3283.313
3281.813
3279.686
3276.949
3273.607
3269.652
3265.067
3259.823
3253.885
3247.211
3239.754
3231.463
3222.286
3212.169
3201.058
3188.919
3175.631
3161.434
3145.174
3131.372
3101.244
3287.907
3315.192
3338.507
3357.954
3373.682
3385.95
3395.052
3401.224
3404.717
3405.795
3404.72
3401.75
3397.145
3391.155
3384.026
3375.994
3367.281
3358.094
3348.625
3339.045
3329.507
3320.14
3311.052
3302.327
3294.027
3286.191
3278.834
3271.95
3265.513
3259.477
3253.779
3248.341
3243.069