/*--------------------------------*- C++ -*----------------------------------*\
| =========                 |                                                 |
| \\      /  F ield         | OpenFOAM: The Open Source CFD Toolbox           |
|  \\    /   O peration     | Version:  2312                                  |
|   \\  /    A nd           | Website:  www.openfoam.com                      |
|    \\/     M anipulation  |                                                 |
\*---------------------------------------------------------------------------*/
FoamFile
{
    version     2.0;
    format      ascii;
    arch        "LSB;label=32;scalar=64";
    class       volScalarField;
    location    "4800";
    object      ILambda_13_0;
}
// * * * * * * * * * * * * * * * * * * * * * * * * * * * * * * * * * * * * * //

dimensions      [1 0 -3 0 0 0 0];

internalField   nonuniform List<scalar> 
12000
(
818.3134
783.3562
778.9012
768.5208
758.7917
750.5179
745.0553
742.3579
741.822
742.8824
745.2917
748.9765
753.6415
758.4346
762.0203
763.1028
761.0572
756.2111
749.5796
742.2655
734.9625
727.8666
720.9632
714.3972
708.6342
704.3177
701.9451
701.5828
702.7785
704.6906
706.3482
706.9218
705.9184
703.2623
699.2652
694.5161
689.723
685.5348
682.4034
680.5417
679.9589
680.5231
682.0217
684.1506
686.5851
689.0687
691.4109
693.4013
694.7286
695.1005
694.3452
692.3505
688.8991
683.7396
676.6974
667.6368
656.5145
643.636
629.8229
616.8115
762.6767
752.6821
749.6071
745.62
744.6116
745.2549
747.1322
749.5836
752.191
754.5808
756.304
756.799
755.5298
752.2283
747.0713
740.6506
733.7402
727.0083
720.8531
715.4327
710.8137
707.0964
704.4223
702.8749
702.3586
702.5466
702.9341
702.9708
702.2128
700.4363
697.685
694.2444
690.562
687.1361
684.4043
682.6573
681.9975
682.352
683.5253
685.2582
687.269
689.276
691.0048
692.212
692.6865
692.2259
690.6267
687.7132
683.3937
677.661
670.559
662.1871
652.7692
642.685
632.4569
622.7594
614.4015
608.1904
604.7126
603.9151
745.836
745.2679
746.0901
747.5387
749.5829
751.3444
752.4463
752.5576
751.487
749.096
745.3405
740.3351
734.4013
728.0387
721.8095
716.1887
711.4591
707.7008
704.8583
702.8239
701.4798
700.6856
700.2429
699.8846
699.3103
698.2601
696.5919
694.3299
691.6646
688.9087
686.4225
684.5327
683.4624
683.2895
683.9399
685.2119
686.8228
688.4609
689.8258
690.6493
690.7035
689.802
687.8025
684.6103
680.1783
674.5142
667.6979
659.8959
651.3602
642.408
633.4112
624.7919
617.0012
610.4664
605.5292
602.3849
601.0104
601.1122
602.1483
603.4556
746.649
748.307
748.8394
748.9297
748.0107
746.0007
742.903
738.8217
733.9476
728.5467
722.9526
717.529
712.6103
708.4377
705.118
702.6235
700.8279
699.5561
698.6232
697.8526
697.0806
696.162
694.9866
693.5056
691.7528
689.8502
687.9888
686.3888
685.2502
684.7046
684.7829
685.4039
686.3852
687.4731
688.3814
688.8292
688.571
687.4133
685.2212
681.9191
677.4898
671.9755
665.4783
658.1602
650.2411
641.995
633.7374
625.8057
618.5335
612.2257
607.134
603.4295
601.1763
600.3158
600.6697
601.965
603.8846
606.1444
608.5762
611.1631
745.3789
743.1217
740.545
737.071
732.8632
728.1521
723.1769
718.201
713.476
709.2203
705.5904
702.6582
700.4029
698.7242
697.4715
696.4794
695.5969
694.7055
693.7253
692.6173
691.3839
690.0707
688.7622
687.5711
686.6164
685.9958
685.7585
685.8845
686.2765
686.7661
687.1344
687.1394
686.5479
685.1619
682.8382
679.4977
675.1278
669.7784
663.5568
656.6223
649.1798
641.4716
633.7669
626.3481
619.4941
613.4607
608.4609
604.6474
602.0999
600.819
600.7275
601.6787
603.477
605.907
608.7671
611.9026
615.2289
618.7338
622.4502
626.3945
733.3886
727.0007
722.9526
718.2768
713.8258
709.6627
705.9555
702.7939
700.212
698.183
696.6274
695.4298
694.4617
693.6049
692.7694
691.9023
690.9882
690.0441
689.1106
688.243
687.4998
686.9305
686.5611
686.3808
686.3317
686.3061
686.1523
685.6891
684.726
683.0869
680.6318
677.2734
672.9869
667.8112
661.8455
655.2405
648.1882
640.9111
633.6506
626.6549
620.1659
614.4056
609.5622
605.7774
603.1371
601.6658
601.3264
602.0264
603.6295
605.971
608.8766
612.1817
615.7476
619.4725
623.2932
627.1777
631.107
635.0532
638.9618
642.7617
716.0007
709.2811
706.2134
702.8219
700.0988
697.8373
696.0508
694.6609
693.5805
692.7123
691.9674
691.2769
690.5991
689.9202
689.2492
688.6093
688.0266
687.5209
687.0957
686.7317
686.3808
685.9643
685.3742
684.4802
683.1407
681.2178
678.5944
675.1895
670.971
665.9621
660.2429
653.9449
647.2421
640.3389
633.4575
626.8242
620.6581
615.1587
610.4962
606.8019
604.1615
602.6109
602.1351
602.6723
604.12
606.3464
609.2025
612.536
616.2034
620.0797
624.0645
628.0826
632.0801
636.0158
639.8518
643.5428
647.0298
650.2408
653.1076
655.6079
701.5544
697.1802
695.7331
694.0748
692.9236
692.0075
691.2978
690.712
690.1966
689.7125
689.2393
688.7707
688.3074
687.8491
687.386
686.893
686.3255
685.6188
684.6894
683.44
681.7663
679.5668
676.7538
673.2648
669.0729
664.1945
658.6935
652.6796
646.3036
639.7476
633.2135
626.9097
621.039
615.7868
611.3117
607.7377
605.1488
603.5861
603.0473
603.4889
604.8309
606.9645
609.7609
613.0815
616.7878
620.7495
624.8514
628.9959
633.1037
637.1103
640.9611
644.6052
647.989
651.053
653.7294
655.9441
657.6211
658.6948
659.1273
658.9433
693.231
691.2622
690.8112
690.2006
689.8014
689.4396
689.1065
688.7633
688.3903
687.9678
687.4742
686.8799
686.1436
685.2108
684.0151
682.4814
680.5316
678.0916
675.0989
671.5113
667.3137
662.5248
657.2006
651.4353
645.3585
639.129
632.9261
626.9389
621.3541
616.3452
612.0627
608.6263
606.1195
604.5873
604.0351
604.4312
605.7104
607.7796
610.525
613.8197
617.5316
621.5304
625.6936
629.9108
634.0849
638.1321
641.9796
645.562
648.8176
651.685
654.1011
656.0011
657.3212
658.0024
657.9968
657.2745
655.8333
653.7092
650.9812
647.7816
689.753
689.0627
688.8998
688.6017
688.2934
687.8887
687.3678
686.6909
685.8186
684.7039
683.2935
681.5298
679.3547
676.7149
673.5681
669.8887
665.6738
660.948
655.7654
650.2114
644.4004
638.472
632.5847
626.907
621.6085
616.8493
612.7714
609.4904
607.0899
605.618
605.0867
605.4728
606.7212
608.7498
611.4552
614.7192
618.4149
622.4135
626.5892
630.8235
635.0079
639.0448
642.8475
646.3387
649.4491
652.115
654.2776
655.8834
656.8857
657.2479
656.9488
655.9885
654.3946
652.2279
649.588
646.6167
643.5001
640.4617
637.7436
635.5659
688.3237
687.6
687.0877
686.3182
685.3337
684.0688
682.4836
680.5324
678.1734
675.3702
672.0966
668.3411
664.1114
659.4378
654.3751
649.0039
643.4285
637.7742
632.1824
626.8035
621.7901
617.2882
613.4291
610.3225
608.0504
606.6631
606.1776
606.5777
607.8164
609.8199
612.4925
615.722
619.386
623.3572
627.5082
631.7162
635.8658
639.8511
643.5769
646.9588
649.923
652.4062
654.3552
655.7276
656.4937
656.6387
656.166
655.102
653.4996
651.4418
649.044
646.4541
643.8498
641.4326
639.419
638.0284
637.464
637.8883
639.3982
641.9778
685.3777
683.1989
681.605
679.4649
676.9609
674.0249
670.651
666.838
662.6026
657.9804
653.0277
647.8217
642.4599
637.0567
631.7399
626.6453
621.9102
617.6667
614.0352
611.1175
608.9917
607.7079
607.2861
607.7155
608.9559
610.9404
613.58
616.7678
620.3853
624.3068
628.405
632.5552
636.6385
640.5449
644.1751
647.4417
650.2702
652.5996
654.3826
655.5872
656.1974
656.2154
655.6632
654.5853
653.0504
651.1524
649.0105
646.7668
644.5822
642.6291
641.0814
640.103
639.8328
640.3705
641.7616
643.9822
646.9279
650.4106
654.1726
657.9128
677.1649
672.4174
669.3063
665.3725
661.1562
656.5851
651.7391
646.6882
641.525
636.3551
631.2955
626.4695
622.0015
618.0112
614.6082
611.8859
609.9168
608.7488
608.4027
608.8709
610.1185
612.0846
614.6861
617.8217
621.3769
625.2289
629.2517
633.3206
637.3157
641.1259
644.6508
647.803
650.5096
652.7128
654.3716
655.4624
655.9797
655.9376
655.3702
654.3328
652.9018
651.1744
649.2663
647.3087
645.4432
643.8147
642.5624
641.8102
641.6552
642.157
643.3278
645.1255
647.4501
650.145
653.0035
655.7817
658.2214
660.0823
661.1806
661.4361
662.0157
654.8223
650.6477
645.6049
640.653
635.6924
630.8737
626.2991
622.0839
618.3363
615.1559
612.6277
610.8183
609.7721
609.5089
610.0228
611.2819
613.2302
615.7901
618.8656
622.347
626.1153
630.0472
634.0196
637.9139
641.6196
645.0371
648.0807
650.6799
652.781
654.3483
655.3647
655.8324
655.7733
655.2287
654.2594
652.9442
651.3789
649.6725
647.9445
646.3186
644.917
643.853
643.2225
643.0962
643.5122
644.4698
645.9258
647.7948
649.9521
652.2428
654.4937
656.531
658.199
659.3828
660.0296
660.1708
659.9338
659.5381
659.2724
642.3987
634.525
630.6191
626.101
622.1552
618.6242
615.6564
613.3146
611.6623
610.7387
610.5619
611.1261
612.4017
614.3362
616.8565
619.8716
623.2765
626.9568
630.793
634.6651
638.4568
642.0597
645.3763
648.323
650.8323
652.8541
654.357
655.3288
655.7769
655.7277
655.2265
654.3359
653.1342
651.7132
650.1747
648.6268
647.1786
645.9348
644.9897
644.421
644.2833
644.6038
645.3783
646.5695
648.1088
649.9001
651.8277
653.7663
655.5944
657.2086
658.5381
659.5584
660.3007
660.8578
661.383
662.0822
663.1955
664.9678
667.6115
671.2679
624.2884
618.3814
616.2147
613.8849
612.4158
611.6014
611.5137
612.1318
613.4299
615.3572
617.8444
620.8047
624.1382
627.7349
631.4798
635.2565
638.9523
642.4616
645.6897
648.5554
650.9942
652.9587
654.421
655.372
655.8223
655.8009
655.3543
654.5449
653.449
652.1535
650.7529
649.3455
648.0286
646.8937
646.0218
645.4785
645.3093
645.5365
646.1571
647.1421
648.4387
649.974
651.6614
653.409
655.1292
656.7494
658.2219
659.5325
660.7067
661.811
662.95
664.2586
665.8882
667.9893
670.6901
674.0737
678.1545
682.8623
688.0423
693.4853
614.0109
612.1318
612.4304
613.0091
614.3539
616.2742
618.7375
621.6515
624.922
628.4431
632.1042
635.7933
639.4017
642.8271
645.9782
648.7766
651.1602
653.0844
654.5232
655.4698
655.9364
655.9527
655.5654
654.8354
653.8358
652.6488
651.3622
650.066
648.8482
647.7905
646.9645
646.4279
646.2211
646.3649
646.8596
647.6845
648.8006
650.1533
651.6782
653.3069
654.9746
656.6278
658.2312
659.7737
661.2716
662.7697
664.3379
666.065
668.0486
670.3821
673.1404
676.3652
680.0521
684.1414
688.5129
692.9877
697.3393
701.3156
704.6738
707.2361
614.7919
617.2252
619.5677
622.4413
625.6528
629.1029
632.6862
636.2933
639.8195
643.1664
646.2459
648.983
651.3182
653.2091
654.6316
655.5801
656.0674
656.1233
655.7932
655.136
654.2214
653.127
651.9349
650.7283
649.5878
648.5878
647.7935
647.2573
647.0169
647.0934
647.4909
648.1964
649.1823
650.4084
651.8267
653.386
655.0371
656.7387
658.4626
660.1972
661.9499
663.7477
665.6341
667.6651
669.9008
672.3974
675.1965
678.3154
681.7384
685.4115
689.2398
693.09
696.7982
700.1818
703.0555
705.2507
706.637
707.1415
706.7633
705.581
625.039
630.1164
633.2119
636.8126
640.2344
643.504
646.5095
649.1841
651.4693
653.3254
654.7296
655.6773
656.1816
656.2716
655.9913
655.397
654.5552
653.539
652.4256
651.2924
650.2144
649.2607
648.4914
647.956
647.6908
647.718
648.0454
648.6668
649.5636
650.707
652.0613
653.5875
655.2476
657.0084
658.8451
660.7445
662.7059
664.7419
666.876
669.139
671.5644
674.1816
677.0091
680.0475
683.2741
686.6389
690.0637
693.4444
696.6563
699.5631
702.0281
703.9271
705.1617
705.6713
705.4432
704.5179
702.9906
701.003
698.7289
696.3407
639.2143
644.2833
646.7185
649.4221
651.6213
653.4391
654.8162
655.7562
656.27
656.386
656.1464
655.6052
654.8252
653.8759
652.8299
651.7599
650.7361
649.8234
649.0786
648.5488
648.2698
648.2652
648.5463
649.1123
649.9521
651.0454
652.366
653.8839
655.5687
657.3925
659.3325
661.3732
663.5071
665.735
668.0645
670.5081
673.0787
675.7861
678.6319
681.6046
684.6765
687.8007
690.911
693.9233
696.7404
699.2579
701.3728
702.9928
704.0458
704.4884
704.3125
703.5495
702.2708
700.5853
698.633
696.5753
694.5831
692.8211
691.4331
690.5108
650.9073
653.8538
654.8487
655.8412
656.3321
656.4685
656.2599
655.764
655.0385
654.1491
653.1642
652.1526
651.1804
650.309
649.5927
649.0769
648.7971
648.7783
649.0345
649.5695
650.3777
651.4457
652.754
654.2793
655.9967
657.8818
659.9126
662.0713
664.3444
666.7237
669.2046
671.7849
674.4625
677.2323
680.0831
682.9948
685.9359
688.8619
691.7154
694.4275
696.9213
699.1162
700.9344
702.3074
703.1835
703.5339
703.3578
702.6853
701.5783
700.128
698.4508
696.6813
694.9643
693.4457
692.2634
691.5391
691.3703
691.8259
692.9436
694.7243
656.3311
656.6309
656.3363
655.8941
655.2045
654.3699
653.4414
652.4864
651.5663
650.7396
650.058
649.5658
649.2983
649.2815
649.5318
650.0564
650.8542
651.9165
653.2291
654.7733
656.5279
658.4707
660.5801
662.8357
665.2196
667.7158
670.3105
672.9905
675.7419
678.5485
681.3897
684.2389
687.0618
689.816
692.451
694.9096
697.1307
699.0522
700.616
701.773
702.4882
702.7454
702.5509
701.9362
700.9583
699.698
698.257
696.7522
695.3095
694.0568
693.1162
692.5976
692.5924
693.1694
694.3712
696.213
698.6824
701.743
705.341
709.4245
655.885
654.5141
653.7117
652.7802
651.9091
651.1256
650.482
650.0201
649.7748
649.7725
650.0313
650.5612
651.364
652.4351
653.7637
655.3346
657.129
659.1261
661.3038
663.6396
666.1116
668.6981
671.3776
674.1285
676.9283
679.7522
682.5727
685.3583
688.073
690.676
693.1225
695.3646
697.3534
699.0418
700.3876
701.3574
701.9304
702.1014
701.8842
701.3124
700.4409
699.3436
698.1114
696.8477
695.6636
694.6714
693.9787
693.6826
693.864
694.5837
695.8788
697.7609
700.2156
703.2027
706.6582
710.4959
714.6116
718.8911
723.2206
727.5172
652.9001
651.4033
650.931
650.4511
650.2343
650.2473
650.5213
651.0639
651.8803
652.9678
654.3184
655.9188
657.7522
659.798
662.0339
664.4354
666.9771
669.6326
672.3747
675.1753
678.0051
680.8332
683.6269
686.3512
688.9689
691.4411
693.7272
695.7869
697.5812
699.0748
700.2385
701.0517
701.5053
701.6039
701.3677
700.8337
700.0554
699.1021
698.0564
697.0108
696.0635
695.3132
694.8541
694.7702
695.131
695.9874
697.3687
699.2805
701.7045
704.5985
707.8978
711.5179
715.3572
719.3017
723.2292
727.0153
730.5406
733.6993
736.409
738.628
651.0872
650.6921
651.0568
651.5704
652.4031
653.5018
654.8723
656.4986
658.365
660.4511
662.7334
665.1859
667.7802
670.4862
673.2722
676.1052
678.9509
681.7737
684.5372
687.2042
689.7368
692.0975
694.2497
696.1589
697.7942
699.1298
700.1466
700.8346
701.1944
701.2387
700.9934
700.4982
699.8065
698.9838
698.1061
697.2566
696.5224
695.9902
695.7414
695.8481
696.3688
697.3447
698.7971
700.726
703.1092
705.9032
709.0449
712.454
716.0366
719.6892
723.3039
726.7732
729.9956
732.8821
735.3611
737.3846
738.9331
740.0167
740.672
740.9524
652.8378
654.1352
655.4583
657.0874
658.9729
661.0827
663.3963
665.8831
668.5128
671.2519
674.0652
676.9157
679.7653
682.5753
685.3064
687.9199
690.378
692.6444
694.6858
696.4725
697.98
699.1899
700.0916
700.6832
700.9731
700.9806
700.7364
700.2826
699.6724
698.9685
698.2413
697.5663
697.0212
696.6816
696.618
696.8915
697.5507
698.628
700.1379
702.0758
704.417
707.1181
710.1186
713.3437
716.7077
720.1183
723.4815
726.7059
729.708
732.4168
734.7776
736.756
738.3397
739.5401
740.3909
740.9466
741.2763
741.4534
741.5444
741.594
658.9419
661.9343
664.0338
666.5646
669.1987
671.9521
674.7751
677.6289
680.4718
683.2624
685.9597
688.5237
690.9167
693.1037
695.0541
696.7421
698.1482
699.2599
700.0729
700.5921
700.8318
700.8165
700.5806
700.1683
699.6327
699.0339
698.438
697.9141
697.5316
697.3572
697.4519
697.8674
698.6434
699.8052
701.3617
703.3046
705.6081
708.2297
711.1126
714.1874
717.3765
720.5976
723.7679
726.8086
729.649
732.2302
734.5081
736.4556
738.0634
739.3396
740.3078
741.0042
741.4722
741.7573
741.9007
741.9315
741.8597
741.6704
741.3289
740.7967
668.8091
672.9587
675.3998
678.3101
681.1112
683.8772
686.5359
689.0527
691.3878
693.5079
695.3838
696.993
698.3197
699.3559
700.1024
700.5687
700.774
700.7466
700.5238
700.1511
699.6813
699.1729
698.6882
698.2908
698.0437
698.0063
698.2314
698.7631
699.6341
700.8635
702.456
704.4006
706.6709
709.2263
712.0131
714.9678
718.0197
721.0945
724.1183
727.0216
729.742
732.2282
734.4415
736.3571
737.9648
739.2675
740.2798
741.0239
741.5266
741.8143
741.9081
741.8201
741.5499
741.0834
740.3927
739.4393
738.1799
736.5791
734.6285
732.3682
680.5633
684.8435
687.0206
689.5771
691.8261
693.8897
695.6994
697.2438
698.5071
699.4853
700.1823
700.6114
700.7948
700.7638
700.5575
700.2224
699.811
699.3799
698.9885
698.6961
698.5605
698.635
698.9661
699.5916
700.5385
701.8213
703.4411
705.385
707.6266
710.1268
712.8354
715.6934
718.6359
721.5954
724.5046
727.3002
729.9258
732.3341
734.4887
736.3651
737.9508
739.2436
740.2504
740.9844
741.4615
741.6976
741.7052
741.4909
741.0542
740.3875
739.478
738.3113
736.8778
735.1794
733.238
731.1047
728.8683
726.6635
724.6668
723.0727
691.3844
694.6004
695.9718
697.5343
698.7118
699.6445
700.2987
700.6995
700.8684
700.8389
700.6511
700.3519
699.993
699.6295
699.3182
699.1149
699.0731
699.2411
699.6607
700.3644
701.3748
702.7025
704.346
706.291
708.5109
710.9681
713.6149
716.3963
719.2519
722.1189
724.9354
727.6423
730.1869
732.5243
734.6189
736.4455
737.989
739.2433
740.2103
740.8971
741.3145
741.4735
741.3843
741.0541
740.4872
739.6855
738.6505
737.3873
735.9087
734.2411
732.4297
730.5439
728.6809
726.9671
725.5563
724.6245
724.3598
724.9456
726.5329
729.2027
698.6236
700.0239
700.4257
700.8361
700.9691
700.9414
700.767
700.499
700.1859
699.8816
699.64
699.5142
699.5537
699.8032
700.2999
701.0726
702.1401
703.51
705.1785
707.1302
709.3383
711.7661
714.3681
717.0919
719.8804
722.6747
725.4161
728.0488
730.5223
732.793
734.8254
736.5935
738.0801
739.2763
740.1808
740.7979
741.1361
741.2058
741.0185
740.5854
739.9177
739.027
737.9277
736.6391
735.1893
733.6189
731.9845
730.3612
728.8444
727.5487
726.6039
726.1494
726.3235
727.2517
729.0324
731.7209
735.3139
739.7362
744.8378
750.4138
701.3312
701.1209
700.9222
700.6652
700.3785
700.12
699.9348
699.8742
699.9834
700.3036
700.8684
701.7031
702.8233
704.2341
705.9298
707.8937
710.099
712.5094
715.0807
717.7625
720.5002
723.2373
725.9176
728.4874
730.8976
733.1054
735.0754
736.7806
738.2023
739.3303
740.1615
740.6992
740.9518
740.9313
740.6522
740.1314
739.3872
738.4408
737.3168
736.0456
734.6654
733.2247
731.7843
730.4185
729.2149
728.273
727.7
727.6048
728.0895
729.24
731.1142
733.7311
737.0611
741.0185
745.4587
750.1785
754.926
759.4181
763.3739
766.572
701.0596
700.3572
700.2797
700.2274
700.3917
700.7641
701.384
702.2702
703.4356
704.8828
706.604
708.5815
710.7879
713.1872
715.7359
718.385
721.0815
723.7706
726.3979
728.911
731.262
733.4086
735.3154
736.955
738.3081
739.3637
740.1184
740.5756
740.745
740.6412
740.2829
739.6924
738.8952
737.9204
736.8013
735.5762
734.2899
732.995
731.7523
730.6318
729.711
729.0738
728.8058
728.9899
729.6994
730.9901
732.8924
735.403
738.4791
742.0333
745.9337
750.0066
754.0449
757.8214
761.1056
763.6854
765.391
766.1189
765.8519
764.6716
701.0794
701.2602
701.9462
702.8287
704.0276
705.4946
707.2327
709.2177
711.4225
713.8102
716.3379
718.9569
721.6155
724.26
726.8369
729.2952
731.5876
733.6722
735.5141
737.0858
738.3679
739.3495
740.0276
740.407
740.4991
740.3217
739.8977
739.2548
738.4247
737.4433
736.3505
735.1903
734.0115
732.8682
731.8193
730.9283
730.2624
729.8901
729.8779
730.2864
731.1653
732.5471
734.442
736.8319
739.667
742.8634
746.3036
749.8406
753.3058
756.5191
759.3039
761.5033
762.9969
763.7183
763.6693
762.9302
761.6632
760.1046
758.5421
757.2635
704.3824
706.2541
707.8775
709.8497
712.0379
714.4027
716.9037
719.4895
722.1091
724.7089
727.2361
729.6403
731.8746
733.8977
735.6747
737.1787
738.3906
739.3
739.905
740.2119
740.2347
739.9941
739.5172
738.8365
737.989
737.0158
735.9619
734.8753
733.8072
732.8113
731.9432
731.2601
730.8187
730.6737
730.8749
731.4644
732.4724
733.9135
735.7827
738.0524
740.6696
743.556
746.6088
749.7052
752.7091
755.4798
757.8839
759.8079
761.1709
761.9378
762.1282
761.8234
761.1676
760.3637
759.663
759.3477
759.7071
761.0077
763.4632
767.1809
711.8899
715.2562
717.4358
720.016
722.5746
725.1252
727.6
729.9501
732.128
734.0924
735.8086
737.2497
738.3973
739.2417
739.7822
740.0268
739.9917
739.7008
739.1846
738.4797
737.6274
736.6731
735.6651
734.6541
733.6922
732.832
732.1255
731.6233
731.3728
731.4165
731.7904
732.5212
733.6238
735.099
736.9308
739.0853
741.5091
744.1303
746.8604
749.5979
752.2346
754.6622
756.7821
758.5147
759.8092
760.6523
761.0755
761.158
761.0274
760.8543
760.8426
761.2158
762.1983
763.9953
766.771
770.6265
775.582
781.5692
788.435
795.9551
722.0519
725.868
727.9023
730.262
732.3565
734.2652
735.9221
737.306
738.397
739.186
739.6734
739.8684
739.7894
739.4626
738.9217
738.2062
737.3609
736.434
735.4764
734.5402
733.6776
732.9394
732.3738
732.0253
731.9332
732.13
732.6399
733.4776
734.646
736.1354
737.9224
739.9688
742.2227
744.6188
747.0813
749.5275
751.872
754.0335
755.9412
757.5419
758.8074
759.74
760.3775
760.7945
761.1018
761.4409
761.9764
762.8838
764.335
766.482
769.4405
773.2741
777.9824
783.4929
789.6583
796.2614
803.0294
809.6601
815.8546
821.3802
731.8259
734.7559
735.9986
737.3918
738.3999
739.1406
739.5791
739.7332
739.6204
739.269
738.7146
737.999
737.1693
736.2757
735.3706
734.5067
733.7354
733.1056
732.6618
732.4432
732.4819
732.8023
733.4193
734.3378
735.5518
737.0439
738.7852
740.7357
742.8451
745.0547
747.2998
749.5129
751.6278
753.5846
755.3342
756.844
758.1027
759.1238
759.9483
760.6456
761.3108
762.0613
763.0288
764.3504
766.1568
768.5602
771.6415
775.4393
779.9409
785.0777
790.7245
796.7048
802.8008
808.769
814.3593
819.3379
823.5128
826.7548
829.0129
830.3492
738.2299
739.3182
739.5072
739.6502
739.4832
739.1097
738.5422
737.8292
737.0169
736.157
735.3022
734.5049
733.8154
733.2805
732.9411
732.8317
732.9786
733.3994
734.1016
735.0828
736.3302
737.8208
739.5221
741.3932
743.386
745.4476
747.5224
749.5556
751.496
753.3003
754.9365
756.3876
757.6546
758.7588
759.7433
760.6717
761.6268
762.7059
764.015
765.6613
767.7442
770.3458
773.5219
777.2939
781.6426
786.5051
791.7752
797.3084
802.9292
808.4438
813.6545
818.3749
822.4466
825.7521
828.2267
829.8639
830.7139
830.872
830.4628
829.635
739.8112
739.03
738.4452
737.7068
736.8977
736.0619
735.2478
734.5071
733.8876
733.4334
733.1822
733.164
733.4002
733.9028
734.6737
735.7046
736.9778
738.4664
740.1357
741.9446
743.8472
745.7956
747.7419
749.6411
751.454
753.1498
754.7096
756.1278
757.4147
758.5971
759.7186
760.8385
762.0292
763.3723
764.9542
766.859
769.1625
771.9245
775.1822
778.9446
783.1881
787.8545
792.8521
798.059
803.3297
808.5044
813.4191
817.9176
821.8627
825.1458
827.6932
829.4702
830.479
830.7538
830.351
829.3355
827.7635
825.667
823.0495
819.9009
737.5825
735.9487
735.2911
734.5345
733.9725
733.578
733.3975
733.453
733.7617
734.3304
735.1563
736.2268
737.5203
739.0072
740.6515
742.4123
744.2463
746.1095
747.9603
749.7615
751.4831
753.1042
754.6152
756.0193
757.3333
758.5877
759.8264
761.1048
762.4871
764.0433
765.8443
767.9571
770.4396
773.3346
776.6655
780.4315
784.6054
789.1319
793.9286
798.8894
803.8889
808.7895
813.4497
817.7321
821.5121
824.6848
827.1707
828.9178
829.9015
830.1213
829.5953
828.3524
826.4243
823.8388
820.6137
816.7542
812.2561
807.1171
801.3547
795.0268
734.718
733.7174
733.6938
733.7462
734.1123
734.7247
735.5907
736.6895
737.9967
739.4806
741.1042
742.8272
744.6083
746.4071
748.1871
749.9172
751.5744
753.1452
754.6272
756.0298
757.3743
758.6938
760.032
761.441
762.9789
764.7063
766.6828
768.9623
771.5891
774.5933
777.9875
781.7634
785.8899
790.313
794.9562
799.7231
804.5018
809.1698
813.6
817.668
821.2577
824.2679
826.6158
828.2403
829.1028
829.1856
828.4896
827.0301
824.833
821.9313
818.3627
814.1703
809.4051
804.1318
798.4363
792.4355
786.2883
780.2031
774.4337
769.237
734.6224
735.207
736.0558
737.1433
738.4479
739.9187
741.5196
743.2091
744.9473
746.6967
748.4243
750.1039
751.7178
753.2578
754.7266
756.138
757.5165
758.8965
760.3211
761.8396
763.505
765.3709
767.4879
769.9002
772.6417
775.7329
779.1777
782.9619
787.051
791.3909
795.9084
800.5135
805.1029
809.5641
813.7806
817.637
821.0244
823.8453
826.0174
827.4765
828.1783
828.0983
827.2309
825.5884
823.1984
820.1025
816.3552
812.0244
807.1929
801.9608
796.4494
790.8047
785.1997
779.8353
774.9376
770.7515
767.5282
765.5044
764.8736
765.7229
738.5678
740.5453
741.9231
743.5931
745.2757
746.9827
748.6686
750.313
751.9003
753.4263
754.8969
756.3282
757.7466
759.1871
760.6913
762.3061
764.0801
766.0611
768.2928
770.8117
773.6437
776.8019
780.2837
784.0697
788.1227
792.388
796.794
801.255
805.6733
809.9436
813.957
817.6052
820.7856
823.4052
825.3844
826.6598
827.1868
826.9398
825.9132
824.1206
821.5943
818.384
814.5567
810.1956
805.4015
800.2922
795.0039
789.691
784.5252
779.6927
775.3886
771.809
769.1402
767.5448
767.1464
768.0133
770.1424
773.448
777.759
782.8299
745.1064
747.5314
748.9193
750.5738
752.1236
753.6483
755.1299
756.5909
758.0559
759.5591
761.1407
762.8442
764.7145
766.7943
769.1216
771.7268
774.6297
777.8374
781.3423
785.1213
789.1346
793.3267
797.6274
801.9535
806.2116
810.3016
814.1203
817.5656
820.5404
822.9564
824.7383
825.8257
826.1763
825.7672
824.5952
822.6778
820.0524
816.776
812.9238
808.5892
803.8825
798.9296
793.8716
788.8623
784.0655
779.6511
775.7892
772.6426
770.3571
769.0518
768.8073
769.6559
771.5725
774.4695
778.195
782.5372
787.2353
791.9996
796.5417
800.6348
751.9795
754.1778
755.4339
756.959
758.4507
760.0155
761.6675
763.4513
765.4059
767.5697
769.9756
772.6487
775.604
778.844
782.3573
786.1177
790.084
794.2
798.3963
802.592
806.6969
810.615
814.2481
817.499
820.2757
822.4949
824.0856
824.9918
825.175
824.6158
823.3153
821.2953
818.5982
815.2866
811.4419
807.1635
802.5665
797.7802
792.9454
788.2118
783.7338
779.6661
776.1583
773.3478
771.3527
770.2637
770.136
770.9825
772.7682
775.4077
778.7659
782.6626
786.881
791.181
795.3145
799.0439
802.1613
804.506
805.9829
806.5977
758.5698
760.7883
762.2934
764.1575
766.1627
768.3888
770.8505
773.5694
776.5557
779.8079
783.3118
787.039
790.9469
794.9795
799.0682
803.1341
807.0898
810.8431
814.2996
817.3668
819.9572
821.9923
823.4056
824.1454
824.1775
823.4867
822.0783
819.9784
817.2339
813.9116
810.0972
805.8935
801.4178
796.7999
792.1782
787.6966
783.5001
779.7304
776.52
773.9869
772.2283
771.3146
771.2833
772.1346
773.8277
776.2797
779.367
782.9297
786.7784
790.7047
794.493
797.9337
800.8365
803.0425
804.4341
804.9404
804.5387
803.2512
801.1406
798.3131
766.4092
769.5141
771.7704
774.5196
777.4969
780.7333
784.2041
787.8785
791.7128
795.651
799.6255
803.559
807.3669
810.9601
814.2481
817.1421
819.5592
821.425
822.6772
823.2685
823.1688
822.3669
820.872
818.714
815.9434
812.6303
808.8632
804.7466
800.3984
795.947
791.5275
787.2779
783.3343
779.8268
776.8739
774.5781
773.0203
772.2552
772.307
773.1664
774.788
777.0907
779.9586
783.2457
786.7814
790.379
793.8453
796.991
799.6419
801.6479
802.8917
803.294
802.8163
801.4609
799.2671
796.3052
792.669
788.469
783.8252
778.8553
777.4181
781.9868
785.0503
788.6834
792.4081
796.2352
800.0843
803.88
807.5394
810.9759
814.1023
816.8334
819.0898
820.8012
821.909
822.3698
822.1572
821.2636
819.7016
817.5043
814.7249
811.4359
807.7272
803.704
799.4837
795.1927
790.9621
786.924
783.2067
779.9301
777.2012
775.1097
773.7235
773.0848
773.2074
774.074
775.6357
777.8119
780.4924
783.5414
786.8021
790.1046
793.2729
796.1345
798.5293
800.3176
801.388
801.6623
801.0992
799.6952
797.483
794.5284
790.9254
786.7906
782.2576
777.4706
772.5812
767.7438
763.1078
758.7941
791.6531
797.2192
800.4419
804.1649
807.6443
810.9259
813.8939
816.4707
818.5785
820.1501
821.1302
821.4786
821.1718
820.2053
818.5944
816.3745
813.6008
810.3471
806.7041
802.7767
798.6811
794.5409
790.4834
786.6349
783.1167
780.0402
777.5027
775.5834
774.3395
773.8036
773.981
774.8481
776.3528
778.4148
780.9281
783.7647
786.7788
789.8139
792.7088
795.3057
797.4577
799.0362
799.9377
800.0886
799.449
798.0144
795.8152
792.9146
789.4045
785.4009
781.0382
776.4628
771.8273
767.2851
762.9847
759.0645
755.6489
752.8409
750.7152
749.3023
806.3519
811.3319
813.6011
816.1285
818.0578
819.5049
820.3686
820.6205
820.2367
819.215
817.5724
815.3456
812.5911
809.383
805.8118
801.9817
798.0066
794.0075
790.1075
786.4277
783.0829
780.1773
777.8001
776.0219
774.8917
774.434
774.6474
775.5037
776.9482
778.901
781.2594
783.9015
786.691
789.4823
792.127
794.4803
796.4079
797.7924
798.5391
798.5806
797.8804
796.4347
794.2723
791.4535
788.0664
784.2226
780.0518
775.6955
771.3005
767.0121
762.9679
759.292
756.0888
753.4387
751.3933
749.9721
749.1598
748.906
749.1321
749.7436
816.8713
819.2663
819.6106
819.8589
819.3709
818.3105
816.6453
814.4236
811.6983
808.5436
805.0488
801.3161
797.4572
793.5898
789.8327
786.3023
783.1077
780.3468
778.1019
776.437
775.3941
774.9917
775.2234
776.0574
777.4373
779.2837
781.4969
783.9604
786.5453
789.1158
791.5341
793.6672
795.3921
796.6018
797.2104
797.1574
796.4103
794.9668
792.8548
790.1313
786.8794
783.2041
779.2278
775.0832
770.9078
766.8369
762.9966
759.4988
756.4345
753.8701
751.8436
750.3625
749.4029
748.9112
748.8063
748.9846
749.3275
749.7123
750.0271
750.1953
819.0724
817.6261
815.8475
813.6471
810.9289
807.8288
804.4057
800.7656
797.0146
793.2668
789.6369
786.2366
783.1697
780.5287
778.3904
776.8131
775.8338
775.4662
775.7004
776.5021
777.814
779.5577
781.6362
783.9376
786.3398
788.7147
790.934
792.8743
794.4226
795.4813
795.9726
795.842
795.0613
793.6298
791.5748
788.9497
785.8324
782.3207
778.5282
774.5781
770.5975
766.7108
763.0337
759.6672
756.6927
754.1683
752.1255
750.5682
749.4729
748.7907
748.4509
748.366
748.4391
748.5711
748.6699
748.6586
748.4841
748.124
747.5879
746.9208
811.9289
807.0632
803.9847
800.3382
796.6791
793.0271
789.5023
786.2086
783.2448
780.6982
778.6408
777.1265
776.188
775.8361
776.0581
776.8185
778.0598
779.7048
781.6593
783.8157
786.0574
788.2633
790.3127
792.0904
793.4917
794.4267
794.8244
794.6357
793.8361
792.4262
790.4323
787.9048
784.9161
781.5571
777.9326
774.1564
770.3455
766.6142
763.0687
759.8015
756.8872
754.3786
752.305
750.6709
749.4567
748.6212
748.1052
747.8363
747.7352
747.7221
747.7241
747.6813
747.5524
747.3188
746.9868
746.5862
746.1674
745.7921
745.5238
745.4145
798.6754
792.4984
789.5893
786.2111
783.3436
780.8515
778.8479
777.3705
776.4507
776.0959
776.2919
777.0025
778.1707
779.7208
781.5613
783.5885
785.6907
787.7525
789.6595
791.3034
792.5861
793.4239
793.7513
793.5235
792.7184
791.3378
789.4068
786.9729
784.1037
780.8833
777.409
773.7857
770.1213