/*--------------------------------*- C++ -*----------------------------------*\
| =========                 |                                                 |
| \\      /  F ield         | OpenFOAM: The Open Source CFD Toolbox           |
|  \\    /   O peration     | Version:  2312                                  |
|   \\  /    A nd           | Website:  www.openfoam.com                      |
|    \\/     M anipulation  |                                                 |
\*---------------------------------------------------------------------------*/
FoamFile
{
    version     2.0;
    format      ascii;
    arch        "LSB;label=32;scalar=64";
    class       volScalarField;
    location    "4800";
    object      nut;
}
// * * * * * * * * * * * * * * * * * * * * * * * * * * * * * * * * * * * * * //

dimensions      [0 2 -1 0 0 0 0];

internalField   nonuniform List<scalar> 
12000
(
3.542913e-05
0.0001935434
0.000216937
0.0002209613
0.0002060191
0.0001988983
0.000231572
0.0002897388
0.0002532909
0.000190772
0.0001885883
0.0002580681
0.0002902479
0.0002136369
0.0001811054
0.0002120097
0.0002630739
0.0002273034
0.0001882703
0.0002001022
0.0002348232
0.0002182959
0.0001903067
0.0001997264
0.0002232221
0.0002084824
0.0001886223
0.0001963732
0.0002106513
0.0002036005
0.00019514
0.0001936288
0.0001920707
0.0001975323
0.0002064573
0.0002009469
0.0001837543
0.0001738008
0.0001916442
0.0002266085
0.0002106681
0.0001680973
0.0001480634
0.0001767912
0.0002789053
0.0002374904
0.000139951
0.0001275565
0.0001905914
0.0003140696
0.000162898
0.0001174338
0.0001484225
0.0001931633
0.0001509748
0.0001149044
0.0001066419
9.296758e-05
8.036995e-05
6.50567e-05
2.193824e-05
0.0002206228
0.0002538368
0.0003148244
0.0003579654
0.0004140901
0.0004721977
0.0005264793
0.0005884648
0.0006811424
0.0007820933
0.0008471199
0.0008970112
0.0009976939
0.001126131
0.001215835
0.001260646
0.001345852
0.001477714
0.001581065
0.001630882
0.001709442
0.001833983
0.001926377
0.001969352
0.002045429
0.002160357
0.002229767
0.002260733
0.002307949
0.002375205
0.002418665
0.00244875
0.00246263
0.002461422
0.002472125
0.002486946
0.002492988
0.002457229
0.002391376
0.002359585
0.002207762
0.002299639
0.002192333
0.002037179
0.001598154
0.001441735
0.001779254
0.001595815
0.001426059
0.00105538
0.001170663
0.0009959083
0.0008365835
0.0007013462
0.0005317458
0.0003631794
0.0002216967
0.0001124123
6.083327e-05
3.213508e-05
0.0002953766
0.0004069147
0.0004964569
0.0006125368
0.0007520358
0.0009072922
0.00106946
0.001240025
0.001426713
0.001611774
0.001741244
0.001953297
0.002129204
0.002306709
0.002468034
0.002617142
0.002766861
0.002913631
0.003046455
0.003166599
0.003283749
0.003395219
0.003493776
0.003582169
0.00366686
0.003744571
0.003810014
0.003866931
0.003916601
0.003962893
0.003998689
0.004028804
0.004050778
0.004065624
0.004073156
0.004072677
0.004064151
0.004046885
0.004020865
0.00398523
0.003938541
0.003878064
0.003811731
0.003732641
0.003589626
0.003475835
0.003326492
0.003011176
0.002714076
0.002701284
0.002354333
0.002068648
0.001697509
0.001438954
0.001333069
0.0009250314
0.0005131134
0.0001878655
6.035039e-05
3.51058e-05
0.0003284255
0.0005097153
0.0006608904
0.0008547945
0.001076374
0.001316432
0.001568092
0.001827783
0.002094369
0.002357886
0.002613724
0.002776465
0.003083367
0.003293027
0.00348974
0.003672765
0.003842802
0.003999777
0.004144492
0.004277975
0.004401204
0.004514278
0.00461747
0.004711562
0.004797048
0.004873839
0.004941966
0.005003273
0.005055401
0.0050987
0.00513373
0.00516157
0.00518058
0.005189789
0.005188778
0.005177379
0.005155203
0.005121495
0.005075246
0.005015322
0.004940551
0.004849785
0.004739477
0.00461338
0.004467544
0.004299776
0.004107838
0.003890905
0.003647521
0.003153751
0.002581254
0.0024102
0.002148403
0.002018336
0.001599323
0.001149623
0.0006906919
0.0002786772
6.158014e-05
3.540456e-05
0.0003660454
0.0006177493
0.0008340567
0.001098286
0.001391456
0.00170239
0.002021409
0.002339527
0.002652176
0.002955165
0.003247144
0.003525356
0.003783062
0.004017221
0.004230781
0.00442801
0.004610332
0.004778083
0.004933091
0.005076645
0.0052094
0.00533199
0.005445024
0.005548901
0.005643795
0.005729783
0.005806204
0.005875627
0.005934362
0.005983569
0.006023988
0.006055143
0.00607627
0.006086782
0.006086098
0.006074415
0.006051104
0.00601547
0.005966756
0.005904169
0.00582685
0.005733956
0.005624181
0.005496046
0.005347726
0.005178402
0.004984578
0.004765483
0.004284711
0.003684723
0.003594191
0.003383115
0.003014843
0.002580966
0.002064504
0.001486279
0.0008840928
0.0003442376
6.14215e-05
3.625255e-05
0.0003934565
0.0007141282
0.0009863622
0.001302869
0.001648189
0.002009564
0.002375221
0.002734375
0.003080297
0.003408006
0.003716345
0.004005116
0.004276111
0.004530569
0.004765897
0.004983628
0.005183514
0.005367567
0.005537698
0.005695201
0.00584105
0.005976038
0.006100758
0.006215579
0.006320685
0.006413021
0.006500438
0.006576577
0.006641927
0.006696979
0.006741165
0.006774376
0.006795988
0.006805489
0.006801915
0.006785227
0.006754718
0.00670978
0.006649566
0.006573183
0.006479652
0.006367864
0.006236573
0.006084389
0.0059092
0.005708672
0.00548392
0.005230964
0.004942284
0.004611157
0.004234864
0.00381574
0.003352066
0.002839271
0.002273968
0.001660059
0.001016328
0.000414326
6.181149e-05
3.734577e-05
0.0004047316
0.0007948838
0.001117232
0.001472628
0.00185286
0.002243959
0.002634057
0.003014503
0.003380407
0.003729005
0.004059658
0.004370789
0.004659496
0.004927796
0.005176726
0.00540554
0.005618524
0.005817228
0.006002659
0.006175769
0.006337315
0.006487842
0.006627675
0.00675693
0.006875552
0.006982469
0.007080308
0.007166407
0.007240468
0.007302256
0.007351417
0.007388084
0.007411461
0.007420991
0.007416136
0.007396554
0.007361461
0.007310353
0.007242682
0.007157801
0.00705493
0.006933121
0.006791256
0.006627801
0.006441706
0.006229239
0.005991912
0.00572056
0.005410825
0.005060102
0.004665136
0.004220835
0.003721297
0.00316153
0.002539159
0.001857572
0.001137903
0.0004631443
6.191154e-05
3.844376e-05
0.0004147476
0.0008604739
0.00122473
0.001604976
0.002003383
0.002411685
0.002821485
0.003222907
0.003607282
0.0039717
0.004313804
0.004633898
0.004934313
0.005214991
0.00547825
0.005726032
0.005958751
0.006177126
0.006382146
0.006574653
0.006755273
0.006924431
0.007082238
0.007228427
0.007359571
0.007482136
0.007591096
0.007687465
0.007770866
0.007840651
0.007896
0.007937065
0.007962918
0.007972909
0.007966516
0.007943255
0.0079026
0.00784404
0.00776703
0.007670966
0.007555148
0.007418772
0.007260742
0.00708007
0.006875125
0.006641154
0.006377783
0.006079875
0.005744419
0.005367621
0.004945215
0.004472169
0.003943533
0.003354845
0.002703305
0.001991084
0.001235809
0.000514952
6.209041e-05
4.075343e-05
0.0004185652
0.0009038532
0.001304429
0.001703718
0.002120144
0.002542394
0.002960259
0.003366949
0.003759347
0.004133655
0.004488261
0.004823162
0.005139207
0.005437318
0.005718648
0.005985339
0.006238919
0.006479535
0.006707024
0.006921107
0.007121549
0.007307862
0.007481383
0.007643293
0.007791716
0.007929334
0.008053673
0.008162968
0.008256724
0.008334513
0.008395965
0.008441097
0.008469001
0.008478982
0.008470486
0.008443024
0.008396121
0.00832929
0.008241972
0.008133636
0.008003873
0.007852256
0.007678448
0.007481076
0.007256566
0.007002733
0.006719989
0.006404286
0.00605167
0.005656402
0.005215087
0.004720721
0.004167264
0.003549018
0.002862455
0.002110041
0.001311538
0.0005491778
6.213944e-05
4.003151e-05
0.0004387755
0.0009407694
0.001369421
0.001786806
0.002208108
0.002633263
0.00305484
0.003467096
0.003866267
0.004249765
0.004616349
0.00496584
0.005298729
0.005615831
0.005918103
0.006205421
0.006477817
0.006734877
0.00698031
0.007213858
0.007435516
0.00764553
0.007842373
0.008023419
0.008190797
0.008343337
0.008480099
0.008600338
0.008703374
0.008788563
0.008855462
0.00890384
0.008932834
0.00894176
0.008930064
0.008897302
0.008843128
0.008767312
0.008668705
0.008546186
0.008399885
0.008229495
0.008034307
0.007813932
0.007569122
0.007296174
0.006993652
0.006658048
0.006286171
0.005874704
0.005415088
0.004899801
0.004325304
0.003685689
0.002977442
0.002202466
0.001378491
0.0005849012
6.221424e-05
3.953335e-05
0.0004362417
0.0009557832
0.001409741
0.00183756
0.002263954
0.002691327
0.003115482
0.003531899
0.003937194
0.004329218
0.00470693
0.005070078
0.005418798
0.005753327
0.006072221
0.006377961
0.006671674
0.00695491
0.007224674
0.007481217
0.007724354
0.007953622
0.008168296
0.00836577
0.008549181
0.008715718
0.008864668
0.008995295
0.009106876
0.009198716
0.009270306
0.00932118
0.009350404
0.009357257
0.009341127
0.009301471
0.009237794
0.009149623
0.009037596
0.008902319
0.008742792
0.008558248
0.008347925
0.008110947
0.007846312
0.007553204
0.00723062
0.006876105
0.006486049
0.006055261
0.005577976
0.005049629
0.004459103
0.003800972
0.003071507
0.002272832
0.001424077
0.0006071282
6.216836e-05
4.45276e-05
0.0004143119
0.000955972
0.001439779
0.001882173
0.00231289
0.002740336
0.00316392
0.003581026
0.003989335
0.004387313
0.004774117
0.005149361
0.005512816
0.00586322
0.006202639
0.006529478
0.006843855
0.007145782
0.00743478
0.007710384
0.007971904
0.008218621
0.00844979
0.008663609
0.008861224
0.009040612
0.009200827
0.009340974
0.009460196
0.009557668
0.009632677
0.009684666
0.009713113
0.009717521
0.009697396
0.00965227
0.009581711
0.00948532
0.009362718
0.009213563
0.009037655
0.008834778
0.008604721
0.008347311
0.008061333
0.007748351
0.007406586
0.00703501
0.00663099
0.006188891
0.005701011
0.005159162
0.004556726
0.00388552
0.00314264
0.00232972
0.001465031
0.0006292887
6.21921e-05
4.417277e-05
0.000412181
0.0009498225
0.001447175
0.001899531
0.00233315
0.002759991
0.003182839
0.003601088
0.004013282
0.004417935
0.004813818
0.005199771
0.005574414
0.005936781
0.00624127
0.006465027
0.006685284
0.007019515
0.007389729
0.007807454
0.008174951
0.008440301
0.008688756
0.008918757
0.009129923
0.009320691
0.009490076
0.009637467
0.009762187
0.009863561
0.009941013
0.00999395
0.01002163
0.01002341
0.009998742
0.009947135
0.009868182
0.009761553
0.009626997
0.009464338
0.009273474
0.009054353
0.008806914
0.008531265
0.008227367
0.00780333
0.007371051
0.007021484
0.00672954
0.006281001
0.005787286
0.005239267
0.004628329
0.003948559
0.003194502
0.002368502
0.00149007
0.0006417675
6.211222e-05
4.441688e-05
0.0004022427
0.0009373485
0.00144807
0.001910396
0.002348132
0.002775535
0.003197769
0.003615661
0.004028427
0.004434835
0.004833314
0.005221411
0.00555751
0.005691609
0.005806033
0.005950759
0.006177433
0.006497933
0.006884193
0.007291703
0.007639212
0.007980759
0.008338438
0.008722652
0.009134219
0.009542119
0.009718463
0.009872328
0.01000248
0.01010789
0.01018779
0.01024147
0.0102682
0.01026736
0.01023838
0.01018081
0.01009431
0.009978653
0.009833677
0.009659273
0.009455523
0.009222806
0.008869419
0.00840921
0.007958145
0.00751908
0.007132165
0.006852673
0.00663807
0.006338076
0.005844442
0.005294925
0.00468078
0.003995021
0.00323374
0.002399653
0.00151215
0.0006536278
6.212044e-05
4.519939e-05
0.0003912266
0.0009200428
0.001438506
0.001911454
0.002355072
0.002784301
0.003206253
0.003623244
0.004035265
0.00444101
0.004837939
0.00520985
0.005375071
0.005479973
0.005633249
0.005848382
0.006084671
0.006317015
0.006589782
0.006897832
0.007268541
0.007644735
0.008044843
0.008452348
0.008848844
0.009199366
0.009527933
0.009846673
0.01013825
0.0102897
0.01037195
0.01042654
0.01045266
0.01044968
0.01041705
0.01035436
0.01026139
0.01013804
0.009984456
0.009716516
0.009379445
0.009003577
0.008586697
0.008124533
0.007662555
0.007257739
0.006926328
0.006667603
0.006457069
0.00627053
0.005881439
0.005332569
0.004716349
0.004026583
0.00325987
0.002418972
0.001524183
0.0006591988
6.203813e-05
4.603117e-05
0.0003809117
0.0009016367
0.001426691
0.001906988
0.002355482
0.002786388
0.003207899
0.0036234
0.004033386
0.004436525
0.004830221
0.005125992
0.005287089
0.00545788
0.005621832
0.005790954
0.005979028
0.006205615
0.006488478
0.006809416
0.007143544
0.007499287
0.007861019
0.008227923
0.008592464
0.008942291
0.009256479
0.009536564
0.009796335
0.01005233
0.01032688
0.01041253
0.01033547
0.01029517
0.01023724
0.01014804
0.01002044
0.009852266
0.009641743
0.009385866
0.009083572
0.008736093
0.008347954
0.007931044
0.007503403
0.007084801
0.006725166
0.006470915
0.006330322
0.006216481
0.005906805
0.00535872
0.004741484
0.004049346
0.00327939
0.002434243
0.0015347
0.0006642436
6.200865e-05
4.676255e-05
0.0003725555
0.0008829536
0.00140926
0.001895265
0.002348901
0.002782119
0.00320345
0.003617067
0.00402414
0.004423917
0.004814371
0.005146342
0.005323694
0.00544888
0.005577714
0.005732649
0.005937937
0.006196803
0.006462212
0.006755998
0.00706937
0.007413419
0.007764523
0.008115944
0.008455883
0.008772489
0.009058363
0.009314537
0.009550538
0.009791961
0.01008996
0.01019579
0.01009345
0.01002408
0.009959388
0.009875408
0.009760333
0.009606726
0.009408493
0.009161595
0.008866481
0.008527451
0.008150786
0.007748659
0.007342696
0.006960851
0.006630349
0.00637251
0.006208359
0.006106953
0.005923724
0.005377603
0.004760432
0.004066681
0.003293702
0.002445666
0.001542281
0.0006674424
6.194252e-05
4.739909e-05
0.000365038
0.0008646225
0.00139035
0.001881819
0.002339441
0.002774439
0.003195337
0.003606873
0.00401087
0.004407194
0.004794398
0.005104012
0.005285234
0.005430607
0.005581002
0.005752842
0.005952434
0.006178168
0.006446038
0.006749637
0.007079916
0.00740136
0.007729717
0.008057506
0.008374779
0.008670311
0.008935853
0.009171438
0.009390985
0.009631776
0.009966976
0.0101161
0.01000185
0.009905117
0.009822247
0.009730998
0.009613032
0.009457248
0.009257817
0.009012128
0.008720433
0.008386068
0.008015893
0.007621555
0.007220895
0.00683908
0.006507095
0.006257881
0.006109394
0.006032851
0.005895771
0.005386609
0.004770085
0.004075874
0.00330181
0.002451737
0.001546227
0.0006691194
6.189054e-05
4.789894e-05
0.0003588096
0.0008480488
0.001370959
0.0018645
0.002324806
0.002762102
0.003183249
0.003593258
0.003994578
0.004387688
0.004771653
0.005103067
0.005296334
0.005446771
0.005597551
0.005770591
0.005976292
0.006217474
0.006495178
0.006787586
0.007096717
0.007419128
0.007749168
0.008073564
0.008382463
0.008667101
0.00892261
0.00915121
0.00936449
0.00958286
0.009828451
0.0101001
0.01009523
0.009890767
0.009772794
0.009670181
0.009546231
0.009384572
0.009178628
0.008926671
0.008630252
0.008293847
0.007925139
0.007536015
0.007143654
0.006770972
0.00644458
0.006194301
0.006040574
0.005964116
0.00584431
0.005391765
0.004776107
0.004081409
0.003306087
0.002454613
0.001548019
0.0006698431
6.183834e-05
4.837832e-05
0.0003539012
0.0008328235
0.001351619
0.001846377
0.002310125
0.002748466
0.003169354
0.003577997
0.003977146
0.004367834
0.004749839
0.005122191
0.005336943
0.005504675
0.005672407
0.005858336
0.006070853
0.006311672
0.006577272
0.006870965
0.007183285
0.007508996
0.007831923
0.008146119
0.008443189
0.008715325
0.008958029
0.009173595
0.009374006
0.00958071
0.009817102
0.01009979
0.01012467
0.009918238
0.009774494
0.009646016
0.009503153
0.009328228
0.009112532
0.008853474
0.008552689
0.008215014
0.007848246
0.007463668
0.007077131
0.006710209
0.006388962
0.006143562
0.005995553
0.005928286
0.005824825
0.005394996
0.004779622
0.004084455
0.00330836
0.002456168
0.001548851
0.0006703978
6.178314e-05
4.869905e-05
0.0003504361
0.0008202593
0.001333981
0.001828106
0.002292969
0.002732625
0.003153899
0.003561821
0.003959596
0.004348822
0.004729929
0.005101795
0.005403023
0.00559731
0.005777974
0.005972751
0.006191376
0.00643674
0.006706959
0.006999107
0.007305899
0.007621488
0.007935503
0.008241274
0.00852866
0.008789963
0.009020916
0.009222721
0.00940487
0.009588563
0.009807534
0.01010452
0.01016118
0.009953672
0.009784619
0.009631244
0.009469408
0.009280695
0.009054949
0.00878879
0.008483756
0.008144905
0.007780122
0.007400292
0.007020213
0.006659675
0.006343576
0.006100803
0.005953273
0.005887547
0.005794536
0.005395336
0.00478046
0.004085058
0.003308427
0.002455669
0.001548715
0.0006702196
6.172251e-05
4.913216e-05
0.0003485099
0.0008098547
0.001317413
0.001810186
0.002275649
0.002716442
0.003138099
0.003545789
0.003942944
0.004331569
0.004712567
0.005086851
0.005452933
0.005714721
0.005915676
0.006122373
0.006348023
0.006595282
0.006864369
0.007151272
0.007451409
0.007758677
0.008066852
0.008362443
0.008637532
0.008885795
0.009103403
0.009290431
0.009454124
0.009615355
0.009814018
0.01010498
0.01018118
0.009981929
0.009797847
0.009625211
0.009444966
0.009241518
0.009005211
0.008732153
0.008423462
0.008084032
0.007721532
0.00734629
0.006972147
0.006617573
0.00630701
0.00606867
0.005924681
0.005863164
0.005778407
0.005395342
0.004780503
0.004084652
0.003307532
0.002454654
0.00154759
0.0006696994
6.167045e-05
4.936961e-05
0.0003479103
0.0008017996
0.00130315
0.001793387
0.002258716
0.00270014
0.003122456
0.003530436
0.003927651
0.004316414
0.004698018
0.005073066
0.005442716
0.005807122
0.006080297
0.00629841
0.006529706
0.006780422
0.00704725
0.007326871
0.007621018
0.007920871
0.008217204
0.008499605
0.008761365
0.008996488
0.009201872
0.009376911
0.009523659
0.009653598
0.009805676
0.01007031
0.0102443
0.01006542
0.009800528
0.009610805
0.009422915
0.009210079
0.008964402
0.008684334
0.008371751
0.00803151
0.007670966
0.007299879
0.006931261
0.006582532
0.006277226
0.006042897
0.005901614
0.005842692
0.005763717
0.005394198
0.004779256
0.004082933
0.003305307
0.00245247
0.001546019
0.000668976
6.161848e-05
4.97714e-05
0.0003478018
0.0007956826
0.001291201
0.001778414
0.00224301
0.002684784
0.003107784
0.003516434
0.003914316
0.004303962
0.004687015
0.005064504
0.005437138
0.005805196
0.006168663
0.006505677
0.006740744
0.006982652
0.007247859
0.007528894
0.007814933
0.008101302
0.008381673
0.008650958
0.008899806
0.009121353
0.009312319
0.009473732
0.009611355
0.009736825
0.009868593
0.01002626
0.01020074
0.01012386
0.009849273
0.009625813
0.009412728
0.009184627
0.008929185
0.008642688
0.008326624
0.007985768
0.007627158
0.007259994
0.006896565
0.006553451
0.00625352
0.006023842
0.005886352
0.005830813
0.005756117
0.005393335
0.004778004
0.004081089
0.003303044
0.002449993
0.001543993
0.000668024
6.157905e-05
4.993839e-05
0.0003496763
0.0007922438
0.001281452
0.001765258
0.00222875
0.002670756
0.003094564
0.003504237
0.003903298
0.004294403
0.004679404
0.005059532
0.005435574
0.005807984
0.006177002
0.006542768
0.006904885
0.0072316
0.007483742
0.007743284
0.00801835
0.008297758
0.008569857
0.008825936
0.009059769
0.009266408
0.00944251
0.00958811
0.009708029
0.009813964
0.009924475
0.01005517
0.01021139
0.01014476
0.009875189
0.009639019
0.009408948
0.009166183
0.008900068
0.008606684
0.00828707
0.007945586
0.007588797
0.007225318
0.006866781
0.006529041
0.006234383
0.006009415
0.005875795
0.005823339
0.005751536
0.005392456
0.004776485
0.004078805
0.003300208
0.002447136
0.001541784
0.0006669253
6.154546e-05
5.006931e-05
0.0003523838
0.000789569
0.001273378
0.001754058
0.002216482
0.00265865
0.003083364
0.003494361
0.003895049
0.004288128
0.004675567
0.00505872
0.00543845
0.005815233
0.006189218
0.006560229
0.006927705
0.007290694
0.007647816
0.007996998
0.008256406
0.008506965
0.008760758
0.009005827
0.009229057
0.009422507
0.009583709
0.009713475
0.009815822
0.009899661
0.009980883
0.01008331
0.01022326
0.01016421
0.009901482
0.009652234
0.009405845
0.009149737
0.008874067
0.008574544
0.008251865
0.007910049
0.00755519
0.007195325
0.006841497
0.006508983
0.00621962
0.005999644
0.005870394
0.005821344
0.005751521
0.005392323
0.004775465
0.004076845
0.003297559
0.002444318
0.001539501
0.0006658328
6.152003e-05
5.19341e-05
0.0003482957
0.0007869347
0.001267249
0.001745195
0.002206398
0.002648827
0.003074634
0.003487283
0.003890062
0.004285663
0.004676106
0.005062802
0.005446637
0.00582805
0.006207072
0.006583337
0.006956078
0.007324119
0.007685876
0.008039381
0.008382385
0.008712199
0.008979067
0.00919785
0.009399511
0.009579014
0.009727489
0.009842439
0.009927843
0.009992154
0.01005008
0.01012216
0.01023243
0.01017258
0.009918573
0.009661527
0.009403044
0.00913547
0.008851024
0.008545885
0.008220586
0.007878748
0.007525938
0.007169624
0.006820318
0.006492837
0.006208676
0.00599375
0.005868995
0.005823231
0.005754445
0.005392934
0.00477494
0.004075197
0.003295083
0.002441617
0.001537269
0.0006647302
6.150529e-05
5.428559e-05
0.0003522827
0.0007828707
0.001263913
0.001738588
0.002198679
0.002641447
0.003068662
0.003483434
0.003888889
0.004287674
0.004681812
0.005072722
0.005461268
0.005847814
0.006232262
0.006614069
0.006992268
0.007365478
0.007731924
0.00808948
0.00843572
0.008767953
0.009083339
0.009378864
0.009592578
0.009750261
0.009879327
0.009979065
0.01004844
0.01009234
0.01012098
0.01015449
0.01023054
0.01020493
0.009959481
0.009661693
0.009392583
0.009119865
0.008830449
0.008521226
0.008193834
0.007852138
0.007501338
0.007148359
0.006803254
0.00648053
0.006201446
0.005991651
0.005871628
0.005829273
0.005760904
0.005394964
0.00477534
0.004074236
0.003293141
0.002439232
0.001535156
0.0006636331
6.149867e-05
5.5078e-05
0.0003574818
0.0007704643
0.001263538
0.001734804
0.002193785
0.002637143
0.003066027
0.003483384
0.003892156
0.004294883
0.004693533
0.00508947
0.005483484
0.005875825
0.006266238
0.00665399
0.007037906
0.007416395
0.007787488
0.008148899
0.008498078
0.008832152
0.009148365
0.009443941
0.009715763
0.00993594
0.01005347
0.01013199
0.01018388
0.01021248
0.01022456
0.01022717
0.01022019
0.0101863
0.00999165
0.009683827
0.009396827
0.009110804
0.008813386
0.008499926
0.008170988
0.007829842
0.007481231
0.007131583
0.006790508
0.006472289
0.006198047
0.00599325
0.005877933
0.005838866
0.005770091
0.005397378
0.004776571
0.004073979
0.003291787
0.002437264
0.00153327
0.000662628
6.150164e-05
5.584996e-05
0.0003623056
0.0007598829
0.001264253
0.001732626
0.00219094
0.002635335
0.003066732
0.003487509
0.003900466
0.004308047
0.004712137
0.005114004
0.005514314
0.005913158
0.006310091
0.006704168
0.007093992
0.007477756
0.007853296
0.008218169
0.008569521
0.008904842
0.009221124
0.009515814
0.00978556
0.01002804
0.01023282
0.01030893
0.01033987
0.01034618
0.01033364
0.0103068
0.01026423
0.01019998
0.0100024
0.009698098
0.009403434
0.00910771
0.008802659
0.008484692
0.008154118
0.007813445
0.007466585
0.007119335
0.006781298
0.006466975
0.006197428
0.005997809
0.005887597
0.005852144
0.005782651
0.005401415
0.004778671
0.004074641
0.003291134
0.002435772
0.001531782
0.0006617246
6.150347e-05
5.572862e-05
0.0003669532
0.0007506667
0.001247752
0.001734085
0.002191357
0.00263706
0.003071423
0.003496346
0.003914402
0.004327842
0.004738389
0.005147152
0.005554619
0.005960678
0.006364658
0.006765382
0.007161227
0.007550184
0.007929777
0.008297209
0.00865028
0.008985944
0.009301345
0.009594111
0.009860824
0.01009943
0.01030776
0.0104839
0.01051893
0.0105029
0.01046141
0.01039953
0.01032097
0.01022495
0.01001737
0.009715015
0.009413715
0.009109312
0.008797208
0.008474787
0.008142057
0.00780108
0.007456134
0.007112154
0.006778173
0.006467733
0.006202349
0.006006962
0.005901066
0.005868487
0.005797803
0.00540686
0.004782093
0.004076283
0.003291304
0.002435084
0.001530681
0.0006609706
6.151616e-05
5.618772e-05
0.0003713853
0.0007425547
0.001232658
0.001737602
0.002194653
0.002642571
0.003080393
0.003510395
0.003934503
0.004354856
0.004772932
0.0051896
0.0056051
0.00601907
0.006430592
0.006838147
0.007239703
0.00763281
0.008015608
0.008385573
0.008739555
0.009074755
0.009388536
0.009678032
0.009940822
0.01017467
0.01037763
0.01054804
0.01067963
0.01066699
0.01060297
0.0105115
0.01039658
0.01026098
0.01003634
0.009734691
0.00942837
0.009117031
0.008798913
0.008473137
0.008140757
0.007802463
0.007459281
0.007114888
0.006779904
0.006472028
0.006210824
0.006020751
0.005920853
0.00589237
0.005819109
0.005413668
0.004786577
0.004078666
0.003292201
0.002434843
0.001529898
0.0006603446
6.15346e-05
5.64609e-05
0.0003764174
0.000736095
0.001218582
0.001744458
0.0022017
0.002651869
0.003094488
0.003530656
0.003962388
0.004390851
0.004817512
0.005242978
0.005667103
0.00608905
0.006507327
0.006920924
0.007327822
0.007725805
0.008111796
0.008483128
0.008837019
0.009170715
0.009481746
0.009767266
0.01002516
0.01025341
0.01045027
0.01061433
0.0107445
0.01081667
0.01075307
0.01063435
0.01048324
0.01030649
0.01006041
0.009755362
0.009442722
0.009125864
0.008804376
0.008477133
0.008141552
0.007798934
0.007453534
0.007114912
0.006788337
0.00648457
0.006225054
0.006037723
0.005939401
0.005912316
0.005837533
0.005421573
0.00479221
0.004082266
0.003294084
0.002435326
0.001529602
0.0006599993
6.156669e-05
5.715249e-05
0.0003808317
0.0007305028
0.001206651
0.001752321
0.002210979
0.002664839
0.003112943
0.003556084
0.003995608
0.004433094
0.004869104
0.005303818
0.005736891
0.006167468
0.006594308
0.007014959
0.007427286
0.007828824
0.008216873
0.00858869
0.008941555
0.009272846
0.009580038
0.009860805
0.01011309
0.01033511
0.01052536
0.01068269
0.0108062
0.01089534
0.01088936
0.01076311
0.01058039
0.0103612
0.0100901
0.009778948
0.00945958
0.009134992
0.008805475
0.008471109
0.008134414
0.007796156
0.007458098
0.007121854
0.006796265
0.006494469
0.006237797
0.006051674
0.005955649
0.00593149
0.005855367
0.005430624
0.004798813
0.004086598
0.003296523
0.002436273
0.001529609
0.0006597034
6.159531e-05
5.735875e-05
0.0003864686
0.0007273137
0.001197605
0.001763375
0.002224588
0.002683084
0.003137699
0.003588969
0.004037891
0.004485329
0.004931622
0.005376559
0.005819367
0.006258743
0.006692908
0.007119644
0.007536504
0.007940869
0.008330051
0.008701377
0.009052238
0.009380178
0.009682809
0.009958066
0.01020412
0.01041942
0.01060271
0.01075306
0.01086981
0.01095257
0.01100119
0.01088761
0.01068452
0.01042706
0.01012848
0.009805457
0.009474716
0.009142898
0.00881205
0.008480298
0.008146134
0.007808407
0.007468334
0.007130017
0.006803246
0.006503345
0.006251852
0.006073087
0.00598344
0.005958504
0.005876726
0.005441127
0.004806687
0.004092062
0.003299821
0.002437995
0.001530167
0.0006597499
6.16272e-05
5.781674e-05
0.0003902598
0.0007239409
0.001187247
0.00177526
0.002239919
0.002704261
0.003166826
0.003627675
0.004087267
0.004545887
0.005003377
0.005459058
0.005911733
0.006359739
0.006801023
0.007233231
0.007653824
0.008060172
0.008449639
0.008819648
0.00916772
0.009491539
0.009788988
0.01005821
0.01029762
0.01050591
0.01068208
0.01082539
0.01093537
0.01101181
0.01105469
0.01099395
0.01078908
0.0105022
0.01017163
0.009832689
0.009494916
0.009161495
0.008829844
0.008497364
0.008160877
0.00782174
0.007481619
0.007145255
0.006820446
0.006521643
0.006270375
0.006092272
0.006004961
0.00598585
0.005904425
0.005452631
0.004815404
0.004098285
0.003303886
0.002440249
0.001531053
0.0006599398
6.165238e-05
5.940892e-05
0.0003957912
0.0007241739
0.001182526
0.001781096
0.002261002
0.002732559
0.003204371
0.003675872
0.004146918
0.004617218
0.005086093
0.005552399
0.006014551
0.006470581
0.006918229
0.007355037
0.007778443
0.008185858
0.008574728
0.008942517
0.009287046
0.009606122
0.009897869
0.01016067
0.01039318
0.01059434
0.01076336
0.01089972
0.01100311
0.01107346
0.01111087
0.01109089
0.01089236
0.01058605
0.01022719
0.00987215
0.009525876
0.009186617
0.008851443
0.008516899
0.008180894
0.007842238
0.007502086
0.007164944
0.006839721
0.00654156
0.006292348
0.006117453
0.006033154
0.006014027
0.00592758
0.005465166
0.004825027
0.004105219
0.003308445
0.002442895
0.001532126
0.0006602287
6.169113e-05
5.782868e-05
0.0004060857
0.0007247907
0.001178718
0.001778591
0.002284468
0.002763817
0.003245647
0.00372864
0.004211926
0.004694545
0.005175233
0.005652363
0.006123972
0.006587827
0.007041507
0.007482484
0.007908197
0.008316107
0.00870377
0.009068788
0.009409238
0.00972314
0.01000886
0.01026504
0.01049057
0.01068461
0.0108466
0.01097617
0.0110732
0.01113772
0.01116992
0.01117009
0.01099554
0.01067595
0.01028974
0.009916496
0.009560458
0.00921713
0.008880253
0.008544664
0.008207273
0.007867197
0.007525876
0.007187969
0.006862352
0.006564241
0.006315811
0.006142848
0.006061802
0.006045832
0.00595734
0.005478986
0.004835827
0.004113243
0.003313934
0.002446103
0.001533644
0.0006606273
6.173371e-05
5.69872e-05
0.0004112245
0.0007256143
0.001173734
0.001775869
0.002311199
0.002799644
0.003292592
0.003787976
0.00428416
0.004779487
0.00527211
0.005759944
0.006240697
0.006711916
0.007171061
0.007615562
0.008042884
0.008450581
0.008836364
0.009198062
0.009533951
0.009842316
0.01012178
0.01037121
0.01058974
0.01077676
0.01093187
0.01105489
0.0111458
0.01120473
0.01123193
0.01122774
0.0110823
0.0107538
0.01034634
0.009959041
0.009595401
0.00924841
0.008909713
0.008573027
0.008234744
0.007893719
0.007551275
0.007212217
0.006885724
0.006587381
0.00633967
0.00616845
0.006089705
0.006075102
0.005983759
0.005493328
0.004847161
0.004121788
0.003319932
0.002449844
0.001535607
0.0006611636
6.178039e-05
5.806466e-05
0.0004090967
0.0007277322
0.001170549
0.001774285
0.002341598
0.002840379
0.00334543
0.003853927
0.004363465
0.004871698
0.005376215
0.005874504
0.006363971
0.006841983
0.007305917
0.007753211
0.008181415
0.008588234
0.008971481
0.00932944
0.009660434
0.009963049
0.01023615
0.01047885
0.0106905
0.01087068
0.01101916
0.01113588
0.01122095
0.01127455
0.01129699
0.01128861
0.01115444
0.01082138
0.01039857
0.01000111
0.009632074
0.009282734
0.008943001
0.008605457
0.008266032
0.007923557
0.007579507
0.007238909
0.006911178
0.006612182
0.006364719
0.006194854
0.006118296
0.00610519
0.006010945
0.005508481
0.004859197
0.004130909
0.003326375
0.002453889
0.001537568
0.0006618716
6.182636e-05
6.047959e-05
0.000413949
0.0007315624
0.001168666
0.001774038
0.002375411
0.002885418
0.003403379
0.003925603
0.004448865
0.004970124
0.005486417
0.005994835
0.006492528
0.00697673
0.007444795
0.007894224
0.0083227
0.008728117
0.00910829
0.009462177
0.009788076
0.01008485
0.01035162
0.01058771
0.01079267
0.01096625
0.01110838
0.01121911
0.01129861
0.01134716
0.01136508
0.0113527
0.01122184
0.01088402
0.01045025
0.01004593
0.009673271
0.0093221
0.008981104
0.00864218