/*--------------------------------*- C++ -*----------------------------------*\
| =========                 |                                                 |
| \\      /  F ield         | OpenFOAM: The Open Source CFD Toolbox           |
|  \\    /   O peration     | Version:  2312                                  |
|   \\  /    A nd           | Website:  www.openfoam.com                      |
|    \\/     M anipulation  |                                                 |
\*---------------------------------------------------------------------------*/
FoamFile
{
    version     2.0;
    format      ascii;
    arch        "LSB;label=32;scalar=64";
    class       volScalarField;
    location    "4800";
    object      qr;
}
// * * * * * * * * * * * * * * * * * * * * * * * * * * * * * * * * * * * * * //

dimensions      [1 0 -3 0 0 0 0];

internalField   uniform 0;

boundaryField
{
    plate
    {
        type            calculated;
        value           nonuniform List<scalar> 
200
(
-9316.392
-9465.441
-9547.207
-9544.96
-9485.009
-9436.754
-9432.834
-9466.931
-9524.071
113.0964
109.1881
-9666.296
25.1812
-29.90291
-84.69876
-115.8505
-133.0721
-135.5699
-119.6573
-89.60575
-59.54215
-45.59026
-53.99684
-75.63717
-92.12827
-90.40051
-9496.922
-9463.009
-9435.929
-9404.249
-9364.385
-9321.129
-9284.248
-9248.052
-9214.106
-9186.724
-9178.055
-399.7095
-421.3912
-9020.829
-8930.374
-8851.344
-8797.523
-8763.057
-734.8903
-819.7474
-899.1399
-968.1288
-1033.402
-1102.541
-1179.977
-1255.3
-1311.605
-1340.134
-7862.9
-7719.449
-7616.643
-7545.638
-7486.138
-7433.355
-2100.525
-2196.678
-7042.176
-6838.579
-6636.741
-6452.711
-6118.36
-3495.345
-3589.972
-4574.47
-4606.42
-4040.466
-3514.03
-3306.565
-3248.08
-3319.503
-3549.144
-4018.548
-4732.238
-5159.889
-5235.151
-5112.553
-4910.608
-4767.314
-4751.534
-4824.35
-4893.617
-4886.124
-4788.032
-4639.448
-4510.171
-4455.545
-4488.916
-4583.653
-4686.119
-4743.587
-4730.01
-4652.744
-4543.583
-4440.414
-4368.682
-4333.737
-4327.321
-4337.818
-4358.706
-4390.758
-4438.506
-4503.407
-4579.24
-4652.142
-4706.571
-4732.748
-4731.125
-4712.225
-4691.259
-4681.516
-4688.395
-4708.369
-4731.395
-4746.753
-4747.318
-4732.546
-4706.844
-4677.548
-4650.781
-4630.198
-4616.174
-4607.424
-4602.342
-4599.863
-4599.267
-4600.368
-4601.03
-4599.148
-4592.624
-4580.799
-4565.526
-4550.897
-4542.106
-4543.526
-4556.76
-4579.499
-4605.85
-4628.229
-4640.051
-4638.16
-4623.799
-4601.961
-4579.321
-4561.797
-4552.702
-4552.27
-4558.871
-4570.838
-4587.574
-4609.04
-4634.167
-4659.589
-4679.313
-4686.855
-4678.186
-4655.251
-4625.654
-4599.152
-4581.817
-4573.558
-4569.399
-4559.552
-4537.697
-4506.195
-4479.721
-4477.104
-4508.557
-4565.251
-4623.539
-4653.953
-4632.622
-4554.335
-4445.545
-4361.085
-4349.351
-4412.919
-4512.379
-4600.469
-4644.449
-4646.38
-4612.268
-4537.067
-4410.907
-4231.101
-4146.794
-4049.29
-3899.007
-3148.895
-7421.04
-1016.559
-9516.546
807.9538
-10998.19
-11057.52
)
;
    }
    riser
    {
        type            calculated;
        value           nonuniform List<scalar> 
200
(
3216.16
3090.363
3062.312
3076.82
3129.522
3196.017
3277.925
3286.899
3124.678
2981.967
3111.231
3322.868
3304.787
3198.203
3286.601
3493.208
3579.244
3497.811
3374.229
3332.011
3423.773
3635.251
3866.484
3988.378
4003.64
4019.748
4014.552
3888.54
3755.39
3842.685
4108.612
4256.717
4146.814
4005.584
4149.278
4546.031
4859.781
4946.242
4928.407
4789.851
4437.065
4100.652
4096.648
4351.947
4576.677
4626.801
4491.508
4220.637
3962.19
3856.668
3870.39
3862.076
3805.932
3793.472
3809.367
3765.279
3756.688
3981.089
4379.059
4657.193
4694.092
4614.671
4475.179
4232.717
3997.761
3957.64
4113.049
4326.325
4505.688
4613.127
4622.111
4551.63
4461.46
4380.734
4291.131
4180.076
4070.925
3990.069
3931.849
3875.346
3823.895
3808.11
3850.806
3941.503
4045.23
4128.139
4175.016
4190.458
4189.841
4188.752
4195.88
4210.825
4226.454
4234.233
4229.711
4215.001
4196.857
4181.767
4171.598
4162.772
4149.386
4127.966
4100.661
4074.885
4059.837
4062.13
4082.918
4117.717
4158.525
4196.908
4226.544
4244.299
4249.826
4244.377
4229.722
4207.717
4180.473
4150.701
4121.743
4097.083
4079.511
4070.368
4069.27
4074.461
4083.584
4094.524
4105.931
4117.304
4128.712
4140.418
4152.615
4165.364
4178.675
4192.586
4207.117
4222.09
4236.919
4250.547
4261.599
4268.704
4270.858
4267.634
4259.192
4246.14
4229.358
4209.934
4189.208
4168.838
4150.729
4136.695
4127.89
4124.245
4124.21
4125.068
4123.846
4118.597
4109.606
4099.925
4094.852
4100.254
4120.221
4154.886
4199.367
4244.506
4279.378
4294.564
4284.741
4249.689
4193.722
4124.221
4049.766
3978.367
3915.972
3865.617
3827.453
3799.94
3781.609
3772.833
3777.621
3804.578
3862.994
3951.758
4047.495
4104.345
4072.583
3932.15
3721.109
3525.629
3421.216
3410.254
3434.275
3465.316
3566.824
3751.088
3842.293
3633.946
3201.039
2900.189
2837.606
2900.696
)
;
    }
    topAndBottom
    {
        type            calculated;
        value           nonuniform List<scalar> 
120
(
3806.545
3170.36
2696.854
2394.238
2180.228
2043.345
1965.102
1913.063
1860.038
1801.493
1746.727
1700.593
1664.677
1638.539
1619.836
1607.077
1598.244
1593.056
1593.153
1598.307
1606.156
1613.427
1617.298
1616.805
1612.268
1604.597
1594.759
1583.617
1571.716
1559.079
1545.745
1532.035
1518.6
1506.324
1496.147
1488.842
1484.8
1483.886
1485.486
1488.635
1492.257
1495.444
1497.702
1499.003
1499.712
1500.469
1501.879
1503.817
1504.698
1501.524
1491.067
1471.919
1446.073
1418.691
1395.23
1377.327
1362.146
1346.925
1348.308
1494.635
4219.48
4468.786
4490.254
4359.855
4057.664
3667.699
3313.108
3064.181
2921.076
2845.782
2802.669
2789.883
2840.347
2986.081
3215.524
3461.912
3635.273
3674.965
3581.888
3407.219
3210.981
3024.569
2842.435
2642.402
2414.205
2174.695
1961.992
1816.243
1760.838
1793.696
1889.981
2011.762
2119.206
2179.978
2175.724
2105.071
1982.482
1833.238
1686.137
1566.02
1488.54
1458.914
1473.318
1523.52
1600.972
1698.287
1808.965
1926.551
2045.657
2161.53
2268.851
2361.803
2438.214
2500.652
2551.914
2591.345
2617.598
2626.917
2642.857
2635.972
)
;
    }
    frontAndBack
    {
        type            empty;
    }
}


// ************************************************************************* //
