/*--------------------------------*- C++ -*----------------------------------*\
| =========                 |                                                 |
| \\      /  F ield         | OpenFOAM: The Open Source CFD Toolbox           |
|  \\    /   O peration     | Version:  2312                                  |
|   \\  /    A nd           | Website:  www.openfoam.com                      |
|    \\/     M anipulation  |                                                 |
\*---------------------------------------------------------------------------*/
FoamFile
{
    version     2.0;
    format      ascii;
    arch        "LSB;label=32;scalar=64";
    class       volScalarField;
    location    "4800";
    object      T;
}
// * * * * * * * * * * * * * * * * * * * * * * * * * * * * * * * * * * * * * //

dimensions      [0 0 0 1 0 0 0];

internalField   nonuniform List<scalar> 
12000
(
448.6491
435.7312
434.1595
433.9321
433.8959
433.8849
433.8781
433.8723
433.8662
433.8583
433.8486
433.8373
433.8239
433.8075
433.7881
433.766
433.7412
433.713
433.6813
433.6465
433.6086
433.5671
433.5221
433.474
433.4227
433.3679
433.3101
433.2497
433.1866
433.1208
433.0524
432.981
432.9055
432.8249
432.7358
432.6316
432.5122
432.3877
432.2626
432.1271
431.9685
431.7744
431.5778
431.4019
431.2186
430.9858
430.7015
430.4283
430.1736
429.8715
429.4726
429.0363
428.5874
428.053
427.3857
426.5793
425.5328
424.1433
421.9663
418.0236
448.72
436.2707
434.8886
434.8607
435.0538
435.2843
435.529
435.7787
436.0198
436.2404
436.4538
436.67
436.8696
437.0446
437.2078
437.37
437.5209
437.6492
437.7624
437.8723
437.9737
438.0568
438.1269
438.1932
438.251
438.2929
438.3242
438.3514
438.37
438.3757
438.3716
438.36
438.34
438.3089
438.2656
438.2107
438.1441
438.066
437.9759
437.8725
437.7549
437.6227
437.4727
437.3031
437.1117
436.8973
436.6573
436.3859
436.0817
435.7385
435.3506
434.9015
434.3868
433.7747
433.0475
432.1111
430.8135
428.9799
426.0505
420.6658
449.1951
437.0124
435.5873
435.6459
435.9976
436.4016
436.8113
437.2128
437.599
437.965
438.3066
438.6262
438.9226
439.197
439.4499
439.6835
439.8983
440.0943
440.2722
440.4338
440.58
440.7111
440.8277
440.9309
441.0214
441.0992
441.1646
441.2184
441.2608
441.2917
441.3111
441.3194
441.3177
441.3021
441.2731
441.231
441.1755
441.1064
441.0231
440.9252
440.8118
440.6827
440.5354
440.3687
440.1813
439.9721
439.7384
439.4723
439.1704
438.8278
438.4435
438.014
437.5183
436.9275
436.1985
435.2719
434.0342
432.1391
428.8832
422.0618
449.9937
437.7294
436.2184
436.3085
436.7547
437.2699
437.7858
438.2825
438.7533
439.2001
439.6217
440.0164
440.385
440.7238
441.0346
441.3217
441.5863
441.8295
442.0523
442.2559
442.4414
442.6096
442.7614
442.8974
443.0181
443.1239
443.2152
443.2921
443.3548
443.4032
443.4372
443.4577
443.4641
443.4541
443.4283
443.3867
443.3293
443.2555
443.1649
443.0567
442.9302
442.7846
442.6187
442.4315
442.2215
441.9884
441.7296
441.4412
441.1189
440.7591
440.3535
439.8886
439.3468
438.72
437.9732
437.0471
435.7951
433.9234
430.6083
423.001
450.9028
438.4454
436.8227
436.9029
437.3978
437.9816
438.5672
439.1292
439.6603
440.1603
440.6302
441.0715
441.4855
441.8706
442.2269
442.5564
442.8611
443.1426
443.402
443.6398
443.8571
444.0547
444.2336
444.3944
444.5376
444.6635
444.7725
444.8646
444.94
444.9986
445.041
445.0671
445.0753
445.0655
445.0379
444.9924
444.9293
444.8477
444.747
444.6262
444.4845
444.321
444.1344
443.9235
443.687
443.4238
443.1317
442.8089
442.4541
442.0589
441.6051
441.0907
440.5187
439.8634
439.0885
438.1379
436.8863
435.0422
431.7472
423.7263
451.8915
439.1596
437.4027
437.4362
437.9397
438.5579
439.1861
439.7923
440.3671
440.9089
441.4173
441.8938
442.3401
442.7579
443.1479
443.5098
443.8452
444.1556
444.4422
444.7054
444.9462
445.1652
445.3634
445.5413
445.6994
445.8383
445.9582
446.0594
446.1419
446.2057
446.2514
446.2784
446.2859
446.2742
446.2435
446.1936
446.1245
446.0353
445.9253
445.7934
445.6387
445.4599
445.2557
445.0247
444.7653
444.4759
444.1545
443.7997
443.4086
442.9764
442.4954
441.9563
441.3509
440.6621
439.8591
438.885
437.6234
435.7952
432.542
424.2872
452.9143
439.8658
437.9638
437.927
438.41
439.0366
439.6863
440.3195
440.9233
441.4941
442.0312
442.5354
443.0077
443.4494
443.8623
444.2475
444.6054
444.937
445.2429
445.5239
445.7808
446.0144
446.2253
446.4141
446.5816
446.7282
446.8543
446.9602
447.0462
447.1123
447.1586
447.1848
447.1909
447.1772
447.1437
447.0903
447.0165
446.9216
446.8047
446.6648
446.5005
446.3105
446.0933
445.8472
445.5704
445.2614
444.9182
444.5384
444.1187
443.6551
443.1428
442.5749
441.9413
441.2252
440.3979
439.4053
438.1365
436.3204
433.1023
424.6939
453.9595
440.5642
438.5087
438.3851
438.8257
439.4409
440.0963
440.7433
441.3644
441.9539
442.5103
443.0337
443.525
443.9851
444.4149
444.8159
445.1891
445.5349
445.854
446.1468
446.4143
446.6571
446.8758
447.0713
447.2441
447.3948
447.524
447.6321
447.7193
447.7859
447.8319
447.8573
447.8622
447.847
447.8116
447.7558
447.6791
447.5808
447.4598
447.315
447.1449
446.9478
446.7221
446.4659
446.1772
445.8541
445.4941
445.0947
444.6531
444.166
443.6293
443.0368
442.379
441.64
440.7924
439.7846
438.5094
436.7037
433.5242
425.0159
455.022
441.2564
439.0385
438.8184
439.2024
439.791
440.4376
441.0861
441.7146
442.3147
442.8832
443.4195
443.9238
444.3966
444.8387
445.2507
445.6338
445.9887
446.3159
446.616
446.8898
447.1379
447.361
447.56
447.7355
447.8881
448.0186
448.1272
448.2146
448.281
448.3265
448.3513
448.3556
448.3396
448.3034
448.2466
448.1688
448.0691
447.9463
447.7992
447.6262
447.4252
447.1944
446.9315
446.6344
446.3004
445.9272
445.5123
445.0533
444.5475
443.991
443.3785
442.7012
441.9442
441.0811
440.0623
438.7836
436.988
433.8428
425.281
455.9645
441.9395
439.556
439.2335
439.5502
440.0995
440.7262
441.3668
441.9945
442.598
443.1725
443.7162
444.2284
444.7095
445.1595
445.5791
445.9687
446.3292
446.6614
446.9659
447.2434
447.4944
447.7198
447.9204
448.0968
448.2499
448.3804
448.4888
448.5758
448.6417
448.6868
448.7112
448.7153
448.6992
448.663
448.6063
448.5285
448.4287
448.3058
448.1583
447.9842
447.7816
447.5481
447.2812
446.9782
446.6364
446.2532
445.8263
445.3534
444.8322
444.2598
443.6315
442.939
442.1682
441.2936
440.2668
438.9865
437.2015
434.0931
425.5251
457.0577
442.6086
440.0574
439.6319
439.8757
440.3777
440.9759
441.6005
442.2202
442.8209
443.3958
443.9419
444.4579
444.9434
445.3982
445.8227
446.2171
446.5819
446.9177
447.2252
447.5048
447.7575
447.9839
448.1849
448.3614
448.5143
448.6442
448.7519
448.8381
448.9033
448.9479
448.9721
448.9762
448.9604
448.9247
448.8687
448.7918
448.693
448.5711
448.4244
448.2509
448.0483
447.8139
447.5449
447.2381
446.8905
446.4991
446.0617
445.5765
445.042
444.4563
443.815
443.1109
442.3302
441.4479
440.4168
439.1372
437.3629
434.2882
425.7483
458.2469
443.2677
440.5461
440.0187
440.1873
440.6357
441.198
441.7995
442.4049
442.997
443.5674
444.1115
444.6273
445.1137
445.5705
445.9977
446.3956
446.7643
447.104
447.4147
447.6969
447.9512
448.1785
448.3799
448.5562
448.7085
448.8376
448.9443
449.0295
449.0938
449.1376
449.1614
449.1655
449.1499
449.1147
449.0596
448.9838
448.8863
448.7659
448.6207
448.4487
448.2471
448.0132
447.7434
447.4342
447.0818
446.6829
446.2349
445.7372
445.1904
444.5935
443.9429
443.2309
442.4439
441.5573
440.5241
439.2467
437.4832
434.442
425.9625
459.3404
443.9402
441.031
440.3946
440.4831
440.8724
441.3929
441.9654
442.5511
443.1298
443.6911
444.229
444.7404
445.2239
445.6788
446.1066
446.5094
446.887
447.2361
447.5541
447.8405
448.0963
448.3241
448.5258
448.7022
448.8539
448.982
449.0875
449.1713
449.2343
449.2771
449.3001
449.3037
449.2881
449.2532
449.1987
449.1239
449.0278
448.909
448.7656
448.5954
448.3955
448.1627
447.8932
447.5827
447.2271
446.821
446.36
445.8461
445.2867
444.6826
444.0264
443.3105
442.5207
441.6327
440.6
439.3262
437.5729
434.5612
426.1621
460.5539
444.6106
441.5088
440.7651
440.7749
441.1041
441.5797
442.1187
442.6791
443.2384
443.7843
444.3093
444.809
445.2822
445.7341
446.1679
446.5808
446.9687
447.3268
447.6523
447.9447
448.2058
448.4381
448.6424
448.8195
448.9702
449.0956
449.1982
449.2797
449.3407
449.3818
449.4035
449.4062
449.3901
449.3551
449.3009
449.2269
449.1318
449.0145
448.8729
448.7046
448.5068
448.2762
448.0084
447.6964
447.3342
446.9177
446.4443
445.9171
445.3447
444.7331
444.0757
443.3592
442.5695
441.6822
440.6514
439.3816
437.6376
434.6522
426.3455
461.7812
445.2839
441.983
441.1331
441.0667
441.3354
441.7631
442.265
442.7965
443.3331
443.8604
444.3698
444.8559
445.3231
445.7772
446.2156
446.6323
447.0228
447.3849
447.7167
448.0171
448.2853
448.5222
448.729
448.9071
449.0578
449.1831
449.2849
449.3646
449.4232
449.4622
449.4822
449.4836
449.4666
449.4312
449.3769
449.303
449.2087
449.0924
448.9525
448.7861
448.5895
448.3585
448.0884
447.7732
447.4064
446.983
446.5016
445.9654
445.3817
444.7602
444.1002
443.386
442.5983
441.7132
440.6852
439.4198
437.684
434.7194
426.4992
463.0077
445.9562
442.4567
441.5034
441.3606
441.568
441.9464
442.4091
442.9097
443.4218
443.9294
444.4227
444.8992
445.3635
445.8163
446.2534
446.6706
447.0641
447.4306
447.7669
448.0713
448.3432
448.5833
448.7925
448.9722
449.124
449.2497
449.3512
449.43
449.4877
449.5254
449.5438
449.5439
449.5258
449.4895
449.4345
449.3603
449.2658
449.1493
449.0087
448.8414
448.6437
448.4114
448.1394
447.8219
447.4529
447.0268
446.5404
445.9957
445.4026
444.7738
444.1117
443.3994
442.6139
441.7313
440.7064
439.4451
437.7161
434.7674
426.6181
464.2201
446.6275
442.9363
441.8771
441.6583
441.8049
442.1338
442.5569
443.026
443.5134
444.0022
444.482
444.9488
445.4053
445.8534
446.2892
446.7075
447.1031
447.4713
447.8094
448.116
448.3904
448.6327
448.8436
449.0244
449.1769
449.3029
449.4042
449.4826
449.5394
449.5759
449.593
449.5917
449.5723
449.5346
449.4783
449.4028
449.307
449.1893
449.0474
448.8787
448.6795
448.4454
448.1714
447.8516
447.48
447.0512
446.5623
446.0149
445.4167
444.7805
444.1153
443.4052
442.6225
441.743
440.7215
439.4643
437.7413
434.8045
426.7016
465.4053
447.3075
443.4207
442.255
441.9612
442.0482
442.3288
442.7129
443.1513
443.6147
444.0853
444.5515
445.0088
445.4591
445.9027
446.3353
446.7515
447.1459
447.5144
447.8536
448.1612
448.4361
448.6787
448.8898
449.0707
449.223
449.3486
449.4493
449.5267
449.5824
449.6175
449.6331
449.6301
449.6091
449.5698
449.5119
449.4347
449.3372
449.2178
449.0743
448.9039
448.7029
448.4669
448.191
447.8693
447.4958
447.065
446.5736
446.023
445.4208
444.7807
444.1128
443.4035
442.6241
441.748
440.7301
439.4771
437.7596
434.8317
426.7538
466.5589
447.9915
443.9095
442.6374
442.2702
442.2999
442.5341
442.881
443.29
443.731
444.1849
444.6393
445.0878
445.5307
445.9686
446.3969
446.81
447.2023
447.569
447.9065
448.2126
448.4864
448.7278
448.9376
449.1169
449.2676
449.3914
449.4902
449.5658
449.6195
449.6526
449.6662
449.6612
449.6385
449.5976
449.5379
449.4588
449.3595
449.2384
449.0932
448.9209
448.7181
448.4803
448.2023
447.8786
447.503
447.0704
446.5773
446.0249
445.4205
444.7776
444.1072
443.3983
442.6223
441.7496
440.7352
439.4862
437.7738
434.8534
426.7872
467.6772
448.6749
444.4013
443.0245
442.5862
442.5613
442.7517
443.0637
443.4456
443.8661
444.3052
444.7497
445.1904
445.6262
446.0576
446.4803
446.8884
447.2761
447.6387
447.9725
448.2753
448.5457
448.7836
448.9899
449.1658
449.3131
449.4337
449.5295
449.6021
449.653
449.6834
449.6945
449.6872
449.6624
449.6196
449.5582
449.4774
449.3764
449.2535
449.1065
448.9324
448.7277
448.4879
448.2079
447.8822
447.5047
447.0703
446.5757
446.0217
445.4157
444.7712
444.1001
443.3924
442.6193
441.7497
440.7389
439.494
437.7869
434.8743
426.8183
468.7584
449.354
444.8955
443.4166
442.9098
442.8332
442.9829
443.2628
443.6199
444.022
444.4481
444.8839
445.3191
445.749
446.1729
446.5882
446.9893
447.3703
447.7265
448.0541
448.3507
448.6152
448.8475
449.0483
449.219
449.3613
449.4773
449.5686
449.6371
449.6843
449.7113
449.7193
449.7093
449.6821
449.6374
449.5741
449.4916
449.3889
449.2643
449.1155
448.9397
448.7331
448.4913
448.2093
447.8815
447.5022
447.0662
446.5702
446.0152
445.4082
444.7629
444.0913
443.385
442.615
441.7487
440.7416
439.501
437.7995
434.8954
426.8535
469.803
450.0285
445.3918
443.8137
443.2413
443.1162
443.2284
443.479
443.8138
444.1995
444.614
445.0422
445.4729
445.8982
446.3148
446.7212
447.1131
447.4851
447.8322
448.151
448.4391
448.6954
448.9199
449.1132
449.2769
449.4127
449.5226
449.6084
449.6718
449.7144
449.7373
449.7416
449.7285
449.6986
449.6515
449.5864
449.5022
449.3978
449.2716
449.1212
448.9436
448.7352
448.4915
448.2075
447.8778
447.4967
447.0592
446.562
446.0062
445.3988
444.7533
444.0822
443.3777
442.6106
441.7476
440.7441
439.508
437.8121
434.917
426.8943
470.8081
450.7039
445.891
444.2161
443.581
443.4105
443.4881
443.7121
444.0268
444.3976
444.8015
445.2223
445.648
446.0698
446.4808
446.8776
447.2583
447.6187
447.9544
448.262
448.5393
448.7852
448.9998
449.1839
449.3391
449.467
449.5696
449.6489
449.7064
449.7436
449.7619
449.7621
449.7452
449.7122
449.6628
449.5957
449.5097
449.4036
449.2758
449.1238
448.9446
448.7345
448.4891
448.2033
447.8719
447.4892
447.0503
446.5522
445.9958
445.3884
444.7433
444.0731
443.3705
442.6064
441.7466
440.7468
439.515
437.825
434.9394
426.9396
471.7755
451.3794
446.3935
444.6245
443.9291
443.716
443.7617
443.9616
444.2578
444.6147
445.0083
445.4213
445.8408
446.2573
446.6631
447.0527
447.4217
447.7681
448.0902
448.3845
448.6489
448.8825
449.0856
449.259
449.4044
449.5234
449.6179
449.6898
449.7408
449.7722
449.7853
449.7811
449.7603
449.7239
449.6718
449.6025
449.5146
449.4068
449.2775
449.124
448.9433
448.7317
448.4846
448.1973
447.8642
447.4801
447.0401
446.5413
445.9847
445.3776
444.7334
444.0645
443.3641
442.6028
441.7462
440.75
439.5225
437.8384
434.9625
426.9873
472.7037
452.0534
446.8996
445.0388
444.2856
444.0324
444.0486
444.2261
444.5051
444.8487
445.2317
445.636
446.0477
446.4567
446.8548
447.236
447.5955
447.9299
448.2367
448.5153
448.765
448.985
449.1753
449.337
449.4715
449.5807
449.6665
449.7306
449.7746
449.7999
449.8076
449.7987
449.774
449.7341
449.6791
449.6074
449.5175
449.408
449.2771
449.1221
448.94
448.7269
448.4784
448.1896
447.8552
447.47
447.0291
446.5297
445.9732
445.3668
444.7238
444.0567
443.3586
442.6001
441.7465
440.7538
439.5307
437.8525
434.9867
427.0374
473.5872
452.724
447.4093
445.4593
444.6505
444.3592
444.3478
444.5044
444.7671
445.0976
445.4695
445.8638
446.2662
446.6656
447.0536
447.4239
447.7717
448.0935
448.3873
448.6516
448.8857
449.0904
449.2668
449.416
449.5391
449.6381
449.7146
449.7706
449.8074
449.8265
449.8288
449.8152
449.7865
449.7431
449.6851
449.611
449.519
449.4077
449.2751
449.1186
448.935
448.7205
448.4707
448.1806
447.8451
447.4589
447.0173
446.5178
445.9617
445.3562
444.7149
444.0499
443.3542
442.5984
441.7478
440.7586
439.5398
437.8675
435.0122
427.0909
474.5398
453.3885
447.9212
445.8853
445.023
444.6956
444.6582
444.795
445.0419
445.3592
445.7194
446.1027
446.4941
446.8822
447.2581
447.6155
447.9496
448.2572
448.5363
448.7859
449.0057
449.1964
449.3589
449.4947
449.6059
449.6943
449.7616
449.8093
449.839
449.8518
449.8488
449.8306
449.7979
449.7511
449.6901
449.6135
449.5195
449.4064
449.2721
449.1141
448.929
448.7131
448.4619
448.1707
447.8341
447.4472
447.0052
446.5058
445.9502
445.3461
444.7068
444.0442
443.3511
442.5979
441.7502
440.7644
439.5497
437.8834
435.0393
427.1502
475.3661
454.0518
448.4382
446.3154
445.4024
445.0407
444.9785
445.0964
445.328
445.6319
445.9798
446.3509
446.73
447.105
447.4673
447.8101
448.129
448.4209
448.6841
448.918
449.1227
449.2989
449.448
449.5714
449.671
449.7487
449.8066
449.8462
449.8688
449.8756
449.8674
449.8448
449.8083
449.7581
449.6943
449.6154
449.5194
449.4044
449.2684
449.1088
448.9223
448.7051
448.4526
448.1603
447.8228
447.4353
446.9931
446.4939
445.9392
445.3367
444.6996
444.0397
443.3492
442.5986
441.7538
440.7711
439.5605
437.9001
435.0677
427.2171
476.1664
454.716
448.9547
446.747
445.7871
445.393
445.3074
445.4071
445.6235
445.9137
446.2484
446.6064
446.9717
447.3323
447.6793
448.0061
448.3084
448.5835
448.8299
449.0474
449.2363
449.3978
449.5331
449.6441
449.7325
449.8002
449.8491
449.8807
449.8965
449.8975
449.8844
449.8577
449.8177
449.7644
449.6978
449.6166
449.5187
449.4021
449.2646
449.1035
448.9156
448.697
448.4434
448.15
447.8117
447.4236
446.9813
446.4825
445.9289
445.3281
444.6934
444.0363
443.3486
442.6004
441.7583
440.7787
439.5719
437.9173
435.0968
427.2919
476.9421
455.3772
449.4703
447.1811
446.176
445.7512
445.6431
445.7251
445.9264
446.2025
446.5233
446.8669
447.2171
447.5618
447.8921
448.2017
448.4863
448.7436
448.9724
449.173
449.3458
449.4923
449.614
449.7126
449.7901
449.8481
449.8884
449.9126
449.922
449.9175
449.8999
449.8693
449.8261
449.77
449.7009
449.6175
449.5179
449.3996
449.2607
449.0983
448.9091
448.6893
448.4346
448.1403
447.8014
447.4128
446.9704
446.472
445.9195
445.3205
444.6883
444.0342
443.3491
442.6033
441.7637
440.787
439.5838
437.9345
435.1257
427.372
477.6957
456.0343
449.9879
447.616
446.5663
446.1133
445.984
446.0486
446.2345
446.496
446.8019
447.1299
447.4637
447.7911
448.1034
448.3945
448.6605
448.8993
449.1102
449.2936
449.4503
449.582
449.6902
449.7767
449.8435
449.8922
449.9245
449.9417
449.9451
449.9356
449.9137
449.8797
449.8335
449.775
449.7037
449.6183
449.517
449.3973
449.2571
449.0935
448.9031
448.6823
448.4267
448.1316
447.7921
447.4032
446.9608
446.4629
445.9114
445.3143
444.6846
444.0333
443.3508
442.6072
441.7699
440.7959
439.5959
437.9513
435.1532
427.4529
478.4281
456.6848
450.5047
448.0503
446.9584
446.4783
446.3282
446.3757
446.5458
446.7917
447.0816
447.3928
447.7088
448.0177
448.3108
448.5826
448.8293
449.0492
449.242
449.4082
449.549
449.6662
449.7613
449.8363
449.8929
449.9328
449.9574
449.9681
449.9659
449.9518
449.9261
449.8889
449.8402
449.7795
449.7062
449.6191
449.5162
449.3952
449.2538
449.0892
448.8979
448.6762
448.4199
448.1242
447.7843
447.3952
446.9529
446.4555
445.905
445.3097
444.6825
444.0341
443.3539
442.6121
441.777
440.8053
439.6081
437.9677
435.1786
427.5288
479.1383
457.3282
451.0207
448.4831
447.3517
446.8454
446.6746
446.7044
446.858
447.0874
447.36
447.6531
447.95
448.2392
448.5123
448.764
448.9911
449.192
449.3668
449.5162
449.6415
449.7446
449.8273
449.8913
449.9383
449.9699
449.9875
449.9921
449.9848
449.9663
449.937
449.8971
449.8461
449.7834
449.7085
449.6198
449.5156
449.3935
449.2511
449.0856
448.8936
448.6713
448.4144
448.1182
447.7779
447.3888
446.9468
446.4501
445.9009
445.3072
444.6821
444.0361
443.3581
442.6181
441.7849
440.8153
439.6206
437.9834
435.2015
427.5943
479.8293
457.9631
451.5336
448.9141
447.7444
447.2134
447.0216
447.033
447.1691
447.3807
447.6349
447.9085
448.1853
448.4538
448.7062
448.9374
449.1447
449.3269
449.484
449.617
449.7275
449.8173
449.8881
449.9418
449.9799
450.0038
450.0148
450.014
450.002
449.9795
449.9469
449.9043
449.8513
449.7871
449.7107
449.6207
449.5153
449.3923
449.2491
449.0828
448.8902
448.6673
448.4099
448.1135
447.7731
447.3841
446.9424
446.4464
445.8982
445.3061
444.6832
444.0395
443.3635
442.6252
441.7937
440.826
439.6333
437.9988
435.2219
427.6459
480.4986
458.5864
452.0425
449.3428
448.1355
447.5804
447.3677
447.3597
447.477
447.6696
447.904
448.1571
448.4127
448.6599
448.8911
449.1017
449.2894
449.4531
449.5931
449.7106
449.8071
449.8843
449.944
449.9881
450.0179
450.0348
450.0398
450.0339
450.0176
449.9916
449.956
449.9109
449.856
449.7904
449.7128
449.6218
449.5154
449.3914
449.2475
449.0806
448.8875
448.6642
448.4067
448.1102
447.7699
447.381
446.9396
446.4441
445.897
445.3067
444.686
444.0446
443.3704
442.6335
441.8036
440.8375
439.6467
438.0143
435.2408
427.6833
481.1507
459.2
452.547
449.7679
448.5236
447.9448
447.711
447.683
447.7804
447.9526
448.1659
448.3973
448.631
448.8563
449.0661
449.2563
449.4247
449.5705
449.6943
449.797
449.8802
449.9458
449.9953
450.0305
450.0527
450.0631
450.0626
450.0521
450.032
450.0027
449.9644
449.917
449.8604
449.7935
449.7149
449.623
449.5157
449.3911
449.2465
449.0792
448.8857
448.6622
448.4046
448.1081
447.768
447.3794
446.9386
446.444
445.898
445.3091
444.6903
444.0513
443.3789
442.6433
441.8147
440.8501
439.661
438.0304
435.2591
427.7096
481.7755
459.7995
453.0453
450.1902
448.9072
448.3043
448.0495
448.0011
448.0777
448.2283
448.4195
448.6284
448.8395
449.0426
449.2311
449.4011
449.5506
449.6793
449.7875
449.8764
449.9474
450.0021
450.0422
450.0692
450.0844
450.0889
450.0835
450.0688
450.0452
450.013
449.9722
449.9228
449.8646
449.7965
449.7171
449.6244
449.5165
449.3913
449.2462
449.0785
448.8848
448.6612
448.4036
448.1073
447.7674
447.3793
446.9391
446.4452
445.9004
445.3131
444.6964
444.0595
443.3887
442.6542
441.827
440.8638
439.6762
438.0473
435.2777
427.7293
482.3029
460.3832
453.5368
450.6101
449.2859
448.6578
448.3816
448.3117
448.3665
448.4947
448.6629
448.8488
449.0371
449.2181
449.3855
449.5358
449.6674
449.7797
449.8733
449.9492
450.0088
450.0537
450.0852
450.1048
450.1136
450.1127
450.1027
450.0842
450.0575
450.0226
449.9796
449.9284
449.8687
449.7996
449.7194
449.6261
449.5177
449.392
449.2466
449.0787
448.8848
448.6613
448.4038
448.1078
447.7683
447.3806
446.9411
446.448
445.9043
445.3185
444.7038
444.069
443.3999
442.6665
441.8404
440.8787
439.6926
438.0654
435.2973
427.7478
482.8964
460.9543
454.022
451.0246
449.6577
449.0038
448.7056
448.6134
448.6454
448.7504
448.8952
449.0577
449.2233
449.3825
449.5295
449.6609
449.7752
449.8722
449.9521
450.0161
450.0653
450.101
450.1247
450.1375
450.1406
450.1347
450.1206
450.0986
450.069
450.0317
449.9868
449.9339
449.8729
449.8028
449.722
449.6282
449.5193
449.3932
449.2476
449.0796
448.8858
448.6624
448.4052
448.1094
447.7704
447.3833
446.9444
446.4523
445.9097
445.3254
444.7124
444.0796
443.412
442.6798
441.855
440.8946
439.7101
438.0845
435.3182
427.7681
483.5842
461.5127
454.4994
451.4326
450.0217
449.3412
449.0203
448.9051
448.9137
448.9949
449.116
449.2552
449.3983
449.5363
449.6635
449.7769
449.875
449.9574
450.0247
450.0776
450.1171
450.1446
450.1611
450.1678
450.1656
450.1552
450.1373
450.1121
450.0798
450.0404
449.9937
449.9394
449.8771
449.8061
449.7247
449.6305
449.5212
449.395
449.2492
449.0812
448.8875
448.6644
448.4075
448.1123
447.7738
447.3873
446.9492
446.4579
445.9163
445.3334
444.7222
444.0913
443.4252
442.694
441.8704
440.9114
439.7284
438.1047
435.3405
427.7917
484.1833
462.0638
454.9707
451.834
450.3774
449.6692
449.3249
449.1861
449.1706
449.2278
449.3251
449.4412
449.5624
449.6798
449.7882
449.8844
449.9672
450.0361
450.0916
450.1342
450.1649
450.1848
450.1948
450.1959
450.1888
450.1744
450.153
450.1249
450.0901
450.0487
450.0003
449.9447
449.8814
449.8097
449.7277
449.633
449.5235
449.3971
449.2514
449.0835
448.8901
448.6673
448.4109
448.1162
447.7783
447.3925
446.9551
446.4646
445.9242
445.3426
444.733
444.1038
443.4391
442.709
441.8866
440.9289
439.7474
438.1255
435.3635
427.8179
484.7784
462.6025
455.4332
452.2274
450.7239
449.987
449.6186
449.4556
449.4157
449.4488
449.5225
449.616
449.7159
449.8137
449.9041
449.9842
450.0526
450.1089
450.1534
450.1865
450.2091
450.222
450.2261
450.222
450.2106
450.1924
450.1678
450.137
450.1
450.0567
450.0068
449.95
449.8858
449.8133
449.7308
449.6358
449.5261
449.3996
449.254
449.0863
448.8932
448.6709
448.4151
448.121
447.7838
447.3987
446.9621
446.4725
445.9331
445.3528
444.7447
444.1172
443.4538
442.7247
441.9034
440.947
439.7671
438.1469
435.3871
427.8458
485.3585
463.1309
455.8878
452.6127
451.0606
450.294
449.901
449.7133
449.6489
449.6579
449.7085
449.7801
449.8596
449.9385
450.0119
450.0769
450.1319
450.1764
450.2107
450.2351
450.2501
450.2566
450.2552
450.2465
450.2311
450.2094
450.1819
450.1485
450.1094
450.0644
450.0131
449.9552
449.8902
449.8171
449.7341
449.6388
449.5289
449.4025
449.257
449.0897
448.897
448.6753
448.42
448.1266
447.7901
447.4058
446.97
446.4813
445.9428
445.3638
444.7572
444.1313
443.4692
442.7409
441.9208
440.9657
439.7871
438.1687
435.4111
427.8738
485.9217
463.6462
456.332
452.9887
451.3869
450.5898
450.1717
449.9591
449.8703
449.8556
449.8836
449.934
449.9939
450.0551
450.1124
450.1631
450.2056
450.2392
450.264
450.2802
450.2883
450.2889
450.2824
450.2694
450.2504
450.2255
450.1953
450.1596
450.1186
450.0719
450.0194
449.9604
449.8946
449.821
449.7376
449.642
449.532
449.4057
449.2604
449.0935
448.9014
448.6802
448.4256
448.133
447.7972
447.4137
446.9787
446.4909
445.9534
445.3755
444.7703
444.1459
443.4851
442.7577
441.9386
440.9847
439.8076
438.1908
435.4355
427.9015
486.3825
464.1498
456.7678
453.356
451.7033
450.8738
450.4301
450.1928
450.08
450.0421
450.0483
450.0784
450.1197
450.164
450.2063
450.2437
450.2744
450.2978
450.3137
450.3224
450.324
450.3191
450.3079
450.2909
450.2685
450.2408
450.208
450.1702
450.1273
450.0792
450.0255
449.9656
449.8991
449.825
449.7412
449.6454
449.5354
449.4091
449.2643
449.0978
448.9062
448.6857
448.4319
448.14
447.8051
447.4224
446.9882
446.5013
445.9648
445.388
444.7842
444.1612
443.5015
442.775
441.9569
441.0042
439.8285
438.2133
435.4601
427.9287
486.9213
464.6368
457.1904
453.7138
452.0103
451.1454
450.6756
450.4145
450.2782
450.218
450.2032
450.2139
450.2376
450.2661
450.2942
450.3191
450.3388
450.3527
450.3604
450.3619
450.3574
450.3473
450.3318
450.3111
450.2855
450.2551
450.2201
450.1803
450.1358
450.0863
450.0315
449.9708
449.9037
449.8291
449.7449
449.6489
449.539
449.413
449.2684
449.1025
448.9116
448.6918
448.4387
448.1476
447.8136
447.4318
446.9984
446.5124
445.9768
445.4011
444.7985
444.1769
443.5183
442.7927
441.9756
441.024
439.8497
438.2362
435.4851
427.9558
487.4577
465.1111
457.6022
454.0624
452.3074
451.4053
450.9091
450.6246
450.4656
450.3839
450.3491
450.3414
450.3484
450.3619
450.3768
450.3899
450.3994
450.4043
450.4042
450.399
450.3889
450.3739
450.3543
450.3301
450.3016
450.2687
450.2316
450.19
450.144
450.0933
450.0374
449.976
449.9084
449.8333
449.7488
449.6527
449.5428
449.417
449.273
449.1076
448.9173
448.6983
448.4461
448.1558
447.8226
447.4417
447.0092
446.524
445.9894
445.4147
444.8133
444.193
443.5355
442.8107
441.9946
441.0441
439.8712
438.2593
435.5103
427.9831
487.9881
465.5746
458.0043
454.4017
452.5943
451.6538
451.1309
450.8237
450.6429
450.5406
450.4866
450.4616
450.4528
450.4522
450.4546
450.4566
450.4564
450.4529
450.4455
450.434
450.4185
450.3989
450.3754
450.3479
450.3167
450.2815
450.2424
450.1993
450.1519
450.1
450.0432
449.9812
449.913
449.8375
449.7528
449.6565
449.5467
449.4213
449.2778
449.113
448.9235
448.7052
448.4538
448.1645
447.8322
447.4521
447.0205
446.5362
446.0025
445.4288
444.8285
444.2095
443.553
442.829
442.0138
441.0645
439.8929
438.2827
435.5358
428.0108
488.5096
466.0285
458.3972
454.7319
452.8712
451.8911
451.3418
451.0125
450.8107
450.6887
450.6166
450.575
450.5514
450.5375
450.528
450.5196
450.5103
450.4988
450.4845
450.467
450.4463
450.4224
450.3952
450.3647
450.3309
450.2936
450.2527
450.2081
450.1594
450.1065
450.049
449.9863
449.9177
449.8418
449.7567
449.6604
449.5508
449.4258
449.2828
449.1187
448.9299
448.7125
448.4619
448.1735
447.8421
447.4629
447.0322
446.5487
446.0159
445.4431
444.844
444.2262
443.5707
442.8475
442.0332
441.0851
439.9148
438.3062
435.5614
428.0389
489.0225
466.472
458.7806
455.053
453.1384
452.1181
451.5422
451.1917
450.9697
450.829
450.7397
450.6824
450.6447
450.6182
450.5976
450.5793
450.5613
450.5422
450.5213
450.4982
450.4727
450.4446
450.4139
450.3805
450.3442
450.3049
450.2624
450.2164
450.1667
450.1129
450.0546
449.9914
449.9223
449.8461
449.7608
449.6644
449.5551
449.4305
449.2881
449.1247
448.9366
448.72
448.4704
448.1828
447.8523
447.4741
447.0443
446.5616
446.0296
445.4578
444.8597
444.243
443.5885
442.8661
442.0528
441.1057
439.9367
438.3298
435.5871
428.067
489.5277
466.9051
459.1544
455.3654
453.3972
452.3369
451.7326
451.3608
451.1202
450.9619
450.8563
450.7843
450.7333
450.6948
450.6636
450.6359
450.6097
450.5834
450.5562
450.5277
450.4975
450.4655
450.4314
450.3953
450.3567
450.3156
450.2716
450.2244
450.1736
450.1191
450.0602
449.9964
449.9269
449.8504
449.7649
449.6686
449.5595
449.4354
449.2936
449.1308
448.9436
448.7278
448.479
448.1924
447.8628
447.4855
447.0565
446.5747
446.0435
445.4726
444.8755
444.2599
443.6063
442.8848
442.0723
441.1264
439.9587
438.3534
435.6129
428.095
490.0226
467.3274
459.5182
455.6691
453.6482
452.5476
451.914
451.5213
451.263
451.0881
450.9672
450.8812
450.8175
450.7677
450.7264
450.6898
450.6556
450.6225
450.5893
450.5556
450.5209
450.4851
450.4479
450.4091
450.3684
450.3255
450.2801
450.2318
450.1803
450.125
450.0656
450.0014
449.9314
449.8546
449.7691
449.6728
449.5641
449.4404
449.2992
449.1372
448.9507
448.7358
448.4879
448.2022
447.8736
447.4972
447.069
446.588
446.0576
445.4875
444.8915
444.2769
443.6242
442.9035
442.092
441.1471
439.9808
438.3771
435.6386
428.1229
490.5027
467.7375
459.8717
455.9644
453.8915
452.7505
452.0873
451.6741
451.3989
451.2082
451.0727
450.9735
450.8977
450.8372
450.7862
450.741
450.6994
450.6596
450.6206
450.5819
450.543
450.5036
450.4634
450.4221
450.3793
450.3348
450.2881
450.2389
450.1866
450.1308
450.0709
450.0062
449.9359
449.8589
449.7734
449.6773
449.5688
449.4457
449.305
449.1437
448.9581
448.744
448.497
448.2122
447.8846
447.509
447.0817
446.6014
446.0718
445.5025
444.9075
444.2939
443.6421
442.9222
442.1117
441.1679
440.0029
438.4008
435.6644
428.1505
490.9614
468.135
460.2148
456.2514
454.1276
452.9465
452.2537
451.8197
451.5282
451.3226
451.1734
451.0615
450.9743
450.9035
450.8432
450.7899
450.741
450.6948
450.6503
450.6069
450.5639
450.521
450.4779
450.4341
450.3895
450.3434
450.2956
450.2454
450.1925
450.1362
450.0758
450.0108
449.9404
449.8633
449.7778
449.6819
449.5737
449.4511
449.311
449.1504
448.9656
448.7524
448.5063
448.2224
447.8957
447.521
447.0945
446.615
446.0861
445.5176
444.9236
444.311
443.66
442.9409
442.1313
441.1887
440.025
438.4246
435.6901
428.1776
491.489
468.521
460.5473
456.53
454.3568
453.1364
452.4145
451.9589
451.6512
451.4318
451.2695
451.1457
451.0476
450.9668
450.8977
450.8365
450.7806
450.7283
450.6785
450.6304
450.5835
450.5373
450.4914
450.4454
450.3989
450.3514
450.3025
450.2516
450.198
450.1412
450.0806
450.0154
449.9448