/*--------------------------------*- C++ -*----------------------------------*\
| =========                 |                                                 |
| \\      /  F ield         | OpenFOAM: The Open Source CFD Toolbox           |
|  \\    /   O peration     | Version:  2312                                  |
|   \\  /    A nd           | Website:  www.openfoam.com                      |
|    \\/     M anipulation  |                                                 |
\*---------------------------------------------------------------------------*/
FoamFile
{
    version     2.0;
    format      ascii;
    arch        "LSB;label=32;scalar=64";
    class       volVectorField;
    location    "4800";
    object      U;
}
// * * * * * * * * * * * * * * * * * * * * * * * * * * * * * * * * * * * * * //

dimensions      [0 1 -1 0 0 0 0];

internalField   nonuniform List<vector> 
12000
(
(-0.02792822 0.06012959 0)
(-0.06244158 0.04978792 0)
(-0.09884811 0.05986944 0)
(-0.1416607 0.07914766 0)
(-0.1878283 0.08809875 0)
(-0.2353075 0.07031158 0)
(-0.2736672 0.04313917 0)
(-0.3059509 0.05302945 0)
(-0.343064 0.09416673 0)
(-0.3887753 0.09117513 0)
(-0.4256616 0.03279881 0)
(-0.4450665 0.008795964 0)
(-0.4673149 0.05561392 0)
(-0.5029496 0.08660096 0)
(-0.5361196 0.04493451 0)
(-0.5536035 -0.0006593522 0)
(-0.5657973 0.02129526 0)
(-0.5886777 0.06099182 0)
(-0.6143846 0.04279994 0)
(-0.6287077 0.00231668 0)
(-0.6368444 0.01113462 0)
(-0.6520067 0.04111856 0)
(-0.6695436 0.02754039 0)
(-0.6781497 -0.002412948 0)
(-0.6827136 0.007984658 0)
(-0.6932771 0.03025369 0)
(-0.7044884 0.01563289 0)
(-0.7081105 -0.007295547 0)
(-0.7089899 -0.0003674009 0)
(-0.7132368 0.0114693 0)
(-0.7174577 0.005482741 0)
(-0.7183005 -0.0003666484 0)
(-0.7181613 -0.008185731 0)
(-0.7148235 -0.01573315 0)
(-0.7096115 -0.007068558 0)
(-0.708616 0.008404995 0)
(-0.7089137 0.006059957 0)
(-0.7042717 -0.02081476 0)
(-0.6913568 -0.04915715 0)
(-0.6744492 -0.02046083 0)
(-0.670798 0.02380094 0)
(-0.6716563 0.02248805 0)
(-0.6632087 -0.03699591 0)
(-0.6380975 -0.1048077 0)
(-0.60412 -0.04966675 0)
(-0.5963212 0.04594014 0)
(-0.5937743 0.04146725 0)
(-0.5786215 -0.08149528 0)
(-0.5355761 -0.1315114 0)
(-0.497051 -0.02574081 0)
(-0.4869379 0.03842567 0)
(-0.466461 -0.05591257 0)
(-0.4184609 -0.1222494 0)
(-0.3741434 -0.07069575 0)
(-0.3384045 -0.0436327 0)
(-0.2951552 -0.07396794 0)
(-0.2389106 -0.107902 0)
(-0.1778723 -0.1038642 0)
(-0.1004394 -0.1098499 0)
(-0.0408309 -0.1032155 0)
(-0.02957875 0.1864647 0)
(-0.06100752 0.1677629 0)
(-0.1102438 0.16745 0)
(-0.1460065 0.1737784 0)
(-0.1815231 0.1784047 0)
(-0.2137055 0.1753669 0)
(-0.2506019 0.160221 0)
(-0.2883421 0.1465602 0)
(-0.3189097 0.1427876 0)
(-0.3395711 0.1421316 0)
(-0.362448 0.1283828 0)
(-0.3957237 0.1124503 0)
(-0.4241471 0.1105211 0)
(-0.4390335 0.1104129 0)
(-0.4518443 0.09972912 0)
(-0.4742546 0.08595664 0)
(-0.4986252 0.08020177 0)
(-0.5122983 0.07829545 0)
(-0.5200297 0.07184942 0)
(-0.533873 0.06203108 0)
(-0.5511254 0.05615911 0)
(-0.5610609 0.05299898 0)
(-0.5660108 0.04744599 0)
(-0.5753526 0.04024835 0)
(-0.5867053 0.0357565 0)
(-0.591875 0.03260232 0)
(-0.5936519 0.02710876 0)
(-0.5990198 0.02033419 0)
(-0.6055238 0.0156141 0)
(-0.6075376 0.01310513 0)
(-0.6077039 0.008988368 0)
(-0.6081838 0.004266189 0)
(-0.6085174 -0.003355271 0)
(-0.6086603 -0.007497573 0)
(-0.6083935 -0.01037322 0)
(-0.6036739 -0.01453729 0)
(-0.594838 -0.01980317 0)
(-0.5872533 -0.02767031 0)
(-0.5851469 -0.03478909 0)
(-0.5828263 -0.03905902 0)
(-0.570828 -0.04203272 0)
(-0.5489269 -0.04721851 0)
(-0.5299788 -0.05681765 0)
(-0.5275167 -0.06372447 0)
(-0.5268437 -0.06997582 0)
(-0.507613 -0.07655683 0)
(-0.4698095 -0.0820193 0)
(-0.4444998 -0.09271933 0)
(-0.4412051 -0.102769 0)
(-0.4299593 -0.1129531 0)
(-0.3921127 -0.1233051 0)
(-0.3526964 -0.1371763 0)
(-0.335507 -0.1473308 0)
(-0.3144976 -0.1590114 0)
(-0.2826332 -0.1757493 0)
(-0.2260675 -0.2157946 0)
(-0.2009633 -0.2284377 0)
(-0.1467598 -0.2801002 0)
(-0.0905016 -0.3040334 0)
(-0.04311248 -0.3144364 0)
(-0.02510214 0.3118396 0)
(-0.04949477 0.2932635 0)
(-0.08998416 0.2875626 0)
(-0.1201848 0.2833667 0)
(-0.1517145 0.2762719 0)
(-0.1783909 0.2654965 0)
(-0.2048741 0.2526715 0)
(-0.2322917 0.242408 0)
(-0.2555517 0.2343794 0)
(-0.2799653 0.2165581 0)
(-0.3038417 0.1975133 0)
(-0.3277854 0.1824345 0)
(-0.3489265 0.1715752 0)
(-0.3660234 0.160809 0)
(-0.3814737 0.1480751 0)
(-0.3974164 0.1357627 0)
(-0.4130452 0.1256523 0)
(-0.4265778 0.116296 0)
(-0.4384053 0.1060998 0)
(-0.4499761 0.09582235 0)
(-0.4611723 0.08691739 0)
(-0.4708826 0.07879204 0)
(-0.4792319 0.07013555 0)
(-0.4870965 0.06141668 0)
(-0.4943025 0.0537269 0)
(-0.5001054 0.04648223 0)
(-0.5047427 0.03859907 0)
(-0.5089092 0.03049998 0)
(-0.5124332 0.0230405 0)
(-0.5145925 0.01611525 0)
(-0.5158574 0.008928053 0)
(-0.5160664 0.003285043 0)
(-0.5154145 -0.006274308 0)
(-0.5141199 -0.01419554 0)
(-0.5114949 -0.02156883 0)
(-0.507578 -0.0288037 0)
(-0.5024493 -0.03661761 0)
(-0.4965773 -0.04550536 0)
(-0.4902961 -0.05483159 0)
(-0.4830224 -0.06348826 0)
(-0.4740309 -0.07185253 0)
(-0.4632962 -0.08130186 0)
(-0.4517559 -0.09205447 0)
(-0.4395313 -0.1037755 0)
(-0.4260744 -0.1143713 0)
(-0.4107879 -0.1249561 0)
(-0.3932767 -0.1371732 0)
(-0.3747261 -0.1505008 0)
(-0.3553467 -0.1643099 0)
(-0.3340953 -0.1769168 0)
(-0.3107259 -0.1889066 0)
(-0.2908359 -0.1993741 0)
(-0.2600561 -0.2213815 0)
(-0.2371812 -0.2399473 0)
(-0.1968523 -0.2808155 0)
(-0.1696589 -0.307588 0)
(-0.1337027 -0.3431309 0)
(-0.1012216 -0.3850386 0)
(-0.06047566 -0.4348918 0)
(-0.02499643 -0.4557371 0)
(-0.0188551 0.4011505 0)
(-0.04121519 0.3748775 0)
(-0.0701733 0.3670657 0)
(-0.09458431 0.3580631 0)
(-0.1195658 0.3461228 0)
(-0.1419822 0.3311436 0)
(-0.1640935 0.3149117 0)
(-0.1860414 0.2999045 0)
(-0.2041779 0.2874868 0)
(-0.2234526 0.2752903 0)
(-0.2395212 0.2623006 0)
(-0.2567196 0.2450443 0)
(-0.2771298 0.222109 0)
(-0.2933905 0.2054397 0)
(-0.3087035 0.1910574 0)
(-0.323293 0.1773872 0)
(-0.3372819 0.1641468 0)
(-0.3502152 0.1513325 0)
(-0.3618359 0.1390276 0)
(-0.3725963 0.1270753 0)
(-0.3825291 0.1155494 0)
(-0.3914385 0.1044103 0)
(-0.3993698 0.09348314 0)
(-0.4064909 0.08273793 0)
(-0.4127694 0.0722552 0)
(-0.4180579 0.06197504 0)
(-0.4224 0.05175081 0)
(-0.4259406 0.04155843 0)
(-0.4285189 0.0314716 0)
(-0.4306642 0.02140693 0)
(-0.4317759 0.01361966 0)
(-0.4317307 0.002084495 0)
(-0.4306829 -0.008707359 0)
(-0.4290984 -0.01919257 0)
(-0.4265193 -0.02969727 0)
(-0.4229861 -0.04031234 0)
(-0.4184403 -0.05129345 0)
(-0.41295 -0.06263742 0)
(-0.4066329 -0.0743185 0)
(-0.3994029 -0.0862827 0)
(-0.3910578 -0.09858487 0)
(-0.3815242 -0.1113463 0)
(-0.3709654 -0.1246723 0)
(-0.359297 -0.1386646 0)
(-0.3470489 -0.1530015 0)
(-0.3336744 -0.1684159 0)
(-0.318698 -0.1849038 0)
(-0.302777 -0.2023656 0)
(-0.2857777 -0.2206174 0)
(-0.2664983 -0.2368914 0)
(-0.2509801 -0.2493938 0)
(-0.2238587 -0.2794309 0)
(-0.2004739 -0.3069048 0)
(-0.1735957 -0.3348819 0)
(-0.1483937 -0.362441 0)
(-0.1235368 -0.39251 0)
(-0.09696007 -0.428547 0)
(-0.07082641 -0.4728831 0)
(-0.04206465 -0.5242452 0)
(-0.01670218 -0.5506238 0)
(-0.0145069 0.4792691 0)
(-0.03437421 0.447964 0)
(-0.05714398 0.4361306 0)
(-0.07725207 0.4239485 0)
(-0.09741018 0.4092984 0)
(-0.1163362 0.392345 0)
(-0.1350869 0.3738366 0)
(-0.153188 0.3547573 0)
(-0.1696579 0.3354337 0)
(-0.1854686 0.3155007 0)
(-0.1990216 0.2993229 0)
(-0.2129668 0.284671 0)
(-0.2245425 0.2707578 0)
(-0.2398603 0.2506517 0)
(-0.2531049 0.2314843 0)
(-0.2649038 0.2162268 0)
(-0.2764023 0.2014316 0)
(-0.2876874 0.185057 0)
(-0.2974144 0.1694425 0)
(-0.3065783 0.1545642 0)
(-0.314979 0.1403028 0)
(-0.3225394 0.1264927 0)
(-0.3292961 0.1130068 0)
(-0.3352712 0.09978253 0)
(-0.3404707 0.08679122 0)
(-0.3448818 0.07398142 0)
(-0.3485156 0.06128417 0)
(-0.3513565 0.04865599 0)
(-0.3535638 0.03606759 0)
(-0.3548864 0.02600059 0)
(-0.3553838 0.01261036 0)
(-0.3548776 -0.000222413 0)
(-0.3539376 -0.01305746 0)
(-0.3521998 -0.02586212 0)
(-0.3495517 -0.0387762 0)
(-0.3463636 -0.051771 0)
(-0.3424995 -0.06519951 0)
(-0.3376315 -0.07902807 0)
(-0.3319495 -0.09321232 0)
(-0.3254336 -0.1077906 0)
(-0.3180644 -0.1228312 0)
(-0.3098065 -0.1384362 0)
(-0.3008906 -0.1547051 0)
(-0.2903139 -0.171706 0)
(-0.2803976 -0.1862466 0)
(-0.2678316 -0.2058185 0)
(-0.2555621 -0.2253164 0)
(-0.2414917 -0.244245 0)
(-0.2289181 -0.2612071 0)
(-0.2132443 -0.2831142 0)
(-0.1942081 -0.3113135 0)
(-0.17526 -0.3387885 0)
(-0.1567982 -0.3650993 0)
(-0.1377975 -0.3927093 0)
(-0.1180557 -0.4232044 0)
(-0.09739639 -0.4572723 0)
(-0.07590085 -0.4959299 0)
(-0.05463948 -0.5406467 0)
(-0.03235308 -0.5938461 0)
(-0.01206182 -0.6239476 0)
(-0.01094345 0.5412577 0)
(-0.027481 0.5060119 0)
(-0.04511486 0.4901304 0)
(-0.06102048 0.4750998 0)
(-0.07674343 0.4582718 0)
(-0.09163573 0.4397514 0)
(-0.1061939 0.420127 0)
(-0.1203482 0.399962 0)
(-0.1339815 0.3796533 0)
(-0.1474665 0.3591605 0)
(-0.1603703 0.3391464 0)
(-0.1719719 0.3195826 0)
(-0.1837252 0.3006566 0)
(-0.1921618 0.2846585 0)
(-0.2039017 0.2647886 0)
(-0.213794 0.2458055 0)
(-0.2231894 0.2280557 0)
(-0.231753 0.2107453 0)
(-0.2398621 0.1937273 0)
(-0.2474348 0.1771212 0)
(-0.2543754 0.1609432 0)
(-0.2606574 0.1451357 0)
(-0.2662746 0.1296468 0)
(-0.2712291 0.114431 0)
(-0.2755237 0.09945108 0)
(-0.279159 0.08467062 0)
(-0.282141 0.07005508 0)
(-0.2844695 0.05557476 0)
(-0.2862475 0.04119172 0)
(-0.2870953 0.02693597 0)
(-0.2870273 0.01257332 0)
(-0.2867727 -0.001909386 0)
(-0.2860514 -0.01671323 0)
(-0.2845802 -0.03173456 0)
(-0.2822734 -0.04700342 0)
(-0.2796295 -0.06011302 0)
(-0.2759299 -0.07651638 0)
(-0.2717591 -0.09278579 0)
(-0.2668445 -0.1092176 0)
(-0.2612605 -0.1259863 0)
(-0.2549803 -0.143199 0)
(-0.2479988 -0.1609379 0)
(-0.2403222 -0.1792742 0)
(-0.2320307 -0.1981831 0)
(-0.2228307 -0.2181317 0)
(-0.2124298 -0.2389631 0)
(-0.2021467 -0.2589056 0)
(-0.1920133 -0.2791882 0)
(-0.1783254 -0.3045615 0)
(-0.1645596 -0.3312332 0)
(-0.1502008 -0.3580967 0)
(-0.1359494 -0.3854142 0)
(-0.1211441 -0.4139452 0)
(-0.1056034 -0.4443264 0)
(-0.08945887 -0.4768338 0)
(-0.07294693 -0.5120245 0)
(-0.05627875 -0.5508577 0)
(-0.03993669 -0.5949174 0)
(-0.023484 -0.6456256 0)
(-0.008474179 -0.675615 0)
(-0.008333056 0.5898485 0)
(-0.02190674 0.5518539 0)
(-0.03561221 0.5325769 0)
(-0.04814396 0.5151909 0)
(-0.06040181 0.4965526 0)
(-0.07205992 0.4765732 0)
(-0.08340281 0.4556903 0)
(-0.09441447 0.434302 0)
(-0.1050931 0.4127558 0)
(-0.1154932 0.3912518 0)
(-0.1255855 0.3701362 0)
(-0.1352555 0.3494224 0)
(-0.1443327 0.3288234 0)
(-0.153714 0.3089023 0)
(-0.1601471 0.2914977 0)
(-0.1691187 0.2713877 0)
(-0.1764902 0.2517156 0)
(-0.1836766 0.2326459 0)
(-0.1902848 0.213974 0)
(-0.1964 0.1957086 0)
(-0.2019907 0.1778201 0)
(-0.2070478 0.1602753 0)
(-0.211564 0.1430379 0)
(-0.2155367 0.1260715 0)
(-0.218965 0.1093402 0)
(-0.2218488 0.09280746 0)
(-0.2241882 0.076435 0)
(-0.2259811 0.06018158 0)
(-0.2272336 0.04400033 0)
(-0.2279301 0.02787637 0)
(-0.2279791 0.01162125 0)
(-0.2277553 -0.002594981 0)
(-0.2271487 -0.01948963 0)
(-0.2259368 -0.03624573 0)
(-0.2243045 -0.05299438 0)
(-0.2218922 -0.0699103 0)
(-0.2187892 -0.08725111 0)
(-0.2153696 -0.1049123 0)
(-0.2114234 -0.1229626 0)
(-0.2069509 -0.141456 0)
(-0.2019262 -0.1604537 0)
(-0.1963301 -0.1800105 0)
(-0.1901455 -0.2001641 0)
(-0.1835452 -0.2210127 0)
(-0.1756619 -0.2422329 0)
(-0.168703 -0.262813 0)
(-0.1598705 -0.2858478 0)
(-0.1496318 -0.3117931 0)
(-0.139243 -0.3381824 0)
(-0.1284661 -0.3650797 0)
(-0.1174447 -0.3929792 0)
(-0.1060222 -0.4219019 0)
(-0.09414915 -0.4519872 0)
(-0.08189111 -0.4834833 0)
(-0.06934153 -0.5167482 0)
(-0.05659607 -0.5523189 0)
(-0.0437401 -0.5910865 0)
(-0.03108919 -0.6346602 0)
(-0.01837422 -0.6850622 0)
(-0.006514562 -0.7158976 0)
(-0.006415051 0.6289287 0)
(-0.01717005 0.588762 0)
(-0.02749248 0.5662744 0)
(-0.036992 0.5467203 0)
(-0.04624986 0.5265846 0)
(-0.0551193 0.5055325 0)
(-0.06379624 0.483814 0)
(-0.07227676 0.4617118 0)
(-0.0805718 0.439472 0)
(-0.08867592 0.4172505 0)
(-0.09655516 0.3951924 0)
(-0.1041518 0.3733708 0)
(-0.1114618 0.3518084 0)
(-0.1182498 0.3304471 0)
(-0.1254268 0.3096636 0)
(-0.1300732 0.2908695 0)
(-0.1366812 0.2702583 0)
(-0.1420309 0.2498479 0)
(-0.1472822 0.2299346 0)
(-0.1520871 0.2103852 0)
(-0.1564919 0.1911856 0)
(-0.160477 0.1723059 0)
(-0.1640376 0.1537191 0)
(-0.16717 0.1353967 0)
(-0.169873 0.1173084 0)
(-0.1721478 0.09942115 0)
(-0.1739966 0.08169945 0)
(-0.1754223 0.06410445 0)
(-0.1764302 0.04659311 0)
(-0.1770221 0.02912296 0)
(-0.1772169 0.01164235 0)
(-0.1769731 -0.004096147 0)
(-0.1762732 -0.02208591 0)
(-0.1752518 -0.04008037 0)
(-0.1738273 -0.05816748 0)
(-0.1719742 -0.07640799 0)
(-0.1697032 -0.09500611 0)
(-0.1670366 -0.1139595 0)
(-0.1639518 -0.1333373 0)
(-0.1604418 -0.1532001 0)
(-0.1564959 -0.1736126 0)
(-0.1520824 -0.1946345 0)
(-0.1473953 -0.2163205 0)
(-0.1416236 -0.2386345 0)
(-0.1367148 -0.260915 0)
(-0.1295412 -0.2856424 0)
(-0.1223951 -0.3114776 0)
(-0.1146727 -0.337911 0)
(-0.1067808 -0.365022 0)
(-0.09852153 -0.3929757 0)
(-0.08990611 -0.4218311 0)
(-0.08095825 -0.4516775 0)
(-0.07170347 -0.4826545 0)
(-0.06218466 -0.5149637 0)
(-0.05246271 -0.5488992 0)
(-0.04262017 -0.5849284 0)
(-0.03274738 -0.6238304 0)
(-0.02304761 -0.6669691 0)
(-0.01353404 -0.7158294 0)
(-0.004693642 -0.7459047 0)
(-0.004884446 0.659021 0)
(-0.01322982 0.616336 0)
(-0.02084692 0.591029 0)
(-0.02790247 0.5698449 0)
(-0.03472952 0.5487448 0)
(-0.04128055 0.5270775 0)
(-0.04768977 0.5049058 0)
(-0.05396837 0.4823926 0)
(-0.06012931 0.4597127 0)
(-0.06616459 0.4370056 0)
(-0.07205719 0.4143806 0)
(-0.0777809 0.3919065 0)
(-0.08331703 0.3696264 0)
(-0.08865956 0.3475784 0)
(-0.09359493 0.3257061 0)
(-0.09888611 0.304332 0)
(-0.1021416 0.2844405 0)
(-0.1069132 0.2633919 0)
(-0.1106989 0.2424568 0)
(-0.1144165 0.221911 0)
(-0.1177874 0.20167 0)
(-0.1208444 0.1817278 0)
(-0.1235742 0.1620651 0)
(-0.1259755 0.1426609 0)
(-0.128048 0.1234917 0)
(-0.1297942 0.10453 0)
(-0.1312176 0.08574441 0)
(-0.1323228 0.06709986 0)
(-0.1331151 0.04855657 0)
(-0.1335975 0.03007132 0)
(-0.133796 0.01159757 0)
(-0.1336194 -0.005454985 0)
(-0.1330743 -0.02430143 0)
(-0.1323064 -0.0432314 0)
(-0.1312466 -0.06231557 0)
(-0.1298871 -0.08162675 0)
(-0.128223 -0.1012469 0)
(-0.1262575 -0.1212414 0)
(-0.1239821 -0.1416791 0)
(-0.1213903 -0.1626232 0)
(-0.1184741 -0.1841284 0)
(-0.1152424 -0.2062282 0)
(-0.111505 -0.2289407 0)
(-0.1078669 -0.2521678 0)
(-0.1029608 -0.2769891 0)
(-0.09807411 -0.3026549 0)
(-0.09276952 -0.3290386 0)
(-0.0871866 -0.3563149 0)
(-0.08127357 -0.3844317 0)
(-0.07502057 -0.4133973 0)
(-0.06844848 -0.443229 0)
(-0.06158779 -0.4739631 0)
(-0.05448176 -0.5056772 0)
(-0.0471843 -0.5385179 0)
(-0.03975792 -0.5727371 0)
(-0.03227408 -0.608767 0)
(-0.0248036 -0.6473694 0)
(-0.01748196 -0.6899273 0)
(-0.01031446 -0.7380958 0)
(-0.003561055 -0.7683048 0)
(-0.003399026 0.6828817 0)
(-0.009768375 0.6379861 0)
(-0.01550541 0.6101577 0)
(-0.02046556 0.587339 0)
(-0.02518655 0.5651908 0)
(-0.02971459 0.542824 0)
(-0.03417356 0.5201529 0)
(-0.0385848 0.4972603 0)
(-0.04296152 0.4742544 0)
(-0.04729237 0.451229 0)
(-0.05155679 0.4282597 0)
(-0.05572812 0.4054013 0)
(-0.05978107 0.382689 0)
(-0.06369573 0.3601474 0)
(-0.06746611 0.3378017 0)
(-0.0709118 0.3156023 0)
(-0.07465994 0.2938279 0)
(-0.07680771 0.2731228 0)
(-0.08009501 0.2517284 0)
(-0.08262441 0.230422 0)
(-0.0851244 0.2094337 0)
(-0.08737539 0.1887087 0)
(-0.08939465 0.1682525 0)
(-0.09117479 0.1480549 0)
(-0.09271631 0.1280997 0)
(-0.09402248 0.1083639 0)
(-0.09509788 0.08881802 0)
(-0.09594783 0.06942683 0)
(-0.09657779 0.05014982 0)
(-0.09698876 0.03094207 0)
(-0.09721126 0.01175558 0)
(-0.0971422 -0.006362733 0)
(-0.09679614 -0.02580698 0)
(-0.09630346 -0.04537105 0)
(-0.09561432 -0.06511787 0)
(-0.09472844 -0.08511353 0)
(-0.09363914 -0.1054298 0)
(-0.09234189 -0.1261361 0)
(-0.09083002 -0.1473024 0)
(-0.08909539 -0.1689988 0)
(-0.08712134 -0.1912964 0)
(-0.08489894 -0.2142747 0)
(-0.08238985 -0.2380292 0)
(-0.07951569 -0.2627732 0)
(-0.07630301 -0.2884542 0)
(-0.07283274 -0.3149666 0)
(-0.06905293 -0.3423543 0)
(-0.06496225 -0.3705867 0)
(-0.06055605 -0.3996325 0)
(-0.05585067 -0.4294653 0)
(-0.05087806 -0.4600656 0)
(-0.04568112 -0.4914493 0)
(-0.04030707 -0.5236887 0)
(-0.03480665 -0.5569266 0)
(-0.02923319 -0.5914119 0)
(-0.02364025 -0.6275708 0)
(-0.01808419 -0.6661334 0)
(-0.01265171 -0.7083777 0)
(-0.007414536 -0.7556974 0)
(-0.002514536 -0.7853498 0)
(-0.002279117 0.7012869 0)
(-0.006820845 0.6531125 0)
(-0.01065513 0.6226369 0)
(-0.01392538 0.5984764 0)
(-0.01700304 0.5757394 0)
(-0.01998129 0.5532006 0)
(-0.0229233 0.530553 0)
(-0.02584175 0.507737 0)
(-0.02873686 0.4847747 0)
(-0.03159966 0.4617124 0)
(-0.03442067 0.4386028 0)
(-0.03720453 0.4154977 0)
(-0.03996288 0.3924532 0)
(-0.04268646 0.3695186 0)
(-0.04535053 0.3467292 0)
(-0.04793791 0.3241122 0)
(-0.05028355 0.3016264 0)
(-0.05287967 0.2795138 0)
(-0.05423432 0.2582088 0)
(-0.05641275 0.2366378 0)
(-0.05798228 0.2151752 0)
(-0.0595275 0.1939273 0)
(-0.06088393 0.1729166 0)
(-0.06207668 0.1521518 0)
(-0.06311029 0.13163 0)
(-0.06399824 0.1113373 0)
(-0.06475003 0.09124901 0)
(-0.06537086 0.0713311 0)
(-0.06586431 0.05154265 0)
(-0.06622762 0.03183739 0)
(-0.06648878 0.01216431 0)
(-0.06654703 -0.006763234 0)
(-0.06641562 -0.02661392 0)
(-0.06619869 -0.04660184 0)
(-0.06585788 -0.06678939 0)
(-0.06539138 -0.0872424 0)
(-0.064791 -0.1080313 0)
(-0.06404912 -0.1292295 0)
(-0.0631566 -0.1509143 0)
(-0.06210269 -0.1731664 0)
(-0.06087566 -0.1960707 0)
(-0.05945661 -0.2197196 0)
(-0.05783968 -0.2442055 0)
(-0.05601551 -0.2696553 0)
(-0.05400884 -0.2961004 0)
(-0.05179755 -0.3234141 0)
(-0.049331 -0.3515907 0)
(-0.04657144 -0.380645 0)
(-0.04350156 -0.4105087 0)
(-0.04014312 -0.4410866 0)
(-0.03654423 -0.4723145 0)
(-0.03276399 -0.5041938 0)
(-0.028855 -0.5367774 0)
(-0.02486717 -0.570197 0)
(-0.02084548 -0.6047017 0)
(-0.01683284 -0.6407135 0)
(-0.0128704 -0.6789606 0)
(-0.009012171 -0.7207264 0)
(-0.005304713 -0.7674505 0)
(-0.001805984 -0.79711 0)
(-0.002191687 0.7138482 0)
(-0.005503883 0.6640131 0)
(-0.007909599 0.6316828 0)
(-0.009900305 0.6065209 0)
(-0.01162501 0.5831716 0)
(-0.01320171 0.5601757 0)
(-0.01472821 0.5371448 0)
(-0.01625084 0.5139896 0)
(-0.01779985 0.4907253 0)
(-0.01938817 0.4674146 0)
(-0.02101677 0.4441774 0)
(-0.02267398 0.4211421 0)
(-0.02433381 0.3982678 0)
(-0.0259748 0.3754632 0)
(-0.02758656 0.3526966 0)
(-0.02916032 0.3299593 0)
(-0.03069106 0.307282 0)
(-0.03204925 0.2846575 0)
(-0.033513 0.2623074 0)
(-0.03428806 0.2404021 0)
(-0.0352827 0.2185156 0)
(-0.03611152 0.1968468 0)
(-0.03691276 0.1754319 0)
(-0.03766153 0.1542982 0)
(-0.0383468 0.1334769 0)
(-0.03895865 0.1129481 0)
(-0.03950144 0.0926495 0)
(-0.03997841 0.07253007 0)
(-0.04039445 0.05253552 0)
(-0.04074825 0.03261635 0)
(-0.04106795 0.01271929 0)
(-0.04126583 -0.00673333 0)
(-0.04135255 -0.02679672 0)
(-0.04140809 -0.04702145 0)
(-0.04139963 -0.0674705 0)
(-0.04132382 -0.08821184 0)
(-0.04117188 -0.1093173 0)
(-0.04093481 -0.1308617 0)
(-0.04060311 -0.1529227 0)
(-0.04016671 -0.1755801 0)
(-0.03961592 -0.1989154 0)
(-0.03893095 -0.2230086 0)
(-0.03816283 -0.2479405 0)
(-0.03714559 -0.2737524 0)
(-0.03609837 -0.3004601 0)
(-0.03501235 -0.3282425 0)
(-0.03355826 -0.35723 0)
(-0.03189112 -0.3871839 0)
(-0.02988073 -0.4179232 0)
(-0.02757321 -0.4492648 0)
(-0.0250466 -0.4810668 0)
(-0.02240069 -0.5133402 0)
(-0.01967569 -0.5461809 0)
(-0.01691074 -0.5797509 0)
(-0.01413658 -0.6143201 0)
(-0.01137958 -0.6503272 0)
(-0.008666646 -0.6885016 0)
(-0.006029399 -0.7300945 0)
(-0.003519862 -0.7764329 0)
(-0.001174068 -0.8058916 0)
(-0.0009134425 0.7248278 0)
(-0.002761565 0.6718089 0)
(-0.003450691 0.6367515 0)
(-0.003812853 0.6098178 0)
(-0.00393449 0.5856858 0)
(-0.004064883 0.5625019 0)
(-0.004267461 0.5396498 0)
(-0.004596421 0.5168938 0)
(-0.005070792 0.4941433 0)
(-0.005653364 0.4713473 0)
(-0.006613699 0.448399 0)
(-0.007322373 0.4252524 0)
(-0.008164881 0.4020613 0)
(-0.009133962 0.3789169 0)
(-0.01013172 0.3558557 0)
(-0.01113004 0.332938 0)
(-0.01204916 0.3100887 0)
(-0.01282663 0.287226 0)
(-0.0135516 0.2644696 0)
(-0.01396832 0.2421334 0)
(-0.01451663 0.2202754 0)
(-0.0150098 0.1987688 0)
(-0.01555258 0.1775093 0)
(-0.01608262 0.1564329 0)
(-0.01670018 0.1355054 0)
(-0.01721487 0.1147677 0)
(-0.0177542 0.09426025 0)
(-0.01828241 0.07395103 0)
(-0.01880707 0.05379742 0)
(-0.01931171 0.03375139 0)
(-0.01982046 0.01375299 0)
(-0.02025984 -0.00602713 0)
(-0.02064517 -0.0261555 0)
(-0.02104529 -0.04647128 0)
(-0.0214233 -0.0670304 0)
(-0.0217801 -0.08789627 0)
(-0.02210855 -0.1091468 0)
(-0.02240265 -0.1308584 0)
(-0.02265669 -0.1531112 0)
(-0.02286456 -0.1759886 0)
(-0.02301712 -0.1995785 0)
(-0.02311135 -0.2239664 0)
(-0.0230758 -0.2492261 0)
(-0.02305324 -0.2753797 0)
(-0.0228262 -0.302581 0)
(-0.02214718 -0.3309711 0)
(-0.02146568 -0.3604873 0)
(-0.02055197 -0.3912042 0)
(-0.01921994 -0.4229162 0)
(-0.01767496 -0.454947 0)
(-0.01597611 -0.4871039 0)
(-0.0142119 -0.5195755 0)
(-0.01244213 -0.5525014 0)
(-0.01066361 -0.5860748 0)
(-0.00889412 -0.6205756 0)
(-0.007147187 -0.6564414 0)
(-0.00543839 -0.6944012 0)
(-0.003786079 -0.7357016 0)
(-0.002220728 -0.7816707 0)
(-0.0007571296 -0.8111367 0)
(-0.0004877265 0.7302167 0)
(-0.001634636 0.6739675 0)
(-0.001658689 0.636751 0)
(-0.001430842 0.6093643 0)
(-0.0008232126 0.585059 0)
(-0.0001937551 0.5618851 0)
(0.000509379 0.5391309 0)
(0.001231725 0.5165031 0)
(0.001972022 0.4938616 0)
(0.002620779 0.4711577 0)
(0.003532914 0.4484377 0)
(0.003808917 0.4258976 0)
(0.003942945 0.403446 0)
(0.003817481 0.3810969 0)
(0.003520107 0.3585949 0)
(0.002919487 0.3356585 0)
(0.002484801 0.3123623 0)
(0.001940924 0.2890263 0)
(0.001448146 0.2659117 0)
(0.0007889578 0.2433192 0)
(0.0003979347 0.2213477 0)
(4.439589e-05 0.1997569 0)
(-0.0002047282 0.1784238 0)
(-0.0004338561 0.1573294 0)
(-0.0005367532 0.1364833 0)
(-0.000826505 0.1158925 0)
(-0.001127798 0.09560522 0)
(-0.001503099 0.07549696 0)
(-0.001935201 0.05544513 0)
(-0.002421635 0.03544736 0)
(-0.002969665 0.01547259 0)
(-0.003539381 -0.00447734 0)
(-0.004123858 -0.02456333 0)
(-0.004755465 -0.04484647 0)
(-0.005434144 -0.06541074 0)
(-0.006105465 -0.08630505 0)
(-0.006788897 -0.107598 0)
(-0.007469864 -0.129364 0)
(-0.008145843 -0.1516829 0)
(-0.008819817 -0.1746417 0)
(-0.009489994 -0.1983372 0)
(-0.01014848 -0.222866 0)
(-0.01076665 -0.2483059 0)
(-0.01131645 -0.2748407 0)
(-0.0116944 -0.3026869 0)
(-0.01199882 -0.3317788 0)
(-0.01199737 -0.3621052 0)
(-0.01147399 -0.3937055 0)
(-0.01093882 -0.4260378 0)
(-0.01011555 -0.4585213 0)
(-0.009153191 -0.4908612 0)
(-0.008053748 -0.5233334 0)
(-0.006994988 -0.5562641 0)
(-0.005964007 -0.5898397 0)
(-0.004949694 -0.6243361 0)
(-0.003959052 -0.6601878 0)
(-0.002994541 -0.6981179 0)
(-0.00206544 -0.7393645 0)
(-0.001194158 -0.7852237 0)
(-0.0003975261 -0.8147912 0)
(-0.000502559 0.735604 0)
(-0.0004070693 0.675597 0)
(-0.0003288818 0.636513 0)
(0.0007800003 0.607839 0)
(0.002010455 0.5827593 0)
(0.003400627 0.5591166 0)
(0.004808401 0.5360513 0)
(0.006197517 0.5132342 0)
(0.007513967 0.490577 0)
(0.008747119 0.4681123 0)
(0.009744113 0.4459482 0)
(0.01072909 0.4239489 0)
(0.01152048 0.4021836 0)
(0.01223803 0.3803797 0)
(0.01273974 0.3581847 0)
(0.01345831 0.3355482 0)
(0.01365639 0.312855 0)
(0.01375563 0.2901992 0)
(0.01369607 0.2676132 0)
(0.0134037 0.2450621 0)
(0.01319291 0.2226661 0)
(0.01293784 0.2006494 0)
(0.01270264 0.1790166 0)
(0.01245862 0.1577634 0)
(0.01215993 0.1369359 0)
(0.01188467 0.1164947 0)
(0.01156632 0.09631136 0)
(0.01121749 0.07630496 0)
(0.01082803 0.05643571 0)
(0.0103816 0.03668786 0)
(0.009870667 0.01697599 0)
(0.009295466 -0.002804988 0)
(0.008594422 -0.02263853 0)
(0.007791887 -0.04278487 0)
(0.006926569 -0.06323707 0)
(0.006007411 -0.08405979 0)
(0.005047779 -0.105305 0)
(0.004052598 -0.1270365 0)
(0.003028209 -0.1493188 0)
(0.001982912 -0.1722112 0)
(0.0009259995 -0.1958388 0)
(-0.0001314628 -0.2203762 0)
(-0.00116116 -0.2459579 0)
(-0.002133089 -0.2727234 0)
(-0.003024293 -0.3008544 0)
(-0.003810008 -0.3305384 0)
(-0.004383235 -0.3617409 0)
(-0.004850418 -0.3940511 0)
(-0.004964574 -0.4270185 0)
(-0.004695997 -0.460224 0)
(-0.004246952 -0.4931649 0)
(-0.003705875 -0.5257481 0)
(-0.003150749 -0.558541 0)
(-0.002650948 -0.5919911 0)
(-0.002160348 -0.6263759 0)
(-0.001701433 -0.6621145 0)
(-0.001254608 -0.6999328 0)
(-0.0008429653 -0.7410391 0)
(-0.0004783203 -0.786716 0)
(-0.0001793795 -0.8162968 0)
(-0.0001371897 0.7387958 0)
(-7.647882e-05 0.6754482 0)
(0.0009420949 0.634002 0)
(0.002589384 0.603967 0)
(0.004486659 0.5783655 0)
(0.006489162 0.5545697 0)
(0.008484507 0.5315969 0)
(0.010414 0.509043 0)
(0.01222941 0.4867449 0)
(0.01391151 0.4646404 0)
(0.01544716 0.4426895 0)
(0.01682846 0.4209483 0)
(0.01803308 0.3993806 0)
(0.01907465 0.3776807 0)
(0.02000366 0.3557201 0)
(0.02064288 0.3337135 0)
(0.02127417 0.3115607 0)
(0.02178815 0.2892808 0)
(0.02217216 0.2669808 0)
(0.02265814 0.244773 0)
(0.0227477 0.2228275 0)
(0.02287091 0.2011451 0)
(0.02284494 0.1797832 0)
(0.0227288 0.1587532 0)
(0.02251938 0.1380362 0)
(0.02223387 0.1176252 0)
(0.02187606 0.0975034 0)
(0.02144601 0.07760225 0)
(0.02094015 0.057846 0)
(0.02036586 0.03818529 0)
(0.01972632 0.01859702 0)
(0.01900408 -0.0009057047 0)
(0.01815427 -0.02025517 0)
(0.01713219 -0.04011183 0)
(0.01603843 -0.06035221 0)
(0.01485136 -0.08098803 0)
(0.0136037 -0.1020666 0)
(0.01229817 -0.1236557 0)
(0.01094594 -0.1458372 0)
(0.009566594 -0.1687062 0)
(0.008180273 -0.1923753 0)
(0.006809218 -0.2169794 0)
(0.005472776 -0.2426684 0)
(0.004197666 -0.2696075 0)
(0.003010604 -0.297962 0)
(0.001927617 -0.3278568 0)
(0.0009593219 -0.3593362 0)
(0.0001269658 -0.392298 0)
(-0.0004722672 -0.4262601 0)
(-0.0009244031 -0.4603262 0)
(-0.001029069 -0.4937034 0)
(-0.001020734 -0.5264244 0)
(-0.0009220658 -0.5592284 0)
(-0.0008316515 -0.5927164 0)
(-0.0006689854 -0.6271369 0)
(-0.0005165293 -0.662891 0)
(-0.00038242 -0.7006821 0)
(-0.0002507925 -0.74174 0)
(-0.0001450492 -0.7873755 0)
(-6.124591e-05 -0.8171845 0)
(-4.646735e-05 0.7411347 0)
(0.0004432606 0.6738032 0)
(0.001879397 0.6298735 0)
(0.003916305 0.5986505 0)
(0.006256763 0.5724345 0)
(0.008703793 0.5483969 0)
(0.01116134 0.5254315 0)
(0.01356205 0.5030585 0)
(0.01585853 0.4810686 0)
(0.01801755 0.4593765 0)
(0.02000927 0.4379544 0)
(0.02180857 0.4168151 0)
(0.02339887 0.395903 0)
(0.02477792 0.3749119 0)
(0.02595661 0.3535725 0)
(0.02695366 0.331839 0)
(0.02781693 0.309797 0)
(0.02854352 0.2876386 0)
(0.02915555 0.2655564 0)
(0.02955325 0.2437096 0)
(0.0299786 0.2220514 0)
(0.03017481 0.2006516 0)
(0.03026622 0.1795909 0)
(0.03021579 0.158879 0)
(0.03003368 0.1385052 0)
(0.02972138 0.1184419 0)
(0.02928647 0.09864067 0)
(0.02873776 0.07903676 0)
(0.02808269 0.05956547 0)
(0.02732929 0.04017656 0)
(0.02648636 0.02085107 0)
(0.02554876 0.001639488 0)
(0.02449929 -0.01729383 0)
(0.02329268 -0.03678916 0)
(0.021968 -0.05675707 0)
(0.02055352 -0.07717742 0)
(0.01907191 -0.09808057 0)
(0.01753917 -0.1195278 0)
(0.01597133 -0.1416035 0)
(0.01438654 -0.1644122 0)
(0.0128062 -0.188083 0)
(0.01125404 -0.2127659 0)
(0.009755408 -0.2386211 0)
(0.008336711 -0.2658142 0)
(0.007022685 -0.2945034 0)
(0.005835195 -0.3247985 0)
(0.004790301 -0.3566912 0)
(0.00389407 -0.3899859 0)
(0.003145242 -0.4242541 0)
(0.002558238 -0.4588421 0)
(0.002164153 -0.4929469 0)
(0.001910511 -0.5261158 0)
(0.001713275 -0.5590596 0)
(0.001513424 -0.592653 0)
(0.001239886 -0.6271378 0)
(0.001000835 -0.6629126 0)
(0.0007634864 -0.700709 0)
(0.0005257934 -0.7417668 0)
(0.0002933926 -0.7874009 0)
(6.729607e-05 -0.8172334 0)
(3.514267e-06 0.7428341 0)
(0.0007619569 0.6712946 0)
(0.002444486 0.6248832 0)
(0.004767382 0.5923678 0)
(0.007423502 0.5655039 0)
(0.01018969 0.5412186 0)
(0.01297227 0.5182635 0)
(0.0156972 0.4960793 0)
(0.0183148 0.4744056 0)
(0.02078925 0.4531227 0)
(0.02309602 0.4321829 0)
(0.02521695 0.4115779 0)
(0.02714456 0.3911905 0)
(0.0288804 0.3706992 0)
(0.03042031 0.3498688 0)
(0.03175765 0.3286936 0)
(0.03288789 0.3072553 0)
(0.03380856 0.2856792 0)
(0.03453858 0.2640821 0)
(0.03506648 0.2425674 0)
(0.03547162 0.2212922 0)
(0.03561818 0.2003826 0)
(0.03564636 0.1797814 0)
(0.03549513 0.1594916 0)
(0.03519136 0.1395098 0)
(0.03473944 0.1198118 0)
(0.03414904 0.1003516 0)
(0.03342997 0.08106534 0)
(0.032592 0.06188444 0)
(0.03164467 0.04275567 0)
(0.03059598 0.02367317 0)
(0.02944547 0.004733147 0)
(0.02825695 -0.01381733 0)
(0.02693037 -0.03292823 0)
(0.0254404 -0.05258793 0)
(0.02386602 -0.07278582 0)
(0.02223533 -0.09353316 0)
(0.02056694 -0.1148819 0)
(0.01887885 -0.1369177 0)
(0.0171906 -0.1597507 0)
(0.01552336 -0.1835113 0)
(0.01389861 -0.2083462 0)
(0.01233756 -0.2344145 0)
(0.01086058 -0.2618788 0)
(0.0094856 -0.290889 0)
(0.008226772 -0.3215495 0)
(0.007095526 -0.3538632 0)
(0.006103741 -0.3876476 0)
(0.00526261 -0.4224415 0)
(0.004576599 -0.4574842 0)
(0.004033464 -0.4919041 0)
(0.003608489 -0.5252128 0)
(0.003231749 -0.5580941 0)
(0.002853304 -0.5915219 0)
(0.002447195 -0.6258883 0)
(0.002030118 -0.6616351 0)
(0.001600349 -0.6994468 0)
(0.00115929 -0.7405218 0)
(0.0006939889 -0.7861853 0)
(0.0002111298 -0.816268 0)
(8.9487e-06 0.7441183 0)
(0.0009041916 0.6681838 0)
(0.00272613 0.6192057 0)
(0.005228862 0.5853474 0)
(0.008081903 0.5578069 0)
(0.01105346 0.5332537 0)
(0.01404717 0.5103044 0)
(0.01698393 0.4883198 0)
(0.01981287 0.4669821 0)
(0.02249778 0.4461302 0)
(0.02501509 0.4256814 0)
(0.02736114 0.4055896 0)
(0.02951683 0.3857454 0)
(0.03147614 0.3658472 0)
(0.033217 0.3456285 0)
(0.0347286 0.3250574 0)
(0.03600756 0.3042106 0)
(0.03705305 0.283214 0)
(0.03786329 0.2622071 0)
(0.03845907 0.2413224 0)
(0.03878321 0.2206681 0)
(0.03897636 0.2002496 0)
(0.03893568 0.1801166 0)
(0.03872552 0.1602919 0)
(0.0383357 0.1407637 0)
(0.03777955 0.1214966 0)
(0.03706944 0.1024374 0)
(0.03621863 0.08352139 0)
(0.03523985 0.06468442 0)
(0.03414468 0.04587945 0)
(0.03294309 0.02709457 0)
(0.03164891 0.008363544 0)
(0.03032008 -0.01025738 0)