/*--------------------------------*- C++ -*----------------------------------*\
| =========                 |                                                 |
| \\      /  F ield         | OpenFOAM: The Open Source CFD Toolbox           |
|  \\    /   O peration     | Version:  2312                                  |
|   \\  /    A nd           | Website:  www.openfoam.com                      |
|    \\/     M anipulation  |                                                 |
\*---------------------------------------------------------------------------*/
FoamFile
{
    version     2.0;
    format      ascii;
    arch        "LSB;label=32;scalar=64";
    class       volScalarField;
    location    "0";
    object      viewFactorField;
}
// * * * * * * * * * * * * * * * * * * * * * * * * * * * * * * * * * * * * * //

dimensions      [0 0 0 0 0 0 0];

internalField   uniform 0;

boundaryField
{
    plate
    {
        type            calculated;
        value           nonuniform List<scalar> 
80
(
0.8809225
0.8809225
0.8809225
0.8809225
1.03228
1.03228
1.03228
1.03228
1.019792
1.019792
1.019792
1.019792
1.009191
1.009191
1.009191
1.009191
1.006047
1.006047
1.006047
1.006047
1.003292
1.003292
1.003292
1.003292
1.000901
1.000901
1.000901
1.000901
0.9997672
0.9997672
0.9997672
0.9997672
0.9984972
0.9984972
0.9984972
0.9984972
0.997486
0.997486
0.997486
0.997486
0.9967843
0.9967843
0.9967843
0.9967843
0.9964756
0.9964756
0.9964756
0.9964756
0.9965996
0.9965996
0.9965996
0.9965996
0.9972389
0.9972389
0.9972389
0.9972389
0.997772
0.997772
0.997772
0.997772
0.9987015
0.9987015
0.9987015
0.9987015
1.000588
1.000588
1.000588
1.000588
1.008272
1.008272
1.008272
1.008272
1.023218
1.023218
1.023218
1.023218
1.000039
1.000039
1.000039
1.000039
)
;
    }
    riser
    {
        type            calculated;
        value           nonuniform List<scalar> 
80
(
0.8563643
0.8563643
0.8563643
0.8563643
1.013961
1.013961
1.013961
1.013961
1.014292
1.014292
1.014292
1.014292
1.011721
1.011721
1.011721
1.011721
1.01004
1.01004
1.01004
1.01004
1.009003
1.009003
1.009003
1.009003
1.00813
1.00813
1.00813
1.00813
1.007121
1.007121
1.007121
1.007121
1.005826
1.005826
1.005826
1.005826
1.004267
1.004267
1.004267
1.004267
1.002629
1.002629
1.002629
1.002629
1.00117
1.00117
1.00117
1.00117
1.000103
1.000103
1.000103
1.000103
0.9994537
0.9994537
0.9994537
0.9994537
0.999448
0.999448
0.999448
0.999448
1.000024
1.000024
1.000024
1.000024
1.001668
1.001668
1.001668
1.001668
1.004799
1.004799
1.004799
1.004799
1.00726
1.00726
1.00726
1.00726
0.9766786
0.9766786
0.9766786
0.9766786
)
;
    }
    adiabatic
    {
        type            calculated;
        value           nonuniform List<scalar> 
48
(
0.9537099
0.9537099
0.9537099
0.9537099
0.9835452
0.9835452
0.9835452
0.9835452
0.9964689
0.9964689
0.9964689
0.9964689
0.9993622
0.9993622
0.9993622
0.9993622
0.999171
0.999171
0.999171
0.999171
0.9835394
0.9835394
0.9835394
0.9835394
1.017733
1.017733
1.017733
1.017733
1.016899
1.016899
1.016899
1.016899
1.002305
1.002305
1.002305
1.002305
0.9989157
0.9989157
0.9989157
0.9989157
0.9980885
0.9980885
0.9980885
0.9980885
0.9818852
0.9818852
0.9818852
0.9818852
)
;
    }
    frontBack
    {
        type            empty;
    }
}


// ************************************************************************* //
