# Region type : patch riser
# Faces        : 200
# Area         : 6.7000000e-01
# Scale factor : 1.0000000e+00
# Time         	areaAverage(T)
4900           	3.9474654e+02
5000           	3.9480232e+02
5100           	3.9478395e+02
