/*--------------------------------*- C++ -*----------------------------------*\
| =========                 |                                                 |
| \\      /  F ield         | OpenFOAM: The Open Source CFD Toolbox           |
|  \\    /   O peration     | Version:  2312                                  |
|   \\  /    A nd           | Website:  www.openfoam.com                      |
|    \\/     M anipulation  |                                                 |
\*---------------------------------------------------------------------------*/
FoamFile
{
    version     2.0;
    format      ascii;
    arch        "LSB;label=32;scalar=64";
    class       surfaceScalarField;
    location    "1500";
    object      phi;
}
// * * * * * * * * * * * * * * * * * * * * * * * * * * * * * * * * * * * * * //

dimensions      [1 0 -1 0 0 0 0];

oriented        oriented;

internalField   nonuniform List<scalar> 
3736
(
-0.0001198106
0.0001198163
-0.0001778734
5.806284e-05
-0.0002303733
5.25e-05
-0.0002808486
5.047535e-05
-0.0003283682
4.751969e-05
-0.0003732255
4.485731e-05
-0.0004152144
4.198898e-05
-0.0004541382
3.892377e-05
-0.0004896391
3.5501e-05
-0.0005213298
3.169071e-05
-0.0005488224
2.749258e-05
-0.0005717815
2.295916e-05
-0.0005899294
1.814792e-05
-0.0006030241
1.309467e-05
-0.0006107968
7.772686e-06
-0.0006127783
1.981553e-06
-0.0006084359
-4.342392e-06
-0.0005971648
-1.127111e-05
-0.0005773986
-1.976618e-05
-0.0005457587
-3.163987e-05
-0.000495547
-5.021171e-05
-0.0004141104
-8.143656e-05
-0.0002783477
-0.0001357627
-0.0002783477
-8.911554e-05
0.0002089319
-0.0001438825
0.0001128299
-0.0001930623
0.0001016798
-0.0002376165
9.502965e-05
-0.0002787578
8.866105e-05
-0.0003168607
8.296025e-05
-0.0003519041
7.70324e-05
-0.0003836915
7.071121e-05
-0.0004118478
6.365736e-05
-0.0004359622
5.580513e-05
-0.0004556459
4.71763e-05
-0.0004706003
3.791354e-05
-0.0004806292
2.81769e-05
-0.0004856224
1.808786e-05
-0.0004855081
7.65844e-06
-0.0004802334
-3.293173e-06
-0.0004698123
-1.476344e-05
-0.0004536408
-2.74426e-05
-0.0004302891
-4.311792e-05
-0.0003975233
-6.440565e-05
-0.0003512695
-9.646546e-05
-0.0002831134
-0.0001495927
-0.0001752537
-0.0002436224
-0.0004536013
-7.060819e-05
0.0002795401
-0.0001134899
0.0001557116
-0.000153232
0.000141422
-0.0001895085
0.0001313061
-0.0002232359
0.0001223885
-0.0002545008
0.0001142252
-0.0002832028
0.0001057344
-0.0003090681
9.657658e-05
-0.0003316836
8.627283e-05
-0.0003506432
7.476486e-05
-0.0003656076
6.214073e-05
-0.0003763595
4.866543e-05
-0.000382786
3.460344e-05
-0.0003848152
2.011708e-05
-0.0003823216
5.164843e-06
-0.0003752336
-1.038121e-05
-0.000363132
-2.686495e-05
-0.0003452191
-4.535554e-05
-0.0003206917
-6.764522e-05
-0.0002883973
-9.670004e-05
-0.000246546
-0.0001383168
-0.0001915126
-0.000204626
-0.0001127678
-0.0003223672
-0.0005663691
-5.689916e-05
0.0003364393
-8.84582e-05
0.0001872706
-0.0001186032
0.0001715671
-0.0001471114
0.0001598143
-0.0001744686
0.0001497458
-0.0002005189
0.0001402755
-0.0002250363
0.0001302518
-0.0002476152
0.0001191555
-0.0002677069
0.0001063645
-0.0002847639
9.182193e-05
-0.0002983039
7.568069e-05
-0.0003079715
5.833308e-05
-0.0003135204
4.015232e-05
-0.0003147628
2.135959e-05
-0.0003114829
1.884925e-06
-0.0003033664
-1.849767e-05
-0.0002897205
-4.051088e-05
-0.000269973
-6.5103e-05
-0.0002437477
-9.387053e-05
-0.0002107575
-0.0001296901
-0.0001709334
-0.0001781409
-0.000125316
-0.0002502434
-7.022971e-05
-0.0003774535
-0.0006365988
-4.691203e-05
0.0003833513
-6.922084e-05
0.0002095794
-9.148563e-05
0.0001938319
-0.000114019
0.0001823477
-0.0001370271
0.0001727539
-0.000160183
0.0001634314
-0.0001830863
0.0001531552
-0.0002050977
0.0001411669
-0.0002254033
0.0001266702
-0.0002431778
0.0001095964
-0.0002576742
9.017715e-05
-0.0002682908
6.89497e-05
-0.0002745392
4.640074e-05
-0.0002759891
2.280948e-05
-0.0002722172
-1.886914e-06
-0.0002628752
-2.783958e-05
-0.0002477343
-5.565177e-05
-0.0002265083
-8.632904e-05
-0.0001989919
-0.0001213869
-0.0001652807
-0.0001634014
-0.0001258958
-0.0002175257
-8.402845e-05
-0.0002921108
-4.209381e-05
-0.0004193882
-0.0006786926
-3.994083e-05
0.0004232921
-5.524251e-05
0.0002248811
-7.149412e-05
0.0002100835
-8.975637e-05
0.00020061
-0.0001100131
0.0001930106
-0.0001317758
0.0001851942
-0.0001543949
0.0001757743
-0.000176906
0.0001636781
-0.0001981585
0.0001479227
-0.0002170038
0.0001284417
-0.0002324225
0.0001055959
-0.000243602
8.012922e-05
-0.0002499256
5.272433e-05
-0.000250959
2.38429e-05
-0.000246491
-6.354815e-06
-0.0002363748
-3.795576e-05
-0.0002204624
-7.156422e-05
-0.0001987044
-0.000108087
-0.0001711179
-0.0001489733
-0.0001380353
-0.0001964839
-0.0001001729
-0.0002553881
-6.056003e-05
-0.0003317236
-2.5013e-05
-0.0004549352
-0.0007037056
-3.515975e-05
0.0004584519
-4.56122e-05
0.0002353335
-5.775162e-05
0.0002222229
-7.342297e-05
0.0002162814
-9.239046e-05
0.0002119781
-0.0001139641
0.0002067678
-0.0001371642
0.0001989745
-0.0001606434
0.0001871573
-0.0001829035
0.0001701827
-0.0002025121
0.0001480504
-0.0002182788
0.0001213626
-0.0002293442
9.119468e-05
-0.0002351694
5.854954e-05
-0.0002354817
2.415527e-05
-0.0002302071
-1.162944e-05
-0.0002193215
-4.884132e-05
-0.000202808
-8.807773e-05
-0.0001807633
-0.0001301317
-0.0001534153
-0.0001763213
-0.0001213056
-0.0002285936
-8.539664e-05
-0.000291297
-4.788839e-05
-0.0003692319
-1.5417e-05
-0.0004874066
-0.0007191226
-3.194354e-05
0.0004903954
-3.945042e-05
0.0002428404
-4.926231e-05
0.0002320348
-6.3862e-05
0.000230881
-8.272323e-05
0.0002308393
-0.0001048622
0.0002289068
-0.000128914
0.0002230263
-0.0001531885
0.0002114319
-0.0001759728
0.000192967
-0.0001957473
0.0001678249
-0.0002113615
0.0001369768
-0.0002220613
0.0001018945
-0.0002274053
6.389354e-05
-0.0002271531
2.390312e-05
-0.0002212311
-1.755148e-05
-0.0002096708
-6.040156e-05
-0.0001925941
-0.0001051544
-0.0001702429
-0.0001524829
-0.0001430313
-0.0002035329
-0.0001116593
-0.0002599655
-7.733264e-05
-0.0003256237
-4.169287e-05
-0.0004048716
-1.083185e-05
-0.0005182676
-0.0007299545
-2.981459e-05
0.00052021
-3.601761e-05
0.0002490434
-4.518887e-05
0.000241206
-6.013464e-05
0.0002458268
-7.99147e-05
0.0002506194
-0.00010317
0.0002521621
-0.0001281738
0.0002480301
-0.0001530294
0.0002362874
-0.0001759816
0.0002159193
-0.000195576
0.0001874192
-0.0002107761
0.000152177
-0.0002209222
0.0001120407
-0.0002256284
6.859975e-05
-0.0002247016
2.297633e-05
-0.0002181108
-2.414222e-05
-0.000205923
-7.258937e-05
-0.0001882852
-0.0001227922
-0.0001655258
-0.0001752423
-0.0001382009
-0.0002308577
-0.0001071357
-0.0002910307
-7.370477e-05
-0.0003590547
-3.940059e-05
-0.0004391758
-9.427171e-06
-0.000548241
-0.0007393816
-2.842186e-05
0.0005486318
-3.475771e-05
0.0002553792
-4.490357e-05
0.0002513519
-6.149924e-05
0.0002624225
-8.302873e-05
0.0002721489
-0.0001077308
0.0002768641
-0.0001336167
0.000273916
-0.0001587616
0.0002614323
-0.0001815339
0.0002386917
-0.0002006727
0.000206558
-0.0002153251
0.0001668293
-0.0002249438
0.0001216594
-0.0002291654
7.282132e-05
-0.0002277392
2.155022e-05
-0.000220558
-3.13234e-05
-0.0002076806
-8.546682e-05
-0.0001893307
-0.0001411421
-0.0001659207
-0.0001986524
-0.0001381108
-0.0002586676
-0.0001068265
-0.000322315
-7.352956e-05
-0.0003923516
-3.981096e-05
-0.0004728944
-1.010847e-05
-0.0005779434
-0.0007494901
-2.752907e-05
0.0005761609
-3.533734e-05
0.0002631875
-4.801304e-05
0.0002640276
-6.739686e-05
0.0002818063
-9.127635e-05
0.0002960284
-0.0001175767
0.0003031645
-0.0001442223
0.0003005616
-0.0001694453
0.0002866554
-0.0001918637
0.00026111
-0.0002104724
0.0002251668
-0.0002245913
0.0001809483
-0.0002337264
0.0001307945
-0.0002374757
7.657058e-05
-0.0002355291
1.96037e-05
-0.0002277283
-3.912418e-05
-0.0002141203
-9.907478e-05
-0.000194941
-0.0001603214
-0.0001706558
-0.0002229376
-0.0001420043
-0.0002873191
-0.0001100038
-0.0003543154
-7.616152e-05
-0.0004261938
-4.225464e-05
-0.0005068012
-1.218518e-05
-0.0006080129
-0.0007616753
-2.700456e-05
0.0006031655
-3.764281e-05
0.0002738257
-5.427983e-05
0.0002806646
-7.730391e-05
0.0003048304
-0.0001038476
0.0003225721
-0.0001317288
0.0003310456
-0.000158987
0.0003278199
-0.0001841532
0.0003118215
-0.0002061605
0.0002831174
-0.0002242731
0.0002432794
-0.0002379576
0.0001946327
-0.0002467406
0.0001395775
-0.0002501533
7.998333e-05
-0.0002477793
1.722975e-05
-0.0002393578
-4.754563e-05
-0.0002249158
-0.0001135168
-0.0002047205
-0.0001805166
-0.0001792851
-0.000248373
-0.0001494129
-0.0003171913
-0.0001162058
-0.0003875225
-8.120536e-05
-0.0004611942
-4.636694e-05
-0.0005416397
-1.524679e-05
-0.000639133
-0.000776922
-2.681461e-05
0.0006299801
-4.17013e-05
0.0002887124
-6.345419e-05
0.0003024175
-9.057001e-05
0.0003319462
-0.0001198168
0.0003518189
-0.0001491614
0.0003603902
-0.0001769366
0.0003555951
-0.0002020467
0.0003369316
-0.0002237522
0.0003048229
-0.0002415518
0.000261079
-0.0002550032
0.0002080841
-0.0002636001
0.0001481744
-0.0002667736
8.315682e-05
-0.000264001
1.445722e-05
-0.0002549307
-5.661594e-05
-0.0002395687
-0.0001288788
-0.0002181916
-0.0002018937
-0.0001913488
-0.0002752159
-0.0001599014
-0.0003486387
-0.0001250334
-0.0004223905
-8.833008e-05
-0.0004978975
-5.188398e-05
-0.0005780858
-1.902887e-05
-0.0006719881
-0.0007959509
-2.700188e-05
0.000656982
-4.750954e-05
0.0003092201
-7.507438e-05
0.0003299823
-0.0001063158
0.0003631876
-0.0001381181
0.0003836212
-0.000168801
0.0003910731
-0.0001971042
0.0003838983
-0.0002223093
0.0003621367
-0.0002439681
0.0003264816
-0.0002617491
0.00027886
-0.000275241
0.0002215761
-0.0002838677
0.0001568011
-0.0002869477
8.623685e-05
-0.0002838457
1.135523e-05
-0.0002741114
-6.635021e-05
-0.0002577305
-0.0001452597
-0.0002349932
-0.000224631
-0.0002064833
-0.0003037258
-0.0001731182
-0.0003820037
-0.0001361616
-0.0004593471
-9.72582e-05
-0.0005368009
-5.859476e-05
-0.0006167492
-2.335417e-05
-0.0007072287
-0.0008193051
-2.76356e-05
0.0006846176
-5.485661e-05
0.0003364411
-8.838303e-05
0.0003635087
-0.0001234835
0.0003982881
-0.00015764
0.0004177777
-0.0001896206
0.0004230537
-0.0002186108
0.0004128885
-0.0002442179
0.0003877438
-0.0002662162
0.00034848
-0.000284363
0.0002970068
-0.0002982183
0.0002354313
-0.0003071088
0.0001656916
-0.00031024
8.936804e-05
-0.000306875
7.990299e-06
-0.0002964684
-7.675688e-05
-0.0002789833
-0.0001627447
-0.0002547249
-0.0002488894
-0.0002243102
-0.0003341405
-0.0001887134
-0.0004176005
-0.0001492781
-0.0004987824
-0.0001077239
-0.0005783552
-6.630244e-05
-0.0006581706
-2.808927e-05
-0.0007454419
-0.0008473944
-2.875947e-05
0.000713377
-6.327814e-05
0.0003709597
-0.0001024398
0.0004026704
-0.000141011
0.0004368593
-0.0001773756
0.0004541423
-0.0002107487
0.0004564268
-0.0002407334
0.0004428733
-0.0002671776
0.000414188
-0.0002899914
0.0003712938
-0.0003089376
0.0003159529
-0.0003234981
0.0002499918
-0.0003328895
0.0001750831
-0.0003362135
9.2692e-05
-0.0003326501
4.42695e-06
-0.0003215667
-8.784026e-05
-0.0003029024
-0.000181409
-0.0002769765
-0.0002748153
-0.0002444425
-0.0003666745
-0.0002063324
-0.0004557107
-0.0001640705
-0.0005410443
-0.0001194635
-0.0006229621
-7.481441e-05
-0.0007028197
-3.312357e-05
-0.0007871327
-0.0008805179
-3.038706e-05
0.0007437641
-7.218312e-05
0.0004127558
-0.000116351
0.0004468382
-0.000158022
0.0004785303
-0.000196552
0.0004926722
-0.0002315448
0.0004914196
-0.0002629419
0.0004742704
-0.0002907345
0.0004419806
-0.0003148797
0.000395439
-0.0003350764
0.0003361496
-0.0003506924
0.0002656079
-0.0003608183
0.000185209
-0.0003644453
9.6319e-05
-0.0003606903
6.719705e-07
-0.0003489011
-9.962944e-05
-0.0003289907
-0.0002013194
-0.0003012724
-0.0003025336
-0.0002664399
-0.000401507
-0.0002255808
-0.0004965697
-0.0001801998
-0.0005864253
-0.0001321991
-0.0006709627
-8.393195e-05
-0.0007510869
-3.835486e-05
-0.0008327098
-0.0009188728
-3.254597e-05
0.00077631
-8.104374e-05
0.0004612536
-0.0001294558
0.0004952503
-0.000173928
0.0005230025
-0.0002146696
0.0005334138
-0.0002515851
0.000528335
-0.0002848386
0.000507524
-0.0003144662
0.0004716082
-0.00034039
0.0004213627
-0.0003622
0.0003579597
-0.0003791456
0.0002825534
-0.0003902157
0.0001962792
-0.0003943172
0.0001004205
-0.0003904098
-3.235403e-06
-0.0003778599
-0.0001121794
-0.0003566456
-0.0002225336
-0.0003270442
-0.0003321351
-0.0002897832
-0.000438768
-0.0002460032
-0.0005403497
-0.0001972835
-0.000635145
-0.0001456268
-0.0007226194
-9.344373e-05
-0.00080327
-4.368081e-05
-0.0008824727
-0.0009625536
-3.530673e-05
0.0008116168
-8.951021e-05
0.000515457
-0.0001413827
0.0005471228
-0.0001884244
0.0005700443
-0.0002314702
0.0005764596
-0.0002706186
0.0005674834
-0.0003061247
0.0005430301
-0.0003379828
0.0005034662
-0.0003660172
0.0004493971
-0.0003896873
0.0003816298
-0.000408128
0.0003009941
-0.0004202401
0.0002083913
-0.0004248548
0.0001050352
-0.0004208852
-7.204962e-06
-0.000407653
-0.0001254116
-0.0003851163
-0.0002450704
-0.0003535928
-0.0003636585
-0.0003138438
-0.000478517
-0.0002670575
-0.000587136
-0.0002148773
-0.0006873252
-0.0001594044
-0.0007780924
-0.0001031185
-0.0008595559
-4.899258e-05
-0.0009365986
-0.001011546
-3.874167e-05
0.0008503584
-9.740149e-05
0.0005741169
-0.0001519917
0.000601713
-0.0002014143
0.0006194669
-0.0002468582
0.0006219035
-0.0002884965
0.0006091217
-0.0003265499
0.0005810835
-0.0003609074
0.0005378237
-0.0003912618
0.0004797515
-0.0004169436
0.0004073116
-0.0004369854
0.0003210359
-0.0004502069
0.0002216128
-0.0004553627
0.0001101911
-0.000451315
-1.125268e-05
-0.0004373666
-0.0001393599
-0.0004134929
-0.0002689442
-0.0003800584
-0.0003970929
-0.0003378529
-0.0005207226
-0.0002880914
-0.0006368974
-0.0002324579
-0.0007429586
-0.00017314
-0.0008374103
-0.0001126983
-0.0009199976
-5.417032e-05
-0.0009951265
-0.001065716
-4.283373e-05
0.0008931922
-0.0001046224
0.0006359056
-0.0001612735
0.0006583641
-0.0002129146
0.000671108
-0.0002608184
0.0006698072
-0.0003051083
0.0006534117
-0.0003458675
0.0006218427
-0.000382842
0.0005747982
-0.0004155803
0.0005124899
-0.000443293
0.0004350243
-0.0004649178
0.0003426607
-0.0004791954
0.0002358903
-0.0004848071
0.0001158028
-0.0004805767
-1.548308e-05
-0.0004658379
-0.0001540987
-0.0004406307
-0.0002941513
-0.0004053737
-0.0004323499
-0.000360869
-0.0005652273
-0.0003083197
-0.0006894467
-0.0002494082
-0.0008018702
-0.0001863829
-0.0009004356
-0.0001218932
-0.0009844873
-5.907997e-05
-0.00105794
-0.001124796
-4.740885e-05
0.000940601
-0.0001110864
0.0006995831
-0.000169266
0.0007165437
-0.0002229849
0.0007248269
-0.0002733552
0.0007201775
-0.0003203348
0.0007003912
-0.0003637995
0.0006653074
-0.0004033368
0.0006143355
-0.0004383524
0.0005475055
-0.0004679465
0.0004646183
-0.0004909664
0.0003656807
-0.0005060788
0.0002510027
-0.0005119072
0.0001216312
-0.0005072755
-2.011478e-05
-0.0004916232
-0.000169751
-0.0004651141
-0.0003206604
-0.0004282305
-0.0004692335
-0.0003817531
-0.0006117047
-0.0003268081
-0.0007443918
-0.0002650077
-0.0008636706
-0.0001986181
-0.0009668251
-0.0001303785
-0.001052727
-6.357212e-05
-0.001124746
-0.001188369
-5.214682e-05
0.0009927478
-0.0001166909
0.0007641272
-0.0001760182
0.000775871
-0.0002316931
0.0007805018
-0.0002844621
0.0007729466
-0.0003340263
0.0007499554
-0.0003800213
0.0007113024
-0.0004218782
0.0006561924
-0.0004588677
0.000584495
-0.0004899868
0.0004957374
-0.0005139971
0.000389691
-0.0005295043
0.0002665099
-0.0005351083
0.0001272352
-0.0005297048
-2.55183e-05
-0.0005129565
-0.0001864992
-0.0004852264
-0.0003483905
-0.0004470619
-0.000507398
-0.0003991605
-0.0006596062
-0.0003424703
-0.0008010819
-0.0002784335
-0.0009277074
-0.0002092682
-0.00103599
-0.0001377965
-0.001124199
-6.748308e-05
-0.00119506
-0.001255852
-5.666297e-05
0.001049411
-0.0001213436
0.0008288078
-0.0001815939
0.0008361212
-0.0002391099
0.0008380179
-0.0002941137
0.0008279503
-0.0003459987
0.0008018405
-0.0003941617
0.0007594654
-0.0004378905
0.0006999212
-0.0004763277
0.0006229322
-0.00050837
0.0005277797
-0.0005326987
0.0004140197
-0.0005478839
0.0002816951
-0.0005525638
0.0001319152
-0.0005458309
-3.225119e-05
-0.0005277485
-0.0002045817
-0.0004989626
-0.0003771763
-0.0004600639
-0.0005462967
-0.0004115638
-0.0007081063
-0.0003540904
-0.0008585553
-0.0002887784
-0.0009930194
-0.0002177073
-0.001107062
-0.0001437653
-0.001198141
-7.063944e-05
-0.001268186
-0.001326491
-6.0609e-05
0.00111002
-0.0001250074
0.0008932062
-0.0001860903
0.0008972041
-0.0002453117
0.0008972392
-0.000302266
0.0008849046
-0.0003560391
0.0008556135
-0.0004058146
0.0008092409
-0.000450752
0.0007448586
-0.0004898661
0.0006620464
-0.000521948
0.0005598616
-0.0005456057
0.0004376774
-0.0005594174
0.0002955067
-0.0005621639
0.0001346617
-0.0005533425
-4.107256e-05
-0.0005336632
-0.0002242609
-0.0005041218
-0.0004067177
-0.0004652855
-0.0005851331
-0.00041733
-0.0007560617
-0.0003603812
-0.0009155042
-0.0002950925
-0.001058308
-0.0002232886
-0.001178865
-0.0001478961
-0.001273533
-7.28664e-05
-0.001343215
-0.001399357
-6.374395e-05
0.001173764
-0.0001277283
0.0009571906
-0.0001896433
0.0009591191
-0.0002503745
0.0009579704
-0.000308856
0.0009433862
-0.0003639144
0.0009106719
-0.000414559
0.0008598855
-0.0004598276
0.0007901272
-0.0004985941
0.0007008128
-0.000529529
0.0005907966
-0.000551177
0.0004593254
-0.0005621929
0.0003065227
-0.000561668
0.0001341368
-0.0005498339
-5.290664e-05
-0.0005283436
-0.0002457512
-0.0004985361
-0.0004365252
-0.0004608282
-0.0006228409
-0.0004148753
-0.0008020147
-0.0003600939
-0.0009702855
-0.0002964569
-0.001121945
-0.0002253918
-0.001249931
-0.0001498203
-0.001349105
-7.400033e-05
-0.001419035
-0.001473358
-6.595759e-05
0.001239721
-0.0001296314
0.001020864
-0.0001924067
0.001021894
-0.0002543537
0.001019917
-0.0003137963
0.001002829
-0.0003693852
0.0009662608
-0.0004199918
0.000910492
-0.0004645233
0.0008346587
-0.0005016834
0.0007379729
-0.000529998
0.0006191112
-0.0005479645
0.0004772918
-0.0005544204
0.0003129786
-0.0005490232
0.0001287396
-0.0005332231
-6.870669e-05
-0.0005098743
-0.0002691
-0.0004804985
-0.000465901
-0.0004451919
-0.0006581476
-0.0004029157
-0.0008442909
-0.0003521881
-0.001021013
-0.0002920913
-0.001182042
-0.0002234872
-0.001318535
-0.0001492258
-0.001423366
-7.390517e-05
-0.001494356
-0.001547263
-6.725539e-05
0.001306977
-0.0001308843
0.001084493
-0.0001945109
0.001085521
-0.0002572585
0.001082665
-0.0003169736
0.001062544
-0.0003722274
0.001021515
-0.0004217761
0.0009600407
-0.0004643695
0.0008772521
-0.0004984996
0.0007721031
-0.000522521
0.0006431325
-0.000534917
0.0004896879
-0.0005348689
0.0003129304
-0.0005229749
0.0001168456
-0.0005025102
-8.917133e-05
-0.000477543
-0.0002940673
-0.0004494114
-0.0004940326
-0.0004177675
-0.0006897915
-0.0003808124
-0.000881246
-0.0003360541
-0.001065771
-0.0002814892
-0.001236607
-0.000217215
-0.001382809
-0.0001458999
-0.001494681
-7.249086e-05
-0.001567765
-0.001619754
-6.772466e-05
0.001374701
-0.0001316451
0.001148414
-0.0001960191
0.001149895
-0.0002590359
0.001145682
-0.0003182599
0.001121768
-0.0003722679
0.001075523
-0.0004197062
0.001007479
-0.0004591297
0.0009166756
-0.0004887799
0.0008017533
-0.0005068311
0.0006611837
-0.0005118297
0.0004946865
-0.0005035424
0.0003046431
-0.0004840128
9.7316e-05
-0.0004588479
-0.0001143362
-0.0004327942
-0.000320121
-0.0004065434
-0.0005202834
-0.0003793959
-0.000716939
-0.0003489553
-0.0009116867
-0.0003117579
-0.001102969
-0.0002645639
-0.001283801
-0.0002064658
-0.001440907
-0.0001397711
-0.001561376
-6.973119e-05
-0.001637805
-0.001689485
-6.749809e-05
0.001442199
-0.0001320163
0.001212932
-0.0001969043
0.001214783
-0.0002595777
0.001208355
-0.0003175391
0.001179729
-0.0003694292
0.001127413
-0.0004137782
0.001051828
-0.0004489163
0.0009518136
-0.0004728248
0.0008256618
-0.0004835424
0.0006719012
-0.0004798401
0.0004909843
-0.0004624215
0.0002872245
-0.0004353619
7.025639e-05
-0.0004064732
-0.0001432249
-0.0003799064
-0.0003466877
-0.000355539
-0.0005446507
-0.0003327621
-0.0007397159
-0.0003090566
-0.0009353921
-0.0002802387
-0.001131787
-0.0002417666
-0.001322273
-0.0001914457
-0.001491228
-0.0001309416
-0.00162188
-6.567671e-05
-0.00170307
-0.001755162
-6.672328e-05
0.001508923
-0.0001320214
0.00127823
-0.0001970574
0.001279819
-0.0002587506
0.001270048
-0.0003147431
0.001235722
-0.0003637682
0.001176438
-0.0004042366
0.001092296
-0.0004342556
0.0009818326
-0.0004515993
0.0008430055
-0.0004543123
0.0006746142
-0.0004416854
0.0004783573
-0.0004158163
0.0002613554
-0.0003832227
3.766277e-05
-0.0003524685
-0.0001739792
-0.0003255524
-0.0003736039
-0.0003021001
-0.000568103
-0.0002822707
-0.0007595453
-0.0002641586
-0.0009535042
-0.0002433609
-0.001152584
-0.0002141315
-0.001351502
-0.0001727017
-0.001532658
-0.0001196985
-0.001674883
-6.04587e-05
-0.001762309
-0.00181562
-6.554081e-05
0.001574464
-0.0001316104
0.0013443
-0.0001963244
0.001344533
-0.0002564375
0.001330161
-0.0003098831
0.001289167
-0.0003554944
0.001222049
-0.0003915776
0.00112838
-0.0004160708
0.001006326
-0.0004266759
0.0008536106
-0.0004216961
0.0006696344
-0.0004013473
0.0004580086
-0.0003695415
0.0002295496
-0.0003349932
3.114462e-06
-0.0003044452
-0.0002045272
-0.0002767134
-0.0004013357
-0.0002524571
-0.0005923593
-0.0002331263
-0.0007788761
-0.0002181793
-0.0009684512
-0.0002037278
-0.001167036
-0.000183205
-0.001372025
-0.0001510899
-0.001564773
-0.000106497
-0.001719476
-5.428108e-05
-0.001814525
-0.001869902
-6.407008e-05
0.001638534
-0.0001306881
0.001410918
-0.0001945531
0.001408398
-0.0002525725
0.001388181
-0.0003030586
0.001339653
-0.0003449417
0.001263932
-0.0003764638
0.001159902
-0.0003954961
0.001025358
-0.0003998649
0.0008579794
-0.0003884433
0.0006582128
-0.0003627818
0.0004323471
-0.0003287542
0.000195522
-0.0002963864
-2.925333e-05
-0.0002672188
-0.0002336948
-0.0002378813
-0.0004306732
-0.0002111585
-0.0006190821
-0.0001898016
-0.000800233
-0.0001750161
-0.0009832368
-0.0001642397
-0.001177812
-0.0001508455
-0.001385419
-0.0001276822
-0.001587936
-9.191314e-05
-0.001755245
-4.740017e-05
-0.001859038
-0.001917302
-6.24013e-05
0.001700935
-0.0001291501
0.001477666
-0.0001916338
0.001470882
-0.0002471595
0.001443706
-0.0002944488
0.001386943
-0.0003325283
0.001302012
-0.0003596473
0.001187021
-0.0003737642
0.001039475
-0.0003731052
0.0008573204
-0.0003575328
0.0006426404
-0.0003303934
0.0004052077
-0.0002992768
0.0001644055
-0.0002706871
-5.784305e-05
-0.00024131
-0.0002630719
-0.0002097491
-0.0004622341
-0.0001796568
-0.0006491744
-0.0001546963
-0.0008251935
-0.0001375408
-0.001000392
-0.0001275061
-0.001187847
-0.0001189346
-0.001393991
-0.0001036283
-0.001603243
-7.657631e-05
-0.001782297
-4.009598e-05
-0.001895519
-0.001957398
-6.059272e-05
0.001761528
-0.0001269127
0.001543986
-0.0001875194
0.001531488
-0.0002402684
0.001496455
-0.000284278
0.001430952
-0.0003186765
0.00133641
-0.0003418077
0.001210152
-0.0003518822
0.00104955
-0.000347778
0.0008532161
-0.0003306163
0.0006254787
-0.0003053339
0.0003799253
-0.0002792133
0.0001382848
-0.0002535333
-8.352303e-05
-0.0002234025
-0.0002932028
-0.0001898024
-0.0004958342
-0.0001565538
-0.000682423
-0.0001277826
-0.0008539647
-0.0001069777
-0.001021197
-9.53261e-05
-0.001199499
-8.907832e-05
-0.001400239
-8.000806e-05
-0.001612313
-6.109606e-05
-0.001801209
-3.26413e-05
-0.001923973
-0.001990039
-5.867218e-05
0.0018202
-0.0001239294
0.001609244
-0.0001822257
0.001589785
-0.0002320154
0.001546245
-0.000272776
0.001471713
-0.0003037485
0.001367383
-0.0003234566
0.00122986
-0.0003305004
0.001056593
-0.0003245609
0.0008472766
-0.0003079901
0.0006089078
-0.0002864827
0.000358418
-0.0002650663
0.0001168684
-0.0002409737
-0.0001076156
-0.0002099641
-0.0003242124
-0.0001747703
-0.000531028
-0.0001391961
-0.0007179972
-0.0001073894
-0.0008857714
-8.29733e-05
-0.001045613
-6.844441e-05
-0.001214027
-6.238757e-05
-0.001406295
-5.771048e-05
-0.00161699
-4.60015e-05
-0.001812918
-2.527549e-05
-0.001944699
-0.002015315
-5.664261e-05
0.001876842
-0.0001201942
0.001672795
-0.0001758181
0.001645408
-0.0002225393
0.001592966
-0.0002601481
0.001509322
-0.0002880122
0.001395247
-0.0003049065
0.001246754
-0.0003099058
0.001061593
-0.0003035167
0.0008408875
-0.0002890068
0.0005943979
-0.000271743
0.0003411541
-0.000253651
9.877641e-05
-0.0002299961
-0.0001312704
-0.0001981506
-0.000356058
-0.0001618923
-0.0005672862
-0.0001249766
-0.0007549129
-9.129944e-05
-0.0009194486
-6.417225e-05
-0.001072741
-4.664009e-05
-0.00123156
-3.939133e-05
-0.001413544
-3.736254e-05
-0.001619019
-3.170415e-05
-0.001818576
-1.81878e-05
-0.001958216
-0.002033502
-5.44899e-05
0.001931332
-0.0001157354
0.001734041
-0.000168392
0.001698065
-0.0002119786
0.001636553
-0.0002465534
0.001543896
-0.0002716248
0.001420318
-0.000286267
0.001261396
-0.0002900546
0.00106538
-0.0002842165
0.0008350494
-0.0002724405
0.0005826219
-0.0002588637
0.0003275773
-0.0002425848
8.249746e-05
-0.0002186552
-0.0001552
-0.0001860918
-0.0003886214
-0.0001492916
-0.0006040865
-0.0001119391
-0.0007922654
-7.753436e-05
-0.0009538533
-4.890588e-05
-0.001101369
-2.905409e-05
-0.001251411
-2.008781e-05
-0.00142251
-1.931591e-05
-0.001619791
-1.848863e-05
-0.001819404
-1.151133e-05
-0.001965193
-0.002045014
-5.219173e-05
0.001983524
-0.0001106048
0.001792454
-0.0001600547
0.001747515
-0.0002004569
0.001676955
-0.0002320983
0.001575538
-0.0002546405
0.001442861
-0.0002674799
0.001274236
-0.000270657
0.001068557
-0.0002659262
0.0008303186
-0.0002568594
0.0005735551
-0.0002459016
0.0003166195
-0.0002302305
6.682639e-05
-0.0002057395
-0.000179691
-0.0001726754
-0.0004216856
-0.0001358413
-0.0006409206
-9.882726e-05
-0.0008292794
-6.465438e-05
-0.0009880262
-3.567297e-05
-0.001130351
-1.456834e-05
-0.001272516
-4.09877e-06
-0.00143298
-3.689027e-06
-0.0016202
-6.524929e-06
-0.001816568
-5.324782e-06
-0.001966393
-0.002050338
-4.972563e-05
0.00203325
-0.0001048688
0.001847597
-0.0001509141
0.00179356
-0.0001880767
0.001714118
-0.0002168421
0.001604303
-0.0002370337
0.001463052
-0.0002483683
0.00128557
-0.0002512727
0.001071462
-0.0002477829
0.0008268287
-0.000240917
0.0005666892
-0.0002314405
0.0003071431
-0.0002155988
5.09847e-05
-0.0001905353
-0.0002047546
-0.000157291
-0.0004549299
-0.0001209336
-0.000677278
-8.492322e-05
-0.0008652898
-5.173699e-05
-0.001021212
-2.333337e-05
-0.001158754
-2.02224e-06
-0.001293827
9.091346e-06
-0.001444094
9.506174e-06
-0.001620615
4.119431e-06
-0.001811181
3.487989e-07
-0.001962623
-0.00204999
-4.707531e-05
0.002080325
-9.860072e-05
0.001899122
-0.0001410728
0.001836032
-0.0001749231
0.001747968
-0.0002008132
0.001630193
-0.0002187333
0.001480972
-0.0002287
0.001295537
-0.0002314187
0.001074181
-0.0002289712
0.0008243812
-0.0002235561
0.0005612741
-0.0002145841
0.0002981711
-0.0001981495
3.455002e-05
-0.0001726639
-0.0002302402
-0.0001396671
-0.0004879266
-0.000104312
-0.0007126332
-6.988409e-05
-0.0008997177
-3.826371e-05
-0.001052833
-1.111948e-05
-0.001185898
9.345873e-06
-0.001314293
2.018308e-05
-0.001454931
2.053349e-05
-0.001620966
1.339516e-05
-0.001804043
5.487654e-06
-0.001954715
-0.002044502
-4.423475e-05
0.00212456
-9.187754e-05
0.001946765
-0.0001306287
0.001874783
-0.0001610719
0.001778411
-0.0001840282
0.00165315
-0.0001996561
0.0014966
-0.000208239
0.00130412
-0.0002106453
0.001076587
-0.0002088202
0.0008225561
-0.0002040846
0.0005565384
-0.0001949953
0.0002890819
-0.0001778575
1.741211e-05
-0.0001520529
-0.0002560448
-0.0001197857
-0.0005201939
-8.59715e-05
-0.0007464473
-5.364686e-05
-0.0009320423
-2.411266e-05
-0.001082367
1.162281e-06
-0.001211173
1.986519e-05
-0.001332995
2.997834e-05
-0.001465044
2.996274e-05
-0.00162095
2.139517e-05
-0.001795475
1.004865e-05
-0.001943369
-0.002034453
-4.121027e-05
0.00216577
-8.477911e-05
0.001990334
-0.0001196796
0.001909684
-0.0001466017
0.001805333
-0.000166515
0.001673063
-0.0001797455
0.001509831
-0.0001868074
0.001311182
-0.0001886326
0.001078412
-0.0001869367
0.0008208602
-0.0001822728
0.0005518745
-0.000172787
0.0002795961
-0.000154925
-4.49957e-07
-0.0001288248
-0.000282145
-9.779509e-05
-0.0005512236
-6.606885e-05
-0.0007781736
-3.63224e-05
-0.0009617888
-9.352573e-06
-0.001109337
1.325529e-05
-0.001233781
2.987923e-05
-0.001349619
3.893187e-05
-0.001474097
3.82043e-05
-0.001620223
2.832836e-05
-0.001785599
1.403912e-05
-0.001929079
-0.002020414
-3.802092e-05
0.002203791
-7.738895e-05
0.002029702
-0.0001083284
0.001940623
-0.0001316048
0.00182861
-0.0001483283
0.001689786
-0.00015899
0.001520492
-0.000164298
0.00131649
-0.0001651658
0.00107928
-0.0001630301
0.0008187246
-0.0001578137
0.0005466581
-0.0001474216
0.0002692039
-0.0001293092
-1.856236e-05
-0.0001032453
-0.0003082089
-7.397748e-05
-0.0005804915
-4.487623e-05
-0.0008072748
-1.813178e-05
-0.0009885333
5.669447e-06
-0.001133138
2.515779e-05
-0.00125327
3.964e-05
-0.001364102
4.719809e-05
-0.001481655
4.544723e-05
-0.001618472
3.431635e-05
-0.001774468
1.749364e-05
-0.001912257
-0.002002921
-3.469759e-05
0.002238488
-6.979571e-05
0.0020648
-9.668834e-05
0.001967516
-0.0001161972
0.001848119
-0.0001295669
0.001703156
-0.0001374523
0.001528378
-0.0001407239
0.001319762
-0.000140232
0.001078788
-0.0001371818
0.0008156744
-0.0001311829
0.0005406591
-0.0001204845
0.0002585056
-0.0001020785
-3.69684e-05
-7.567925e-05
-0.0003346082
-4.872211e-05
-0.0006074486
-2.273685e-05
-0.0008332601
5.654839e-07
-0.001011836
2.059888e-05
-0.001153172
3.703846e-05
-0.001269709
4.910164e-05
-0.001376165
5.480651e-05
-0.00148736
5.178058e-05
-0.001615446
3.941231e-05
-0.0017621
2.040811e-05
-0.001893252
-0.001982512
-3.128122e-05
0.00226977
-6.209367e-05
0.002095613
-8.488598e-05
0.001990308
-0.0001005234
0.001863756
-0.0001103786
0.001713011
-0.0001152702
0.001533269
-0.0001162002
0.001320692
-0.0001139524
0.00107654
-0.0001095012
0.0008112233
-0.0001022842
0.000533442
-9.119909e-05
0.0002474205
-7.27917e-05
-5.537583e-05
-4.644679e-05
-0.0003609532
-2.233284e-05
-0.0006315626
-4.471519e-08
-0.0008555483
1.913056e-05
-0.001031011
3.543152e-05
-0.001169473
4.880206e-05
-0.00128308
5.814079e-05
-0.001385504
6.17035e-05
-0.001490922
5.71923e-05
-0.001610935
4.360943e-05
-0.001748517
2.275638e-05
-0.001872399
-0.001959756
-2.781999e-05
0.00229759
-5.438178e-05