/*--------------------------------*- C++ -*----------------------------------*\
| =========                 |                                                 |
| \\      /  F ield         | OpenFOAM: The Open Source CFD Toolbox           |
|  \\    /   O peration     | Version:  2312                                  |
|   \\  /    A nd           | Website:  www.openfoam.com                      |
|    \\/     M anipulation  |                                                 |
\*---------------------------------------------------------------------------*/
FoamFile
{
    version     2.0;
    format      ascii;
    arch        "LSB;label=32;scalar=64";
    class       volScalarField;
    location    "1500";
    object      qr;
}
// * * * * * * * * * * * * * * * * * * * * * * * * * * * * * * * * * * * * * //

dimensions      [1 0 -3 0 0 0 0];

internalField   uniform 0;

boundaryField
{
    plate
    {
        type            greyDiffusiveRadiationViewFactor;
        value           nonuniform List<scalar> 
80
(
-6052.819
-6052.819
-6052.819
-6052.819
-6050.839
-6050.839
-6050.839
-6050.839
-6055.526
-6055.526
-6055.526
-6055.526
-6056.602
-6056.602
-6056.602
-6056.602
-6054.043
-6054.043
-6054.043
-6054.043
-6047.815
-6047.815
-6047.815
-6047.815
-6036.76
-6036.76
-6036.76
-6036.76
-6028.916
-6028.916
-6028.916
-6028.916
-6017.44
-6017.44
-6017.44
-6017.44
-6004.943
-6004.943
-6004.943
-6004.943
-5991.286
-5991.286
-5991.286
-5991.286
-5976.011
-5976.011
-5976.011
-5976.011
-5958.32
-5958.32
-5958.32
-5958.32
-5931.023
-5931.023
-5931.023
-5931.023
-5910.752
-5910.752
-5910.752
-5910.752
-5877.657
-5877.657
-5877.657
-5877.657
-5835.956
-5835.956
-5835.956
-5835.956
-5769.007
-5769.007
-5769.007
-5769.007
-5703.388
-5703.388
-5703.388
-5703.388
-5669.676
-5669.676
-5669.676
-5669.676
)
;
        qro             uniform 0;
    }
    riser
    {
        type            greyDiffusiveRadiationViewFactor;
        value           nonuniform List<scalar> 
80
(
3900.574
3900.574
3900.574
3900.574
3781.384
3781.384
3781.384
3781.384
4069.82
4069.82
4069.82
4069.82
4329.106
4329.106
4329.106
4329.106
4543.824
4543.824
4543.824
4543.824
4714.464
4714.464
4714.464
4714.464
4845.618
4845.618
4845.618
4845.618
4942.368
4942.368
4942.368
4942.368
5009.151
5009.151
5009.151
5009.151
5049.338
5049.338
5049.338
5049.338
5065.058
5065.058
5065.058
5065.058
5057.118
5057.118
5057.118
5057.118
5024.964
5024.964
5024.964
5024.964
4947.75
4947.75
4947.75
4947.75
4879.377
4879.377
4879.377
4879.377
4759.282
4759.282
4759.282
4759.282
4603.151
4603.151
4603.151
4603.151
4410.392
4410.392
4410.392
4410.392
4190.409
4190.409
4190.409
4190.409
4015.518
4015.518
4015.518
4015.518
)
;
        qro             uniform 0;
    }
    adiabatic
    {
        type            greyDiffusiveRadiationViewFactor;
        value           nonuniform List<scalar> 
48
(
2808.245
2808.245
2808.245
2808.245
2804.352
2804.352
2804.352
2804.352
2658.357
2658.357
2658.357
2658.357
2431.919
2431.919
2431.919
2431.919
2287.741
2287.741
2287.741
2287.741
2161.528
2161.528
2161.528
2161.528
1823.327
1823.327
1823.327
1823.327
1697.381
1697.381
1697.381
1697.381
1425.747
1425.747
1425.747
1425.747
1138.096
1138.096
1138.096
1138.096
960.1562
960.1562
960.1562
960.1562
794.4198
794.4198
794.4198
794.4198
)
;
        qro             uniform 0;
    }
    frontBack
    {
        type            empty;
    }
}


// ************************************************************************* //
