/*--------------------------------*- C++ -*----------------------------------*\
| =========                 |                                                 |
| \\      /  F ield         | OpenFOAM: The Open Source CFD Toolbox           |
|  \\    /   O peration     | Version:  2312                                  |
|   \\  /    A nd           | Website:  www.openfoam.com                      |
|    \\/     M anipulation  |                                                 |
\*---------------------------------------------------------------------------*/
FoamFile
{
    version     2.0;
    format      ascii;
    arch        "LSB;label=32;scalar=64";
    class       volScalarField;
    location    "1500";
    object      T;
}
// * * * * * * * * * * * * * * * * * * * * * * * * * * * * * * * * * * * * * //

dimensions      [0 0 0 1 0 0 0];

internalField   nonuniform List<scalar> 
1920
(
499.2732
493.2853
493.2523
493.2965
493.3429
493.3908
493.4401
493.4906
493.5425
493.5958
493.6504
493.7065
493.7642
493.8238
493.8852
493.9483
494.0131
494.0504
494.0353
493.9545
493.7792
493.4476
492.8237
491.5572
500.3584
493.8508
494.059
494.3714
494.7039
495.0497
495.4074
495.7727
496.1408
496.5051
496.8584
497.1927
497.5005
497.7748
498.0092
498.1974
498.311
498.3167
498.2287
498.0179
497.6239
496.9148
495.564
492.524
501.353
494.2791
494.6794
495.228
495.8132
496.4261
497.0619
497.7104
498.3583
498.9887
499.5826
500.1209
500.5859
500.963
501.2407
501.4106
501.4519
501.4127
501.279
501.0138
500.5368
499.6599
497.8656
493.1548
502.3071
494.6039
495.1299
495.8557
496.6327
497.4471
498.2861
499.1276
499.945
500.707
501.3839
501.9519
502.3973
502.7172
502.9177
503.009
503.0164
502.9672
502.8464
502.6194
502.2077
501.4067
499.5753
493.6735
503.2298
494.8579
495.453
496.3047
497.222
498.1837
499.1637
500.1238
501.0197
501.8075
502.4544
502.9461
503.2893
503.5063
503.6251
503.6677
503.6624
503.6143
503.5102
503.3222
502.9865
502.3248
500.6924
494.1448
504.1172
495.0675
495.6884
496.6271
497.6465
498.7158
499.793
500.8214
501.7413
502.5031
503.0827
503.4862
503.744
503.8957
503.9748
503.9983
503.9871
503.9372
503.8364
503.6598
503.3533
502.7693
501.3381
494.5948
504.9656
495.2537
495.8706
496.8705
497.9674
499.1186
500.2645
501.3303
502.246
502.9652
503.4796
503.817
504.0234
504.1427
504.2039
504.22
504.2041
504.1506
504.0471
503.869
503.5644
503.0007
501.6801
495.0355
505.7726
495.4326
496.029
497.0764
498.2365
499.4519
500.6446
501.7258
502.622
503.2961
503.7578
504.0506
504.2274
504.3294
504.3803
504.3909
504.3709
504.314
504.2073
504.0252
503.7143
503.1448
501.856
495.4729
506.5383
495.6173
496.1898
497.2811
498.4972
499.7625
500.9824
502.0601
502.9257
503.5553
503.9741
504.2351
504.3919
504.4816
504.524
504.5296
504.5059
504.4468
504.3384
504.1536
503.8366
503.2543
501.957
495.9089
507.266
495.8195
496.3781
497.518
498.7857
500.0855
501.3112
502.3664
503.191
503.7754
504.1564
504.3912
504.531
504.609
504.6429
504.6437
504.6175
504.5576
504.4495
504.2647
503.9446
503.3512
502.0344
496.3437
507.9622
496.0518
496.6197
497.8168
499.129
500.4434
501.6511
502.6645
503.4374
503.9739
504.3181
504.5276
504.6501
504.7155
504.7409
504.7376
504.7099
504.651
504.5457
504.364
504.0451
503.4459
502.1145
496.776
508.6349
496.3292
496.9405
498.2001
499.5424
500.846
502.0104
502.9631
503.674
504.1584
504.4642
504.6471
504.7506
504.8027
504.8196
504.8128
504.7851
504.7292
504.6294
504.4545
504.1414
503.5434
502.2092
497.2041
509.2925
496.6689
497.3605
498.6774
500.026
501.2902
502.387
503.2627
503.9024
504.3301
504.5949
504.749
504.8322
504.8703
504.879
504.8696
504.8433
504.7927
504.7015
504.5374
504.2355
503.6462
502.3225
497.6254
509.9397
497.0863
497.8858
499.2403
500.5648
501.7617
502.7706
503.5568
504.1186
504.486
504.7075
504.8312
504.8931
504.9169
504.9179
504.9068
504.8837
504.8408
504.7615
504.6126
504.3276
503.755
502.4543
498.0373
510.5738
497.5878
498.5021
499.8634
501.1328
502.2394
503.1463
503.8352
504.3155
504.6209
504.7982
504.8907
504.9309
504.9404
504.9341
504.9224
504.9041
504.8716
504.8078
504.6789
504.417
503.8692
502.6026
498.4371
511.1822
498.165
499.1778
500.5116
501.6998
502.7006
503.4978
504.0869
504.4854
504.7294
504.8628
504.9243
504.9426
504.9379
504.9251
504.9137
504.9021
504.8826
504.838
504.7341
504.5019
503.9872
502.7642
498.8224
511.7412
498.7948
499.873
501.1489
502.2376
503.125
503.8111
504.3021
504.6216
504.8067
504.8976
504.9286
504.9251
504.9064
504.8877
504.8776
504.8744
504.8704
504.8488
504.7751
504.5795
504.1065
502.9355
499.1908
512.2207
499.4463
500.5502
501.7451
502.7248
503.4979
504.076
504.4739
504.7194
504.8491
504.8995
504.9005
504.8752
504.8424
504.8188
504.811
504.8177
504.8318
504.8368
504.7986
504.6467
504.2242
503.1129
499.5405
512.5931
500.089
501.18
502.2796
503.1479
503.8104
504.287
504.5987
504.7762
504.8546
504.8665
504.8382
504.7911
504.7444
504.716
504.7111
504.7291
504.7633
504.7982
504.8004
504.6996
504.3367
503.2932
499.87
512.8466
500.698
501.7439
502.7413
503.501
504.0597
504.4428
504.6761
504.7917
504.8227
504.7976
504.7402
504.6711
504.6103
504.5774
504.5762
504.6064
504.6623
504.7296
504.7768
504.734
504.4406
503.4732
500.1783
512.9936
501.2563
502.2325
503.1269
503.7842
504.2472
504.5451
504.7077
504.7671
504.7536
504.6926
504.6059
504.5145
504.44
504.4032
504.4063
504.4491
504.5271
504.6283
504.7239
504.7459
504.5319
503.65
500.4646
513.0718
501.7553
502.6447
503.4391
504.0014
504.3769
504.5978
504.6964
504.7041
504.6484
504.5521
504.4362
504.3229
504.2353
504.1959
504.2038
504.259
504.3584
504.4933
504.639
504.7314
504.6067
503.8211
500.7287
513.1354
502.194
502.9846
503.6841
504.159
504.4546
504.6056
504.6459
504.6057
504.5095
504.3786
504.2344
504.1004
504.002
503.962
503.9754
504.0416
504.1597
504.3253
504.5205
504.6869
504.6612
503.9843
500.9706
513.242
502.5768
503.26
503.8697
504.2639
504.4861
504.5734
504.5603
504.4752
504.3405
504.1766
504.0063
503.8552
503.7503
503.7133
503.7328
503.8073
503.9384
504.1285
504.3687
504.61
504.6919
504.1372
501.1907
513.4403
502.9118
503.4799
504.0042
504.3229
504.4773
504.5063
504.4442
504.3173
504.1466
503.9533
503.7621
503.6009
503.497
503.4683
503.4941
503.5718
503.7069
503.9106
504.1868
504.4997
504.6956
504.2778
501.3894
513.7624
503.2077
503.6534
504.0948
504.3421
504.4336
504.4093
504.3025
504.1377
503.9356
503.7193
503.5166
503.3573
503.2666
503.2527
503.2841
503.3572
503.483
503.684
503.9811
504.3571
504.6699
504.4041
501.5674
514.2205
503.4716
503.7879
504.1477
504.3268
504.3601
504.2876
504.141
503.9437
503.7175
503.4892
503.2903
503.1514
503.0907
503.0983
503.1324
503.19
503.2889
503.4654
503.7617
504.1856
504.6134
504.5142
501.7253
514.8057
503.7068
503.8885
504.1676
504.2817
504.2618
504.1466
503.9663
503.744
503.5049
503.2811
503.1084
503.0152
503.0045
503.0371
503.0684
503.0977
503.1494
503.275
503.5423
503.9915
504.5262
504.6062
501.8641
515.4895
503.9132
503.9585
504.1582
504.211
504.1434
503.9921
503.7856
503.5488
503.3123
503.1153
502.9975
502.9796
503.0358
503.0904
503.1117
503.1016
503.0874
503.1341
503.3392
503.7839
504.41
504.6785
501.9845
516.2271
504.0875
503.9997
504.1226
504.1189
504.01
503.8299
503.6065
503.3685
503.1542
503.0107
502.9791
503.0623
503.1874
503.2539
503.2612
503.2085
503.1176
503.0615
503.1699
503.5746
504.2687
504.73
502.0875
516.9625
504.2252
504.0132
504.064
504.0097
503.8667
503.6661
503.4367
503.213
503.0425
502.9797
503.0602
503.2531
503.422
503.4895
503.4884
503.4042
503.2407
503.0691
503.0505
503.3767
504.1081
504.7596
502.1739
517.6359
504.3226
504.0007
503.9856
503.8876
503.7182
503.5062
503.2827
503.0897
502.9842
503.0237
503.226
503.5071
503.6702
503.7363
503.7437
503.6542
503.4404
503.1581
502.9927
503.2037
503.9357
504.7672
502.2446
518.1924
504.3783
503.9642
503.891
503.7569
503.5692
503.3551
503.1496
503.0031
502.98
503.1323
503.4424
503.7594
503.8651
503.9387
503.9775
503.915
503.6864
503.3167
503.0013
503.0673
503.7605
504.7531
502.3007
518.5897
504.3937
503.9068
503.7841
503.6216
503.4235
503.2164
503.0405
502.9536
503.0216
503.2757
503.6384
503.9022
503.9751
504.0698
504.1592
504.1509
503.9441
503.5234
503.0726
502.9761
503.592
504.7187
502.3431
518.8031
504.3728
503.8319
503.6686
503.4854
503.2843
503.0928
502.9561
502.9371
503.0939
503.4187
503.7677
503.9393
504.0027
504.1315
504.2832
504.3443
504.1859
503.7521
503.1954
502.9343
503.4393
504.6658
502.3729
518.8281
504.3212
503.7436
503.5479
503.351
503.1538
502.9853
502.8952
502.9469
503.1793
503.5329
503.8154
503.898
503.9663
504.139
504.3591
504.4945
504.3971
503.9798
503.3535
502.9407
503.3103
504.5972
502.3914
518.6779
504.2457
503.6455
503.425
503.2208
503.0335
502.8939
502.8548
502.9741
503.2608
503.5993
503.7856
503.8008
503.8852
504.1087
504.4007
504.61
504.5755
504.1913
503.5297
502.9902
503.2112
504.5161
502.4
518.3801
504.1528
503.541
503.3023
503.0963
502.9239
502.8176
502.8309
503.0096
503.3242
503.6106
503.6939
503.6666
503.7745
504.0539
504.4201
504.7012
504.726
504.3801
503.7089
503.074
503.1456
504.4262
502.4004
517.9698
504.0485
503.4331
503.1819
502.9786
502.8248
502.7545
502.8186
503.0449
503.3606
503.5701
503.5594
503.5104
503.6461
503.9847
504.4266
504.777
504.8557
504.5461
503.881
503.1821
503.1147
504.3315
502.3946
517.4852
503.9379
503.3242
503.065
502.868
502.7357
502.7022
502.8134
503.0732
503.3669
503.4883
503.4007
503.3457
503.5101
503.9092
504.4272
504.8443
504.9711
504.6928
504.0405
503.3047
503.1175
504.2361
502.3849
516.962
503.825
503.2162
502.9527
502.7647
502.6554
502.6582
502.8107
503.0904
503.3455
503.3795
503.2347
503.1848
503.3751
503.8345
504.4276
504.9081
505.0773
504.8243
504.1911
503.4321
503.1483
504.1459
502.3739
516.4308
503.7127
503.1104
502.8453
502.6682
502.5825
502.6199
502.8074
503.0952
503.303
503.2588
503.0759
503.0384
503.2488
503.7667
504.4323
504.9723
505.1779
504.9499
504.3357
503.5588
503.1956
504.0746
502.3599
515.9158
503.6032
503.0079
502.7433
502.5781
502.5157
502.5848
502.8009
503.0886
503.2481
503.14
502.9355
502.9145
503.1373
503.7111
504.4453
505.0399
505.2762
505.0738
504.4739
503.6837
503.2553
504.0273
502.3443
515.434
503.4977
502.9094
502.6467
502.4937
502.4533
502.5508
502.79
503.0733
503.1896
503.0327
502.8152
502.8171
503.0453
503.6716
504.4699
505.1132
505.377
505.1963
504.6068
503.8069
503.3268
504.0059
502.3317
514.996
503.3971
502.8153
502.5553
502.4143
502.3941
502.5162
502.7738
503.0524
503.1365
502.9525
502.7513
502.7461
502.9762
503.6512
504.5085
505.1932
505.4833
505.3191
504.7359
503.9294
503.4108
504.013
502.3271
514.6073
503.3017
502.7259
502.4692
502.3393
502.3368
502.4795
502.7522
503.0291
503.0962
502.9096
502.7495
502.6982
502.9317
503.6519
504.5618
505.2806
505.5986
505.4439
504.8629
504.0531
503.5098
504.0529
502.3362
514.2691
503.2116
502.6414
502.388
502.2679
502.2804
502.4396
502.7245
503.0048
503.0709
502.8999
502.7938
502.6695
502.9123
503.6736
504.623
505.3857
505.7244
505.5724
504.9903
504.1813
503.6279
504.1312
502.3657
513.9801
503.1268
502.5619
502.3118
502.1999
502.2241
502.3954
502.6902
502.979
503.0579
502.9084
502.8405
502.6576
502.9107
503.7051
504.7077
505.5097
505.862
505.7066
505.1216
504.3192
503.7716
504.2556
502.4227
513.7371
503.0471
502.4875
502.2403
502.1349
502.1675
502.3465
502.6482
502.9495
503.0532
502.9229
502.8419
502.6504
502.9162
503.7588
504.8165
505.6533
506.0122
505.8489
505.2617
504.4743
503.9499
504.4354
502.5157
513.5363
502.9724
502.4182
502.1737
502.0728
502.1104
502.2925
502.5983
502.9133
503.0388
502.9481
502.8311
502.6304
502.9309
503.8349
504.9497
505.8163
506.1759
506.0025
505.4175
504.6566
504.1745
504.6814
502.654
513.3739
502.9025
502.354
502.1118
502.0137
502.0531
502.2364
502.5414
502.8578
503.0025
502.9581
502.7959
502.5996
502.9565
503.9341
505.1068
505.9979
506.3539
506.1716
505.5976
504.8789
504.4592
505.0054
502.8481
513.2466
502.8373
502.2951
502.0549
501.9578
501.9975
502.1772
502.4736
502.7824
502.9392
502.9281
502.7294
502.5603
502.9957
504.0569
505.2863
506.1967
506.5468
506.3614
505.8128
505.1561
504.8193
505.4186
503.1089
513.1525
502.7767
502.2414
502.0028
501.9055
501.9433
502.1152
502.3963
502.6889
502.8478
502.8502
502.6335
502.5184
503.0523
504.2033
505.4859
506.4106
506.7556
506.578
506.0748
505.5038
505.2697
505.9306
503.448
513.091
502.721
502.1929
501.9553
501.8575
501.8912
502.0518
502.3119
502.5808
502.7313
502.7318
502.5181
502.4827
503.13
504.3724
505.7026
506.6372
506.9815
506.8278
506.3953
505.9362
505.8225
506.5475
503.8767
513.0633
502.6704
502.1487
501.9135
501.8146
501.8423
501.9884
502.2233
502.4628
502.5965
502.5877
502.3968
502.4624
503.2323
504.5628
505.9329
506.8742
507.2255
507.1162
506.7833
506.4635
506.4847
507.2706
504.4059
513.0699
502.6279
502.1108
501.8781
501.7775
501.7976
501.9268
502.1337
502.3404
502.4524
502.4336
502.2832
502.4659
503.3613
504.7725
506.1731
507.1192
507.4881
507.4463
507.2433
507.0891
507.2562
508.0959
505.0447
513.0994
502.6128
502.0804
501.8498
501.7471
501.7583
501.8692
502.0465
502.2196
502.3084
502.2832
502.1894
502.5006
503.5188
504.9992
506.4204
507.3702
507.7688
507.818
507.7732
507.8079
508.129
509.0145
505.7996
513.1539
502.6325
502.0597
501.8296
501.7244
501.7261
501.8177
501.9655
502.1062
502.174
502.1483
502.1264
502.5728
503.7057
505.2413
506.6724
507.6257
508.0658
508.2266
508.3635
508.6062
509.0877
510.0134
506.6733
513.2368
502.6955
502.0521
501.8193
501.7112
501.7029
501.7753
501.895
502.0065
502.0581
502.0398
502.1043
502.6876
503.923
505.4979
506.9281
507.8845
508.3758
508.6637
508.9987
509.4629
510.1114
511.0779
507.664
513.352
502.8115
502.0636
501.8217
501.7097
501.6915
501.7457
501.8401
501.9278
501.9706
501.969
502.1329
502.8496
504.1718
505.769
507.1877
508.146
508.6947
509.1182
509.6593
510.3533
511.1771
512.1922
508.7643
513.5041
502.9904
502.1024
501.8416
501.7239
501.6961
501.734
501.8075
501.8788
501.9224
501.9484
502.2218
503.0633
504.4537
506.0558
507.4523
508.4101
509.018
509.5783
510.3253
511.2525
512.2615
513.3409
509.9619
513.6984
503.242
502.18
501.8865
501.7597
501.7228
501.7475
501.8063
501.8706
501.9263
501.9919
502.38
503.3325
504.7707
506.3601
507.724
508.6771
509.342
510.0338
510.9795
512.1384
513.3434
514.5093
511.2396
513.9404
503.5756
502.3101
501.9672
501.8263
501.7808
501.7963
501.8483
501.9163
501.9966
502.1139
502.6157
503.661
505.125
506.6844
508.0052
508.9483
509.6647
510.4777
511.6094
512.9944
514.4053
515.6831
512.5773
514.236
503.9986
502.5087
502.098
501.9363
501.8823
501.8937
501.9477
502.0316
502.1489
502.3282
502.9359
504.0518
505.5188
507.0311
508.2988
509.2257
509.9858
510.9071
512.2085
513.8096
515.4334
516.8488
513.9531
514.5913
504.5174
502.7922
502.2959
502.1058
502.0433
502.0559
502.1216
502.2328
502.398
502.6466
503.3455
504.5068
505.9536
507.4024
508.6073
509.5117
510.3074
511.3231
512.7762
514.5795
516.418
517.9936
515.3447
515.012
505.136
503.1764
502.5798
502.3536
502.2823
502.3013
502.3874
502.5358
502.7567
503.0765
503.8466
505.0268
506.4304
507.8002
508.9337
509.8099
510.6335
511.7305
513.3167
515.3045
517.3535
519.106
516.7309
515.5033
505.8573
503.6752
502.9683
502.6995
502.6189
502.6487
502.7622
502.9545
503.2342
503.6211
504.439
505.6112
506.9494
508.2261
509.2808
510.1245
510.9702
512.137
513.8379
515.9897
518.2378
520.1758
518.0927
516.0698
506.6823
504.2994
503.4786
503.1625
503.072
503.1154
503.2603
503.4987
503.8351
504.2799
505.121
506.2585
507.5105
508.6817
509.6525
510.4613
511.3252
512.5526
514.3509
516.6434
519.0722
521.195
519.4135
516.7148
507.6112
505.0569
504.1246
503.7591
503.658
503.7155
503.8919
504.1738
504.5593
505.051
505.8898
506.9663
508.1128
509.1689
510.0533
510.8276
511.7087
512.99
514.8694
517.2771
519.8614
522.1584
520.6803
517.4407
508.6436
505.9523
504.9168
504.5022
504.3892
504.4589
504.6629
504.9805
505.4026
505.9243
506.7357
507.7282
508.7551
509.6911
510.4903
511.2336
512.1336
513.4646
515.41
517.9055
520.6135
523.064
521.8828
518.2483
509.7796
506.9888
505.8628
505.4012
505.2744
505.3517
505.5751
505.9162
506.3582
506.8893
507.6498
508.5403
509.4388
510.2549
510.9744
511.6936
512.6174
513.9959
515.9927
518.5466
521.3407
523.9138
523.0148
519.1373
511.0206
508.1694
506.9688
506.4637
506.3201
506.3974
506.6286
506.9771
507.4195
507.9379
508.6276
509.4032
510.1702
510.8719
511.5224
512.229
513.1844
514.6098
516.6431
519.2235
522.0598
524.7143
524.0733
520.1063
512.3718
509.5003
508.243
507.6985
507.5339
507.601
507.825
508.1622
508.5834
509.0666
509.6691
510.3231
510.9629
511.5632
512.1619
512.8723
513.8698
515.3414
517.3945
519.9656
522.7935
525.4776
525.059
521.1533
513.8447
510.9954
509.7008
509.121
508.9294
508.9739
509.1733
509.4786
509.8567
510.2833
510.7875
511.321
511.8466
512.3672
512.9392
513.675
514.7262
516.2409
518.2916
520.8112
523.5717
526.2219
525.9767
522.2771
515.4619
512.6836
511.374
510.763
510.5375
510.5449
510.701
510.9536
511.2681
511.6201
512.0217
512.446
512.8826
513.3571
513.9359
514.7216
515.8351
517.3809
519.396
521.8106
524.4335
526.9725
526.8352
523.4793
517.2628
514.6192
513.3239
512.6896
512.4244
512.3815
512.4773
512.6599
512.896
513.1638
513.4712
513.813
514.2008
514.6737
515.2963
516.1512
517.3212
518.8665
520.7923
523.0305
525.4293
527.7632
527.6482
524.7688
519.3174
516.902
515.6685
515.0307
514.73
514.6327
514.6618
514.7703
514.9297
515.1246
515.3687
515.675
516.0668
516.583
517.2734
518.1899
519.3754
520.8506
522.5982
524.5594
526.6244
528.6376
528.4345
526.1738
521.7318
519.6951
518.6156
518.0319
517.7338
517.6112
517.6011
517.6671
517.7903
517.9642
518.2053
518.5327
518.9679
519.5362
520.2626
521.1667
522.2581
523.5318
524.9624
526.5081
528.1006
529.6513
529.2193
527.7815
524.6972
523.2619
522.4989
522.0964
521.9074
521.8553
521.898
522.0137
522.1937
522.4388
522.7494
523.1279
523.5835
524.1236
524.7523
525.4692
526.2684
527.1384
528.0605
529.0126
529.9621
530.8736
530.0349
529.9404
528.5673
528.0138
527.8027
527.7807
527.8717
528.0372
528.2574
528.5229
528.831
529.1832
529.5315
529.8704
530.2024
530.5281
530.8464
531.1542
531.4466
531.7166
531.9559
532.1547
532.3026
532.382
530.9226
)
;

boundaryField
{
    plate
    {
        type            fixedValue;
        value           uniform 663.15;
    }
    riser
    {
        type            fixedValue;
        value           uniform 433.15;
    }
    adiabatic
    {
        type            zeroGradient;
    }
    frontBack
    {
        type            empty;
    }
}


// ************************************************************************* //
