/*--------------------------------*- C++ -*----------------------------------*\
| =========                 |                                                 |
| \\      /  F ield         | OpenFOAM: The Open Source CFD Toolbox           |
|  \\    /   O peration     | Version:  2312                                  |
|   \\  /    A nd           | Website:  www.openfoam.com                      |
|    \\/     M anipulation  |                                                 |
\*---------------------------------------------------------------------------*/
FoamFile
{
    version     2.0;
    format      ascii;
    arch        "LSB;label=32;scalar=64";
    class       volVectorField;
    location    "1500";
    object      U;
}
// * * * * * * * * * * * * * * * * * * * * * * * * * * * * * * * * * * * * * //

dimensions      [0 1 -1 0 0 0 0];

internalField   nonuniform List<vector> 
1920
(
(-0.05477788 0.03503657 0)
(-0.08206534 0.01490545 0)
(-0.1137656 0.01353128 0)
(-0.1415788 0.01319846 0)
(-0.1689219 0.01239307 0)
(-0.1943543 0.01162343 0)
(-0.2184398 0.01076381 0)
(-0.240846 0.009830667 0)
(-0.2615003 0.008787817 0)
(-0.280152 0.00763311 0)
(-0.2965936 0.006373319 0)
(-0.3106155 0.005030078 0)
(-0.3220511 0.003626436 0)
(-0.3307602 0.002175681 0)
(-0.3366184 0.0006625205 0)
(-0.3394611 -0.0009954801 0)
(-0.3388931 -0.002891609 0)
(-0.334726 -0.005124247 0)
(-0.3264828 -0.008000364 0)
(-0.3128275 -0.01218291 0)
(-0.2915095 -0.0188128 0)
(-0.2577365 -0.0299594 0)
(-0.195759 -0.05002675 0)
(-0.106301 -0.09877263 0)
(-0.0401787 0.07836959 0)
(-0.06260689 0.04037072 0)
(-0.09513445 0.03642084 0)
(-0.1195242 0.03457086 0)
(-0.1437643 0.03251144 0)
(-0.1656285 0.03070509 0)
(-0.1861265 0.02881681 0)
(-0.2048324 0.02682264 0)
(-0.221703 0.02460644 0)
(-0.2364479 0.02214072 0)
(-0.2488472 0.0194182 0)
(-0.2586869 0.01646556 0)
(-0.2658219 0.01331044 0)
(-0.2701589 0.009965691 0)
(-0.2716725 0.006403382 0)
(-0.270267 0.00250815 0)
(-0.2659022 -0.001660462 0)
(-0.2587007 -0.006125547 0)
(-0.2478471 -0.01157435 0)
(-0.2324954 -0.01914558 0)
(-0.2111369 -0.03099352 0)
(-0.1805169 -0.05113152 0)
(-0.1329563 -0.08711994 0)
(-0.05821134 -0.1756685 0)
(-0.03201395 0.11834 0)
(-0.04886574 0.0645906 0)
(-0.07572623 0.05845044 0)
(-0.09510082 0.05436975 0)
(-0.1152612 0.05065562 0)
(-0.1332111 0.04727261 0)
(-0.1501996 0.04373334 0)
(-0.1656111 0.03990831 0)
(-0.1794255 0.03559295 0)
(-0.1913092 0.03074821 0)
(-0.2010607 0.0253973 0)
(-0.2084927 0.01964624 0)
(-0.2135041 0.01362213 0)
(-0.2160369 0.00743714 0)
(-0.2160907 0.00114812 0)
(-0.2133793 -0.005246263 0)
(-0.2081777 -0.01188343 0)
(-0.1998106 -0.019369 0)
(-0.1879771 -0.02863961 0)
(-0.1720927 -0.04103678 0)
(-0.1516236 -0.05926076 0)
(-0.1243915 -0.08882006 0)
(-0.089535 -0.1402147 0)
(-0.03369471 -0.2468997 0)
(-0.0266768 0.1485198 0)
(-0.03823311 0.0817625 0)
(-0.0589731 0.07459428 0)
(-0.07354482 0.06934519 0)
(-0.08996425 0.06481497 0)
(-0.104678 0.06063387 0)
(-0.1191423 0.05627131 0)
(-0.1325122 0.0515324 0)
(-0.1447679 0.04616427 0)
(-0.1554577 0.0401457 0)
(-0.1643106 0.0335344 0)
(-0.1710508 0.02647621 0)
(-0.1755051 0.0190963 0)
(-0.1775456 0.01143849 0)
(-0.1770986 0.003410968 0)
(-0.1739145 -0.005167622 0)
(-0.1679313 -0.01440956 0)
(-0.1585319 -0.02472856 0)
(-0.1455998 -0.03693453 0)
(-0.1288237 -0.05248658 0)
(-0.1084629 -0.07416884 0)
(-0.08328807 -0.1077829 0)
(-0.05781786 -0.1672411 0)
(-0.01881008 -0.2858548 0)
(-0.02306396 0.173279 0)
(-0.03031882 0.094331 0)
(-0.04581695 0.08688851 0)
(-0.05659232 0.08133907 0)
(-0.07024869 0.07664457 0)
(-0.08290925 0.07215511 0)
(-0.09618772 0.06730448 0)
(-0.1089684 0.06178375 0)
(-0.1211744 0.05524011 0)
(-0.1321519 0.04762362 0)
(-0.1414941 0.03900988 0)
(-0.1487733 0.02962288 0)
(-0.1536888 0.01969964 0)
(-0.1559852 0.009421063 0)
(-0.1554412 -0.001165794 0)
(-0.1517045 -0.01208548 0)
(-0.1448654 -0.02390233 0)
(-0.1345999 -0.03709088 0)
(-0.1208417 -0.05236112 0)
(-0.1034208 -0.07098701 0)
(-0.08287223 -0.09547622 0)
(-0.05846794 -0.1304155 0)
(-0.03664706 -0.1911417 0)
(-0.009310089 -0.3118916 0)
(-0.02062898 0.1941462 0)
(-0.02474693 0.1029961 0)
(-0.03607699 0.09580906 0)
(-0.04407905 0.09084267 0)
(-0.05583568 0.08678922 0)
(-0.06731397 0.08276763 0)
(-0.08019435 0.07816696 0)
(-0.09305715 0.07255337 0)
(-0.1057199 0.0654966 0)
(-0.1172899 0.0569599 0)
(-0.1272125 0.04708234 0)
(-0.1349107 0.03616406 0)
(-0.1399921 0.02445647 0)
(-0.1421668 0.0120691 0)
(-0.1412149 -0.001079954 0)
(-0.1370726 -0.01506127 0)
(-0.1297475 -0.02992424 0)
(-0.1190851 -0.04615607 0)
(-0.1051133 -0.06448481 0)
(-0.08785038 -0.08606721 0)
(-0.06778635 -0.1132463 0)
(-0.04477869 -0.1492616 0)
(-0.02386825 -0.2088216 0)
(-0.003591472 -0.3266275 0)
(-0.01894531 0.2123009 0)
(-0.02098176 0.108879 0)
(-0.0292926 0.1023429 0)
(-0.03553966 0.09873396 0)
(-0.0462383 0.09598854 0)
(-0.05730508 0.09300404 0)
(-0.0703698 0.08905269 0)
(-0.08369817 0.0835146 0)
(-0.09696868 0.075848 0)
(-0.1090586 0.06600069 0)
(-0.1193027 0.0541747 0)
(-0.1270498 0.04079781 0)
(-0.1319254 0.02629823 0)
(-0.1337198 0.01103057 0)
(-0.1323106 -0.004778229 0)
(-0.1276997 -0.02114992 0)
(-0.1199638 -0.03855543 0)
(-0.1090317 -0.05737797 0)
(-0.09499419 -0.07826421 0)
(-0.07810608 -0.1022011 0)
(-0.05868193 -0.1313485 0)
(-0.03742092 -0.1680979 0)
(-0.01675131 -0.2252137 0)
(-0.0004260736 -0.3358788 0)
(-0.01772689 0.2286333 0)
(-0.01856703 0.1129548 0)
(-0.02496017 0.1073665 0)
(-0.03039254 0.1057746 0)
(-0.04077465 0.1048909 0)
(-0.05200854 0.1033927 0)
(-0.06554198 0.1003785 0)
(-0.07936223 0.09504499 0)
(-0.09303608 0.08680244 0)
(-0.1053167 0.07567278 0)
(-0.1155497 0.06203328 0)
(-0.1231251 0.04651378 0)
(-0.1277443 0.02968255 0)
(-0.1292354 0.01191263 0)
(-0.1274764 -0.006651036 0)
(-0.122475 -0.02596838 0)
(-0.1143669 -0.04619377 0)
(-0.1031735 -0.06769869 0)
(-0.08903854 -0.09108291 0)
(-0.0724385 -0.1171983 0)
(-0.05348232 -0.1479876 0)
(-0.03369165 -0.1855006 0)
(-0.01331347 -0.240259 0)
(0.0009690224 -0.3418785 0)
(-0.01678122 0.243757 0)
(-0.01713212 0.1160592 0)
(-0.02264273 0.111702 0)
(-0.02815151 0.112661 0)
(-0.03890004 0.1140126 0)
(-0.05077509 0.1142086 0)
(-0.06494325 0.1121428 0)
(-0.07921294 0.1068691 0)
(-0.09310576 0.09781399 0)
(-0.1053659 0.08511307 0)
(-0.1154143 0.06933086 0)
(-0.1227005 0.05128216 0)
(-0.1269736 0.03169369 0)
(-0.1280828 0.01110277 0)
(-0.1259329 -0.01013679 0)
(-0.1205692 -0.03198468 0)
(-0.1121115 -0.05474288 0)
(-0.1006343 -0.07867518 0)
(-0.0863103 -0.1042653 0)
(-0.0697959 -0.1322255 0)
(-0.05104251 -0.164233 0)
(-0.03216209 -0.2022494 0)
(-0.01214239 -0.254804 0)
(0.001196868 -0.3466939 0)
(-0.01597674 0.2580924 0)
(-0.01639679 0.1189145 0)
(-0.02201135 0.1161362 0)
(-0.02844937 0.1200526 0)
(-0.0401674 0.1238129 0)
(-0.05302874 0.1256798 0)
(-0.06787872 0.1243806 0)
(-0.08248239 0.1189301 0)
(-0.09639125 0.1088631 0)
(-0.108444 0.09449013 0)
(-0.118187 0.07659575 0)
(-0.1251562 0.05617663 0)
(-0.1291439 0.03406777 0)
(-0.1299834 0.01083447 0)
(-0.1275329 -0.01318727 0)
(-0.1218029 -0.03784314 0)
(-0.1129327 -0.06327278 0)
(-0.1010624 -0.08967367 0)
(-0.08638703 -0.1174244 0)
(-0.06968731 -0.1471142 0)
(-0.05083346 -0.1801545 0)
(-0.03225744 -0.2184682 0)
(-0.01245726 -0.2690164 0)
(0.0006619501 -0.351415 0)
(-0.01521663 0.2719237 0)
(-0.01618179 0.1221673 0)
(-0.02287936 0.1214289 0)
(-0.0310411 0.1285467 0)
(-0.04421488 0.1346439 0)
(-0.05827108 0.1379197 0)
(-0.0737807 0.1370297 0)
(-0.08861011 0.1310729 0)
(-0.10241 0.1197529 0)
(-0.1141829 0.1035671 0)
(-0.1236087 0.08348092 0)
(-0.1302883 0.0606079 0)
(-0.1340121 0.03585128 0)
(-0.134576 0.009852298 0)
(-0.1318085 -0.01692356 0)
(-0.1257008 -0.04428033 0)
(-0.1163796 -0.07232552 0)
(-0.1040195 -0.1011417 0)
(-0.0888377 -0.1309751 0)
(-0.07169441 -0.1622824 0)
(-0.0524525 -0.1962223 0)
(-0.03366462 -0.2346215 0)
(-0.01379677 -0.2832626 0)
(-0.0003592756 -0.3568613 0)
(-0.01441652 0.2854495 0)
(-0.0164176 0.1264492 0)
(-0.02519429 0.1283066 0)
(-0.03573098 0.1386373 0)
(-0.05067346 0.1467322 0)
(-0.0659841 0.1509605 0)
(-0.08208191 0.1500251 0)
(-0.09704628 0.1432229 0)
(-0.110675 0.1304574 0)
(-0.1221634 0.1124084 0)
(-0.131313 0.09017823 0)
(-0.1377721 0.06494523 0)
(-0.1413111 0.03763351 0)
(-0.141673 0.008899825 0)
(-0.13862 -0.0207514 0)
(-0.1320997 -0.05097368 0)
(-0.1222464 -0.08174785 0)
(-0.1092657 -0.1130499 0)
(-0.0933995 -0.1449936 0)
(-0.07555577 -0.1778982 0)
(-0.0556387 -0.2126989 0)
(-0.03621136 -0.2510487 0)
(-0.01590265 -0.2978507 0)
(-0.001691392 -0.3635608 0)
(-0.0134928 0.2988293 0)
(-0.01714492 0.1324231 0)
(-0.02895909 0.1374068 0)
(-0.042262 0.150648 0)
(-0.0590911 0.1601595 0)
(-0.07559728 0.1647611 0)
(-0.09220903 0.163299 0)
(-0.1072739 0.1553373 0)
(-0.1207619 0.1409722 0)
(-0.1320537 0.1210291 0)
(-0.1410424 0.09667532 0)
(-0.1473905 0.06908486 0)
(-0.1508208 0.03916528 0)
(-0.1510139 0.007605495 0)
(-0.1476747 -0.02498952 0)
(-0.1407113 -0.05814628 0)
(-0.1302578 -0.09173212 0)
(-0.116537 -0.1255942 0)
(-0.09981707 -0.1596997 0)
(-0.08103871 -0.1942173 0)
(-0.06017251 -0.2298791 0)
(-0.0397536 -0.268105 0)
(-0.01860798 -0.3131258 0)
(-0.00322225 -0.3719119 0)
(-0.01237067 0.3122254 0)
(-0.0184774 0.1407731 0)
(-0.03408546 0.1491894 0)
(-0.05022681 0.1646927 0)
(-0.0689015 0.1748887 0)
(-0.08648812 0.1792524 0)
(-0.1035798 0.1768241 0)
(-0.1187871 0.1674514 0)
(-0.1322547 0.1513913 0)
(-0.143512 0.1295633 0)
(-0.1525058 0.103132 0)
(-0.1588832 0.07321485 0)
(-0.1623066 0.04067468 0)
(-0.1623924 0.006213387 0)
(-0.1587823 -0.02949006 0)
(-0.1513422 -0.06575617 0)
(-0.1402112 -0.1023109 0)
(-0.1256269 -0.1388684 0)
(-0.107885 -0.175242 0)
(-0.08795335 -0.2114395 0)
(-0.06587584 -0.2480047 0)
(-0.04416301 -0.2860951 0)
(-0.02179568 -0.3294104 0)
(-0.004880614 -0.3822073 0)
(-0.01101438 0.3258281 0)
(-0.02051198 0.1521169 0)
(-0.04027944 0.1638642 0)
(-0.05907568 0.1807032 0)
(-0.07947121 0.1908229 0)
(-0.09803994 0.1943842 0)
(-0.1156521 0.1906358 0)
(-0.1311334 0.1796732 0)
(-0.1447856 0.1618679 0)
(-0.1562336 0.138169 0)
(-0.1654368 0.1096717 0)
(-0.1720009 0.07739166 0)
(-0.1755224 0.04213365 0)
(-0.1755586 0.004628064 0)
(-0.1716935 -0.0343424 0)
(-0.1637507 -0.07389022 0)
(-0.1518732 -0.1135889 0)
(-0.1363142 -0.1530051 0)
(-0.117395 -0.1917857 0)
(-0.09611288 -0.2297658 0)
(-0.07258167 -0.2673062 0)
(-0.04931023 -0.3052978 0)
(-0.02537006 -0.3470056 0)
(-0.006618317 -0.3946725 0)
(-0.009465764 0.3398542 0)
(-0.0232347 0.1668823 0)
(-0.04706544 0.1813852 0)
(-0.06821754 0.1985075 0)
(-0.0901953 0.2078679 0)
(-0.1097162 0.2101623 0)
(-0.1279728 0.2048432 0)
(-0.1439424 0.1921813 0)
(-0.1580468 0.1726118 0)
(-0.1699495 0.1470481 0)
(-0.1795836 0.1164681 0)
(-0.1864969 0.08176354 0)
(-0.1902208 0.04367697 0)
(-0.190261 0.002966466 0)
(-0.1861567 -0.03949707 0)
(-0.1776909 -0.0825629 0)
(-0.1650041 -0.1256266 0)
(-0.1483706 -0.1681054 0)
(-0.1281349 -0.2094694 0)
(-0.1053277 -0.2493708 0)
(-0.08012575 -0.2879873 0)
(-0.05506349 -0.3259557 0)
(-0.02924532 -0.3661748 0)
(-0.008399725 -0.4094764 0)
(-0.007870145 0.3545301 0)
(-0.02650236 0.1852201 0)
(-0.05393048 0.2015136 0)
(-0.07714281 0.2179128 0)
(-0.1005898 0.225972 0)
(-0.1211169 0.2266615 0)
(-0.1402095 0.2196229 0)
(-0.1569376 0.2052085 0)
(-0.1717936 0.1838675 0)
(-0.1844293 0.1564157 0)
(-0.1947223 0.12368 0)
(-0.202151 0.0864181 0)
(-0.2061715 0.04532313 0)
(-0.206241 0.001205352 0)
(-0.2018811 -0.04498407 0)
(-0.1928756 -0.09181721 0)
(-0.1793238 -0.138494 0)
(-0.1615333 -0.1842654 0)
(-0.1398655 -0.2284178 0)
(-0.1153883 -0.2704086 0)
(-0.08833305 -0.3102271 0)
(-0.0612836 -0.3482765 0)
(-0.03333755 -0.3871386 0)
(-0.01019468 -0.4267388 0)
(-0.006474648 0.3700896 0)
(-0.0301103 0.2069904 0)
(-0.06046863 0.2239045 0)
(-0.08549694 0.2387514 0)
(-0.1103341 0.2451322 0)
(-0.1319835 0.24401 0)
(-0.1521306 0.2351866 0)
(-0.169891 0.2190027 0)
(-0.1857682 0.1958771 0)
(-0.1993677 0.1664819 0)
(-0.2104957 0.1314772 0)
(-0.21857 0.09148683 0)
(-0.2229872 0.04715808 0)
(-0.2231875 -0.0006592337 0)
(-0.2185122 -0.05083202 0)
(-0.2089523 -0.10168 0)
(-0.194496 -0.1522394 0)
(-0.1754888 -0.2015567 0)
(-0.1523075 -0.2487267 0)
(-0.1260549 -0.2930009 0)
(-0.09700911 -0.3341704 0)
(-0.06782031 -0.3724262 0)
(-0.03756007 -0.4100679 0)
(-0.0119743 -0.4465315 0)
(-0.00558688 0.3867972 0)
(-0.03387369 0.2318082 0)
(-0.06644094 0.2481746 0)
(-0.09308814 0.2608896 0)
(-0.1192626 0.2653783 0)
(-0.1421761 0.2623553 0)
(-0.1635816 0.2517377 0)
(-0.1826091 0.2337761 0)
(-0.1997155 0.2088239 0)
(-0.2144418 0.1773827 0)
(-0.2265172 0.1399505 0)
(-0.2353081 0.09703222 0)
(-0.2401651 0.04923835 0)
(-0.240479 -0.002555939 0)
(-0.2356069 -0.05701671 0)
(-0.2254759 -0.1121658 0)
(-0.2101047 -0.1668908 0)
(-0.1898552 -0.220023 0)
(-0.1651248 -0.2704563 0)
(-0.1370448 -0.3172285 0)
(-0.1059309 -0.3599182 0)
(-0.07450747 -0.3985219 0)
(-0.0418194 -0.4350785 0)
(-0.01370831 -0.4688762 0)
(-0.005490029 0.4049695 0)
(-0.03765623 0.2591185 0)
(-0.0717506 0.2739435 0)
(-0.09984773 0.2842189 0)
(-0.1273213 0.286751 0)
(-0.1516294 0.281833 0)
(-0.1744508 0.2694424 0)
(-0.194913 0.2496882 0)
(-0.2133814 0.2228376 0)
(-0.2293336 0.189215 0)
(-0.2424249 0.1491682 0)
(-0.2519791 0.1030949 0)
(-0.2573031 0.05157401 0)
(-0.2577294 -0.004472732 0)
(-0.2526402 -0.06352001 0)
(-0.2419227 -0.1232785 0)
(-0.2256381 -0.1824528 0)
(-0.2041638 -0.2396692 0)
(-0.1779099 -0.2936181 0)
(-0.1480217 -0.3431173 0)
(-0.1148391 -0.3875151 0)
(-0.08115835 -0.4266216 0)
(-0.04601203 -0.4622239 0)
(-0.01536343 -0.4937404 0)
(-0.006339354 0.4249562 0)
(-0.04134733 0.2882806 0)
(-0.07638089 0.3008599 0)
(-0.1057773 0.3086466 0)
(-0.1345176 0.3092835 0)
(-0.1603117 0.3025422 0)
(-0.184638 0.2884085 0)
(-0.2066178 0.2668307 0)
(-0.226495 0.2379832 0)
(-0.2436936 0.2020211 0)
(-0.2577977 0.1591555 0)
(-0.2680935 0.1096862 0)
(-0.2738424 0.05416131 0)
(-0.2743192 -0.006439782 0)
(-0.2689552 -0.07037291 0)
(-0.2576288 -0.1350197 0)
(-0.2404597 -0.1989009 0)
(-0.2178375 -0.2604493 0)
(-0.1901686 -0.3181583 0)
(-0.1585856 -0.3706216 0)
(-0.1234314 -0.416933 0)
(-0.08756167 -0.4567116 0)
(-0.05002202 -0.491487 0)
(-0.01690257 -0.5210308 0)
(-0.008093347 0.4470729 0)
(-0.04483059 0.318655 0)
(-0.08034138 0.3286244 0)
(-0.1109079 0.3340924 0)
(-0.1408807 0.3329888 0)
(-0.1681943 0.3245293 0)
(-0.1940324 0.3086727 0)
(-0.2175156 0.2852184 0)
(-0.238751 0.2542511 0)
(-0.2571208 0.2157718 0)
(-0.2721392 0.1698663 0)
(-0.2830588 0.1167438 0)
(-0.2890973 0.05692629 0)
(-0.2894827 -0.008528686 0)
(-0.2837385 -0.07761781 0)
(-0.2717734 -0.1473801 0)
(-0.253788 -0.2161675 0)
(-0.230176 -0.2822479 0)
(-0.2013092 -0.3439376 0)
(-0.1682658 -0.3996041 0)
(-0.1313589 -0.448054 0)
(-0.09347962 -0.4886931 0)
(-0.05371978 -0.5227707 0)
(-0.01828469 -0.5505859 0)
(-0.01052093 0.4715196 0)
(-0.04797772 0.3496799 0)
(-0.08364437 0.3570075 0)
(-0.115282 0.3604884 0)
(-0.1464414 0.3578507 0)
(-0.1752368 0.347777 0)
(-0.2025019 0.3301918 0)
(-0.2273691 0.3047789 0)
(-0.2498033 0.2715431 0)
(-0.2691556 0.2303475 0)
(-0.2848698 0.1811619 0)
(-0.296172 0.1241144 0)
(-0.3022432 0.05971196 0)
(-0.3022889 -0.01087599 0)
(-0.2959973 -0.08532671 0)
(-0.28336 -0.1603349 0)
(-0.2646851 -0.2341263 0)
(-0.2403495 -0.3048582 0)
(-0.2106414 -0.3707066 0)
(-0.1765219 -0.4298127 0)
(-0.1382275 -0.4806505 0)
(-0.09864922 -0.522367 0)
(-0.05696295 -0.5558888 0)
(-0.01946553 -0.5821687 0)
(-0.01327741 0.4983226 0)
(-0.05066975 0.3809236 0)
(-0.08630969 0.3858593 0)
(-0.1189525 0.3877765 0)
(-0.1512256 0.3838135 0)
(-0.1813838 0.3721961 0)
(-0.2098924 0.3528357 0)
(-0.2359119 0.3253457 0)
(-0.2592666 0.2896608 0)
(-0.279281 0.2455213 0)
(-0.2953284 0.1927895 0)
(-0.3066182 0.1315278 0)
(-0.3123104 0.06225216 0)
(-0.3116324 -0.01370007 0)
(-0.3045563 -0.09360192 0)
(-0.2912223 -0.1738307 0)
(-0.2720692 -0.2525703 0)
(-0.2474143 -0.3279563 0)
(-0.2173903 -0.3980806 0)
(-0.182756 -0.4608581 0)
(-0.1436076 -0.5143671 0)
(-0.1027887 -0.5574209 0)
(-0.05959984 -0.5905566 0)
(-0.02039921 -0.6154602 0)
(-0.01600259 0.5273253 0)
(-0.05282683 0.4121061 0)
(-0.0883813 0.4151046 0)
(-0.1219856 0.4158982 0)
(-0.1552537 0.4107704 0)
(-0.1865659 0.3976182 0)
(-0.2160322 0.3763824 0)
(-0.2428575 0.3466514 0)
(-0.2667269 0.3082941 0)
(-0.2869364 0.2609402 0)
(-0.3027866 0.2043569 0)
(-0.3134853 0.1385685 0)
(-0.3181989 0.06414471 0)
(-0.3162539 -0.01731507 0)
(-0.3080956 -0.1025699 0)
(-0.2940761 -0.187766 0)
(-0.2747694 -0.2711875 0)
(-0.250362 -0.3510774 0)
(-0.2207358 -0.4255181 0)
(-0.1863411 -0.4921955 0)
(-0.1470532 -0.5487065 0)
(-0.1056102 -0.593419 0)
(-0.06147645 -0.6263861 0)
(-0.02104086 -0.6500567 0)
(-0.01839535 0.5582196 0)
(-0.05442739 0.4430964 0)
(-0.08993743 0.4447258 0)
(-0.1244568 0.4447773 0)
(-0.1585366 0.4385513 0)
(-0.1907017 0.4237923 0)
(-0.220741 0.4005174 0)
(-0.2479139 0.3683244 0)
(-0.2717637 0.3270124 0)
(-0.2915474 0.2761111 0)
(-0.3064876 0.2153121 0)
(-0.3158143 0.1446506 0)
(-0.3187413 0.064831 0)
(-0.3148284 -0.02212988 0)
(-0.3052708 -0.1123583 0)
(-0.2906526 -0.2019643 0)
(-0.2716505 -0.289541 0)
(-0.2482205 -0.3736037 0)
(-0.219887 -0.4523133 0)
(-0.1866729 -0.5231192 0)
(-0.1481361 -0.5830248 0)
(-0.1068404 -0.6298001 0)
(-0.06244711 -0.6628853 0)
(-0.02135022 -0.6854713 0)
(-0.02024734 0.5906008 0)
(-0.05550864 0.4738918 0)
(-0.09108287 0.4747358 0)
(-0.1264351 0.4742988 0)
(-0.1610688 0.4669163 0)
(-0.1936997 0.4503881 0)
(-0.2238421 0.4248399 0)
(-0.2508078 0.3898943 0)
(-0.2739884 0.3452661 0)
(-0.2925821 0.290396 0)
(-0.3057271 0.2249348 0)
(-0.3127107 0.1490113 0)
(-0.3128515 0.0636011 0)
(-0.3061728 -0.02861134 0)
(-0.2949705 -0.1230475 0)
(-0.279956 -0.2161492 0)
(-0.2618311 -0.3070712 0)
(-0.2402202 -0.3947833 0)
(-0.2141974 -0.4776175 0)
(-0.1832442 -0.5527798 0)
(-0.1464917 -0.6165445 0)
(-0.1062474 -0.6658871 0)
(-0.06238859 -0.6994673 0)
(-0.02129607 -0.7211428 0)
(-0.02144468 0.6240216 0)
(-0.05615055 0.5045866 0)
(-0.09192398 0.5051453 0)
(-0.1279611 0.5042921 0)
(-0.1628202 0.4955589 0)
(-0.1954649 0.4770099 0)
(-0.2251825 0.448881 0)
(-0.2513204 0.4108104 0)
(-0.2731025 0.3624062 0)
(-0.2896424 0.3030348 0)
(-0.2999902 0.232364 0)
(-0.3035454 0.1507479 0)
(-0.2998053 0.05965632 0)
(-0.2896446 -0.03718718 0)
(-0.2767575 -0.1346044 0)
(-0.2616634 -0.2299493 0)
(-0.2450008 -0.3231532 0)
(-0.2260229 -0.4138052 0)
(-0.2033183 -0.5005085 0)
(-0.1757416 -0.5802374 0)
(-0.1418763 -0.6483911 0)
(-0.1036731 -0.7009127 0)
(-0.06121633 -0.7354698 0)
(-0.02086086 -0.7564538 0)
(-0.0219556 0.6580358 0)
(-0.05645017 0.5353311 0)
(-0.09253706 0.5359306 0)
(-0.12903 0.5345254 0)
(-0.1637365 0.5241228 0)
(-0.1959112 0.5032232 0)
(-0.2246593 0.4721347 0)
(-0.2493329 0.4304793 0)
(-0.2689733 0.3777306 0)
(-0.2825869 0.3132052 0)
(-0.2891472 0.2366784 0)
(-0.2882562 0.1489315 0)
(-0.2796802 0.05227434 0)
(-0.2657494 -0.04807238 0)
(-0.2514466 -0.1468333 0)
(-0.2366007 -0.2429802 0)
(-0.2217795 -0.337243 0)
(-0.2059774 -0.429956 0)
(-0.1873661 -0.5201248 0)
(-0.1641472 -0.6045606 0)
(-0.1342262 -0.6776604 0)
(-0.09906564 -0.7340642 0)
(-0.05890033 -0.7701869 0)
(-0.02004501 -0.7907568 0)
(-0.02181669 0.6922266 0)
(-0.05649517 0.5662843 0)
(-0.09294467 0.5670101 0)
(-0.1295898 0.5647168 0)
(-0.163749 0.5522309 0)
(-0.1949816 0.5285917 0)
(-0.22225 0.4941047 0)
(-0.2448759 0.4483263 0)
(-0.2617143 0.3905718 0)
(-0.2716632 0.3201513 0)
(-0.2736673 0.2370848 0)
(-0.2676752 0.1428697 0)
(-0.2538477 0.04113717 0)
(-0.2367477 -0.06106637 0)
(-0.2215341 -0.1594289 0)
(-0.2070595 -0.255039 0)
(-0.1939618 -0.3491218 0)
(-0.1813079 -0.4428566 0)
(-0.1670554 -0.5358626 0)
(-0.1488229 -0.6249713 0)
(-0.1237049 -0.703515 0)
(-0.09250344 -0.764547 0)
(-0.05547704 -0.8029128 0)
(-0.01886955 -0.8234092 0)
(-0.02112106 0.7262233 0)
(-0.05634419 0.5975645 0)
(-0.09311105 0.598235 0)
(-0.1295553 0.5945578 0)
(-0.1627948 0.5795214 0)
(-0.1926686 0.5527204 0)
(-0.2180353 0.5143582 0)
(-0.2381569 0.4638709 0)
(-0.2517271 0.400407 0)
(-0.2575741 0.3233428 0)
(-0.2547277 0.2331411 0)
(-0.243693 0.1323976 0)
(-0.225224 0.02665186 0)
(-0.206655 -0.0754711 0)
(-0.1909443 -0.1721849 0)
(-0.1765644 -0.2663503 0)
(-0.164398 -0.3591522 0)
(-0.1540941 -0.4527114 0)
(-0.1437244 -0.5475965 0)
(-0.1305381 -0.6410138 0)
(-0.110722 -0.7253004 0)
(-0.08420461 -0.7916591 0)
(-0.05105354 -0.8329921 0)
(-0.01737644 -0.8538122 0)
(-0.02000484 0.7597096 0)
(-0.05601895 0.6292097 0)
(-0.09295757 0.6293969 0)
(-0.1288341 0.6237447 0)
(-0.1608374 0.6056826 0)
(-0.1890281 0.5752963 0)
(-0.2122041 0.5325822 0)
(-0.2295574 0.4768124 0)
(-0.2396822 0.406992 0)
(-0.2414288 0.3226884 0)
(-0.2340941 0.2250885 0)
(-0.2189661 0.1183394 0)
(-0.1976676 0.01035326 0)
(-0.1799166 -0.09035527 0)
(-0.1637493 -0.1852177 0)
(-0.1488411 -0.2776407 0)
(-0.1363269 -0.3683388 0)
(-0.1269154 -0.4604199 0)
(-0.1191827 -0.555831 0)
(-0.1104121 -0.652701 0)
(-0.09590847 -0.7426561 0)
(-0.07451343 -0.8148668 0)
(-0.0458011 -0.8598706 0)
(-0.01562572 -0.881449 0)
(-0.01862859 0.7924281 0)
(-0.05550865 0.6611563 0)
(-0.09238993 0.6602484 0)
(-0.1273523 0.6520071 0)
(-0.1578803 0.630478 0)
(-0.184175 0.5961156 0)
(-0.2050253 0.5486178 0)
(-0.2195633 0.4870736 0)
(-0.2263776 0.4104089 0)
(-0.2244655 0.3185595 0)
(-0.2136086 0.2137699 0)
(-0.196015 0.1021276 0)
(-0.1745712 -0.006127314 0)
(-0.1594688 -0.1046714 0)
(-0.1424613 -0.1988921 0)
(-0.1263954 -0.2898276 0)
(-0.1123294 -0.3780024 0)
(-0.1021908 -0.467387 0)
(-0.09537116 -0.5616677 0)
(-0.08975895 -0.660572 0)
(-0.08004609 -0.7555901 0)
(-0.06386436 -0.8338629 0)
(-0.03993798 -0.8831371 0)
(-0.01368979 -0.905916 0)
(-0.01715391 0.82418 0)
(-0.0547826 0.6932399 0)
(-0.09132532 0.690529 0)
(-0.1250721 0.6791269 0)
(-0.15397 0.6537572 0)
(-0.1782701 0.615093 0)
(-0.1968151 0.5624708 0)
(-0.2087096 0.4948117 0)
(-0.2126659 0.4110769 0)
(-0.2080028 0.3118079 0)
(-0.1952756 0.2007041 0)
(-0.1776655 0.08607491 0)
(-0.1597769 -0.02063899 0)
(-0.1453759 -0.1186738 0)
(-0.1274088 -0.2136042 0)
(-0.1097351 -0.3035754 0)
(-0.09351799 -0.3892068 0)
(-0.08149283 -0.4750432 0)
(-0.07392465 -0.5665347 0)
(-0.06986712 -0.6656103 0)
(-0.06396391 -0.7644869 0)
(-0.05272991 -0.8485956 0)
(-0.03370451 -0.9025482 0)
(-0.01164567 -0.9269421 0)
(-0.01571998 0.8548224 0)
(-0.05380524 0.7252159 0)
(-0.08971029 0.7199896 0)
(-0.1219969 0.7049453 0)
(-0.1491861 0.6754528 0)
(-0.1714903 0.6322527 0)
(-0.1878752 0.5742965 0)
(-0.1974596 0.5003948 0)
(-0.1992115 0.4097146 0)
(-0.192913 0.3037041 0)
(-0.1800507 0.1878524 0)
(-0.1645204 0.07221306 0)
(-0.1503044 -0.03376999 0)
(-0.1356485 -0.1330492 0)
(-0.1169079 -0.2293944 0)
(-0.09772353 -0.318991 0)
(-0.07946983 -0.4023445 0)
(-0.06521224 -0.4843303 0)
(-0.05581317 -0.5717652 0)
(-0.05177494 -0.6690243 0)
(-0.04842715 -0.7700394 0)
(-0.04156516 -0.8592588 0)
(-0.02733604 -0.9180321 0)
(-0.009567056 -0.9443921 0)
(-0.01442616 0.8842601 0)
(-0.05254815 0.7567905 0)
(-0.08752643 0.7484083 0)
(-0.1181649 0.7293581 0)
(-0.1436249 0.6955634 0)
(-0.1640003 0.6476992 0)
(-0.1784493 0.5843482 0)
(-0.1861424 0.5042993 0)
(-0.1864075 0.4071241 0)
(-0.1795521 0.2954433 0)
(-0.1679038 0.1765346 0)
(-0.1553609 0.06093624 0)
(-0.1435238 -0.0456685 0)
(-0.1283554 -0.1477804 0)
(-0.1089694 -0.2460244 0)
(-0.08867424 -0.3357271 0)
(-0.06890815 -0.4171822 0)
(-0.05275666 -0.4954894 0)
(-0.04122607 -0.5782352 0)
(-0.03611464 -0.6719634 0)
(-0.03404677 -0.7731165 0)
(-0.03076211 -0.8662486 0)
(-0.02103987 -0.9296728 0)
(-0.007517546 -0.9582567 0)
(-0.01332462 0.9124348 0)
(-0.05099681 0.7876544 0)
(-0.08478663 0.7755983 0)
(-0.113638 0.7523039 0)
(-0.1373838 0.7141302 0)
(-0.1559347 0.6615823 0)
(-0.168704 0.5929213 0)
(-0.1749388 0.5070193 0)
(-0.174388 0.4040377 0)
(-0.1678498 0.2879047 0)
(-0.1581951 0.16726 0)
(-0.1484274 0.05159909 0)
(-0.1376021 -0.05708789 0)
(-0.1219101 -0.1628903 0)
(-0.1020041 -0.2632552 0)
(-0.08107255 -0.3533065 0)
(-0.06042879 -0.4331827 0)
(-0.04304957 -0.5082109 0)
(-0.02972073 -0.5862331 0)
(-0.02306716 -0.6752774 0)
(-0.02122736 -0.7746049 0)
(-0.02062297 -0.8700966 0)
(-0.01498042 -0.937681 0)
(-0.005546299 -0.9686311 0)
(-0.01242349 0.9393117 0)
(-0.04915209 0.8175106 0)
(-0.08152607 0.8014081 0)
(-0.1084889 0.7737492 0)
(-0.1305487 0.731214 0)
(-0.1473866 0.6740636 0)
(-0.158722 0.6003067 0)
(-0.1638854 0.5090002 0)
(-0.1630605 0.4010339 0)
(-0.157413 0.2815958 0)
(-0.149946 0.159958 0)
(-0.1421484 0.04346671 0)
(-0.131406 -0.0684824 0)
(-0.1152598 -0.1783503 0)
(-0.09496885 -0.2808384 0)
(-0.07384657 -0.3712716 0)
(-0.05290739 -0.4497648 0)
(-0.03499754 -0.5219278 0)
(-0.02052315 -0.5955623 0)
(-0.01243105 -0.6793977 0)
(-0.01015911 -0.7752663 0)
(-0.01135451 -0.871397 0)
(-0.009273829 -0.9423577 0)
(-0.003686073 -0.9756884 0)
(-0.01169726 0.9648672 0)
(-0.04702816 0.8460937 0)
(-0.07779271 0.8257162 0)
(-0.1027906 0.7936735 0)
(-0.1231875 0.7468746 0)
(-0.1384072 0.6852887 0)
(-0.1485114 0.6067519 0)
(-0.1529038 0.5105877 0)
(-0.1521732 0.3984812 0)
(-0.1476669 0.2766493 0)
(-0.1421177 0.1541872 0)
(-0.1353693 0.03587426 0)
(-0.1242306 -0.08008978 0)
(-0.1077645 -0.1940902 0)
(-0.08725435 -0.2985383 0)
(-0.0663358 -0.3892291 0)
(-0.04559034 -0.466425 0)
(-0.02773752 -0.536049 0)
(-0.0128127 -0.6057486 0)
(-0.00376476 -0.6843419 0)
(-0.0008528041 -0.7756381 0)
(-0.003080413 -0.8707445 0)
(-0.00398937 -0.9440633 0)
(-0.001952933 -0.9796532 0)
(-0.01110058 0.9890785 0)
(-0.04464882 0.8731794 0)
(-0.07363981 0.8484244 0)
(-0.09661097 0.8120576 0)
(-0.1153496 0.7611546 0)
(-0.1290127 0.6953669 0)
(-0.1380256 0.6124366 0)
(-0.1418382 0.5120024 0)
(-0.1413842 0.3965303 0)
(-0.1379812 0.2728999 0)
(-0.1338247 0.149361 0)
(-0.127389 0.02831366 0)
(-0.1156545 -0.09198286 0)
(-0.09906142 -0.2099912 0)
(-0.07853842 -0.3161207 0)
(-0.05817812 -0.4068449 0)
(-0.03803089 -0.4827603 0)
(-0.02067939 -0.5500729 0)
(-0.005879089 -0.6162199 0)
(0.003458306 -0.6899345 0)
(0.006785144 -0.7760218 0)
(0.004127176 -0.8686283 0)
(0.0008457777 -0.9431796 0)
(-0.0003443714 -0.9807788 0)
(-0.01058131 1.011917 0)
(-0.04204397 0.8985873 0)
(-0.06912173 0.8694504 0)
(-0.09001065 0.828875 0)
(-0.1070707 0.7740706 0)
(-0.119198 0.7043606 0)
(-0.1271886 0.6174625 0)
(-0.1305003 0.513339 0)
(-0.1303378 0.3951523 0)
(-0.1277929 0.2700325 0)
(-0.1244419 0.1450006 0)
(-0.1178359 0.02057671 0)
(-0.1054374 -0.1041011 0)
(-0.08897903 -0.225874 0)
(-0.06868927 -0.3333435 0)
(-0.04921658 -0.4238287 0)
(-0.03000179 -0.4984679 0)
(-0.0134442 -0.5636245 0)
(0.0007192472 -0.6265996 0)
(0.009687245 -0.6954842 0)
(0.01308066 -0.7764451 0)
(0.01025192 -0.8656414 0)
(0.005189438 -0.9401184 0)
(0.001155969 -0.9793004 0)
(-0.01009068 1.033348 0)
(-0.03924691 0.9221779 0)
(-0.06429258 0.8887231 0)
(-0.08304554 0.8440886 0)
(-0.09838116 0.7856095 0)
(-0.1089504 0.7122819 0)
(-0.1159185 0.621853 0)
(-0.1187042 0.5145766 0)
(-0.1187145 0.3941778 0)
(-0.1166646 0.2676407 0)
(-0.1136365 0.1406337 0)
(-0.1066994 0.01238051 0)
(-0.09353627 -0.1163831 0)
(-0.07749343 -0.2415234 0)
(-0.05771179 -0.3499552 0)
(-0.03944607 -0.439926 0)
(-0.02143588 -0.5133025 0)
(-0.005935616 -0.5763946 0)
(0.007047853 -0.6362697 0)
(0.01531188 -0.7007402 0)
(0.01849883 -0.776765 0)
(0.01545323 -0.8619453 0)
(0.009002394 -0.9353191 0)
(0.002543856 -0.9755024 0)
(-0.009589681 1.053325 0)
(-0.03629294 0.9438484 0)
(-0.05920711 0.9061795 0)
(-0.07577081 0.8576495 0)
(-0.08931466 0.7957304 0)
(-0.09826646 0.7190976 0)
(-0.1041547 0.6255653 0)
(-0.1063088 0.5156114 0)
(-0.1062969 0.3933798 0)
(-0.1043715 0.2654138 0)
(-0.1013903 0.1361864 0)
(-0.09414291 0.004029095 0)
(-0.08001432 -0.1288218 0)
(-0.06466816 -0.2566966 0)
(-0.04571273 -0.3657003 0)
(-0.02894806 -0.4549098 0)
(-0.01233638 -0.5269934 0)
(0.001680274 -0.5881863 0)
(0.0131103 -0.6448818 0)
(0.0206147 -0.7056051 0)
(0.02330047 -0.7768306 0)
(0.01993865 -0.8576268 0)
(0.01231477 -0.9290337 0)
(0.003790842 -0.9696633 0)
(-0.009051995 1.071804 0)
(-0.03321878 0.9635281 0)
(-0.05392225 0.9217648 0)
(-0.06824528 0.8695013 0)
(-0.07991639 0.8043704 0)
(-0.08716182 0.7247374 0)
(-0.09186847 0.6285045 0)
(-0.0932212 0.5162816 0)
(-0.09293748 0.3925031 0)
(-0.09073125 0.2630581 0)
(-0.08755036 0.1313548 0)
(-0.07972709 -0.005020285 0)
(-0.06514792 -0.1412841 0)
(-0.05062511 -0.2711679 0)
(-0.03288636 -0.3803367 0)
(-0.01780821 -0.4685369 0)
(-0.002893887 -0.5393695 0)
(0.009205295 -0.5984124 0)
(0.01911257 -0.6525709 0)
(0.02566651 -0.7098329 0)
(0.02758812 -0.7764683 0)
(0.02381252 -0.8527239 0)
(0.01516706 -0.9214969 0)
(0.004893146 -0.9620509 0)
(-0.008464316 1.088738 0)
(-0.03006264 0.9811739 0)
(-0.04849888 0.9354337 0)
(-0.0605358 0.8795847 0)
(-0.07025003 0.8114528 0)
(-0.07568329 0.7291057 0)
(-0.0790837 0.6305405 0)
(-0.07943224 0.516394 0)
(-0.07863019 0.3912843 0)
(-0.0758567 0.2603282 0)
(-0.07248913 0.1261716 0)
(-0.06480377 -0.01338859 0)
(-0.04900446 -0.1538047 0)
(-0.03560541 -0.2846908 0)
(-0.01942675 -0.3935615 0)
(-0.006196432 -0.4806065 0)
(0.006553686 -0.5501043 0)
(0.01671284 -0.607166 0)
(0.02507425 -0.6591537 0)
(0.03043681 -0.7132497 0)
(0.03141371 -0.7755495 0)
(0.02712423 -0.8472433 0)
(0.01756822 -0.9128855 0)
(0.005839846 -0.9529295 0)
(-0.007824931 1.10409 0)
(-0.02686421 0.9967685 0)
(-0.04300261 0.947154 0)
(-0.05271928 0.887845 0)
(-0.06040078 0.8168974 0)
(-0.06391191 0.7320972 0)
(-0.06587341 0.6315291 0)
(-0.06500098 0.5157474 0)
(-0.06345356 0.3895109 0)
(-0.05979384 0.2572 0)
(-0.05604264 0.121044 0)
(-0.04865731 -0.02280181 0)
(-0.0317657 -0.1665932 0)
(-0.01972166 -0.296837 0)
(-0.00556957 -0.4051778 0)
(0.005514358 -0.4910899 0)
(0.01585636 -0.5588199 0)
(0.02424435 -0.6145153 0)
(0.03088021 -0.6645109 0)
(0.03488619 -0.7156969 0)
(0.03475796 -0.773966 0)
(0.02987818 -0.8411991 0)
(0.01950663 -0.9033667 0)
(0.006615108 -0.9425706 0)
(-0.007141277 1.117838 0)
(-0.02366428 1.010319 0)
(-0.03750291 0.9569106 0)
(-0.0448833 0.8942394 0)
(-0.0504752 0.8206311 0)
(-0.05196439 0.7336077 0)
(-0.05237479 0.631318 0)
(-0.05007148 0.5141732 0)
(-0.04755746 0.3869589 0)
(-0.04251564 0.2533304 0)
(-0.03887464 0.1150045 0)
(-0.03061692 -0.03223353 0)
(-0.01325069 -0.1789692 0)
(-0.003238024 -0.3077053 0)
(0.008171121 -0.4150775 0)
(0.01700719 -0.4991676 0)