/*--------------------------------*- C++ -*----------------------------------*\
| =========                 |                                                 |
| \\      /  F ield         | OpenFOAM: The Open Source CFD Toolbox           |
|  \\    /   O peration     | Version:  2312                                  |
|   \\  /    A nd           | Website:  www.openfoam.com                      |
|    \\/     M anipulation  |                                                 |
\*---------------------------------------------------------------------------*/
FoamFile
{
    version     2.0;
    format      ascii;
    arch        "LSB;label=32;scalar=64";
    class       volScalarField;
    location    "2000";
    object      alphat;
}
// * * * * * * * * * * * * * * * * * * * * * * * * * * * * * * * * * * * * * //

dimensions      [1 -1 -1 0 0 0 0];

internalField   nonuniform List<scalar> 
12000
(
3.646346e-05
0.0001297386
0.0001378143
0.0001482966
0.0001548595
0.0001602893
0.0001609212
0.0001620197
0.000161755
0.0001612921
0.0001610748
0.000160225
0.0001618157
0.0001618147
0.000157074
0.0001521546
0.0001554815
0.0001627014
0.0001590129
0.000147764
0.0001467373
0.000157413
0.0001602254
0.0001481343
0.0001421691
0.0001498744
0.0001567931
0.0001502811
0.0001432412
0.000144871
0.0001489426
0.0001482079
0.0001454063
0.0001430468
0.0001421448
0.0001438582
0.0001456059
0.0001458503
0.0001431382
0.0001377297
0.0001361368
0.0001451343
0.0001589141
0.0001480274
0.0001262
0.0001314493
0.0001632372
0.0001579872
0.000126926
0.0001293229
0.000156488
0.0001548301
0.0001303366
0.0001266128
0.0001352122
0.0001282806
0.0001074625
8.661764e-05
7.8822e-05
6.07033e-05
2.306492e-05
0.0001699175
0.000198334
0.0002452476
0.0002781262
0.0003090662
0.0003468698
0.0003876224
0.0004284072
0.0004749159
0.0005205186
0.0005685622
0.0006152922
0.0006626471
0.0007113662
0.0007613887
0.0008066101
0.0008462025
0.0008888091
0.0009387917
0.0009845778
0.001016788
0.001048014
0.001091642
0.00113603
0.001163893
0.001183848
0.001214211
0.001250393
0.001276984
0.001294487
0.001313468
0.001318809
0.001341678
0.001344314
0.001344002
0.001317293
0.001280251
0.001273133
0.001309943
0.001348355
0.001333949
0.001266765
0.001168805
0.001205035
0.001276348
0.001219456
0.001112843
0.001092727
0.00105943
0.0009754496
0.0008938714
0.0008101826
0.0007136625
0.0006076596
0.0004989074
0.0003752319
0.0002365841
0.0001305819
5.516975e-05
2.634843e-05
0.0002454025
0.0003026113
0.0003673098
0.0004363026
0.0005178814
0.0006045052
0.0006940971
0.0007849404
0.0008767267
0.0009692584
0.001059693
0.001147933
0.001233105
0.001314419
0.001392462
0.001465391
0.001533794
0.001598829
0.001660674
0.00171812
0.001770741
0.001820229
0.001867343
0.001910992
0.00195009
0.001985694
0.002018808
0.002049118
0.002075886
0.002018046
0.002034664
0.002084378
0.002074946
0.002089291
0.002084337
0.002066638
0.002051754
0.002065328
0.002117785
0.002150613
0.002111448
0.002048562
0.002080348
0.002114239
0.002087881
0.002058066
0.002020435
0.001975653
0.001921226
0.001854743
0.001766606
0.00164844
0.001514549
0.001160651
0.0009864725
0.0008666425
0.0005587079
0.0002302604
5.504984e-05
2.555533e-05
0.0002515967
0.0003503931
0.0004392721
0.0005426363
0.0006593388
0.0007832417
0.0009108907
0.001044702
0.001174491
0.001298683
0.001416869
0.00152774
0.001633426
0.001732959
0.001828013
0.001918373
0.002004366
0.002086565
0.002165468
0.002237107
0.002300607
0.002358714
0.002412085
0.002460908
0.002505146
0.002545139
0.00258078
0.002612291
0.002639193
0.002661759
0.002679873
0.002694284
0.002704848
0.002710528
0.002712125
0.002709123
0.002701167
0.002688092
0.002669854
0.002646613
0.002618116
0.002583527
0.002541886
0.002494291
0.002438986
0.00237462
0.002300484
0.002217501
0.002123515
0.002018549
0.001902503
0.001770917
0.00155705
0.001416722
0.001180889
0.000910807
0.0006020031
0.0002765408
5.321489e-05
2.527098e-05
0.0002595532
0.0003956366
0.0005092507
0.000641658
0.0007859501
0.0009358896
0.00108644
0.001236419
0.001384825
0.001530582
0.001673988
0.001813671
0.001943022
0.002061131
0.002169999
0.002270281
0.002362555
0.002446681
0.00252222
0.002593415
0.002662594
0.002727644
0.002788066
0.002843806
0.002894286
0.002939918
0.002980696
0.00301669
0.003047534
0.003073395
0.003094463
0.003110529
0.003121583
0.003127578
0.003128511
0.003124368
0.003115125
0.003100726
0.00308098
0.003056055
0.003026067
0.002991389
0.002950226
0.002901536
0.002845156
0.002780358
0.002706094
0.002620983
0.002522989
0.00241013
0.002270519
0.002106966
0.001905767
0.001680395
0.001422135
0.00111225
0.000746732
0.0003417016
5.31981e-05
2.544984e-05
0.0002576251
0.0004251807
0.0005597534
0.0007112981
0.0008749282
0.001044467
0.001215128
0.001383529
0.001550564
0.001711502
0.001863492
0.002005738
0.002141576
0.002269627
0.002388258
0.002497318
0.002597926
0.002691323
0.002778625
0.002861043
0.002939205
0.003012748
0.003081334
0.003144781
0.003202824
0.003255709
0.003303096
0.003344901
0.003379989
0.003410622
0.003435161
0.00345374
0.003466348
0.003472961
0.003473482
0.003468024
0.003456456
0.003439255
0.003416249
0.00338703
0.003350303
0.003304737
0.003250799
0.003188596
0.003116701
0.003034301
0.002940699
0.002834435
0.002712077
0.002569189
0.00240271
0.002210761
0.00199512
0.001748693
0.001464227
0.001136349
0.0007614334
0.0003593757
5.21461e-05
2.583652e-05
0.0002527689
0.0004473866
0.0005998349
0.0007656759
0.0009438457
0.001128074
0.001314284
0.001496995
0.001672759
0.001841359
0.002000564
0.002150417
0.002292889
0.002428348
0.002556661
0.002677306
0.002790482
0.002896127
0.002995977
0.003089531
0.003177789
0.003260716
0.003338142
0.00340988
0.00347573
0.003535551
0.003589143
0.003635688
0.003676469
0.003710604
0.003737951
0.003758435
0.003772201
0.003779488
0.003780199
0.003774464
0.003762109
0.003742228
0.003714401
0.003678982
0.003635902
0.003584697
0.003524747
0.003455441
0.003376239
0.003286185
0.003183082
0.003063856
0.002925647
0.002766588
0.002585204
0.002378008
0.002142592
0.001847529
0.001555165
0.001225277
0.0008278078
0.0003888055
5.248576e-05
2.628622e-05
0.0002463873
0.000461917
0.0006324094
0.0008104466
0.0009993051
0.001193752
0.001388041
0.001579262
0.001764428
0.001942335
0.002112123
0.002273348
0.002426441
0.002571795
0.002710423
0.002842706
0.00296895
0.003088573
0.003201441
0.003307906
0.003407612
0.003500753
0.003587234
0.003666922
0.003739676
0.003805367
0.003862515
0.003913907
0.003957761
0.003994087
0.004022887
0.004044179
0.004057854
0.004063908
0.004062185
0.004052716
0.004035404
0.004010244
0.003976979
0.003935283
0.003884749
0.00382488
0.003755198
0.00367506
0.003583108
0.003477374
0.00335578
0.003216608
0.003058535
0.002880102
0.002679314
0.002447132
0.00209817
0.001803068
0.001542249
0.001239852
0.0008371279
0.0004034068
5.188629e-05
2.675173e-05
0.000239486
0.0004719973
0.000658739
0.0008464235
0.001042776
0.00124411
0.001445975
0.001645293
0.001839913
0.002028604
0.002210351
0.002384559
0.002551499
0.002711511
0.002865163
0.003012325
0.003153308
0.003287778
0.003414866
0.003533934
0.003644753
0.003747198
0.003841257
0.003926944
0.004004265
0.004072548
0.00413296
0.004185316
0.004229316
0.004264968
0.004292335
0.004311503
0.00432251
0.004325273
0.004319666
0.004305621
0.004283031
0.00425175
0.004211558
0.004162146
0.004103147
0.004034189
0.003954605
0.003863272
0.003758833
0.003639932
0.003505314
0.003353661
0.003183469
0.002992927
0.002770751
0.002407264
0.002096309
0.001841281
0.001593986
0.001279041
0.0008693502
0.0004172287
5.217839e-05
2.720921e-05
0.0002325731
0.0004778956
0.0006796991
0.0008761058
0.001078633
0.001285901
0.001494584
0.001701865
0.00190544
0.002102942
0.002233638
0.002332697
0.002450458
0.002582853
0.002724248
0.00291513
0.003204713
0.003476185
0.003613409
0.00374352
0.003865186
0.003977252
0.004079258
0.004171326
0.004253576
0.004324038
0.004387185
0.004440675
0.004484625
0.004519103
0.004544217
0.00456015
0.004567009
0.0045648
0.004553509
0.004533096
0.004503473
0.004464493
0.004415944
0.004357592
0.004289108
0.004209878
0.00411904
0.004015601
0.003898534
0.003766725
0.003618964
0.00345389
0.003270042
0.003062656
0.00269242
0.002359446
0.002081518
0.001833139
0.001586411
0.001291805
0.0008754673
0.000424699
5.185129e-05
2.755528e-05
0.0002264689
0.0004815062
0.0006968681
0.0009013943
0.001109337
0.00132168
0.001536063
0.001749617
0.001959084
0.00211705
0.002185349
0.002258343
0.002349359
0.002454218
0.002569667
0.002698831
0.002869628
0.003074208
0.003314781
0.003598657
0.003956936
0.004209443
0.004316533
0.004412398
0.004496739
0.004568123
0.004630489
0.004682128
0.004723278
0.004754209
0.004775197
0.004786379
0.004787817
0.004779564
0.004761637
0.00473404
0.004696731
0.004649604
0.004592519
0.004525204
0.004447195
0.004357877
0.00425654
0.004142409
0.004014602
0.003872104
0.003713791
0.003538411
0.00334461
0.002998833
0.002655408
0.002360056
0.002100255
0.00186028
0.001617
0.001313571
0.0008914809
0.000432459
5.202117e-05
2.794453e-05
0.0002205775
0.0004827113
0.0007103495
0.0009229716
0.001136321
0.001353367
0.00157246
0.001790329
0.002002358
0.002076628
0.00211763
0.002173716
0.002246658
0.002332391
0.002430185
0.002546108
0.002688859
0.002855016
0.003041475
0.00326374
0.00355068
0.003931132
0.00438964
0.0046304
0.004715905
0.004787994
0.004848873
0.004898127
0.004936103
0.004963206
0.004979785
0.004985963
0.00498182
0.004967371
0.004942529
0.004907548
0.004862583
0.00480748
0.004742015
0.00466589
0.004578686
0.004479896
0.004368919
0.004245057
0.004107479
0.003955215
0.003787174
0.003602138
0.003286104
0.002942032
0.002632964
0.002356611
0.002100733
0.00185709
0.001612286
0.001320671
0.0008957757
0.0004358207
5.189282e-05
2.83421e-05
0.0002156327
0.0004830906
0.0007217843
0.0009424365
0.00116118
0.00138249
0.001605233
0.001825646
0.00200561
0.002041456
0.002066614
0.002110963
0.002173946
0.002249714
0.002336477
0.002437387
0.002558628
0.002703487
0.002873744
0.003080867
0.003344985
0.003687339
0.00412593
0.004631434
0.00490832
0.004979409
0.005037652
0.005083917
0.005118631
0.005141896
0.005153934
0.005154988
0.005145313
0.005125159
0.005094794
0.005054018
0.005002581
0.004940371
0.004867199
0.004783147
0.004687848
0.004580859
0.004461649
0.004329579
0.004183884
0.004023658
0.003847871
0.003572977
0.00323189
0.00291708
0.002633419
0.002369441
0.002118019
0.001877213
0.001633203
0.001331842
0.0009038023
0.0004401566
5.19664e-05
2.872971e-05
0.0002112266
0.0004823445
0.0007309809
0.0009597527
0.001184161
0.001409612
0.001635276
0.001856878
0.001982295
0.00200048
0.00201899
0.002059996
0.002120194
0.002194211
0.002280885
0.002379411
0.002493786
0.002624139
0.002778444
0.002968184
0.003217316
0.003551657
0.003991065
0.004528094
0.005050173
0.005134258
0.005192152
0.005237445
0.005270003
0.005290502
0.005299327
0.005296697
0.005282823
0.005257873
0.005221969
0.005175162
0.005117542
0.005049176
0.004969988
0.004879397
0.004777223
0.004663233
0.004536972
0.00439786
0.004245191
0.004078136
0.00384988
0.003511301
0.003190915
0.00290423
0.002636697
0.002376791
0.002122977
0.001877679
0.001631639
0.001338551
0.0009076493
0.0004418954
5.196541e-05
2.907857e-05
0.0002078287
0.0004819067
0.0007396618
0.0009765615
0.001206745
0.001436093
0.001664009
0.00188574
0.001961049
0.001966006
0.001984154
0.002027743
0.002090044
0.002165359
0.002251033
0.002353979
0.002471838
0.002600645
0.002743647
0.00292492
0.003169448
0.003506995
0.00396324
0.004526229
0.005071346
0.00525334
0.005312008
0.005357337
0.005389407
0.005408742
0.005415723
0.005410663
0.005393819
0.005365404
0.005325583
0.00527448
0.005212173
0.005138688
0.005053916
0.004957847
0.004850229
0.004730543
0.004598549
0.004453727
0.004295385
0.004122662
0.003796481
0.003466711
0.003174161
0.002907722
0.002649523
0.002392223
0.00213912
0.001894742
0.001647765
0.001345417
0.0009123731
0.0004447294
5.198076e-05
2.940263e-05
0.0002050807
0.0004814289
0.0007474507
0.0009923872
0.00122861
0.001462122
0.001692213
0.001914175
0.001938231
0.001936783
0.001959656
0.002009375
0.002078023
0.002159458
0.002252108
0.002356181
0.002474718
0.002600686
0.002736816
0.002918537
0.003168961
0.003520251
0.004000608
0.004593951
0.00515809
0.005340187
0.00540145
0.00544791
0.005480581
0.005499879
0.005506214
0.005499935
0.005481332
0.005450643
0.005408074
0.00535379
0.00528792
0.005210541
0.005121671
0.005021257
0.00490909
0.004785044
0.004648572
0.004499313
0.004336695
0.004083788
0.003747996
0.003438412
0.003166622
0.002913037
0.00265948
0.002401576
0.002145459
0.001897542
0.001649013
0.001350886
0.0009157293
0.0004460164
5.202671e-05
2.968594e-05
0.0002030977
0.0004816853
0.000755544
0.001008593
0.001251094
0.001488283
0.001719909
0.001904126
0.001917141
0.001917247
0.001946562
0.002004198
0.00208004
0.00216895
0.00227094
0.002384536
0.002504006
0.002621736
0.002760357
0.00294481
0.003205815
0.00357885
0.004090941
0.00471327
0.005279546
0.005400695
0.005464787
0.005513302
0.005547556
0.005567834
0.005574577
0.005568152
0.005548872
0.005517006
0.005472794
0.005416443
0.005348131
0.005267986
0.005176081
0.005072415
0.004956896
0.004829332
0.004689416
0.004536636
0.004370327
0.004048622
0.003715481
0.003425607
0.003170978
0.002926378
0.00267551
0.002417418
0.00216071
0.001912197
0.00166121
0.001356069
0.0009190322
0.0004479762
5.203407e-05
2.994748e-05
0.0002017709
0.0004825237
0.0007636932
0.001024574
0.001273102
0.001514563
0.001747565
0.001889201
0.001895704
0.001902838
0.001942595
0.002008474
0.00209428
0.002194564
0.002305749
0.002417228
0.002528568
0.002650208
0.002795321
0.002988919
0.003268004
0.003672534
0.004223654
0.004861613
0.005356584
0.005440159
0.005507236
0.005558495
0.005594891
0.005616861
0.005624813
0.005619107
0.005600058
0.005567952
0.005523051
0.0054656
0.005395816
0.005313876
0.005219902
0.005113945
0.004995967
0.004865825
0.004723263
0.004567829
0.004355362
0.004015765
0.003693914
0.003420688
0.003177699
0.002938162
0.002687701
0.002427674
0.002168257
0.001917224
0.001665092
0.001360423
0.0009217624
0.0004491417
5.208651e-05
3.018425e-05
0.0002011121
0.000484413
0.0007726685
0.001041288
0.001296006
0.001541136
0.00177522
0.001871499
0.001874726
0.001890513
0.001940276
0.002019396
0.002117995
0.002231294
0.002347396
0.002457681
0.002565565
0.002685367
0.002834517
0.003041648
0.003345756
0.003787857
0.004377893
0.00501553
0.005376977
0.005463533
0.005533562
0.005587766
0.005626626
0.00565081
0.005660589
0.005656292
0.005638217
0.005606648
0.005561862
0.005504126
0.005433686
0.00535076
0.005255513
0.005148044
0.005028365
0.004896382
0.004751888
0.00459454
0.004338547
0.003995295
0.003684898
0.00342499
0.003190636
0.002954486
0.0027041
0.002442922
0.002182221
0.001929935
0.001674672
0.001364822
0.0009244597
0.0004505944
5.209672e-05
3.040802e-05
0.0002010013
0.0004870968
0.0007823903
0.001058806
0.001319935
0.001569108
0.001804241
0.001853515
0.001856519
0.001887247
0.001951706
0.002044158
0.002153429
0.002268
0.002380839
0.002494776
0.002607904
0.002730962
0.00288833
0.003113187
0.003448163
0.003931862
0.004556171
0.005177347
0.005385268
0.005474566
0.005547484
0.005604606
0.005646234
0.005673005
0.00568508
0.005682731
0.005666219
0.005635813
0.005591784
0.005534412
0.005463966
0.005380693
0.0052848
0.005176427
0.00505563
0.004922365
0.004776473
0.004617663
0.004323465
0.003979205
0.003680575
0.003431917
0.003203801
0.00296934
0.002718088
0.002454933
0.002191437
0.001935714
0.001678998
0.001368716
0.0009269744
0.0004517232
5.214316e-05
3.062789e-05
0.0002014486
0.0004908379
0.0007929497
0.001076993
0.001344191
0.001596436
0.00180233
0.001829997
0.001842295
0.001887224
0.001969897
0.002074711
0.002186958
0.002302366
0.002420666
0.002534881
0.002648198
0.00277565
0.002945158
0.003194377
0.003567417
0.004094094
0.004732714
0.00527653
0.005384649
0.005476304
0.005551977
0.005612016
0.005656597
0.005686207
0.005700919
0.005700928
0.00568644
0.005657688
0.005614927
0.005558434
0.005488493
0.005405377
0.005309321
0.005200504
0.005079027
0.004944892
0.004797987
0.004638068
0.004312923
0.003970059
0.003682132
0.003442563
0.00321899
0.002985419
0.002733415
0.002469417
0.002205551
0.001947277
0.001685259
0.001372597
0.0009292932
0.0004528926
5.215114e-05
3.085394e-05
0.0002023211
0.0004952095
0.0008044354
0.001095907
0.001368791
0.001623647
0.001780358
0.001807727
0.001834432
0.001897873
0.0019916
0.002098613
0.00221788
0.00233986
0.002458662
0.002573011
0.002688367
0.002823514
0.003010304
0.00329027
0.003706829
0.004274776
0.004903231
0.00526782
0.005377357
0.005471119
0.005549379
0.005612297
0.005659996
0.005692606
0.005710202
0.005712878
0.005700768
0.00567405
0.00563295
0.005577734
0.005508686
0.005426095
0.005330225
0.005221293
0.005099443
0.004964722
0.004817055
0.004652464
0.004304974
0.003964765
0.003686441
0.003453901
0.003233435
0.003000067
0.0027466
0.002479827
0.002212254
0.001951989
0.001690437
0.001376002
0.0009313521
0.0004536171
5.219659e-05
3.108361e-05
0.0002036459
0.0005005565
0.000816426
0.001115258
0.001393515
0.001650301
0.001757507
0.001787391
0.001832445
0.001910737
0.002010791
0.00212813
0.002251845
0.002375618
0.002495027
0.002609726
0.002728648
0.002875026
0.00308451
0.003400071
0.003860117
0.004457752
0.00505912
0.005254073
0.005364921
0.0054607
0.005541493
0.005607316
0.005658135
0.005693902
0.00571458
0.005720155
0.00571068
0.005686274
0.005647127
0.005593481
0.005525623
0.005443852
0.005348457
0.005239687
0.00511772
0.004982643
0.004834424
0.004651664
0.004300243
0.003965708
0.003694323
0.003467278
0.003249095
0.003015967
0.002762062
0.002495019
0.002224639
0.001959799
0.001694858
0.001379228
0.0009332024
0.000454522
5.222139e-05
3.132672e-05
0.0002054131
0.0005067585
0.0008298015
0.001135252
0.001418321
0.001662732
0.001731106
0.001772285
0.001834391
0.001922
0.002032774
0.002155971
0.002283064
0.002408321
0.002528052
0.00264395
0.002769141
0.002931603
0.003170835
0.003529872
0.004033671
0.004634295
0.005110758
0.005236984
0.005348937
0.005446594
0.005529857
0.005598565
0.005652502
0.005691505
0.005715412
0.005724028
0.005717353
0.005695438
0.005658428
0.005606543
0.005540062
0.005459298
0.005364562
0.005256131
0.005134224
0.004998967
0.004850367
0.004644867
0.004293276
0.003965195
0.00370144
0.003478838
0.00326263
0.003029067
0.002772866
0.002502421
0.002231187
0.001965715
0.001699594
0.001382378
0.0009347035
0.0004550893
5.226912e-05
3.158941e-05
0.0002074135
0.0005132937
0.0008427312
0.001155282
0.001441708
0.001638856
0.00171033
0.001761798
0.001834806
0.001934957
0.002054309
0.00218232
0.002311997
0.002438076
0.002558292
0.002677086
0.002812168
0.002996058
0.003270249
0.003674251
0.004215187
0.004798601
0.005091166
0.005217481
0.005330478
0.005429963
0.005515667
0.005587256
0.00564433
0.00568661
0.005713805
0.005725539
0.005721752
0.005702424
0.005667653
0.005617635
0.005552643
0.005472998
0.005379034
0.005271062
0.005149338
0.005014025
0.004865172
0.004636595
0.004285355
0.00396534
0.003708363
0.003490232
0.003276143
0.003044108
0.002787572
0.002514151
0.002238826
0.001972572
0.001707996
0.00138543
0.0009366621
0.0004562569
5.22937e-05
3.185748e-05
0.0002097844
0.000520502
0.0008567849
0.001174501
0.001464196
0.001613293
0.001684046
0.001752512
0.001839198
0.001950634
0.002076054
0.002207612
0.002338773
0.002465246
0.002586591
0.002710678
0.002860252
0.003071904
0.003386663
0.003833051
0.004392478
0.004931198
0.005069919
0.005196432
0.005310519
0.005411852
0.005500002
0.00557447
0.005634679
0.005680234
0.00571071
0.005725568
0.005724678
0.005707953
0.005675444
0.005627322
0.005563856
0.005485377
0.005392241
0.005284791
0.005163319
0.005028028
0.004879001
0.004628543
0.004275493
0.003964582
0.00371609
0.003501246
0.003287333
0.003053638
0.002795673
0.002521973
0.00224551
0.001981416
0.001715184
0.001388181
0.0009380262
0.0004568114
5.23189e-05
3.214786e-05
0.000212424
0.0005281836
0.0008707099
0.001193812
0.001462991
0.001589324
0.00166639
0.00174461
0.001845896
0.00196556
0.002096232
0.002230493
0.002362688
0.002489785
0.002613791
0.002746535
0.002915689
0.003160796
0.003519953
0.004006573
0.004554499
0.0049105
0.005048278
0.005174938
0.005290099
0.005393264
0.005483834
0.005561143
0.005624484
0.005673259
0.005706951
0.005724872
0.00572682
0.005712645
0.005682353
0.005636095
0.005574136
0.005496819
0.005404524
0.005297624
0.005176447
0.00504123
0.004892094
0.004619767
0.004265995
0.003961164
0.003721331
0.003513319
0.003302003
0.0030673
0.002806545
0.002530604
0.002255452
0.001989603
0.001719599
0.001390634
0.0009393548
0.0004574128
5.235373e-05
3.244961e-05
0.0002151547
0.0005357331
0.0008838786
0.001210685
0.001440305
0.001560647
0.001648634
0.001741416
0.001853944
0.001980746
0.002115454
0.002251608
0.002384584
0.002512988
0.002641874
0.002787808
0.002982415
0.003265077
0.003665963
0.004178048
0.004696372
0.004889085
0.005026361
0.005153455
0.005269874
0.005374971
0.005467992
0.00554811
0.005614528
0.005666429
0.005703226
0.005724092
0.00572876
0.00571702
0.005688842
0.00564436
0.005583839
0.005507634
0.005416148
0.005309785
0.005188903
0.005053776
0.004904555
0.004608981
0.004255715
0.003958882
0.003725009
0.00352123
0.003311521
0.00307632
0.002814401
0.002539086
0.002265076
0.001997405
0.001724449
0.001393005
0.0009405872
0.0004578916
5.23786e-05
3.275731e-05
0.0002182311
0.0005438306
0.0008971336
0.001223814
0.001416682
0.001536709
0.001634843
0.00174174
0.001862875
0.001995502
0.002133419
0.002271044
0.002404985
0.002536022
0.002672749
0.002836564
0.003062398
0.003387753
0.003828082
0.004336136
0.004723152
0.004868895
0.005005745
0.005133282
0.005250914
0.005357895
0.005453315
0.005536156
0.005605507
0.005660396
0.005700141
0.005723782
0.005730999
0.00572153
0.005695318
0.005652483
0.005593294
0.005518121
0.005427389
0.005321527
0.005200923
0.005065879
0.004916573
0.004596924
0.004245294
0.00395692
0.003730045
0.003529912
0.003323288
0.003088857
0.002825997
0.002549869
0.002274061
0.002004368
0.001729251
0.001395261
0.0009417673
0.0004583451
5.241017e-05
3.308177e-05
0.0002213482
0.0005514142
0.0009084102
0.001205713
0.001391662
0.001518322
0.00162575
0.001742891
0.001872104
0.002009605
0.00215
0.002288904
0.002424512
0.002560304
0.002708756
0.002895549
0.003156614
0.003522858
0.003991135
0.004477004
0.004705485
0.004850116
0.004986779
0.005114949
0.005233903
0.00534274
0.005440489
0.005525918
0.005598038
0.005655723
0.00569821
0.005724409
0.005733958
0.005726556
0.005702121
0.00566077
0.005602777
0.005528529
0.00543847
0.005333053
0.005212684
0.005077684
0.004928243
0.004581859
0.004233125
0.003953834
0.003733996
0.00353788
0.003332204
0.003098437
0.002837087
0.002560379
0.00228277
0.002011224
0.00173369
0.001397535
0.0009430222
0.0004588808
5.243159e-05
3.341066e-05
0.0002245259
0.0005587875
0.0009183939
0.001188686
0.001366165
0.001497252
0.001619641
0.001747052
0.001882595
0.002023787
0.002166176
0.002306445
0.002444798
0.00258793
0.00275247
0.002967944
0.003269157
0.003672514
0.0041426
0.004538299
0.004689035
0.004832986
0.004969769
0.005098777
0.005219186
0.005329972
0.005429971
0.005517853
0.005592573
0.005652839
0.005697832
0.005726344
0.00573798
0.005732409
0.005709538
0.005669484
0.005612533
0.005539089
0.005449615
0.005344584
0.005224421
0.005089457
0.004922009
0.004565907
0.004223494
0.003952551
0.003738359
0.003544548
0.00333905
0.0031076
0.002850434
0.00257239
0.002291291
0.002017527
0.00173734
0.001399346
0.0009438496
0.0004592732
5.245713e-05
3.374182e-05
0.0002278559
0.0005656809
0.0009163743
0.001168151
0.001345893
0.001486016
0.001616969
0.001751773
0.001892834
0.002037251
0.002181387
0.002323512
0.002466446
0.002620408
0.002805575
0.003053114
0.003393545
0.003825604
0.004278039
0.004525051
0.004674751
0.004818323
0.004955404
0.005085341
0.005207216
0.005319897
0.005422077
0.005512365
0.00558948
0.005652093
0.005699338
0.005729888
0.005743341
0.005739346
0.005717805
0.005678845
0.005622763
0.005549984
0.005460991
0.005356273
0.005236269
0.005101321
0.004907176
0.004548964
0.004213831
0.003951158
0.003742814
0.003551929
0.003346389
0.003115577
0.002860341
0.002584081
0.002301678
0.00202403
0.001740746
0.001401186
0.000944829
0.0004596394
5.247156e-05
3.40749e-05
0.0002310832
0.0005715248
0.0009053888
0.00115
0.001329868
0.001475863
0.001615229
0.0017574
0.001903273
0.002050368
0.002196247
0.002341146
0.00249087
0.002659416
0.002870487
0.003154672
0.003529444
0.003967177
0.004359354
0.00451307
0.004661712
0.004805258
0.004943104
0.005074418
0.005198125
0.005312821
0.005417121
0.005509691
0.00558901
0.005653734
0.00570297
0.005735277
0.005750267
0.005747582
0.005727131
0.005689051
0.005633662
0.005561404
0.005472781
0.005368294
0.005248394
0.005113426
0.004891619
0.004531974
0.004204939
0.003950248
0.003746319
0.003556982
0.003353546
0.003125045
0.002871112
0.002596044
0.002312196
0.002030982
0.001744626
0.001402748
0.0009455116
0.0004597534
5.249109e-05
3.440604e-05
0.0002342788
0.0005768644
0.0008959644
0.001132905
0.001313623
0.001468671
0.001616561
0.001764799
0.001914439
0.00206374
0.002211629
0.002360772
0.002520276
0.002707533
0.002948204
0.003268851
0.003671364
0.004094567
0.004351406
0.004503927
0.00465221
0.004795952
0.004934539
0.005067052
0.005192295
0.005308967
0.005415378
0.005510054
0.005591389
0.005657981
0.005708934
0.005742711
0.005758951
0.005757305
0.005737695
0.005700281
0.005645401
0.005573518
0.005485148
0.005380806
0.005260943
0.005125904
0.004875251
0.004514504
0.004196036
0.00394973
0.003750566
0.003561475
0.003359561
0.003134602
0.002882729
0.002609688
0.002322679
0.002036709
0.001747985
0.001404293
0.0009463108
0.0004600942
5.251048e-05
3.473076e-05
0.0002374023
0.0005817549
0.0008851231
0.001117142
0.001302142
0.001464554
0.001619342
0.001772736
0.001925545
0.002076865
0.002227442
0.002382798
0.002555476
0.002765577
0.00303872
0.003391976
0.003804777
0.00418962
0.004345186
0.004497158
0.004645492
0.004789832
0.004929493
0.005063468
0.005190465
0.005308974
0.005417208
0.005513801
0.005596898
0.005665071
0.005717434
0.005752368
0.005769559
0.005768672
0.005749654
0.005712687
0.005658135
0.005586475
0.005498238
0.005393942
0.00527404
0.00513887
0.004857804
0.004496443
0.00418677
0.003948075
0.003753122
0.003567136
0.003367933
0.003144594
0.002893448
0.002620322
0.002332701
0.002044159
0.001751524
0.001405528
0.0009467588
0.000460167
5.252314e-05
3.504823e-05
0.0002405279
0.0005864917
0.000875638
0.001104181
0.00129327
0.00146222
0.001623102
0.001780942
0.001936544
0.002090115
0.002244694
0.002408945
0.002598557
0.00283509
0.003141133
0.003521077
0.003923421
0.004186958
0.004341618
0.004493354
0.00464205
0.004787263
0.004928205
0.005063755
0.005192498
0.005312767
0.00542291
0.005521113
0.005605707
0.005675162
0.005728596
0.005764367
0.005782209
0.005781806
0.005763133
0.0057264
0.005671992
0.005600404
0.005512172
0.005407815
0.00528778
0.005152395
0.004839605
0.004478827
0.004178653
0.003947478
0.003755275
0.003572547
0.003377539
0.003154951
0.002903082
0.002629243
0.002343781
0.002052779
0.001754265
0.001406703
0.0009471868
0.0004602004
5.254085e-05
3.535843e-05
0.000243621
0.000591132
0.0008672423
0.001092676
0.001286161
0.001461664
0.001628153
0.001789743
0.001947725
0.002103932
0.002264088
0.002440101
0.002650114
0.002915102
0.003250509
0.003643589
0.004022573
0.004186044
0.004340496
0.004492538
0.00464202
0.004788427
0.004930873
0.005068122
0.00519865
0.005320633
0.005432432
0.005532135
0.005617988
0.005688515
0.0057424
0.005778747
0.00579697
0.005796795
0.005778235
0.005741532
0.005687096
0.005615433
0.005527079
0.005422545
0.005302261
0.00516653
0.004820749
0.004461339
0.004170269
0.003946551
0.003759731
0.003580895
0.003387997
0.003166151
0.002913734
0.002638379
0.002351752
0.002059494
0.00175883
0.001407612
0.0009472981
0.0004601107
5.256052e-05
3.566078e-05
0.0002467878
0.0005946636
0.0008604417
0.001083812
0.001281339
0.001462542
0.001633832
0.001798637
0.001959006
0.002118792
0.002286645
0.002477424
0.002710722
0.00300539
0.003366639
0.003753276
0.004031297
0.004187872
0.004342448
0.004495144
0.004645724
0.004793571
0.004937682
0.005076698
0.005208983
0.005332656
0.005445922
0.005546818
0.005633596
0.005704843
0.005759138
0.005795703
0.005813989
0.005813762
0.005795075
0.0057582
0.005703567
0.005631686
0.005543093
0.005438282
0.005317658
0.005159818
0.004801583
0.004448303
0.004165467
0.003946672
0.003764805
0.003591283
0.003400195
0.00317898
0.002925925
0.002648388
0.002358765
0.002065351
0.001761581
0.001408343
0.0009472706
0.0004598837
5.258525e-05
3.595476e-05
0.0002498993
0.0005950671
0.0008552966
0.001077173
0.001278144
0.001464447
0.001639959
0.001807582
0.001970576
0.002135244
0.002313251
0.002521733
0.002779818
0.003101361
0.003478032
0.003848155
0.004035348
0.004192164
0.004347431
0.004501236
0.004653274
0.004802822
0.00494876
0.005089608
0.005223563
0.005348823
0.005463334
0.005565193
0.005652627
0.00572429
0.005778709
0.005815202
0.005833278
0.005832753
0.005813723
0.005776493
0.005721506
0.005649278
0.005560334
0.005455148
0.005334097
0.00514539
0.004783512
0.004436705
0.004160907
0.00394823
0.003772339
0.003602088
0.003412801
0.003192213
0.002938542
0.002658679
0.002365121
0.002070089
0.001764843
0.001409027
0.0009472115
0.0004596813
5.261623e-05
3.624348e-05
0.0002529964
0.0005958593
0.0008516834
0.001072583
0.00127658
0.001467155
0.001646145
0.00181634
0.001982543
0.002153665
0.002344136
0.002572707
0.002857214
0.003203083
0.0035791
0.003882837
0.004041843
0.004199343
0.004355735
0.004511037
0.004664844
0.004816317
0.004964205
0.005106909
0.005242473
0.005369097
0.005484694
0.005587263
0.00567507
0.005746844
0.005801095
0.005837241
0.005854854
0.005853808
0.005834243
0.005796491
0.005741011
0.005668318
0.00557892
0.005473266
0.005351703
0.005129029
0.004763015
0.004423125
0.004156768
0.003952469
0.003781304
0.003612305
0.003423913
0.003204062
0.00295032
0.002668948
0.00237288
0.002073899
0.001765399
0.001409418
0.0009469177
0.0004593709
5.265615e-05
3.652432e-05
0.0002561381
0.0005968335
0.0008494453
0.001070123
0.001276531
0.001470256
0.001652002
0.001824824
0.001995239
0.002174785
0.002380173
0.002630336
0.002939173
0.003302321