/*--------------------------------*- C++ -*----------------------------------*\
| =========                 |                                                 |
| \\      /  F ield         | OpenFOAM: The Open Source CFD Toolbox           |
|  \\    /   O peration     | Version:  2312                                  |
|   \\  /    A nd           | Website:  www.openfoam.com                      |
|    \\/     M anipulation  |                                                 |
\*---------------------------------------------------------------------------*/
FoamFile
{
    version     2.0;
    format      ascii;
    arch        "LSB;label=32;scalar=64";
    class       volScalarField;
    location    "2000";
    object      ILambda_5_0;
}
// * * * * * * * * * * * * * * * * * * * * * * * * * * * * * * * * * * * * * //

dimensions      [1 0 -3 0 0 0 0];

internalField   nonuniform List<scalar> 
12000
(
1177.992
1177.03
1176.057
1175.047
1173.961
1172.758
1171.402
1169.863
1168.121
1166.17
1164.012
1161.664
1159.152
1156.509
1153.776
1150.999
1148.223
1145.497
1142.863
1140.362
1138.029
1135.892
1133.975
1132.291
1130.848
1129.649
1128.688
1127.955
1127.436
1127.11
1126.956
1126.951
1127.067
1127.278
1127.556
1127.876
1128.21
1128.535
1128.826
1129.062
1129.224
1129.295
1129.261
1129.11
1128.832
1128.423
1127.878
1127.199
1126.386
1125.446
1124.388
1123.219
1121.953
1120.603
1119.186
1117.712
1116.216
1114.64
1113.316
1110.862
1173.654
1172.457
1171.026
1169.324
1167.332
1165.048
1162.492
1159.701
1156.727
1153.629
1150.477
1147.338
1144.281
1141.368
1138.654
1136.184
1133.993
1132.104
1130.532
1129.278
1128.335
1127.688
1127.314
1127.188
1127.276
1127.544
1127.958
1128.479
1129.074
1129.705
1130.342
1130.953
1131.51
1131.987
1132.363
1132.619
1132.739
1132.71
1132.523
1132.172
1131.656
1130.975
1130.132
1129.136
1127.996
1126.726
1125.339
1123.855
1122.29
1120.667
1119.005
1117.326
1115.651
1114.001
1112.395
1110.848
1109.385
1107.973
1106.823
1104.975
1169.689
1167.398
1164.79
1161.912
1158.832
1155.629
1152.383
1149.173
1146.075
1143.153
1140.462
1138.044
1135.93
1134.137
1132.668
1131.521
1130.68
1130.123
1129.823
1129.75
1129.867
1130.141
1130.535
1131.015
1131.546
1132.098
1132.64
1133.145
1133.59
1133.953
1134.214
1134.359
1134.373
1134.246
1133.972
1133.545
1132.965
1132.231
1131.35
1130.328
1129.174
1127.901
1126.523
1125.058
1123.523
1121.937
1120.321
1118.696
1117.081
1115.497
1113.962
1112.493
1111.105
1109.811
1108.622
1107.544
1106.583
1105.721
1105.045
1104.062
1160.464
1157.037
1153.587
1150.202
1146.964
1143.942
1141.189
1138.747
1136.64
1134.879
1133.464
1132.382
1131.615
1131.136
1130.912
1130.909
1131.091
1131.422
1131.864
1132.384
1132.948
1133.525
1134.088
1134.609
1135.066
1135.438
1135.707
1135.856
1135.874
1135.75
1135.476
1135.048
1134.464
1133.726
1132.836
1131.803
1130.636
1129.348
1127.953
1126.468
1124.912
1123.305
1121.669
1120.023
1118.39
1116.79
1115.243
1113.765
1112.374
1111.083
1109.903
1108.842
1107.905
1107.095
1106.41
1105.847
1105.398
1105.051
1104.806
1104.517
1147.768
1144.707
1141.936
1139.507
1137.444
1135.753
1134.425
1133.443
1132.779
1132.402
1132.275
1132.36
1132.62
1133.015
1133.511
1134.071
1134.664
1135.261
1135.833
1136.356
1136.808
1137.169
1137.423
1137.553
1137.548
1137.398
1137.096
1136.638
1136.022
1135.249
1134.324
1133.254
1132.05
1130.725
1129.293
1127.773
1126.183
1124.546
1122.881
1121.212
1119.56
1117.946
1116.391
1114.912
1113.525
1112.245
1111.083
1110.046
1109.139
1108.366
1107.724
1107.21
1106.819
1106.54
1106.364
1106.277
1106.264
1106.311
1106.383
1106.502
1138.19
1136.638
1135.426
1134.553
1133.996
1133.719
1133.682
1133.845
1134.169
1134.616
1135.149
1135.736
1136.344
1136.946
1137.516
1138.031
1138.47
1138.815
1139.048
1139.156
1139.127
1138.952
1138.623
1138.137
1137.492
1136.689
1135.733
1134.632
1133.396
1132.039
1130.576
1129.025
1127.407
1125.743
1124.055
1122.365
1120.697
1119.072
1117.51
1116.03
1114.648
1113.378
1112.23
1111.214
1110.333
1109.589
1108.982
1108.506
1108.156
1107.921
1107.792
1107.756
1107.798
1107.904
1108.058
1108.246
1108.45
1108.654
1108.838
1108.998
1135.247
1135.125
1135.191
1135.429
1135.807
1136.291
1136.849
1137.448
1138.059
1138.657
1139.217
1139.718
1140.14
1140.465
1140.676
1140.762
1140.709
1140.509
1140.154
1139.641
1138.967
1138.135
1137.149
1136.016
1134.748
1133.358
1131.862
1130.279
1128.63
1126.937
1125.223
1123.512
1121.825
1120.186
1118.615
1117.131
1115.751
1114.488
1113.354
1112.356
1111.497
1110.781
1110.204
1109.763
1109.448
1109.252
1109.163
1109.166
1109.249
1109.396
1109.592
1109.822
1110.071
1110.326
1110.572
1110.798
1110.995
1111.141
1111.258
1111.205
1137.511
1138.056
1138.631
1139.227
1139.825
1140.405
1140.943
1141.421
1141.818
1142.118
1142.305
1142.365
1142.287
1142.062
1141.681
1141.14
1140.438
1139.577
1138.56
1137.395
1136.094
1134.67
1133.141
1131.525
1129.845
1128.122
1126.381
1124.646
1122.94
1121.286
1119.706
1118.219
1116.84
1115.585
1114.464
1113.484
1112.648
1111.959
1111.412
1111.004
1110.724
1110.564
1110.511
1110.551
1110.669
1110.85
1111.078
1111.339
1111.618
1111.901
1112.175
1112.429
1112.655
1112.842
1112.985
1113.077
1113.119
1113.087
1113.047
1112.698
1141.609
1142.188
1142.705
1143.154
1143.522
1143.792
1143.95
1143.982
1143.877
1143.623
1143.214
1142.645
1141.914
1141.022
1139.974
1138.777
1137.442
1135.984
1134.421
1132.771
1131.058
1129.305
1127.536
1125.777
1124.051
1122.382
1120.793
1119.301
1117.925
1116.678
1115.57
1114.609
1113.797
1113.135
1112.619
1112.244
1111.999
1111.874
1111.856
1111.93
1112.081
1112.293
1112.549
1112.836
1113.137
1113.44
1113.732
1114.001
1114.24
1114.44
1114.596
1114.704
1114.761
1114.766
1114.718
1114.617
1114.471
1114.256
1114.066
1113.491
1145.222
1145.498
1145.638
1145.642
1145.504
1145.217
1144.774
1144.171
1143.406
1142.481
1141.398
1140.166
1138.796
1137.303
1135.704
1134.019
1132.272
1130.487
1128.69
1126.905
1125.159
1123.475
1121.876
1120.381
1119.008
1117.769
1116.676
1115.734
1114.947
1114.313
1113.829
1113.487
1113.278
1113.189
1113.206
1113.314
1113.497
1113.738
1114.021
1114.33
1114.651
1114.97
1115.274
1115.553
1115.798
1116.002
1116.161
1116.27
1116.328
1116.334
1116.291
1116.199
1116.063
1115.885
1115.669
1115.418
1115.142
1114.818
1114.545
1113.88
1147.186
1146.872
1146.389
1145.743
1144.936
1143.968
1142.845
1141.574
1140.165
1138.633
1136.995
1135.274
1133.491
1131.672
1129.844
1128.033
1126.266
1124.566
1122.957
1121.458
1120.088
1118.859
1117.781
1116.86
1116.099
1115.496
1115.045
1114.738
1114.565
1114.513
1114.566
1114.708
1114.922
1115.192
1115.501
1115.832
1116.17
1116.502
1116.816
1117.101
1117.349
1117.553
1117.708
1117.812
1117.864
1117.865
1117.815
1117.718
1117.577
1117.399
1117.186
1116.945
1116.68
1116.396
1116.096
1115.784
1115.467
1115.122
1114.839
1114.192
1146.45
1145.471
1144.32
1143.012
1141.563
1139.989
1138.309
1136.545
1134.722
1132.866
1131.004
1129.164
1127.373
1125.655
1124.035
1122.533
1121.166
1119.947
1118.886
1117.988
1117.255
1116.683
1116.267
1115.998
1115.863
1115.848
1115.938
1116.115
1116.361
1116.66
1116.993
1117.345
1117.7
1118.044
1118.366
1118.654
1118.902
1119.103
1119.253
1119.349
1119.391
1119.38
1119.319
1119.211
1119.06
1118.872
1118.652
1118.406
1118.14
1117.859
1117.567
1117.269
1116.969
1116.668
1116.368
1116.069
1115.773
1115.455
1115.2
1114.593
1143.001
1141.4
1139.677
1137.863
1135.99
1134.086
1132.182
1130.306
1128.486
1126.747
1125.114
1123.607
1122.243
1121.035
1119.992
1119.118
1118.414
1117.876
1117.497
1117.267
1117.171
1117.196
1117.323
1117.536
1117.815
1118.142
1118.5
1118.872
1119.242
1119.597
1119.925
1120.216
1120.462
1120.658
1120.8
1120.886
1120.916
1120.892
1120.817
1120.695
1120.531
1120.33
1120.099
1119.843
1119.569
1119.282
1118.988
1118.691
1118.395
1118.102
1117.816
1117.536
1117.262
1116.993
1116.727
1116.459
1116.189
1115.885
1115.642
1115.004
1137.248
1135.324
1133.382
1131.467
1129.612
1127.848
1126.198
1124.684
1123.322
1122.125
1121.101
1120.253
1119.58
1119.078
1118.737
1118.547
1118.493
1118.558
1118.724
1118.972
1119.284
1119.639
1120.021
1120.413
1120.797
1121.162
1121.495
1121.787
1122.03
1122.22
1122.352
1122.427
1122.444
1122.405
1122.315
1122.177
1121.997
1121.782
1121.537
1121.269
1120.985
1120.689
1120.389
1120.088
1119.79
1119.498
1119.215
1118.942
1118.678
1118.422
1118.173
1117.927
1117.682
1117.431
1117.17
1116.891
1116.595
1116.242
1115.952
1115.164
1130.717
1128.963
1127.305
1125.783
1124.42
1123.231
1122.224
1121.4
1120.758
1120.292
1119.991
1119.842
1119.829
1119.935
1120.14
1120.425
1120.769
1121.153
1121.558
1121.968
1122.366
1122.739
1123.076
1123.368
1123.607
1123.788
1123.91
1123.972
1123.974
1123.92
1123.813
1123.659
1123.463
1123.232
1122.973
1122.693
1122.397
1122.092
1121.783
1121.476
1121.174
1120.88
1120.597
1120.325
1120.064
1119.814
1119.572
1119.336
1119.102
1118.866
1118.622
1118.367
1118.093
1117.794
1117.467
1117.101
1116.702
1116.219
1115.815
1114.769
1125.474
1124.343
1123.366
1122.569
1121.958
1121.526
1121.264
1121.156
1121.184
1121.331
1121.575
1121.895
1122.271
1122.683
1123.111
1123.538
1123.948
1124.329
1124.668
1124.957
1125.19
1125.363
1125.473
1125.52
1125.507
1125.436
1125.312
1125.141
1124.929
1124.683
1124.409
1124.115
1123.808
1123.493
1123.176
1122.862
1122.555
1122.259
1121.974
1121.701
1121.442
1121.194
1120.956
1120.724
1120.496
1120.266
1120.03
1119.783
1119.52
1119.234
1118.921
1118.575
1118.192
1117.767
1117.295
1116.771
1116.204
1115.539
1114.978
1113.641
1123.119
1122.773
1122.564
1122.499
1122.568
1122.754
1123.035
1123.389
1123.796
1124.233
1124.682
1125.124
1125.545
1125.931
1126.271
1126.556
1126.782
1126.944
1127.041
1127.073
1127.043
1126.954
1126.813
1126.624
1126.395
1126.133
1125.845
1125.538
1125.219
1124.894
1124.569
1124.249
1123.937
1123.637
1123.35
1123.078
1122.819
1122.572
1122.336
1122.107
1121.882
1121.656
1121.423
1121.18
1120.921
1120.639
1120.331
1119.991
1119.614
1119.197
1118.735
1118.227
1117.671
1117.064
1116.407
1115.697
1114.948
1114.104
1113.394
1111.83
1123.914
1124.188
1124.521
1124.912
1125.347
1125.808
1126.274
1126.73
1127.159
1127.547
1127.886
1128.166
1128.382
1128.531
1128.613
1128.629
1128.581
1128.474
1128.314
1128.108
1127.862
1127.584
1127.281
1126.961
1126.63
1126.296
1125.963
1125.637
1125.321
1125.018
1124.729
1124.456
1124.198
1123.953
1123.718
1123.491
1123.268
1123.044
1122.814
1122.573
1122.314
1122.034
1121.726
1121.386
1121.009
1120.592
1120.131
1119.624
1119.069
1118.466
1117.816
1117.118
1116.376
1115.592
1114.769
1113.908
1113.025
1112.07
1111.272
1109.63
1126.87
1127.395
1127.891
1128.36
1128.793
1129.182
1129.515
1129.786
1129.991
1130.125
1130.191
1130.188
1130.121
1129.996
1129.817
1129.592
1129.328
1129.034
1128.716
1128.383
1128.042
1127.698
1127.358
1127.026
1126.706
1126.401
1126.111
1125.838
1125.58
1125.336
1125.104
1124.879
1124.658
1124.436
1124.207
1123.967
1123.709
1123.428
1123.119
1122.777
1122.397
1121.976
1121.511
1120.999
1120.44
1119.833
1119.179
1118.479
1117.736
1116.954
1116.136
1115.287
1114.412
1113.517
1112.608
1111.688
1110.771
1109.816
1109.026
1107.49
1130.393
1130.817
1131.155
1131.419
1131.61
1131.728
1131.774
1131.752
1131.665
1131.519
1131.32
1131.076
1130.795
1130.484
1130.152
1129.807
1129.454
1129.102
1128.755
1128.418
1128.094
1127.786
1127.496
1127.222
1126.966
1126.724
1126.493
1126.271
1126.052
1125.832
1125.605
1125.365
1125.107
1124.826
1124.515
1124.169
1123.786
1123.36
1122.888
1122.37
1121.803
1121.188
1120.526
1119.818
1119.068
1118.28
1117.457
1116.605
1115.73
1114.839
1113.937
1113.031
1112.128
1111.233
1110.353
1109.489
1108.655
1107.815
1107.13
1105.854
1133.184
1133.32
1133.359
1133.319
1133.212
1133.044
1132.825
1132.561
1132.262
1131.935
1131.589
1131.23
1130.868
1130.507
1130.153
1129.811
1129.484
1129.174
1128.883
1128.611
1128.356
1128.116
1127.888
1127.668
1127.451
1127.233
1127.007
1126.768
1126.51
1126.228
1125.914
1125.566
1125.178
1124.746
1124.268
1123.742
1123.166
1122.542
1121.87
1121.152
1120.392
1119.593
1118.761
1117.901
1117.02
1116.124
1115.22
1114.314
1113.415
1112.528
1111.661
1110.818
1110.004
1109.225
1108.482
1107.778
1107.117
1106.472
1105.957
1105.013
1134.701
1134.549
1134.323
1134.044
1133.728
1133.385
1133.025
1132.654
1132.281
1131.912
1131.552
1131.206
1130.876
1130.566
1130.274
1130.003
1129.749
1129.512
1129.286
1129.069
1128.855
1128.639
1128.415
1128.177
1127.919
1127.635
1127.319
1126.967
1126.574
1126.136
1125.651
1125.117
1124.532
1123.897
1123.214
1122.485
1121.714
1120.904
1120.061
1119.191
1118.3
1117.396
1116.485
1115.575
1114.674
1113.788
1112.923
1112.087
1111.284
1110.519
1109.796
1109.118
1108.486
1107.901
1107.363
1106.868
1106.419
1105.99
1105.655
1105.02
1135.13
1134.811
1134.451
1134.074
1133.693
1133.317
1132.952
1132.602
1132.271
1131.959
1131.669
1131.399
1131.147
1130.912
1130.689
1130.475
1130.264
1130.05
1129.827
1129.59
1129.332
1129.047
1128.729
1128.373
1127.975
1127.531
1127.039
1126.495
1125.901
1125.256
1124.562
1123.821
1123.037
1122.215
1121.361
1120.479
1119.578
1118.665
1117.746
1116.829
1115.923
1115.034
1114.169
1113.334
1112.536
1111.778
1111.065
1110.401
1109.785
1109.221
1108.708
1108.244
1107.829
1107.457
1107.127
1106.831
1106.567
1106.314
1106.12
1105.69
1135.027
1134.691
1134.339
1133.993
1133.663
1133.353
1133.064
1132.797
1132.548
1132.316
1132.097
1131.885
1131.677
1131.466
1131.245
1131.008
1130.75
1130.464
1130.143
1129.784
1129.381
1128.931
1128.43
1127.878
1127.274
1126.618
1125.912
1125.16
1124.364
1123.529
1122.662
1121.77
1120.857
1119.934
1119.006
1118.083
1117.171
1116.278
1115.411
1114.576
1113.779
1113.026
1112.319
1111.663
1111.059
1110.508
1110.01
1109.565
1109.17
1108.822
1108.519
1108.255
1108.027
1107.827
1107.651
1107.491
1107.343
1107.184
1107.064
1106.705
1134.977
1134.716
1134.448
1134.19
1133.947
1133.72
1133.505
1133.298
1133.093
1132.885
1132.666
1132.431
1132.173
1131.885
1131.562
1131.199
1130.791
1130.334
1129.826
1129.265
1128.651
1127.984
1127.266
1126.501
1125.693
1124.846
1123.967
1123.062
1122.139
1121.205
1120.268
1119.337
1118.419
1117.522
1116.653
1115.817
1115.022
1114.272
1113.571
1112.921
1112.326
1111.785
1111.299
1110.867
1110.487
1110.156
1109.87
1109.626
1109.418
1109.242
1109.091
1108.961
1108.845
1108.737
1108.631
1108.521
1108.404
1108.256
1108.137
1107.734
1135.261
1135.088
1134.897
1134.702
1134.505
1134.302
1134.088
1133.855
1133.598
1133.309
1132.985
1132.618
1132.204
1131.741
1131.225
1130.655
1130.03
1129.352
1128.623
1127.845
1127.024
1126.164
1125.273
1124.356
1123.422
1122.478
1121.532
1120.594
1119.67
1118.769
1117.897
1117.061
1116.267
1115.52
1114.823
1114.18
1113.593
1113.062
1112.586
1112.166
1111.798
1111.48
1111.209
1110.979
1110.786
1110.625
1110.491
1110.377
1110.279
1110.191
1110.107
1110.022
1109.931
1109.831
1109.715
1109.58
1109.425
1109.226
1109.06
1108.554
1135.827
1135.68
1135.49
1135.269
1135.018
1134.732
1134.407
1134.037
1133.62
1133.15
1132.626
1132.047
1131.412
1130.723
1129.982
1129.192
1128.358
1127.485
1126.581
1125.652
1124.707
1123.753
1122.798
1121.852
1120.923
1120.017
1119.143
1118.307
1117.515
1116.771
1116.08
1115.444
1114.864
1114.342
1113.877
1113.468
1113.112
1112.807
1112.547
1112.33
1112.15
1112.001
1111.879
1111.777
1111.69
1111.614
1111.541
1111.469
1111.391
1111.305
1111.206
1111.091
1110.958
1110.804
1110.628
1110.426
1110.202
1109.931
1109.703
1109.093
1136.35
1136.114
1135.808
1135.445
1135.028
1134.555
1134.026
1133.439
1132.794
1132.094
1131.341
1130.539
1129.692
1128.807
1127.89
1126.949
1125.993
1125.028
1124.065
1123.112
1122.177
1121.268
1120.392
1119.556
1118.766
1118.026
1117.34
1116.711
1116.14
1115.628
1115.173
1114.776
1114.432
1114.138
1113.891
1113.685
1113.517
1113.379
1113.267
1113.175
1113.097
1113.029
1112.964
1112.898
1112.827
1112.747
1112.654
1112.547
1112.422
1112.279
1112.115
1111.93
1111.725
1111.498
1111.25
1110.98
1110.693
1110.364
1110.09
1109.42
1136.341
1135.913
1135.398
1134.814
1134.166
1133.459
1132.696
1131.883
1131.024
1130.127
1129.198
1128.246
1127.278
1126.304
1125.333
1124.373
1123.433
1122.52
1121.643
1120.808
1120.02
1119.284
1118.604
1117.983
1117.421
1116.919
1116.475
1116.089
1115.757
1115.476
1115.241
1115.048
1114.89
1114.763
1114.661
1114.578
1114.508
1114.446
1114.386
1114.325
1114.258
1114.18
1114.09
1113.984
1113.861
1113.72
1113.559
1113.378
1113.178
1112.959
1112.722
1112.468
1112.199
1111.915
1111.618
1111.307
1110.989
1110.638
1110.349
1109.679
1135.439
1134.773
1134.023
1133.209
1132.345
1131.439
1130.501
1129.538
1128.561
1127.578
1126.599
1125.633
1124.688
1123.773
1122.895
1122.06
1121.276
1120.545
1119.872
1119.258
1118.706
1118.214
1117.783
1117.409
1117.09
1116.821
1116.598
1116.417
1116.271
1116.155
1116.062
1115.987
1115.925
1115.868
1115.814
1115.756
1115.691
1115.615
1115.525
1115.418
1115.294
1115.151
1114.989
1114.806
1114.605
1114.386
1114.151
1113.9
1113.636
1113.36
1113.074
1112.781
1112.481
1112.176
1111.868
1111.555
1111.242
1110.906
1110.632
1110.008
1133.564
1132.698
1131.772
1130.81
1129.829
1128.841
1127.857
1126.887
1125.939
1125.022
1124.144
1123.312
1122.532
1121.807
1121.141
1120.537
1119.995
1119.515
1119.096
1118.734
1118.428
1118.172
1117.963
1117.794
1117.659
1117.553
1117.47
1117.404
1117.348
1117.298
1117.248
1117.193
1117.129
1117.054
1116.963
1116.855
1116.728
1116.582
1116.416
1116.23
1116.025
1115.803
1115.564
1115.311
1115.045
1114.77
1114.486
1114.197
1113.904
1113.609
1113.314
1113.021
1112.729
1112.441
1112.155
1111.87
1111.589
1111.29
1111.048
1110.485
1130.983
1130.044
1129.079
1128.117
1127.173
1126.26
1125.387
1124.559
1123.785
1123.068
1122.411
1121.817
1121.286
1120.818
1120.412
1120.065
1119.772
1119.53
1119.334
1119.177
1119.054
1118.96
1118.886
1118.828
1118.78
1118.735
1118.689
1118.636
1118.574
1118.498
1118.407
1118.296
1118.167
1118.017
1117.846
1117.655
1117.445
1117.218
1116.974
1116.716
1116.447
1116.168
1115.883
1115.593
1115.3
1115.008
1114.717
1114.43
1114.147
1113.871
1113.601
1113.337
1113.08
1112.829
1112.582
1112.337
1112.095
1111.833
1111.623
1111.106
1128.288
1127.436
1126.592
1125.783
1125.022
1124.318
1123.674
1123.093
1122.576
1122.122
1121.73
1121.397
1121.119
1120.892
1120.709
1120.566
1120.456
1120.372
1120.309
1120.259
1120.217
1120.178
1120.136
1120.086
1120.025
1119.949
1119.856
1119.743
1119.61
1119.455
1119.28
1119.084
1118.868
1118.635
1118.386
1118.123
1117.848
1117.565
1117.276
1116.983
1116.688
1116.395
1116.104
1115.819
1115.539
1115.268
1115.004
1114.749
1114.503
1114.265
1114.036
1113.813
1113.596
1113.382
1113.17
1112.956
1112.74
1112.499
1112.304
1111.796
1126.136
1125.504
1124.899
1124.345
1123.85
1123.416
1123.042
1122.727
1122.466
1122.255
1122.087
1121.958
1121.861
1121.789
1121.736
1121.695
1121.661
1121.627
1121.589
1121.542
1121.482
1121.405
1121.31
1121.194
1121.057
1120.898
1120.718
1120.516
1120.295
1120.055
1119.8
1119.532
1119.252
1118.964
1118.67
1118.374
1118.076
1117.78
1117.489
1117.203
1116.924
1116.653
1116.392
1116.141
1115.9
1115.669
1115.447
1115.235
1115.029
1114.83
1114.635
1114.443
1114.251
1114.058
1113.86
1113.654
1113.44
1113.193
1112.992
1112.454
1124.996
1124.644
1124.317
1124.033
1123.798
1123.608
1123.46
1123.348
1123.266
1123.207
1123.165
1123.134
1123.108
1123.08
1123.046
1123.002
1122.942
1122.866
1122.769
1122.65
1122.509
1122.345
1122.159
1121.952
1121.725
1121.479
1121.218
1120.944
1120.659
1120.366
1120.068
1119.767
1119.466
1119.168
1118.874
1118.587
1118.308
1118.038
1117.778
1117.529
1117.29
1117.062
1116.845
1116.637
1116.437
1116.245
1116.058
1115.876
1115.695
1115.516
1115.334
1115.149
1114.958
1114.759
1114.549
1114.325
1114.089
1113.813
1113.586
1112.987
1125.002
1124.896
1124.795
1124.714
1124.656
1124.616
1124.589
1124.57
1124.553
1124.533
1124.504
1124.463
1124.405
1124.328
1124.23
1124.109
1123.964
1123.795
1123.604
1123.391
1123.158
1122.906
1122.639
1122.359
1122.068
1121.771
1121.468
1121.163
1120.86
1120.559
1120.264
1119.975
1119.695
1119.425
1119.166
1118.918
1118.681
1118.455
1118.24
1118.035
1117.839
1117.65
1117.467
1117.29
1117.115
1116.941
1116.767
1116.59
1116.409
1116.222
1116.028
1115.823
1115.608
1115.379
1115.136
1114.875
1114.599
1114.28
1114.015
1113.346
1125.917
1125.956
1125.972
1125.98
1125.981
1125.974
1125.954
1125.918
1125.864
1125.788
1125.689
1125.566
1125.418
1125.246
1125.05
1124.831
1124.592
1124.335
1124.062
1123.776
1123.481
1123.178
1122.871
1122.563
1122.256
1121.953
1121.656
1121.367
1121.087
1120.817
1120.558
1120.311
1120.075
1119.851
1119.638
1119.435
1119.241
1119.055
1118.875
1118.7
1118.528
1118.357
1118.186
1118.013
1117.836
1117.653
1117.464
1117.267
1117.06
1116.842
1116.612
1116.369
1116.112
1115.84
1115.553
1115.247
1114.927
1114.563
1114.262
1113.53
1127.28
1127.344
1127.36
1127.345
1127.302
1127.233
1127.138
1127.015
1126.866
1126.691
1126.492
1126.269
1126.025
1125.763
1125.485
1125.194
1124.894
1124.587
1124.276
1123.965
1123.656
1123.351
1123.052
1122.762
1122.482
1122.212
1121.954
1121.708
1121.474
1121.252
1121.041
1120.84
1120.648
1120.463
1120.285
1120.112
1119.941
1119.772
1119.603
1119.431
1119.255
1119.074
1118.887
1118.691
1118.486
1118.271
1118.046
1117.808
1117.559
1117.296
1117.021
1116.733
1116.431
1116.116
1115.786
1115.44
1115.083
1114.684
1114.355
1113.581
1128.609
1128.605
1128.54
1128.433
1128.292
1128.12
1127.921
1127.696
1127.45
1127.185
1126.903
1126.609
1126.305
1125.995
1125.681
1125.368
1125.056
1124.75
1124.451
1124.16
1123.88
1123.611
1123.355
1123.11
1122.878
1122.657
1122.448
1122.249
1122.059
1121.877
1121.701
1121.529
1121.36
1121.191
1121.022
1120.851
1120.675
1120.494
1120.307
1120.111
1119.906
1119.69
1119.465
1119.228
1118.979
1118.719
1118.447
1118.164
1117.868
1117.562
1117.244
1116.916
1116.577
1116.227
1115.867
1115.494
1115.113
1114.694
1114.349
1113.556
1129.582
1129.471
1129.3
1129.09
1128.85
1128.588
1128.307
1128.012
1127.708
1127.396
1127.082
1126.767
1126.455
1126.149
1125.85
1125.56
1125.281
1125.013
1124.758
1124.515
1124.285
1124.067
1123.86
1123.663
1123.476
1123.295
1123.121
1122.95
1122.783
1122.615
1122.447
1122.276
1122.1
1121.918
1121.729
1121.532
1121.326
1121.109
1120.881
1120.643
1120.393
1120.131
1119.858
1119.574
1119.28
1118.975
1118.661
1118.337
1118.004
1117.664
1117.316
1116.961
1116.599
1116.23
1115.854
1115.468
1115.079
1114.654
1114.305
1113.512
1130.111
1129.91
1129.659
1129.379
1129.083
1128.777
1128.466
1128.155
1127.845
1127.541
1127.244
1126.956
1126.68
1126.415
1126.162
1125.922
1125.695
1125.48
1125.276
1125.082
1124.896
1124.718
1124.546
1124.377
1124.211
1124.044
1123.876
1123.705
1123.529
1123.347
1123.156
1122.958
1122.749
1122.53
1122.3
1122.059
1121.806
1121.542
1121.266
1120.98
1120.683
1120.377
1120.061
1119.737
1119.406
1119.068
1118.723
1118.373
1118.019
1117.66
1117.297
1116.93
1116.56
1116.186
1115.807
1115.421
1115.033
1114.611
1114.266
1113.482
1130.315
1130.074
1129.797
1129.504
1129.207
1128.912
1128.622
1128.341
1128.07
1127.81
1127.562
1127.327
1127.104
1126.893
1126.693
1126.502
1126.32
1126.145
1125.975
1125.808
1125.643
1125.478
1125.31
1125.139
1124.963
1124.78
1124.588
1124.388
1124.177
1123.956
1123.723
1123.479
1123.223
1122.955
1122.677
1122.387
1122.087
1121.777
1121.459
1121.133
1120.799
1120.46
1120.115
1119.765
1119.412
1119.056
1118.697
1118.337
1117.975
1117.612
1117.247
1116.881
1116.513
1116.142
1115.769
1115.389
1115.007
1114.592
1114.252
1113.478
1130.421
1130.196
1129.944
1129.686
1129.431
1129.183
1128.946
1128.72
1128.504
1128.3
1128.106
1127.921
1127.743
1127.572
1127.405
1127.241
1127.079
1126.915
1126.749
1126.578
1126.401
1126.217
1126.025
1125.823
1125.61
1125.386
1125.15
1124.903
1124.644
1124.373
1124.09
1123.797
1123.493
1123.18
1122.859
1122.529
1122.193
1121.85
1121.503
1121.152
1120.798
1120.441
1120.083
1119.724
1119.364
1119.005
1118.645
1118.286
1117.927
1117.568
1117.209
1116.849
1116.488
1116.125
1115.758
1115.384
1115.008
1114.599
1114.263
1113.494
1130.642
1130.469
1130.273
1130.072
1129.875
1129.685
1129.503
1129.327
1129.158
1128.993
1128.832
1128.673
1128.514
1128.353
1128.188
1128.019
1127.842
1127.658
1127.465
1127.261
1127.046
1126.82
1126.582
1126.331
1126.069
1125.794
1125.508
1125.211
1124.904
1124.587
1124.261
1123.928
1123.589
1123.243
1122.893
1122.54
1122.183
1121.825
1121.466
1121.106
1120.746
1120.387
1120.029
1119.672
1119.316
1118.961
1118.608
1118.256
1117.904
1117.552
1117.2
1116.847
1116.492
1116.133
1115.771
1115.401
1115.028
1114.621
1114.287
1113.518
1131.094
1130.981
1130.841
1130.692
1130.542
1130.392
1130.242
1130.092
1129.94
1129.784
1129.624
1129.457
1129.283
1129.099
1128.906
1128.701
1128.485
1128.257
1128.016
1127.763
1127.497
1127.219
1126.929
1126.629
1126.318
1125.997
1125.668
1125.331
1124.988
1124.64
1124.287
1123.93
1123.572
1123.211
1122.85
1122.489
1122.128
1121.768
1121.409
1121.052
1120.697
1120.344
1119.992
1119.642
1119.294
1118.947
1118.601
1118.255
1117.909
1117.563
1117.215
1116.866
1116.513
1116.157
1115.796
1115.427
1115.054
1114.646
1114.311
1113.542
1131.772
1131.699
1131.592
1131.468
1131.334
1131.192
1131.041
1130.882
1130.713
1130.533
1130.342
1130.139
1129.923
1129.693
1129.451
1129.196
1128.927
1128.647
1128.354
1128.049
1127.735
1127.411
1127.078
1126.738
1126.392
1126.04
1125.684
1125.325
1124.964
1124.601
1124.238
1123.875
1123.512
1123.151
1122.792
1122.434
1122.078
1121.725
1121.374
1121.024
1120.677
1120.332
1119.988
1119.645
1119.302
1118.96
1118.618
1118.276
1117.933
1117.588
1117.241
1116.892
1116.539
1116.183
1115.821
1115.451
1115.078
1114.67
1114.335
1113.567
1132.573
1132.506
1132.397
1132.262
1132.11
1131.942
1131.759
1131.562
1131.349
1131.122
1130.881
1130.625
1130.356
1130.073
1129.778
1129.471
1129.154
1128.827
1128.491
1128.148
1127.798
1127.444
1127.085
1126.723
1126.36
1125.995
1125.63
1125.265
1124.901
1124.539
1124.178
1123.82
1123.463
1123.109
1122.758
1122.408
1122.061
1121.715
1121.372
1121.029
1120.688
1120.347
1120.007
1119.667
1119.327
1118.987
1118.646
1118.303
1117.96
1117.614
1117.267
1116.917
1116.563
1116.206
1115.845
1115.476
1115.103
1114.698
1114.365
1113.603
1133.349
1133.254
1133.111
1132.938
1132.741
1132.524
1132.29
1132.039
1131.773
1131.492
1131.197
1130.889
1130.57
1130.242
1129.904
1129.558
1129.207
1128.85
1128.489
1128.125
1127.759
1127.392
1127.025
1126.659
1126.294
1125.93
1125.569
1125.209
1124.852
1124.498
1124.146
1123.796
1123.448
1123.102
1122.758
1122.415
1122.074
1121.733
1121.394
1121.054
1120.715
1120.375
1120.036
1119.696
1119.355
1119.014
1118.672
1118.328
1117.984
1117.638
1117.29
1116.941
1116.589
1116.234
1115.875
1115.509
1115.141
1114.74
1114.411
1113.658
1133.972
1133.827
1133.632
1133.405
1133.153
1132.882
1132.594
1132.291
1131.975
1131.648
1131.311
1130.965
1130.613
1130.255
1129.892
1129.527
1129.16
1128.792
1128.424
1128.057
1127.69
1127.326
1126.963
1126.603
1126.246
1125.891
1125.538
1125.188
1124.839
1124.493
1124.149
1123.806
1123.464
1123.123
1122.782
1122.442
1122.103
1121.763
1121.423
1121.083
1120.743
1120.403
1120.062
1119.721
1119.379
1119.037
1118.695
1118.352
1118.009
1117.665
1117.32
1116.974
1116.626
1116.276
1115.923
1115.563
1115.201
1114.807
1114.484
1113.741
1134.37
1134.171
1133.922
1133.643
1133.342
1133.026
1132.696
1132.356
1132.007
1131.651
1131.29
1130.926
1130.559
1130.191
1129.823
1129.455
1129.089
1128.724
1128.361
1128.001
1127.643
1127.288
1126.935
1126.584
1126.235
1125.889
1125.544
1125.2
1124.858
1124.516
1124.175
1123.835
1123.494
1123.154
1122.813
1122.473
1122.132
1121.791
1121.45
1121.108
1120.767
1120.426
1120.085
1119.744
1119.404
1119.064
1118.724
1118.385
1118.046
1117.707
1117.368
1117.028
1116.687
1116.344
1115.997
1115.644
1115.288
1114.9
1114.582
1113.847
1134.543
1134.299
1134.009
1133.694
1133.362
1133.018
1132.666
1132.308
1131.946
1131.582
1131.216
1130.85
1130.486
1130.122
1129.76
1129.4
1129.043
1128.688
1128.335
1127.984
1127.635
1127.289
1126.943
1126.6
1126.257
1125.914
1125.573
1125.231
1124.89
1124.549
1124.207
1123.866
1123.524
1123.182
1122.84
1122.497
1122.155
1121.814
1121.472
1121.131
1120.791
1120.452
1120.114
1119.777
1119.442
1119.107
1118.773
1118.44
1118.108
1117.776
1117.443
1117.11
1116.776
1116.438
1116.097
1115.749
1115.398
1115.013
1114.697
1113.962
1134.548
1134.278
1133.968
1133.636
1133.293
1132.942
1132.587
1132.229
1131.87
1131.511
1131.153
1130.796
1130.441
1130.088
1129.736
1129.386
1129.038
1128.692
1128.347
1128.003
1127.66
1127.317
1126.975
1126.633
1126.291
1125.948
1125.606
1125.263
1124.92
1124.577
1124.234
1123.89
1123.547
1123.204
1122.862
1122.52
1122.18
1121.84
1121.502
1121.165
1120.829
1120.496
1120.164
1119.833
1119.504
1119.176
1118.85
1118.524
1118.198
1117.872
1117.545
1117.217
1116.887
1116.553
1116.214
1115.867
1115.515
1115.129
1114.812
1114.071
1134.467
1134.193
1133.881
1133.552
1133.214
1132.87
1132.523
1132.176
1131.827
1131.479
1131.132
1130.785
1130.44
1130.095
1129.751
1129.408
1129.066
1128.723
1128.381
1128.038
1127.695
1127.352
1127.009
1126.665
1126.321
1125.977
1125.632
1125.288
1124.943
1124.599
1124.256
1123.913
1123.571
1123.23
1122.891
1122.554
1122.218
1121.884
1121.552
1121.221
1120.893
1120.566
1120.241
1119.918
1119.596
1119.274
1118.953
1118.632
1118.31
1117.987
1117.663
1117.336
1117.005
1116.669
1116.328
1115.978
1115.622
1115.23
1114.908
1114.155
1134.383
1134.118
1133.817
1133.499
1133.172
1132.84
1132.505
1132.168
1131.83
1131.491
1131.151
1130.811
1130.47
1130.129
1129.788
1129.446
1129.103
1128.76
1128.416
1128.071
1127.726
1127.381
1127.035
1126.69
1126.344
1125.999
1125.654
1125.31
1124.967
1124.625
1124.285
1123.946
1123.61
1123.275
1122.942
1122.611
1122.282
1121.956
1121.631
1121.308
1120.986
1120.666
1120.347
1120.028
1119.709
1119.391
1119.072
1118.751
1118.429
1118.105
1117.778
1117.447
1117.111
1116.77
1116.423
1116.065
1115.702
1115.301
1114.972
1114.204
1134.341
1134.089
1133.8
1133.493
1133.177
1132.854
1132.527
1132.196
1131.863
1131.527
1131.189
1130.85
1130.509
1130.167
1129.824
1129.479
1129.134
1128.788
1128.442
1128.095
1127.749
1127.402
1127.056
1126.711
1126.367
1126.024
1125.683
1125.343
1125.006