/*--------------------------------*- C++ -*----------------------------------*\
| =========                 |                                                 |
| \\      /  F ield         | OpenFOAM: The Open Source CFD Toolbox           |
|  \\    /   O peration     | Version:  2312                                  |
|   \\  /    A nd           | Website:  www.openfoam.com                      |
|    \\/     M anipulation  |                                                 |
\*---------------------------------------------------------------------------*/
FoamFile
{
    version     2.0;
    format      ascii;
    arch        "LSB;label=32;scalar=64";
    class       volScalarField;
    location    "2000";
    object      ILambda_11_0;
}
// * * * * * * * * * * * * * * * * * * * * * * * * * * * * * * * * * * * * * //

dimensions      [1 0 -3 0 0 0 0];

internalField   nonuniform List<scalar> 
12000
(
449.8923
448.574
447.9018
447.076
446.2821
445.4772
444.6724
443.8663
443.0604
442.2555
441.4526
440.6525
439.8562
439.0648
438.2789
437.4997
436.7278
435.9643
435.2098
434.4653
433.7313
433.0088
432.2982
431.6003
430.9155
430.2445
429.5877
428.9456
428.3184
427.7066
427.1102
426.5296
425.9649
425.4161
424.8833
424.3662
423.8649
423.3791
422.9088
422.4537
422.0133
421.5871
421.1747
420.7761
420.3911
420.0189
419.6586
419.3102
418.9737
418.6484
418.3335
418.0288
417.7346
417.4506
417.1764
416.9124
416.6594
416.4181
416.191
415.981
462.5756
461.5994
461.0807
460.4348
459.7934
459.1261
458.4403
457.7348
457.0106
456.2685
455.5089
454.7329
453.9412
453.1346
452.3143
451.4813
450.6364
449.7809
448.9158
448.0426
447.1622
446.2759
445.3849
444.4906
443.5944
442.6975
441.801
440.9064
440.0152
439.1286
438.2478
437.3741
436.5088
435.6532
434.8084
433.9755
433.1555
432.3496
431.5587
430.7837
430.0255
429.2848
428.5623
427.8586
427.1741
426.5094
425.8648
425.2405
424.6367
424.0536
423.4914
422.95
422.4296
421.9303
421.4523
420.996
420.5623
420.1531
419.772
419.424
465.434
464.899
464.6196
464.263
463.9008
463.5153
463.11
462.6837
462.2364
461.7681
461.2785
460.7678
460.236
459.683
459.109
458.5141
457.8984
457.2623
456.606
455.9299
455.2343
454.5196
453.7865
453.0354
452.2671
451.4822
450.6816
449.866
449.0363
448.1936
447.339
446.4734
445.598
444.7142
443.8232
442.9262
442.0248
441.1204
440.2144
439.3083
438.4037
437.5021
436.6052
435.7143
434.8312
433.9574
433.0945
432.244
431.4077
430.5868
429.7832
428.9982
428.2336
427.4909
426.7718
426.0787
425.4142
424.7824
424.1892
423.6444
466.3658
466.1045
465.9858
465.8258
465.6614
465.4824
465.2904
465.0843
464.8639
464.6287
464.3783
464.1124
463.8304
463.5321
463.217
462.8846
462.5346
462.1665
461.7799
461.3743
460.9493
460.5046
460.0399
459.5546
459.0487
458.5219
457.9738
457.4045
456.8137
456.2015
455.5679
454.9129
454.2368
453.5397
452.822
452.084
451.3264
450.5496
449.7542
448.9411
448.111
447.2648
446.4036
445.5285
444.6405
443.7411
442.8316
441.9136
440.9885
440.0581
439.1243
438.189
437.2543
436.3225
435.3961
434.4784
433.573
432.6851
431.8228
430.9988
465.3521
465.1722
465.1117
465.0245
464.9395
464.8481
464.7518
464.6498
464.5421
464.4285
464.3086
464.1822
464.049
463.9086
463.7608
463.605
463.4408
463.2677
463.0852
462.8926
462.6895
462.4752
462.2491
462.0105
461.7588
461.4933
461.2134
460.9184
460.6076
460.2805
459.9364
459.5745
459.1945
458.7956
458.3773
457.9391
457.4806
457.0013
456.5007
455.9786
455.4346
454.8686
454.2803
453.6696
453.0366
452.3814
451.7041
451.005
450.2845
449.5432
448.7818
448.001
447.202
446.3861
445.555
444.7108
443.8564
442.9964
442.1383
441.2963
464.3154
464.0649
463.9774
463.8588
463.75
463.6393
463.5292
463.4189
463.3087
463.1987
463.0887
462.9789
462.8693
462.7595
462.6496
462.5394
462.4285
462.3168
462.2039
462.0895
461.9732
461.8547
461.7334
461.609
461.481
461.3488
461.2121
461.0701
460.9224
460.7683
460.6074
460.4389
460.2623
460.0768
459.882
459.677
459.4612
459.2339
458.9944
458.742
458.4761
458.1959
457.9008
457.59
457.263
456.9192
456.5579
456.1786
455.7809
455.3643
454.9286
454.4735
453.9991
453.5055
452.9931
452.4629
451.9165
451.357
450.7908
450.2315
464.2338
463.8283
463.6661
463.4575
463.2661
463.075
462.8879
462.7039
462.5234
462.3467
462.1739
462.0052
461.8405
461.68
461.5236
461.3713
461.2229
461.0784
460.9376
460.8002
460.6662
460.5353
460.4072
460.2817
460.1586
460.0376
459.9184
459.8006
459.6841
459.5685
459.4534
459.3386
459.2236
459.1081
458.9917
458.8741
458.7548
458.6334
458.5094
458.3825
458.2521
458.1179
457.9792
457.8356
457.6867
457.5319
457.3707
457.2026
457.0272
456.844
456.6527
456.4529
456.2444
456.0272
455.8013
455.5674
455.3265
455.0812
454.8373
454.6074
465.6591
465.0523
464.7879
464.4558
464.1482
463.8413
463.5406
463.245
462.9553
462.6716
462.3944
462.1238
461.86
461.6032
461.3534
461.1106
460.8747
460.6458
460.4237
460.2082
459.9993
459.7967
459.6003
459.4099
459.2253
459.0462
458.8726
458.7041
458.5406
458.3818
458.2276
458.0776
457.9318
457.7898
457.6515
457.5166
457.3849
457.2562
457.1303
457.007
456.8861
456.7674
456.6506
456.5356
456.4223
456.3104
456.1997
456.0902
455.9818
455.8743
455.7677
455.6622
455.5579
455.455
455.3543
455.2565
455.1631
455.0769
455.0038
454.9564
468.7974
467.9905
467.6192
467.1574
466.7242
466.2899
465.8616
465.4382
465.0207
464.6096
464.2055
463.8088
463.42
463.0393
462.667
462.3033
461.9482
461.6019
461.2644
460.9357
460.6157
460.3044
460.0018
459.7077
459.422
459.1445
458.8752
458.6138
458.3602
458.1142
457.8757
457.6443
457.42
457.2025
456.9916
456.7872
456.589
456.3968
456.2104
456.0297
455.8544
455.6845
455.5198
455.3601
455.2054
455.0555
454.9104
454.7701
454.6346
454.504
454.3785
454.2583
454.1437
454.0355
453.9344
453.8416
453.7588
453.6889
453.6381
453.6191
473.3662
472.4323
471.9868
471.4336
470.9076
470.3755
469.8457
469.317
468.7908
468.2679
467.7491
467.2351
466.7265
466.224
465.7281
465.2391
464.7576
464.2837
463.8179
463.3604
462.9114
462.4712
462.0398
461.6175
461.2043
460.8004
460.4058
460.0206
459.6447
459.2783
458.9212
458.5734
458.2349
457.9056
457.5854
457.2742
456.9719
456.6784
456.3935
456.1172
455.8492
455.5895
455.3379
455.0943
454.8586
454.6306
454.4105
454.198
453.9932
453.7962
453.6072
453.4263
453.254
453.091
452.938
452.7962
452.6673
452.5544
452.4635
452.4075
478.4804
477.554
477.1026
476.5399
475.9971
475.4422
474.8831
474.3188
473.7509
473.1801
472.6074
472.0337
471.4597
470.8861
470.3135
469.7427
469.1742
468.6085
468.0462
467.4878
466.9338
466.3846
465.8407
465.3025
464.7705
464.245
463.7263
463.2149
462.7111
462.2152
461.7274
461.248
460.7773
460.3156
459.8629
459.4195
458.9856
458.5612
458.1466
457.7417
457.3468
456.9619
456.587
456.2222
455.8676
455.5232
455.1891
454.8655
454.5523
454.2498
453.9581
453.6776
453.4088
453.1523
452.9089
452.6796
452.4663
452.2718
452.1022
451.9701
482.9317
482.1489
481.7667
481.2854
480.8147
480.3276
479.8305
479.3225
478.8049
478.2783
477.7435
477.2012
476.652
476.0964
475.5352
474.9688
474.3977
473.8226
473.2439
472.6622
472.078
471.4919
470.9043
470.3158
469.7269
469.1382
468.5502
467.9635
467.3785
466.7958
466.216
465.6395
465.0668
464.4985
463.935
463.3768
462.8245
462.2783
461.7389
461.2067
460.682
460.1653
459.657
459.1574
458.6671
458.1864
457.7157
457.2554
456.806
456.3679
455.9417
455.528
455.1275
454.7412
454.3701
454.0155
453.6793
453.3648
453.0781
452.8319
485.7611
485.1923
484.9235
484.5785
484.2372
483.8793
483.5091
483.1259
482.7304
482.323
481.9041
481.4741
481.0332
480.5817
480.1198
479.6479
479.1662
478.675
478.1746
477.6651
477.1471
476.6207
476.0863
475.5443
474.995
474.4389
473.8764
473.3079
472.7339
472.1549
471.5712
470.9836
470.3923
469.7981
469.2014
468.6029
468.0029
467.4023
466.8015
466.2011
465.6017
465.004
464.4086
463.8162
463.2273
462.6427
462.063
461.489
460.9215
460.3612
459.809
459.2659
458.7331
458.2116
457.703
457.2089
456.7318
456.275
455.8451
455.4551
486.717
486.339
486.1782
485.9643
485.7524
485.5275
485.2925
485.0467
484.7903
484.5235
484.2464
483.9588
483.6609
483.3525
483.0336
482.704
482.3638
482.0128
481.651
481.2783
480.8946
480.5
480.0945
479.6781
479.2508
478.8127
478.3639
477.9045
477.4346
476.9545
476.4644
475.9644
475.4548
474.936
474.4081
473.8717
473.3269
472.7743
472.2143
471.6472
471.0736
470.494
469.909
469.3192
468.7251
468.1275
467.527
466.9244
466.3205
465.7163
465.1128
464.511
463.9122
463.3178
462.7295
462.1492
461.5795
461.0242
460.4901
459.9907
486.2842
486.0077
485.9103
485.7745
485.6436
485.5051
485.3613
485.2113
485.0555
484.8937
484.7259
484.5519
484.3714
484.1843
483.9903
483.7891
483.5804
483.3639
483.1394
482.9065
482.6649
482.4143
482.1546
481.8853
481.6062
481.3171
481.0178
480.708
480.3875
480.0563
479.7141
479.3608
478.9963
478.6205
478.2334
477.8349
477.425
477.0039
476.5714
476.1278
475.6731
475.2076
474.7315
474.245
473.7484
473.2421
472.7265
472.2021
471.6695
471.1294
470.5825
470.0298
469.4723
468.9113
468.3482
467.7849
467.2239
466.669
466.127
465.6118
485.3136
485.0394
484.9511
484.828
484.7145
484.5978
484.4805
484.3618
484.2419
484.1209
483.9986
483.875
483.7499
483.623
483.4941
483.3629
483.2293
483.0927
482.953
482.8098
482.6627
482.5113
482.3554
482.1945
482.0284
481.8565
481.6785
481.4941
481.3029
481.1046
480.8987
480.685
480.4631
480.2326
479.9932
479.7447
479.4867
479.2189
478.9411
478.6531
478.3547
478.0457
477.7258
477.3951
477.0535
476.701
476.3375
475.9632
475.5783
475.1831
474.7779
474.3634
473.94
473.5088
473.0708
472.6276
472.1812
471.7351
471.296
470.8776
484.5422
484.2086
484.0929
483.9373
483.7953
483.6522
483.5111
483.3713
483.2332
483.0968
482.9622
482.8296
482.6987
482.5695
482.4421
482.3162
482.1916
482.0683
481.946
481.8246
481.7037
481.5833
481.4629
481.3423
481.2214
481.0997
480.9769
480.8529
480.7271
480.5994
480.4693
480.3365
480.2007
480.0614
479.9184
479.7712
479.6195
479.4629
479.3011
479.1336
478.9602
478.7804
478.594
478.4007
478.2002
477.9922
477.7765
477.553
477.3216
477.0823
476.8351
476.5803
476.3181
476.0491
475.774
475.494
475.2108
474.9274
474.6502
474.3925
484.3011
483.8987
483.7466
483.5472
483.3632
483.1778
482.9948
482.8133
482.6339
482.4568
482.2821
482.11
481.9406
481.774
481.6102
481.4494
481.2914
481.1363
480.9842
480.8349
480.6885
480.5449
480.404
480.2657
480.13
479.9967
479.8657
479.7369
479.6101
479.4852
479.362
479.2402
479.1198
479.0004
478.8819
478.764
478.6465
478.5291
478.4115
478.2936
478.1749
478.0552
477.9344
477.812
477.6878
477.5617
477.4334
477.3027
477.1695
477.0338
476.8955
476.7548
476.6118
476.4669
476.3208
476.1744
476.0293
475.8884
475.7576
475.65
484.5128
484.0689
483.8933
483.665
483.4519
483.2361
483.0214
482.8071
482.5938
482.3815
482.1704
481.9609
481.7531
481.547
481.343
481.141
480.9413
480.744
480.5491
480.3567
480.1671
479.9802
479.7961
479.6148
479.4366
479.2613
479.0892
478.9201
478.7541
478.5912
478.4315
478.275
478.1215
477.9712
477.824
477.6797
477.5385
477.4002
477.2648
477.1321
477.0021
476.8747
476.7499
476.6275
476.5075
476.3898
476.2744
476.1613
476.0504
475.942
475.836
475.7328
475.6326
475.5359
475.4435
475.3564
475.2763
475.2059
475.1513
475.1254
484.8849
484.4368
484.2575
484.0245
483.8054
483.5824
483.3592
483.1349
482.91
482.6846
482.4588
482.2329
482.0069
481.781
481.5554
481.3302
481.1055
480.8815
480.6583
480.436
480.2148
479.9948
479.7761
479.5589
479.3433
479.1294
478.9174
478.7073
478.4994
478.2937
478.0903
477.8894
477.6911
477.4954
477.3025
477.1125
476.9255
476.7416
476.5608
476.3834
476.2092
476.0386
475.8715
475.7081
475.5484
475.3927
475.241
475.0936
474.9508
474.8127
474.6798
474.5524
474.4311
474.3166
474.2097
474.1119
474.0248
473.9515
473.8983
473.8779
485.1402
484.7117
484.543
484.3226
484.1155
483.904
483.6917
483.4776
483.262
483.045
482.8265
482.6066
482.3855
482.1632
481.9397
481.7152
481.4897
481.2633
481.0361
480.8081
480.5795
480.3504
480.1209
479.891
479.661
479.4308
479.2007
478.9707
478.7409
478.5116
478.2828
478.0547
477.8273
477.6009
477.3756
477.1516
476.9289
476.7078
476.4883
476.2708
476.0553
475.842
475.6311
475.4229
475.2175
475.0153
474.8164
474.6213
474.4303
474.2438
474.0623
473.8864
473.7168
473.5543
473.4001
473.2556
473.1228
473.0049
472.9083
472.8459
485.1703
484.7609
484.6045
484.3993
484.2078
484.0126
483.8172
483.6204
483.4223
483.2229
483.0221
482.8198
482.6161
482.4109
482.2041
481.9959
481.7861
481.5747
481.3618
481.1474
480.9314
480.714
480.4951
480.2747
480.053
479.8298
479.6054
479.3797
479.1529
478.9249
478.6958
478.4658
478.235
478.0033
477.771
477.5381
477.3048
477.0712
476.8374
476.6035
476.3698
476.1365
475.9036
475.6715
475.4403
475.2103
474.9819
474.7554
474.5312
474.3098
474.0917
473.8776
473.6681
473.4643
473.2672
473.0786
472.9003
472.7359
472.5917
472.4808
485.0813
484.6671
484.5119
484.3088
484.1213
483.9318
483.7435
483.5552
483.367
483.1786
482.99
482.8009
482.6113
482.421
482.23
482.0381
481.8453
481.6515
481.4566
481.2606
481.0633
480.8647
480.6647
480.4633
480.2604
480.056
479.8501
479.6426
479.4335
479.2228
479.0104
478.7965
478.5809
478.3636
478.1448
477.9245
477.7026
477.4793
477.2545
477.0285
476.8012
476.5728
476.3434
476.1132
475.8823
475.651
475.4194
475.1881
474.9572
474.7273
474.4988
474.2722
474.0485
473.8283
473.6131
473.4041
473.2036
473.0149
472.8445
472.7055
485.1443
484.6884
484.5153
484.2912
484.0861
483.8807
483.6786
483.4784
483.2801
483.0834
482.8882
482.6942
482.5014
482.3097
482.1187
481.9285
481.7388
481.5496
481.3607
481.172
480.9834
480.7946
480.6057
480.4165
480.2269
480.0368
479.846
479.6545
479.4621
479.2688
479.0745
478.8791
478.6825
478.4847
478.2855
478.085
477.8831
477.6797
477.4749
477.2686
477.0608
476.8515
476.6409
476.4289
476.2156
476.0012
475.7859
475.5699
475.3535
475.1369
474.9207
474.7053
474.4913
474.2797
474.0716
473.8682
473.6718
473.4856
473.316
473.1762
485.6809
485.1492
484.9391
484.6709
484.4256
484.1812
483.9419
483.706
483.4737
483.2447
483.0189
482.7961
482.5761
482.3589
482.1443
481.9322
481.7224
481.5149
481.3095
481.1061
480.9045
480.7046
480.5064
480.3095
480.114
479.9197
479.7264
479.534
479.3424
479.1514
478.9609
478.7708
478.581
478.3913
478.2016
478.0118
477.8218
477.6314
477.4407
477.2495
477.0578
476.8654
476.6724
476.4788
476.2846
476.0897
475.8944
475.6987
475.5029
475.3072
475.1119
474.9175
474.7245
474.5336
474.346
474.1628
473.9861
473.8191
473.6681
473.5463
486.9212
486.2985
486.0414
485.7167
485.4179
485.12
484.8279
484.54
484.2565
483.9771
483.7017
483.4303
483.1627
482.899
482.639
482.3827
482.1301
481.881
481.6355
481.3934
481.1547
480.9193
480.687
480.4578
480.2317
480.0084
479.7879
479.5701
479.3549
479.1421
478.9317
478.7234
478.5173
478.3131
478.1108
477.9102
477.7111
477.5136
477.3174
477.1225
476.9288
476.7361
476.5445
476.3538
476.164
475.9752
475.7873
475.6005
475.4149
475.2307
475.0481
474.8676
474.6895
474.5145
474.3437
474.1783
474.02
473.8722
473.741
473.6395
488.8879
488.1877
487.8881
487.5121
487.1631
486.8139
486.4699
486.1294
485.7927
485.4596
485.1301
484.8043
484.482
484.1635
483.8486
483.5374
483.2301
482.9265
482.6268
482.3309
482.0389
481.7508
481.4665
481.1862
480.9096
480.637
480.3681
480.103
479.8417
479.5841
479.3301
479.0797
478.8329
478.5896
478.3496
478.113
477.8797
477.6495
477.4225
477.1985
476.9774
476.7593
476.5441
476.3316
476.122
475.9152
475.7112
475.5102
475.3123
475.1177
474.9265
474.7392
474.5561
474.378
474.2058
474.0406
473.8844
473.7401
473.6141
473.5191
491.3571
490.6193
490.2967
489.8924
489.5141
489.1336
488.7565
488.3812
488.0078
487.6363
487.2667
486.8991
486.5336
486.1703
485.8092
485.4506
485.0944
484.741
484.3903
484.0425
483.6977
483.356
483.0175
482.6823
482.3504
482.0221
481.6973
481.3761
481.0586
480.7448
480.4348
480.1286
479.8264
479.528
479.2336
478.9432
478.6567
478.3743
478.0958
477.8214
477.551
477.2848
477.0226
476.7645
476.5106
476.261
476.0158
475.7751
475.5391
475.308
475.0821
474.8619
474.6477
474.4403
474.2406
474.0499
473.8699
473.7039
473.558
473.4451
493.921
493.1988
492.8809
492.4819
492.1061
491.726
491.3471
490.9676
490.5878
490.2075
489.8267
489.4456
489.0642
488.6826
488.301
487.9196
487.5384
487.1577
486.7777
486.3984
486.0201
485.6428
485.2669
484.8924
484.5194
484.1483
483.779
483.4119
483.0469
482.6843
482.3242
481.9668
481.6121
481.2604
480.9117
480.5662
480.224
479.8852
479.5499
479.2184
478.8906
478.5667
478.2468
477.9312
477.6199
477.3132
477.0112
476.7142
476.4225
476.1363
475.8562
475.5825
475.3159
475.0571
474.807
474.5672
474.3394
474.1269
473.936
473.7794
496.1312
495.4717
495.1848
494.8229
494.4807
494.1331
493.7847
493.4339
493.0807
492.7249
492.3666
492.0057
491.6423
491.2764
490.9081
490.5376
490.165
489.7904
489.414
489.0359
488.6562
488.2751
487.8928
487.5095
487.1252
486.7403
486.3547
485.9689
485.5828
485.1968
484.8109
484.4254
484.0405
483.6563
483.273
482.8908
482.51
482.1307
481.7531
481.3773
481.0037
480.6324
480.2637
479.8978
479.5349
479.1753
478.8194
478.4674
478.1199
477.7771
477.4397
477.1081
476.7831
476.4655
476.1565
475.8575
475.5705
475.2989
475.049
474.8338
497.6591
497.0873
496.8467
496.5406
496.2516
495.9571
495.6611
495.3619
495.0594
494.7534
494.4435
494.1299
493.8124
493.491
493.1657
492.8365
492.5036
492.1669
491.8264
491.4824
491.1348
490.7837
490.4293
490.0716
489.7107
489.3469
488.9801
488.6105
488.2383
487.8636
487.4866
487.1074
486.7262
486.3432
485.9585
485.5724
485.1849
484.7964
484.4071
484.0171
483.6266
483.236
482.8454
482.4552
482.0657
481.6771
481.2899
480.9044
480.5211
480.1405
479.7632
479.3897
479.021
478.6578
478.3015
477.9536
477.6161
477.2926
476.9895
476.7198
498.4003
497.9127
497.7185
497.4689
497.2352
496.9973
496.7583
496.5167
496.2721
496.0242
495.7727
495.5175
495.2583
494.9952
494.7279
494.4565
494.1809
493.9009
493.6166
493.328
493.035
492.7376
492.4358
492.1296
491.819
491.5041
491.1848
490.8613
490.5335
490.2016
489.8656
489.5255
489.1815
488.8337
488.4821
488.1269
487.7682
487.4062
487.0409
486.6726
486.3014
485.9276
485.5513
485.1727
484.7923
484.4101
484.0267
483.6424
483.2576
482.8728
482.4886
482.1056
481.7246
481.3466
480.9728
480.6048
480.2447
479.896
479.5653
479.2657
498.481
498.0513
497.8908
497.6827
497.4909
497.2967
497.1029
496.9079
496.7113
496.5127
496.3118
496.1083
495.902
495.6928
495.4805
495.2648
495.0458
494.8233
494.5971
494.3671
494.1332
493.8954
493.6535
493.4074
493.1571
492.9025
492.6435
492.3802
492.1123
491.8399
491.563
491.2814
490.9953
490.7047
490.4094
490.1095
489.8051
489.4961
489.1827
488.8649
488.5427
488.2164
487.8859
487.5515
487.2133
486.8715
486.5265
486.1785
485.8278
485.475
485.1204
484.7646
484.4085
484.0528
483.6988
483.3479
483.0024
482.6656
482.3442
482.0513
498.174
497.7668
497.6213
497.4322
497.2607
497.0888
496.919
496.7497
496.5805
496.4111
496.241
496.07
495.8979
495.7245
495.5497
495.3732
495.1948
495.0145
494.8321
494.6473
494.4601
494.2704
494.0779
493.8826
493.6843
493.4829
493.2782
493.0702
492.8587
492.6437
492.4249
492.2023
491.9759
491.7455
491.511
491.2724
491.0295
490.7824
490.531
490.2753
490.0152
489.7507
489.4819
489.2088
488.9315
488.6501
488.3647
488.0756
487.783
487.4872
487.1886
486.8876
486.5849
486.2813
485.9779
485.676
485.3777
485.0864
484.8087
484.5576
497.7738
497.359
497.2115
497.0207
496.8493
496.6787
496.5117
496.3466
496.183
496.0206
495.859
495.698
495.5375
495.3772
495.2171
495.0569
494.8965
494.7358
494.5746
494.4128
494.2502
494.0868
493.9223
493.7567
493.5899
493.4216
493.2518
493.0803
492.907
492.7317
492.5544
492.3749
492.1931
492.0088
491.8219
491.6324
491.4401
491.2449
491.0467
490.8453
490.6409
490.4331
490.2221
490.0078
489.7901
489.5692
489.3451
489.1179
488.8877
488.6549
488.4196
488.1822
487.9433
487.7035
487.4639
487.2257
486.9908
486.7627
486.5476
486.3587
497.4903
497.0518
496.8926
496.6881
496.5042
496.3218
496.1436
495.9681
495.7948
495.6234
495.4537
495.2855
495.1187
494.9531
494.7886
494.6252
494.4627
494.301
494.14
493.9797
493.8199
493.6605
493.5016
493.3429
493.1843
493.0259
492.8675
492.709
492.5502
492.3912
492.2317
492.0717
491.9112
491.7499
491.5877
491.4247
491.2606
491.0953
490.9288
490.761
490.5918
490.4211
490.2488
490.075
489.8995
489.7224
489.5437
489.3636
489.1821
488.9993
488.8156
488.6313
488.4468
488.2627
488.08
487.8999
487.7242
487.5563
487.4024
487.2755
497.401
496.9381
496.7658
496.5456
496.3467
496.1491
495.9558
495.7651
495.5767
495.3904
495.2058
495.0229
494.8416
494.6617
494.4832
494.306
494.1302
493.9555
493.7821
493.6098
493.4386
493.2684
493.0993
492.9312
492.7641
492.5979
492.4326
492.2681
492.1044
491.9415
491.7792
491.6176
491.4566
491.2962
491.1362
490.9767
490.8175
490.6587
490.5001
490.3417
490.1835
490.0254
489.8674
489.7095
489.5517
489.394
489.2365
489.0793
488.9226
488.7664
488.6111
488.457
488.3045
488.1543
488.0072
487.8645
487.7282
487.6013
487.4902
487.4078
497.4662
496.9887
496.808
496.5775
496.3684
496.1601
495.9559
495.7537
495.5536
495.355
495.1579
494.9621
494.7675
494.574
494.3816
494.1902
493.9999
493.8105
493.6221
493.4348
493.2483
493.0629
492.8785
492.695
492.5126
492.3311
492.1507
491.9712
491.7928
491.6154
491.4391
491.2638
491.0895
490.9163
490.7441
490.5729
490.4028
490.2337
490.0657
489.8987
489.7328
489.568
489.4043
489.2417
489.0803
488.9203
488.7617
488.6047
488.4495
488.2962
488.1453
487.997
487.8518
487.7105
487.574
487.4435
487.321
487.2098
487.1161
487.0528
497.5856
497.1062
496.9236
496.6911
496.4795
496.2685
496.061
495.8552
495.6508
495.4476
495.2452
495.0436
494.8427
494.6424
494.4426
494.2433
494.0444
493.846
493.648
493.4504
493.2533
493.0566
492.8604
492.6647
492.4696
492.275
492.081
491.8876
491.6948
491.5028
491.3115
491.1209
490.9311
490.7422
490.5542
490.367
490.1809
489.9957
489.8116
489.6286
489.4468
489.2663
489.087
488.9092
488.7329
488.5583
488.3856
488.2149
488.0466
487.8809
487.7181
487.5587
487.4033
487.2525
487.1074
486.9693
486.8402
486.7234
486.6254
486.559
497.6613
497.189
497.0099
496.7816
496.5741
496.3669
496.163
495.9606
495.7593
495.5588
495.3588
495.1592
494.9599
494.7607
494.5615
494.3623
494.1631
493.9637
493.7643
493.5647
493.365
493.1651
492.9652
492.7652
492.565
492.3648
492.1646
491.9644
491.7643
491.5642
491.3643
491.1645
490.9649
490.7656
490.5665
490.3679
490.1697
489.9719
489.7748
489.5782
489.3824
489.1874
488.9933
488.8003
488.6084
488.418
488.2292
488.0422
487.8574
487.675
487.4954
487.3192
487.1468
486.9792
486.8174
486.6627
486.5172
486.3842
486.2704
486.1885
497.6407
497.178
497.0042
496.7825
496.5815
496.3811
496.1841
495.9885
495.7941
495.6004
495.4073
495.2144
495.0216
494.8288
494.6359
494.4427
494.2492
494.0553
493.861
493.6662
493.471
493.2753
493.079
492.8823
492.685
492.4873
492.289
492.0902
491.891
491.6913
491.4912
491.2907
491.0898
490.8887
490.6872
490.4855
490.2836
490.0815
489.8794
489.6773
489.4753
489.2734
489.0718
488.8707
488.6701
488.4703
488.2714
488.0738
487.8778
487.6836
487.4916
487.3024
487.1166
486.935
486.7586
486.5889
486.428
486.2793
486.1493
486.0511
497.5281
497.0716
496.9015
496.6846
496.4888
496.294
496.1028
495.9134
495.7255
495.5386
495.3523
495.1666
494.9811
494.7957
494.6103
494.4247
494.2389
494.0527
493.8661
493.6791
493.4915
493.3034
493.1148
492.9255
492.7355
492.5449
492.3537
492.1617
491.9691
491.7758
491.5818
491.3871
491.1917
490.9957
490.799
490.6017
490.4039
490.2054
490.0065
489.807
489.6072
489.407
489.2066
489.0061
488.8056
488.6053
488.4054
488.2061
488.0077
487.8105
487.615
487.4216
487.2309
487.0437
486.861
486.6845
486.516
486.3591
486.2203
486.1126
497.3704
496.9132
496.7433
496.5271
496.3325
496.1393
495.9503
495.7634
495.5785
495.3949
495.2124
495.0308
494.8497
494.6691
494.4887
494.3085
494.1283
493.948
493.7675
493.5869
493.406
493.2247
493.043
492.8609
492.6784
492.4953
492.3117
492.1275
491.9427
491.7573
491.5713
491.3847
491.1973
491.0094
490.8207
490.6314
490.4414
490.2507
490.0594
489.8676
489.6751
489.4821
489.2886
489.0948
488.9007
488.7066
488.5125
488.3187
488.1255
487.933
487.7418
487.5523
487.365
487.1807
487.0005
486.8258
486.6587
486.5026
486.3641
486.2562
497.2291
496.7645
496.5911
496.3711
496.1732
495.9773
495.7859
495.5971
495.4106
495.2258
495.0425
494.8604
494.6793
494.4989
494.3191
494.1398
493.9609
493.7823
493.6038
493.4255
493.2472
493.0689
492.8906
492.7122
492.5336
492.3548
492.1758
491.9965
491.817
491.6371
491.4569
491.2763
491.0953
490.9139
490.7321
490.5498
490.3671
490.1839
490.0002
489.8161
489.6316
489.4466
489.2613
489.0758
488.89
488.7042
488.5185
488.3332
488.1483
487.9642
487.7812
487.5998
487.4205
487.2441
487.0717
486.9045
486.7447
486.5957
486.464
486.3627
497.1541
496.6779
496.4987
496.2718
496.0677
495.8657
495.6686
495.4743
495.2826
495.0929
494.905
494.7184
494.5331
494.3488
494.1654
493.9827
493.8006
493.6191
493.438
493.2574
493.0771
492.8971
492.7174
492.5378
492.3585
492.1793
492.0002
491.8212
491.6422
491.4633
491.2844
491.1054
490.9264
490.7473
490.5682
490.3889
490.2096
490.0301
489.8505
489.6708
489.491
489.3111
489.1312
488.9513
488.7715
488.592
488.4128
488.2342
488.0563
487.8795
487.704
487.5303
487.3589
487.1905
487.0262
486.8673
486.7159
486.5755
486.4524
486.3599
497.1668
496.6788
496.4932
496.2587
496.0476
495.8386
495.6345
495.4335
495.2351
495.0388
494.8443
494.6513
494.4597
494.2691
494.0794
493.8906
493.7025
493.5151
493.3283
493.142
492.9563
492.771
492.5861
492.4017
492.2176
492.0338
491.8504
491.6673
491.4846
491.302
491.1198
490.9378
490.7561
490.5746
490.3933
490.2122
490.0314
489.8507
489.6703
489.4901
489.3101
489.1304
488.951
488.772
488.5935
488.4156
488.2384
488.0622
487.887
487.7133
487.5412
487.3713
487.204
487.0401
486.8806
486.7269
486.581
486.4463
486.3295
486.2435
497.258
496.7611
496.5703
496.3298
496.1129
495.898
495.6881
495.4812
495.2769
495.0746
494.8741
494.6749
494.477
494.2801
494.0841
493.8888
493.6943
493.5003
493.3069
493.114
492.9216
492.7297
492.5381
492.347
492.1563
491.966
491.776
491.5864
491.3972
491.2084
491.02
490.8319
490.6442
490.4568
490.2699
490.0833
489.8971
489.7113
489.526
489.341
489.1566
488.9726
488.7893
488.6065
488.4246
488.2435
488.0634
487.8846
487.7071
487.5314
487.3577
487.1865
487.0182
486.8537
486.6939
486.5402
486.3948
486.261
486.1454
486.061
497.3968
496.8953
496.7016
496.4579
496.2377
496.0195
495.8063
495.5959
495.388
495.182
494.9776
494.7745
494.5724
494.3711
494.1705
493.9705
493.771
493.572
493.3733
493.175
492.9771
492.7794
492.582
492.3849
492.188
491.9914
491.7951
491.5991
491.4034
491.2079
491.0128
490.8179
490.6234
490.4292
490.2354
490.042
489.8489
489.6563
489.464
489.2723
489.0811
488.8905
488.7005
488.5112
488.3228
488.1354
487.9492
487.7643
487.581
487.3996
487.2203
487.0437
486.8703
486.7009
486.5364
486.3783
486.2287
486.091
485.9718
485.8842
497.5454
497.0435
496.8492
496.605
496.3843
496.1656
495.9517
495.7407
495.5321
495.3252
495.1198
494.9155
494.712
494.5091
494.3068
494.1048
493.9032
493.7017
493.5005
493.2994
493.0984
492.8975
492.6967
492.4959
492.2952
492.0946
491.894
491.6935
491.4931
491.2928
491.0926
490.8926
490.6927
490.493
490.2935
490.0941
489.895
489.6962
489.4977
489.2996
489.1019
488.9046
488.7079
488.5118
488.3165
488.1221
487.9289
487.737
487.5466
487.358
487.1717
486.988
486.8074
486.6309
486.4594
486.2943
486.1378
485.9934
485.8676
485.7735
497.6731
497.1736
496.9804
496.7375
496.5182
496.301
496.0887
495.8792
495.6721
495.4666
495.2626
495.0595
494.8572
494.6553
494.4538
494.2526
494.0514
493.8504
493.6494
493.4483
493.2472
493.0459
492.8445
492.643
492.4414
492.2396
492.0377
491.8356
491.6335
491.4312
491.2288
491.0264
490.8238
490.6213
490.4187
490.2161
490.0135
489.811
489.6086
489.4063
489.2042
489.0024
488.801
488.5999
488.3995
488.1998
488.0011
487.8035
487.6072
487.4127
487.2201
487.0301
486.8431
486.6599
486.4817
486.3098
486.1463
485.9949
485.8621
485.761
497.7654
497.2689
497.0771
496.8363
496.6191
496.4042
496.1943
495.9873
495.7827
495.5799
495.3785
495.178
494.9782
494.7789
494.5799
494.381
494.1822
493.9834
493.7846
493.5856
493.3864
493.187
492.9874
492.7875
492.5874
492.3869
492.1862
491.9853
491.784
491.5825
491.3807
491.1787
490.9764
490.7739
490.5712
490.3683
490.1652
489.962
489.7586
489.5552
489.3518
489.1485
488.9452
488.7422
488.5396
488.3375
488.1361
487.9356
487.7362
487.5383
487.3422
487.1484
486.9574
486.77
486.5872
486.4107
486.2424
486.0859
485.948
485.8416
497.8241
497.3296
497.1389
496.8996
496.684
496.4711
496.2633
496.0585
495.8564
495.6561
495.4572
495.2594
495.0623
494.8657
494.6694
494.4734
494.2774
494.0815
493.8854
493.6893
493.4929
493.2964
493.0995
492.9024
492.705
492.5073
492.3093
492.1109
491.9122
491.7132
491.5138
491.3141
491.1141
490.9137
490.7131
490.5121
490.3109
490.1094
489.9076
489.7057
489.5036
489.3013
489.0991
488.8969
488.695
488.4934
488.2922
488.0918
487.8924
487.6942
487.4976
487.3031
487.1111
486.9226
486.7385
486.5604
486.3903
486.2319
486.0918
485.9831
497.862
497.3677
497.1772
496.9383
496.7234
496.5113
496.3046
496.1011
495.9004
495.7016
495.5045
495.3084
495.1132
494.9185
494.7243
494.5304
494.3366
494.143
493.9493
493.7555
493.5616
493.3676
493.1733
492.9788
492.7841
492.5891
492.3938
492.1983
492.0024
491.8062
491.6098
491.413
491.2158
491.0184
490.8207
490.6226
490.4243
490.2256
490.0267
489.8276
489.6283
489.4288
489.2292
489.0296
488.8302
488.631
488.4322
488.2341
488.0368
487.8407
487.646
487.4532
487.2629
487.0759
486.8932
486.7162
486.5473
486.3898
486.2505
486.1426
497.8941
497.3987
497.2075
496.9679
496.7527
496.5404
496.3337
496.1304
495.93
495.7317
495.535
495.3396
495.1451
494.9512
494.7579
494.5649
494.3722
494.1796
493.9871
493.7946
493.6021
493.4095
493.2168
493.024
492.8309
492.6377
492.4443
492.2507
492.0569
491.8629
491.6686
491.4741
491.2794
491.0844
490.8892
490.6937
490.498
490.302
490.1059
489.9095
489.713
489.5164
489.3198
489.1232
488.9267
488.7305
488.5347
488.3396
488.1453
487.9521
487.7604
487.5706
487.3832
487.1991
487.0192
486.845
486.6788
486.524
486.3875
486.2822
497.9306
497.4334
497.2411
497.0004
496.7842
496.5712
496.3639
496.1601
495.9592
495.7606
495.5637
495.368
495.1733
494.9793
494.7859
494.5929
494.4001
494.2076
494.0152
493.8229
493.6306
493.4383
493.246
493.0535
492.861
492.6684
492.4757
492.2828
492.0898
491.8967
491.7034
491.51
491.3164
491.1227