/*--------------------------------*- C++ -*----------------------------------*\
| =========                 |                                                 |
| \\      /  F ield         | OpenFOAM: The Open Source CFD Toolbox           |
|  \\    /   O peration     | Version:  2312                                  |
|   \\  /    A nd           | Website:  www.openfoam.com                      |
|    \\/     M anipulation  |                                                 |
\*---------------------------------------------------------------------------*/
FoamFile
{
    version     2.0;
    format      ascii;
    arch        "LSB;label=32;scalar=64";
    class       volScalarField;
    location    "2000";
    object      omega;
}
// * * * * * * * * * * * * * * * * * * * * * * * * * * * * * * * * * * * * * //

dimensions      [0 0 -1 0 0 0 0];

internalField   nonuniform List<scalar> 
12000
(
42.05273
18.00795
19.35455
20.66669
21.62782
22.46387
23.15959
23.77111
24.30978
24.79371
25.22069
25.61075
25.95595
26.27499
26.55719
26.81497
27.03951
27.24894
27.43614
27.60562
27.74503
27.87108
27.98276
28.08413
28.15912
28.22044
28.27029
28.31508
28.34115
28.3539
28.35535
28.339
28.33119
28.30206
28.27197
28.22788
28.18536
28.13978
28.10541
28.0664
27.98567
27.82614
27.62827
27.52508
27.50711
27.35463
26.97884
26.76795
26.64327
26.41538
25.94988
25.59382
25.25754
24.78621
24.10584
23.37066
22.60241
21.35134
20.52498
44.66328
71.20384
20.63019
19.89307
20.22748
20.15065
19.97334
19.70262
19.32009
18.86581
18.48027
18.0597
17.69145
17.32931
17.01151
16.69195
16.39618
16.15223
15.9575
15.7347
15.46771
15.25112
15.14103
15.01603
14.8006
14.59
14.51066
14.46354
14.33289
14.16169
14.06674
14.02886
13.96591
13.86586
13.77575
13.72449
13.72168
13.7513
13.78315
13.79363
13.80377
13.90435
14.10071
14.35155
14.52532
14.59497
14.86132
15.43834
15.95872
16.31062
16.9255
18.01526
19.18962
20.39125
22.20664
24.65007
27.75313
32.115
40.31856
56.14033
81.93723
74.88119
20.0825
18.78529
17.8249
17.11553
16.32456
15.54595
14.86993
14.09789
13.48578
12.96557
12.50736
12.12795
11.77071
11.47224
11.2051
10.97289
10.75861
10.55808
10.37997
10.23116
10.09851
9.966955
9.844928
9.746438
9.665416
9.583383
9.501034
9.431644
9.379472
9.332426
9.281841
9.240047
9.214335
9.196085
9.194042
9.197988
9.214588
9.240102
9.279992
9.342295
9.426936
9.527102
9.638405
9.781165
9.971225
10.19889
10.45914
10.7865
11.19408
11.70146
12.32638
13.16108
14.14993
15.40485
17.1713
19.97698
25.9221
42.56316
88.40962
76.90951
19.40033
16.70808
15.7564
14.81961
13.88118
13.00444
12.23374
11.57234
10.97327
10.45295
9.991344
9.585258
9.231127
8.93148
8.671365
8.439786
8.235424
8.054708
7.89544
7.754841
7.628567
7.516489
7.418857
7.334624
7.262177
7.197493
7.143003
7.098076
7.05895
7.02747
7.011251
7.003779
7.004162
7.017334
7.042354
7.081259
7.13552
7.206141
7.294536
7.404321
7.540117
7.705918
7.903937
8.13996
8.421344
8.754931
9.143478
9.602903
10.1541
10.81593
11.61337
12.55037
13.55727
14.8445
16.78473
19.88709
25.54529
39.63297
91.5264
78.54253
18.55949
15.23115
14.24571
13.23179
12.24467
11.35126
10.55593
9.902473
9.35452
8.862669
8.42932
8.02946
7.671102
7.363532
7.09458
6.862835
6.661239
6.484426
6.327634
6.188456
6.066751
5.963331
5.875658
5.802027
5.738044
5.684134
5.644839
5.6153
5.595314
5.585079
5.584708
5.594892
5.616138
5.649163
5.6948
5.754403
5.829526
5.921617
6.032474
6.165781
6.324368
6.510371
6.724338
6.972278
7.262361
7.600982
7.994261
8.443927
8.977592
9.60447
10.30798
11.11917
12.16041
13.48279
15.23932
17.90114
22.79434
36.03601
93.93376
79.9501
18.1708
14.14547
13.07612
12.06977
11.11368
10.25923
9.504869
8.854995
8.292687
7.798314
7.368192
6.996108
6.662886
6.359262
6.084927
5.840499
5.627588
5.441461
5.279797
5.140656
5.022259
4.92251
4.839576
4.771901
4.718166
4.677522
4.64955
4.633345
4.62966
4.635261
4.65254
4.681451
4.722397
4.776094
4.843471
4.926104
5.025676
5.143809
5.281025
5.440275
5.626056
5.841311
6.089356
6.37236
6.698686
7.076314
7.515559
8.022622
8.593471
9.239186
9.996885
10.90967
12.00858
13.35572
15.12696
17.75446
22.53633
34.72183
95.08433
81.10816
18.04861
13.34893
12.17986
11.20999
10.30419
9.489852
8.767607
8.13604
7.583156
7.095547
6.659539
6.276151
5.940932
5.641988
5.376397
5.136103
4.918876
4.729238
4.566198
4.427907
4.312169
4.216909
4.140276
4.080646
4.03663
4.007049
3.99101
3.988451
3.997278
4.018059
4.050834
4.095791
4.153462
4.224758
4.309908
4.409939
4.526967
4.662611
4.818656
4.9963
5.198873
5.429712
5.692251
5.990975
6.332418
6.720934
7.156031
7.643197
8.199074
8.84501
9.601348
10.49159
11.55863
12.87887
14.58538
17.06954
21.6059
33.62186
96.27884
82.20068
18.08691
12.78956
11.49368
10.55647
9.702185
8.929841
8.240305
7.630447
7.09148
6.613276
6.184876
5.80112
5.458223
5.151836
4.879201
4.641036
4.431755
4.247032
4.088261
3.954392
3.843687
3.754238
3.684213
3.631945
3.595966
3.575006
3.569284
3.57533
3.594164
3.625416
3.668997
3.725092
3.794224
3.876883
3.973943
4.086064
4.214807
4.361948
4.529398
4.719302
4.934345
5.177557
5.453406
5.765872
6.116294
6.508926
6.952736
7.459639
8.042343
8.714574
9.495201
10.41095
11.50648
12.83601
14.52642
16.99344
21.47604
32.86827
96.75087
83.09489
18.24641
12.38778
10.95458
10.03761
9.229796
8.498264
7.841005
7.254507
6.731486
6.263505
5.843159
5.465761
5.127784
4.825797
4.556834
4.319089
4.113055
3.935959
3.783837
3.655752
3.550319
3.466024
3.401203
3.35423
3.323644
3.30874
3.307541
3.319434
3.34413
3.38136
3.431083
3.493865
3.569888
3.659174
3.762791
3.881913
4.017875
4.172273
4.346921
4.543956
4.766004
5.01661
5.297926
5.612129
5.964161
6.360528
6.808728
7.317195
7.896991
8.562791
9.334689
10.24741
11.33081
12.62513
14.29007
16.74108
21.09236
32.51606
97.32251
83.90977
18.47686
12.1127
10.53108
9.616689
8.846625
8.153219
7.528048
6.967174
6.465426
6.017932
5.615255
5.248023
4.914457
4.614843
4.347736
4.11221
3.910416
3.741641
3.599485
3.478868
3.378946
3.298861
3.237465
3.193398
3.165364
3.153738
3.154392
3.168413
3.195287
3.234789
3.287407
3.353196
3.431977
3.524478
3.631628
3.754539
3.894511
4.053103
4.232136
4.434027
4.661212
4.915374
5.199305
5.517036
5.873513
6.274413
6.72688
7.240018
7.825519
8.498732
9.289154
10.22145
11.30635
12.60114
14.26039
16.67733
21.0281
32.09952
97.59618
84.52575
18.72279
11.91613
10.18776
9.26278
8.522356
7.864206
7.271201
6.738786
6.26411
5.84119
5.456429
5.101553
4.77753
4.485815
4.226522
3.999024
3.802616
3.635991
3.495959
3.379804
3.285899
3.211794
3.1544
3.112413
3.085341
3.07371
3.07441
3.088243
3.11483
3.154481
3.20739
3.273272
3.352484
3.445771
3.554026
3.678309
3.819905
3.980385
4.161728
4.365592
4.593732
4.848734
5.133799
5.452726
5.810014
6.211275
6.663516
7.175616
7.75901
8.436136
9.228715
10.14405
11.20585
12.48035
14.12354
16.52511
20.84137
31.9589
97.84253
85.10856
18.99521
11.78463
9.911031
8.964379
8.245807
7.61975
7.058785
6.557112
6.114481
5.718336
5.352567
5.013681
4.703971
4.426198
4.180825
3.964549
3.775952
3.61359
3.475206
3.358458
3.26189
3.184836
3.126681
3.085092
3.057805
3.044597
3.044019
3.056293
3.081266
3.119344
3.170616
3.234977
3.312977
3.405398
3.513242
3.637449
3.779269
3.940261
4.12182
4.325703
4.554102
4.809641
5.09534
5.414858
5.772683
6.174441
6.627246
7.140194
7.730788
8.418608
9.212396
10.12447
11.18688
12.46769
14.11739
16.5202
20.8246
31.77692
98.0592
85.62418
19.24595
11.68875
9.680419
8.706776
8.004361
7.407675
6.878955
6.410944
6.000967
5.632758
5.291251
4.975173
4.687931
4.425855
4.185091
3.973975
3.789835
3.630458
3.493477
3.376579
3.278322
3.198294
3.136483
3.092323
3.063655
3.04847
3.046195
3.056362
3.078928
3.114543
3.163429
3.225593
3.301595
3.392118
3.497954
3.620396
3.760805
3.920488
4.101061
4.30412
4.53183
4.786684
5.071652
5.390322
5.747135
6.147709
6.599167
7.11433
7.710022
8.3959
9.178806
10.07687
11.12681
12.39845
14.04454
16.44692
20.73969
31.70855
98.16478
86.09337
19.48309
11.62575
9.491308
8.486359
7.794677
7.224341
6.727451
6.294635
5.917591
5.578101
5.263592
4.972606
4.696656
4.447709
4.228502
4.031977
3.85769
3.703803
3.5678
3.447713
3.342752
3.253828
3.182672
3.130285
3.095779
3.076151
3.069943
3.07622
3.095436
3.127787
3.173293
3.232225
3.305265
3.393201
3.497001
3.617695
3.756382
3.914322
4.093036
4.294622
4.521118
4.774869
5.058798
5.376474
5.732353
6.132059
6.584671
7.105331
7.705678
8.389081
9.166304
10.06085
11.11204
12.38839
14.03669
16.43545
20.72983
31.66432
98.3651
86.5056
19.67181
11.57269
9.328905
8.293491
7.609638
7.063404
6.597595
6.2001
5.856968
5.547893
5.261447
4.987189
4.738374
4.510856
4.305902
4.121243
3.955382
3.806049
3.670217
3.545381
3.431575
3.331401
3.248717
3.186224
3.143607
3.117646
3.106209
3.107759
3.122582
3.150739
3.192268
3.247605
3.317397
3.40242
3.503529
3.621731
3.75818
3.914208
4.091379
4.291352
4.516193
4.768519
5.051098
5.367495
5.722264
6.12121
6.576975
7.102384
7.699974
8.375507
9.143238
10.0291
11.07314
12.34436
13.99274
16.39684
20.69279
31.62514
98.42565
86.90644
19.83915
11.53465
9.192829
8.126953
7.447807
6.923197
6.487356
6.124759
5.814885
5.534605
5.271347
5.027918
4.801926
4.594374
4.405176
4.232573
4.074266
3.927839
3.789898
3.657678
3.53259
3.419303
3.323884
3.250502
3.199096
3.165854
3.147807
3.143875
3.153661
3.177213
3.214565
3.266153
3.332569
3.414531
3.5129
3.628676
3.763001
3.917168
4.092655
4.29116
4.51473
4.765628
5.046913
5.362046
5.715498
6.116065
6.576389
7.103291
7.698791
8.369822
9.13345
10.01767
11.06327
12.33812
13.9876
16.38903
20.68395
31.61361
98.58589
87.29321
19.96378
11.49759
9.073769
7.980697
7.305356
6.801203
6.395488
6.065463
5.786619
5.535864
5.302423
5.083821
4.879801
4.690531
4.515283
4.35265
4.20063
4.055858
3.91369
3.772331
3.634626
3.507651
3.399702
3.31597
3.256112
3.215426
3.190611
3.18074
3.185144
3.203879
3.236964
3.284768
3.347836
3.426859
3.522664
3.636211
3.768601
3.921089
4.095117
4.292353
4.51476
4.764683
5.044987
5.359349
5.712449
6.114741
6.577834
7.104312
7.695593
8.360145
9.117317
9.995962
11.037
12.30904
13.96095
16.36868
20.67119
31.59682
98.62052
87.69814
20.0716
11.46889
8.972666
7.853973
7.180991
6.69563
6.31888
6.019822
5.770799
5.549233
5.343947
5.150243
4.967141
4.794578
4.632152
4.478783
4.331162
4.184607
4.035264
3.882529
3.731133
3.590714
3.47152
3.378928
3.311316
3.263383
3.231891
3.215954
3.215031
3.229031
3.257958
3.302135
3.362058
3.438371
3.531857
3.643432
3.774153
3.925234
4.098074
4.294302
4.515844
4.765014
5.044662
5.358455
5.712279
6.117278
6.582218
7.107579
7.695353
8.356142
9.110742
9.988528
11.03075
12.3054
13.95846
16.36633
20.66977
31.59593
98.72675
88.10326
20.15409
11.4401
8.884303
7.74407
7.074033
6.607171
6.258788
5.990248
5.771071
5.576946
5.396877
5.224787
5.059268
4.900531
4.749105
4.603232
4.458136
4.308157
4.149809
3.984188
3.818778
3.665969
3.537344
3.437569
3.362998
3.308167
3.270352
3.248633
3.24267
3.252172
3.277185
3.31799
3.375036
3.448918
3.540368
3.650254
3.779587
3.929537
4.101466
4.296965
4.517927
4.766631
5.045901
5.359304
5.714108
6.121335
6.586997
7.110653
7.695099
8.351473
9.100814
9.974399
11.01339
12.28649
13.94168
16.35527
20.66513
31.58976
98.73722
88.51678
20.22632
11.41928
8.810097
7.650063
6.982352
6.532242
6.210448
5.970495
5.778158
5.611704
5.455291
5.302624
5.152972
5.007358
4.865268
4.723417
4.577079
4.420829
4.251713
4.07278
3.894428
3.731456
3.595824
3.490689
3.410235
3.349103
3.305463
3.278484
3.267857
3.273248
3.29472
3.33251
3.387017
3.458788
3.548504
3.65699
3.785216
3.934324
4.105644
4.300733
4.521437
4.770002
5.04921
5.362581
5.718464
6.127706
6.593786
7.115652
7.696859
8.350164
9.097371
9.969928
11.009
12.28359
13.9404
16.35499
20.66472
31.58911
98.80715
88.92384
20.2892
11.40134
8.748738
7.571749
6.907128
6.475078
6.17908
5.966612
5.799732
5.655459
5.517971
5.38183
5.246739
5.112239
4.976526
4.836381
4.686591
4.521888
4.340583
4.148316
3.958657
3.788193
3.647967
3.538529
3.452834
3.386125
3.337305
3.305643
3.290839
3.292578
3.310919
3.346066
3.398377
3.468355
3.556639
3.664014
3.791411
3.93993
4.110862
4.305738
4.526394
4.775057
5.054465
5.368054
5.724947
6.135693
6.601666
7.121528
7.699682
8.350058
9.094738
9.962909
10.99869
12.27183
13.93023
16.34885
20.66275
31.58589
98.8134
89.33193
20.35895
11.39802
8.700089
7.507738
6.846822
6.432565
6.159286
5.970167
5.827893
5.704111
5.584312
5.463612
5.340139
5.21346
5.081628
4.940626
4.784951
4.609862
4.415551
4.210807
4.012248
3.837242
3.694732
3.581557
3.490896
3.419405
3.366125
3.330419
3.311947
3.31053
3.326172
3.359055
3.409509
3.478
3.565134
3.671658
3.798467
3.946624
4.117395
4.31229
4.533126
4.782099
5.06191
5.376062
5.734138
6.146104
6.61173
7.12961
7.704832
8.351867
9.093875
9.961374
10.99751
12.27145
13.9297
16.34749
20.66367
31.6031
98.86849
89.73583
20.42938
11.40069
8.667874
7.460025
6.80277
6.406461
6.156245
5.988128
5.864806
5.758223
5.653727
5.54506
5.430704
5.309589
5.179185
5.034968
4.871316
4.68445
4.4771
4.261543
4.056791
3.879633
3.736181
3.620125
3.525137
3.449501
3.392371
3.353188
3.331618
3.327515
3.340885
3.371887
3.420818
3.488116
3.574355
3.680252
3.806678
3.954674
4.125478
4.320561
4.541696
4.791044
5.071297
5.386413
5.74593
6.158603
6.623511
7.139304
7.711601
8.355423
9.094404
9.960198
10.99319
12.26523
13.92465
16.34734
20.66563
31.61559
98.8892
90.15
20.50914
11.41521
8.643748
7.426317
6.77348
6.393544
6.162032
6.014674
5.90867
5.817197
5.72492
5.625875
5.518179
5.4002
5.268821
5.119054
4.94541
4.745641
4.525723
4.301649
4.093953
3.91719
3.772988
3.654065
3.555552
3.476488
3.416159
3.374076
3.349945
3.343649
3.355175
3.384697
3.432469
3.498903
3.584545
3.690085
3.816365
3.964396
4.135392
4.330804
4.552385
4.802273
5.083108
5.399379
5.760497
6.173868
6.637981
7.151681
7.721101
8.361722
9.097513
9.960242
10.99272
12.26416
13.92308
16.3462
20.67475
31.64251
98.93511
90.5744
20.61359
11.44935
8.643631
7.407693
6.762149
6.395604
6.180753
6.050282
5.959686
5.880479
5.797755
5.705775
5.602248
5.484973
5.350205
5.192602
5.007219
4.794069
4.562937
4.333087
4.12515
3.950396
3.805615
3.683924
3.582564
3.500704
3.437754
3.393306
3.367104
3.359067
3.369164
3.397576
3.444521
3.510388
3.595699
3.70112
3.827468
3.975731
4.147093
4.342981
4.565113
4.815598
5.097045
5.414517
5.777237
6.191153
6.654261
7.165672
7.732033
8.369153
9.101358
9.961131
10.99219
12.26132
13.91961
16.34627
20.68331
31.65016
98.96463
91.00704
20.72481
11.49531
8.650738
7.408199
6.765907
6.4128
6.212564
6.09572
6.016953
5.946854
5.871138
5.783835
5.682171
5.56327
5.422752
5.255122
5.056557
4.830174
4.589941
4.357407
4.151453
3.979236
3.834139
3.710145
3.606418
3.522284
3.457242
3.410937
3.383141
3.373798
3.382866
3.410525
3.456965
3.522553
3.607791
3.713322
3.839939
3.988607
4.160486
4.356976
4.579769
4.830941
5.113068
5.431745
5.796108
6.210588
6.672517
7.181434
7.744708
8.378707
9.107917
9.964604
10.99259
12.25997
13.92005
16.35006
20.6922
31.66024
98.9873
91.45585
20.86434
11.56035
8.678194
7.420939
6.785829
6.44251
6.254654
6.149654
6.07965
6.016139
5.944963
5.859974
5.757815
5.634867
5.486175
5.306452
5.093761
4.855105
4.608513
4.376551
4.174788
4.004074
3.857775
3.732252
3.626858
3.541073
3.474502
3.426851
3.39793
3.387711
3.396142
3.423404
3.46966
3.53526
3.620687
3.72656
3.853653
4.002906
4.175457
4.372677
4.596228
4.848148
5.130978
5.450845
5.81675
6.231747
6.692491
7.198581
7.758025
8.387934
9.113343
9.966738
10.99186
12.25784
13.92083
16.3574
20.70923
31.6909
99.01438
91.9049
21.02683
11.6447
8.722717
7.454926
6.820922
6.485294
6.307578
6.211295
6.147311
6.087782
6.018744
5.933709
5.828619
5.699076
5.539716
5.346034
5.118952
4.869891
4.619983
4.390841
4.193796
4.024688
3.877388
3.750681
3.644049
3.557085
3.489464
3.44094
3.411342
3.400665
3.408845
3.436064
3.482459
3.548364
3.634241
3.740691
3.868467
4.018487
4.191868
4.389952
4.614371
4.867124
5.150704
5.471803
5.839238
6.254531
6.713968
7.217439
7.773432
8.399518
9.120987
9.97029
10.99183
12.25678
13.9214
16.36271
20.72123
31.70866
99.03315
92.35441
21.20164
11.74291
8.782166
7.506428
6.872506
6.54178
6.37095
6.279797
6.219129
6.161122
6.091868
6.004405
5.893869
5.755103
5.582668
5.373601
5.132595
4.87565
4.626014
4.402101
4.208723
4.040194
3.892462
3.765115
3.657784
3.570163
3.501994
3.45307
3.423242
3.412517
3.420823
3.448349
3.495201
3.561697
3.648279
3.755529
3.884179
4.03513
4.209477
4.40854
4.633922
4.887583
5.171956
5.494301
5.863188
6.278546
6.736295
7.236742
7.788705
8.410099
9.126756
9.971573
10.98937
12.25498
13.92197
16.37099
20.74045
31.74147
99.06262
92.80075
21.40553
11.86321
8.86425
7.573682
6.936004
6.608499
6.442891
6.354792
6.294915
6.235997
6.164109
6.07166
5.952916
5.802117
5.614306
5.38901
5.135357
4.874163
4.62729
4.409476
4.219241
4.050973
3.903202
3.775652
3.668084
3.580277
3.512029
3.463161
3.433536
3.423161
3.431962
3.460143
3.507768
3.575137
3.662674
3.770941
3.900649
4.05268
4.228111
4.428248
4.654674
4.909327
5.194592
5.518297
5.888647
6.303935
6.759894
7.2573
7.805523
8.422633
9.134332
9.974368
10.98895
12.25335
13.92234
16.37586
20.75027
31.75581
99.08735
93.23425
21.62563
11.99814
8.964772
7.657566
7.014726
6.688418
6.523759
6.435332
6.37362
6.31141
6.234437
6.13434
6.004514
5.838913
5.633865
5.392487
5.130161
4.867527
4.625849
4.413017
4.224813
4.057038
3.909557
3.782219
3.674871
3.587351
3.519493
3.471143
3.442179
3.43253
3.442156
3.471342
3.520053
3.588571
3.677302
3.786786
3.917714
4.070946
4.247534
4.448763
4.676204
4.93178
5.218294
5.54369
5.915079
6.329814
6.783654
7.277887
7.822342
8.434949
9.141163
9.976005
10.98746
12.25168
13.92386
16.38509
20.76922
31.78061
99.11862
93.65988
21.85789
12.15044
9.081467
7.756459
7.106368
6.778127
6.612022
6.520779
6.454714
6.386703
6.302006
6.191388
6.04753
5.864746
5.641755
5.386973
5.117066
4.856282
4.620984
4.412243
4.225061
4.058164
3.911442
3.784814
3.678185
3.591432
3.524425
3.477028
3.449117
3.44061
3.451442
3.481936
3.532015
3.601938
3.69209
3.802987
3.935297
4.089854
4.267685
4.470053
4.698507
4.954956
5.242817
5.569993
5.942221
6.356171
6.80768
7.298506
7.838986
8.447185
9.148472
9.978146
10.98573
12.24957
13.92526
16.39204
20.78554
31.80054
99.14676
94.07781
22.10519
12.32448
9.214766
7.868357
7.209554
6.87777
6.707722
6.610927
6.537931
6.461581
6.366497
6.24254
6.081971
5.88019
5.639281
5.3713
5.098389
4.841973
4.612586
4.407081
4.221426
4.05559
3.909756
3.784
3.678307
3.59268
3.526933
3.480891
3.454421
3.447424
3.459804
3.491915
3.543637
3.615208
3.706991
3.819479
3.953313
4.109303
4.28845
4.491994
4.721462
4.978755
5.267922
5.596788
5.969638
6.382533
6.831545
7.318963
7.855293
8.458644
9.15479
9.979505
10.98365
12.24732
13.92663
16.40025
20.80432
31.8324
99.17781
94.49105
22.36375
12.51522
9.36244
7.993915
7.325106
6.986543
6.809492
6.704459
6.621961
6.534531
6.425944
6.285159
6.104445
5.88116
5.623699
5.3472
5.074977
4.824867
4.600066
4.396394
4.212284
4.047965
3.903638
3.779425
3.675353
3.591287
3.527152
3.482848
3.458189
3.453053
3.467301
3.501319
3.554943
3.628388
3.721992
3.836227
3.971707
4.129218
4.309735
4.514472
4.744937
5.003018
5.293426
5.623889
5.997161
6.408726
6.85494
7.338761
7.870932
8.46953
9.16074
9.980667
10.98159
12.24527
13.92765
16.40728
20.81729
31.8476
99.20699
94.90155
22.62805
12.72027
9.525738
8.133282
7.451804
7.10363
6.916725
6.80081
6.706265
6.605073
6.480102
6.319803
6.117515
5.874779
5.600914
5.318343
5.048776
4.804547
4.583442
4.381441
4.198964
4.036322
3.893747
3.771369
3.669208
3.587192
3.52519
3.483012
3.460537
3.457604
3.474025
3.510219
3.565981
3.641498
3.737087
3.853195
3.990415
4.149505
4.331419
4.537345
4.768769
5.027561
5.319122
5.65106
6.024522
6.434515
6.87775
7.357611
7.885186
8.479072
9.165951
9.9823
10.98018
12.243
13.92885
16.41728
20.83544
31.86725
99.22796
95.31048
22.89742
12.93891
9.703283
8.285167
7.588622
7.228187
7.028683
6.899158
6.789714
6.671596
6.526758
6.343569
6.117246
5.854391
5.569343
5.285186
5.020762
4.780927
4.561892
4.361903
4.181415
4.02081
3.88036
3.760209
3.660374
3.580771
3.521247
3.48161
3.461658
3.461233
3.480092
3.518698
3.576818
3.654576
3.752275
3.870342
4.009351
4.170041
4.353346
4.560432
4.792766
5.05219
5.344805
5.678039
6.051366
6.459422
6.899419
7.375135
7.897913
8.487079
9.170037
9.983755
10.97891
12.2412
13.93109
16.42674
20.85129
31.88879
99.24874
95.71661
23.17063
13.16865
9.894386
8.449619
7.735298
7.359549
7.144614
6.998883
6.871917
6.734062
6.56663
6.35884
6.109232
5.826886
5.532889
5.24928
4.990095
4.75398
4.536679
4.338607
4.160215
4.001883
3.863872
3.746299
3.649156
3.572325
3.515618
3.478813
3.461687
3.464032
3.485776
3.526935
3.587535
3.667644
3.767532
3.887603
4.028409
4.190672
4.375313
4.583494
4.816675
5.076687
5.370284
5.704608
6.077492
6.483321
6.919668
7.39081
7.908683
8.493112
9.171891
9.982339
10.97731
12.2406
13.93302
16.43518
20.8683
31.9111
99.26332
96.11658
23.44514
13.40816
10.09817
8.625719
7.890871
7.496789
7.263536
7.098693
6.950944
6.789575
6.595581
6.359853
6.087348
5.790563
5.492284
5.212166
4.956797
4.722648
4.507402
4.311552
4.135575
3.979857
3.844638
3.730009
3.635921
3.562216
3.508666
3.475013
3.461001
3.466349
3.491027
3.534969
3.598188
3.680735
3.782856
3.90493
4.047487
4.211232
4.397075
4.60618
4.840017
5.100883
5.395716
5.730608
6.102491
6.505796
6.938378
7.404844
7.917823
8.497717
9.172912
9.980617
10.97491
12.23979
13.93653
16.44524
20.88693
31.94373
99.28201
96.50851
23.72396
13.65254
10.31079
8.811847
8.054504
7.639255
7.38484
7.198045
7.026561
6.838932
6.616939
6.354874
6.058999
5.749749
5.449378
5.173129
4.920941
4.688323
4.475007
4.281439
4.108067
3.95523
3.823118
3.711762
3.621058
3.550794
3.500694
3.470455
3.459782
3.468331
3.496094
3.542939
3.60886
3.693889
3.798247
3.922292
4.066532
4.231658
4.418573
4.628442
4.862758
5.124465
5.420501
5.755669
6.126291
6.526787
6.955329
7.417148
7.925358
8.500626
9.171601
9.97713
10.97125
12.23811
13.93918
16.45468
20.90622
31.98104
99.30631
96.89074
24.00659
13.9026
10.53175
9.006729
8.224946
7.785837
7.507474
7.295755
7.097221
6.879896
6.626916
6.337213
6.022528
5.705186
5.405603
5.132342
4.881924
4.65093
4.439683
4.248611
4.078106
3.928446
3.799751
3.691982
3.604963
3.53842
3.492022
3.465416
3.458266
3.470171
3.501132
3.550959
3.619619
3.707134
3.8137
3.939652
4.085484
4.251871
4.439715
4.650189
4.884809
5.147228
5.444382
5.779693
6.148801
6.546158
6.970575
7.428026
7.931973
8.503221
9.170592
9.973627
10.96721
12.23675
13.94361
16.46662
20.92924
32.02674
99.33643
97.26224
24.28757
14.1566
10.75961
9.208966
8.401267
7.935992
7.630922
7.391047
7.16192
6.911808
6.626585
6.31105
5.980631
5.658272
5.360721
5.089751
4.840411
4.611072
4.402009
4.213621
4.04623
3.900023
3.775029
3.671122
3.588048
3.525462
3.482971
3.46017
3.456679
3.47205
3.50627
3.5591
3.630491
3.720449
3.829149
3.956907
4.104203
4.271705
4.460314
4.671216
4.905957
5.168872
5.466868
5.801999
6.169325
6.563429
6.983822
7.437045
7.936859
8.504305
9.168243
9.968906
10.96219
12.2344
13.94657
16.4786
20.95501
32.07698
99.37727
97.62747
24.56902
14.41511
10.99303
9.416517
8.581688
8.088265
7.753857
7.482741
7.220102
6.935691
6.619637
6.279132
5.935705
5.610421
5.314867
5.045532
4.797067
4.569334
4.362554
4.177036
4.012985
3.870474
3.749427
3.649618
3.570703
3.512258
3.473824
3.454942
3.45519
3.474104
3.511607
3.56741
3.641457
3.733773
3.844488
3.973909
4.122507
4.290951
4.480146
4.691295
4.925968
5.189191
5.487828
5.822464
6.18764
6.578353
6.994796
7.443978
7.939877
8.503485
9.164598
9.963456
10.95683
12.23208
13.95049
16.49075
20.97849
32.11567
99.42251
97.98743
24.85042
14.67697
11.23136
9.629006
8.765748
8.242062
7.875649
7.570272
7.271287
6.950732
6.603159
6.241776
5.888924
5.56284
5.268101
4.999003
4.751633
4.525787
4.321585
4.139207
3.978755
3.840195
3.723335
3.62784
3.553267
3.499111
3.464843
3.449949
3.453937
3.476453
3.517171
3.57588
3.652492
3.747018
3.859586
3.990491
4.140205
4.309401
4.499001
4.710229
4.944677
5.208064
5.507097
5.84084
6.203578
6.590927
7.00367
7.449103
7.941345
8.501759
9.160127
9.957369
10.95106
12.22952
13.95476
16.50565
21.00855
32.15895
99.46741
98.3455
25.13246
14.94214
11.47373
9.84492
8.951762
8.395671
7.994407
7.651478
7.313306
6.955504
6.579144
6.200062
5.840446
5.514405
5.220318
4.951303
4.704996
4.481087
4.279602
4.100581
3.943978
3.809613
3.697158
3.606159
3.536072
3.486307
3.456268
3.445387
3.453119
3.479101
3.52296
3.584463
3.663496
3.76006
3.874281
4.006454
4.157053
4.32677
4.516555
4.727673
4.961857
5.225317
5.524375
5.856857
6.217051
6.601104
7.010279
7.452165
7.940961
8.498344
9.154362
9.950481
10.94497
12.22686
13.95911
16.52102
21.0381
32.20538
99.52038
98.70132
25.41232
15.20815
11.71888
10.06382
9.139546
8.548802
8.109835
7.726689
7.34812
6.95452
6.550602
6.156419
5.791784
5.465755
5.171881
4.902901
4.657704
4.435884
4.237312
4.061856
3.9093
3.779307
3.671402
3.585009
3.51948
3.474139
3.44832
3.441405
3.452811
3.482138
3.528995
3.593127
3.674397
3.772794
3.888447
4.02165
4.172884
4.342859
4.532555
4.743286
4.977363
5.241043
5.539594
5.870394
6.227949
6.608825
7.014631
7.453169
7.938905
8.493507
9.147474
9.942866
10.93872
12.2248
13.96436
16.5375
21.0677
32.24804
99.57112
99.05704
25.69104
15.47529
11.96579
10.28382
9.327032
8.699587
8.220391
7.79474
7.3747
6.945781
6.517781
6.111615
5.743866
5.416933
5.122228
4.853559
4.609782
4.390367
4.194994
4.02335
3.875052
3.749599
3.646371
3.564663
3.503723
3.462792
3.441141
3.438102
3.453066
3.485592
3.535266
3.601828
3.685129
3.785144
3.902004
4.036009
4.187655
4.357678
4.547094
4.757267
4.991055
5.254682
5.552458
5.881502
6.236488
6.614337
7.016958
7.452389
7.935203
8.487266
9.139456
9.93446
10.93218
12.22318
13.97103
16.55548
21.09978
32.29641
99.62939
99.41058
25.96678
15.74119
12.21318
10.50466
9.514232
8.847769
8.325618
7.855485
7.393825
6.931597
6.482308
6.06635
5.696121
5.36808
5.072418
4.804165
4.561991
4.345179
4.153208
3.985572
3.841697
3.720905
3.622423
3.545422
3.489047
3.452461
3.434876
3.435578
3.453948
3.489472
3.54175
3.610519
3.695621
3.797021
3.914855
4.049435
4.201278
4.37115
4.560102
4.769533
5.002808
5.266155
5.56302
5.890243
6.242689
6.617646
7.017264
7.449806
7.929909
8.479693
9.130409
9.925379
10.92537
12.22171
13.97805
16.57423
21.13229
32.34495
99.68672
99.76256
26.23906
16.00571
12.45984
10.72419
9.69873
8.991295
8.42427
7.908654
7.406103
6.912887
6.444967
6.020881
5.648481
5.319307
5.022729
4.755033
4.514697
4.300743
4.112401
3.948955
3.809629
3.693569
3.599855
3.52753
3.475643
3.443286
3.429621
3.433887
3.455442
3.493752
3.548405
3.619141
3.705804
3.80835
3.926926
4.061858
4.213687
4.383199
4.571486
4.780018
5.012619
5.275516
5.571323
5.896653
6.246591
6.618614
7.015538
7.445439
7.923117
8.470896
9.12042
9.915667
10.91839
12.22147
13.98614
16.59447
21.16686
32.39593
99.75255
100.1116
26.50901
16.26772
12.70499
10.94225
9.880538
9.130103
8.516212
7.954479
7.412251
6.890589
6.406605
5.975794
5.601315
5.270902
4.973643
4.706741
4.468457
4.257552
4.073016
3.913892
3.779195
3.667892
3.578911
3.511177
3.463652
3.435357
3.425425
3.433035
3.457541
3.498394
3.555173
3.627625
3.715598
3.819047
3.938132
4.073198
4.224803
4.393773
4.581247
4.788751
5.020542
5.282816
5.577422
5.90079
6.248126
6.617752
7.012065
7.43949
7.914934
8.460921
9.109491
9.90528
10.91092
12.21971
13.99486
16.61591
21.20223
32.44606
99.81664
100.4568
26.77424
16.52586
12.94702
11.15717
10.05802
9.262604
8.600709
7.992922
7.412344
6.865344
6.367768
5.931708
5.554649
5.222417
4.925014
4.659395
4.423547
4.215973
4.03543
3.880739
3.750713
3.644139
3.559806
3.496532
3.453196
3.428764
3.42233
3.433043
3.460242
3.503371
3.562008
3.635911
3.724937
3.829042
3.948404
4.083389
4.234592
4.402872
4.589411
4.79578
5.026629
5.288132
5.581426
5.902777
6.247944
6.615027
7.006891
7.432042
7.905475
8.449915
9.097804
9.894473
10.90354
12.2193
14.00476
16.63911
21.24013
32.50185
99.88979
100.7985
27.03641
16.78
13.18491
11.36819
10.23084
9.388584
8.677863
8.025427
7.410047
6.839034
6.329332
5.888511
5.508747
5.174815
4.877504
4.613456
4.380317
4.176301
3.999911
3.849736
3.724382
3.622472
3.542663
3.483676
3.444322
3.423517
3.420316
3.433857
3.463484
3.508617
3.568839
3.643928
3.733752
3.838275
3.957697
4.092414
4.243052
4.410508
4.596003
4.801153
5.030964
5.291574
5.583424
5.902881
6.245757
6.610492
7.000123
7.423221
7.89486
8.437962
9.085369
9.883116
10.89595
12.21998
14.01587
16.6636
21.27779
32.55184
99.96172
101.1353
27.29103
17.02695
13.41779
11.57422
10.39725
9.507784
8.74805
8.051971
7.403305
6.811574
6.291226
5.846029
5.46378
5.128543
4.831704
4.569512
4.33929
4.138987
3.966836
3.821181
3.700432
3.603055
3.527588
3.472664
3.437032
3.419655
3.419391
3.435483
3.467233
3.514079
3.575609
3.651619
3.741991
3.846704
3.965981
4.100249
4.250168
4.416678
4.601045
4.804926
5.033633
5.29316
5.58358
5.901127
6.241802
6.604367
6.991969
7.413225
7.883291
8.425286
9.072446
9.871482
10.88821
12.22013
14.02837
16.69036
21.31847
32.60785
100.0387
101.4693
27.53931
17.26909
13.64655
11.77269
10.55451
9.619167
8.811831
8.073886
7.394269
6.783492
6.253423
5.804233
5.420085
5.084023
4.78799
4.527904
4.300806
4.104336
3.936452
3.795269
3.679009
3.585993
3.514652
3.463545
3.431372
3.417079
3.419475
3.437822
3.47141
3.519689
3.582258
3.658935
3.749619
3.854304
3.97324
4.106884
4.255931
4.421361
4.604484
4.80719
5.034826
5.293243
5.582066
5.897627
6.236219
6.596771
6.982516
7.402116
7.870808
8.411903
9.058999
9.859384
10.8798
12.22018
14.04188
16.71823
21.35827
32.65745
100.1164
101.7996
27.78298
17.50401
13.86777
11.96563
10.70567
9.722136
8.868361
8.091247
7.383391
6.755464
6.216585
5.763735
5.37791
5.041443
4.746592
4.48892
4.265134
4.072579
3.90895
3.772144
3.660211
3.571341
3.503874
3.456306
3.427298
3.415768
3.420527
3.440822
3.475956
3.525391
3.588741
3.665844
3.756621
3.861084
3.979509
4.112384
4.26044
4.424696
4.606506
4.808007
5.034685
5.291784
5.578902
5.892524
6.229139
6.587823
6.971879
7.390014
7.85756
8.398023
9.045359
9.847508
10.87233
12.21988
14.05654
16.7482
21.40096
32.7103
100.1938
102.1251
28.02037
17.73186
14.08071
12.14939
10.84936
9.819033
8.919374
8.105017
7.371096
6.727407
6.180644
5.724809
5.337799
5.001354
4.707978
4.452914
4.232543
4.043912
3.884462
3.751885
3.644069
3.559093
3.495216
3.450884
3.42473
3.415647
3.422449
3.444395
3.480796
3.531124