/*--------------------------------*- C++ -*----------------------------------*\
| =========                 |                                                 |
| \\      /  F ield         | OpenFOAM: The Open Source CFD Toolbox           |
|  \\    /   O peration     | Version:  2312                                  |
|   \\  /    A nd           | Website:  www.openfoam.com                      |
|    \\/     M anipulation  |                                                 |
\*---------------------------------------------------------------------------*/
FoamFile
{
    version     2.0;
    format      ascii;
    arch        "LSB;label=32;scalar=64";
    class       surfaceScalarField;
    location    "2000";
    object      phi;
}
// * * * * * * * * * * * * * * * * * * * * * * * * * * * * * * * * * * * * * //

dimensions      [1 0 -1 0 0 0 0];

oriented        oriented;

internalField   nonuniform List<scalar> 
23740
(
-0.0001196588
0.0001193272
-0.0002420121
0.0001223533
-0.0003693005
0.0001272885
-0.0004965112
0.0001272109
-0.0006191692
0.0001226583
-0.0007354092
0.0001162404
-0.0008452784
0.0001098697
-0.0009421472
9.686927e-05
-0.001036271
9.412391e-05
-0.001121853
8.558291e-05
-0.001201406
7.955348e-05
-0.001273667
7.226185e-05
-0.001340208
6.654158e-05
-0.001402978
6.277022e-05
-0.00146255
5.95725e-05
-0.001514835
5.228547e-05
-0.001558865
4.402978e-05
-0.001601092
4.222788e-05
-0.001646343
4.525095e-05
-0.001688075
4.173255e-05
-0.001718969
3.089403e-05
-0.001745166
2.619719e-05
-0.001776693
3.152758e-05
-0.001809538
3.284523e-05
-0.00183283
2.329163e-05
-0.001848536
1.570619e-05
-0.001867339
1.880397e-05
-0.001890048
2.270933e-05
-0.001908502
1.845406e-05
-0.001920685
1.218294e-05
-0.001931605
1.092029e-05
-0.001943672
1.206734e-05
-0.001955648
1.197634e-05
-0.001965108
9.460184e-06
-0.001970608
5.499698e-06
-0.001972466
1.858946e-06
-0.001973525
1.058645e-06
-0.001974473
9.486908e-07
-0.001976009
1.536484e-06
-0.001972864
-3.144788e-06
-0.001959336
-1.352843e-05
-0.001937505
-2.1831e-05
-0.001921245
-1.625941e-05
-0.001916283
-4.961913e-06
-0.001901656
-1.462718e-05
-0.001859106
-4.25499e-05
-0.001815345
-4.376078e-05
-0.001788443
-2.690242e-05
-0.001750469
-3.797369e-05
-0.00168122
-6.924986e-05
-0.001604212
-7.70076e-05
-0.001531719
-7.249355e-05
-0.001441902
-8.981754e-05
-0.001322089
-0.0001198126
-0.001182974
-0.0001391157
-0.00103363
-0.0001493445
-0.0008321041
-0.0002015259
-0.0005916007
-0.0002405039
-0.0003022584
-0.0002893435
-0.0003022585
-0.0001229763
0.0002423032
-0.0002419573
0.0002413341
-0.0003538326
0.0002391639
-0.0004571446
0.000230523
-0.000552631
0.000218145
-0.0006401668
0.0002037767
-0.0007202019
0.0001899053
-0.0007988221
0.0001754901
-0.0008654932
0.0001607957
-0.0009278555
0.0001479459
-0.0009843655
0.0001360641
-0.001036864
0.000124761
-0.001084362
0.0001140403
-0.001126066
0.0001044747
-0.001162248
9.57551e-05
-0.001196965
8.70029e-05
-0.001231769
7.883447e-05
-0.001261823
7.228236e-05
-0.001283434
6.686266e-05
-0.001302734
6.103242e-05
-0.001326499
5.465989e-05
-0.001349819
4.95171e-05
-0.001364125
4.583385e-05
-0.001373234
4.195478e-05
-0.001386966
3.702397e-05
-0.001403864
3.260522e-05
-0.001414662
2.960177e-05
-0.001418898
2.694628e-05
-0.0014239
2.345611e-05
-0.001431312
1.959565e-05
-0.001436709
1.631735e-05
-0.001438851
1.42096e-05
-0.001438353
1.147835e-05
-0.001436919
8.02718e-06
-0.001435666
4.247206e-06
-0.001433902
9.489098e-08
-0.001428869
-3.973653e-06
-0.001420468
-7.452551e-06
-0.001408213
-1.071762e-05
-0.001395985
-1.537279e-05
-0.001387649
-2.18642e-05
-0.001380819
-2.866097e-05
-0.001362779
-3.429904e-05
-0.00132823
-3.951056e-05
-0.001295938
-4.691949e-05
-0.001281244
-5.724367e-05
-0.001257569
-6.743603e-05
-0.0012072
-7.727138e-05
-0.00115488
-9.029382e-05
-0.00111797
-0.0001061605
-0.00107194
-0.0001230373
-0.001001599
-0.000142835
-0.0009299545
-0.0001614627
-0.0008631312
-0.0001866362
-0.000785411
-0.0002168364
-0.0006776267
-0.0002571293
-0.0005519979
-0.0003271554
-0.0004078318
-0.0003846707
-0.0002280056
-0.0004691707
-0.0005302643
-9.679969e-05
0.0003391027
-0.0001886957
0.00033323
-0.0002723096
0.0003227779
-0.0003481427
0.0003063563
-0.0004173011
0.0002873037
-0.0004824351
0.0002689111
-0.0005427198
0.0002501905
-0.0006045228
0.0002372938
-0.0006592312
0.0002155047
-0.0007077736
0.0001964889
-0.0007501574
0.0001784485
-0.0007874912
0.0001620954
-0.0008230857
0.0001496354
-0.0008542384
0.0001356279
-0.0008825763
0.0001240936
-0.000908958
0.0001133851
-0.0009337629
0.00010364
-0.0009563515
9.487151e-05
-0.000976332
8.684365e-05
-0.0009944313
7.913224e-05
-0.00101156
7.178945e-05
-0.001027189
6.514669e-05
-0.001040442
5.908688e-05
-0.00105173
5.324287e-05
-0.001062155
4.745022e-05
-0.001071656
4.210672e-05
-0.001079225
3.717091e-05
-0.001084726
3.244759e-05
-0.001088905
2.763545e-05
-0.00109261
2.330063e-05
-0.001094911
1.861899e-05
-0.00109532
1.461919e-05
-0.001093535
9.69402e-06
-0.001090458
4.95e-06
-0.001086188
-2.18588e-08
-0.00108076
-5.333318e-06
-0.001073923
-1.080973e-05
-0.001064951
-1.642442e-05
-0.001053381
-2.228679e-05
-0.001039883
-2.88703e-05
-0.00102533
-3.641777e-05
-0.001009335
-4.465518e-05
-0.0009904106
-5.322345e-05
-0.0009675942
-6.232684e-05
-0.0009413647
-7.3149e-05
-0.0009130165
-8.5592e-05
-0.0008812595
-9.91931e-05
-0.0008464419
-0.0001120892
-0.0008064671
-0.0001302689
-0.000762458
-0.0001501699
-0.0007145467
-0.0001709489
-0.0006650951
-0.0001922868
-0.0006104531
-0.0002161051
-0.0005435616
-0.0002535282
-0.0004629437
-0.0002974548
-0.0003702511
-0.0003498226
-0.0002941533
-0.0004032538
-0.0002079879
-0.000470837
-0.0001160118
-0.0005611477
-0.0006462762
-6.616308e-05
0.0004052655
-0.0001281539
0.0003952206
-0.0001848691
0.0003794931
-0.0002376604
0.0003591477
-0.0002870176
0.0003366612
-0.0003330162
0.0003149101
-0.0003754937
0.0002926684
-0.0004104083
0.0002722088
-0.0004488249
0.0002539218
-0.0004864301
0.0002340947
-0.0005233629
0.0002153817
-0.0005591758
0.0001979086
-0.0005915725
0.0001820326
-0.0006212173
0.0001652731
-0.0006479528
0.0001508295
-0.0006725208
0.0001379536
-0.0006949698
0.0001260893
-0.0007151929
0.0001150951
-0.0007334914
0.0001051425
-0.0007502894
9.593062e-05
-0.0007659477
8.744815e-05
-0.0007796449
7.884426e-05
-0.000791278
7.072038e-05
-0.000801208
6.317324e-05
-0.0008096121
5.585472e-05
-0.0008172409
4.973585e-05
-0.0008228983
4.282871e-05
-0.0008269076
3.645715e-05
-0.0008296173
3.034543e-05
-0.000831216
2.489957e-05
-0.0008315262
1.89295e-05
-0.0008297613
1.285458e-05
-0.0008269439
6.876926e-06
-0.0008228085
8.149995e-07
-0.0008174116
-5.418418e-06
-0.0008108484
-1.189615e-05
-0.0008029532
-1.870461e-05
-0.0007934959
-2.58814e-05
-0.000782274
-3.350846e-05
-0.0007695058
-4.163821e-05
-0.0007553263
-5.059704e-05
-0.0007395649
-6.041638e-05
-0.000721598
-7.119023e-05
-0.0007022072
-8.171755e-05
-0.0006803036
-9.505258e-05
-0.0006562026
-0.000109693
-0.000629879
-0.0001255168
-0.0006006677
-0.0001413005
-0.0005691726
-0.0001617642
-0.0005368613
-0.0001824814
-0.0005020943
-0.0002057161
-0.0004608267
-0.0002335547
-0.0004082533
-0.0002686788
-0.0003508271
-0.0003109548
-0.0002931092
-0.0003551731
-0.0002392942
-0.000403638
-0.0001820766
-0.0004604721
-0.0001237535
-0.0005291608
-6.63014e-05
-0.0006186006
-0.0007125777
-4.855067e-05
0.000453816
-9.501727e-05
0.0004416871
-0.000138083
0.0004225589
-0.0001789929
0.0004000577
-0.0002181282
0.0003757966
-0.0002545106
0.0003512928
-0.000288245
0.0003264031
-0.0003173545
0.0003013186
-0.0003431992
0.0002797668
-0.0003688288
0.0002597246
-0.0003945599
0.0002411131
-0.0004217145
0.0002250635
-0.0004474712
0.0002077896
-0.0004724359
0.000190238
-0.0004953869
0.0001737809
-0.0005157502
0.0001583172
-0.0005341031
0.0001444426
-0.0005506896
0.000131682
-0.0005656027
0.0001200559
-0.0005789975
0.0001093256
-0.0005909684
9.941944e-05
-0.0006015324
8.940858e-05
-0.0006105952
7.97835e-05
-0.0006181871
7.076544e-05
-0.0006243491
6.201691e-05
-0.0006291918
5.457885e-05
-0.0006327715
4.640872e-05
-0.0006350466
3.873254e-05
-0.000636084
3.138308e-05
-0.0006354487
2.426454e-05
-0.0006336973
1.717841e-05
-0.0006309695
1.012702e-05
-0.0006271208
3.028489e-06
-0.00062216
-4.145503e-06
-0.0006160765
-1.150168e-05
-0.0006089224
-1.904998e-05
-0.0006006407
-2.698602e-05
-0.0005911505
-3.537141e-05
-0.0005803413
-4.431736e-05
-0.000568863
-5.311637e-05
-0.0005558823
-6.357749e-05
-0.0005414666
-7.483196e-05
-0.0005257439
-8.691281e-05
-0.0005084213
-9.904011e-05
-0.0004894183
-0.0001140555
-0.0004690242
-0.0001300871
-0.0004473266
-0.0001472145
-0.0004231336
-0.0001654935
-0.000398814
-0.0001860838
-0.0003715066
-0.000209789
-0.0003390298
-0.0002381931
-0.0003014437
-0.0002711411
-0.0002631732
-0.0003069495
-0.0002277035
-0.0003464247
-0.0001923335
-0.0003905435
-0.0001549739
-0.000440998
-0.0001166258
-0.0004988206
-7.82719e-05
-0.0005675153
-4.14526e-05
-0.0006554206
-0.0007540304
-3.316834e-05
0.0004869842
-6.518514e-05
0.0004737039
-9.496592e-05
0.0004523397
-0.0001233926
0.0004284844
-0.0001507068
0.0004031109
-0.0001767606
0.0003773467
-0.0002020965
0.0003517392
-0.0002275505
0.0003267728
-0.000251278
0.0003034944
-0.0002733087
0.0002817555
-0.0002935465
0.0002613511
-0.0003109671
0.0002424843
-0.0003289875
0.0002258103
-0.000347839
0.0002090897
-0.000366973
0.0001929152
-0.0003857512
0.0001770956
-0.0004028789
0.0001615705
-0.0004184126
0.000147216
-0.0004321542
0.0001337979
-0.0004440776
0.0001212493
-0.0004539993
0.0001093415
-0.0004625801
9.798963e-05
-0.0004699202
8.712391e-05
-0.0004759397
7.678524e-05
-0.0004808244
6.690186e-05
-0.0004837734
5.752813e-05
-0.0004858107
4.844632e-05
-0.0004867671
3.968921e-05
-0.0004866005
3.121675e-05
-0.000485309
2.297322e-05
-0.0004829811
1.485079e-05
-0.0004796569
6.803049e-06
-0.0004753743
-1.253827e-06
-0.0004701467
-9.372886e-06
-0.0004639498
-1.769839e-05
-0.0004573201
-2.567946e-05
-0.0004497407
-3.456514e-05
-0.0004412278
-4.388416e-05
-0.0004318543
-5.369069e-05
-0.0004215474
-6.342312e-05
-0.0004102932
-7.483146e-05
-0.0003982089
-8.691621e-05
-0.0003852308
-9.989077e-05
-0.0003703257
-0.0001139451
-0.0003551526
-0.0001292285
-0.0003397381
-0.0001455016
-0.0003236116
-0.000163341
-0.000305564
-0.0001835412
-0.0002845971
-0.0002070507
-0.0002605538
-0.0002338324
-0.0002355125
-0.0002632345
-0.0002111205
-0.0002955333
-0.0001866396
-0.0003314306
-0.0001611561
-0.0003719084
-0.0001341081
-0.0004175918
-0.0001061113
-0.0004689951
-7.79645e-05
-0.0005269677
-5.080641e-05
-0.0005946739
-2.574168e-05
-0.000680486
-0.0007797721
-2.407357e-05
0.0005110578
-4.736425e-05
0.0004969946
-6.901314e-05
0.0004739886
-8.982406e-05
0.0004492954
-0.0001101113
0.0004233983
-0.0001300362
0.0003972717
-0.0001498986
0.0003716017
-0.0001699784
0.0003468527
-0.0001899353
0.0003234515
-0.0002094795
0.0003012998
-0.0002283284
0.0002802002
-0.0002456023
0.0002597584
-0.0002607888
0.000240997
-0.0002750228
0.000223324
-0.0002885604
0.000206453
-0.0003021522
0.0001906876
-0.000315644
0.0001750626
-0.0003278755
0.0001594478
-0.0003387576
0.0001446802
-0.0003481857
0.0001306777
-0.0003561796
0.0001173356
-0.0003628121
0.0001046224
-0.0003681679
9.248002e-05
-0.0003722885
8.090605e-05
-0.0003752349
6.984856e-05
-0.0003770016
5.929501e-05
-0.0003777073
4.915234e-05
-0.0003774138
3.939589e-05
-0.000376165
2.996821e-05
-0.0003739999
2.080831e-05
-0.0003709898
1.184097e-05
-0.0003671771
2.990574e-06
-0.0003626071
-5.823609e-06
-0.000357683
-1.429684e-05
-0.0003520339
-2.334728e-05
-0.0003456796
-3.203356e-05
-0.0003386528
-4.159177e-05
-0.0003310336
-5.150321e-05
-0.0003228243
-6.18998e-05
-0.0003133621
-7.288515e-05
-0.0003034977
-8.469568e-05
-0.0002930916
-9.732222e-05
-0.0002820693
-0.000110913
-0.0002706984
-0.000125316
-0.0002589766
-0.0001409502
-0.0002461587
-0.0001583195
-0.000231479
-0.0001780207
-0.0002148646
-0.0002001556
-0.0001975084
-0.0002244069
-0.0001803977
-0.0002509431
-0.0001634671
-0.0002801652
-0.0001463286
-0.0003126719
-0.0001287382
-0.0003490212
-0.0001105309
-0.0003901159
-9.144006e-05
-0.0004366829
-7.188672e-05
-0.0004885486
-5.275905e-05
-0.0005460957
-3.465262e-05
-0.0006127808
-1.797646e-05
-0.0006971627
-0.0007977486
-1.706828e-05
0.0005281261
-3.361248e-05
0.0005135388
-4.898959e-05
0.0004893658
-6.401947e-05
0.0004643254
-7.911681e-05
0.0004384957
-9.451284e-05
0.0004126678
-0.0001103558
0.0003874447
-0.0001266536
0.0003631507
-0.0001431443
0.0003399424
-0.0001595882
0.0003177438
-0.0001758122
0.0002964244
-0.0001918375
0.0002757838
-0.0002067916
0.0002559513
-0.0002203713
0.0002369038
-0.000232478
0.00021856
-0.000242774
0.0002009838
-0.0002522882
0.0001845771
-0.0002613994
0.0001685593
-0.0002694654
0.0001527465
-0.0002763973
0.0001376098
-0.0002821571
0.0001230957
-0.0002867656
0.0001092312
-0.0002902838
9.599847e-05
-0.000292755
8.337742e-05
-0.0002942394
7.133325e-05
-0.0002947759
5.983171e-05
-0.0002944445
4.882119e-05
-0.0002933008
3.825236e-05
-0.0002913992
2.806687e-05
-0.0002887905
1.819984e-05
-0.0002855293
8.579926e-06
-0.0002816676
-8.709685e-07
-0.0002775802
-9.910765e-06
-0.0002729767
-1.890016e-05
-0.0002678984
-2.842543e-05
-0.000261888
-3.804374e-05
-0.000255506
-4.797363e-05
-0.0002487264
-5.82827e-05
-0.0002415339
-6.909214e-05
-0.0002339064
-8.05125e-05
-0.0002259072
-9.269479e-05
-0.0002175577
-0.0001056716
-0.0002090059
-0.0001194646
-0.0001998461
-0.0001344757
-0.0001895928
-0.0001512034
-0.000178176
-0.0001697362
-0.0001662138
-0.000189983
-0.0001543029
-0.0002120665
-0.0001424804
-0.0002362293
-0.0001305839
-0.0002628396
-0.0001184872
-0.000292262
-0.0001061787
-0.0003249804
-9.334735e-05
-0.0003618527
-7.957432e-05
-0.0004038891
-6.512022e-05
-0.0004511372
-5.068897e-05
-0.0005029801
-3.678439e-05
-0.0005600005
-2.36397e-05
-0.0006259258
-1.160911e-05
-0.0007091937
-0.0008093578
-1.267471e-05
0.0005408007
-2.484412e-05
0.0005257081
-3.610426e-05
0.0005006258
-4.730391e-05
0.000475525
-5.890302e-05
0.0004500947
-7.110458e-05
0.0004248694
-8.394715e-05
0.0004002874
-9.733448e-05
0.0003765381
-0.0001110473
0.0003536553
-0.0001248652
0.0003315619
-0.0001385869
0.0003101463
-0.0001520229
0.00028922
-0.0001648287
0.0002687573
-0.0001767502
0.0002488256
-0.0001876401
0.0002294501
-0.00019727
0.000210614
-0.0002050393
0.0001923467
-0.0002116726
0.0001751927
-0.0002175728
0.000158647
-0.0002224882
0.0001425254
-0.0002263692
0.000126977
-0.0002292145
0.0001120767
-0.0002310905
9.787466e-05
-0.0002320788
8.436601e-05
-0.0002322627
7.151736e-05
-0.0002317119
5.928108e-05
-0.0002304908
4.760035e-05
-0.0002286555
3.64172e-05
-0.0002262579
2.566951e-05
-0.0002233431
1.52852e-05
-0.0002199647
5.201732e-06
-0.0002164259
-4.409655e-06
-0.0002124962
-1.38403e-05
-0.0002078227
-2.357345e-05
-0.0002028695
-3.337855e-05
-0.0001975917
-4.332134e-05
-0.0001920213
-5.354387e-05
-0.0001861538
-6.415009e-05
-0.0001799984
-7.524739e-05
-0.0001735573
-8.695351e-05
-0.0001669672
-9.928479e-05
-0.0001601965
-0.0001124421
-0.0001529243
-0.0001267368
-0.0001448994
-0.0001425005
-0.0001364724
-0.0001596303
-0.0001279671
-0.0001782415
-0.0001194533
-0.0001984967
-0.000110879
-0.0002206407
-0.0001021977
-0.0002449107
-9.343922e-05
-0.0002715981
-8.462643e-05
-0.0003010748
-7.551975e-05
-0.0003340871
-6.567822e-05
-0.0003716943
-5.527136e-05
-0.0004142961
-4.491387e-05
-0.0004614949
-3.489909e-05
-0.0005129951
-2.537305e-05
-0.0005695268
-1.650824e-05
-0.000634791
-8.48869e-06
-0.0007172136
-0.0008178465
-9.489955e-06
0.0005502904
-1.846758e-05
0.0005346855
-2.677874e-05
0.0005089368
-3.526789e-05
0.000484014
-4.43822e-05
0.0004592089
-5.426856e-05
0.0004347557
-6.489352e-05
0.0004109123
-7.612101e-05
0.0003877656
-8.776918e-05
0.0003653036
-9.967181e-05
0.0003434646
-0.0001116161
0.0003220907
-0.0001232989
0.0003009031
-0.0001343619
0.0002798205
-0.0001445526
0.0002590166
-0.0001537249
0.0002386225
-0.0001617802
0.0002186696
-0.0001686212
0.0001991878
-0.0001738044
0.0001803762
-0.000177707
0.0001625498
-0.0001805556
0.0001453743
-0.0001824063
0.0001288279
-0.0001834051
0.0001130757
-0.0001836987
9.816849e-05
-0.000183366
8.403349e-05
-0.0001824694
7.062093e-05
-0.0001810785
5.789033e-05
-0.0001792489
4.5771e-05
-0.0001770238
3.419222e-05
-0.0001744386
2.30845e-05
-0.0001715235
1.237029e-05
-0.0001685062
2.184543e-06
-0.0001652875
-7.628148e-06
-0.0001614967
-1.763101e-05
-0.0001575054
-2.756458e-05
-0.0001533341
-3.754972e-05
-0.0001489688
-4.768651e-05
-0.0001444227
-5.808979e-05
-0.000139704
-6.886865e-05
-0.0001348381
-8.011319e-05
-0.0001298962
-9.189534e-05
-0.0001247426
-0.0001044383
-0.000119169
-0.0001180156
-0.0001131696
-0.0001327361
-0.0001070508
-0.0001486192
-0.0001008795
-0.0001658015
-9.4655e-05
-0.0001844659
-8.836233e-05
-0.0002047893
-8.202377e-05
-0.0002269793
-7.565974e-05
-0.0002512747
-6.929221e-05
-0.0002779656
-6.274252e-05
-0.0003076245
-5.561893e-05
-0.0003412107
-4.795473e-05
-0.0003793586
-4.022551e-05
-0.0004220254
-3.268049e-05
-0.00046904
-2.535366e-05
-0.0005203221
-1.832543e-05
-0.0005765552
-1.170921e-05
-0.0006414075
-5.653824e-06
-0.0007232694
-0.0008235004
-7.381484e-06
0.0005576715
-1.417269e-05
0.0005414763
-2.044291e-05
0.0005152067
-2.699702e-05
0.0004905678
-3.423039e-05
0.0004664421
-4.222912e-05
0.0004427544
-5.091753e-05
0.0004196007
-6.015704e-05
0.0003970052
-6.981146e-05
0.0003749581
-7.977568e-05
0.000353429
-8.97537e-05
0.0003320689
-9.937139e-05
0.000310521
-0.0001083957
0.000288845
-0.0001166669
0.0002672881
-0.0001240618
0.0002460177
-0.0001305088
0.0002251169
-0.0001359766
0.0002046559
-0.000140355
0.0001847549
-0.0001433879
0.0001655829
-0.0001451945
0.0001471811
-0.0001459319
0.0001295655
-0.0001457457
0.0001128897
-0.0001448268
9.724976e-05
-0.0001434261
8.263298e-05
-0.0001417313
6.892627e-05
-0.0001398098
5.596902e-05
-0.0001376814
4.364272e-05
-0.0001353606
3.187157e-05
-0.00013286
2.058406e-05
-0.0001301994
9.709863e-06
-0.0001275483
-4.664484e-07
-0.0001245038
-1.067245e-05
-0.0001213236
-2.08111e-05
-0.0001180218
-3.086624e-05
-0.0001146088
-4.096263e-05
-0.0001110899
-5.120528e-05
-0.0001074719
-6.170763e-05
-0.0001038006
-7.253987e-05
-0.0001000705
-8.38432e-05
-9.615108e-05
-9.581465e-05
-9.192924e-05
-0.00010866
-8.752747e-05
-0.0001224173
-8.306372e-05
-0.0001371997
-7.854908e-05
-0.0001531338
-7.397432e-05
-0.0001703762
-6.935264e-05
-0.0001890875
-6.469651e-05
-0.0002094454
-6.002482e-05
-0.0002316509
-5.535956e-05
-0.0002559399
-5.057745e-05
-0.0002827477
-4.534426e-05
-0.0003128577
-3.960927e-05
-0.0003469457
-3.374542e-05
-0.0003852225
-2.803147e-05
-0.0004277394
-2.255604e-05
-0.0004745156
-1.733077e-05
-0.0005255475
-1.2421e-05
-0.0005814652
-7.936228e-06
-0.0006458925
-4.044137e-06
-0.0007271617
-0.0008275445
-5.829354e-06
0.0005635002
-1.10979e-05
0.0005467443
-1.596892e-05
0.0005200773
-2.117258e-05
0.0004957711
-2.703871e-05
0.000472308
-3.361158e-05
0.0004493271
-4.080555e-05
0.0004267946
-4.850496e-05
0.0004047046
-5.660882e-05
0.000383062
-6.496905e-05
0.0003617893
-7.325688e-05
0.0003403569
-8.112406e-05
0.0003183884
-8.839114e-05
0.0002961124
-9.49347e-05
0.0002738319
-0.0001006617
0.0002517449
-0.0001055134
0.0002299689
-0.0001094634
0.0002086063
-0.000112494
0.0001877857
-0.000114554
0.0001676432
-0.0001156261
0.0001482536
-0.0001157518
0.0001296914
-0.000114965
0.0001121032
-0.000113382
9.566698e-05
-0.0001112753
8.052646e-05
-0.0001089709
6.662196e-05
-0.0001066736
5.367191e-05
-0.0001044217
4.13909e-05
-0.0001021837
2.963372e-05
-9.994188e-05
1.83424e-05
-9.768977e-05
7.457881e-06
-9.534524e-05
-2.810852e-06
-9.289316e-05
-1.312442e-05
-9.041431e-05
-2.328983e-05
-8.788551e-05
-3.339492e-05
-8.530804e-05
-4.354e-05
-8.267864e-05
-5.383456e-05
-8.002669e-05
-6.435947e-05
-7.730102e-05
-7.526543e-05
-7.441113e-05
-8.673298e-05
-7.13468e-05
-9.887888e-05
-6.821781e-05
-0.0001117889
-6.504944e-05
-0.0001255855
-6.184122e-05
-0.0001404079
-5.858486e-05
-0.00015639
-5.528402e-05
-0.0001736769
-5.194749e-05
-0.000192424
-4.859184e-05
-0.000212801
-4.523893e-05
-0.0002350038
-4.181393e-05
-0.0002593649
-3.805083e-05
-0.0002865107
-3.382298e-05
-0.0003170856
-2.937073e-05
-0.000351398
-2.497061e-05
-0.0003896227
-2.076061e-05
-0.0004319495
-1.675476e-05
-0.0004785215
-1.292829e-05
-0.0005293741
-9.305738e-06
-0.0005850879
-5.921211e-06
-0.0006492772
-2.798979e-06
-0.0007302843
-0.0008303435
-4.8184e-06
0.0005683178
-9.095205e-06
0.0005510204
-1.303926e-05
0.0005240207
-1.729661e-05
0.000500028
-2.213912e-05
0.0004771502
-2.759255e-05
0.0004547803
-3.358513e-05
0.0004327871
-4.003496e-05
0.0004111544
-4.687133e-05
0.0003898984
-5.38386e-05
0.0003687567
-6.059445e-05
0.0003471129
-6.691023e-05
0.0003247044
-7.265202e-05
0.0003018544
-7.77275e-05
0.0002789077
-8.207433e-05
0.0002560921
-8.56608e-05
0.0002335557
-8.847442e-05
0.0002114202
-9.049024e-05
0.0001898019
-9.167173e-05
0.0001688249
-9.201288e-05
0.000148595
-9.154987e-05
0.0001292286
-9.035189e-05
0.0001109054
-8.851928e-05
9.383456e-05
-8.618893e-05
7.819628e-05
-8.361953e-05
6.405271e-05
-8.113763e-05
5.119014e-05
-7.886102e-05
3.911442e-05
-7.673282e-05
2.750565e-05
-7.470919e-05
1.631889e-05
-7.281556e-05
5.564361e-06
-7.086714e-05
-4.759159e-06
-6.893076e-05
-1.506069e-05
-6.701097e-05
-2.520951e-05
-6.509745e-05
-3.530834e-05
-6.31823e-05
-4.545504e-05
-6.127001e-05
-5.574674e-05
-5.930967e-05
-6.631972e-05
-5.724313e-05
-7.733187e-05
-5.510161e-05
-8.88744e-05
-5.291805e-05
-0.0001010623
-5.069193e-05
-0.0001140149
-4.841472e-05
-0.0001278626
-4.608731e-05
-0.0001427352
-4.371135e-05
-0.0001587659
-4.129347e-05
-0.0001760947
-3.884654e-05
-0.0001948708
-3.639092e-05
-0.0002152565
-3.389636e-05
-0.0002374983
-3.115639e-05
-0.0002621048
-2.798774e-05
-0.0002896794
-2.45156e-05
-0.0003205577
-2.099339e-05
-0.0003549202
-1.760591e-05
-0.0003930102
-1.442365e-05
-0.0004351318
-1.145041e-05
-0.0004814948
-8.679921e-06
-0.0005321447
-6.124252e-06
-0.0005876437
-3.812165e-06
-0.0006515895
-1.87541e-06
-0.0007322213
-0.000832219
-4.152855e-06
0.0005724698
-7.79715e-06
0.0005546639
-1.115516e-05
0.0005273781
-1.478324e-05
0.0005036556
-1.89002e-05
0.0004812667
-2.352382e-05
0.0004594036
-2.859821e-05
0.0004378613
-3.406302e-05
0.0004166191
-3.986227e-05
0.0003956977
-4.570343e-05
0.000374598
-5.122397e-05
0.0003526337
-5.626418e-05
0.0003297448
-6.074332e-05
0.0003063338
-6.460499e-05
0.0002827697
-6.78066e-05
0.000259294
-7.03234e-05
0.0002360728
-7.215337e-05
0.0002132505
-7.331915e-05
0.0001909679
-7.383493e-05
0.000169341
-7.367206e-05
0.0001484323
-7.282435e-05
0.0001283812
-7.134479e-05
0.0001094261
-6.934939e-05
9.183935e-05
-6.700874e-05
7.585579e-05
-6.452413e-05
6.156824e-05
-6.213182e-05
4.879795e-05
-5.995998e-05
3.694269e-05
-5.799465e-05
2.554044e-05
-5.619051e-05
1.451485e-05
-5.458091e-05
3.954865e-06
-5.295577e-05
-6.384205e-06
-5.141351e-05
-1.660285e-05
-4.993502e-05
-2.668791e-05
-4.850972e-05
-3.673354e-05
-4.712152e-05
-4.684314e-05
-4.572838e-05
-5.713979e-05
-4.429277e-05
-6.775524e-05
-4.283813e-05
-7.878641e-05
-4.136186e-05
-9.035057e-05
-3.985411e-05
-0.00010257
-3.830333e-05
-0.0001155656
-3.67048e-05
-0.0001294611
-3.505749e-05
-0.0001443824
-3.336479e-05
-0.0001604585
-3.163494e-05
-0.0001778245
-2.988316e-05
-0.0001966225
-2.812261e-05
-0.000217017
-2.622156e-05
-0.0002393992
-2.396137e-05
-0.0002643649
-2.135412e-05
-0.0002922866
-1.860475e-05
-0.000323307
-1.590998e-05
-0.000357615
-1.337876e-05
-0.0003955414
-1.103992e-05
-0.0004374707
-8.879486e-06
-0.0004836553
-6.869833e-06
-0.0005341544
-4.991456e-06
-0.0005895222
-3.221588e-06
-0.0006533596
-1.577924e-06
-0.0007338652
-0.0008337969
-3.835135e-06
0.0005763039
-7.188967e-06
0.0005580168
-1.02601e-05
0.0005304484
-1.351827e-05
0.0005069132
-1.714982e-05
0.0004848979
-2.118113e-05
0.0004634346
-2.557677e-05
0.0004422568
-3.028125e-05
0.0004213236
-3.52119e-05
0.0004006284
-4.007659e-05
0.0003794628
-4.45476e-05
0.0003571049
-4.852003e-05
0.0003337175
-5.195353e-05
0.0003097676
-5.482256e-05
0.000285639
-5.711137e-05
0.0002615832
-5.881511e-05
0.0002377769
-5.991612e-05
0.0002143518
-6.043765e-05
0.0001914898
-6.042983e-05
0.0001693335
-5.983643e-05
0.0001478392
-5.86751e-05
0.0001272201
-5.701566e-05
0.0001077669
-5.49845e-05
8.980837e-05
-5.275422e-05
7.362567e-05
-5.050551e-05
5.931966e-05
-4.83716e-05
4.666416e-05
-4.64246e-05
3.49958e-05
-4.467721e-05
2.379315e-05
-4.310368e-05
1.294141e-05
-4.168014e-05
2.531422e-06
-4.032366e-05
-7.740595e-06
-3.908842e-05
-1.7838e-05
-3.79473e-05
-2.782893e-05
-3.687042e-05
-3.781033e-05
-3.581948e-05
-4.789399e-05
-3.477233e-05
-5.818684e-05
-3.373253e-05
-6.879495e-05
-3.268699e-05
-7.983186e-05
-3.162125e-05
-9.141623e-05
-3.052461e-05
-0.0001036665
-2.938821e-05
-0.0001167019
-2.820701e-05
-0.0001306422
-2.698058e-05
-0.0001456087
-2.57137e-05
-0.0001617253
-2.44175e-05
-0.0001791206
-2.310976e-05
-0.0001979302
-2.173124e-05
-0.0002183954
-2.00921e-05
-0.0002410383
-1.809977e-05
-0.0002663572
-1.588449e-05
-0.0002945018
-1.362657e-05
-0.0003255649
-1.145948e-05
-0.0003597821
-9.448709e-06
-0.0003975522
-7.612056e-06
-0.0004393074
-5.949912e-06
-0.0004853176
-4.462267e-06
-0.0005356422
-3.142996e-06
-0.0005908416
-1.998673e-06
-0.0006545042
-9.900989e-07
-0.0007348741
-0.0008347871
-3.648894e-06
0.0005799516
-6.860025e-06
0.0005612269
-9.763678e-06
0.0005333513
-1.276427e-05
0.0005099131
-1.60352e-05
0.0004881683
-1.961915e-05
0.0004670183
-2.35012e-05
0.0004461386
-2.763365e-05
0.000425456
-3.184455e-05
0.0004048393
-3.584365e-05
0.000383462
-3.940718e-05
0.0003606686
-4.247016e-05
0.0003367807
-4.501271e-05
0.0003123105
-4.702758e-05
0.0002876542
-4.851596e-05
0.0002630719
-4.948908e-05
0.0002387504
-5.001523e-05
0.0002148783
-5.01271e-05
0.000191602
-4.975175e-05
0.0001689584
-4.887122e-05
0.0001469589
-4.752181e-05
0.0001258709
-4.579892e-05
0.0001060442
-4.384585e-05
8.785547e-05
-4.183112e-05
7.161108e-05
-3.989954e-05
5.73882e-05
-3.812647e-05
4.48912e-05
-3.651073e-05
3.338016e-05
-3.503662e-05
2.231914e-05
-3.370454e-05
1.160942e-05
-3.248096e-05
1.307928e-06
-3.13743e-05
-8.847168e-06
-3.037692e-05
-1.883529e-05
-2.946574e-05
-2.874003e-05
-2.861368e-05
-3.86623e-05
-2.78072e-05
-4.870038e-05
-2.703433e-05
-5.895962e-05
-2.627885e-05
-6.955034e-05
-2.552315e-05
-8.058746e-05
-2.475276e-05
-9.218653e-05
-2.395569e-05
-0.0001044635
-2.312323e-05
-0.0001175342
-2.225066e-05
-0.0001315147
-2.133787e-05
-0.0001465214
-2.03895e-05
-0.0001626736
-1.941679e-05
-0.0001800932
-1.843156e-05
-0.0001989153
-1.731066e-05
-0.0002195163
-1.58871e-05
-0.0002424618
-1.419906e-05
-0.0002680452
-1.238696e-05
-0.0002963139
-1.059176e-05
-0.0003273601
-8.906325e-06
-0.0003614675
-7.372237e-06
-0.0003990863
-5.997673e-06
-0.000440682
-4.772697e-06
-0.0004865426
-3.67268e-06
-0.0005367423
-2.661443e-06
-0.000591853
-1.71766e-06
-0.0006554482
-8.582196e-07
-0.0007357338
-0.0008356453
-3.671347e-06
0.0005836217
-6.921774e-06
0.0005644762
-9.821275e-06
0.0005362499
-1.272529e-05
0.0005128164
-1.57961e-05
0.0004912386
-1.908532e-05
0.0004703072
-2.259212e-05
0.0004496453
-2.628472e-05
0.0004291485
-2.991573e-05
0.0004084704
-3.318811e-05
0.0003867345
-3.59833e-05
0.000363464
-3.827939e-05
0.0003390771
-4.008065e-05
0.0003141121
-4.139145e-05
0.0002889654
-4.223627e-05
0.000263917
-4.268075e-05
0.0002391952
-4.275762e-05
0.0002149555
-4.241677e-05
0.0001912614
-4.161182e-05
0.0001681538
-4.040245e-05
0.0001457498
-3.885191e-05
0.0001243206
-3.706848e-05
0.0001042609
-3.520952e-05
8.599667e-05
-3.343947e-05
6.984118e-05
-3.185922e-05
5.580806e-05
-3.044944e-05
4.348152e-05
-2.914544e-05
3.207626e-05
-2.793303e-05
2.110682e-05
-2.682735e-05
1.050384e-05
-2.580994e-05
2.906044e-07
-2.489715e-05
-9.759879e-06
-2.407878e-05
-1.965357e-05
-2.333785e-05
-2.948087e-05
-2.266353e-05
-3.933654e-05
-2.204065e-05
-4.932318e-05
-2.145135e-05
-5.954884e-05
-2.08773e-05
-7.01243e-05
-2.030229e-05
-8.116238e-05
-1.971229e-05
-9.277644e-05
-1.90963e-05
-0.0001050794
-1.84467e-05
-0.0001181838
-1.775982e-05
-0.0001322015
-1.703626e-05
-0.0001472449
-1.628112e-05
-0.0001634286
-1.550409e-05
-0.0001808702
-1.46736e-05
-0.0001997457
-1.366237e-05
-0.0002205274
-1.238425e-05
-0.0002437399
-1.091315e-05
-0.0002695163
-9.377248e-06
-0.0002978497
-7.885688e-06
-0.0003288517
-6.503038e-06
-0.0003628502
-5.257096e-06
-0.0004003323
-4.15716e-06
-0.000441782
-3.20849e-06
-0.0004874914
-2.412345e-06
-0.0005375386
-1.743883e-06
-0.0005925216
-1.150276e-06
-0.000656042
-5.934247e-07
-0.0007362909
-0.0008362388
-3.729256e-06
0.0005873497
-7.055123e-06
0.0005678009
-9.988445e-06
0.0005391822
-1.283089e-05
0.0005156581
-1.572895e-05
0.0004941362
-1.873864e-05
0.0004733165
-2.187012e-05
0.0004527766
-2.509695e-05
0.0004323753
-2.814991e-05
0.0004115234
-3.072739e-05
0.0003893122
-3.276614e-05
0.000365503
-3.427712e-05
0.0003405884
-3.529683e-05
0.0003151321
-3.588052e-05
0.0002895494
-3.612389e-05
0.0002641607
-3.613412e-05
0.0002392057
-3.588308e-05
0.0002147048
-3.526193e-05
0.0001906406
-3.424461e-05
0.0001671367
-3.287833e-05
0.0001443838
-3.125779e-05
0.0001227003
-2.952319e-05
0.0001025265
-2.784947e-05
8.432311e-05
-2.638911e-05
6.838095e-05
-2.519242e-05
5.461148e-05
-2.414131e-05
4.243051e-05
-2.313907e-05
3.107411e-05
-2.219606e-05
2.016389e-05
-2.133049e-05
9.638357e-06
-2.053191e-05
-5.078981e-07
-1.981695e-05
-1.047475e-05
-1.917946e-05
-2.029097e-05
-1.86128e-05
-3.004746e-05
-1.810468e-05
-3.984457e-05
-1.763989e-05
-4.978789e-05
-1.720246e-05
-5.998618e-05
-1.67763e-05
-7.055037e-05
-1.634651e-05
-8.159209e-05
-1.590039e-05
-9.322247e-05
-1.542881e-05
-0.0001055509
-1.492598e-05
-0.0001186865
-1.43893e-05
-0.0001327381
-1.382001e-05
-0.0001478141
-1.322407e-05
-0.0001640245
-1.26115e-05
-0.0001814827
-1.191467e-05
-0.0002004425
-1.101705e-05
-0.0002214249
-9.909122e-06
-0.0002448477
-8.674478e-06
-0.0002707508
-7.418261e-06
-0.0002991059
-6.221375e-06
-0.0003300485
-5.129053e-06
-0.0003639425
-4.160252e-06
-0.0004013011
-3.319621e-06
-0.0004426227
-2.603648e-06
-0.0004882075
-2.002726e-06
-0.0005381396
-1.47875e-06
-0.0005930458
-9.931001e-07
-0.000656528
-5.28901e-07
-0.0007367555
-0.0008367677