/*--------------------------------*- C++ -*----------------------------------*\
| =========                 |                                                 |
| \\      /  F ield         | OpenFOAM: The Open Source CFD Toolbox           |
|  \\    /   O peration     | Version:  2312                                  |
|   \\  /    A nd           | Website:  www.openfoam.com                      |
|    \\/     M anipulation  |                                                 |
\*---------------------------------------------------------------------------*/
FoamFile
{
    version     2.0;
    format      ascii;
    arch        "LSB;label=32;scalar=64";
    class       volScalarField;
    location    "2000";
    object      qin;
}
// * * * * * * * * * * * * * * * * * * * * * * * * * * * * * * * * * * * * * //

dimensions      [1 0 -3 0 0 0 0];

internalField   uniform 0;

boundaryField
{
    plate
    {
        type            calculated;
        value           nonuniform List<scalar> 
200
(
1838.453
1821.974
1806.651
1772
1722.331
1681.198
1663.555
1665.738
1675.684
1684.546
1688.233
1684.157
1670.455
1648.056
1621.996
1599.737
1587.389
1586.594
1594.211
1604.661
1613.046
1617.087
1617.197
1615.321
1613.519
1612.981
1613.654
1614.403
1613.562
1609.704
1602.362
1592.396
1581.783
1572.89
1567.553
1566.394
1568.703
1572.869
1577.126
1580.221
1581.745
1582.066
1581.974
1582.257
1583.385
1585.389
1587.927
1590.478
1592.556
1593.871
1594.391
1594.305
1593.913
1593.501
1593.25
1593.207
1593.315
1593.479
1593.625
1593.743
1593.877
1594.098
1594.46
1594.965
1595.564
1596.168
1596.685
1597.05
1597.248
1597.309
1597.294
1597.267
1597.271
1597.319
1597.389
1597.443
1597.438
1597.345
1597.156
1596.881
1596.549
1596.195
1595.859
1595.581
1595.406
1595.378
1595.548
1595.969
1596.689
1597.746
1599.154
1600.9
1602.942
1605.202
1607.58
1609.957
1612.211
1614.223
1615.891
1617.137
1617.913
1618.204
1618.032
1617.448
1616.535
1615.394
1614.139
1612.883
1611.727
1610.75
1610.003
1609.508
1609.259
1609.232
1609.394
1609.708
1610.139
1610.657
1611.233
1611.833
1612.42
1612.956
1613.407
1613.757
1614.011
1614.201
1614.376
1614.583
1614.855
1615.188
1615.544
1615.861
1616.077
1616.16
1616.122
1616.025
1615.956
1615.992
1616.173
1616.476
1616.834
1617.167
1617.435
1617.668
1617.975
1618.496
1619.331
1620.464
1621.72
1622.797
1623.351
1623.141
1622.152
1620.654
1619.144
1618.178
1618.115
1618.885
1619.9
1620.205
1618.909
1615.767
1611.655
1608.628
1609.374
1616.165
1629.744
1648.706
1669.79
1689.029
1703.243
1711.163
1713.681
1713.187
1712.412
1713.284
1716.163
1719.63
1720.98
1717.614
1709.14
1699.164
1695.096
1704.928
1732.245
1772.858
1816.19
1851.025
1871.421
1878.165
1875.263
1866.442
1857.499
1862.178
1898.611
1970.044
2051.465
2110.679
2149.637
2211.908
)
;
    }
    riser
    {
        type            calculated;
        value           nonuniform List<scalar> 
200
(
2669.202
2701.425
2733.58
2808.147
2921.449
3022.656
3072.807
3076.186
3059.987
3044.749
3038.796
3047.386
3076.537
3127.678
3192.081
3252.897
3294.106
3309.271
3303.678
3289.277
3277.126
3272.554
3274.892
3280.21
3284.476
3285.612
3284.211
3283.21
3286.748
3298.464
3319.752
3348.755
3380.722
3409.683
3430.693
3441.579
3443.386
3439.471
3433.828
3429.523
3427.872
3428.524
3430.178
3431.445
3431.477
3430.192
3428.128
3426.093
3424.802
3424.629
3425.533
3427.155
3429.001
3430.638
3431.829
3432.562
3432.993
3433.332
3433.736
3434.253
3434.823
3435.331
3435.677
3435.824
3435.818
3435.764
3435.778
3435.941
3436.266
3436.705
3437.174
3437.59
3437.906
3438.13
3438.318
3438.551
3438.908
3439.442
3440.167
3441.061
3442.075
3443.147
3444.212
3445.206
3446.063
3446.713
3447.076
3447.067
3446.603
3445.621
3444.093
3442.039
3439.535
3436.715
3433.756
3430.866
3428.261
3426.148
3424.703
3424.054
3424.274
3425.375
3427.303
3429.945
3433.134
3436.67
3440.33
3443.896
3447.175
3450.019
3452.332
3454.078
3455.268
3455.953
3456.207
3456.111
3455.743
3455.176
3454.477
3453.716
3452.965
3452.295
3451.764
3451.4
3451.187
3451.072
3450.973
3450.814
3450.561
3450.243
3449.959
3449.852
3450.055
3450.631
3451.547
3452.665
3453.784
3454.715
3455.345
3455.682
3455.836
3455.954
3456.126
3456.32
3456.375
3456.083
3455.32
3454.191
3453.089
3452.633
3453.476
3456.036
3460.259
3465.534
3470.829
3475.034
3477.434
3478.127
3478.174
3479.329
3483.321
3490.898
3501.037
3510.803
3516.136
3513.401
3501.08
3480.755
3456.77
3434.628
3418.846
3411.29
3410.754
3413.858
3416.748
3416.843
3414.06
3411.121
3412.697
3423.16
3443.39
3468.134
3486.26
3485.274
3458.471
3410.141
3354.489
3308.245
3282.128
3277.459
3289.637
3312.973
3338.709
3347.373
3312.298
3225.985
3122.837
3055.935
3035.664
3032.483
)
;
    }
    topAndBottom
    {
        type            calculated;
        value           nonuniform List<scalar> 
120
(
2885.744
2858.114
2830.655
2807.162
2790.374
2777.422
2764.092
2748.457
2731.696
2716.35
2704.235
2695.552
2689.294
2684.119
2678.972
2673.258
2666.789
2659.695
2652.355
2645.259
2638.811
2633.157
2628.158
2623.498
2618.851
2614.015
2608.947
2603.733
2598.512
2593.423
2588.572
2584.034
2579.852
2576.053
2572.644
2569.604
2566.863
2564.289
2561.702
2558.925
2555.849
2552.486
2548.963
2545.464
2542.159
2539.16
2536.472
2533.932
2531.134
2527.459
2522.343
2515.728
2508.342
2501.379
2495.547
2490.165
2483.471
2474.121
2464.342
2453.82
2641.704
2629.738
2617.635
2607.559
2601.276
2596.594
2590.845
2583.169
2574.752
2567.416
2562.231
2559.083
2557.124
2555.444
2553.455
2550.929
2547.879
2544.454
2540.888
2537.427
2534.244
2531.373
2528.704
2526.059
2523.282
2520.292
2517.091
2513.73
2510.273
2506.778
2503.296
2499.878
2496.581
2493.465
2490.573
2487.908
2485.401
2482.909
2480.234
2477.203
2473.74
2469.919
2465.942
2462.052
2458.441
2455.182
2452.19
2449.198
2445.729
2441.181
2435.108
2427.627
2419.616
2412.3
2406.284
2400.733
2393.758
2383.965
2373.244
2362.107
)
;
    }
    frontAndBack
    {
        type            empty;
    }
}


// ************************************************************************* //
