/*--------------------------------*- C++ -*----------------------------------*\
| =========                 |                                                 |
| \\      /  F ield         | OpenFOAM: The Open Source CFD Toolbox           |
|  \\    /   O peration     | Version:  2312                                  |
|   \\  /    A nd           | Website:  www.openfoam.com                      |
|    \\/     M anipulation  |                                                 |
\*---------------------------------------------------------------------------*/
FoamFile
{
    version     2.0;
    format      ascii;
    arch        "LSB;label=32;scalar=64";
    class       volScalarField;
    location    "2000";
    object      qr;
}
// * * * * * * * * * * * * * * * * * * * * * * * * * * * * * * * * * * * * * //

dimensions      [1 0 -3 0 0 0 0];

internalField   uniform 0;

boundaryField
{
    plate
    {
        type            calculated;
        value           nonuniform List<scalar> 
200
(
-1864.187
-1867.089
-1871.476
-1879.283
-1888.916
-1897.688
-1903.659
-1907.324
-1910.07
-1912.921
-1916.278
-1919.021
-1922.904
-1927.858
-1933.267
-1938.155
-1941.847
-1944.06
-1945.213
-1945.895
-1946.696
-1947.88
-1949.414
-1951.024
-1952.562
-1953.839
-1954.87
-1955.868
-1956.951
-1958.344
-1960.128
-1962.146
-1964.203
-1966.011
-1967.334
-1968.101
-1968.404
-1968.454
-1968.461
-1968.586
-1968.872
-1969.269
-1969.688
-1970.025
-1970.22
-1970.273
-1970.229
-1970.149
-1970.1
-1970.121
-1970.219
-1970.365
-1970.514
-1970.65
-1970.748
-1970.787
-1970.78
-1970.745
-1970.69
-1970.625
-1970.541
-1970.429
-1970.287
-1970.115
-1969.924
-1969.728
-1969.542
-1969.375
-1969.232
-1969.107
-1968.992
-1968.881
-1968.764
-1968.641
-1968.513
-1968.383
-1968.257
-1968.138
-1968.024
-1967.914
-1967.804
-1967.684
-1967.553
-1967.402
-1967.227
-1967.017
-1966.774
-1966.48
-1966.142
-1965.744
-1965.287
-1964.785
-1964.235
-1963.653
-1963.049
-1962.454
-1961.842
-1961.283
-1960.723
-1960.249
-1959.835
-1959.418
-1959.07
-1958.8
-1958.533
-1958.243
-1958.019
-1957.781
-1957.505
-1957.203
-1956.877
-1956.505
-1956.103
-1955.688
-1955.244
-1954.789
-1954.329
-1953.851
-1953.364
-1952.893
-1952.405
-1951.958
-1951.509
-1951.083
-1950.679
-1950.27
-1949.892
-1949.517
-1949.116
-1948.735
-1948.359
-1947.986
-1947.64
-1947.254
-1946.972
-1946.697
-1946.355
-1946.086
-1945.708
-1945.438
-1945.08
-1944.724
-1944.381
-1944.05
-1943.699
-1943.324
-1942.904
-1942.45
-1941.976
-1941.538
-1941.165
-1940.909
-1940.75
-1940.677
-1940.602
-1940.47
-1940.229
-1939.888
-1939.545
-1939.308
-1939.319
-1939.589
-1939.998
-1940.294
-1940.09
-1939.164
-1937.331
-1934.871
-1932.185
-1929.865
-1928.223
-1927.523
-1927.512
-1927.994
-1928.468
-1928.829
-1928.885
-1928.982
-1929.321
-1930.386
-1932.079
-1934.071
-1935.278
-1934.84
-1932.22
-1928.242
-1924.145
-1921.646
-1921.243
-1923.204
-1926.78
-1932
-1938.094
-1943.96
-1948.246
-1951.458
-1947.267
-1945.342
-1948.241
-1955.591
)
;
    }
    riser
    {
        type            calculated;
        value           nonuniform List<scalar> 
200
(
1362.591
1384.186
1403.36
1455.265
1536.27
1608.975
1644.855
1646.837
1634.787
1623.411
1618.946
1625.003
1646.139
1683.209
1729.989
1774.122
1804.041
1815.018
1810.94
1800.447
1791.601
1788.254
1789.932
1793.776
1796.854
1797.665
1796.631
1795.888
1798.443
1806.94
1822.391
1843.446
1866.657
1887.683
1902.94
1910.849
1912.169
1909.338
1905.251
1902.134
1900.942
1901.417
1902.622
1903.544
1903.572
1902.643
1901.151
1899.677
1898.745
1898.622
1899.283
1900.465
1901.809
1903.003
1903.875
1904.417
1904.74
1904.997
1905.303
1905.692
1906.122
1906.506
1906.774
1906.896
1906.909
1906.888
1906.917
1907.054
1907.309
1907.649
1908.009
1908.332
1908.582
1908.764
1908.92
1909.108
1909.387
1909.794
1910.341
1911.009
1911.766
1912.564
1913.358
1914.101
1914.735
1915.229
1915.51
1915.542
1915.227
1914.545
1913.464
1912.013
1910.219
1908.214
1906.093
1904.032
1902.171
1900.672
1899.647
1899.209
1899.389
1900.216
1901.635
1903.573
1905.901
1908.483
1911.149
1913.75
1916.135
1918.207
1919.887
1921.159
1922.022
1922.52
1922.7
1922.628
1922.353
1921.934
1921.412
1920.847
1920.284
1919.781
1919.374
1919.086
1918.905
1918.793
1918.687
1918.537
1918.315
1918.044
1917.791
1917.665
1917.761
1918.126
1918.733
1919.484
1920.233
1920.842
1921.229
1921.402
1921.437
1921.445
1921.488
1921.543
1921.498
1921.194
1920.545
1919.63
1918.73
1918.296
1918.801
1920.547
1923.495
1927.203
1930.92
1933.839
1935.443
1935.802
1935.686
1936.367
1939.102
1944.434
1951.62
1958.532
1962.221
1960.066
1950.964
1936.048
1918.478
1902.248
1890.628
1884.983
1884.435
1886.526
1888.465
1888.374
1886.188
1883.888
1884.853
1892.263
1906.749
1924.501
1937.451
1936.54
1916.919
1881.694
1841.177
1807.524
1788.553
1785.258
1794.348
1811.719
1831.094
1838.355
1814.396
1753.663
1680.138
1631.347
1616.39
1614.144
)
;
    }
    topAndBottom
    {
        type            calculated;
        value           nonuniform List<scalar> 
120
(
-144.37
-45.80549
-4.83647
14.70703
30.1815
41.48435
48.52269
50.42461
48.80726
46.97209
47.35247
49.5698
52.23853
55.30166
58.90826
61.43791
61.46197
60.45283
60.49401
60.72237
59.55266
58.23127
58.63694
59.88172
60.0323
59.13112
58.0954
57.29481
56.39298
55.28652
54.19925
53.32645
52.75844
52.51229
52.57215
52.90626
53.45467
54.10737
54.70204
55.07287
55.12611
54.88165
54.45563
54.00753
53.6944
53.62564
53.81491
54.11289
54.1517
53.3778
51.29723
47.86794
43.75012
40.02235
37.34037
35.13542
32.07473
29.07489
43.40582
189.8292
350.4593
473.2623
478.8931
474.0168
471.0223
469.2215
466.3625
461.7142
456.3729
451.9833
449.5211
448.8908
449.3359
450.0427
450.495
450.4911
450.0325
449.2523
448.376
447.6379
447.1776
447.0082
447.0464
447.1501
447.1652
447.0008
446.6683
446.2326
445.7495
445.2606
444.8205
444.4973
444.3506
444.3797
444.5634
444.8561
445.2362
445.7818
446.7763
447.5321
447.2062
445.8884
445.1577
446.3716
448.4334
448.9993
449.6834
452.9848
457.1889
459.0986
459.8649
462.0989
465.827
470.7218
478.7861
491.1244
505.7932
527.2103
560.2239
622.9433
)
;
    }
    frontAndBack
    {
        type            empty;
    }
}


// ************************************************************************* //
