/*--------------------------------*- C++ -*----------------------------------*\
| =========                 |                                                 |
| \\      /  F ield         | OpenFOAM: The Open Source CFD Toolbox           |
|  \\    /   O peration     | Version:  2312                                  |
|   \\  /    A nd           | Website:  www.openfoam.com                      |
|    \\/     M anipulation  |                                                 |
\*---------------------------------------------------------------------------*/
FoamFile
{
    version     2.0;
    format      ascii;
    arch        "LSB;label=32;scalar=64";
    class       volScalarField;
    location    "5700";
    object      G;
}
// * * * * * * * * * * * * * * * * * * * * * * * * * * * * * * * * * * * * * //

dimensions      [1 0 -3 0 0 0 0];

internalField   nonuniform List<scalar> 
12000
(
26917.95
24032.86
22745.3
21787.01
20780.31
19762.1
18891.73
18255.79
17834.85
17556.29
17358.02
17232.39
17227.66
17394.93
17715.74
18076.03
18317.42
18328.49
18104.36
17731.91
17318.63
16922.94
16534.58
16109.85
15626.28
15114.7
14650.17
14314.44
14157.05
14176.5
14325.34
14529.79
14711.59
14804.95
14767.65
14587.47
14284.16
13905.25
13514.79
13177.32
12942.31
12834.63
12853.67
12979.14
13180.03
13423.32
13680.04
13928.24
14152.33
14340.46
14484.34
14581.81
14639.05
14667.61
14678.26
14674.25
14651.4
14595.21
14526.18
14339.92
29414.46
27570.62
26046.63
24617.33
23173.42
21904.09
20963.51
20317.72
19839.33
19423.62
19047.31
18771.77
18686.8
18820.03
19082.51
19303.5
19330.56
19115.01
18720.11
18254.99
17793.04
17335.34
16837.09
16266.19
15645.96
15054.13
14584.89
14303.07
14217.34
14281.86
14418.08
14541.88
14584.88
14506.69
14299.49
13987.02
13618.33
13256.2
12962
12781.25
12734.74
12817.99
13007.58
13270.39
13571.42
13878.49
14164.35
14407.98
14595.59
14720.92
14784.41
14791.86
14753.92
14685.31
14601.73
14513.3
14419.9
14306.54
14189.7
13969.94
29819.46
28664.79
27197.41
25770.5
24486.59
23390.01
22489.89
21741.15
21084.1
20493.82
20013.23
19735.06
19723.07
19930.81
20195.76
20323.94
20199.2
19834.12
19332.45
18802.38
18289.6
17772.53
17210.21
16597.83
15988.27
15469.59
15119.58
14968.3
14987.58
15106.83
15241.12
15316.82
15287.01
15136.65
14880.94
14559.37
14226.35
13938.93
13743.79
13667.19
13711.24
13857.41
14074.71
14328.55
14586.89
14822.74
15014.71
15147.63
15214.15
15215.89
15162.05
15065.53
14939.52
14796.48
14648.36
14504.22
14366.32
14221.93
14082.6
13845.17
29841.45
29040.49
27502.07
26016.02
24966.26
24168.74
23378.92
22535.71
21707.67
21004.87
20544.21
20403.86
20553.37
20828.38
20998.52
20889.75
20471.12
19846.45
19167.2
18536.61
17969.87
17424.64
16865.22
16308.49
15822.86
15489.03
15354.17
15407.73
15587.63
15806.86
15983.12
16059.38
16011.87
15848.84
15604.24
15328.57
15077.63
14900.24
14827.61
14867.59
15005.68
15211.84
15449.88
15685.65
15891.54
16047.19
16138.46
16157.21
16102.75
15983.39
15815.08
15616.38
15402.92
15184.99
14969.01
14758.75
14556.52
14352.13
14170.69
13868
29691.58
29070.15
27536.56
25980.64
24958.25
24276.31
23594.41
22800.47
21989.22
21333.63
20981.57
20968.92
21174.88
21367.15
21324.14
20952.51
20319.15
19583.74
18889.35
18289.5
17751.9
17219.54
16675.25
16164.38
15768.1
15553.63
15536.31
15672.99
15883.44
16082.34
16205.07
16219.76
16127.33
15954.9
15746.66
15553.55
15422.24
15384.94
15452.77
15614.87
15843.3
16101.52
16353.04
16567.64
16723.94
16808.96
16816.36
16745.59
16602.7
16401.5
16162.34
15907.18
15652.96
15407.65
15171.43
14940.95
14717.22
14496.08
14315.78
14022.88
29499.4
28862.76
27481.5
25918.52
24641.38
23751.2
23111.12
22547.42
22006.45
21570.02
21343.52
21329.07
21392.14
21341.36
21051.86
20537.09
19921.98
19346.28
18874.06
18470.75
18052.67
17563.13
17018.61
16499.13
16098.14
15870.2
15807.26
15850.15
15920.55
15952.26
15908.62
15784.76
15601.07
15393.94
15206.86
15081.39
15048.31
15120.59
15290.73
15533.55
15813.35
16092.3
16337.27
16523.79
16637.02
16670.84
16626.22
16509.86
16333.8
16115.16
15874.92
15634.16
15408.46
15203.31
15014.63
14834.56
14662.87
14502.95
14389.29
14221.99
29323.23
28450.9
27209.81
25636.16
24025.43
22834.58
22187.28
21866.43
21656.43
21510.55
21455.03
21449.95
21371.42
21102.74
20629.32
20052.9
19518.33
19113.72
18818.59
18531.95
18152.14
17647.93
17075.62
16539.6
16130.39
15880.8
15760.92
15704.61
15645.27
15540.39
15378.33
15172.2
14949.98
14746.22
14595.74
14527.4
14557.8
14686.75
14896.96
15158.41
15435.57
15694.48
15907.55
16055.77
16129.12
16126.08
16052.7
15921.2
15747.91
15551.17
15349.47
15159.37
14992.37
14851.67
14732.39
14627.41
14537.57
14471.46
14447.5
14439.9
28930.64
27425.72
26100
24527.86
22864.75
21595.02
20901.36
20640.86
20631.33
20777.76
21001.44
21165.3
21109.93
20754.57
20157.03
19476.67
18870.16
18399.39
18014.16
17612.12
17124.35
16565.58
16021.83
15594.14
15341.08
15254.51
15274.61
15326.03
15350.32
15319.99
15235.2
15112.9
14977.52
14855.93
14774.38
14754.39
14807.64
14932.19
15112.36
15322.68
15533.94
15718.68
15854.78
15927.21
15928.86
15861.1
15733.64
15562.94
15368.75
15170.09
14982.37
14816.5
14678.75
14570.18
14487.41
14426.92
14391.36
14388.29
14419.85
14498.22
27486.63
25278.54
24004.23
22833.53
21635.45
20530.41
19709.09
19323.56
19402.01
19824.34
20356.6
20731.49
20754.44
20384.18
19734.53
18991.73
18302.52
17707.81
17159.43
16594.78
16007.48
15465.08
15069.85
14897.58
14956.81
15189.44
15503.57
15813.15
16062.4
16228.99
16314.02
16330.55
16297.3
16236.85
16173.99
16131.61
16124.93
16157.06
16218.5
16290.34
16349.59
16374.18
16346.48
16255.55
16098.62
15882.09
15621.41
15338.58
15057.51
14798.48
14574.46
14390.77
14247.64
14143.03
14074.44
14040.03
14039.91
14072.79
14124.46
14213.19
11225.14
14687.85
16318.48
17171.93
17453.54
17171.28
16710.95
16587.63
17030.19
17881.44
18779.35
19394.29
19573.28
19358.53
18911.23
18397.2
17899.52
17404.62
16859.69
16251.34
15646.2
15168.19
14934.46
14996.05
15318.39
15805.59
16345.5
16847.55
17258.03
17555.47
17738.62
17817.64
17810.89
17744.06
17646.95
17547.15
17462.82
17398.22
17343.8
17280.42
17185.5
17038.86
16826.99
16545.55
16200.6
15808.62
15394.74
14988.72
14619
14306.56
14061.07
13881.24
13759.7
13689.33
13666.42
13687.81
13746.01
13825.51
13898.03
13985.46
10781.52
13451.97
14879.7
15697.54
15997.43
15806.44
15467.83
15451.62
15964.99
16824
17651.41
18155.74
18269.73
18109.74
17842.51
17564.36
17258.98
16844.1
16263.31
15555.69
14857.08
14337.71
14121.5
14236.68
14619.2
15155.04
15729.59
16258.45
16693.64
17015.12
17220.83
17321.72
17340.38
17308.18
17258.58
17218.04
17198.49
17194.58
17186.46
17146.53
17047.59
16869.8
16605.13
16259.03
15849.89
15406.65
14964.59
14559.51
14221.12
13967.37
13801.59
13714.19
13689.3
13713.69
13781.16
13886.77
14016.31
14142.03
14236.93
14317.62
25462.64
21115.55
19515.42
18602.21
17754.78
16977.9
16423.39
16261.18
16520
17001.1
17403.38
17533.23
17401.91
17156.9
16935.32
16758.76
16533.69
16140.52
15538.09
14809.74
14126.01
13657.28
13495.84
13629.67
13970.13
14404.21
14837.54
15211.39
15498.31
15691.17
15796.37
15832.33
15828.26
15818.7
15833.98
15890.53
15985.55
16097.93
16194.79
16240.73
16207.01
16078.25
15855.4
15555.25
15207.07
14847.58
14514.91
14242.3
14052.33
13953.15
13937.86
13988.09
14081.37
14199.83
14334.37
14478.6
14617.93
14722.64
14787.69
14784.51
10185.91
11599.38
12654.36
13370.09
13628.02
13661.66
13773.6
14108.43
14624.66
15156.35
15523.75
15647.68
15591.17
15494.61
15458
15467.2
15420.44
15226.13
14889.3
14521.54
14275.04
14254.8
14468.64
14837.86
15248.43
15603.87
15851.54
15979.74
16000.84
15937.07
15815.63
15668.9
15532.83
15440.26
15411.65
15448.35
15531.83
15629.33
15703.17
15720.58
15661.41
15522.05
15315.49
15067.74
14812.06
14582.33
14407.12
14305.03
14281.94
14330.44
14432.21
14563.06
14699.28
14822.76
14922.58
14991.11
15020.8
14992.97
14938.21
14731
8978.107
10028.39
11079.03
12091.12
12824.41
13274.41
13630.07
13989.54
14318.18
14553.72
14668.47
14677.63
14632.59
14592.9
14579.33
14553.62
14459.12
14292.39
14138.08
14130.94
14372.9
14867.79
15516.64
16169.21
16691.86
17011.39
17119.87
17052.25
16859.45
16592.25
16297.22
16017.16
15788.92
15637.18
15568.16
15567.82
15606.46
15648.04
15660.39
15623.11
15531.42
15395.98
15239.34
15090.14
14976.21
14918.22
14925.54
14995.06
15112.58
15256.14
15400.8
15523.7
15607.44
15639.75
15611.66
15517.04
15360.45
15141.13
14927.51
14483.15
8609.253
9140.548
9825.428
10698.66
11713.55
12686.89
13440.21
13845.18
13886.49
13694.4
13465.8
13346.58
13375.45
13496.62
13604.27
13602.53
13469.46
13290.25
13225.73
13425.93
13943.08
14700.59
15532.41
16261.16
16765.42
17005.37
17007.77
16833.15
16548.24
16213.37
15880.71
15594.36
15387.03
15274.27
15250.88
15293.16
15367.13
15439.47
15486.97
15501.35
15489.2
15468.18
15461.41
15491.1
15572.46
15709.06
15891.01
16097.09
16299.85
16471.98
16591.9
16646.89
16632.07
16545.56
16384.54
16148.16
15851.53
15508.32
15206.39
14666.48
8526.149
8825.84
9275.753
9961.701
11073.25
12434.18
13566.55
14068.16
13878.57
13267.34
12632.06
12277.58
12295.75
12574.15
12901.37
13105.5
13152.43
13152.48
13278.29
13651.9
14272.91
15024.43
15739.72
16279.58
16576.91
16636.3
16505.4
16244.21
15908.41
15546.88
15204.53
14922.04
14730.3
14643.35
14655.03
14742.19
14873.66
15020.73
15165.11
15301.65
15436.22
15580.8
15748.02
15946.5
16177.04
16430.09
16685.63
16916.79
17096.52
17205.08
17234.64
17188.8
17077.26
16908.63
16687.06
16416.84
16114.43
15798.08
15538.16
15133.29
8506.61
8641.869
8971.517
9622.506
10803.33
12331.53
13630.83
14191.71
13912.7
13086.21
12179.76
11592.5
11488.42
11770.59
12201.62
12583.27
12870.97
13158.98
13573.1
14163
14866
15549.22
16084.94
16405.19
16510.57
16443.64
16255.08
15984.54
15660.72
15311.14
14969.48
14674.12
14459.6
14346.98
14338.87
14421.32
14571.19
14764.92
14984.9
15221.37
15470.41
15730.15
15997.39
16265.7
16524.52
16758.8
16949.62
17077.22
17126.93
17095.43
16993.1
16839.79
16656.38
16457.67
16251.25
16042.32
15839.55
15656.69
15519.51
15376.05
8520.954
8528.37
8797.741
9556.98
10857.67
12382.92
13593.87
14087.89
13808.42
13014.99
12125.09
11513.12
11341.83
11526.82
11860.91
12193.24
12519.95
12936.7
13521.21
14251.64
15013.39
15669.53
16132.04
16388.13
16478.39
16455.48
16354.39
16187.85
15960.15
15683.63
15386.02
15105.97
14881.66
14739.84
14690.54
14728.42
14838.6
15003.46
15207.24
15437.34
15682.95
15932.55
16172.54
16387.49
16561.65
16680.5
16731.94
16708.22
16609.44
16447.06
16243.79
16027.22
15820.84
15638.76
15487.06
15368.26
15281.75
15233.09
15206.36
15269.51
8543.337
8476.712
8760.094
9685.813
11079.31
12466.62
13435.5
13799.66
13591.01
13016.3
12381.69
11950.96
11812.01
11871.2
11982.85
12091.75
12267.74
12623.67
13205.79
13948.72
14716.4
15381.68
15882.18
16223.27
16443.17
16574.53
16627.64
16598.08
16484.97
16304.22
16088.8
15878.65
15707.62
15594.78
15542.95
15543.22
15581.69
15645.24
15724.4
15813.19
15906.94
15999.6
16081.97
16142.03
16167.17
16147.09
16076.19
15954.96
15791.02
15599.55
15401.54
15218.47
15066.05
14951.84
14877.92
14844.17
14845.55
14880.85
14913.71
15058.19
8553.522
8494.83
8905.774
9972.134
11308.06
12433.64
13153
13478.06
13474.98
13251.54
12960.24
12721.14
12550.86
12394.29
12225.08
12107.46
12163.22
12482.2
13056.39
13784.91
14534.78
15205.64
15756.63
16190.91
16522.76
16755.76
16883.31
16903.8
16834.42
16712.64
16584.65
16488.66
16442.31
16439.94
16459.16
16472.03
16455.33
16396.62
16295.37
16160.52
16006.06
15845.99
15690.04
15541.69
15399.12
15258.71
15118.9
14982.12
14854.16
14742.15
14652.59
14589.92
14555.86
14550.16
14572.29
14621.85
14693.81
14783.94
14852.15
15019.77
8547.544
8607.391
9249.852
10355.95
11448.21
12263.03
12848.35
13302.92
13637.23
13820.07
13828.43
13645.54
13275.92
12792.59
12351.76
12135.57
12260.82
12722.86
13410.42
14172.1
14885.98
15492.32
15982.62
16366.71
16647.09
16815.82
16869.56
16826.62
16731.68
16643.97
16615.59
16671.62
16801.66
16965.58
17109.1
17181.55
17149.07
17000.16
16744.6
16408.25
16025.95
15634.02
15263.39
14934.93
14658.8
14437.72
14272.1
14162.93
14110.45
14110.4
14152.48
14223.49
14312.88
14416.07
14533.16
14665.22
14807.85
14957.78
15074.42
15298.49
8544.049
8852.453
9749.926
10760.57
11537.03
12140.44
12749.69
13421.71
14087.52
14608.96
14817.86
14593.08
13971.1
13186.28
12573.71
12395.37
12716.08
13404.17
14232.61
14999.52
15597.78
16013.99
16283.3
16442.49
16509.5
16491.75
16406.68
16295.11
16216.66
16229.91
16368.53
16626.01
16956.1
17287.55
17545.92
17673.12
17638.68
17441.56
17105.02
16668.39
16178.47
15681.65
15217.03
14811.89
14480.66
14228.31
14055.83
13963.65
13950
14006.06
14114.09
14252.88
14407.23
14572.69
14751.57
14945.77
15150.01
15364.74
15545.89
15873.84
8590.283
9269.123
10354
11210.45
11798.86
12376.09
13074.6
13885.74
14737.47
15461.67
15798.58
15556.48
14801.09
13875.24
13213.2
13098.29
13537.54
14311.31
15128.02
15769.25
16151.25
16300.81
16291.72
16192.51
16048.93
15894.67
15768.7
15720.87
15800.81
16037.43
16422.05
16904.85
17406.96
17842.38
18140.28
18259.75
18193.55
17962.56
17605.45
17168.05
16695.23
16225.57
15788.37
15402.43
15077.07
14815.65
14620.22
14494.18
14440.34
14455.58
14527.86
14640.36
14780.65
14945.81
15137.98
15357.08
15595.33
15857.02
16093.27
16515.92
8748.054
9911.33
11131.44
11948.5
12566.89
13191.18
13872.19
14652.01
15534.81
16345.3
16762.84
16563.13
15829.99
14934.16
14307.52
14200.4
14584.02
15225.03
15845.95
16259.36
16413.91
16360.67
16189.35
15981.23
15795.61
15678.97
15675.47
15824.95
16148.86
16634.38
17228.77
17848.9
18402.57
18812.44
19033.23
19057.16
18908.11
18628.9
18267.46
17866.1
17456.02
17056.67
16678.25
16325.36
16000.56
15707.3
15451.92
15243.99
15094.12
15009.56
14990.48
15030.54
15122.11
15260.82
15443.84
15666.15
15916.92
16201.31
16466.07
16925.25
9286.097
11227.1
12656.34
13591.55
14277.48
14798.2
15275.96
15902.97
16725
17517.49
17936.33
17792.24
17195.33
16473.79
15964.66
15837.37
16046.8
16409.22
16727.36
16884.31
16867.23
16733.54
16560.35
16411.86
16333.63
16361.31
16525.62
16845.46
17313.95
17888.74
18495.97
19047.79
19466.12
19702.24
19745.14
19617.56
19363.51
19032.97
18668.99
18300.09
17938.92
17586.03
17236.68
16887.65
16541.57
16207.57
15899.18
15631.53
15419.28
15274.96
15206.5
15214.72
15293.19
15431.59
15619.19
15846.64
16102.58
16389.56
16653.67
17079.51
11008.73
13740.84
15166.1
15986.69
16429.23
16618.02
16826.44
17297.65
17997.61
18645.04
18959.6
18861.78
18481.98
18036.51
17695.62
17519.07
17466.02
17449.92
17398.83
17289.55
17145.04
17008.07
16915.3
16887.9
16937.93
17077.44
17318.51
17662.65
18088
18545.28
18967.27
19288.11
19462.58
19477.1
19348.79
19115.38
18821.43
18505.93
18194.55
17897.2
17610.64
17324.69
17030.2
16725.7
16420.08
16129.86
15873.28
15664.91
15514.62
15429.66
15415.56
15472.66
15591.84
15756.25
15949.74
16164.13
16394.19
16639.96
16859.06
17171.29
27985.72
25233.25
23815.06
22849.64
21910.1
21069.52
20591.05
20555.84
20755.78
20897.88
20838.99
20620.32
20343.88
20059.6
19749.51
19377.07
18935.78
18462.96
18022.17
17673.31
17448.25
17343.05
17328.29
17369.96
17447.81
17560.55
17715.95
17913.68
18133.12
18334.13
18470.25
18506.36
18431.09
18258.77
18021.65
17757.61
17499.08
17266.32
17065.84
16892.6
16734.79
16580.02
16421.48
16262.09
16114.34
15995.17
15918.28
15888.65
15903.19
15956.24
16044.04
16162.62
16301.71
16444.3
16576.37
16697
16813.53
16928.1
17026.59
17125.08
29689.38
27738.8
26280.99
25127.59
23959.65
22942.03
22344.83
22133.77
22039.58
21871.2
21654.23
21506.58
21457.94
21400.9
21180.88
20717.83
20063.34
19368.34
18798.31
18453.62
18336.44
18371.4
18457.63
18518.91
18527.68
18497.51
18456.22
18419
18376.47
18301.17
18164.98
17955.72
17684.13
17379.47
17078.25
16812.48
16602.25
16454.04
16363.22
16318.57
16306.96
16317.75
16345.96
16393.39
16466.49
16571.02
16706.02
16860.79
17017.47
17158.14
17271.11
17351.13
17394.03
17393.45
17346.18
17260.44
17155.84
17041.03
16940.76
16743.67
30209.08
29041.3
27711.4
26558.2
25523.25
24691.88
24135.78
23709.76
23233.31
22723.91
22361.57
22276.11
22404.87
22527.52
22414.94
21971.88
21286.07
20566.93
20022.84
19755.3
19726.89
19807.48
19857.34
19794.5
19614.64
19366.07
19105.72
18864.85
18640.01
18406.59
18141.2
17838.44
17514.75
17201.04
16930.51
16728.38
16607.31
16568.16
16603.79
16703.43
16855.98
17051.94
17283.95
17545.81
17829.91
18124.19
18409.95
18662.67
18855.92
18967.47
18984.85
18907.56
18744.47
18508.1
18211.59
17870.12
17507.9
17138.18
16824.48
16340.16
30340.06
29642.14
28319.85
27029.97
26196.08
25784.3
25438.62
24829.54
23947.57
23082.08
22559.89
22509.96
22805.4
23160.31
23292.01
23061.67
22526.11
21878.74
21322.42
20957.24
20748.06
20576.42
20328.74
19960.82
19507.23
19044.44
18640.78
18324.5
18082.11
17878.78
17683.65
17485.75
17295.76
17137.52
17036.4
17010.72
17068.51
17208.73
17424.66
17707.07
18045.99
18430.85
18849.25
19285.11
19717.17
20118.93
20460.84
20713.97
20853.85
20863.44
20736.15
20479.16
20114.24
19671.78
19179.99
18657.41
18123.15
17586.2
17138.28
16484.76
30344.66
29957.69
28670.83
27240.66
26520.97
26425.28
26234
25475.85
24297.28
23190.45
22574.32
22582.28
23067.46
23715.56
24194.3
24291.4
23982.62
23396.61
22707.65
22032.4
21392.52
20749.13
20067.34
19360.04
18686.76
18118.92
17701.47
17435.08
17284.61
17202.77
17152.89
17120.32
17111.1
17142.74
17233.81
17396.77
17635.49
17946.26
18320.63
18747.92
19216.46
19713.01
20220.88
20718.17
21177.58
21569.01
21864.2
22041.18
22086.19
21993.1
21763.4
21409.5
20958.2
20446.7
19908.99
19362.06
18813.86
18260.12
17801.97
17130.08
30280.74
30011.95
28868.41
27541.33
26865.31
26694.41
26319.7
25393.7
24174.46
23160.33
22707.82
22895.31
23556.91
24380.07
25030.43
25273.1
25038.05
24401.62
23510.1
22502.22
21472.21
20476.83
19560.37
18769.41
18146.79
17714.14
17459.89
17342.95
17309.66
17313.89
17330.16
17355.95
17405.15
17497.96
17651.88
17876.24
18170.69
18526.74
18930.92
19367.95
19822.56
20279.27
20720.6
21125.58
21470.58
21733.02
21896.08
21951.7
21899.79
21745.05
21495.08
21162.51
20768.82
20342.85
19910.5
19481.13
19051.74
18602.7
18225.32
17621.42
30173.99
29832.29
28948.04
28014.41
27309.66
26615.43
25686.71
24598.57
23653.34
23130.8
23145.36
23629.09
24374.48
25107.78
25578.75
25632.86
25235.34
24449.67
23397.25
22221.92
21065.47
20049.69
19260.27
18734.27
18456.4
18368.21
18388.72
18439.41
18464.47
18440.28
18373.2
18289.45
18222.48
18202.21
18248.28
18367.36
18553.87
18793.13
19065.83
19352.5
19636.27
19903.08
20139.99
20333.62
20471.12
20543.32
20548.03
20490.56
20380.82
20229.45
20045.52
19836.94
19612.09
19380
19147.31
18911.46
18663.83
18375.18
18114.64
17598.18
30027.78
29495.18
28947.98
28459.74
27555.26
26112.15
24580.6
23478.87
23022.43
23150.21
23682.16
24403.15
25092.2
25562.13
25700.84
25476.14
24907.8
24044.84
22969.09
21807.5
20722.93
19873.51
19359.78
19190.27
19284.36
19508.85
19728.04
19844.65
19818.25
19660.67
19417.18
19144.39
18892.79
18697
18573.04
18520.15
18525.06
18567.38
18625.27
18680.34
18720.32
18738.83
18733.09
18701.83
18645.28
18567.07
18475.62
18382.97
18301.47
18240.7
18205.82
18196.24
18204.32
18216.39
18217.82
18195.65
18142.31
18028.02
17896.87
17491
29815.42
29057.26
28782.23
28444.67
27178.26
25198.97
23437.68
22547.33
22558.28
23147.78
23958.84
24720.58
25259.65
25502.23
25457.81
25165.11
24638.88
23870.46
22880.79
21771.54
20721.41
19922.14
19495.29
19441.4
19647.84
19944.41
20172.54
20235.11
20111.25
19840.48
19491.92
19134.59
18818.42
18567.7
18383.91
18252.82
18152.52
18060.35
17958.23
17836.01
17692.3
17532.82
17367.23
17206.31
17060.77
16941.63
16860.37
16827.84
16852.25
16937.55
17082.26
17276.8
17500.72
17724.64
17920.8
18072.41
18177.41
18212.97
18206.58
17948.84
29321.55
28162.59
27882.78
27334.17
25847.83
23926.67
22445.38
21871.05
22124.67
22842.66
23645.49
24272.15
24620.01
24723.8
24675.59
24523.28
24221.18
23672.64
22828.35
21760.51
20656.52
19738
19159.67
18948.07
19007.65
19179.7
19315.72
19328.66
19206
18990.43
18746.04
18528.05
18365.95
18261.51
18196.48
18143.9
18078.04
17980.86
17844.72
17672.32
17474.58
17267.58
17069.34
16897.15
16765.75
16686.59
16667.66
16713.88
16827.48
17007.72
17249.04
17537.78
17849.73
18153.35
18420.7
18637.53
18806.75
18916.83
18991.99
18883.14
27832.14
26363.13
26098.11
25500.63
24337.87
23044.63
22091.11
21735.42
21968.81
22554.63
23162.57
23550.15
23676.8
23670.81
23683.94
23752.48
23764.35
23542.05
22969.42
22074.22
21020.93
20030.07
19278.76
18837.07
18664.31
18654.01
18694.78
18715.32
18698.11
18665.32
18651.77
18680.93
18753.37
18848.64
18935.6
18984.59
18976.38
18905.73
18779.96
18614.62
18428.74
18241.43
18070.17
17929.86
17831.59
17781.44
17780.58
17827.54
17920.93
18059.77
18240.38
18452.47
18678.38
18896.94
19090.2
19248.67
19375.84
19472.02
19562.07
19558.48
12161.65
16623.66
19032.99
20032.3
20391.71
20470.9
20439.8
20503.11
20822.05
21345.51
21842.99
22124.57
22205.83
22266.71
22475.3
22845.99
23229.91
23414.97
23249.44
22714.48
21920.2
21044.88
20258.34
19666.69
19296.4
19113.77
19061.06
19088.41
19168.52
19293.06
19459.18
19656.6
19862.54
20045.67
20175.59
20232.28
20211.58
20124.65
19992.52
19838.58
19682.54
19537.98
19413.34
19313.66
19240.98
19193.54
19166.09
19153.19
19153.1
19168.13
19200.46
19247.81
19304.04
19362.82
19419.21
19468.69
19512.13
19557.55
19623.45
19681.66
12226.9
16547.52
18663.15
19533.55
20125.67
20626.7
20895.74
20966.95
21027.63
21162.03
21289.78
21325.66
21314.24
21394.38
21666.68
22104.94
22570
22888.7
22933.11
22662.01
22120.9
21414.62
20669.27
19996.93
19472.6
19127.39
18956.13
18932.09
19020.78
19187.59
19399.4
19623.74
19829.12
19988.29
20083.17
20109.14
20076.06
20004.84
19920.41
19843.82
19787.01
19752.21
19735.28
19729.76
19729
19725.9
19713.1
19685.3
19642.61
19590.63
19536.45
19484.77
19438.46
19401.52
19378.22
19369.27
19373.85
19400.04
19451.72
19553.61
27788.81
25953.78
24926.32
24038.24
23508.64
23322.39
23177.83
22888.46
22478.91
22038.48
21627.23
21291.65
21086.51
21051.1
21176.94
21407.26
21663.33
21869.34
21962.22
21894.06
21639
21205.02
20640.44
20025.61
19450.2
18986.64
18672.05
18504.98
18455.13
18479.02
18534.02
18587.21
18618.33
18619.22
18591.82
18546.01
18497.12
18462.31
18455.9
18484.87
18546.73
18631
18723.58
18811.5
18885.53
18940.22
18972.73
18982.56
18972.32
18947.81
18916.3
18884.25
18857
18840.13
18839.53
18859.02
18897.21
18955.72
19017.08
19149.7
29158.06
27303.31
25973.21
25103.4
24432.83
23920.76
23548.71
23186.22
22689.82
22047.25
21390.83
20881.6
20590.1
20475.48
20455.37
20484.98
20578.99
20772.61
21065.2
21392.97
21648.27
21729.34
21587.7
21246.58
20783.92
20293.54
19846.94
19472.96
19160.61
18877.81
18593.69
18293.75
17983.51
17682.82
17416.37
17205.44
17063.06
16992.64
16988.38
17036.86
17119.53
17216.1
17308.53
17384.56
17439.6
17476.2
17501.04
17521.02
17540.69
17562.49
17588.74
17622.56
17666.61
17722.16
17790.42
17873.45
17967.89
18067.67
18133.72
18261.01
29392.9
27514.63
26079.94
25445.84
24942.85
24351.04
23833.54
23374.79
22776.3
21978.03
21158.78
20540.58
20183.91
19982.76
19811.67
19654.33
19611.41
19809.23
20295.33
20991.77
21724.69
22301.55
22589.03
22553.71
22253.42
21792.86
21271.29
20747.5
20233.9
19714.51
19171.87
18606.96
18044.27
17523.37
17084.2
16754.17
16541.58
16436.07
16413.94
16445.3
16500.67
16555.56
16593.23
16606.14
16596.5
16575.11
16557.05
16555.06
16574.21
16612.16
16664.56
16729.7
16807.55
16896.44
16993.17
17095.62
17197.78
17289.79
17327.61
17400.11
28978.61
26645.78
24889.44
24145.07
23893.78
23714.09
23466.75
23020.27
22250.24
21236.28
20261.86
19579.76
19220.07
19025.39
18835.54
18633.09
18545.68
18736.36
19279.5
20101.3
21007.3
21767.85
22210.37
22274.36
22011.2
21539.27
20983.49
20429.06
19906.57
19406.56
18908.38
18405.13
17913.65
17468.57
17107.54
16856.29
16720.16
16684.07
16719.12
16791.86
16872.39
16938.9
16978.83
16988.57
16973.06
16944.77
16919.9
16911.49
16923.3
16949.58
16981.82
17016.14
17054.23
17098.36
17147.53
17198.01
17242.28
17272.56
17262.18
17273.25
27425.8
24625.33
22789.16
21932.41
21996.34
22488.94
22793.73
22524.94
21658.16
20469.05
19340.69
18542.18
18117.39
17941.48
17871.1
17863.12
17988.36
18354.29
19004.03
19859.03
20735
21415.38
21738.81
21656.6
21237.38
20624.54
19972.87
19395.34
18939.7
18597.11
18330.14
18102.44
17896.97
17718.54
17584.55
17511.73
17505.98
17559.12
17652.45
17763.8
17873.83
17969.15
18042.19
18090.03
18113.98
18119.68
18115.59
18108.8
18100.26
18083.95
18052.23
18003.72
17946.52
17893.05
17850.78
17817.93
17786.09
17754.5
17716.66
17732.51
12087.97
14444.11
15243.02
15797.92
16964.57
18524.17
19723.95
20075.97
19626.5
18733.83
17771.81
16989.04
16499.8
16321.13
16419.56
16757.15
17317.21
18091.24
19037.12
20044.93
20943.28
21549.85
21739.56
21493.37
20903.75
20137.22
19374.43
18755.06
18347.46
18148.66
18107.31
18155.25
18234.2
18309.65
18371.21
18423.93
18477.45
18538.39
18608.09
18684.26
18763.66
18843.17
18919.18
18986.65
19039.41
19071.71
19079.74
19061.58
19015.55
18938.87
18829.72
18692.76
18543.32
18403.14
18287.9
18199.01
18128.05
18084.11
18063.97
18169.81
10634.38
12359.94
13357.95
14044.1
15198.13
16765.79
18091.89
18708.42
18632.21
18119.08
17393.23
16612.54
15938.08
15536.77
15519.26
15901.03
16620.87
17579.71
18659.48
19721.53
20610.42
21180.73
21339.53
21081.03
20493.19
19731.89
18973.87
18367.58
17998.84
17880.16
17963.18
18166.09
18404.23
18613.46
18760.35
18839.92
18865.81
18859.18
18840.72
18826.71
18827.83
18848.91
18888.8
18940.5
18992.14
19029.34
19038.8
19011.74
18945.55
18842.6
18708.54
18553.22
18393.29
18250.05
18139.47
18065.22
18022.35
18029.27
18068.8
18302.39
10264.45
11311.6
12390.06
13206.11
14095.05
15180.6
16219.05
16965.66
17362.18
17428.19
17162.78
16604.1
15913.08
15339.61
15099.86
15282.58
15845.36
16670.49
17620.79
18566.19
19388.82
19987.25
20290.16
20274.8
19978.41
19493.83
18947.55
18466.57
18145.18
18022.72
18080.02
18254.29
18465.26
18641.73
18739.06
18743.9
18668.17
18538.07
18383.23
18229.32
18094.59
17989.22
17916.1
17871.75
17847.26
17829.84
17806.03
17766.54
17709.95
17642.41
17573.43
17511.7
17464.34
17437.95
17437.46
17466.29
17525.99
17639.56
17766.82
18114.82
10237.44
10868.84
12122.55
13268.64
13935.74
14318.48
14782.89
15492.34
16321.55
16987.11
17240.08
17010.03
16439.47
15801.93
15362.35
15267.5
15520.78
16031.21
16685.58
17395.61
18104.43
18767.33
19333.03
19743.29
19951.41
19946.34
19765.53
19487.05
19203.31
18988.91
18877.5
18856.83
18881.61
18895.63
18852.61
18728.2
18521.29
18247.72
17931.19
17595.56
17260.86
16942.53
16652.44
16399.51
16189.12
16022.22
15896.14
15808.09
15759.38
15756.45
15806.33
15909.02
16053.6
16222.79
16403.41
16595.41
16805.19
17052.57
17274.28
17699.02
10302.13
10682.65
12052.09
13513.58
14111.39
13974.5
13926.7
14507.25
15583.45
16652.75
17287.48
17345.93
16948.27
16353.25
15825.16
15532.81
15512.48
15704.68
16031.36
16456.66
16993.38
17661.79
18439.53
19241.14
19940.82
20422.57
20627.45
20573.41
20340.78
20034.82
19745.35
19520.52
19361.96
19237.59
19102.29
18916.58
18657.18
18318.58
17908.74
17443.23
16941.16
16423.83
15914.68
15438.56
15019.12
14675.25
14419.15
14257.41
14194.47
14234.75
14379.39
14617.94
14923.01
15257.5
15593.25
15925.52
16260.78
16609.28
16896.41
17343.18
10414.2
10757.11
12103.36
13605.58
14239.01
14042.84
13858.35
14313.68
15338.5
16443.38
17194.01
17430.79
17233.12
16802.31
16354.67
16038.8
15895.59
15883.34
15950.91
16102.04
16401.92
16924.72
17684.54
18599.22
19510
20242.77
20675.3
20777.24
20608.65
20284.92
19928.35
19627.86
19419.49
19289.55
19193.01
19076.58
18896.88
18629.28
18268.1
17822.1
17309.57
16755.26
16188.62
15641.84
15146.53
14729.76
14411.11
14202.54
14110.62
14138.57
14284.25
14533.49
14855.39
15209.81
15566.25
15917.6
16266.89
16614.56
16895.99
17288.48
10570.42
11091.82
12292.79
13541.94
14268.51
14457.3
14543.29
14923.29
15634.64
16432.74
17044.36
17328.99
17299.02
17070.76
16795.15
16586.28
16477.42
16433.6
16411.78
16420.2
16529.75
16829.63
17361.17
18075.74
18842.6
19499.84
19918.55
20048.38
19926.87
19654.4
19350.47
19111.18
18983.25
18960.37
18998.05
19037.38
19026.64
18933.98
18749.68
18481.36
18147
17769.34
17372.54
16980.19
16613.66
16290.7
16024.68
15825.06
15698.56
15649.76
15679.31
15779.99
15934.45
16119.83
16318.29
16524.13
16736.36
16951.34
17134.25
17386.14
10802.21
11677.25
12706.14
13625.38
14484.97
15223.42
15740.42
16079.39
16381.75
16724.41
17054.32
17261.69
17289.43
17179.49
17036.83
16956.49
16971.13
17049.92
17140.49
17218.67
17310.19
17471.7
17747.3
18130.92
18558.02
18930.16
19157.42
19196.28
19065.8
18837.33
18604.67
18449.17
18414.09
18496.55
18657.39
18841.73
19000.05
19101.86
19138.74
19119.08
19059.07
18974.69
18876.95
18770.57
18655.31
18528.67
18388.95
18237.43
18078.71
17919.25
17765.48
17623.23
17498.53
17397.55
17323.76
17275.61
17249.2
17242.77
17259
17307.82
11320.74
12813.51
13774.35
14466.37
15404.66
16514.76
17335.54
17624.55
17561.11
17461.97
17473.31
17543.22
17575.93
17548.8
17514
17539.87
17660.78
17862.04
18095.26
18308.89
18475.38
18600.16
18708.65
18821.4
18933.93
19014.22
19018.92
18918.6
18717.81
18459.28
18210.38
18038.8
17988.97
18069.48
18255.41
18502.57
18765.89
19013.81
19233.85
19429.33
19610.66
19785.91
19954.54
20105.93
20222.48
20285.22
20279.47
20198.13
20041.24
19813.39
19522.72
19184.14
18822.99
18470.54
18149.68
17864.32
17610.15
17387.66
17233.12
17066.82
12767.01
14863.15
15631.3
16026.34
16807.78
17934.86
18805.37
19004.8
18668.84
18221.77
17970.59
17964.33
18097.04
18248.67
18354.41
18411.01
18453.69
18522.32
18632.33
18766.23
18889.51
18976.11
19023.01
19044.27
19051.58
19037.71
18975.56
18833.82
18599.13
18291.24
17962.31
17680.8
17508.18
17479.45
17595.23
17827.26
18132.97
18471.67
18815.76
19153.5
19484.07
19808.84
20123.64
20415.49
20664.62
20849.81
20953.64
20964.87
20877.42
20688.41
20399.88
20025.35
19594.92
19148.76
18718.75
18314.55
17935.15
17578.28
17305.6
16951.1
26422.35
24022.2
22386.32
21353.49
21108.5
21420.6
21671.4
21416.16
20698.44
19896.64
19383.1
19297.35
19525.07
19817.62
19947.2
19814.12
19465.95
19038.72
18669.7
18436.25
18346.21
18366.94
18460.7
18601.02
18766.2
18924.06
19025.55
19015.63
18855.94
18546.23
18131.94
17693.45
17321.59
17090.17
17036.49
17156.11
17412.08
17752.6
18129.13
18507.84