/*--------------------------------*- C++ -*----------------------------------*\
| =========                 |                                                 |
| \\      /  F ield         | OpenFOAM: The Open Source CFD Toolbox           |
|  \\    /   O peration     | Version:  2312                                  |
|   \\  /    A nd           | Website:  www.openfoam.com                      |
|    \\/     M anipulation  |                                                 |
\*---------------------------------------------------------------------------*/
FoamFile
{
    version     2.0;
    format      ascii;
    arch        "LSB;label=32;scalar=64";
    class       volScalarField;
    location    "5700";
    object      ILambda_5_0;
}
// * * * * * * * * * * * * * * * * * * * * * * * * * * * * * * * * * * * * * //

dimensions      [1 0 -3 0 0 0 0];

internalField   nonuniform List<scalar> 
12000
(
3955.34
3956.829
3958.526
3960.248
3961.753
3962.742
3962.841
3961.661
3958.947
3954.729
3949.427
3943.871
3939.227
3936.829
3937.954
3943.552
3954.006
3968.936
3987.108
4006.447
4024.159
4036.961
4041.373
4034.036
4012.036
3973.165
3916.126
3840.637
3747.44
3638.218
3515.443
3382.153
3241.715
3097.57
2952.997
2810.919
2673.751
2543.303
2420.744
2306.616
2200.889
2103.061
2012.268
1927.408
1847.273
1770.658
1696.459
1623.754
1551.848
1480.31
1408.97
1337.911
1267.436
1198.028
1130.318
1064.926
1002.934
943.3508
894.8433
820.3325
3983.485
3985.105
3985.625
3984.73
3982.078
3977.392
3970.698
3962.6
3954.383
3947.885
3945.155
3948.001
3957.514
3973.661
3995.039
4018.835
4041.004
4056.647
4060.517
4047.602
4013.679
3955.779
3872.513
3764.209
3632.878
3482.001
3316.194
3140.78
2961.337
2783.247
2611.314
2449.462
2300.539
2166.234
2047.094
1942.637
1851.526
1771.795
1701.091
1636.912
1576.828
1518.659
1460.616
1401.388
1340.176
1276.697
1211.136
1144.078
1076.419
1009.268
943.8446
881.3876
823.0692
769.9225
722.7935
682.3053
648.7685
622.487
603.0834
587.7095
3995.828
3991.812
3986.128
3978.511
3969.222
3959.365
3950.962
3946.615
3948.79
3958.994
3977.139
4001.197
4027.227
4049.75
4062.398
4058.723
4033.016
3981.032
3900.506
3791.413
3655.947
3498.258
3323.988
3139.685
2952.167
2767.927
2592.614
2430.651
2285.015
2157.161
2047.098
1953.582
1874.388
1806.634
1747.11
1692.596
1640.126
1587.202
1531.933
1473.104
1410.186
1343.285
1273.055
1200.576
1127.221
1054.523
984.0467
917.2753
855.5238
799.8705
751.1159
709.7619
676.0122
649.7851
630.7413
618.3418
611.7229
610.5399
611.603
622.2011
3985.601
3976.27
3965.633
3955.221
3948.106
3947.874
3957.215
3976.614
4003.602
4032.807
4056.696
4066.74
4054.726
4013.979
3940.299
3832.496
3692.484
3524.97
3336.829
3136.27
2931.942
2732.071
2543.744
2372.391
2221.493
2092.515
1985.052
1897.114
1825.532
1766.404
1715.546
1668.895
1622.848
1574.5
1521.794
1463.569
1399.529
1330.148
1256.518
1180.185
1102.964
1026.767
953.4514
884.6943
821.9022
766.1514
718.161
678.2936
646.5765
622.7392
606.26
596.4168
592.3386
593.0499
597.5237
604.6784
613.5307
622.9099
631.7971
642.0812
3960
3950.086
3944.63
3949.431
3967.529
3997.03
4030.926
4058.465
4067.436
4046.633
3987.874
3887.246
3745.518
3567.812
3362.688
3140.883
2913.91
2692.756
2486.798
2303.053
2145.79
2016.485
1914.081
1835.45
1776.001
1730.329
1692.833
1658.261
1622.127
1580.995
1532.616
1475.943
1411.035
1338.887
1261.203
1180.154
1098.134
1017.546
940.6166
869.2573
804.9782
748.8411
701.4548
663.0028
633.2937
611.8258
597.858
590.479
588.6713
591.3642
597.4762
605.9466
615.7577
625.9435
635.6238
643.894
650.3199
653.1031
655.4992
645.1496
3941.444
3947.985
3974.511
4014.383
4051.16
4064.929
4038.082
3959.226
3824.97
3639.792
3414.501
3163.96
2904.613
2652.228
2420.121
2217.98
2051.338
1921.621
1826.642
1761.409
1719.087
1691.976
1672.409
1653.473
1629.544
1596.585
1552.255
1495.835
1428.022
1350.64
1266.298
1178.045
1089.052
1002.337
920.5584
845.8714
779.8486
723.4647
677.1259
640.7376
613.793
595.4741
584.7508
580.4721
581.4422
586.4797
594.4573
604.3257
615.1228
625.9727
636.0798
644.7211
651.2405
655.0467
655.6384
652.5066
645.6911
633.4729
622.0053
587.1744
3957.958
4013.291
4052.401
4035.528
3940.392
3764.16
3519.576
3229.213
2919.661
2616.604
2341.307
2108.627
1926.364
1795.658
1712.12
1667.374
1650.72
1650.715
1656.495
1658.771
1650.451
1626.92
1586.022
1527.808
1454.126
1368.136
1273.795
1175.376
1077.056
982.5932
895.0983
816.9089
749.5486
693.7598
649.5907
616.5188
593.5917
579.5701
573.0602
572.6258
576.8755
584.522
594.4153
605.5525
617.0701
628.2237
638.3631
646.9065
653.3208
657.1106
657.8181
655.0355
648.4256
637.7585
622.9359
604.033
581.4823
554.8838
530.1741
483.1954
4016.874
3967.807
3748.976
3410.436
3013.173
2612.872
2252.441
1959.354
1746.027
1612.126
1547.871
1537.584
1562.955
1605.747
1649.801
1682.307
1694.417
1681.284
1641.701
1577.45
1492.517
1392.28
1282.739
1169.871
1059.119
955.0482
861.1427
779.7398
712.0726
658.3924
618.1433
590.1631
572.8879
564.5422
563.3018
567.4218
575.3259
585.6576
597.2969
609.349
621.1121
632.0333
641.6602
649.5957
655.4625
658.8811
659.4641
656.827
650.6138
640.5361
626.4185
608.2493
586.224
560.8014
532.6734
502.9762
472.674
444.1624
418.194
392.2373
3574.784
2827.253
2202.167
1737.821
1441.52
1296.718
1272.416
1331.475
1436.947
1556.372
1664.203
1742.721
1781.832
1778.134
1733.574
1653.934
1547.344
1422.962
1289.898
1156.408
1029.37
914.0118
813.8362
730.721
665.1222
616.348
582.8596
562.5696
553.1135
552.0797
557.1893
566.4204
578.0825
590.8417
603.708
615.9916
627.2401
637.1652
645.5696
652.2824
657.1086
659.7977
660.0344
657.4504
651.6562
642.2882
629.0673
611.8611
590.7456
566.0585
538.4385
508.8492
478.5752
449.2269
422.5908
400.9927
385.5861
382.3107
380.1849
425.1597
477.1429
451.7673
622.7907
904.6853
1219.763
1510.915
1742.073
1895.13
1965.974
1960.492
1890.924
1772.791
1622.488
1455.525
1285.37
1122.792
975.641
848.9259
745.1197
664.5907
606.0913
567.2481
545.0145
536.0584
537.0742
545.0145
557.243
571.6187
586.5196
600.8176
613.8182
625.1748
634.7903
642.716
649.057
653.8923
657.2143
658.8942
658.6718
656.1725
650.9464
642.5274
630.5036
614.5954
594.7306
571.1123
544.2708
515.0959
484.8445
455.124
427.8475
405.1699
389.3924
382.8962
387.8793
406.887
440.0107
495.8448
546.9808
704.5013
1062.629
1741.049
2174.064
2391.02
2434.778
2349.837
2177.581
1953.991
1708.583
1464.121
1236.898
1037.4
871.2059
739.9783
642.4504
575.3489
534.2002
513.9946
509.701
516.6376
530.7131
548.5581
567.5685
585.883
602.3121
616.2361
627.4856
636.2139
642.7714
647.5889
651.0753
653.535
655.1103
655.7494
655.2034
653.0497
648.7413
641.6764
631.2819
617.1047
598.9019
576.7221
550.9699
522.4485
492.3752
462.3666
434.3954
410.7189
393.7842
386.1152
390.1891
408.3104
442.4798
494.3237
564.8209
655.0175
762.5835
896.4174
1014.76
1283.37
3719.477
3130.779
2580.317
2086.19
1659.843
1306.172
1024.634
810.614
656.7467
554.1029
493.1676
464.5996
459.7728
471.1239
492.3367
518.3949
545.5351
571.1309
593.5363
611.9106
626.0417
636.1769
642.8706
646.8478
648.8865
649.719
649.9498
649.9943
650.037
650.0133
649.6152
648.3223
645.4565
640.2582
631.9781
619.9786
603.8355
583.4322
559.0373
531.3581
501.5648
471.2808
442.5397
417.7103
399.3932
390.2966
393.0981
410.302
444.1011
496.2508
567.964
659.8347
771.7815
903.0754
1052.181
1217.582
1394.49
1589.725
1757.321
2078.536
531.9826
402.6529
324.2512
289.323
288.0451
310.7584
348.8606
395.1595
443.9786
491.1194
533.7283
570.1048
599.4875
621.838
637.638
647.7114
653.0753
654.8233
654.0369
651.7201
648.7502
645.8406
643.5096
642.0553
641.5376
641.77
642.3276
642.5723
641.7019
638.8197
633.0246
623.5146
609.6966
591.292
568.4279
541.7055
512.236
481.6402
452.0088
425.8254
405.8557
395.0106
396.1921
412.1328
445.2383
497.4453
570.1017
663.8775
778.7119
913.7978
1067.605
1237.943
1422.043
1616.713
1818.333
2023.602
2227.128
2432.858
2603.803
2888.806
625.914
635.3212
648.012
661.2886
672.9974
681.8049
687.1146
688.8954
687.5044
683.5263
677.6475
670.5663
662.9344
655.3244
648.2162
641.9962
636.96
633.3133
631.1645
630.5088
631.205
632.9519
635.2704
637.5014
638.8265
638.315
634.9995
627.9745
616.5108
600.1748
578.9391
553.2716
524.1926
493.2898
462.6894
434.9801
413.0967
400.1701
399.3544
413.6441
445.6942
497.6559
571.0387
666.6084
784.326
923.3309
1081.969
1257.861
1448.009
1648.931
1856.817
2067.694
2277.598
2482.75
2679.628
2865.421
3036.749
3195.819
3322.547
3505.463
626.0611
626.1403
625.668
624.6621
623.2632
621.6789
620.1209
618.761
617.7126
617.0364
616.7608
616.9049
617.4976
618.587
620.2334
622.4861
625.3444
628.7084
632.3307
635.7798
638.4271
639.4672
637.9751
633.0011
623.6934
609.4379
589.998
565.6379
537.2113
506.2055
474.7303
445.4501
421.4634
406.1385
402.9171
415.1038
445.6552
496.9875
570.8141
668.0252
788.6173
931.6745
1095.402
1277.207
1473.821
1681.457
1895.985
2113.118
2328.604
2538.403
2738.85
2926.788
3099.671
3255.639
3393.531
3512.971
3613.917
3698.554
3761.634
3838.097
627.2298
627.6317
628.0315
628.4568
628.9204
629.405
629.8603
630.2313
630.4946
630.6866
630.9131
631.3332
632.1185
633.391
635.1515
637.2105
639.1402
640.2603
639.6717
636.3385
629.2176
617.4193
600.3836
578.0464
550.9747
520.4501
488.4874
457.7818
431.587
413.5343
407.4068
416.8914
445.3269
495.4721
569.3097
667.9014
791.3035
938.5451
1107.67
1295.835
1499.453
1714.378
1936.108
2159.996
2381.467
2596.208
2800.348
2990.595
3164.346
3319.75
3455.737
3572.007
3668.98
3747.713
3809.813
3857.277
3892.363
3917.786
3934.29
3952.243
628.2294
628.5966
628.8563
629.0047
629.0273
628.8981
628.6271
628.3113
628.1393
628.3468
629.1338
630.5621
632.4585
634.3474
635.435
634.66
630.8108
622.7013
609.3845
590.3727
565.8345
536.7384
504.9182
473.0498
444.5354
423.3064
413.5629
419.4764
444.883
492.9967
566.1664
665.6956
791.7381
943.2725
1118.154
1313.236
1524.546
1747.502
1977.155
2208.437
2436.396
2656.417
2864.41
3056.955
3231.407
3385.956
3519.647
3632.349
3724.696
3797.993
3854.097
3895.277
3924.076
3943.138
3955.106
3962.398
3967.195
3971.523
3974.993
3986.146
628.8624
628.906
628.755
628.4323
627.9926
627.5625
627.3807
627.7343
628.8048
630.5057
632.3651
633.4908
632.6361
628.3669
619.3076
604.4292
583.3356
556.4984
525.4049
492.5901
461.5459
436.5135
422.1822
423.3286
444.4342
489.3211
560.8403
660.6402
789.0308
944.9508
1126.033
1328.757
1548.667
1780.641
2019.18
2258.698
2493.8
2719.526
2931.55
3126.33
3301.212
3454.473
3585.32
3693.847
3780.95
3848.22
3897.799
3932.24
3954.343
3966.995
3973.023
3975.048
3975.369
3975.843
3977.86
3982.157
3989.163
3998.247
4008.45
4023.481
627.9402
627.4617
626.8148
626.2136
625.9715
626.408
627.6553
629.3983
630.7242
630.1807
626.0151
616.5376
600.5395
577.6847
548.8047
516.0446
482.8344
453.6884
433.8581
428.8856
444.1128
484.202
552.7209
651.8308
782.1015
942.4644
1130.294
1341.603
1571.325
1813.645
2062.367
2311.26
2554.388
2786.383
3002.661
3199.579
3374.514
3525.894
3653.167
3756.726
3837.8
3898.317
3940.752
3967.956
3982.999
3988.995
3988.96
3985.663
3981.506
3978.428
3977.83
3980.525
3986.73
3996.059
4007.635
4019.893
4031.692
4038.735
4046.227
4029.605
625.216
624.4992
624.1293
624.6147
626.0265
627.6791
628.0321
624.9053
616.0371
599.7821
575.7239
545.082
510.8491
477.6472
451.3364
438.4439
445.5037
478.3935
541.7524
638.5374
769.7596
934.4091
1129.56
1350.63
1591.748
1846.191
2106.848
2366.655
2618.992
2857.999
3078.81
3277.701
3452.151
3600.834
3723.548
3821.093
3895.127
3947.996
3982.551
4001.977
4009.609
4008.779
4002.658
3994.127
3985.66
3979.234
3976.259
3977.534
3983.231
3992.911
4005.561
4019.667
4033.311
4044.268
4050.221
4048.505
4038.048
4011.969
3987.742
3892.314
622.208
622.4877
624.0015
625.6746
624.8999
618.4414
603.6259
579.4682
547.4345
511.6141
478.3282
455.3592
450.9811
472.9571
527.6467
619.3278
749.7904
918.2163
1121.324
1353.729
1608.456
1877.533
2152.602
2425.484
2688.67
2935.69
3161.366
3361.943
3535.109
3679.931
3796.714
3886.824
3952.483
3996.556
4022.34
4033.375
4033.264
4025.518
4013.416
3999.894
3987.441
3978.02
3973.012
3973.174
3978.627
3988.865
4002.793
4018.795
4034.82
4048.504
4057.296
4058.612
4049.988
4029.216
3994.576
3944.501
3879.852
3794.177
3716.291
3530.998
621.7445
624.0377
623.1069
613.5335
592.0645
559.6262
521.6079
486.9604
466.6011
471.5665
511.3559
592.7231
718.9818
889.8088
1101.481
1347.441
1619.07
1906.553
2199.733
2488.868
2765.253
3021.651
3252.56
3454.294
3624.939
3764.182
3873.083
3953.801
4009.308
4043.122
4059.065
4061.057
4052.941
4038.347
4020.584
4002.549
3986.659
3974.792
3968.244
3967.697
3973.208
3984.211
3999.548
4017.526
4035.996
4052.464
4064.224
4068.51
4062.654
4044.253
4011.323
3962.441
3896.857
3814.566
3716.413
3603.758
3480.128
3342.862
3222.158
3000.662
625.4122
616.4414
588.9988
548.2438
508.0674
485.9591
498.4749
558.2054
672.184
841.5023
1061.866
1324.726
1618.668
1930.825
2248.184
2558.65
2851.834
3119.549
3356.025
3557.892
3723.979
3854.999
3953.151
4021.72
4064.69
4086.401
4091.277
4083.614
4067.431
4046.367
4023.622
4001.921
3983.479
3969.986
3962.583
3961.84
3967.741
3979.68
3996.471
4016.391
4037.239
4056.436
4071.152
4078.455
4075.48
4059.607
4028.632
3980.929
3915.58
3832.476
3732.371
3616.892
3488.496
3350.387
3206.389
3060.731
2918.247
2781.49
2667.051
2511.993
614.3375
560.752
519.5964
526.6871
603.7982
757.8351
983.8594
1268.886
1595.407
1944.347
2297.344
2638.316
2954.39
3236.292
3478.336
3678.103
3835.929
3954.296
4037.2
4089.563
4116.719
4124.012
4116.505
4098.794
4074.913
4048.306
4021.847
3997.873
3978.224
3964.266
3956.9
3956.549
3963.135
3976.056
3994.165
4015.786
4038.742
4060.435
4077.958
4088.239
4088.221
4075.053
4046.28
4000.034
3935.19
3851.484
3749.591
3631.145
3498.701
3355.644
3206.054
3054.515
2905.911
2765.197
2637.109
2526.212
2435.499
2370.865
2324.623
2325.132
575.3145
615.8483
812.7732
1125.967
1510.844
1927.62
2344.053
2735.994
3086.995
3387.443
3633.416
3825.436
3967.239
4064.653
4124.632
4154.477
4161.248
4151.365
4130.385
4102.918
4072.654
4042.464
4014.536
3990.519
3971.637
3958.779
3952.527
3953.147
3960.55
3974.227
3993.191
4015.934
4040.418
4064.122
4084.125
4097.254
4100.258
4090.029
4063.818
4019.453
3955.536
3871.592
3768.169
3646.875
3510.345
3362.153
3206.654
3048.783
2893.814
2747.105
2613.826
2498.707
2405.801
2338.305
2298.317
2287.197
2303.397
2351.917
2404.037
2563.877
1028.933
1742.205
2361.943
2880.308
3297.917
3620.952
3859.259
4024.79
4130.334
4188.505
4210.998
4208.109
4188.475
4159.001
4124.934
4090.048
4056.895
4027.093
4001.608
3981.011
3965.668
3955.861
3951.84
3953.786
3961.729
3975.429
3994.243
4017.017
4042.016
4066.918
4088.876
4104.644
4110.774
4103.851
4080.754
4038.922
3976.589
3892.982
3788.451
3664.533
3523.926
3370.392
3208.592
3043.853
2881.902
2728.562
2589.458
2469.722
2373.735
2304.907
2265.517
2256.607
2277.947
2328.065
2404.268
2503.123
2618.935
2752.108
2871.111
3088.438
4152.24
4271.36
4336.183
4357.022
4345.826
4313.482
4269.065
4219.668
4170.46
4124.871
4084.853
4051.198
4023.864
4002.301
3985.75
3973.486
3965
3960.093
3958.88
3961.709
3969.005
3981.076
3997.89
4018.887
4042.833
4067.75
4090.946
4109.128
4118.614
4115.604
4096.49
4058.186
3998.425
3916.017
3811.019
3684.832
3540.19
3381.056
3212.436
3040.115
2870.346
2709.506
2563.753
2438.692
2339.081
2268.591
2229.627
2223.224
2249.012
2305.258
2388.97
2496.058
2621.544
2759.795
2904.796
3050.367
3190.459
3320.198
3427.394
3554.532
4059.747
4047.867
4032.991
4017.843
4004.456
3993.987
3986.808
3982.661
3980.854
3980.489
3980.681
3980.758
3980.42
3979.825
3979.592
3980.716
3984.391
3991.763
4003.657
4020.308
4041.14
4064.633
4088.304
4108.809
4122.165
4124.065
4110.258
4076.953
4021.203
3941.235
3836.691
3708.756
3560.166
3395.106
3218.984
3038.136
2859.45
2689.974
2536.507
2405.218
2301.314
2228.764
2190.116
2186.382
2217.019
2279.99
2371.896
2488.169
2623.315
2771.184
2925.258
3078.939
3225.832
3359.965
3476.126
3569.517
3638.036
3673.908
3695.031
3636.025
4059.41
4056.052
4052.973
4050.169
4047.482
4044.613
4041.139
4036.63
4030.85
4023.933
4016.494
4009.638
4004.835
4003.696
4007.65
4017.6
4033.598
4054.602
4078.373
4101.52
4119.709
4128.015
4121.373
4095.081
4045.291
3969.445
3866.602
3737.622
3585.207
3413.785
3229.253
3038.621
2849.569
2669.97
2507.412
2368.752
2259.731
2184.672
2146.271
2145.493
2181.573
2252.097
2353.177
2479.681
2625.521
2783.959
2947.929
3110.358
3264.457
3403.984
3523.473
3618.396
3685.299
3721.827
3726.931
3700.018
3644.336
3552.483
3465.286
3232.834
4055.162
4050.626
4045.866
4040.736
4034.991
4028.376
4020.852
4012.889
4005.602
4000.655
3999.948
4005.175
4017.332
4036.282
4060.464
4086.801
4110.842
4127.122
4129.69
4112.741
4071.268
4001.651
3902.119
3773.036
3616.984
3438.647
3244.513
3042.435
2841.088
2649.391
2475.924
2328.399
2213.209
2135.085
2096.883
2099.48
2141.804
2220.964
2332.465
2470.5
2628.282
2798.4
2973.179
3145.028
3306.753
3451.831
3574.635
3670.602
3736.34
3769.687
3769.709
3736.646
3671.834
3577.529
3456.95
3313.296
3152.961
2970.834
2812.661
2505.295
4047.155
4041.989
4036.296
4029.71
4022.284
4014.839
4009.096
4007.411
4012.104
4024.641
4044.95
4070.996
4098.72
4122.332
4134.914
4129.238
4098.658
4037.959
3944.05
3816.417
3657.301
3471.588
3266.46
3050.831
2834.669
2628.253
2441.454
2283.079
2160.338
2078.455
2040.442
2047.018
2096.686
2185.921
2309.462
2460.669
2631.921
2815.029
3001.635
3183.593
3353.296
3503.958
3629.833
3726.368
3790.299
3819.685
3813.884
3773.483
3700.184
3596.662
3466.391
3313.456
3142.368
2957.837
2764.718
2567.291
2371.445
2174.215
2010.344
1740.196
4036.879
4030.706
4023.394
4016.213
4011.952
4013.977
4024.925
4045.396
4073.091
4102.708
4126.539
4135.548
4120.683
4074.196
3990.763
3868.268
3708.159
3515.387
3297.96
3066.209
2831.874
2607.119
2403.589
2231.575
2099.364
2012.792
1975.012
1986.469
2045.045
2146.351
2284.12
2450.657
2637.327
2835.029
3034.644
3227.44
3405.412
3561.554
3690.068
3786.49
3847.766
3872.25
3859.663
3810.99
3728.35
3614.834
3474.313
3311.246
3130.472
2937.012
2735.876
2531.889
2329.538
2132.829
1945.249
1769.434
1608.277
1459.587
1341.422
1171.294
4025
4017.823
4014.173
4019.702
4037.547
4066.128
4098.809
4124.973
4132.066
4108.011
4043.354
3932.783
3775.914
3577.344
3346.061
3094.395
2836.691
2587.907
2362.289
2172.264
2027.605
1934.926
1897.466
1915.168
1984.959
2101.204
2256.253
2441.035
2645.647
2859.913
3073.873
3278.204
3464.556
3625.798
3756.194
3851.494
3908.964
3927.357
3906.833
3848.836
3755.94
3631.67
3480.306
3306.673
3115.935
2913.389
2704.27
2493.576
2285.914
2085.369
1895.406
1718.799
1557.599
1413.122
1285.99
1176.101
1083.116
1004.482
945.6857
870.7821
4013.491
4018.59
4042.416
4079.032
4112.701
4123.679
4093.675
4009.786
3866.713
3667.258
3421.42
3144.598
2855.382
2573.3
2316.799
2101.639
1939.797
1838.895
1802.093
1828.371
1913.085
2048.689
2225.538
2432.684
2658.609
2891.865
3121.599
3337.959
3532.389
3697.819
3828.774
3921.404
3973.461
3984.22
3954.369
3885.862
3781.751
3645.995
3483.264
3298.725
3097.84
2886.153
2669.103
2451.843
2239.083
2034.966
1842.964
1665.81
1505.471
1363.137
1239.259
1133.602
1045.326
973.0964
915.1818
869.5809
834.287
806.5119
787.1662
761.1623
4019.978
4069.405
4103.763
4083.803
3985.738
3803.938
3548.266
3239.545
2904.681
2572.137
2268.264
2014.745
1827.144
1714.403
1679.089
1718.188
1824.216
1986.463
2192.213
2427.839
2679.719
2934.939
3181.796
3410.129
3611.497
3779.246
3908.507
3996.123
4040.551
4041.74
4000.984
3920.767
3804.596
3656.819
3482.435
3286.897
3075.905
2855.212
2630.427
2406.838
2189.252
1981.861
1788.146
1610.798
1451.694
1311.894
1191.678
1090.608
1007.626
941.155
889.2338
849.6459
820.0515
798.1315
781.6774
768.7469
757.7432
747.0462
737.9854
720.0609
4056.131
4004.801
3786.703
3445.18
3035.998
2613.613
2224.256
1902.609
1670.825
1539.152
1507.646
1568.466
1708.291
1910.579
2157.494
2431.405
2715.951
2996.692
3261.437
3500.327
3705.746
3872.154
3995.876
4074.896
4108.667
4097.949
4044.662
3951.756
3823.075
3663.218
3477.378
3271.175
3050.467
2821.155
2588.993
2359.396
2137.274
1926.891
1731.747
1554.51
1396.977
1260.078
1143.917
1047.846
970.5634
910.2437
864.67
831.3817
807.82
791.4676
779.9756
771.2757
763.6647
755.8884
747.1302
737.1873
725.9993
714.8594
703.6303
693.577
3607.631
2872.255
2238.35
1747.097
1418.135
1251.694
1233.484
1340.016
1543.288
1814.47
2126.536
2455.869
2783.007
3092.737
3373.779
3618.219
3820.866
3978.642
4090.075
4154.922
4173.928
4148.687
4081.574
3975.722
3834.989
3663.914
3467.629
3251.731
3022.119
2784.796
2545.659
2310.29
2083.758
1870.453
1673.957
1496.949
1341.173
1207.436
1095.659
1004.964
933.7875
880.0239
841.1758
814.5163
797.247
786.6477
780.2106
775.7553
771.5199
766.226
759.1167
749.969
739.0743
727.2232
715.5539
705.8399
699.027
700.1485
700.5796
737.783
585.8302
508.5157
630.4242
903.2519
1273.28
1693.065
2124.841
2540.973
2922.992
3259.938
3546.483
3781.114
3964.586
4098.762
4185.846
4227.989
4227.185
4185.384
4104.698
3987.653
3837.387
3657.781
3453.472
3229.785
2992.558
2747.915
2502.002
2260.713
2029.434
1812.823
1614.649
1437.681
1283.642
1153.218
1046.129
961.2242
896.6327
849.9198
818.265
798.6402
787.9826
783.3543
782.084
781.8834
780.9384
777.9703
772.2692
763.6978
752.6694
740.101
727.3464
716.1129
708.3588
706.2176
711.7535
727.4429
753.6205
798.2221
838.1763
967.1938
1106.346
1788.33
2383.015
2881.403
3284.559
3600.236
3839.838
4015.744
4139.228
4219.207
4261.795
4270.464
4246.635
4190.468
4101.714
3980.462
3827.708
3645.699
3438.039
3209.599
2966.256
2714.534
2461.192
2212.818
1975.453
1754.297
1553.487
1375.976
1223.486
1096.55
994.604
916.1389
858.8768
819.9699
796.2047
784.202
780.6049
782.2464
786.2936
790.3634
792.6088
791.7745
787.2214
778.9222
767.43
753.8226
739.626
726.7223
717.2448
713.4665
717.685
732.1107
758.754
799.359
855.1626
927.5386
1014.826
1125.564
1223.188
1452.822
4054.196
4162.08
4220.895
4245.382
4249.986
4244.395
4232.531
4213.201
4181.61
4131.217
4055.494
3949.289
3809.732
3636.658
3432.615
3202.524
2953.122
2692.279
2428.291
2169.235
1922.425
1694.004
1488.692
1309.667
1158.573
1035.625
939.7797
868.9636
820.3118
790.4188
775.5776
772.0009
776.0174
784.2397
793.7014
801.9631
807.1873
808.1817
804.4137
795.9951
783.6423
768.6116
752.6155
737.7224
726.2449
720.622
723.2981
736.6057
762.6548
803.2326
859.7184
933.0148
1023.493
1130.99
1254.664
1393.64
1544.136
1712.556
1857.997
2142.482
3951.895
3946.313
3954.67
3974.934
3996.502
4004.675
3984.897
3925.69
3820.279
3667.092
3469.376
3234.256
2971.533
2692.431
2408.429
2130.296
1867.359
1627.044
1414.655
1233.359
1084.336
967.0351
879.4976
818.6997
780.8906
761.9038
757.4283
763.2375
775.3756
790.3034
805.0092
817.0891
824.7974
827.0724
823.5365
814.4725
800.7773
783.893
765.7197
748.5113
734.7596
727.07
728.0363
740.1169
765.5194
806.0974
863.2625
937.9161
1030.4
1140.472
1267.296
1409.465
1565.03
1731.571
1906.197
2085.989
2266.327
2449.641
2604.043
2858.267
3951.553
3995.089
4027.694
4017.084
3943.559
3800.808
3593.217
3332.459
3034.321
2716.04
2394.232
2083.476
1795.47
1538.67
1318.294
1136.605
993.3625
886.3519
811.939
765.5804
742.2678
736.8876
744.4954
760.5126
780.8604
802.0448
821.2083
836.1586
845.3815
848.0418
843.9711
833.6419
818.1238
799.0222
778.3962
758.6585
742.4596
732.5608
731.7028
742.4742
767.1886
807.7742
865.6813
941.8115
1036.469
1149.339
1279.486
1425.378
1584.933
1755.576
1934.323
2117.87
2302.691
2485.15
2661.612
2828.549
2982.504
3121.877
3234.539
3374.825
3976.79
3935.009
3751.964
3464.144
3112.014
2731.638
2352.215
1995.582
1676.587
1403.886
1180.989
1007.397
879.711
792.6452
739.8786
714.7407
710.7144
721.7736
742.5769
768.5525
795.9071
821.5922
843.2538
859.1839
868.2849
870.0472
864.5364
852.3823
834.76
813.3536
790.2979
768.0942
749.5028
737.4149
734.7137
744.1305
768.1074
808.6731
867.3396
945.0239
1041.999
1157.872
1291.593
1441.487
1605.307
1780.313
1963.355
2150.972
2339.504
2525.196
2704.316
2873.261
3028.666
3167.49
3287.18
3385.434
3461.533
3511.56
3545.497
3532.87
3558.26
2909.944
2346.964
1876.451
1497.79
1205.281
989.8899
840.687
746.0255
694.4594
675.4045
679.5507
699.0602
727.5921
760.2012
793.1557
823.718
849.928
870.4186
884.2834
891.0009
890.413
882.7426
868.6325
849.1841
825.9786
801.0648
776.9087
756.3007
742.2286
737.7241
745.6975
768.7733
809.1398
868.4246
947.6012
1046.933
1165.955
1303.488
1457.685
1626.105
1805.8
1993.421
2185.327
2377.704
2566.675
2748.416
2919.262
3075.812
3215.021
3334.286
3431.52
3505.219
3554.485
3579.154
3579.379
3557.494
3509.868
3461.227
3322.666
734.7012
627.5103
569.679
551.8471
563.1139
593.5384
634.8687
680.716
726.4751
769.1017
806.8073
838.7191
864.5506
884.3187
898.1313
906.0635
908.1248
904.3072
894.6948
879.6043
859.7254
836.2338
810.8505
785.8384
763.9292
748.1908
741.8477
748.0756
769.7904
809.4529
868.9061
949.2554
1050.8
1173.012
1314.568
1473.411
1646.848
1831.669
2024.27
2220.786
2417.218
2609.555
2793.885
2966.498
3123.983
3263.31
3381.908
3477.731
3549.312
3595.81
3617.041
3613.488
3586.299
3537.247
3468.753
3383.494
3285.815
3174.561
3075.796
2892.759
834.4711
846.6513
861.3474
876.0916
889.0603
899.2912
906.5916
911.3002
913.986
915.1694
915.1139
913.719
910.5218
904.8032
895.7746
882.8121
865.6967
844.8171
821.303
797.0657
774.7371
757.5169
748.9462
752.6364
771.9847
809.9086
868.6228
949.4789
1052.875
1178.236
1324.06
1488.015
1667.074
1857.67
2055.861
2257.486
2458.316
2654.182
2841.084
3015.293
3173.422
3312.503
3430.043
3524.075
3593.207
3636.664
3654.31
3646.672
3614.939
3560.942
3487.119
3396.448
3292.368
3178.661
3059.352
2938.483
2820.432
2707.102
2612.795
2483.148
851.3859
855.249
858.49
861.2882
864.0137
867.0918
870.8001
875.0265
879.1355
882.0132
882.2663
878.5222
869.7721
855.6923
836.8838
814.9909
792.6757
773.4547
761.4203
760.8868
776.0078
810.4114
866.8937
947.1977
1051.893
1180.358
1330.853
1500.661
1686.287
1883.667
2088.389
2295.896
2501.66
2701.322
2890.803
3066.385
3224.765
3363.1
3479.044
3570.771
3637.013
3677.086
3690.921
3679.082
3642.782
3583.875
3504.831
3408.681
3298.948
3179.537
3054.614
2928.462
2805.325
2689.254
2583.922
2492.637
2417.558
2362.152
2322.46
2310.975
868.6485
872.4648
876.4685
881.0809
886.3616
891.7477
895.979
897.2834
893.8346
884.3157
868.408
847.1089
822.8304
799.2717
781.0946
773.4611
781.5067
809.8228
862.0149
940.382
1045.743
1177.412
1333.309
1510.17
1703.827
1909.514
2122.165
2336.679
2548.134
2751.95
2943.981
3120.581
3278.617
3415.477
3529.058
3617.766
3680.522
3716.776
3726.54
3710.408
3669.589
3605.919
3521.853
3420.433
3305.226
3180.229
3049.747
2918.24
2790.163
2669.786
2561.028
2467.289
2391.314
2335.095
2299.736
2285.704
2291.553
2319.661
2351.808
2451.602
884.6435
888.8238
893.8048
898.7313
901.5122
899.5541
890.7321
874.2959
851.4737
825.5918
801.7386
786.1294
785.32
805.406
851.3258
926.3507
1031.805
1167.018
1329.489
1515.202
1719.042
1935.244
2157.814
2380.898
2599.054
2807.431
3001.857
3178.856
3335.604
3469.872
3579.955
3664.617
3723.061
3754.928
3760.319
3739.839
3694.648
3626.497
3537.757
3431.416
3311.03
3180.649
3044.694
2907.803
2774.654
2649.768
2537.318
2440.942
2363.581
2307.351
2273.455
2262.144
2272.719
2303.599
2352.369
2416.14
2490.662
2575.389
2650.887
2784.22
900.7177
905.8234
908.1588
903.4012
888.9699
865.657
837.8488
812.7734
799.1868
805.8678
840.287
907.6591
1010.43
1148.179
1317.878
1514.404
1731.194
1960.946
2196.253
2430.132
2656.39
2869.83
3066.312
3242.685
3396.663
3526.645
3631.554
3710.702
3763.709
3790.468
3791.182
3766.418
3717.201
3645.096
3552.286
3441.599
3316.507
3181.057
3039.761
2897.437
2759.01
2629.292
2512.765
2413.356
2334.251
2277.743
2245.123
2236.632
2251.465
2287.836
2343.081
2413.82
2496.136
2585.785
2678.401
2769.726
2855.712
2933.345
2995.847
3065.8
917.2318
912.6932
893.227
863.0363
833.3265
818.1694
830.8172
881.2333
974.824
1112.184
1289.627
1500.191
1734.836
1983.636
2236.822
2485.579
2722.559
2942.103
3140.23
3314.426
3463.34
3586.428
3683.632
3755.117
3801.116
3821.868
3817.657
3788.921
3736.403
3661.31
3565.463
3451.385
3322.347
3182.325
3035.897
2888.071
2744.065
2609.052
2487.894
2384.89
2303.542
2246.375
2214.809
2209.097
2228.327
2270.495
2332.63
2410.971
2501.182
2598.585
2698.401
2795.987
2887.052
2967.833
3035.289
3086.983
3122.109
3137.443
3143.334
3103.963
919.6351
878.9529
848.3285
856.5018
920.8371
1046.651
1229.644
1459.038
1720.557
1998.938
2279.859
2551.201
2803.714
3031.164
3230.08
3399.244
3539.033
3650.749
3736.028
3796.394
3832.993
3846.506
3837.23
3805.273
3750.823
3674.432
3577.274
3461.337
3329.526
3185.656
3034.352
2880.855
2730.761
2589.713
2463.082
2355.65
2271.335
2212.971
2182.154
2179.166
2202.982
2251.354
2320.957
2407.596
2506.456
2612.366
2720.077
2824.528
2921.084
3005.741
3075.284
3127.39
3160.683
3174.718
3170.005
3147.585
3110.325
3056.735
3006.282
2892.196
898.0037
932.9219
1093.295
1346.464
1656.18
1990.139
2322.339
2633.73
2911.991
3150.73
3348.334
3506.619
3629.467
3721.597
3787.566
3831.07
3854.576
3859.255
3845.179
3811.701
3757.934
3683.245
3587.696
3472.375
3339.585
3192.875
3036.931
2877.332
2720.216
2571.892
2438.433
2325.282
2236.914
2176.568
2146.066
2145.728
2174.392
2229.508
2307.328
2403.144
2511.58
2626.898
2743.315
2855.299
2957.839
3046.661
3118.402
3170.712
3202.303
3212.933
3203.34
3175.124
3130.602
3072.611
3004.394
2929.128
2850.825
2769.666
2701.405
2589.957
1270.28
1844.309
2341.456
2755.236
3086.386
3340.731
3527.709
3658.906
3746.514
3801.912
3834.562
3851.315
3856.159
3850.388
3833.101
3801.944
3753.952
3686.378
3597.41
3486.69
3355.615
3207.384
3046.843
2880.145
2714.285
2556.576
2414.11
2293.259
2199.248
2135.837
2105.118
2107.43
2141.399
2204.078
2291.177
2397.356
2516.568
2642.414
2768.501
2888.775
2997.813
3091.061
3165.012
3217.308
3246.78
3253.417
3238.277
3203.346
3151.364
3085.615
3009.716
2927.398
2842.308
2757.81
2676.877
2601.848
2534.785
2475.7
2430.301
2372.797
3779.743
3869.539
3914.629
3924.423
3910.796
3885.155
3856.835
3831.996
3813.06
3798.801
3785.024
3765.618
3733.781
3683.231
3609.23
3509.324
3383.731
3235.367
3069.563
2893.542
2715.736
2545.036
2390.057
2258.491
2156.57
2088.699
2057.241
2062.465
2102.636
2174.221
2272.2
2390.423
2522.022