/*--------------------------------*- C++ -*----------------------------------*\
| =========                 |                                                 |
| \\      /  F ield         | OpenFOAM: The Open Source CFD Toolbox           |
|  \\    /   O peration     | Version:  2312                                  |
|   \\  /    A nd           | Website:  www.openfoam.com                      |
|    \\/     M anipulation  |                                                 |
\*---------------------------------------------------------------------------*/
FoamFile
{
    version     2.0;
    format      ascii;
    arch        "LSB;label=32;scalar=64";
    class       volScalarField;
    location    "5700";
    object      ILambda_11_0;
}
// * * * * * * * * * * * * * * * * * * * * * * * * * * * * * * * * * * * * * //

dimensions      [1 0 -3 0 0 0 0];

internalField   nonuniform List<scalar> 
12000
(
644.5231
642.7374
641.8717
640.7984
639.7838
638.7666
637.7644
636.776
635.8046
634.8524
633.9218
633.0147
632.1334
631.2797
630.4555
629.6625
628.9024
628.1766
627.4865
626.8333
626.2181
625.6419
625.1054
624.6094
624.1544
623.7408
623.369
623.039
622.7509
622.5047
622.3
622.1366
622.0141
621.9318
621.8891
621.8853
621.9194
621.9907
622.0979
622.24
622.4156
622.6234
622.8621
623.1303
623.4261
623.7479
624.094
624.4627
624.8521
625.2603
625.6851
626.1249
626.5778
627.0418
627.515
627.9958
628.4828
628.975
629.4718
629.9729
665.8854
664.5471
663.815
662.8949
661.9627
660.98
659.9582
658.8979
657.8022
656.6738
655.5159
654.3315
653.124
651.8965
650.6525
649.3955
648.1288
646.8559
645.5803
644.3054
643.0346
641.7711
640.5183
639.2794
638.0575
636.8555
635.6764
634.5229
633.3977
632.3033
631.2421
630.2164
629.2283
628.2797
627.3726
626.5086
625.6894
624.9164
624.1909
623.5142
622.8872
622.311
621.7862
621.3137
620.894
620.5276
620.2147
619.9555
619.7502
619.5986
619.5005
619.4557
619.4635
619.5236
619.6351
619.7975
620.0104
620.2738
620.5884
620.956
670.5478
670.4425
670.3479
670.202
670.0002
669.7432
669.4291
669.0575
668.6283
668.1416
667.5976
666.997
666.3408
665.6301
664.8664
664.0512
663.1866
662.2747
661.3178
660.3184
659.2793
658.2033
657.0935
655.953
654.7851
653.593
652.3801
651.15
649.9059
648.6514
647.3899
646.1247
644.8592
643.5966
642.3402
641.093
639.858
638.6382
637.4362
636.2549
635.0967
633.964
632.8592
631.7846
630.7422
629.7341
628.7623
627.8287
626.9352
626.0836
625.2756
624.5132
623.798
623.132
622.5172
621.9559
621.4507
621.0049
620.6236
620.3157
667.792
668.4744
668.8514
669.2915
669.6874
670.0604
670.4002
670.7051
670.9713
671.196
671.376
671.5086
671.5911
671.6211
671.5965
671.5154
671.376
671.1771
670.9176
670.5966
670.2139
669.7691
669.2627
668.695
668.067
667.3798
666.635
665.8343
664.9798
664.0738
663.119
662.1181
661.0742
659.9905
658.8703
657.7171
656.5344
655.3259
654.0951
652.8458
651.5815
650.3057
649.022
647.7337
646.444
645.1561
643.873
642.5973
641.3318
640.0789
638.841
637.6203
636.4189
635.2389
634.0824
632.9517
631.8494
630.7791
629.7466
628.763
661.3314
661.8738
662.2528
662.7154
663.1881
663.6844
664.197
664.7241
665.2622
665.8081
666.3582
666.9089
667.4563
667.9964
668.525
669.0381
669.5314
670.0006
670.4414
670.8497
671.2213
671.5522
671.8385
672.0766
672.263
672.3945
672.4681
672.4812
672.4317
672.3174
672.137
671.8893
671.5736
671.1896
670.7375
670.2179
669.6318
668.9806
668.2663
667.491
666.6574
665.7685
664.8274
663.8379
662.8036
661.7285
660.6168
659.4727
658.3004
657.1043
655.8886
654.6575
653.4152
652.1655
650.9123
649.6594
648.4106
647.1707
645.9468
644.7503
659.1867
658.8684
658.8191
658.7634
658.7581
658.7896
658.8615
658.9739
659.1277
659.3229
659.5599
659.8381
660.1572
660.5162
660.9137
661.3483
661.8178
662.32
662.8522
663.4112
663.9938
664.5961
665.2141
665.8435
666.4796
667.1177
667.7526
668.3792
668.9921
669.5859
670.1551
670.6942
671.1978
671.6607
672.0777
672.4438
672.7545
673.0053
673.1923
673.3118
673.3609
673.3368
673.2376
673.0616
672.808
672.4765
672.0675
671.5818
671.0212
670.3878
669.6846
668.915
668.0832
667.1937
666.2517
665.263
664.2341
663.173
662.09
660.9997
664.2656
663.3045
662.8916
662.3681
661.8862
661.4098
660.9498
660.5069
660.0841
659.6845
659.311
658.9665
658.6542
658.377
658.1377
657.9391
657.7839
657.6746
657.6133
657.6022
657.6428
657.7366
657.8847
658.0877
658.3458
658.6589
659.0262
659.4468
659.9189
660.4404
661.0086
661.6204
662.2721
662.9595
663.6778
664.422
665.1864
665.965
666.7515
667.539
668.3207
669.0893
669.8376
670.558
671.2432
671.8857
672.4785
673.0144
673.4869
673.8896
674.2168
674.4633
674.6246
674.697
674.6777
674.5648
674.358
674.0589
673.6721
673.2081
672.351
671.4076
670.9995
670.4547
669.9326
669.3895
668.8351
668.2668
667.6856
667.092
666.4871
665.8722
665.2489
664.619
663.9847
663.3485
662.7131
662.0815
661.4571
660.8433
660.2439
659.6629
659.1042
658.5722
658.0713
657.6056
657.1798
656.7981
656.4648
656.1841
655.96
655.7962
655.6962
655.663
655.6993
655.8075
655.9892
656.2456
656.5774
656.9844
657.466
658.0206
658.6461
659.3395
660.097
660.9141
661.7856
662.7053
663.6663
664.6612
665.6817
666.719
667.7637
668.806
669.8358
670.8428
671.817
672.7493
673.6321
674.462
679.1143
678.2627
677.9354
677.4951
677.0956
676.6903
676.2877
675.8821
675.4721
675.0552
674.6291
674.1917
673.7407
673.2743
672.7904
672.2875
671.7639
671.2185
670.65
670.0579
669.4417
668.8012
668.1369
667.4493
666.7397
666.0094
665.2605
664.4954
663.7169
662.9284
662.1335
661.3366
660.5422
659.7553
658.9812
658.2258
657.4949
656.7948
656.1319
655.5129
654.9444
654.433
653.9855
653.6081
653.3073
653.0889
652.9585
652.9213
652.9817
653.1437
653.4103
653.784
654.2663
654.8577
655.5579
656.3655
657.2784
658.2936
659.4082
660.6184
686.3624
685.1256
684.5883
683.9261
683.3316
682.7539
682.2049
681.681
681.1825
680.7086
680.2583
679.8304
679.4234
679.0355
678.6648
678.3088
677.9651
677.6308
677.303
676.9785
676.6541
676.3262
675.9914
675.6461
675.2867
674.9097
674.5116
674.0891
673.639
673.1583
672.6444
672.0947
671.5074
670.8807
670.2136
669.5052
668.7555
667.9648
667.1343
666.2656
665.361
664.4236
663.457
662.4658
661.455
660.4305
659.3987
658.367
657.343
656.3352
655.3524
654.4042
653.5003
652.6509
651.8665
651.1582
650.5369
650.0142
649.6026
649.3165
697.6189
696.0109
695.1954
694.2161
693.2814
692.3449
691.4202
690.5076
689.6108
688.7328
687.8766
687.0452
686.2412
685.467
684.7249
684.0169
683.3446
682.7094
682.1123
681.5538
681.0344
680.5538
680.1115
679.7066
679.3377
679.0031
678.7006
678.4275
678.1809
677.9574
677.7532
677.5643
677.3862
677.2142
677.0433
676.8684
676.6842
676.4852
676.2658
676.0206
675.7441
675.4309
675.0759
674.6742
674.2211
673.7124
673.1445
672.514
671.8183
671.0555
670.2243
669.3244
668.3563
667.3213
666.2218
665.0617
663.846
662.5819
661.2802
659.9625
710.0743
708.8979
708.2374
707.4333
706.6114
705.7463
704.8445
703.9072
702.9375
701.9386
700.9138
699.8669
698.8016
697.7221
696.6326
695.5373
694.4406
693.347
692.2609
691.187
690.1295
689.093
688.0818
687.1
686.1516
685.2405
684.3702
683.5441
682.7651
682.0359
681.3588
680.7357
680.168
679.6567
679.2023
678.8048
678.4636
678.1777
677.9453
677.7643
677.6319
677.5446
677.4986
677.4893
677.5117
677.5602
677.6289
677.711
677.7998
677.8878
677.9675
678.0307
678.0696
678.0758
678.0411
677.9576
677.8178
677.6158
677.3493
677.0268
716.4099
716.2767
716.196
716.0671
715.887
715.6548
715.3661
715.0202
714.6158
714.1523
713.6295
713.0475
712.4066
711.7077
710.9518
710.1403
709.275
708.3577
707.3911
706.3776
705.3205
704.2229
703.0886
701.9215
700.7257
699.5057
698.2663
697.0123
695.7489
694.4813
693.2149
691.9554
690.7083
689.4793
688.2741
687.0983
685.9575
684.8572
683.8027
682.7992
681.8515
680.9642
680.1416
679.3876
678.7056
678.0988
677.5695
677.1198
676.7508
676.4633
676.2573
676.1321
676.0863
676.1178
676.2239
676.4011
676.6457
676.9538
677.3233
677.7528
714.1678
714.6977
715.0775
715.4904
715.8824
716.2577
716.6087
716.9322
717.2241
717.4809
717.6992
717.8756
718.0071
718.0905
718.1231
718.1021
718.0251
717.8896
717.6937
717.4355
717.1133
716.7261
716.2726
715.7522
715.1646
714.5097
713.7877
712.9993
712.1456
711.2278
710.2477
709.2076
708.1098
706.9573
705.7535
704.502
703.2068
701.8725
700.5039
699.106
697.6844
696.2448
694.7935
693.3367
691.881
690.4332
689.0003
687.5894
686.2076
684.8621
683.56
682.3083
681.1143
679.9846
678.9263
677.946
677.0504
676.2465
675.5415
674.9386
709.1789
709.3923
709.6964
710.0234
710.392
710.7871
711.2081
711.6506
712.1117
712.588
713.0763
713.5732
714.0753
714.5789
715.0804
715.5761
716.0622
716.5346
716.9896
717.4233
717.8315
718.2106
718.5565
718.8655
719.1338
719.3576
719.5335
719.6578
719.7273
719.7388
719.6894
719.5761
719.3965
719.1483
718.8294
718.438
717.9728
717.4325
716.8165
716.1243
715.356
714.5118
713.5927
712.5999
711.5351
710.4004
709.1983
707.932
706.6048
705.2206
703.7837
702.2989
700.7714
699.207
697.6118
695.9927
694.3574
692.7145
691.0736
689.4457
709.6298
708.8466
708.6318
708.349
708.1528
707.9987
707.8965
707.8426
707.8371
707.8792
707.968
708.1026
708.2819
708.5046
708.7692
709.0738
709.4165
709.7951
710.2072
710.6504
711.1218
711.6186
712.1377
712.6758
713.2295
713.7951
714.3691
714.9476
715.5265
716.1018
716.6694
717.225
717.7644
718.2831
718.7769
719.2414
719.6724
720.0655
720.4166
720.7214
720.9761
721.1767
721.3195
721.4009
721.4176
721.3664
721.2444
721.049
720.7777
720.4282
719.9987
719.4877
718.8938
718.2164
717.4553
716.6106
715.6833
714.676
713.593
712.4465
719.0884
717.3772
716.6066
715.6675
714.8164
713.9891
713.2024
712.4538
711.7459
711.0803
710.4588
709.883
709.3546
708.875
708.4456
708.0675
707.7417
707.469
707.2498
707.0848
706.974
706.9175
706.9151
706.9663
707.0705
707.2267
707.4337
707.6902
707.9944
708.3445
708.7384
709.1737
709.6478
710.1579
710.701
711.2739
711.8733
712.4955
713.1368
713.7934
714.4614
715.1365
715.8147
716.4916
717.1629
717.8242
718.4712
719.0993
719.704
720.2808
720.825
721.3323
721.7981
722.2182
722.5885
722.9051
723.1644
723.3639
723.5034
723.5918
734.8264
732.8119
731.7996
730.5745
729.4037
728.2237
727.0505
725.8822
724.7219
723.5716
722.4339
721.3116
720.2073
719.1238
718.064
717.0305
716.0262
715.0538
714.1161
713.2157
712.3554
711.5378
710.7652
710.0402
709.3649
708.7414
708.1716
707.6573
707.2
706.8011
706.4616
706.1824
705.9642
705.8073
705.7119
705.6779
705.7048
705.7921
705.9387
706.1436
706.4054
706.7223
707.0925
707.5138
707.9838
708.5001
709.0598
709.6599
710.2972
710.9683
711.6695
712.3969
713.1468
713.9152
714.6981
715.4918
716.2926
717.0974
717.9057
718.724
750.8981
749.2395
748.3731
747.3215
746.2853
745.2176
744.1279
743.0143
741.8781
740.7203
739.5422
738.3453
737.1314
735.9022
734.6596
733.4059
732.1431
730.8737
729.6002
728.3252
727.0516
725.7822
724.5201
723.2685
722.0304
720.8093
719.6084
718.4311
717.2807
716.1607
715.0744
714.025
713.0159
712.0502
711.131
710.2612
709.4438
708.6812
707.9761
707.3307
706.7471
706.2272
705.7725
705.3845
705.0643
704.8126
704.6301
704.5169
704.473
704.4979
704.5907
704.7505
704.9757
705.2648
705.6162
706.0279
706.4985
707.0268
707.6144
708.2678
762.4744
761.4783
760.9725
760.3454
759.711
759.0423
758.3423
757.6095
756.8436
756.0443
755.2116
754.3455
753.4461
752.5136
751.5483
750.5504
749.5203
748.4586
747.3659
746.243
745.0908
743.9103
742.7028
741.4696
740.2123
738.9326
737.6325
736.3138
734.9791
733.6305
732.2709
730.903
729.5297
728.1543
726.7801
725.4106
724.0494
722.7003
721.3671
720.054
718.7648
717.5038
716.2751
715.0828
713.9311
712.8241
711.7657
710.7597
709.81
708.9197
708.0922
707.3303
706.6366
706.0136
705.4636
704.9885
704.5905
704.2725
704.0389
703.8972
767.8617
767.5346
767.4185
767.2412
767.0463
766.8211
766.5656
766.2788
765.9604
765.6102
765.2279
764.8134
764.3668
763.8878
763.3764
762.8325
762.2557
761.646
761.003
760.3265
759.6163
758.8719
758.0932
757.2799
756.4316
755.548
754.629
753.6742
752.6837
751.6572
750.5949
749.4969
748.3635
747.1951
745.9924
744.7562
743.4876
742.1879
740.8587
739.5017
738.1191
736.7132
735.2869
733.843
732.3849
730.9163
729.4409
727.9631
726.487
725.0174
723.5588
722.1162
720.6946
719.2993
717.9357
716.6094
715.3264
714.0935
712.9186
711.8094
767.3441
767.6185
767.8602
768.094
768.3055
768.4902
768.6465
768.773
768.8687
768.9333
768.9663
768.9676
768.9373
768.8756
768.7826
768.6587
768.5042
768.3195
768.105
767.861
767.588
767.2863
766.9563
766.5982
766.2121
765.7982
765.3563
764.8863
764.388
763.8608
763.3044
762.7179
762.1007
761.4519
760.7705
760.0554
759.3056
758.5199
757.697
756.836
755.9356
754.9948
754.0127
752.9885
751.9216
750.8115
749.658
748.4613
747.2217
745.9397
744.6162
743.2526
741.8506
740.4124
738.9408
737.4392
735.9118
734.3637
732.8015
731.2319
762.1975
762.8228
763.2972
763.8132
764.3235
764.8255
765.3158
765.7904
766.2468
766.6823
767.0948
767.4822
767.8428
768.1752
768.4781
768.7504
768.9914
769.2004
769.3772
769.5215
769.6333
769.7131
769.7611
769.7779
769.7644
769.7213
769.6495
769.55
769.4239
769.2722
769.0958
768.8959
768.6733
768.4289
768.1634
767.8773
767.5711
767.2452
766.8994
766.5338
766.1478
765.741
765.3126
764.8614
764.3862
763.8856
763.3577
762.8006
762.2123
761.5903
760.9321
760.235
759.4964
758.7137
757.8844
757.0063
756.0777
755.0974
754.0657
752.9858
756.2001
756.5173
756.869
757.2687
757.7094
758.1793
758.6768
759.1969
759.7363
760.2912
760.8582
761.4336
762.0138
762.5953
763.1745
763.748
764.3125
764.8646
765.4013
765.9195
766.4166
766.8898
767.337
767.7561
768.1451
768.5026
768.8273
769.1183
769.3748
769.5965
769.7833
769.9355
770.0534
770.1379
770.19
770.211
770.2023
770.1657
770.1028
770.0158
769.9066
769.7774
769.6302
769.4673
769.2905
769.102
768.9034
768.6964
768.4821
768.2616
768.0355
767.8038
767.5666
767.3233
767.0732
766.8152
766.548
766.2707
765.9828
765.6894
755.5939
754.9544
754.7816
754.5839
754.4641
754.3927
754.3757
754.4106
754.4976
754.6357
754.8241
755.0618
755.3471
755.6784
756.0535
756.4701
756.9255
757.4167
757.9406
758.4935
759.0719
759.6718
760.2892
760.92
761.5598
762.2043
762.8491
763.49
764.1227
764.7428
765.3465
765.9298
766.489
767.0208
767.522
767.9899
768.422
768.8163
769.1712
769.4854
769.7582
769.9893
770.1788
770.3275
770.4363
770.5068
770.541
770.5411
770.5099
770.4502
770.3653
770.2585
770.1334
769.994
769.8443
769.6886
769.5313
769.3778
769.2352
769.1177
763.507
762.1193
761.4641
760.6877
759.9654
759.2592
758.5795
757.9281
757.3087
756.7248
756.1802
755.6782
755.2224
754.8159
754.4615
754.162
753.9197
753.7365
753.6142
753.5538
753.5561
753.6216
753.75
753.9408
754.1929
754.5047
754.8742
755.299
755.7761
756.302
756.8731
757.4851
758.1336
758.8136
759.5201
760.2478
760.991
761.7442
762.5016
763.2574
764.0059
764.7416
765.4588
766.1523
766.8172
767.4486
768.0423
768.5944
769.1013
769.5599
769.9678
770.3229
770.6238
770.87
771.0616
771.1996
771.2862
771.325
771.3244
771.3016
774.9082
773.787
773.2093
772.4982
771.7796
771.0257
770.2416
769.4285
768.589
767.7261
766.8433
765.9447
765.0345
764.1174
763.1982
762.282
761.3741
760.4799
759.6049
758.7547
757.9347
757.1504
756.4073
755.7104
755.0647
754.4751
753.9459
753.4812
753.0848
752.7597
752.5089
752.3345
752.2385
752.2218
752.2851
752.4284
752.6511
752.952
753.329
753.7799
754.3014
754.89
755.5413
756.2505
757.0124
757.8211
758.6705
759.5539
760.4644
761.3945
762.3368
763.2834
764.2266
765.1588
766.0723
766.96
767.8155
768.6335
769.4129
770.1609
781.5324
781.2301
781.1404
780.9931
780.8251
780.6194
780.3727
780.0812
779.7417
779.3519
778.9099
778.4144
777.8645
777.2599
776.6008
775.888
775.1228
774.3068
773.4425
772.5326
771.5805
770.5899
769.5652
768.5111
767.4328
766.3357
765.2257
764.109
762.9921
761.8816
760.7845
759.7077
758.6583
757.6434
756.67
755.745
754.8753
754.0673
753.3273
752.6614
752.075
751.5731
751.1604
750.8408
750.6178
750.494
750.4714
750.5514
750.7343
751.0198
751.4066
751.8927
752.475
753.1502
753.9139
754.7611
755.6867
756.6854
757.7524
758.8844
782.8065
782.5516
782.6198
782.6652
782.7595
782.8708
782.9981
783.1337
783.272
783.4071
783.5334
783.6452
783.7369
783.8032
783.8387
783.8385
783.7977
783.7115
783.5758
783.3864
783.1398
782.8328
782.4625
782.0266
781.5234
780.9516
780.3104
779.5997
778.8201
777.9727
777.0592
776.0821
775.0443
773.9497
772.8025
771.6077
770.3709
769.0982
767.7964
766.4725
765.1343
763.7898
762.4475
761.1161
759.8044
758.5217
757.2771
756.0797
754.9387
753.8628
752.8606
751.9404
751.11
750.377
749.7484
749.2308
748.8303
748.5529
748.403
748.3811
787.8048
786.3708
785.8814
785.2695
784.7884
784.3667
784.0182
783.7364
783.5199
783.3657
783.2711
783.2328
783.2474
783.3109
783.4191
783.5675
783.7511
783.9646
784.2027
784.4594
784.7288
785.0046
785.2803
785.5493
785.8051
786.0408
786.2499
786.4256
786.5614
786.651
786.6882
786.6672
786.5824
786.4289
786.2019
785.8974
785.5117
785.0421
784.4861
783.8425
783.1102
782.2894
781.3809
780.3863
779.3082
778.1499
776.9156
775.6103
774.2398
772.8108
771.3304
769.8066
768.2481
766.6643
765.0652
763.4616
761.8648
760.2871
758.7412
757.2385
804.2546
801.4933
800.227
798.683
797.2761
795.9041
794.594
793.3423
792.1535
791.0302
789.9753
788.9916
788.0813
787.2467
786.4896
785.8115
785.2135
784.6962
784.2598
783.9041
783.6284
783.4313
783.3111
783.2655
783.2915
783.3857
783.5442
783.7624
784.0354
784.3575
784.7228
785.1247
785.5564
786.0105
786.4794
786.9552
787.4296
787.8943
788.3408
788.7606
789.145
789.4857
789.7744
790.003
790.1637
790.2492
790.2527
790.1677
789.9886
789.71
789.3277
788.838
788.2382
787.5267
786.703
785.7676
784.7226
783.572
782.3225
780.9885
828.5794
825.6659
824.1789
822.3623
820.6101
818.8288
817.0432
815.2516
813.4596
811.6713
809.8917
808.1258
806.3787
804.6558
802.9622
801.3035
799.6851
798.1122
796.5903
795.1245
793.7199
792.3815
791.114
789.9218
788.8093
787.7801
786.838
785.9861
785.227
784.563
783.9958
783.5267
783.1563
782.8845
782.7107
782.6337
782.6516
782.7616
782.9604
783.244
783.6075
784.0455
784.5518
785.1196
785.7412
786.4087
787.1132
787.8455
788.5958
789.3538
790.1089
790.8501
791.5663
792.2466
792.88
793.4558
793.9638
794.3952
794.7441
795.0149
849.0403
847.3343
846.3949
845.2319
844.045
842.7858
841.4646
840.0803
838.6353
837.1317
835.5722
833.9595
832.297
830.5879
828.8361
827.0453
825.2198
823.3638
821.4819
819.579
817.6601
815.7303
813.795
811.86
809.9309
808.0137
806.1146
804.2398
802.3956
800.5886
798.8252
797.112
795.4557
793.8627
792.3395
790.8926
789.528
788.2518
787.0697
785.9871
785.009
784.1401
783.3843
782.7452
782.2257
781.8282
781.554
781.4039
781.3777
781.4742
781.6913
782.0259
782.474
783.0307
783.6901
784.4455
785.2895
786.2142
787.2133
788.285
856.1574
856.2594
856.2669
856.2418
856.1321
855.9463
855.6784
855.3286
854.8961
854.381
853.7836
853.1043
852.3439
851.5032
850.5831
849.5849
848.5097
847.3591
846.1345
844.8376
843.4703
842.0343
840.5318
838.9652
837.3367
835.649
833.9049
832.1075
830.2601
828.3661
826.4295
824.4543
822.445
820.4062
818.3432
816.2612
814.1661
812.064
809.9614
807.8651
805.7824
803.7207
801.6878
799.6919
797.7412
795.8444
794.0101
792.2472
790.5643
788.9703
787.4737
786.0829
784.8061
783.6513
782.6262
781.738
780.9937
780.4001
779.9646
779.6949
847.8474
849.5881
850.5152
851.5963
852.5685
853.4868
854.3314
855.1035
855.7995
856.4181
856.9576
857.417
857.7955
858.0924
858.3072
858.4398
858.4899
858.4578
858.3435
858.1473
857.8694
857.5103
857.0704
856.5502
855.9501
855.2707
854.5124
853.6758
852.7614
851.7697
850.7013
849.5568
848.3368
847.0419
845.6729
844.2307
842.7161
841.1303
839.4746
837.7504
835.9594
834.1037
832.1856
830.2078
828.1734
826.0858
823.9491
821.7678
819.5467
817.2914
815.0078
812.7027
810.3833
808.0576
805.7346
803.4237
801.1356
798.8823
796.6779
794.5394
828.0209
830.638
832.1369
833.9123
835.609
837.2978
838.9525
840.5719
842.1497
843.6815
845.163
846.5903
847.9597
849.2679
850.512
851.6894
852.7976
853.8345
854.7985
855.6879
856.5016
857.2386
857.8982
858.4798
858.9833
859.4085
859.7555
860.0247
860.2164
860.331
860.3692
860.3316
860.2189
860.0317
859.7706
859.4363
859.0293
858.5499
857.9985
857.3753
856.6802
855.9133
855.0743
854.1626
853.1778
852.1191
850.9857
849.7767
848.4909
847.1272
845.6843
844.1611
842.5566
840.87
839.1009
837.2493
835.316
833.3033
831.2158
829.0636
805.2572
807.4305
808.8233
810.4896
812.1674
813.9025
815.6745
817.48
819.3119
821.1643
823.0312
824.9064
826.7841
828.6582
830.523
832.3727
834.2015
836.0038
837.7744
839.5079
841.1995
842.8442
844.4377
845.9756
847.4542
848.8699
850.2194
851.5
852.7093
853.845
854.9057
855.8899
856.797
857.6263
858.3778
859.0517
859.6487
860.1696
860.6156
860.9882
861.2891
861.5199
861.6827
861.7796
861.8125
861.7835
861.6945
861.5474
861.3436
861.0845
860.7709
860.4035
859.9826
859.5081
858.9796
858.3964
857.7574
857.062
856.3102
855.5039
791.0555
791.5191
792.0608
792.7208
793.4863
794.3478
795.3041
796.3519
797.489
798.7126
800.02
801.4079
802.8729
804.411
806.018
807.6894
809.4203
811.2053
813.0391
814.9156
816.8288
818.7724
820.7397
822.7242
824.7189
826.717
828.7114
830.6953
832.6617
834.6038
836.515
838.3887
840.2186
841.999
843.724
845.3885
846.9876
848.517
849.9727
851.3515
852.6504
853.8672
855.0004
856.0488
857.012
857.8902
858.6842
859.3954
860.0256
860.5771
861.0529
861.4561
861.7907
862.0607
862.2709
862.4262
862.532
862.5943
862.6197
862.6167
792.7872
791.4251
790.9241
790.3265
789.8531
789.446
789.1218
788.8797
788.7237
788.6568
788.682
788.8022
789.0198
789.337
789.7559
790.2777
790.9035
791.634
792.4692
793.4088
794.4518
795.597
796.8423
798.1853
799.6231
801.152
802.7681
804.4669
806.2432
808.0915
810.0058
811.9796
814.0061
816.078
818.1877
820.3274
822.4889
824.6638
826.8437
829.0199
831.1837
833.3266
835.4399
837.5152
839.5442
841.5191
843.4321
845.2761
847.0442
848.73
850.3279
851.8326
853.2399
854.5463
855.7493
856.8473
857.8402
858.7298
859.5202
860.2248
806.4032
804.4652
803.5221
802.3708
801.2781
800.1782
799.0902
798.0141
796.956
795.9208
794.9141
793.9415
793.0089
792.1221
791.2869
790.5094
789.7952
789.1501
788.5797
788.0894
787.6845
787.3699
787.1505
787.0306
787.0145
787.1058
787.3079
787.6239
788.0562
788.6069
789.2774
790.0689
790.9816
792.0154
793.1697
794.4431
795.8335
797.3384
798.9544
800.6776
802.5034
804.4266
806.4412
808.5406
810.7178
812.9648
815.2734
817.6347
820.039
822.4765
824.9366
827.4084
829.8811
832.3433
834.7837
837.1911
839.5547
841.865
844.1161
846.3129
819.32
818.2889
817.745
817.0553
816.3406
815.5671
814.7416
813.8636
812.9353
811.9593
810.9386
809.8764
808.7767
807.6435
806.4812
805.2944
804.0882
802.8678
801.6386
800.4063
799.1767
797.9559
796.7502
795.5658
794.4093
793.2873
792.2063
791.1731
790.1945
789.2772
788.4278
787.6531
786.9596
786.3536
785.8416
785.4295
785.1234
784.9286
784.8507
784.8945
785.0646
785.3652
785.8001
786.3724
787.0848
787.9394
788.9377
790.0805
791.3679
792.7991
794.3726
796.086
797.9363
799.9198
802.0319
804.267
806.6194
809.0828
811.6532
814.3308
821.5493
821.9528
822.1886
822.4362
822.6199
822.749
822.8146
822.8153
822.7487
822.6134
822.4082
822.1324
821.7857
821.3679
820.8793
820.3204
819.6922
818.9958
818.2327
817.4047
816.5138
815.5626
814.5538
813.4903
812.3755
811.2132
810.0072
808.7618
807.4815
806.1712
804.836
803.4813
802.1128
800.7363
799.358
797.9843
796.6219
795.2775
793.9581
792.671
791.4235
790.2229
789.077
787.9933
786.9795
786.0434
785.1928
784.4353
783.7784
783.2296
782.796
782.4848
782.3029
782.2569
782.3533
782.5986
782.9989
783.5598
784.2883
785.1902
812.7123
813.9949
814.7765
815.695
816.5681
817.4291
818.2607
819.0613
819.8259
820.5509
821.2326
821.8676
822.4527
822.9848
823.4608
823.8781
824.234
824.5261
824.7521
824.9099
824.9978
825.0141
824.9574
824.8266
824.6208
824.3394
823.982
823.5486
823.0394
822.455
821.7961
821.0639
820.2597
819.3855
818.4431
817.435
816.3639
815.2328
814.045
812.8041
811.5139
810.1789
808.8034
807.3923
805.9507
804.4839
802.9977
801.4978
799.9904
798.4817
796.9783
795.4869
794.0145
792.5685
791.1565
789.7864
788.467
787.2073
786.0171
784.9064
799.6816
800.876
801.6844
802.65
803.6195
804.6198
805.6366
806.6686
807.7115
808.7623
809.8175
810.8737
811.9276
812.9756
814.0142
815.0398
816.0487
817.0371
818.0013
818.9376
819.8421
820.7111
821.5409
822.3278
823.0682
823.7586
824.3957
824.9761
825.4968
825.9548
826.3475
826.6722
826.9266
827.1088
827.2168
827.2491
827.2045
827.0819
826.8807
826.6005
826.2411
825.8027
825.2859
824.6915
824.0205
823.2745
822.4551
821.5642
820.604
819.5769
818.4856
817.3329
816.1219
814.8563
813.5399
812.1767
810.7716
809.3304
807.8599
806.3685
789.9444
790.426
790.874
791.41
791.9881
792.6105
793.2728
793.9743
794.7138
795.4907
796.3041
797.153
798.0365
798.9531
799.9016
800.8803
801.8874
802.9207
803.9781
805.0569
806.1546
807.2682
808.3945
809.5303
810.672
811.816
812.9585
814.0954
815.2229
816.3365
817.4323
818.5058
819.5528
820.5691
821.5502
822.4921
823.3906
824.2418
825.0418
825.7869
826.4735
827.0984
827.6585
828.1511
828.5735
828.9236
829.1993
829.3991
829.5216
829.5656
829.5302
829.4151
829.2202
828.9459
828.5929
828.1623
827.6561
827.077
826.4295
825.7211
786.4565
786.2984
786.3697
786.4456
786.5654
786.7106
786.8846
787.0865
787.3178
787.5796
787.8735
788.2009
788.5632
788.9619
789.3983
789.8739
790.3896
790.9466
791.5458
792.1877
792.873
793.6018
794.3743
795.1903
796.0492
796.9506
797.8932
798.876
799.8973
800.9552
802.0477
803.1723
804.3263
805.5066
806.71
807.9329
809.1716
810.4221
811.6801
812.9411
814.2007
815.454
816.6963
817.9226
819.128
820.3075
821.4561
822.5689
823.6411
824.6677
825.6441
826.5658
827.4285
828.2286
828.9625
829.6272
830.2204
830.7409
831.1895
831.5728
786.7787
786.492
786.4479
786.3786
786.331
786.283
786.2387
786.1963
786.157
786.1217
786.0918
786.0688
786.0543
786.0502
786.0583
786.0808
786.1197
786.1772
786.2556
786.3573
786.4846
786.6398
786.8255
787.0439
787.2974
787.5885
787.9193
788.2919
788.7085
789.171
789.6812
790.2405
790.8505
791.5122
792.2265
792.9942
793.8154
794.6903
795.6185
796.5993
797.6318
798.7144
799.8455
801.0229
802.2439
803.5056
804.8047
806.1374
807.4995
808.8863
810.293
811.7143
813.1448
814.5788
816.0107
817.4346
818.8452
820.2377
821.6099
822.9668
786.5882
786.5681
786.6467
786.7245
786.8035
786.8728
786.932
786.9791
787.0141
787.0367
787.0472
787.0456
787.0325
787.0081
786.9731
786.928
786.8737
786.811
786.7409
786.6643
786.5826
786.4969
786.409
786.3202
786.2325
786.1477
786.0679
785.9955
785.9327
785.8822
785.8467
785.829
785.8321
785.8591
785.9133
785.9978
786.1161
786.2716
786.4676
786.7075
786.9947
787.3323
787.7236
788.1714
788.6785
789.2476
789.8807
790.5799
791.3466
792.1819
793.0864
794.0603
795.1032
796.2146
797.3933
798.6378
799.9463
801.3173
802.7521
804.2577
783.5096
783.851
784.1267
784.4401
784.7414
785.0345
785.3141
785.5797
785.8307
786.067
786.2883
786.4948
786.6864
786.8633
787.0256
787.1731
787.306
787.4243
787.5278
787.6165
787.6903
787.749
787.7926
787.8208
787.8335
787.8307
787.8124
787.7785
787.7292
787.6646
787.5852
787.4914
787.3838
787.2633
787.1309
786.988
786.836
786.6767
786.5121
786.3446
786.1767
786.0114
785.8518
785.7014
785.5639
785.4434
785.344
785.2703
785.2266
785.2178
785.2485
785.3236
785.4481
785.6269
785.8653
786.1681
786.5406
786.9884
787.5193
788.1461
777.39
778.0513
778.5179
779.0558
779.5754
780.09
780.5903
781.0763
781.5463
782
782.437
782.8573
783.2611
783.6486
784.0202
784.3762
784.7173
785.0439
785.3565
785.6558
785.9421
786.216
786.4778
786.7278
786.9662
787.1932
787.4087
787.6127
787.8049
787.9849
788.1523
788.3064
788.4466
788.5722
788.6821
788.7755
788.8515
788.9091
788.9472
788.9649
788.9614
788.9358
788.8876
788.8163
788.7216
788.6035
788.4622
788.2982
788.1123
787.9056
787.6797
787.4363
787.1779
786.9076
786.6287
786.3454
786.0627
785.7866
785.5244
785.2879
769.4438
770.1427
770.6822
771.3107
771.9456
772.5943
773.2463
773.8987
774.5477
775.1906
775.8248
776.4483
777.059
777.6556
778.2365
778.8007
779.3475
779.8762
780.3865
780.8784
781.3518
781.8072
782.245
782.6658
783.0706
783.46
783.8353
784.1975
784.5477
784.887
785.2167
785.5378
785.8514
786.1584
786.4597
786.7559
787.0477
787.3354
787.619
787.8987
788.174
788.4444
788.7092
788.9674
789.2176
789.4584
789.6882
789.9048
790.1063
790.2901
790.4538
790.5948
790.7106
790.7988
790.857
790.8832
790.876
790.8347
790.7593
790.6511
763.8266
763.7862
764.0053
764.2666
764.6048
764.9962
765.4378
765.9235
766.4488
767.0092
767.6005
768.2184
768.8587
769.5172
770.19
770.873
771.5624
772.2545
772.9458
773.633
774.3129
774.9826
775.6396
776.2816
776.9064
777.5124
778.0982
778.6626
779.205
779.725
780.2224
780.6976
781.1511
781.5838
781.9968
782.3917
782.7701
783.1338
783.485
783.8258
784.1585
784.4855
784.8093
785.1321
785.4562
785.7838
786.1169
786.4572
786.8062
787.1648
787.5338
787.9135
788.3038
788.7046
789.1149
789.5336
789.9596
790.3915
790.8284
791.2671
767.8098
766.2064
765.6149
764.9172
764.3662
763.89
763.5022
763.1967
762.973
762.8293
762.7639
762.7749
762.8598
763.0161
763.2409
763.531
763.8828
764.2925
764.7562
765.2695
765.8279
766.4269
767.0616
767.7271
768.4185
769.1307
769.8588
770.5978
771.3428
772.0892
772.8324
773.568
774.292
775.0007
775.6905
776.3585
777.002
777.6186
778.2068
778.7651
779.2927
779.7895
780.2555
780.6915
781.0988
781.479
781.8343
782.1673
782.4809
782.7783
783.0631
783.3391
783.6105
783.8815
784.1567
784.4409
784.7388
785.056
785.399
785.7747
785.5221
782.5102
781.0912
779.3872
777.828
776.3067
774.8506
773.4561
772.1283
770.8703
769.6858
768.578
767.5501
766.6048
765.7446
764.9716
764.2877
763.6941
763.1919
762.7813
762.4626
762.2352
762.0982
762.0502
762.0894
762.2133
762.4192
762.7038
763.0634
763.4937
763.9902
764.5481
765.162
765.8263
766.5352
767.2826
768.0624
768.868
769.6932
770.5313
771.3761
772.2213
773.0606
773.8882
774.6986
775.4863
776.2467
776.9751
777.6677
778.321
778.9321
779.4989
780.0199
780.4944
780.9228
781.3061
781.6465
781.9483
782.2185
782.473
810.9537
807.8984
806.3375
804.4287
802.5845
800.7047
798.8147
796.9125
795.0041
793.0943
791.1885
789.2925
787.4121
785.5531
783.7216
781.9235
780.165
778.4519
776.7902
775.1857
773.644
772.1706
770.7708
769.4496
768.2117
767.0616
766.0033
765.0405
764.1765
763.4139
762.7551
762.202
761.7556
761.4168
761.1855