/*--------------------------------*- C++ -*----------------------------------*\
| =========                 |                                                 |
| \\      /  F ield         | OpenFOAM: The Open Source CFD Toolbox           |
|  \\    /   O peration     | Version:  2312                                  |
|   \\  /    A nd           | Website:  www.openfoam.com                      |
|    \\/     M anipulation  |                                                 |
\*---------------------------------------------------------------------------*/
FoamFile
{
    version     2.0;
    format      ascii;
    arch        "LSB;label=32;scalar=64";
    class       volScalarField;
    location    "5700";
    object      omega;
}
// * * * * * * * * * * * * * * * * * * * * * * * * * * * * * * * * * * * * * //

dimensions      [0 0 -1 0 0 0 0];

internalField   nonuniform List<scalar> 
12000
(
51.80098
16.96861
18.33132
19.74057
20.87308
21.89252
22.72364
23.45419
24.11434
24.73453
25.27085
25.72245
26.13864
26.54696
26.91586
27.21249
27.47622
27.73966
27.98734
28.17728
28.33247
28.49004
28.63962
28.74362
28.81346
28.88385
28.94548
28.97241
28.9737
28.97224
28.94993
28.91645
28.85858
28.7893
28.62811
28.43731
28.29632
28.22738
28.05425
27.68959
27.1667
26.80769
26.75016
26.71936
26.09452
25.13576
24.79172
24.65968
24.54776
23.34178
22.33769
22.02436
21.63921
20.66738
19.54589
18.64352
17.68794
16.65794
15.51889
37.36658
91.49521
19.85872
18.80381
19.40422
19.50836
19.71863
19.71196
19.28609
18.86499
18.39088
17.8326
17.27738
16.82547
16.31926
15.65663
15.05267
14.77018
14.43185
13.84789
13.274
13.09526
12.92247
12.46414
11.98854
11.87859
11.81448
11.51712
11.20714
11.15299
11.13116
11.01554
10.87976
10.84186
10.84398
10.91833
11.02865
11.06697
11.07515
11.1246
11.39409
11.79053
12.02346
12.02078
12.0342
12.60022
13.46187
13.86787
14.02872
14.25893
15.58366
16.92384
17.66474
18.29373
20.158
22.40406
24.6293
28.19885
34.70654
47.67852
69.74197
94.05947
20.23514
17.89911
17.47136
16.92077
16.24834
15.58016
14.8277
14.04021
13.26412
12.51321
11.86862
11.28725
10.75418
10.29879
9.921789
9.593907
9.276088
8.993457
8.773484
8.599269
8.428643
8.272083
8.159992
8.085302
8.014782
7.950745
7.915502
7.907265
7.906302
7.912321
7.927354
7.964362
8.022121
8.089647
8.165015
8.244099
8.333724
8.444225
8.577387
8.719705
8.860916
9.010542
9.194958
9.405077
9.637723
9.887629
10.16649
10.49056
10.85256
11.30837
11.89756
12.57913
13.42711
14.51614
16.32286
19.66509
25.91129
41.45062
76.07289
95.87092
19.46541
16.12847
15.57325
14.76341
13.90275
13.04085
12.17141
11.3314
10.60018
9.999822
9.454764
8.947757
8.514692
8.159402
7.85589
7.592678
7.361524
7.169797
7.012794
6.881426
6.770607
6.681582
6.61404
6.563616
6.526826
6.504069
6.498474
6.500607
6.516568
6.542016
6.573657
6.618716
6.679077
6.748019
6.826636
6.915637
7.015638
7.128075
7.254206
7.394782
7.55006
7.72087
7.910458
8.123719
8.370198
8.649401
8.968321
9.337389
9.773764
10.30282
10.89118
11.5529
12.43998
13.63573
15.4541
18.33046
23.79291
37.92631
81.20861
97.64573
18.68951
14.82256
14.08833
13.16948
12.23302
11.32167
10.46668
9.706125
9.049625
8.508301
8.048248
7.649184
7.295683
6.982994
6.719121
6.496276
6.307885
6.149219
6.018107
5.909726
5.821263
5.751107
5.697599
5.658886
5.633513
5.622165
5.620951
5.630696
5.651525
5.679664
5.716669
5.765912
5.8251
5.893236
5.970947
6.05832
6.155299
6.262302
6.379893
6.508669
6.649267
6.803048
6.969955
7.152699
7.352912
7.573478
7.824032
8.113375
8.447847
8.820129
9.253567
9.831149
10.6176
11.71481
13.32398
15.99135
21.26333
35.42829
84.92574
99.29437
18.78933
13.79793
12.86913
11.92511
10.99658
10.12892
9.348343
8.670862
8.089295
7.590024
7.162718
6.795036
6.488196
6.222117
5.985575
5.785891
5.618611
5.478148
5.360912
5.264298
5.186247
5.125092
5.07937
5.047784
5.029251
5.024438
5.028533
5.044158
5.070264
5.10626
5.151685
5.206989
5.27243
5.346299
5.429165
5.522626
5.626052
5.739569
5.863705
5.999162
6.146853
6.308006
6.484461
6.678315
6.887911
7.124488
7.392513
7.685268
8.010931
8.399227
8.877765
9.475073
10.24155
11.27777
12.79382
15.26548
20.09013
33.33585
87.77286
100.884
18.79533
13.01873
11.89296
10.95669
10.07247
9.26671
8.553878
7.936582
7.405613
6.949167
6.557211
6.220804
5.931139
5.688161
5.479358
5.295502
5.139288
5.007943
4.899058
4.810253
4.7396
4.685507
4.646632
4.621832
4.612206
4.612013
4.623828
4.646983
4.680849
4.724985
4.778546
4.841416
4.914124
4.996312
5.087328
5.187682
5.297651
5.417361
5.547052
5.687076
5.837938
6.000321
6.175316
6.363557
6.570291
6.794976
7.034247
7.29836
7.600361
7.955167
8.382154
8.914331
9.608478
10.56722
11.99462
14.36528
19.06457
32.05007
89.93525
102.6566
19.00701
12.45947
11.12204
10.1979
9.36773
8.622832
7.967573
7.399272
6.908988
6.486277
6.121914
5.80791
5.537421
5.304558
5.108757
4.942994
4.798858
4.676315
4.574805
4.492786
4.428734
4.381223
4.34901
4.331018
4.32707
4.334229
4.353291
4.383603
4.424625
4.475925
4.537454
4.608543
4.688761
4.778237
4.876946
4.984914
5.102225
5.228967
5.365277
5.511376
5.667631
5.834729
6.013206
6.206313
6.413832
6.634623
6.87547
7.14346
7.44749
7.800749
8.223934
8.749342
9.430239
10.36199
11.73453
13.98832
18.4223
30.7831
91.46412
104.0914
19.08816
12.07069
10.52185
9.597395
8.81602
8.126869
7.522916
6.997545
6.542049
6.147553
5.806086
5.510675
5.255382
5.035244
4.846467
4.687703
4.555056
4.443109
4.350157
4.275598
4.218346
4.17728
4.151286
4.141032
4.141916
4.155331
4.180535
4.216905
4.263929
4.321194
4.389175
4.46715
4.554
4.649951
4.755117
4.869568
4.99333
5.126403
5.268762
5.420342
5.581136
5.75217
5.935128
6.12906
6.332856
6.549745
6.783883
7.041511
7.330896
7.663486
8.060037
8.551944
9.191704
10.07433
11.38907
13.57362
17.90803
30.0003
92.67778
78.65691
18.66435
11.77529
10.05972
9.123084
8.380396
7.737859
7.176225
6.68657
6.260727
5.89086
5.569875
5.291623
5.050914
4.843423
4.665471
4.51421
4.388649
4.285641
4.201424
4.134632
4.08435
4.049707
4.029717
4.024157
4.030532
4.049073
4.079145
4.120198
4.171777
4.233511
4.306094
4.388922
4.480648
4.581366
4.691453
4.811174
4.94051
5.079487
5.228175
5.386711
5.555256
5.733179
5.919485
6.114274
6.31895
6.535735
6.767592
7.018806
7.297812
7.619811
8.006355
8.486679
9.111469
9.973391
11.25402
13.37144
17.5523
29.23011
93.50007
80.45512
19.0427
11.67716
9.733877
8.754692
8.034087
7.429667
6.906214
6.449918
6.051763
5.704489
5.402057
5.139287
4.911752
4.715684
4.547858
4.405441
4.286263
4.18934
4.112796
4.053362
4.009552
3.980507
3.965411
3.963628
3.974025
3.996199
4.029616
4.073821
4.128447
4.19321
4.268846
4.355011
4.450595
4.555769
4.670325
4.794108
4.927254
5.069841
5.221896
5.383383
5.554195
5.733832
5.922096
6.118868
6.324789
6.541034
6.770307
7.017689
7.291428
7.603309
7.970191
8.426413
9.024534
9.855821
11.09966
13.17017
17.27691
28.73974
94.14043
108.3913
20.56106
11.75821
9.521443
8.473996
7.760781
7.184425
6.690904
6.261848
5.887684
5.561588
5.277542
5.030687
4.816953
4.632878
4.475509
4.342318
4.231012
4.140017
4.068097
4.013919
3.975492
3.951153
3.940637
3.942033
3.955364
3.980067
4.015694
4.061882
4.118352
4.184915
4.26221
4.350065
4.447552
4.554707
4.671604
4.798327
4.934927
5.081419
5.237742
5.403726
5.579075
5.763422
5.956281
6.157176
6.365446
6.581457
6.807219
7.047416
7.31054
7.610218
7.967227
8.412125
8.997224
9.81365
11.03559
13.06722
17.08622
28.28356
94.52644
83.22946
20.6931
11.82637
9.378304
8.263239
7.544101
6.985394
6.516905
6.112786
5.760892
5.453845
5.186157
4.95338
4.751848
4.578776
4.431768
4.30862
4.206863
4.124006
4.058287
4.008533
3.973536
3.951958
3.943249
3.946705
3.961866
3.988192
4.02526
4.072763
4.130484
4.19829
4.276577
4.365285
4.463939
4.572603
4.691372
4.82034
4.95959
5.109156
5.268979
5.438857
5.618398
5.807163
6.004309
6.208905
6.42002
6.636855
6.860002
7.093805
7.347349
7.635075
7.978249
8.409071
8.97804
9.773159
10.97174
12.97439
16.94703
28.00459
94.87859
84.07993
21.31128
12.00106
9.321176
8.119802
7.382737
6.835175
6.386852
6.003752
5.671307
5.38116
5.128378
4.909299
4.721156
4.56151
4.426187
4.309924
4.211606
4.131128
4.067581
4.020261
3.988302
3.97084
3.966382
3.973225
3.99076
4.018546
4.056414
4.104369
4.162298
4.230129
4.308158
4.396583
4.495325
4.60444
4.724003
4.85411
4.994866
5.146359
5.308627
5.481559
5.664778
5.857413
6.058579
6.267776
6.483714
6.702951
6.923943
7.150881
7.394506
7.670566
8.00149
8.419789
8.976761
9.761059
10.94638
12.92733
16.853
27.76034
95.10267
84.90215
22.01145
12.22606
9.325588
8.035152
7.270526
6.723148
6.28731
5.921472
5.606737
5.333667
5.096516
4.891535
4.716095
4.565115
4.435817
4.327198
4.236717
4.162498
4.103581
4.059085
4.02859
4.011443
4.00694
4.014067
4.032219
4.060752
4.099292
4.147572
4.205387
4.272674
4.349774
4.437407
4.535918
4.645232
4.765317
4.896176
5.037822
5.190306
5.353933
5.528992
5.715416
5.912964
6.120544
6.335528
6.554297
6.773832
6.993264
7.214617
7.446875
7.709512
8.02828
8.435345
8.981187
9.753973
10.92526
12.88986
16.79197
27.63079
95.28466
85.56849
22.66914
12.47293
9.364773
7.982831
7.187294
6.63694
6.210491
5.858813
5.559473
5.30114
5.077248
4.88382
4.718566
4.578338
4.458718
4.357571
4.27291
4.203225
4.147912
4.106469
4.078159
4.062226
4.058063
4.064913
4.08261
4.110569
4.148475
4.196085
4.253208
4.319759
4.395823
4.4824
4.580651
4.690545
4.811684
4.94397
5.087457
5.242283
5.408599
5.586444
5.775593
5.975412
6.184671
6.401351
6.622011
6.84223
7.058618
7.273353
7.496676
7.748651
8.056245
8.453086
8.989648
9.753494
10.916
12.86858
16.7481
27.52048
95.38003
86.08304
23.27673
12.73509
9.44524
7.980237
7.142012
6.57915
6.155208
5.812664
5.524881
5.278466
5.066208
4.884297
4.730108
4.599475
4.487995
4.393183
4.313625
4.248647
4.197404
4.159032
4.132729
4.117959
4.114195
4.120818
4.138011
4.165247
4.202283
4.248915
4.304988
4.370409
4.445172
4.530539
4.62818
4.738197
4.86004
4.993424
5.138282
5.2947
5.462808
5.642632
5.833921
6.035907
6.246982
6.464379
6.684184
6.90216
7.11568
7.326364
7.543383
7.785582
8.082054
8.469674
8.998351
9.755044
10.90998
12.85205
16.71965
27.47323
95.42938
86.49088
23.84085
13.01415
9.550956
7.992332
7.119868
6.543597
6.118535
5.781384
5.502003
5.265059
5.062418
4.889914
4.744431
4.621505
4.517165
4.428963
4.355275
4.294892
4.246955
4.210897
4.186165
4.172271
4.168827
4.175248
4.191907
4.218337
4.254377
4.299888
4.354749
4.418856
4.492116
4.575959
4.672505
4.782148
4.904292
5.038458
5.184451
5.342279
5.512009
5.693594
5.886687
6.090397
6.302998
6.521584
6.741935
6.95916
7.169806
7.375369
7.5856
7.819878
8.108344
8.48891
9.011061
9.761387
10.90955
12.8451
16.69023
27.39398
95.39956
86.78142
24.36483
13.29666
9.677198
8.036835
7.1218
6.525562
6.095182
5.76013
5.486537
5.257099
5.062638
4.89823
4.760186
4.644015
4.545796
4.462991
4.393888
4.337294
4.292329
4.258285
4.234701
4.221258
4.217798
4.223823
4.239823
4.265388
4.300419
4.344828
4.398551
4.461594
4.534137
4.616764
4.711661
4.820757
4.943469
5.078707
5.226104
5.385613
5.557248
5.740873
5.936004
6.14155
6.355507
6.574658
6.79454
7.010172
7.218075
7.419665
7.624657
7.852479
8.133567
8.507208
9.024233
9.77076
10.9157
12.84616
16.68924
27.3875
95.31352
86.99627
24.86145
13.58599
9.821382
8.099897
7.139191
6.524581
6.084595
5.747773
5.476967
5.252707
5.064433
4.906217
4.774085
4.663484
4.570339
4.492061
4.426821
4.373312
4.330615
4.298111
4.275438
4.262414
4.258962
4.264661
4.280099
4.304956
4.339215
4.382858
4.435877
4.498313
4.570352
4.652434
4.746801
4.855809
4.979159
5.115722
5.264937
5.426565
5.600453
5.786311
5.983479
6.190661
6.40562
6.624893
6.843774
7.057066
7.261195
7.457742
7.65692
7.878824
8.154148
8.522609
9.035645
9.778924
10.92077
12.84731
16.68228
27.34173
95.21454
87.14565
25.32234
13.8692
9.972693
8.174664
7.170599
6.530015
6.080846
5.740678
5.470563
5.249418
5.065383
4.911953
4.784272
4.677936
4.588743
4.513937
4.451627
4.400466
4.359556
4.328346
4.306559
4.294039
4.290745
4.296361
4.31157
4.336138
4.370125
4.413582
4.466557
4.529116
4.601404
4.683732
4.778358
4.887922
5.012406
5.150707
5.30211
5.466175
5.642561
5.830791
6.030007
6.238691
6.45436
6.673325
6.890716
7.101295
7.301587
7.493419
7.687399
7.904072
8.174263
8.53816
9.047994
9.789092
10.92929
12.85363
16.68232
27.33149
95.0594
87.34005
25.77423
14.15686
10.1339
8.260419
7.212137
6.54643
6.082695
5.736831
5.465499
5.24576
5.064529
4.913574
4.7886
4.68527
4.599293
4.527162
4.467044
4.417679
4.378216
4.348145
4.327201
4.315297
4.31245
4.318394
4.333889
4.358753
4.39311
4.437074
4.490743
4.554205
4.627567
4.711036
4.806755
4.91749
5.04355
5.183943
5.337812
5.504513
5.683489
5.874057
6.075147
6.285013
6.500946
6.719051
6.934328
7.141546
7.337429
7.524223
7.713095
7.925096
8.191154
8.551725
9.059525
9.799592
10.93941
12.86344
16.68981
27.31909
94.93365
87.59701
26.18973
14.43374
10.29571
8.350807
7.259241
6.567662
6.088971
5.735085
5.460532
5.240439
5.060411
4.911626
4.787786
4.684842
4.599656
4.529379
4.471164
4.423537
4.385626
4.356916
4.337147
4.32624
4.324277
4.331028
4.347362
4.373128
4.408505
4.453663
4.508757
4.573915
4.649233
4.734745
4.83217
4.944477
5.072622
5.215573
5.372183
5.54164
5.723221
5.916048
6.118831
6.329597
6.545416
6.762215
6.974921
7.178388
7.369635
7.551394
7.735409
7.943183
8.20575
8.563714
9.070063
9.809553
10.94928
12.87292
16.6967
27.31468
94.77718
87.87627
26.63968
14.72358
10.46419
8.446671
7.311017
6.592373
6.097306
5.733973
5.454567
5.232505
5.052154
4.903789
4.78097
4.679285
4.595208
4.525599
4.468297
4.421552
4.384346
4.356186
4.336997
4.327059
4.326372
4.334527
4.352395
4.379768
4.416843
4.463855
4.520997
4.588438
4.666362
4.755078
4.855312
4.969498
5.099802
5.245532
5.405109
5.577458
5.761656
5.956629
6.160878
6.372213
6.587501
6.802528
7.012188
7.211485
7.397821
7.574508
7.753913
7.957988
8.217851
8.574163
9.080052
9.820117
10.9613
12.88699
16.71209
27.32221
94.67988
88.33187
27.02433
14.98497
10.62716
8.543232
7.364778
6.618745
6.106339
5.73233
5.446696
5.221287
5.039346
4.890358
4.767369
4.665531
4.581238
4.511685
4.45476
4.408999
4.373369
4.347193
4.330082
4.321752
4.322323
4.331889
4.351103
4.38004
4.419184
4.468593
4.528386
4.598742
4.679838
4.771952
4.875564
4.992798
5.125907
5.274474
5.436976
5.61217
5.798898
5.995849
6.201297
6.412843
6.627181
6.839989
7.046182
7.24098
7.422231
7.593875
7.768919
7.969714
8.227431
8.582676
9.088524
9.829375
10.97192
12.89905
16.72418
27.3255
94.56505
88.27121
27.38047
15.28047
10.80195
8.643777
7.420117
6.64557
6.114892
5.729223
5.436288
5.206444
5.021895
4.871409
4.747553
4.645183
4.560586
4.491006
4.434392
4.389243
4.354499
4.329502
4.313865
4.307362
4.309921
4.321939
4.343641
4.375335
4.41707
4.469209
4.532117
4.605879
4.690658
4.786614
4.894006
5.014736
5.151041
5.302659
5.468117
5.646054
5.835111
6.033747
6.240022
6.451344
6.664261
6.874387
7.076712
7.266726
7.442781
7.609495
7.780508
7.978532
8.23475
8.589674
9.096272
9.83887
10.98416
12.9151
16.7448
27.34653
94.49112
113.5022
28.43167
15.60222
10.97675
8.745259
7.476277
6.672501
6.122625
5.724303
5.423086
5.187888
4.999929
4.847304
4.722138
4.619011
4.534072
4.464514
4.408281
4.363877
4.33024
4.306643
4.29264
4.288072
4.292783
4.307292
4.331678
4.366199
4.411123
4.466725
4.533146
4.610686
4.699455
4.799574
4.911168
5.035812
5.175546
5.330257
5.498588
5.679078
5.870171
6.070118
6.27678
6.487404
6.698427
6.905446
7.10357
7.288608
7.459452
7.62141
7.788742
7.984484
8.239655
8.594696
9.102343
9.846773
10.99456
12.92846
16.76083
27.35941
94.39902
114.424
29.0075
15.88257
11.13784
8.841937
7.530035
6.697548
6.128285
5.716831
5.406735
5.165576
4.973669
4.81849
4.691748
4.58776
4.502514
4.433118
4.37747
4.334046
4.301761
4.279864
4.267884
4.265591
4.272689
4.289742
4.316847
4.354394
4.402635
4.461801
4.532098
4.613666
4.706667
4.811169
4.927172
5.055902
5.199171
5.356995
5.528091
5.710891
5.903674
6.10451
6.311098
6.520554
6.729247
6.932798
7.126482
7.306464
7.472198
7.629672
7.793734
7.987319
8.242207
8.598119
9.107474
9.854498
11.00593
12.94493
16.78451
27.39121
94.36507
114.5595
29.35767
16.13164
11.29364
8.938996
7.584066
6.721993
6.132483
5.707044
5.387351
5.139662
4.94338
4.785364
4.656905
4.552046
4.466596
4.397554
4.342747
4.300606
4.270008
4.250166
4.24057
4.240902
4.250854
4.270804
4.300769
4.341207
4.392664
4.455384
4.529516
4.615167
4.712423
4.821364
4.942144
5.075147
5.221629
5.38239
5.556196
5.741086
5.935187
6.136465
6.342512
6.550363
6.756366
6.956208
7.145353
7.320326
7.481139
7.634411
7.79517
7.987609
8.242488
8.599714
9.110957
9.860489
11.01515
12.95829
16.80317
27.41505
94.33059
114.5358
29.73899
16.39247
11.44272
9.027121
7.633189
6.742701
6.132935
5.693916
5.36465
5.110323
4.909557
4.748656
4.618525
4.512931
4.427499
4.359097
4.305459
4.264944
4.236368
4.218889
4.211955
4.215098
4.228284
4.251439
4.284679
4.32822
4.382655
4.448645
4.526392
4.615952
4.717344
4.83058
4.955728
5.092935
5.243047
5.406692
5.582747
5.769272
5.964273
6.165581
6.370686
6.576559
6.779547
6.97544
7.15996
7.330061
7.486353
7.635742
7.794699
7.986313
8.241563
8.599937
9.113456
9.866017
11.02476
12.9737
16.82754
27.45341
94.3244
114.7399
30.16147
16.67249
11.59497
9.113603
7.680139
6.761472
6.132055
5.678452
5.339203
5.078083
4.872812
4.709101
4.577447
4.471333
4.386177
4.318705
4.266549
4.227984
4.201753
4.186971
4.182985
4.189271
4.205789
4.232384
4.269097
4.316095
4.373686
4.442592
4.523511
4.616588
4.721795
4.839061
4.96831
5.10947
5.263053
5.429429
5.60748
5.795283
5.990767
6.191648
6.395337
6.598809
6.798545
6.9905
7.170569
7.336028
7.487861
7.634367
7.791324
7.982391
8.238481
8.598814
9.114477
9.869856
11.03215
12.98579
16.84652
27.48369
94.31219
115.0422
30.59011
16.94994
11.73795
9.189431
7.719564
6.774929
6.126662
5.659719
5.310966
5.043284
4.833698
4.667383
4.534445
4.428085
4.343515
4.277309
4.226978
4.190702
4.167145
4.155314
4.15448
4.164048
4.184012
4.214139
4.25442
4.304965
4.365976
4.437879
4.521518
4.617571
4.726097
4.846947
4.97992
5.124798
5.281719
5.450662
5.630459
5.819217
6.014821
6.214968
6.417103
6.618204
6.8146
7.002314
7.177708
7.3387
7.487024
7.630826
7.786469
7.977392
8.234414
8.596557
9.114545
9.873175
11.03962
12.9991
16.86931
27.52465
94.34853
115.2555
31.00342
17.23794
11.88861
9.267586
7.757719
6.785753
6.118525
5.638393
5.280514
5.006678
4.793165
4.624625
4.490777
4.384527
4.300868
4.236222
4.187982
4.154236
4.133543
4.1248
4.127236
4.140359
4.163869
4.197572
4.241416
4.295459
4.359858
4.434859
4.521137
4.619639
4.73087
4.854736
4.990936
5.139113
5.299047
5.470284
5.651546
5.840991
6.036516
6.235771
6.436015
6.634191
6.826936
7.010664
7.181944
7.338915
7.483841
7.62528
7.779752
7.970699
8.228919
8.593217
9.113828
9.875195
11.04511
13.0094
16.88745
27.55994
94.42202
115.6904
31.42932
17.51485
12.02408
9.333417
7.787569
6.791112
6.106389
5.613944
5.247594
4.968156
4.75121
4.580891
4.446543
4.340801
4.258454
4.195758
4.149942
4.118949
4.10123
4.095686
4.101489
4.118146
4.145236
4.182528
4.22992
4.287421
4.355139
4.433272
4.522114
4.622699
4.736094
4.862383
5.001228
5.152172
5.314679
5.487873
5.670317
5.860104
6.055013
6.252651
6.450477
6.645669
6.835039
7.015084
7.182578
7.336018
7.477782
7.617017
7.77063
7.962102
8.221905
8.588415
9.111521
9.875894
11.05004
13.02006
16.90742
27.59972
94.5145
115.7802
31.80629
17.79788
12.17234
9.406809
7.819989
6.796464
6.094398
5.59
5.215527
4.930784
4.71066
4.538796
4.404171
4.299146
4.218302
4.157664
4.114306
4.086047
4.071307
4.068941
4.078103
4.098193
4.12876
4.169517
4.22031
4.281099
4.351944
4.433006
4.524494
4.627131
4.742123
4.870165
5.010972
5.164006
5.328549
5.503299
5.686473
5.876029
6.069817
6.265589
6.460943
6.653154
6.839124
7.015478
7.179347
7.329528
7.468873
7.606765
7.76012
7.952235
8.213636
8.582561
9.108376
9.875727
11.05338
13.02819
16.92353
27.63132
94.56181
116.4378
32.1905
18.06775
12.30251
9.465381
7.842571
6.795429
6.076668
5.561444
5.180083
4.891223
4.668984
4.496478
4.362301
4.258522
4.179493
4.121099
4.080336
4.054989
4.043476
4.044469
4.057072
4.080597
4.114564
4.158649
4.21266
4.276519
4.350245
4.433951
4.527876
4.632364
4.748655
4.87796
5.020114
5.174575
5.340518
5.51626
5.699699
5.888721
6.081208
6.274987
6.467742
6.656908
6.839522
7.012543
7.173226
7.320621
7.457871
7.594635
7.747938
7.940961
8.204174
8.575568
9.103978
9.874292
11.05529
13.03587
16.94164
27.67416
94.58437
117.2268
32.67125
18.33605
12.43747
9.526013
7.864624
6.793715
6.059326
5.533784
5.145878
4.85317
4.629036
4.456062
4.322461
4.220027
4.142907
4.086883
4.04886
4.02654
4.018224
4.022491
4.038406
4.065236
4.102452
4.14969
4.206718
4.273423
4.349793
4.43588
4.531892
4.638094
4.755531
4.885601
5.028497
5.18378
5.350571
5.52687
5.710251
5.898464
6.089408
6.281034
6.471195
6.65744
6.837084
7.00715
7.165094
7.310209
7.445891
7.581978
7.73549
7.929445
8.1943
8.567874
9.098521
9.871324
11.05544
13.03952
16.95134
27.70148
94.61238
94.98759
32.39399
18.53557
12.56288
9.581743
7.883428
6.791234
6.042633
5.507807
5.1141
4.818079
4.592422
4.419229
4.286371
4.185399
4.110295
4.056701
4.02139
4.001958
3.996631
4.00394
4.022904
4.052748
4.092903
4.142965
4.202667
4.271862
4.350503
4.438659
4.536445
4.644103
4.762458
4.892947
5.036151
5.19178
5.358953
5.535381
5.718338
5.905464
6.094701
6.284119
6.47169
6.655211
6.832059
6.999435
7.154966
7.298147
7.432595
7.568322
7.722351
7.917535
8.184258
8.560153
9.093191
9.868564
11.05558
13.04446
16.96375
27.72837
94.64706
94.94011
32.57212
18.7896
12.69982
9.638789
7.900976
6.788031
6.026217
5.483038
5.084277
4.785507
4.558746
4.385636
4.253728
4.154342
4.081289
4.030071
3.997367
3.980687
3.978177
3.988346
4.010148
4.042768
4.085603
4.13822
4.200327
4.271739
4.352325
4.442165
4.54138
4.650184
4.76922
4.89995
5.043229
5.198876
5.36602
5.54216
5.724334
5.910097
6.097439
6.284539
6.469592
6.650481
6.82474
6.989701
7.143135
7.284705
7.418215
7.553803
7.70846
7.90485
8.173298
8.551288
9.086454
9.864251
11.0545
13.04748
16.975
27.76236
94.71096
117.5145
33.49849
19.08242
12.83959
9.69473
7.91756
6.784894
6.010823
5.460097
5.05692
4.755885
4.52837
4.355583
4.224773
4.12704
4.056033
4.007127
3.976902
3.962991
3.963074
3.975876
4.00027
4.035404
4.080642
4.135509
4.199675
4.272886
4.355134
4.446373
4.54671
4.656356
4.775869
4.906716
5.049873
5.205259
5.372014
5.547465
5.728483
5.912592
6.097845
6.282607
6.46517
6.64357
6.815464
6.978291
7.129938
7.270207
7.403067
7.538768
7.69427
7.892075
8.162353
8.54235
9.079507
9.859413
11.05213
13.04868
16.98193
27.78371
94.77711
118.8215
33.9817
19.33238
12.97064
9.747896
7.933382
6.782472
5.997339
5.439904
5.032907
4.730017
4.502011
4.329695
4.200033
4.103929
4.034883
3.988163
3.960268
3.948761
3.951259
3.966445
3.993158
4.030514
4.077839
4.134634
4.200494
4.275272
4.358824
4.451143
4.552309
4.662511
4.782302
4.913138
5.055977
5.210793
5.376775
5.55115
5.730683
5.912893
6.095961
6.278354
6.458518
6.63461
6.804381
6.965357
7.115508
7.254748
7.387175
7.52314
7.679587
7.878927
8.151054
8.532877
9.071945
9.854021
11.04944
13.04957
16.99198
27.81637
94.89057
119.0403
34.18195
19.52904
13.09019
9.798869
7.949988
6.782568
5.986922
5.423285
5.012858
4.708376
4.480029
4.308235
4.179696
4.085131
4.017908
3.973196
3.947417
3.938052
3.942707
3.960004
3.988745
4.028009
4.077097
4.135424
4.202724
4.278721
4.363278
4.456363
4.558053
4.668531
4.788388
4.919062
5.061413
5.215427
5.38033
5.553298
5.731047
5.911182
6.091974
6.272032
6.449927
6.623913
6.791814
6.951216
7.100153
7.23863
7.370858
7.507268
7.664755
7.865622
8.139514
8.523048
9.063857
9.847859
11.04572
13.0496
16.99653
27.83538
94.99033
119.3039
34.4094
19.73144
13.21128
9.850692
7.968033
6.784584
5.979769
5.410681
4.99724
4.691378
4.462762
4.291464
4.16395
4.070769
4.00517
3.962232
3.938308
3.930798
3.937313
3.956411
3.986871
4.027715
4.078148
4.137783
4.206182
4.283077
4.368322
4.461879
4.563817
4.674318
4.794056
4.92444
5.066152
5.219158
5.382714
5.553983
5.729734
5.907643
6.08612
6.263907
6.439677
6.611759
6.778025
6.936102
7.084071
7.22201
7.354226
7.491205
7.649788
7.852167
8.127765
8.512937
9.055417
9.841289
11.04154
13.04914
17.0035
27.86133
95.07327
120.1013
34.74027
19.92616
13.33028
9.903544
7.989003
6.791154
5.977567
5.403034
4.986639
4.679413
4.450469
4.279539
4.152866
4.060848
3.996625
3.955194
3.932843
3.926895
3.934973
3.955536
3.98724
4.029247
4.080882
4.1415
4.210696
4.288199
4.373853
4.467617
4.569555
4.679852
4.799302
4.929267
5.070194
5.222031
5.384047
5.553405
5.726952
5.902521
6.078677
6.254276
6.428073
6.598444
6.763295
6.920273
7.067492
7.205089
7.337446
7.475088
7.634786
7.838633
8.115844
8.502534
9.046521
9.834007
11.03616
13.04636
17.00515
27.87448
95.11649
99.95977
34.34409
20.06071
13.44238
9.957031
8.012709
6.801363
5.979353
5.400538
4.981209
4.672495
4.443079
4.272365
4.146365
4.055323
3.992275
3.952133
3.931074
3.926309
3.935396
3.956975
3.989814
4.032821
4.085242
4.146505
4.216189
4.294011
4.379808
4.473532
4.57525
4.685142
4.804148
4.933564
5.073579
5.224117
5.384403
5.551634
5.722818
5.895986
6.069853
6.243373
6.415354
6.584203
6.747838
6.903918
7.050578
7.187999
7.320622
7.458993
7.619811
7.825081
8.103841
8.491989
9.03745
9.826585
11.03086
13.04429
17.00913
27.89432
95.17456
100.1963
34.51347
20.23292
13.55865
10.01266
8.040151
6.81657
5.986935
5.402995
4.98164
4.671997
4.442033
4.271214
4.145462
4.054881
3.992346
3.952661
3.932241
3.928273
3.938417
3.960917
3.994492
4.038131
4.09106
4.152688
4.222588
4.300469
4.386166
4.47963
4.580929
4.69028
4.808774
4.937426
5.076246
5.225413
5.38392
5.548868
5.71755
5.888273
6.059905
6.231463
6.401783
6.56928
6.731875
6.887228
7.033487
7.170864
7.303845
7.442982
7.604899
7.811522
8.09173
8.481214
9.027983
9.818512
11.02446
13.04026
17.00941
27.90516
95.23553
101.0057
34.82517
20.4257
13.68101
10.07638
8.070645
6.833906
5.998732
5.410865
4.986404
4.674664
4.443905
4.272857
4.147195
4.05696
3.995065
3.956328
3.936717
3.933435
3.944126
3.96714
4.001148
4.045116
4.098256
4.159968
4.229817
4.307506
4.392866
4.48585
4.586532
4.695313
4.813218
4.94084
5.078496
5.226338
5.382717
5.545045
5.711158
5.879517
6.049043
6.218782
6.387587
6.553881
6.715584
6.870353
7.01634
7.153778
7.287185
7.427108
7.5901
7.79802
8.079607
8.470374
9.018427
9.810388
11.01816
13.03668
17.01071
27.9214
95.32213
101.8457
35.09895
20.61164
13.80482
10.1462
8.105705
6.855281
6.015206
5.423861
4.996984
4.683715
4.451868
4.280208
4.1543
4.064065
4.002293
3.963707
3.944362
3.941359
3.952302
3.975519
4.009657
4.05367
4.106751
4.168292
4.237848
4.315122
4.399946
4.492276
4.592188
4.700296
4.817551
4.944157
5.080395
5.226417
5.380555
5.54039
5.704002
5.87004
6.037521
6.205532
6.372937
6.538152
6.69909
6.853394
6.999213
7.136795
7.270675
7.411388
7.575413
7.784554
8.067424
8.459359
9.008552
9.801739
11.01104
13.03188
17.01031
27.93101
95.41107
102.5685
35.25586
20.77049
13.92718
10.22092
8.145468
6.881326
6.036675
5.442026
5.012737
4.697727
4.46463
4.292109
4.16564
4.075059
4.013081
3.974378
3.954974
3.951931
3.96282
3.985942
4.019926
4.063708
4.116471
4.177598
4.24664
4.323297
4.407404
4.498924
4.597984
4.705358
4.821837
4.947262
5.08189
5.225901
5.377681
5.534992
5.696142
5.859935
6.025469
6.191863
6.357981
6.522232
6.682513
6.836453
6.982191
7.119979
7.254363
7.39586
7.560879
7.771179
8.055264
8.448314
8.998611
9.793016
11.00387
13.02705
17.01021
27.94352
95.50356
103.3978
35.4304
20.92698
14.05268
10.30248
8.191581
6.912994
6.063447
5.465318
5.033465
4.716521
4.481953
4.308313
4.180994
4.089761
4.027272
3.98815
3.968383
3.965006
3.975551
3.998301
4.031862
4.075159
4.127364
4.187851
4.256171
4.332022
4.415242
4.505798
4.604034
4.71069
4.826163
4.95017
5.082969
5.224795
5.37415
5.528974
5.687742
5.849384
6.01307
6.177944
6.342873
6.506255
6.665968
6.819621
6.96534
7.103376
7.238276
7.380535
7.546494
7.757876
8.043086
8.437156
8.988444
9.78392
10.99609
13.0212
17.00781
27.94978
95.5699
104.06
35.56226
21.07072
14.18056
10.38931
8.242461
6.950264
6.096121
5.494198
5.059382
4.74013
4.503748
4.328667
4.200183
4.107991
4.04469
4.004857
3.984439
3.980452
3.990378
4.012489
4.04538
4.087958
4.139386
4.199034
4.26645
4.341334
4.423529
4.513046
4.6104
4.716192
4.830455
4.952838
5.083646
5.223184
5.370087
5.52246
5.678921
5.838504
6.000438
6.163888
6.32772
6.490315
6.649532
6.80296
6.948708
7.087018
7.222435
7.365428
7.532277
7.744675
8.030945
8.42598
8.978226
9.774771
10.98832
13.01555
17.00619
27.95833
95.63052
105.0003
35.76142
21.23102
14.31576
10.48501
8.303941
6.992449
6.131532
5.526993
5.089606
4.768056
4.529695
4.352929
4.223006
4.129569
4.06517
4.024342
4.002996
3.998138
4.007188
4.028418
4.060404
4.102043
4.152489
4.211109
4.277448
4.35121
4.432241
4.520755
4.617229
4.721896
4.834671
4.955226
5.083924
5.221126
5.36559
5.51557
5.669808
5.827426
5.987701
6.149814
6.312627
6.474504
6.633283
6.786531
6.932336
7.070931
7.206853
7.350541
7.518217
7.731555
8.018801
8.414717
8.967824
9.765304
10.98001
13.00892
17.00259
27.96245
95.69009
105.6908
35.9212
21.3722
14.45136
10.58797
8.373972
7.040566
6.171296
5.563887
5.123855
4.799916
4.559427
4.380778
4.249185
4.154255
4.088502
4.046421
4.023896
4.017923
4.02586
4.04598
4.076845
4.117342
4.166618
4.224038
4.289145
4.361649
4.441523
4.529027
4.624396
4.727675
4.838742
4.957325
5.083847
5.21871
5.360774
5.508427
5.660525
5.816267
5.97497
6.135826
6.297688
6.458903
6.617287
6.770382
6.916259
7.055136
7.191538
7.335878
7.504323
7.718533
8.006691
8.40344
8.957383
9.755811
10.97176
13.00258
16.99983
27.96878
95.76016
106.1541
35.99448
21.52693
14.59554
10.70004
8.451773
7.094089
6.21574
5.60524
5.162263
4.835659
4.592785
4.412003
4.278495
4.181826
4.114475
4.070903
4.046962
4.039649
4.046249
4.065048
4.094593
4.133763
4.1817
4.237763
4.301503
4.372717
4.45145
4.537799
4.631807
4.733451
4.842618
4.959122
5.083454
5.216025
5.355757
5.50116
5.651199
5.805147
5.962358
6.122027
6.282995
6.443589
6.601602
6.754557
6.900502
7.039642
7.176489
7.321427
7.490572
7.705579
7.994571
8.392078
8.946775
9.746041
10.96305
12.9954
16.99537
27.97093
95.81822
124.0014
36.49487
21.69859
14.74496
10.81936
8.538388
7.156562
6.264698
5.649049
5.203651
4.874541
4.629257
4.446222
4.310626
4.21202
4.142858
4.097577
4.072003
4.06314
4.068202
4.085487
4.113532
4.151205
4.197645
4.252219
4.314564
4.38452
4.461986
4.54693
4.639338
4.739161
4.846307