/*--------------------------------*- C++ -*----------------------------------*\
| =========                 |                                                 |
| \\      /  F ield         | OpenFOAM: The Open Source CFD Toolbox           |
|  \\    /   O peration     | Version:  2312                                  |
|   \\  /    A nd           | Website:  www.openfoam.com                      |
|    \\/     M anipulation  |                                                 |
\*---------------------------------------------------------------------------*/
FoamFile
{
    version     2.0;
    format      ascii;
    arch        "LSB;label=32;scalar=64";
    class       volScalarField;
    location    "5700";
    object      qin;
}
// * * * * * * * * * * * * * * * * * * * * * * * * * * * * * * * * * * * * * //

dimensions      [1 0 -3 0 0 0 0];

internalField   uniform 0;

boundaryField
{
    plate
    {
        type            calculated;
        value           nonuniform List<scalar> 
200
(
2402.099
2344.315
2312.037
2288.253
2264.58
2245.71
2240.228
2248.671
2263.216
2276.921
2286.161
2287.323
2278.598
2264.19
2251.613
2245.551
2247.409
2258.443
2279.023
2305.209
2328.989
2342.876
2344.744
2339.753
2337.532
2344.939
2360.588
2377.937
2393.005
2405.987
2416.197
2420.631
2419.199
2416.937
2417.937
2420.529
2422.239
2426.25
2437.403
2453.517
2466.398
2470.836
2468.135
2462.03
2455.623
2451.673
2452.137
2456.868
2463.804
2470.157
2473.988
2476.411
2481.547
2491.65
2502.71
2507.83
2504.611
2496.33
2487.068
2479.571
2476.872
2481.203
2490.817
2500.983
2507.792
2509.242
2505.072
2498.04
2492.673
2490.599
2489.886
2489.928
2492.796
2498.322
2502.148
2500.967
2496.503
2492.081
2488.037
2483.201
2478.801
2477.423
2478.652
2478.828
2475.628
2470.797
2467.548
2466.788
2466.97
2466.591
2465.497
2464.179
2463.133
2463.097
2465.017
2469.224
2474.87
2480.42
2484.676
2487.374
2489.054
2490.493
2492.112
2493.618
2494.075
2492.436
2488.302
2482.415
2476.532
2472.645
2471.957
2474.244
2477.995
2481.256
2482.647
2481.975
2480.125
2478.435
2477.956
2479.017
2481.254
2483.998
2486.732
2489.345
2492.06
2495.131
2498.533
2501.841
2504.368
2505.475
2504.86
2502.695
2499.536
2496.099
2493.027
2490.764
2489.558
2489.538
2490.756
2493.157
2496.491
2500.259
2503.78
2506.398
2507.731
2507.831
2507.127
2506.142
2505.132
2503.854
2501.637
2497.765
2492
2484.951
2478.026
2472.917
2470.779
2471.507
2473.498
2474.144
2470.962
2462.944
2451.479
2440.248
2433.913
2436.047
2447.306
2464.86
2483.531
2498.097
2505.562
2506.19
2502.86
2499.243
2497.842
2498.834
2500.072
2498.15
2490.064
2474.863
2454.704
2434.939
2423.09
2426.458
2448.385
2484.747
2524.001
2552.863
2564.373
2561.13
2550.413
2537.636
2527.682
2532.15
2566.976
2633.627
2707.069
2757.292
2788.221
2835.487
)
;
    }
    riser
    {
        type            calculated;
        value           nonuniform List<scalar> 
200
(
5366.881
5192.735
5154.146
5187.193
5282.862
5395.557
5516.514
5528.208
5307.296
5115.963
5293.839
5583.45
5562.972
5422.067
5541.399
5817.872
5932.657
5823.097
5656.522
5603.187
5743.063
6060.446
6413.019
6615.942
6668.835
6715.735
6718.768
6536.2
6331.632
6432.316
6786.921
6982.29
6820.608
6619.283
6822.595
7382.944
7822.522
7937.706
7904.45
7696.36
7177.456
6679.752
6658.007
7009.984
7330.824
7428.508
7292.781
6990.823
6725.324
6675.873
6761.54
6761.545
6656.194
6600.778
6555.525
6365.008
6208.038
6462.96
7074.665
7548.612
7630.358
7479.147
7205.29
6840.714
6646.762
6808.591
7090.277
7277.139
7474.48
7656.568
7574.929
7306.755
7227.018
7375.726
7407.507
7137.161
6776.728
6600.842
6583.303
6526.838
6426.407
6452.169
6645.746
6852.67
6927.065
6876.786
6807.448
6783.362
6796.134
6832.342
6888.045
6931.851
6929.932
6896.599
6877.315
6899.008
6951.476
7000.81
7013.152
6969.983
6873.129
6741.129
6601.038
6482.232
6411.393
6405.043
6461.955
6562.326
6677.127
6782.404
6867.862
6933.916
6982.386
7010.502
7012.216
6983.744
6928.359
6857.372
6786.852
6731.74
6700.307
6691.784
6698.128
6708.623
6714.879
6713.929
6708.337
6703.75
6705.574
6716.675
6736.999
6764.591
6796.89
6831.469
6866.106
6898.492
6926.04
6946.108
6956.66
6957.007
6948.273
6933.259
6915.648
6898.808
6884.796
6874.015
6865.468
6857.38
6848.067
6836.88
6824.825
6814.44
6808.899
6810.714
6820.535
6836.468
6854.357
6869.284
6877.905
6880.242
6879.325
6878.355
6876.826
6868.161
6841.092
6785.406
6699.764
6596.711
6500.294
6436.217
6420.083
6450.565
6510.286
6572.645
6611.998
6614.836
6586.629
6547.49
6516.386
6494.599
6461.96
6391.138
6272.803
6133.168
6021.871
5969.183
5953.222
5926.586
5886.736
5890.674
5961.109
5977.405
5791.842
5438.044
5145.626
5076.648
5112.922
5076.428
5090.452
4972.286
)
;
    }
    topAndBottom
    {
        type            calculated;
        value           nonuniform List<scalar> 
120
(
2060.676
2592.295
3112.798
3466.131
3729.564
3944.059
4098.392
4195.034
4262.15
4326.455
4395.491
4462.501
4519.98
4567.2
4608.43
4647.201
4682.708
4710.504
4725.862
4727.011
4716.321
4699.103
4681.035
4665.738
4653.791
4643.516
4632.887
4621.361
4610.575
4603.611
4603.347
4610.889
4624.941
4642.368
4659.499
4673.378
4682.326
4685.761
4683.7
4676.501
4665.036
4650.965
4636.587
4624.054
4614.37
4606.878
4599.654
4590.464
4577.501
4559.467
4535.331
4504.331
4466.285
4421.841
4372.849
4323.375
4282.209
4261.443
4265.037
4348.542
7391.052
7415.085
7410.071
7248.077
6878.98
6400.595
5962.759
5652.694
5471.267
5372.287
5314.02
5296.807
5363.432
5554.77
5854.646
6175.415
6401.614
6457.565
6345.943
6131.312
5887.359
5650.749
5412.591
5145.59
4840.014
4521.3
4240.816
4050.866
3981.708
4031.803
4171.507
4353.82
4526.093
4640.338
4662.364
4579.431
4404.151
4171.862
3930.885
3728.68
3599.272
3556.636
3595.609
3698.34
3842.436
4007.351
4177.382
4341.489
4491.431
4620.12
4721.773
4794.034
4840.185
4868.573
4888.19
4902.987
4911.287
4905.749
4899.891
4849.739
)
;
    }
    frontAndBack
    {
        type            empty;
    }
}


// ************************************************************************* //
