/*--------------------------------*- C++ -*----------------------------------*\
| =========                 |                                                 |
| \\      /  F ield         | OpenFOAM: The Open Source CFD Toolbox           |
|  \\    /   O peration     | Version:  2312                                  |
|   \\  /    A nd           | Website:  www.openfoam.com                      |
|    \\/     M anipulation  |                                                 |
\*---------------------------------------------------------------------------*/
FoamFile
{
    version     2.0;
    format      ascii;
    arch        "LSB;label=32;scalar=64";
    class       volScalarField;
    location    "5700";
    object      qr;
}
// * * * * * * * * * * * * * * * * * * * * * * * * * * * * * * * * * * * * * //

dimensions      [1 0 -3 0 0 0 0];

internalField   uniform 0;

boundaryField
{
    plate
    {
        type            calculated;
        value           nonuniform List<scalar> 
200
(
-10022.93
-10167.58
-10246.62
-10246.23
-10191.08
-10146.44
-10142.03
-10179.02
-10231.06
371.3344
361.644
-10349.44
329.0631
305.0978
286.6647
276.9875
275.1177
282.6408
304.5553
339.0409
373.6334
393.0854
385.9914
362.0743
342.796
341.1712
-10414.66
-10386.63
-10364.15
-10338.91
-10305.11
-10270.24
-10237.38
-10205.11
-10170.48
-10145.52
-10135.73
150.7649
132.5458
-10032.88
-9968.233
-9909.465
-9866.127
-9835.23
-95.11566
-155.7104
-214.4416
-265.8321
-310.7122
-353.8536
-400.3408
-447.4074
-484.7083
-505.7934
-9161.576
-9068.438
-9005.542
-8962.85
-8921.18
-8874.588
-997.7034
-1042.681
-8588.28
-8471.856
-8362.512
-8280.773
-8226.863
-1402.496
-1484.824
-8028.961
-7958.124
-1740.144
-1799.211
-1833.339
-1868.972
-1935.792
-2032.429
-2132.916
-7119.467
-7081.81
-7021.181
-6897.82
-6689.989
-6448.566
-6347.452
-6372.301
-6349.698
-6230.267
-5665.525
-3640.965
-3709.944
-3886.02
-4356.233
-5102.818
-5275.042
-5108.701
-4678.896
-4280.727
-4092.493
-4024.473
-4018.336
-4035.527
-4049.425
-4057.193
-4082.749
-4162.787
-4327.47
-4576.255
-4843.347
-5028.479
-5086.137
-5032.245
-4920.1
-4821.666
-4791.856
-4842.423
-4944.617
-5050.316
-5119.933
-5138.711
-5113.259
-5061.738
-5001.07
-4939.214
-4873.705
-4799.556
-4718.061
-4641.06
-4587.065
-4572.233
-4603.592
-4674.946
-4768.544
-4860.809
-4931.886
-4971.863
-4979.005
-4956.366
-4906.344
-4831.362
-4737.188
-4632.931
-4538.974
-4473.719
-4452.107
-4479.313
-4549.741
-4647.318
-4749.338
-4834.364
-4890.604
-4918
-4923.678
-4915.286
-4897.01
-4870.196
-4837.508
-4806.205
-4788.184
-4794.372
-4830.755
-4885.43
-4937.366
-4966.338
-4961.857
-4930.802
-4888.656
-4858.455
-4854.11
-4871.543
-4879.944
-4846.103
-4759.218
-4648.27
-4566.48
-4562.152
-4670.8
-4878.194
-5099.478
-5228.255
-5206.98
-5084.184
-4939.353
-4843.929
-4820.348
-4863.696
-4973.161
-5200.808
-5455.74
-5732.947
-5792.594
-5950.878
-6253.816
-2749.987
-8036.983
-980.4709
-10196.13
584.2278
1171.385
1219.083
)
;
    }
    riser
    {
        type            calculated;
        value           nonuniform List<scalar> 
200
(
3387.544
3243.212
3207.294
3213.464
3257.51
3318.08
3400.506
3408.245
3231.954
3078.844
3223.754
3456.178
3430.711
3300.513
3377.819
3583.444
3662.025
3565.335
3429.426
3389.158
3505.611
3764.461
4050.351
4213.66
4255.176
4293.131
4296.313
4147.535
3978.585
4055.864
4337.601
4486.943
4343.864
4169.519
4327.751
4779.781
5135.538
5228.996
5203.47
5036.34
4615.008
4209.358
4191.013
4477.52
4738.65
4817.895
4707.435
4461.901
4245.955
4206.043
4276.092
4275.673
4189.234
4144.222
4108.077
3953.369
3825.319
4032.487
4530.459
4916.35
4982.951
4860.17
4637.596
4340.782
4182.86
4315.273
4545.331
4697.215
4857.322
5005.822
4939.925
4721.653
4656.847
4778.67
4805.192
4585.125
4291.939
4149.635
4135.953
4089.702
4007.451
4028.59
4186.841
4355.526
4415.662
4374.444
4318.457
4299.724
4310.838
4340.835
4386.885
4423.651
4423.425
4397.631
4383.269
4402.259
4446.147
4487.224
4497.93
4463.196
4384.472
4276.803
4162.21
4064.651
4005.904
3999.463
4044.376
4124.605
4216.637
4301.089
4369.643
4422.629
4461.481
4483.909
4484.987
4461.647
4416.542
4358.84
4301.572
4256.858
4231.405
4224.569
4229.792
4238.354
4243.429
4242.617
4238.018
4234.242
4235.693
4244.7
4261.207
4283.606
4309.798
4337.806
4365.833
4392.026
4414.309
4430.561
4439.132
4439.449
4432.389
4420.194
4405.835
4392.06
4380.585
4371.798
4364.938
4358.571
4351.274
4342.417
4332.697
4324.09
4319.166
4320.067
4327.498
4340.115
4354.649
4367.03
4374.253
4375.897
4374.041
4371.191
4367.366
4358.179
4335.73
4292.783
4228.632
4152.891
4083.69
4040.161
4033.527
4062.024
4111.784
4162.154
4193.51
4195.737
4173.365
4141.976
4115.804
4095.01
4063.335
4000.165
3900.862
3790.029
3709.919
3683.917
3689.618
3682.798
3657.994
3662.518
3717.08
3725.054
3567.92
3279.212
3054.653
3029.191
3093.673
3086.029
3101.699
3003.174
)
;
    }
    topAndBottom
    {
        type            calculated;
        value           nonuniform List<scalar> 
120
(
-1511.495
-856.0473
-282.4647
109.3358
396.4494
632.3099
806.6056
921.1343
1004.945
1085.599
1168.232
1244.366
1309.645
1366.378
1417.906
1465.493
1508.296
1543.266
1566.897
1578.026
1577.799
1570.666
1562.133
1555.882
1552.413
1550.008
1546.747
1542.251
1538.354
1537.785
1543.143
1555.438
1573.501
1594.495
1615.108
1632.654
1645.598
1653.392
1656.071
1653.981
1647.908
1639.329
1630.355
1622.953
1618.008
1614.893
1611.917
1607.117
1598.856
1585.941
1567.448
1542.708
1511.494
1474.326
1432.868
1390.852
1356.394
1341.985
1363.729
1572.231
4556.308
4817.958
4841.933
4700.476
4368.997
3938.589
3544.539
3265.46
3102.249
3013.469
2961.471
2946.166
3005.836
3177.618
3447.628
3737.261
3942.105
3993.195
3892.514
3698.607
3478.742
3266.606
3054.072
2815.747
2541.982
2255.314
2002.326
1830.854
1768.805
1815.021
1942.556
2108.617
2265.46
2369.795
2390.933
2317.658
2161.488
1954.159
1738.942
1558.384
1443.409
1407.204
1445.194
1540.965
1674.152
1826.462
1984.259
2137.263
2276.91
2396.916
2493.371
2564.842
2613.484
2646.858
2674.304
2700.344
2724.603
2741.216
2770.463
2786.585
)
;
    }
    frontAndBack
    {
        type            empty;
    }
}


// ************************************************************************* //
