/*--------------------------------*- C++ -*----------------------------------*\
| =========                 |                                                 |
| \\      /  F ield         | OpenFOAM: The Open Source CFD Toolbox           |
|  \\    /   O peration     | Version:  2312                                  |
|   \\  /    A nd           | Website:  www.openfoam.com                      |
|    \\/     M anipulation  |                                                 |
\*---------------------------------------------------------------------------*/
FoamFile
{
    version     2.0;
    format      ascii;
    arch        "LSB;label=32;scalar=64";
    class       volScalarField;
    location    "5700";
    object      T;
}
// * * * * * * * * * * * * * * * * * * * * * * * * * * * * * * * * * * * * * //

dimensions      [0 0 0 1 0 0 0];

internalField   nonuniform List<scalar> 
12000
(
450.1515
436.6666
434.9839
434.7309
434.6914
434.6813
434.6763
434.6724
434.6687
434.6639
434.6572
434.6491
434.6393
434.6274
434.6128
434.5958
434.5766
434.5549
434.5301
434.5026
434.4726
434.4398
434.4038
434.365
434.3237
434.2793
434.2319
434.1817
434.1291
434.0737
434.0158
433.9555
433.8905
433.8193
433.7435
433.6578
433.5567
433.4411
433.3183
433.1966
433.0644
432.8983
432.7073
432.5199
432.346
432.1623
431.9226
431.6338
431.3581
431.0904
430.7581
430.3285
429.8593
429.3539
428.7373
427.948
426.9101
425.5643
423.3791
419.3834
450.2455
437.1573
435.6299
435.545
435.7054
435.9065
436.119
436.3381
436.5562
436.7598
436.9455
437.134
437.3167
437.48
437.6255
437.7675
437.906
438.0263
438.1269
438.2224
438.3158
438.3943
438.4551
438.5105
438.5642
438.6058
438.6332
438.6552
438.6735
438.6824
438.6811
438.673
438.6583
438.6353
438.6022
438.5595
438.5071
438.4452
438.3737
438.2923
438.1996
438.0943
437.9751
437.8391
437.6849
437.5099
437.312
437.0892
436.8347
436.5455
436.211
435.8241
435.3785
434.8399
434.1855
433.328
432.13
430.3911
427.5343
422.1116
450.7568
437.8597
436.2644
436.2405
436.5333
436.8861
437.2473
437.6038
437.9491
438.2778
438.5865
438.8753
439.1448
439.3955
439.6271
439.841
440.0384
440.2187
440.3823
440.5305
440.6644
440.7844
440.8904
440.9836
441.065
441.1346
441.1926
441.2396
441.2763
441.3029
441.3192
441.3256
441.3236
441.3098
441.2846
441.2482
441.2006
441.1418
441.0715
440.9894
440.8952
440.7882
440.6675
440.5311
440.3779
440.2071
440.0166
439.8027
439.5583
439.2808
438.9698
438.6203
438.2102
437.7146
437.0902
436.2769
435.1643
433.4167
430.318
423.5707
451.5429
438.5503
436.8516
436.8411
437.2114
437.6607
438.1166
438.5593
438.9823
439.3834
439.7649
440.1239
440.4594
440.77
441.0574
441.3236
441.5695
441.7959
442.0036
442.1935
442.3665
442.5231
442.6639
442.7896
442.9005
442.9971
443.0796
443.1482
443.2032
443.2448
443.2729
443.2876
443.2903
443.2783
443.252
443.2118
443.1576
443.0894
443.0068
442.9098
442.7978
442.6705
442.5274
442.3676
442.1904
441.9957
441.7813
441.5446
441.2818
440.9891
440.6598
440.2788
439.8339
439.3123
438.6808
437.8806
436.7731
435.0718
431.9588
424.5394
452.425
439.2473
437.4226
437.3873
437.7935
438.3015
438.8198
439.3217
439.7997
440.2524
440.6794
441.0827
441.4624
441.8178
442.1488
442.4563
442.742
443.0067
443.2509
443.4753
443.6807
443.8675
444.0364
444.1879
444.3221
444.4396
444.5403
444.6247
444.6926
444.7443
444.7796
444.7991
444.8025
444.7888
444.7583
444.7118
444.649
444.5697
444.4735
444.3602
444.2294
444.0809
443.914
443.7281
443.5227
443.2973
443.0505
442.7812
442.4884
442.158
441.7772
441.3537
440.8814
440.3362
439.6843
438.8712
437.7758
436.1161
433.048
425.2833
453.3672
439.9393
437.9765
437.886
438.2926
438.8286
439.3848
439.9274
440.4459
440.9379
441.4026
441.8405
442.2526
442.6407
443.0051
443.3452
443.6622
443.9568
444.2294
444.4806
444.7107
444.9204
445.1102
445.2803
445.4312
445.5632
445.6765
445.7712
445.8473
445.9051
445.9444
445.9657
445.968
445.9518
445.9172
445.8646
445.7938
445.7044
445.5961
445.4686
445.3214
445.154
444.9658
444.7562
444.5246
444.2697
443.9909
443.6868
443.3549
442.9911
442.5872
442.1372
441.6331
441.0585
440.3835
439.5532
438.4548
436.8177
433.8024
425.857
454.3307
440.6225
438.5173
438.3528
438.7339
439.2745
439.8497
440.4174
440.9636
441.4837
441.9764
442.442
442.881
443.2941
443.6825
444.047
444.3874
444.7041
444.9974
445.2679
445.5159
445.7418
445.9461
446.1293
446.2915
446.4332
446.5547
446.656
446.7373
446.7988
446.8403
446.8618
446.8634
446.8453
446.8077
446.7507
446.6739
446.5771
446.46
446.3219
446.1623
445.9805
445.776
445.5478
445.2953
445.0175
444.7134
444.3813
444.0188
443.6228
443.189
442.7116
442.1809
441.5812
440.8846
440.0395
438.9388
437.3204
434.3507
426.2814
455.3037
441.2981
439.0464
438.7953
439.1321
439.6594
440.2388
440.8199
441.3837
441.923
442.4356
442.921
443.3796
443.8116
444.2177
444.5988
444.9553
445.2874
445.5951
445.8789
446.139
446.3759
446.59
446.7817
446.9514
447.0994
447.226
447.3315
447.4161
447.4798
447.5227
447.5446
447.5459
447.5267
447.4873
447.4274
447.3469
447.2454
447.1222
446.9768
446.8084
446.6163
446.3995
446.1573
445.8887
445.5928
445.2684
444.914
444.5277
444.1071
443.6487
443.1468
442.5927
441.9714
441.2563
440.3983
439.294
437.6892
434.7623
426.6144
456.2816
441.9683
439.565
439.2202
439.5004
440.0008
440.5719
441.1552
441.7271
442.2779
442.8036
443.3028
443.775
444.2204
444.6392
445.0316
445.3984
445.74
446.0566
446.3486
446.6162
446.8597
447.0798
447.2766
447.4507
447.6024
447.7322
447.8402
447.9268
447.9921
448.0362
448.059
448.0607
448.0415
448.0015
447.9406
447.8584
447.7544
447.6278
447.4779
447.3039
447.1046
446.8792
446.6267
446.346
446.0359
445.6954
445.3233
444.9181
444.4777
443.999
443.4772
442.9039
442.265
441.5355
440.6678
439.5622
437.9708
435.0841
426.8989
457.1321
442.6263
440.0726
439.6316
439.8471
440.3097
440.862
441.4385
442.0107
442.566
443.0985
443.6056
444.0862
444.5399
444.9667
445.3667
445.7401
446.0874
446.4092
446.7058
446.9774
447.2245
447.4476
447.6471
447.8235
447.9772
448.1087
448.2183
448.3062
448.3728
448.4181
448.442
448.4448
448.4266
448.3873
448.3267
448.2444
448.1398
448.0119
447.8599
447.6827
447.4791
447.2479
446.9879
446.698
446.3769
446.0238
445.6375
445.217
444.7606
444.2658
443.728
443.1395
442.4869
441.7462
440.8711
439.7648
438.1855
435.3384
427.158
458.1394
443.2754
440.568
440.0307
440.1774
440.5947
441.1199
441.6816
442.2469
442.8001
443.3336
443.8435
444.3279
444.7858
445.2169
445.6211
445.9985
446.3494
446.6741
446.9732
447.247
447.4959
447.7205
447.9213
448.0989
448.2536
448.386
448.4965
448.5855
448.6531
448.6995
448.7248
448.729
448.7122
448.6743
448.615
448.5336
448.4296
448.3018
448.1493
447.9707
447.7646
447.5296
447.2643
446.9673
446.6376
446.2742
445.8764
445.4434
444.9739
444.4658
443.9152
443.315
442.6522
441.9035
441.024
439.9189
438.3518
435.5422
427.4023
459.2747
443.9169
441.052
440.4198
440.496
440.8632
441.3549
441.8953
442.4475
442.993
443.5223
444.0303
444.5141
444.9724
445.4045
445.8103
446.1895
446.5423
446.8689
447.1697
447.4449
447.6952
447.9209
448.1227
448.3011
448.4565
448.5896
448.7007
448.7903
448.8587
448.9062
448.9327
448.9383
448.9232
448.8869
448.8293
448.7495
448.6468
448.5201
448.3681
448.1893
447.982
447.7446
447.4754
447.1727
446.8355
446.4629
446.0548
445.6109
445.1307
444.6124
444.0523
443.4436
442.7737
442.0198
441.1377
440.0346
438.479
435.7051
427.6338
460.2079
444.5646
441.5324
440.8011
440.8037
441.1161
441.569
442.0824
442.6161
443.1488
443.6691
444.1708
444.6502
445.1053
445.5355
445.9403
446.3201
446.6747
447.0039
447.3075
447.5855
447.8381
448.0659
448.2694
448.4492
448.6058
448.7397
448.8514
448.9416
449.0106
449.0588
449.0863
449.0932
449.0794
449.0447
448.9887
448.9106
448.8095
448.6842
448.5332
448.3548
448.1472
447.9082
447.6359
447.328
446.9832
446.6012
446.1828
445.7292
445.2402
444.7143
444.1476
443.5335
442.8595
442.1029
441.2205
440.1207
438.5759
435.8342
427.8535
461.2757
445.2118
442.0064
441.1755
441.1044
441.3598
441.7695
442.2507
442.7603
443.2749
443.7813
444.2719
444.742
445.189
445.6114
446.0113
446.3922
446.7532
447.0909
447.4024
447.6862
447.9428
448.1735
448.3799
448.5624
448.7205
448.8546
448.9659
449.0559
449.125
449.1735
449.2015
449.2091
449.1963
449.1627
449.108
449.0314
448.9318
448.808
448.6583
448.4808
448.2733
448.0337
447.7594
447.4468
447.0926
446.6977
446.2672
445.8048
445.31
444.7797
444.2098
443.5933
442.9178
442.1609
441.2794
440.1834
438.6483
435.9347
428.0537
462.3352
445.8551
442.4738
441.5446
441.4023
441.6018
441.9673
442.4136
442.8954
443.3875
443.8751
444.3495
444.8052
445.2391
445.6542
446.0536
446.4359
446.7992
447.1412
447.4594
447.7512
448.0152
448.2516
448.4614
448.6458
448.8055
448.9414
449.0543
449.1449
449.214
449.2622
449.2899
449.2975
449.285
449.2521
449.1982
449.1225
449.0241
448.9018
448.7537
448.5776
448.3707
448.1298
447.851
447.5312
447.1688
446.7646
446.3221
445.8476
445.3472
444.8164
444.2464
443.6301
442.9551
442.1993
441.3201
440.2281
438.7016
436.0105
428.2235
463.3852
446.4954
442.9359
441.91
441.6993
441.843
442.1626
442.5714
443.0226
443.4893
443.9558
444.4126
444.8539
445.2763
445.6834
446.0793
446.4621
446.8287
447.1748
447.4964
447.7919
448.0607
448.3025
448.5172
448.7055
448.8681
449.0062
449.1207
449.2125
449.2825
449.3312
449.3591
449.3669
449.3546
449.3218
449.268
449.1924
449.0941
448.9715
448.8228
448.6457
448.4375
448.1948
447.914
447.5913
447.2236
446.8111
446.3583
445.8742
445.3672
444.8348
444.2661
443.6513
442.978
442.2243
441.3477
440.2598
438.7404
436.0666
428.3542
464.4226
447.1321
443.3924
442.2749
441.9965
442.0846
442.3575
442.7274
443.1463
443.5862
444.0305
444.4689
444.8951
445.3064
445.7071
446.1005
446.4836
446.8508
447.1974
447.5211
447.8202
448.0931
448.3389
448.5576
448.7494
448.9151
449.0558
449.1724
449.2659
449.3371
449.3865
449.4148
449.4225
449.4099
449.3767
449.3222
449.2457
449.1463
449.0225
448.8725
448.694
448.4839
448.2391
447.9555
447.6297
447.2588
446.8427
446.3848
445.8931
445.378
444.8428
444.2761
443.6632
442.9921
442.2408
441.3672
440.2831
438.7697
436.1082
428.4464
465.4405
447.7604
443.8507
442.6399
442.2945
442.3279
442.5547
442.8856
443.2719
443.6847
444.1068
444.5274
444.9396
445.3414
445.7358
446.1246
446.5044
446.8705
447.2184
447.5445
447.846
448.1215
448.3701
448.5915
448.786
448.9542
449.0969
449.2152
449.31
449.382
449.4319
449.4601
449.4674
449.4543
449.4202
449.3645
449.2867
449.1858
449.0603
448.9086
448.7281
448.5162
448.2693
447.9836
447.6554
447.2817
446.8619
446.3992
445.9022
445.382
444.845
444.2797
443.6689
443.0003
442.2519
441.3816
440.3016
438.7937
436.1421
428.5089
466.4313
448.3827
444.3092
443.0054
442.5942
442.5744
442.7562
443.0491
443.4035
443.7901
444.191
444.5948
444.9943
445.3869
445.7748
446.1589
446.5356
446.8999
447.2471
447.5734
447.8761
448.1532
448.4033
448.6261
448.8219
448.9912
449.1348
449.2538
449.3488
449.4208
449.4704
449.4981
449.5046
449.4904
449.4553
449.3982
449.3187
449.216
449.0887
448.935
448.7525
448.5385
448.2894
448.0014
447.6709
447.2949
446.8725
446.4068
445.9059
445.3814
444.8414
444.2767
443.6688
443.0031
442.2578
441.3908
440.3148
438.8122
436.1683
428.5479
467.3856
449.0005
444.7667
443.3713
442.8961
442.8252
442.964
443.2207
443.5449
443.9069
444.2883
444.6772
445.0659
445.4503
445.8315
446.2101
446.5826
446.944
447.2893
447.6147
447.9168
448.1935
448.4433
448.6659
448.8614
449.0303
449.1734
449.2915
449.3857
449.4566
449.5049
449.5313
449.5363
449.5207
449.484
449.4254
449.3442
449.2395
449.1102
448.9544
448.7697
448.5534
448.302
448.0117
447.6789
447.3006
446.8759
446.4077
445.9043
445.3774
444.8361
444.2721
443.6667
443.0039
442.2616
441.3983
440.3265
438.8296
436.1942
428.5859
468.2986
449.6139
445.2234
443.7383
443.2012
443.0815
443.1799
443.4026
443.699
444.0388
444.4028
444.7789
445.1586
445.5364
445.9112
446.2838
446.6512
447.0082
447.3501
447.6724
447.9718
448.2461
448.4937
448.7142
448.9076
449.0742
449.215
449.3309
449.4227
449.4913
449.5373
449.5614
449.5643
449.5467
449.5081
449.4476
449.3644
449.2578
449.1264
448.9684
448.7814
448.5628
448.309
448.0164
447.6813
447.3009
446.8743
446.4043
445.8991
445.3707
444.8285
444.2657
443.6631
443.0033
442.2643
441.4047
440.3374
438.8463
436.22
428.6266
469.1733
450.2236
445.6798
444.1071
443.5102
443.3444
443.4052
443.597
443.8682
444.1881
444.5371
444.9022
445.2745
445.6478
446.0176
446.3835
446.7444
447.0955
447.4318
447.7489
448.0436
448.3132
448.5565
448.7727
448.9618
449.1244
449.2613
449.3732
449.4612
449.5262
449.5689
449.5898
449.5898
449.5694
449.5284
449.4657
449.3804
449.2717
449.1381
448.9779
448.7887
448.5677
448.3116
448.0167
447.6795
447.2971
446.8688
446.3975
445.8912
445.3621
444.8199
444.2586
443.6588
443.0019
442.2663
441.4106
440.3478
438.8628
436.2462
428.673
470.023
450.8305
446.1366
444.4783
443.824
443.615
443.6412
443.8051
444.054
444.3565
444.6925
445.0482
445.4142
445.7833
446.1502
446.5107
446.8636
447.2068
447.5355
447.8452
448.1325
448.3952
448.6318
448.8416
449.0246
449.1813
449.3124
449.419
449.5019
449.562
449.6002
449.6171
449.6133
449.5897
449.5458
449.4806
449.3929
449.2818
449.146
448.9836
448.7922
448.569
448.3106
448.0136
447.6743
447.2901
446.8604
446.3882
445.8815
445.3524
444.8108
444.2513
443.6542
443.0005
442.2683
441.4164
440.3583
438.8795
436.2732
428.7245
470.8511
451.4351
446.5947
444.853
444.1437
443.8942
443.8889
444.0278
444.257
444.5443
444.869
445.2165
445.5765
445.9412
446.3045
446.6617
447.0083
447.3418
447.6602
447.96
448.2379
448.4913
448.7188
448.92
449.0949
449.244
449.368
449.4678
449.5444
449.5987
449.6316
449.6436
449.6355
449.6079
449.5607
449.4927
449.4023
449.2888
449.1506
448.986
448.7924
448.567
448.3066
448.0075
447.6664
447.2808
446.85
446.3773
445.8706
445.3422
444.8018
444.2443
443.65
442.9993
442.2705
441.4224
440.3691
438.8965
436.3007
428.7787
471.6529
452.0374
447.0544
445.2317
444.4699
444.1828
444.1489
444.2654
444.4773
444.7512
445.0657
445.4055
445.7594
446.119
446.4775
446.8295
447.1705
447.4966
447.8044
448.0918
448.3573
448.5991
448.8158
449.0066
449.1717
449.3115
449.4269
449.5189
449.5883
449.636
449.6628
449.6695
449.6566
449.6247
449.5738
449.5025
449.4093
449.2931
449.1525
448.9856
448.7898
448.5623
448.2999
447.999
447.6563
447.2695
446.838
446.3651
445.8591
445.3318
444.7932
444.2381
443.6465
442.9988
442.2733
441.4291
440.3804
438.9142
436.3293
428.8356
472.4206
452.6356
447.517
445.6155
444.8035
444.4812
444.4213
444.5179
444.7142
444.9761
445.2811
445.6131
445.9604
446.3138
446.6659
447.0109
447.344
447.6613
447.9594
448.2359
448.4887
448.7168
448.9203
449.0989
449.2527
449.3821
449.488
449.5712
449.6327
449.6733
449.6938
449.6947
449.6767
449.6403
449.5854
449.5106
449.4144
449.2955
449.1523
448.983
448.785
448.5554
448.2911
447.9885
447.6444
447.2566
446.8247
446.3522
445.8472
445.3217
444.7853
444.2327
443.6439
442.9992
442.2769
441.4365
440.3923
438.9326
436.359
428.8953
473.2787
453.2279
447.9816
446.003
445.1442
444.7895
444.7058
444.7843
444.9667
445.2174
445.513
445.837
446.1768
446.5226
446.8667
447.2029
447.5263
447.8329
448.1196
448.384
448.6245
448.84
449.03
449.1951
449.3363
449.4544
449.5499
449.6238
449.677
449.7101
449.7239
449.719
449.6959
449.6548
449.5958
449.5174
449.418
449.2962
449.1505
448.9787
448.7784
448.5468
448.2806
447.9764
447.6312
447.2426
446.8107
446.3388
445.8353
445.312
444.7783
444.2284
443.6424
443.0006
442.2816
441.4447
440.4051
438.9518
436.3902
428.9609
474.0026
453.8244
448.4466
446.3932
445.492
445.1075
445.002
445.064
445.2333
445.4732
445.7594
446.0746
446.4058
446.7426
447.077
447.4027
447.7146
448.0089
448.2826
448.5336
448.7606
448.9627
449.1399
449.2923
449.4208
449.5268
449.6115
449.6757
449.7203
449.7459
449.753
449.7422
449.7139
449.6682
449.6051
449.5231
449.4205
449.2959
449.1476
448.9733
448.7708
448.5371
448.2691
447.9635
447.6171
447.2281
446.7962
446.3253
445.8237
445.3029
444.7722
444.2252
443.6419
443.003
442.2871
441.4538
440.4186
438.9717
436.4226
429.0343
474.7073
454.4202
448.9132
446.7872
445.8463
445.4343
445.3088
445.3555
445.5123
445.7415
446.0179
446.3234
446.6447
446.971
447.2941
447.6076
447.9065
448.1869
448.4463
448.6829
448.8954
449.0835
449.2471
449.3868
449.5034
449.5977
449.6715
449.726
449.762
449.78
449.7806
449.7641
449.7307
449.6805
449.6132
449.5278
449.4223
449.2949
449.1439
448.9673
448.7626
448.527
448.2573
447.9503
447.603
447.2135
446.782
446.3122
445.8126
445.2947
444.7672
444.2232
443.6426
443.0065
442.2936
441.4637
440.4326
438.9919
436.4557
429.1164
475.3921
455.0141
449.3832
447.1851
446.2056
445.7689
445.625
445.6572
445.8019
446.0201
446.286
446.5808
446.8908
447.2052
447.5155
447.8152
448.0996
448.365
448.609
448.8301
449.0274
449.2009
449.3506
449.4773
449.5819
449.6653
449.7288
449.7738
449.8014
449.8121
449.8063
449.7843
449.7461
449.6917
449.6206
449.5318
449.4234
449.2933
449.14
448.9612
448.7545
448.5171
448.2458
447.9375
447.5894
447.1997
446.7686
446.3
445.8026
445.2876
444.7635
444.2224
443.6443
443.0109
442.3009
441.4741
440.4469
439.0119
436.4883
429.204
476.0616
455.6044
449.8554
447.5867
446.5701
446.1105
445.9492
445.9675
446.1001
446.3069
446.5613
446.8443
447.1417
447.4426
447.7385
448.0232
448.2918
448.5411
448.7688
448.9738
449.1555
449.314
449.4497
449.5633
449.6559
449.7285
449.7823
449.8185
449.8381
449.8418
449.8301
449.8029
449.7602
449.7018
449.6272
449.5352
449.424
449.2915
449.1359
448.9551
448.7466
448.5076
448.2351
447.9259
447.5772
447.1873
446.7566
446.2893
445.794
445.2821
444.7613
444.2231
443.6473
443.0163
442.3089
441.485
440.4613
439.0315
436.5194
429.2926
476.7127
456.1902
450.3296
447.9901
446.9401
446.4583
446.2802
446.2846
446.4048
446.5995
446.8414
447.1113
447.3946
447.6806
447.9609
448.2292
448.4811
448.7134
448.9243
449.1127
449.2786
449.422
449.5436
449.6444
449.7252
449.7873
449.8317
449.8595
449.8717
449.869
449.8517
449.8197
449.773
449.711
449.6331
449.5382
449.4243
449.2896
449.1321
448.9496
448.7396
448.4993
448.2257
447.9155
447.5663
447.1765
446.7466
446.2809
445.7878
445.2785
444.7607
444.225
443.6514
443.0227
442.3176
441.4963
440.4757
439.0503
436.548
429.3755
477.3487
456.7707
450.8045
448.3959
447.314
446.8117
446.6167
446.6069
446.7139
446.8955
447.1238
447.3792
447.6472
447.9169
448.1803
448.4313
448.6656
448.8804
449.074
449.2458
449.3958
449.5243
449.6321
449.7203
449.7897
449.8416
449.877
449.8969
449.9022
449.8935
449.8712
449.8349
449.7845
449.7193
449.6385
449.5409
449.4247
449.288
449.1288
448.9447
448.7334
448.4919
448.2173
447.9066
447.5573
447.1677
446.7386
446.2742
445.7832
445.2766
444.7616
444.2283
443.6566
443.03
442.3271
441.5081
440.4901
439.0683
436.5738
429.4475
477.9682
457.3464
451.2798
448.8038
447.6909
447.169
446.9573
446.9326
447.0254
447.1927
447.4061
447.6457
447.8969
448.1492
448.3946
448.6274
448.8436
449.0406
449.2169
449.3722
449.5064
449.6204
449.7148
449.7908
449.8494
449.8916
449.9185
449.9309
449.9298
449.9156
449.8886
449.8485
449.7948
449.7267
449.6434
449.5434
449.4251
449.2866
449.1257
448.9403
448.7278
448.4855
448.2105
447.8995
447.5501
447.1608
446.7323
446.2692
445.7803
445.2765
444.7643
444.2333
443.6634
443.0385
442.3376
441.5207
440.5049
439.086
436.5971
429.5049
478.5771
457.9138
451.7547
449.2125
448.0694
447.5285
447.3002
447.26
447.3374
447.4891
447.6861
447.9085
448.1418
448.3756
448.6022
448.8162
449.0139
449.1929
449.3521
449.4911
449.6101
449.71
449.7916
449.856
449.9043
449.9375
449.9564
449.9619
449.9547
449.9354
449.9041
449.8606
449.804
449.7334
449.6479
449.5459
449.4257
449.2854
449.1232
448.9367
448.7234
448.4805
448.205
447.8939
447.5445
447.1557
446.7281
446.2666
445.7796
445.2783
444.7689
444.24
443.6716
443.0484
442.3491
441.5339
440.5202
439.1035
436.6183
429.5474
479.1671
458.474
452.2268
449.6216
448.4488
447.8888
447.6436
447.5872
447.6483
447.783
447.9623
448.1661
448.3802
448.5945
448.8016
448.9964
449.1754
449.3366
449.4789
449.6021
449.7066
449.7931
449.8626
449.9161
449.9547
449.9794
449.9909
449.99
449.9773
449.9533
449.9182
449.8715
449.8123
449.7396
449.6522
449.5484
449.4265
449.2849
449.1215
448.934
448.72
448.4767
448.2009
447.8898
447.5407
447.1524
446.7258
446.2657
445.7809
445.2823
444.7756
444.2486
443.6815
443.0597
442.3618
441.5483
440.5362
439.1213
436.6384
429.5771
479.7452
459.027
452.6983
450.032
448.8278
448.2479
447.9853
447.9117
447.9553
448.0717
448.232
448.4161
448.6102
448.8044
448.9916
449.167
449.3275
449.4712
449.5972
449.7052
449.7958
449.8697
449.9278
449.9712
450.0008
450.0176
450.0224
450.0156
449.998
449.9697
449.9309
449.8814
449.8199
449.7454
449.6563
449.5511
449.4278
449.285
449.1206
448.9324
448.7179
448.4743
448.1985
447.8875
447.5388
447.1511
446.7256
446.267
445.7842
445.288
444.7839
444.2589
443.693
443.0725
442.3761
441.5641
440.5535
439.1402
436.6587
429.6003
480.188
459.5724
453.1689
450.4424
449.2044
448.6039
448.3233
448.2316
448.2565
448.3535
448.4936
448.6572
448.8306
449.0043
449.1714
449.3276
449.4699
449.5966
449.7069
449.8006
449.8781
449.9401
449.9877
450.0217
450.043
450.0526
450.0511
450.0391
450.0168
449.9847
449.9427
449.8905
449.8271
449.7509
449.6605
449.554
449.4296
449.2858
449.1206
448.9319
448.7171
448.4733
448.1976
447.8869
447.5387
447.1517
446.7272
446.2701
445.7892
445.2954
444.7937
444.2705
443.7058
443.0866
442.3916
441.581
440.572
439.1603
436.6803
429.6213
480.7276
460.1039
453.6333
450.8503
449.5773
448.9552
448.6559
448.5451
448.5502
448.6267
448.7458
448.8882
449.0406
449.1935
449.3408
449.4781
449.6027
449.713
449.8083
449.8884
449.9537
450.0048
450.0426
450.068
450.0818
450.0848
450.0776
450.0607
450.0343
449.9987
449.9538
449.8993
449.834
449.7564
449.6649
449.5573
449.4319
449.2873
449.1215
448.9324
448.7175
448.4738
448.1983
447.8879
447.5402
447.154
446.7306
446.2748
445.7959
445.3043
444.8049
444.2834
443.7199
443.1018
442.4081
441.5989
440.5914
439.1813
436.7029
429.6439
481.3928
460.6273
454.093
451.2542
449.9451
449.3004
448.9814
448.8505
448.8348
448.89
448.9876
449.1084
449.2395
449.372
449.4997
449.6186
449.7262
449.8209
449.902
449.9694
450.0233
450.0643
450.0931
450.1106
450.1174
450.1144
450.1021
450.0807
450.0506
450.0118
449.9643
449.9077
449.8409
449.762
449.6693
449.5608
449.4347
449.2894
449.1232
448.9339
448.719
448.4755
448.2003
447.8904
447.5434
447.1579
446.7355
446.2812
445.804
445.3146
444.8173
444.2973
443.735
443.1181
442.4257
441.6178
440.6118
439.2033
436.7269
429.6698
481.9569
461.1438
454.5474
451.6537
450.307
449.6385
449.2989
449.1468
449.1094
449.1426
449.2181
449.3172
449.4273
449.5396
449.6483
449.7495
449.8408
449.9206
449.9884
450.0439
450.0872
450.1189
450.1395
450.1498
450.1504
450.1419
450.1248
450.0994
450.0659
450.0243
449.9745
449.916
449.8476
449.7675
449.6739
449.5646
449.4378
449.2921
449.1257
448.9363
448.7215
448.4784
448.2036
447.8943
447.5479
447.1633
446.7419
446.2889
445.8135
445.3261
444.8307
444.3122
443.7509
443.1353
442.444
441.6375
440.6329
439.2261
436.7517
429.6984
482.5194
461.6523
454.996
452.0474
450.6619
449.9684
449.6071
449.4329
449.3732
449.3839
449.4372
449.5147
449.6039
449.6966
449.7869
449.8712
449.947
450.0129
450.0682
450.1125
450.1461
450.1692
450.1823
450.1861
450.1809
450.1674
450.146
450.117
450.0804
450.0362
449.9843
449.9241
449.8542
449.773
449.6786
449.5687
449.4414
449.2953
449.1288
448.9396
448.7251
448.4823
448.2081
447.8994
447.5537
447.1699
446.7495
446.2978
445.8242
445.3388
444.8451
444.3278
443.7677
443.1531
442.4631
441.6578
440.6546
439.2495
436.7772
429.7286
483.0718
462.1537
455.4387
452.4349
451.009
450.2892
449.9054
449.7083
449.6257
449.6137
449.6448
449.7009
449.7699
449.8435
449.9163
449.9844
450.0456
450.0984
450.1419
450.176
450.2005
450.2157
450.222
450.2197
450.2094
450.1914
450.1661
450.1337
450.0943
450.0477
449.9939
449.9321
449.8609
449.7787
449.6834
449.5729
449.4452
449.299
449.1325
448.9435
448.7294
448.4872
448.2136
447.9056
447.5607
447.1777
446.7582
446.3078
445.8359
445.3525
444.8603
444.3441
443.7851
443.1716
442.4826
441.6786
440.6768
439.2732
436.803
429.7589
483.6103
462.6473
455.8749
452.8152
451.3474
450.6003
450.1931
449.9727
449.8667
449.832
449.8411
449.8763
449.9256
449.9809
450.0369
450.0897
450.1371
450.1776
450.2103
450.2347
450.2509
450.2588
450.2588
450.251
450.2359
450.2138
450.185
450.1495
450.1075
450.0589
450.0033
449.94
449.8676
449.7844
449.6884
449.5774
449.4494
449.3032
449.1368
448.9482
448.7346
448.493
448.22
447.9128
447.5686
447.1864
446.768
446.3188
445.8485
445.3669
444.8762
444.361
443.803
443.1905
442.5027
441.6998
440.6993
439.2972
436.829
429.7887
484.0214
463.1325
456.3053
453.1885
451.6769
450.9013
450.4701
450.2258
450.0964
450.0391
450.0266
450.0414
450.0717
450.1095
450.1495
450.1879
450.2224
450.2513
450.2737
450.2893
450.2976
450.2988
450.293
450.2802
450.2608
450.235
450.2029
450.1647
450.1203
450.0697
450.0125
449.9479
449.8744
449.7902
449.6936
449.5821
449.4539
449.3077
449.1417
448.9535
448.7405
448.4995
448.2273
447.9208
447.5773
447.196
446.7786
446.3307
445.8619
445.3821
444.8927
444.3784
443.8214
443.2099
442.5231
441.7214
440.7221
439.3214
436.8551
429.8175
484.5317
463.6029
456.724
453.5529
451.9968
451.1913
450.7356
450.4674
450.3148
450.2351
450.2016
450.1967
450.2088
450.23
450.2548
450.2796
450.3018
450.32
450.3329
450.3401
450.3412
450.3362
450.3249
450.3076
450.2842
450.255
450.2199
450.1792
450.1327
450.0803
450.0216
449.9558
449.8811
449.7962
449.6989
449.587
449.4587
449.3127
449.1471
448.9595
448.7471
448.5068
448.2353
447.9295
447.5869
447.2064
446.7899
446.3433
445.876
445.3978
444.9097
444.3963
443.8402
443.2297
442.5439
441.7433
440.7452
439.346
436.8815
429.846
485.0428
464.063
457.1339
453.9095
452.3085
451.4699
450.9889
450.6974
450.5221
450.4207
450.3667
450.3428
450.3375
450.3429
450.3534
450.3653
450.3762
450.3842
450.3882
450.3876
450.382
450.3711
450.3549
450.3333
450.3062
450.2739
450.2361
450.1931
450.1447
450.0906
450.0306
449.9635
449.8879
449.8023
449.7043
449.592
449.4638
449.3181
449.153
448.9659
448.7542
448.5146
448.244
447.939
447.5972
447.2175
446.802
446.3565
445.8906
445.414
444.9271
444.4146
443.8594
443.2498
442.565
441.7654
440.7686
439.3708
436.9081
429.8747
485.552
464.5146
457.5356
454.2581
452.6112
451.7375
451.2306
450.9162
450.7186
450.5962
450.5225
450.4805
450.4586
450.4489
450.4459
450.4458
450.4459
450.4444
450.4401
450.4322
450.4203
450.4039
450.383
450.3574
450.327
450.2917
450.2516
450.2064
450.1563
450.1008
450.0395
449.9712
449.8946
449.8082
449.7098
449.5973
449.4692
449.3239
449.1592
448.9728
448.7618
448.523
448.2531
447.949
447.6079
447.2292
446.8146
446.3702
445.9057
445.4306
444.9448
444.4331
443.8788
443.2701
442.5862
441.7877
440.7921
439.3957
436.9349
429.904
486.0546
464.959
457.9302
454.5991
452.9048
451.9944
451.4613
451.1244
450.9052
450.7623
450.6697
450.6104
450.5727
450.5488
450.533
450.5214
450.5114
450.501
450.4889
450.4742
450.4563
450.4348
450.4095
450.3801
450.3466
450.3087
450.2663
450.2193
450.1675
450.1108
450.0482
449.9788
449.9013
449.8142
449.7153
449.6027
449.4748
449.3298
449.1658
448.98
448.7698
448.5318
448.2627
447.9594
447.6192
447.2412
446.8275
446.3843
445.9211
445.4474
444.9627
444.4518
443.8983
443.2905
442.6076
441.8101
440.8157
439.4207
436.9617
429.9333
486.5502
465.3951
458.3169
454.9324
453.1895
452.2411
451.6815
451.3225
451.0822
450.9196
450.809
450.7331
450.6804
450.6429
450.6151
450.5928
450.5732
450.5544
450.5349
450.5137
450.4902
450.4639
450.4345
450.4016
450.3651
450.3247
450.2803
450.2316
450.1785
450.1205
450.0567
449.9862
449.9078
449.8201
449.7209
449.6083
449.4806
449.3361
449.1726
448.9875
448.778
448.5409
448.2726
447.9701
447.6307
447.2536
446.8408
446.3986
445.9367
445.4643
444.9807
444.4705
443.9178
443.3109
442.629
441.8326
440.8393
439.4456
436.9885
429.9623
487.0378
465.823
458.6964
455.2583
453.4657
452.4781
451.8916
451.5109
451.2502
451.0688
450.9408
450.8491
450.7822
450.732
450.6927
450.6602
450.6316
450.6048
450.5784
450.5511
450.5223
450.4915
450.4581
450.422
450.3827
450.34
450.2937
450.2435
450.1891
450.1299
450.065
449.9934
449.9143
449.8261
449.7267
449.614
449.4866
449.3425
449.1796
448.9953
448.7866
448.5502
448.2828
447.981
447.6425
447.2661
446.8543
446.4131
445.9524
445.4813
444.9987
444.4893
443.9374
443.3314
442.6504
441.855
440.8629
439.4706
437.0151
429.991
487.5174
466.2426
459.0678
455.577
453.7349
452.7077
452.0919
451.6892
451.4095
451.2102
451.0657
450.9591
450.8787
450.8163
450.7662
450.7241
450.6869
450.6526
450.6195
450.5865
450.5527
450.5175
450.4805
450.4412
450.3993
450.3545
450.3065
450.2549
450.1993
450.1389
450.073
450.0005
449.9207
449.8321
449.7325
449.6199
449.4927
449.3491
449.1869
449.0033
448.7953
448.5597
448.2931
447.9922
447.6544
447.2789
446.8679
446.4277
445.9682
445.4984
445.0167
444.508
443.957
443.3518
442.6717
441.8774
440.8864
439.4954
437.0417
430.0196
487.9848
466.6535
459.4323
455.8892
453.9973
452.9299
452.2834
451.8587
451.5607
451.3443
451.1842
451.0634
450.9702
450.8964
450.8359
450.7847
450.7395
450.698
450.6586
450.6201
450.5815
450.5422
450.5017
450.4594
450.4151
450.3683
450.3187
450.2658
450.209
450.1475
450.0806
450.0075
449.9271
449.8382
449.7384
449.6259
449.499
449.3559
449.1943
449.0114
448.8042
448.5695
448.3037
448.0036
447.6666
447.2919
446.8817
446.4424
445.984
445.5154
445.0347
444.5268
443.9765
443.3722
442.6931
441.8997
440.9099
439.5202
437.068
430.0477
488.4366
467.0551
459.7886
456.1949
454.2536
453.145
452.467
452.0202
451.7045
451.4719
451.2969
451.1626
451.0572
450.9724
450.9022
450.8423
450.7894
450.7411
450.6957
450.652
450.6088
450.5656
450.5217
450.4767
450.43
450.3813
450.3302
450.276
450.218
450.1556
450.088
450.0142
449.9335
449.8443
449.7444
449.632
449.5055
449.3629
449.2019
449.0197
448.8133
448.5794
448.3144
448.0151
447.6788
447.3049
446.8955
446.4572
445.9999
445.5324
445.0526
444.5454
443.996
443.3925
442.7143
441.922
440.9333
439.5449
437.0942
430.0747
488.9955
467.4519
460.1391
456.4946
454.504
453.3544
452.6448
452.1743
451.8408
451.5929
451.4039
451.2569
451.14
451.0448
450.9654
450.8972
450.8369
450.7821
450.731
450.6823
450.6348
450.5879
450.5408
450.4931
450.4442
450.3937
450.341
450.2855
450.2265
450.1633
450.095