/*--------------------------------*- C++ -*----------------------------------*\
| =========                 |                                                 |
| \\      /  F ield         | OpenFOAM: The Open Source CFD Toolbox           |
|  \\    /   O peration     | Version:  2312                                  |
|   \\  /    A nd           | Website:  www.openfoam.com                      |
|    \\/     M anipulation  |                                                 |
\*---------------------------------------------------------------------------*/
FoamFile
{
    version     2.0;
    format      ascii;
    arch        "LSB;label=32;scalar=64";
    class       volVectorField;
    location    "5700";
    object      U;
}
// * * * * * * * * * * * * * * * * * * * * * * * * * * * * * * * * * * * * * //

dimensions      [0 1 -1 0 0 0 0];

internalField   nonuniform List<vector> 
12000
(
(-0.02762799 0.06111844 0)
(-0.05981722 0.0466944 0)
(-0.09270988 0.04781544 0)
(-0.1289493 0.05783557 0)
(-0.1665824 0.07333457 0)
(-0.2090353 0.07579652 0)
(-0.248169 0.05392126 0)
(-0.2802033 0.03774957 0)
(-0.309715 0.06017931 0)
(-0.3459808 0.08695087 0)
(-0.3844874 0.06252873 0)
(-0.4109045 0.01551616 0)
(-0.4272744 0.02425596 0)
(-0.4536612 0.07035395 0)
(-0.48687 0.06491186 0)
(-0.509818 0.01069845 0)
(-0.5196748 0.001008217 0)
(-0.5358336 0.0485166 0)
(-0.5618807 0.05863237 0)
(-0.5806176 0.009525541 0)
(-0.5862494 -0.008770481 0)
(-0.5956901 0.03198996 0)
(-0.6146 0.04641667 0)
(-0.6281521 0.00648098 0)
(-0.630645 -0.01171566 0)
(-0.6354469 0.01749216 0)
(-0.6469462 0.02860252 0)
(-0.6545702 0.003413904 0)
(-0.6552816 -0.00703788 0)
(-0.6570482 0.005215376 0)
(-0.6608489 0.009832143 0)
(-0.663542 0.00407785 0)
(-0.6640705 -0.001346455 0)
(-0.6624918 -0.01281448 0)
(-0.6572247 -0.02006241 0)
(-0.6514658 -0.007938893 0)
(-0.6494416 0.01379925 0)
(-0.6491196 0.007991735 0)
(-0.6432423 -0.02669579 0)
(-0.6289056 -0.05491196 0)
(-0.6102762 -0.02635813 0)
(-0.6061253 0.03191989 0)
(-0.6053191 0.03768581 0)
(-0.5996953 -0.03844193 0)
(-0.5739917 -0.1027166 0)
(-0.540295 -0.04744319 0)
(-0.532715 0.04661546 0)
(-0.530133 0.02761296 0)
(-0.5114997 -0.09098328 0)
(-0.468837 -0.1142605 0)
(-0.4363399 -0.01112064 0)
(-0.4252299 0.01930926 0)
(-0.4000218 -0.07441874 0)
(-0.3528278 -0.1136629 0)
(-0.3133236 -0.06509504 0)
(-0.2740305 -0.04076457 0)
(-0.230992 -0.08252554 0)
(-0.1704886 -0.1153814 0)
(-0.09653294 -0.1074892 0)
(-0.03830488 -0.1014446 0)
(-0.02654172 0.1742221 0)
(-0.05435183 0.1528774 0)
(-0.09836501 0.1514016 0)
(-0.1330731 0.1533858 0)
(-0.1676811 0.1551212 0)
(-0.196507 0.1568169 0)
(-0.2265961 0.1497879 0)
(-0.2601061 0.1369622 0)
(-0.2881938 0.1317199 0)
(-0.3146791 0.1252278 0)
(-0.3315624 0.1233713 0)
(-0.3569053 0.1072528 0)
(-0.3859519 0.09989741 0)
(-0.4060799 0.1002539 0)
(-0.4168003 0.09581247 0)
(-0.4329291 0.08284414 0)
(-0.4566716 0.07438108 0)
(-0.4741579 0.0727509 0)
(-0.4806573 0.06954422 0)
(-0.4897977 0.05988695 0)
(-0.5072416 0.05221335 0)
(-0.5208686 0.04967799 0)
(-0.5243843 0.0466969 0)
(-0.5290017 0.03920356 0)
(-0.5405826 0.03266213 0)
(-0.549803 0.02965383 0)
(-0.5514473 0.02643962 0)
(-0.5532452 0.02027186 0)
(-0.5588404 0.01427388 0)
(-0.5625986 0.010835 0)
(-0.5627162 0.009287225 0)
(-0.5622528 0.004729023 0)
(-0.561379 -0.001099568 0)
(-0.5604321 -0.006939854 0)
(-0.5603849 -0.01182958 0)
(-0.5589897 -0.01486583 0)
(-0.5527376 -0.01753279 0)
(-0.5427333 -0.02277097 0)
(-0.5350281 -0.03071398 0)
(-0.5329815 -0.03768073 0)
(-0.5306951 -0.04206258 0)
(-0.5182823 -0.04489499 0)
(-0.494343 -0.04894618 0)
(-0.4751695 -0.05676907 0)
(-0.4719361 -0.06473155 0)
(-0.4691397 -0.07129381 0)
(-0.4490685 -0.07516656 0)
(-0.4118322 -0.08104331 0)
(-0.3896044 -0.09173662 0)
(-0.3856834 -0.1016004 0)
(-0.3709475 -0.1120314 0)
(-0.3330915 -0.1226937 0)
(-0.2999956 -0.1315133 0)
(-0.282888 -0.1389154 0)
(-0.2650916 -0.1568712 0)
(-0.2122442 -0.1965492 0)
(-0.1834673 -0.2120308 0)
(-0.1328061 -0.2639641 0)
(-0.08496081 -0.2868847 0)
(-0.03991002 -0.3003475 0)
(-0.02314127 0.2877604 0)
(-0.04522376 0.2652196 0)
(-0.08120669 0.2590653 0)
(-0.1086506 0.255716 0)
(-0.1382864 0.2498867 0)
(-0.1637821 0.2416567 0)
(-0.1879879 0.2303186 0)
(-0.2118915 0.2178746 0)
(-0.2359163 0.2098034 0)
(-0.2568248 0.2037547 0)
(-0.280725 0.1847013 0)
(-0.3000557 0.1712461 0)
(-0.3203407 0.1605682 0)
(-0.3372618 0.1511309 0)
(-0.3520657 0.1403348 0)
(-0.3665425 0.1287274 0)
(-0.3813982 0.1186157 0)
(-0.3948155 0.1101038 0)
(-0.4061132 0.1011179 0)
(-0.4167699 0.09123875 0)
(-0.4275643 0.08232011 0)
(-0.4372811 0.07489856 0)
(-0.4451999 0.06724232 0)
(-0.45234 0.05867835 0)
(-0.4593523 0.05065867 0)
(-0.4654011 0.0438095 0)
(-0.4699293 0.0368719 0)
(-0.4736254 0.02920562 0)
(-0.4769329 0.02166988 0)
(-0.4793925 0.01449329 0)
(-0.4803126 0.008410769 0)
(-0.4804273 0.003041978 0)
(-0.4797762 -0.006036926 0)
(-0.4782713 -0.01400677 0)
(-0.4760541 -0.02169129 0)
(-0.4727442 -0.02894327 0)
(-0.4679428 -0.0359706 0)
(-0.4618199 -0.04367239 0)
(-0.4550975 -0.05229847 0)
(-0.4480055 -0.0612807 0)
(-0.439964 -0.0696033 0)
(-0.4302724 -0.07738048 0)
(-0.418709 -0.08633315 0)
(-0.406231 -0.09651145 0)
(-0.3932554 -0.1075706 0)
(-0.3794038 -0.1179884 0)
(-0.3635455 -0.1279749 0)
(-0.3455298 -0.139431 0)
(-0.3270766 -0.1519713 0)
(-0.3070881 -0.1645003 0)
(-0.2873031 -0.1721602 0)
(-0.2676785 -0.1806056 0)
(-0.2385486 -0.2011654 0)
(-0.2166304 -0.2196531 0)
(-0.1786174 -0.2580509 0)
(-0.153007 -0.2816352 0)
(-0.1202468 -0.3138431 0)
(-0.09115519 -0.354024 0)
(-0.05464531 -0.4049243 0)
(-0.02186276 -0.4288951 0)
(-0.01770219 0.3705067 0)
(-0.03830035 0.3383189 0)
(-0.06455187 0.3305627 0)
(-0.08693926 0.3234968 0)
(-0.1099782 0.3140942 0)
(-0.1305036 0.3023063 0)
(-0.1518455 0.289637 0)
(-0.1718755 0.2773066 0)
(-0.1913141 0.2633654 0)
(-0.2085065 0.2533365 0)
(-0.2223646 0.2436053 0)
(-0.2399989 0.2263955 0)
(-0.2576854 0.2075721 0)
(-0.2731417 0.193386 0)
(-0.2875528 0.1806071 0)
(-0.3012259 0.1679713 0)
(-0.3144316 0.1556287 0)
(-0.3266579 0.1438255 0)
(-0.33771 0.1324171 0)
(-0.3479192 0.1212047 0)
(-0.3574612 0.1102992 0)
(-0.3661247 0.09978218 0)
(-0.3737831 0.08947467 0)
(-0.3806259 0.07923305 0)
(-0.3867786 0.0691437 0)
(-0.3920806 0.05928442 0)
(-0.3964037 0.04953946 0)
(-0.3998664 0.03978168 0)
(-0.4025629 0.02999036 0)
(-0.4043716 0.02007836 0)
(-0.4055494 0.01117307 0)
(-0.4057297 0.003289776 0)
(-0.4047495 -0.008056143 0)
(-0.4032253 -0.01844936 0)
(-0.4008453 -0.02856629 0)
(-0.3976048 -0.03878025 0)
(-0.3933517 -0.04911063 0)
(-0.3880881 -0.05969533 0)
(-0.3819298 -0.07059301 0)
(-0.3749767 -0.08176189 0)
(-0.3671584 -0.09316607 0)
(-0.3582582 -0.1048272 0)
(-0.3482329 -0.1168674 0)
(-0.3370327 -0.1294844 0)
(-0.3253166 -0.1423286 0)
(-0.3127772 -0.1559976 0)
(-0.298749 -0.1706166 0)
(-0.2838372 -0.1857575 0)
(-0.2672203 -0.2009375 0)
(-0.2506182 -0.2133607 0)
(-0.2335104 -0.2287492 0)
(-0.2082677 -0.2579718 0)
(-0.1857632 -0.2828273 0)
(-0.1605269 -0.3079189 0)
(-0.1371098 -0.3329586 0)
(-0.1140687 -0.3606616 0)
(-0.0892212 -0.3946667 0)
(-0.06472376 -0.4370724 0)
(-0.03797565 -0.4864448 0)
(-0.01551439 -0.5139216 0)
(-0.01362613 0.4442095 0)
(-0.03232891 0.4067964 0)
(-0.05349497 0.3950566 0)
(-0.07234838 0.3848999 0)
(-0.09121599 0.3729115 0)
(-0.1088723 0.3590069 0)
(-0.1264902 0.3436152 0)
(-0.1428279 0.3280477 0)
(-0.1584387 0.3111687 0)
(-0.1737562 0.2930227 0)
(-0.1866964 0.2783831 0)
(-0.2000198 0.2651931 0)
(-0.2112193 0.2530251 0)
(-0.2255416 0.2351939 0)
(-0.2375549 0.2189951 0)
(-0.2499879 0.2036301 0)
(-0.2599456 0.1907141 0)
(-0.2707149 0.1754873 0)
(-0.2802434 0.161148 0)
(-0.2890451 0.1474307 0)
(-0.2971558 0.1341441 0)
(-0.3045342 0.1211908 0)
(-0.3111557 0.1084784 0)
(-0.3170354 0.0959395 0)
(-0.3221916 0.08355874 0)
(-0.326607 0.0713228 0)
(-0.3302618 0.05918224 0)
(-0.3331664 0.04708519 0)
(-0.3353172 0.03500296 0)
(-0.3368255 0.02290474 0)
(-0.3375074 0.01318257 0)
(-0.3372257 0.0003028676 0)
(-0.3360726 -0.01234172 0)
(-0.3343264 -0.0248015 0)
(-0.3320397 -0.03718871 0)
(-0.3291097 -0.04983907 0)
(-0.3251805 -0.06271687 0)
(-0.3204233 -0.07582082 0)
(-0.3148378 -0.08921078 0)
(-0.3084412 -0.1029282 0)
(-0.3012166 -0.117011 0)
(-0.2931197 -0.1315216 0)
(-0.2843572 -0.1465698 0)
(-0.2739797 -0.1622556 0)
(-0.2642175 -0.1757138 0)
(-0.2520858 -0.1937451 0)
(-0.2398346 -0.2116699 0)
(-0.2266769 -0.228248 0)
(-0.2142628 -0.2443 0)
(-0.1974371 -0.2663675 0)
(-0.1796919 -0.290254 0)
(-0.1618047 -0.3137615 0)
(-0.1447484 -0.3369321 0)
(-0.1270446 -0.361692 0)
(-0.1086462 -0.3894054 0)
(-0.08938039 -0.4206341 0)
(-0.06939382 -0.4563667 0)
(-0.04973572 -0.4982548 0)
(-0.02948765 -0.5494702 0)
(-0.01065544 -0.5813013 0)
(-0.01039184 0.5018772 0)
(-0.02616499 0.4608047 0)
(-0.04276222 0.4454614 0)
(-0.05783907 0.4327736 0)
(-0.07269705 0.4188704 0)
(-0.08676881 0.4034749 0)
(-0.100526 0.3869831 0)
(-0.1137772 0.3699388 0)
(-0.1265627 0.3523483 0)
(-0.1392965 0.3342888 0)
(-0.151634 0.3164784 0)
(-0.1628436 0.2989498 0)
(-0.1742699 0.2819407 0)
(-0.182505 0.2678093 0)
(-0.1937556 0.2498775 0)
(-0.2032013 0.2327611 0)
(-0.2122666 0.2164916 0)
(-0.2206685 0.2005281 0)
(-0.2286099 0.1848446 0)
(-0.236002 0.169473 0)
(-0.2428104 0.1543945 0)
(-0.2490152 0.139572 0)
(-0.2545989 0.1249646 0)
(-0.2595562 0.1105349 0)
(-0.263886 0.09625443 0)
(-0.267583 0.08209897 0)
(-0.2706419 0.06804336 0)
(-0.273062 0.05406203 0)
(-0.2748385 0.04013666 0)
(-0.2760702 0.02624877 0)
(-0.2762918 0.01242215 0)
(-0.2759328 -0.001540423 0)
(-0.2753314 -0.01597024 0)
(-0.2738282 -0.03060691 0)
(-0.2719234 -0.0431182 0)
(-0.2690654 -0.05865752 0)
(-0.265682 -0.07396056 0)
(-0.2615731 -0.08930083 0)
(-0.2567973 -0.1048366 0)
(-0.2513427 -0.1206558 0)
(-0.2452102 -0.1368161 0)
(-0.2383937 -0.1533609 0)
(-0.2308976 -0.1703284 0)
(-0.2227948 -0.1876529 0)
(-0.2138766 -0.2057164 0)
(-0.2034076 -0.2242848 0)
(-0.1942676 -0.2413931 0)
(-0.1829509 -0.2614854 0)
(-0.1700409 -0.2850091 0)
(-0.1568952 -0.3088917 0)
(-0.1433922 -0.3326582 0)
(-0.1296346 -0.3571705 0)
(-0.1152998 -0.3829319 0)
(-0.1002815 -0.4105136 0)
(-0.0847364 -0.4401699 0)
(-0.06890872 -0.4724877 0)
(-0.05298794 -0.5084587 0)
(-0.03744917 -0.5497184 0)
(-0.02181293 -0.5979627 0)
(-0.007895148 -0.6280216 0)
(-0.008097965 0.5489423 0)
(-0.02122663 0.5051325 0)
(-0.03427621 0.4863821 0)
(-0.04627145 0.4712888 0)
(-0.05798001 0.4555678 0)
(-0.0691224 0.4386876 0)
(-0.07996127 0.4208947 0)
(-0.09045473 0.4025246 0)
(-0.1006171 0.3838309 0)
(-0.1105358 0.3649894 0)
(-0.1202092 0.346321 0)
(-0.1295499 0.3278827 0)
(-0.138318 0.3094993 0)
(-0.1474559 0.2915237 0)
(-0.1538747 0.2759029 0)
(-0.1626045 0.2575971 0)
(-0.1699258 0.2394714 0)
(-0.1770912 0.2218596 0)
(-0.1836853 0.204654 0)
(-0.1897909 0.1877517 0)
(-0.1953943 0.1711046 0)
(-0.2004916 0.154675 0)
(-0.2050741 0.1384316 0)
(-0.2091355 0.1223467 0)
(-0.212671 0.1063944 0)
(-0.2156763 0.09054959 0)
(-0.2181466 0.07478536 0)
(-0.220077 0.05907249 0)
(-0.2214605 0.04338103 0)
(-0.2223097 0.02767489 0)
(-0.2225034 0.01194854 0)
(-0.2223631 -0.001874494 0)
(-0.2218373 -0.01831137 0)
(-0.2207714 -0.03457986 0)
(-0.2189281 -0.05085119 0)
(-0.2163748 -0.0673946 0)
(-0.21347 -0.08412307 0)
(-0.2100184 -0.1010895 0)
(-0.2060226 -0.1183399 0)
(-0.201462 -0.1359264 0)
(-0.196327 -0.1538982 0)
(-0.1906054 -0.1723025 0)
(-0.1842742 -0.191187 0)
(-0.1774833 -0.2106501 0)
(-0.1694488 -0.2304806 0)
(-0.1624121 -0.2497576 0)
(-0.1527647 -0.2719563 0)
(-0.1431011 -0.2950645 0)
(-0.1328435 -0.3185713 0)
(-0.122509 -0.3426791 0)
(-0.1118347 -0.3676237 0)
(-0.100749 -0.3935061 0)
(-0.08925968 -0.4204789 0)
(-0.07744396 -0.4488044 0)
(-0.06540024 -0.4788508 0)
(-0.05322297 -0.5111652 0)
(-0.04100194 -0.5466623 0)
(-0.02903016 -0.5870375 0)
(-0.01710295 -0.6347171 0)
(-0.005986757 -0.66617 0)
(-0.006369596 0.5867538 0)
(-0.01696573 0.5403583 0)
(-0.0269674 0.5184488 0)
(-0.03621847 0.501265 0)
(-0.04519194 0.4841321 0)
(-0.05377024 0.4662579 0)
(-0.06214411 0.447695 0)
(-0.07031293 0.4286409 0)
(-0.07829533 0.4093036 0)
(-0.08609528 0.3898363 0)
(-0.09369656 0.370379 0)
(-0.1010576 0.3510096 0)
(-0.1081681 0.3317704 0)
(-0.1148297 0.3126218 0)
(-0.1218069 0.293919 0)
(-0.1265959 0.2770734 0)
(-0.1327346 0.2585855 0)
(-0.1385699 0.2395552 0)
(-0.143925 0.2209914 0)
(-0.1489468 0.2027691 0)
(-0.1535452 0.184807 0)
(-0.1577259 0.1670614 0)
(-0.1614816 0.1494938 0)
(-0.1648082 0.1320755 0)
(-0.167703 0.1147815 0)
(-0.1701648 0.0975877 0)
(-0.1721928 0.08046863 0)
(-0.1737873 0.06339811 0)
(-0.1749491 0.04634792 0)
(-0.1756819 0.02928661 0)
(-0.1759915 0.01218932 0)
(-0.1758282 -0.00320223 0)
(-0.1751917 -0.0208412 0)
(-0.1741956 -0.03847738 0)
(-0.1727445 -0.05615177 0)
(-0.1708508 -0.07405437 0)
(-0.1685323 -0.09217366 0)
(-0.1657684 -0.1105625 0)
(-0.1625532 -0.1292644 0)
(-0.1588784 -0.1483259 0)
(-0.1547361 -0.1677922 0)
(-0.150116 -0.1877033 0)
(-0.1451597 -0.2081605 0)
(-0.1392238 -0.2290102 0)
(-0.1340469 -0.2495039 0)
(-0.1268366 -0.2721486 0)
(-0.1197581 -0.2954543 0)
(-0.1121903 -0.3192557 0)
(-0.1043325 -0.3437637 0)
(-0.0961316 -0.3689687 0)
(-0.08759983 -0.3949368 0)
(-0.07876508 -0.421777 0)
(-0.06965881 -0.4496484 0)
(-0.06032381 -0.4787773 0)
(-0.05081791 -0.5094862 0)
(-0.04121813 -0.542278 0)
(-0.03160529 -0.577978 0)
(-0.02218208 -0.6180183 0)
(-0.01293978 -0.6641274 0)
(-0.004450671 -0.6938876 0)
(-0.004985947 0.6167979 0)
(-0.01338632 0.5679766 0)
(-0.02094166 0.5432134 0)
(-0.02795421 0.5242589 0)
(-0.03469804 0.5060251 0)
(-0.04114174 0.48742 0)
(-0.047429 0.4683118 0)
(-0.05358497 0.4487932 0)
(-0.05963622 0.4290018 0)
(-0.06558401 0.4090626 0)
(-0.07141804 0.3890805 0)
(-0.07711569 0.3691242 0)
(-0.08265852 0.3492359 0)
(-0.08803734 0.3294494 0)
(-0.09308182 0.3097214 0)
(-0.0983017 0.2903421 0)
(-0.1022274 0.2721964 0)
(-0.1063543 0.2534648 0)
(-0.1105429 0.2341617 0)
(-0.1143731 0.215036 0)
(-0.1179551 0.1960521 0)
(-0.1212127 0.1772303 0)
(-0.1241528 0.1585611 0)
(-0.1267651 0.1400307 0)
(-0.1290461 0.1216205 0)
(-0.1309931 0.1033116 0)
(-0.132605 0.08508292 0)
(-0.1338827 0.06691027 0)
(-0.1348273 0.04876704 0)
(-0.1354383 0.03062386 0)
(-0.1357382 0.01245143 0)
(-0.1356358 -0.00430473 0)
(-0.1351423 -0.02290053 0)
(-0.1343863 -0.0415733 0)
(-0.1332979 -0.06037509 0)
(-0.1318787 -0.07936828 0)
(-0.1301279 -0.09859948 0)
(-0.1280376 -0.1181187 0)
(-0.1256021 -0.1379715 0)
(-0.1228164 -0.1581996 0)
(-0.1196584 -0.178838 0)
(-0.1162682 -0.1999202 0)
(-0.1120732 -0.2214214 0)
(-0.1084477 -0.2429182 0)
(-0.1032352 -0.2660338 0)
(-0.09810118 -0.289801 0)
(-0.09252981 -0.3140474 0)
(-0.08666805 -0.3388709 0)
(-0.08050043 -0.3642911 0)
(-0.0740538 -0.3903514 0)
(-0.06734916 -0.4171066 0)
(-0.06041657 -0.4446336 0)
(-0.0532937 -0.4730496 0)
(-0.0460281 -0.5025331 0)
(-0.03867584 -0.5333623 0)
(-0.03130289 -0.5659907 0)
(-0.02397836 -0.6012012 0)
(-0.01683491 -0.6404286 0)
(-0.00988886 -0.6856156 0)
(-0.003376952 -0.7158257 0)
(-0.003406459 0.6408707 0)
(-0.01000273 0.5894136 0)
(-0.01592923 0.5620545 0)
(-0.02104553 0.5414705 0)
(-0.0258891 0.522177 0)
(-0.03052168 0.5028903 0)
(-0.03506726 0.4833496 0)
(-0.03955168 0.4635491 0)
(-0.04398668 0.4435564 0)
(-0.04836578 0.4234369 0)
(-0.05267778 0.4032451 0)
(-0.05690723 0.3830265 0)
(-0.06103692 0.3628136 0)
(-0.06505038 0.3426295 0)
(-0.0689422 0.3224893 0)
(-0.07256691 0.3023436 0)
(-0.0762863 0.2824245 0)
(-0.07897058 0.2633319 0)
(-0.08215911 0.2437509 0)
(-0.08492437 0.2239019 0)
(-0.08761051 0.2041834 0)
(-0.09007424 0.1846434 0)
(-0.09231048 0.1652286 0)
(-0.09430423 0.1459332 0)
(-0.09605255 0.1267443 0)
(-0.09755311 0.1076475 0)
(-0.09880593 0.08862589 0)
(-0.09981222 0.06965808 0)
(-0.1005742 0.05071894 0)
(-0.10109 0.03177975 0)
(-0.1013874 0.01280943 0)
(-0.1013661 -0.00507443 0)
(-0.1010429 -0.02436644 0)
(-0.1005381 -0.04377447 0)
(-0.09980367 -0.06334264 0)
(-0.09883978 -0.08311963 0)
(-0.09763985 -0.1031522 0)
(-0.0961979 -0.1234875 0)
(-0.09450743 -0.1441705 0)
(-0.09255841 -0.1652427 0)
(-0.09035547 -0.1867391 0)
(-0.08775558 -0.2086901 0)
(-0.08516793 -0.2310467 0)
(-0.08163819 -0.2544927 0)
(-0.07807445 -0.2785291 0)
(-0.07416982 -0.3030296 0)
(-0.0700177 -0.3280728 0)
(-0.06559909 -0.3536657 0)
(-0.06092712 -0.379824 0)
(-0.05602078 -0.4065643 0)
(-0.05090665 -0.433921 0)
(-0.04561706 -0.4619597 0)
(-0.04018915 -0.4907886 0)
(-0.03466442 -0.5205793 0)
(-0.02908606 -0.5516087 0)
(-0.02350045 -0.584329 0)
(-0.01795629 -0.6195023 0)
(-0.01254036 -0.6584648 0)
(-0.007306743 -0.7028465 0)
(-0.002442126 -0.7319663 0)
(-0.002491208 0.6599477 0)
(-0.007424553 0.6055984 0)
(-0.01168356 0.5756734 0)
(-0.0152347 0.5536363 0)
(-0.01853981 0.5336366 0)
(-0.02166949 0.5140658 0)
(-0.02469446 0.4943989 0)
(-0.02764829 0.4744944 0)
(-0.03056866 0.4543439 0)
(-0.03349173 0.4340085 0)
(-0.0364226 0.4135608 0)
(-0.03934397 0.393052 0)
(-0.04223646 0.3725181 0)
(-0.04507871 0.3519845 0)
(-0.04785116 0.3314715 0)
(-0.05054741 0.3109977 0)
(-0.05303855 0.2905321 0)
(-0.0557273 0.2702861 0)
(-0.05740906 0.2507256 0)
(-0.05953423 0.2308771 0)
(-0.0616039 0.2107587 0)
(-0.0633745 0.19066 0)
(-0.0650503 0.1706413 0)
(-0.06652869 0.1507167 0)
(-0.06782973 0.1308938 0)
(-0.06895605 0.1111669 0)
(-0.06991106 0.09152469 0)
(-0.07069852 0.07194808 0)
(-0.07132178 0.05241249 0)
(-0.07177851 0.03288861 0)
(-0.07209698 0.01334306 0)
(-0.07218007 -0.005420481 0)
(-0.07204377 -0.02520715 0)
(-0.07178818 -0.04512823 0)
(-0.07137595 -0.06522776 0)
(-0.07080477 -0.08555234 0)
(-0.07006602 -0.1061506 0)
(-0.06915113 -0.1270736 0)
(-0.06805012 -0.1483753 0)
(-0.0667512 -0.170114 0)
(-0.06523982 -0.1923552 0)
(-0.06350099 -0.2151653 0)
(-0.06148941 -0.2387054 0)
(-0.05925264 -0.2628639 0)
(-0.05682822 -0.2875121 0)
(-0.05416249 -0.312723 0)
(-0.05123917 -0.3384882 0)
(-0.04806173 -0.3647902 0)
(-0.0446476 -0.3916079 0)
(-0.04102587 -0.4189359 0)
(-0.03723041 -0.4467923 0)
(-0.03329807 -0.475223 0)
(-0.02926753 -0.5043198 0)
(-0.02517716 -0.534246 0)
(-0.02106533 -0.5652679 0)
(-0.01697134 -0.5978197 0)
(-0.01293682 -0.6326403 0)
(-0.009020775 -0.6710455 0)
(-0.005275697 -0.7147014 0)
(-0.001771456 -0.743989 0)
(-0.002368399 0.6738613 0)
(-0.006049602 0.6173182 0)
(-0.008645212 0.5852083 0)
(-0.01096045 0.5620064 0)
(-0.01304746 0.5411781 0)
(-0.01490874 0.5208639 0)
(-0.01670241 0.5006613 0)
(-0.01847458 0.480431 0)
(-0.02023922 0.4602894 0)
(-0.02203387 0.4401934 0)
(-0.02384198 0.4199842 0)
(-0.02566288 0.3996575 0)
(-0.02748622 0.3792219 0)
(-0.02930186 0.3586968 0)
(-0.03110507 0.3381019 0)
(-0.03289491 0.3174543 0)
(-0.03466264 0.2967704 0)
(-0.03631435 0.2760295 0)
(-0.03801512 0.2554073 0)
(-0.03927005 0.2351962 0)
(-0.04037273 0.2149479 0)
(-0.04152056 0.1944977 0)
(-0.04253786 0.1740653 0)
(-0.04348207 0.1537476 0)
(-0.04432791 0.1335698 0)
(-0.04507768 0.1134988 0)
(-0.04573096 0.09352364 0)
(-0.04629207 0.07361998 0)
(-0.04676429 0.05375669 0)
(-0.04714554 0.03390187 0)
(-0.04746327 0.0140208 0)
(-0.04763158 -0.005364334 0)
(-0.04766159 -0.02546094 0)
(-0.04763328 -0.04571473 0)
(-0.04751429 -0.06617224 0)
(-0.04729936 -0.08688237 0)
(-0.04697755 -0.1078961 0)
(-0.04653818 -0.1292661 0)
(-0.04596987 -0.1510462 0)
(-0.04526189 -0.1732903 0)
(-0.04439487 -0.1960503 0)
(-0.04342495 -0.2193792 0)
(-0.04214572 -0.2432941 0)
(-0.0409745 -0.2678118 0)
(-0.0394894 -0.2930958 0)
(-0.03782237 -0.319036 0)
(-0.035919 -0.3455341 0)
(-0.03376478 -0.3725243 0)
(-0.03138347 -0.399944 0)
(-0.02882013 -0.4277677 0)
(-0.02612127 -0.4560095 0)
(-0.02332557 -0.4847207 0)
(-0.02046794 -0.5140041 0)
(-0.01757847 -0.5440314 0)
(-0.01468435 -0.5750797 0)
(-0.01181115 -0.6075928 0)
(-0.008985025 -0.6423112 0)
(-0.006240427 -0.6805217 0)
(-0.003622093 -0.7237627 0)
(-0.001182907 -0.7525066 0)
(-0.001277472 0.6853694 0)
(-0.003760936 0.6261334 0)
(-0.005400051 0.5916988 0)
(-0.006465123 0.5670182 0)
(-0.006797604 0.5454069 0)
(-0.007475424 0.5250218 0)
(-0.008137618 0.5050381 0)
(-0.008783802 0.4851031 0)
(-0.009894701 0.4649474 0)
(-0.01067503 0.4445886 0)
(-0.0116107 0.424125 0)
(-0.01253747 0.4035715 0)
(-0.01350088 0.3829517 0)
(-0.01450059 0.3622908 0)
(-0.01553508 0.3416593 0)
(-0.01658393 0.3210366 0)
(-0.01760944 0.3003433 0)
(-0.01856736 0.2795801 0)
(-0.01941058 0.2587395 0)
(-0.02025398 0.2379076 0)
(-0.02073232 0.2173229 0)
(-0.02141207 0.1968569 0)
(-0.02200147 0.1764053 0)
(-0.02273367 0.1559463 0)
(-0.02333902 0.1355406 0)
(-0.0239466 0.1152362 0)
(-0.02451148 0.0950343 0)
(-0.02504928 0.07491901 0)
(-0.02556092 0.05486343 0)
(-0.02603518 0.03483793 0)
(-0.02649215 0.01480847 0)
(-0.02685858 -0.004957056 0)
(-0.02714763 -0.02517679 0)
(-0.02742382 -0.04557535 0)
(-0.02765876 -0.06620056 0)
(-0.02784797 -0.08710667 0)
(-0.02798242 -0.108346 0)
(-0.02805414 -0.1299724 0)
(-0.02805471 -0.1520411 0)
(-0.02797256 -0.1746086 0)
(-0.02780491 -0.1977261 0)
(-0.02745887 -0.2214334 0)
(-0.02718983 -0.2457205 0)
(-0.02641595 -0.2707464 0)
(-0.0257074 -0.2964711 0)
(-0.02482162 -0.3229204 0)
(-0.02365555 -0.350076 0)
(-0.02224067 -0.3777547 0)
(-0.0206537 -0.405748 0)
(-0.01893243 -0.43398 0)
(-0.01712286 -0.4625007 0)
(-0.01525123 -0.4913871 0)
(-0.01334584 -0.5207587 0)
(-0.01142898 -0.5508003 0)
(-0.009519071 -0.5817908 0)
(-0.007632951 -0.6141703 0)
(-0.005788737 -0.648673 0)
(-0.004009509 -0.6865724 0)
(-0.002328515 -0.7294046 0)
(-0.0007728225 -0.7582868 0)
(-0.0007590954 0.6933664 0)
(-0.002328501 0.6307589 0)
(-0.002823289 0.5937062 0)
(-0.002695437 0.5673877 0)
(-0.002694923 0.5453759 0)
(-0.002221905 0.5249493 0)
(-0.001781178 0.5049902 0)
(-0.001369401 0.4851677 0)
(-0.0007597222 0.4653265 0)
(-0.0005544673 0.4453401 0)
(-0.0003913439 0.4252933 0)
(-0.0004016773 0.4051805 0)
(-0.0005819359 0.3850055 0)
(-0.0008582578 0.3647482 0)
(-0.00145881 0.3443015 0)
(-0.00195974 0.3236028 0)
(-0.002573896 0.3026251 0)
(-0.003185949 0.2814216 0)
(-0.003795135 0.2602146 0)
(-0.004305492 0.2391635 0)
(-0.004908719 0.2183966 0)
(-0.005185709 0.1979733 0)
(-0.005558121 0.1776857 0)
(-0.005806101 0.1573927 0)
(-0.006198896 0.1370532 0)
(-0.006595715 0.1167833 0)
(-0.007038973 0.09665798 0)
(-0.007510086 0.07662614 0)
(-0.008004048 0.05659596 0)
(-0.008508298 0.03654512 0)
(-0.009054014 0.0164597 0)
(-0.009572659 -0.003563477 0)
(-0.01008249 -0.02381583 0)
(-0.01064568 -0.04427082 0)
(-0.01119461 -0.06497897 0)
(-0.01173935 -0.08598687 0)
(-0.0122667 -0.1073451 0)
(-0.01277301 -0.1291078 0)
(-0.01325747 -0.1513356 0)
(-0.01371646 -0.1740965 0)
(-0.01414127 -0.1974609 0)
(-0.01451845 -0.2214899 0)
(-0.01476404 -0.2462618 0)
(-0.01496811 -0.2717138 0)
(-0.01492701 -0.2979305 0)
(-0.01449455 -0.3250858 0)
(-0.01397696 -0.35295 0)
(-0.01317626 -0.3811156 0)
(-0.01228365 -0.4093547 0)
(-0.01115707 -0.4378245 0)
(-0.01002347 -0.4665196 0)
(-0.008896289 -0.4955134 0)
(-0.007769791 -0.5249348 0)
(-0.006647699 -0.5549853 0)
(-0.005532775 -0.5859567 0)
(-0.004431005 -0.6182962 0)
(-0.003351545 -0.6527377 0)
(-0.002308407 -0.6905431 0)
(-0.001323285 -0.7331986 0)
(-0.0004231656 -0.7619199 0)
(-0.0004587141 0.6992067 0)
(-0.00150187 0.6331983 0)
(-0.001439076 0.5937038 0)
(-0.001086884 0.5670297 0)
(-0.0002241787 0.5443284 0)
(0.0007054509 0.5232621 0)
(0.001734074 0.5030172 0)
(0.002692794 0.4831721 0)
(0.003727138 0.4634452 0)
(0.00467907 0.4437504 0)
(0.00560533 0.4239973 0)
(0.006464363 0.4041907 0)
(0.007256485 0.3843434 0)
(0.007846718 0.3644823 0)
(0.008506337 0.3444639 0)
(0.008688209 0.3242277 0)
(0.008771106 0.3037525 0)
(0.008714171 0.2830447 0)
(0.008407248 0.2620914 0)
(0.008145199 0.2409647 0)
(0.007801252 0.2198607 0)
(0.007413151 0.1989485 0)
(0.007117404 0.1783381 0)
(0.006855931 0.1579813 0)
(0.006589706 0.1377902 0)
(0.006301806 0.1176837 0)
(0.005985202 0.09764061 0)
(0.005641438 0.07764492 0)
(0.005270436 0.05767783 0)
(0.004856049 0.03773751 0)
(0.004407852 0.01782943 0)
(0.00388661 -0.002097666 0)
(0.003280051 -0.02213822 0)
(0.002584486 -0.0424792 0)
(0.00182685 -0.0631255 0)
(0.001037619 -0.08410536 0)
(0.0002214347 -0.1054534 0)
(-0.0006144351 -0.1272066 0)
(-0.001463882 -0.1494094 0)
(-0.00232052 -0.1721454 0)
(-0.003175602 -0.1955182 0)
(-0.004014136 -0.2196251 0)
(-0.004813642 -0.2445946 0)
(-0.005543501 -0.2705854 0)
(-0.006101319 -0.2976147 0)
(-0.006582591 -0.3254556 0)
(-0.006702457 -0.3538856 0)
(-0.006641118 -0.38274 0)
(-0.006086733 -0.4117413 0)
(-0.005567308 -0.4404111 0)
(-0.004926439 -0.4689799 0)
(-0.004357064 -0.4978413 0)
(-0.003776475 -0.5271984 0)
(-0.003204213 -0.5572161 0)
(-0.002640148 -0.5881614 0)
(-0.0020873 -0.6204583 0)
(-0.001554225 -0.6548224 0)
(-0.001052038 -0.6925029 0)
(-0.0005996488 -0.7349864 0)
(-0.0002059827 -0.7638576 0)
(-0.0004636669 0.7039833 0)
(-0.0004502679 0.6343589 0)
(-0.0005029717 0.5931574 0)
(0.0006960531 0.5646777 0)
(0.002076756 0.5412075 0)
(0.003634847 0.5198874 0)
(0.005230509 0.4995475 0)
(0.006824049 0.4796196 0)
(0.008393059 0.4598507 0)
(0.009896968 0.4401486 0)
(0.01131843 0.42046 0)
(0.01262087 0.4008005 0)
(0.01378702 0.3812292 0)
(0.01476992 0.3618484 0)
(0.01551561 0.3425257 0)
(0.01620691 0.3228785 0)
(0.01680621 0.3028229 0)
(0.0172626 0.2824055 0)
(0.01783458 0.2617266 0)
(0.01805087 0.2410744 0)
(0.01819127 0.220452 0)
(0.01814597 0.1998394 0)
(0.01804996 0.1792999 0)
(0.01787796 0.1589028 0)
(0.0176577 0.1386658 0)
(0.01737991 0.1185771 0)
(0.01703821 0.0986113 0)
(0.01662922 0.07872763 0)
(0.01615196 0.05888589 0)
(0.01561152 0.03906987 0)
(0.01500259 0.01929328 0)
(0.01434204 -0.0004187875 0)
(0.01355823 -0.02004383 0)
(0.01263978 -0.04012577 0)
(0.01163462 -0.06059336 0)
(0.01056459 -0.08143403 0)
(0.009443707 -0.1026704 0)
(0.008284354 -0.124346 0)
(0.007101316 -0.1465214 0)
(0.005909483 -0.1692738 0)
(0.004726047 -0.1926963 0)
(0.003569333 -0.2168916 0)
(0.002460626 -0.2419692 0)
(0.001416953 -0.2680431 0)
(0.0004544472 -0.2952229 0)
(-0.0003925011 -0.3235662 0)
(-0.001071385 -0.3528863 0)
(-0.001498445 -0.3826787 0)
(-0.001778717 -0.4122657 0)
(-0.001748855 -0.4412613 0)
(-0.001589902 -0.4699672 0)
(-0.001368024 -0.4989059 0)
(-0.00118291 -0.5282907 0)
(-0.0009667593 -0.5583076 0)
(-0.0007634555 -0.5892273 0)
(-0.0005710441 -0.6214821 0)
(-0.0003951648 -0.6557887 0)
(-0.0002399107 -0.6933945 0)
(-0.0001166518 -0.7357946 0)
(-2.311207e-05 -0.7647623 0)
(-0.0001975174 0.7074614 0)
(-0.0003103001 0.6342778 0)
(0.0005182734 0.5904834 0)
(0.002105559 0.5607325 0)
(0.0039807 0.5365844 0)
(0.006021067 0.5149169 0)
(0.008115905 0.4944545 0)
(0.0102079 0.4745877 0)
(0.01224399 0.4550245 0)
(0.01418403 0.4356355 0)
(0.01599512 0.4163684 0)
(0.01764698 0.3972231 0)
(0.01911317 0.3782277 0)
(0.02039357 0.3593446 0)
(0.02151385 0.3402562 0)
(0.02251263 0.3206921 0)
(0.02337822 0.3007071 0)
(0.02414449 0.280484 0)
(0.02469103 0.2602674 0)
(0.02516293 0.2400139 0)
(0.02557087 0.2197137 0)
(0.02579238 0.1994577 0)
(0.02590744 0.1792665 0)
(0.02586873 0.1592041 0)
(0.02569982 0.1392901 0)
(0.0254048 0.119507 0)
(0.02499123 0.099822 0)
(0.0244669 0.08019776 0)
(0.02383934 0.06060062 0)
(0.02311739 0.04101318 0)
(0.02231144 0.02144808 0)
(0.02142367 0.001971297 0)
(0.02043357 -0.01727216 0)
(0.01930273 -0.03703539 0)
(0.01806855 -0.05725492 0)
(0.01675821 -0.07791309 0)
(0.01539497 -0.09901651 0)
(0.01399704 -0.1205988 0)
(0.01258107 -0.1427203 0)
(0.01116424 -0.165466 0)
(0.009765034 -0.1889411 0)
(0.008404078 -0.2132641 0)
(0.007104787 -0.2385615 0)
(0.005892695 -0.2649489 0)
(0.004790745 -0.2924915 0)
(0.00381431 -0.3211548 0)
(0.002968497 -0.3507557 0)
(0.002271513 -0.3809293 0)
(0.001751935 -0.4111564 0)
(0.001436147 -0.4408777 0)
(0.001202246 -0.4699689 0)
(0.001054944 -0.4989606 0)
(0.0009003192 -0.5283671 0)
(0.0007439743 -0.5583933 0)
(0.0006069454 -0.5893164 0)
(0.000481315 -0.6215706 0)
(0.0003640184 -0.6558728 0)
(0.0002506167 -0.6934706 0)
(0.0001413798 -0.7358618 0)
(3.989062e-05 -0.7648484 0)
(-9.764088e-05 0.710244 0)
(7.391992e-05 0.6332915 0)
(0.001176154 0.5868128 0)
(0.003035461 0.5556751 0)
(0.005244209 0.5307738 0)
(0.007615857 0.5087264 0)
(0.01005083 0.488121 0)
(0.01248051 0.4682906 0)
(0.01485076 0.4489046 0)
(0.01712101 0.429802 0)
(0.01925945 0.4109106 0)
(0.02124366 0.3922084 0)
(0.02305588 0.3736979 0)
(0.024695 0.3552972 0)
(0.0261625 0.3367183 0)
(0.02745304 0.3177295 0)
(0.02854603 0.2983414 0)
(0.02944725 0.2786497 0)
(0.03016648 0.2587452 0)
(0.03075884 0.2387524 0)
(0.03112532 0.2188275 0)
(0.03143683 0.198964 0)
(0.03152346 0.1792028 0)
(0.03146767 0.1595687 0)
(0.03124485 0.1400615 0)
(0.03086837 0.1206628 0)
(0.03034733 0.1013405 0)
(0.02969196 0.08205442 0)
(0.02891293 0.06276561 0)
(0.02802132 0.04345111 0)
(0.02702779 0.02412882 0)
(0.02593664 0.004903176 0)
(0.02480575 -0.01398752 0)
(0.02354858 -0.03341548 0)
(0.02214473 -0.05337851 0)
(0.02067208 -0.07386086 0)
(0.01915746 -0.09485476 0)
(0.01761972 -0.1163857 0)
(0.01607699 -0.1385111 0)
(0.01454753 -0.1613146 0)
(0.01304974 -0.184899 0)
(0.01160211 -0.2093817 0)
(0.01022282 -0.2348867 0)
(0.008929236 -0.2615313 0)
(0.007738192 -0.289395 0)
(0.00666745 -0.3184634 0)
(0.005736566 -0.34855 0)
(0.004963401 -0.3792359 0)
(0.00435614 -0.4098975 0)
(0.003908366 -0.4399072 0)
(0.003562283 -0.4690619 0)
(0.003252281 -0.4980273 0)
(0.002926293 -0.527476 0)
(0.002588666 -0.5575609 0)
(0.002242419 -0.5885405 0)
(0.001883764 -0.6208344 0)
(0.001508153 -0.6551526 0)
(0.001111389 -0.6927356 0)
(0.0006833399 -0.7350951 0)
(0.0002294329 -0.764251 0)
(-5.953863e-05 0.7125161 0)
(0.0003364286 0.63147 0)
(0.001593195 0.5824543 0)
(0.003640661 0.5499135 0)
(0.006069413 0.5242379 0)
(0.008664093 0.5018029 0)
(0.01132763 0.4810723 0)
(0.01398301 0.4613087 0)
(0.0165757 0.4421344 0)
(0.01906413 0.4233526 0)
(0.0214181 0.4048618 0)
(0.02361821 0.3866124 0)
(0.02565536 0.3685797 0)
(0.02752117 0.3506572 0)
(0.02921384 0.332566 0)
(0.03071739 0.3140888 0)
(0.03201673 0.2952289 0)
(0.03310655 0.2760833 0)
(0.03398259 0.256762 0)
(0.03464702 0.2373507 0)
(0.03510206 0.2179103 0)
(0.03536287 0.1985231 0)
(0.03542388 0.1792593 0)
(0.03529684 0.1601219 0)
(0.03498774 0.1410924 0)
(0.03450882 0.1221429 0)
(0.03387183 0.1032366 0)
(0.03308964 0.08433258 0)
(0.03217542 0.06539446 0)
(0.03114214 0.04640411 0)