/*--------------------------------*- C++ -*----------------------------------*\
| =========                 |                                                 |
| \\      /  F ield         | OpenFOAM: The Open Source CFD Toolbox           |
|  \\    /   O peration     | Version:  2312                                  |
|   \\  /    A nd           | Website:  www.openfoam.com                      |
|    \\/     M anipulation  |                                                 |
\*---------------------------------------------------------------------------*/
FoamFile
{
    version     2.0;
    format      ascii;
    arch        "LSB;label=32;scalar=64";
    class       volScalarField;
    location    "5400";
    object      G;
}
// * * * * * * * * * * * * * * * * * * * * * * * * * * * * * * * * * * * * * //

dimensions      [1 0 -3 0 0 0 0];

internalField   nonuniform List<scalar> 
12000
(
26873.7
23995.45
22710.57
21754.2
20749.33
19733.02
18864.42
18230.02
17810.91
17535.29
17340.68
17217.79
17213.06
17376.3
17689.81
18042.66
18279.26
18288.35
18063.91
17692.14
17280.64
16888.22
16504.66
16085.78
15608.36
15102.39
14642.26
14309.01
14151.69
14168.62
14312.69
14510.92
14686.2
14774.07
14733.77
14554.4
14256.54
13887.4
13509.17
13183.16
12955.23
12847.5
12858.32
12968.67
13150.71
13375.64
13618.44
13860.04
14085.5
14281.64
14437.76
14549.16
14619.35
14657.52
14673.19
14669.62
14643.34
14581.09
14505.71
14311.38
29373.87
27532.37
26010.27
24583.17
23141.54
21874.29
20935.5
20291.39
19815.32
19403.13
19030.38
18756.08
18668.48
18795.35
19050.07
19265.19
19289.73
19074.11
18680.23
18216.82
17757.59
17303.94
16811.02
16246.33
15632.5
15046.32
14580.96
14300.36
14212.79
14272.78
14402.81
14520.18
14557.96
14477.01
14270.54
13962.9
13602.92
13251.9
12968.45
12794.67
12748.44
12823.99
12998.78
13242.57
13524.39
13816.07
14093.36
14336.51
14531.08
14668.64
14746.56
14767.64
14740.18
14677.65
14595.59
14504.88
14406.82
14288.19
14166.82
13944.18
29779.14
28626.01
27160.5
25735.91
24454.15
23359.41
22461.05
21714.37
21060.29
20473.89
19996.19
19717.53
19700.98
19901.43
20159.33
20283.4
20157.86
19793.71
19293.45
18765.32
18255.65
17743.22
17186.93
16581.28
15978.14
15464.48
15117.11
14965.53
14981.69
15095.78
15224.14
15294.45
15260.97
15109.61
14856.24
14540.61
14216.48
13939.03
13751.96
13678.35
13718.15
13852.57
14052.58
14287.13
14528.23
14752.39
14940.23
15076.79
15153.32
15168.9
15129.67
15045.77
14928.59
14790.03
14642.45
14496
14354.38
14206.43
14064.51
13826.34
29801.97
29002.38
27466.09
25982.6
24934.82
24138.91
23351.01
22510.47
21686.05
20987.01
20527.79
20384.57
20527.47
20794.71
20959.06
20848.24
20430.53
19807.77
19130.55
18502.59
17939.8
17399.96
16846.97
16296.86
15816.98
15487.01
15353.34
15405.19
15580.95
15794.6
15965.12
16036.67
15986.51
15823.68
15582.63
15313.75
15071.71
14902.93
14835.47
14874.34
15003.69
15194.38
15413.2
15630.1
15821.43
15969.59
16061.46
16088.1
16046.75
15942.91
15789.58
15602.87
15397.07
15182.45
14966.24
14753.52
14548.01
14340.8
14157.67
13854.22
29654.23
29033.9
27502.43
25948.98
24928.56
24248.5
23569.04
22778.33
21970.76
21317.86
20964.95
20946.99
21145.14
21330.38
21283.73
20912.29
20281.19
19548.17
18856.01
18259.14
17725.93
17199.34
16661.55
16156.92
15765.52
15553.63
15536.08
15669.87
15875.5
16068.74
16186.12
16196.81
16102.61
15931.35
15727.54
15541.66
15418.72
15388.15
15457.93
15614.88
15830.72
16070.86
16302.59
16500.04
16645.41
16727.62
16740.34
16681.39
16554.25
16369.81
16145.65
15901.65
15653.87
15410.58
15173.09
14939.49
14712.17
14487.87
14305.62
14010.11
29464.15
28828.66
27449.24
25888.45
24613.7
23726.34
23089.51
22529.21
21991.17
21555.51
21325.64
21304.08
21359.37
21303.4
21012.75
20499.96
19887.62
19314.05
18843.82
18443.57
18030.19
17546.67
17008.64
16494.99
16098.04
15871.52
15807.14
15846.19
15911.31
15937.39
15888.8
15761.66
15577.16
15372.35
15190.72
15072.85
15047.3
15123.97
15292.45
15526.1
15789.97
16049.23
16275.13
16447.47
16554.36
16590.62
16556.17
16455.35
16297.2
16095.87
15869.85
15638.65
15417.41
15212.26
15020.47
14835.8
14659.37
14495.26
14378.76
14207.39
29289.95
28418.72
27179.14
25607.66
24000.11
22813.16
22169.73
21852.06
21643.69
21496.31
21435.08
21421.83
21336.42
21064.76
20592.35
20018.95
19487.09
19084.25
18791.16
18508.15
18133.8
17636.17
17070.46
16539.8
16133.6
15884.06
15761.34
15700.14
15634.95
15524.4
15357.79
15149.14
14927.25
14727.07
14582.97
14522.18
14558.55
14688.79
14893.35
15141.84
15400.72
15639.9
15836.4
15975.04
16047.76
16052.81
15994.24
15881.21
15726.77
15546.45
15356.74
15173.29
15007.77
14864.41
14739.89
14628.78
14533.2
14462.37
14435.18
14424.18
28899
27396.05
26072.31
24502.94
22843.69
21578.38
20888.77
20630.94
20621.47
20764.01
20979.93
21135.24
21074.42
20718.29
20123.46
19446.74
18842.97
18374.29
17992.1
17595.07
17113.99
16562.42
16025.02
15601.52
15349.6
15260.89
15276.16
15321.21
15338.81
15302.54
15213.47
15089.42
14955.49
14838.61
14763.92
14750.66
14807.44
14929.58
15100.11
15294.53
15486.74
15653.72
15777.7
15846.57
15853.93
15799.71
15690.68
15539.8
15363.57
15178.61
14999.09
14835.88
14696.16
14582.43
14492.99
14425.83
14384.64
14377.57
14406.58
14484.08
27443.89
25245.36
23975.95
22809.31
21615.74
20515.7
19698.82
19315.48
19392.35
19808.64
20331.96
20699.09
20718.87
20350.21
19704.58
18965.73
18279.4
17687.55
17143.64
16585.53
16005.86
15470.57
15080.43
14910.07
14967.56
15195.19
15502.18
15803.89
16045.77
16206.46
16287.87
16303.82
16273.46
16218.86
16163.06
16126.06
16120.02
16146.03
16194.56
16249.01
16290.4
16301.17
16267.31
16179.56
16034.46
15835.87
15595.62
15332.07
15066.25
14816.81
14596.42
14411.28
14263.21
14151.97
14076.61
14036.37
14031.93
14062.41
14112.86
14203.2
11235.7
14688.11
16314.3
17166.22
17448.65
17169
16710.95
16587.05
17024.76
17867.25
18755.4
19363.9
19541.9
19330.13
18886.83
18375.93
17880.65
17389.08
16849.69
16248.77
15651.28
15179.23
14948.26
15008.63
15325.94
15805.32
16336.21
16829.57
17232.81
17525.23
17706.27
17786.64
17784.73
17725.05
17634.94
17538.76
17451.97
17377.85
17308.23
17227.46
17117.45
16962.17
16750.6
16478.67
16150.48
15779.07
15385.7
14996.71
14638.34
14330.86
14084.61
13899.99
13771.67
13694.4
13665.7
13682.89
13738.41
13816.83
13889.05
13978.82
10792.04
13454.69
14879.18
15696.66
15998.17
15809.46
15471.48
15452.28
15958.68
16808.28
17627.4
18128.19
18243.75
18087.65
17823.89
17548.09
17245.23
16834.82
16261.04
15561.69
14870.34
14355.21
14139.01
14249.78
14624.35
15150.37
15715.03
16235.38
16664.35
16982.49
17188.21
17292.77
17318.2
17293.97
17250.5
17211
17185.41
17168.69
17143.72
17087.32
16976.82
16795.72
16537.13
16205.39
15815.9
15393.7
14970.26
14578.56
14246.99
13993.71
13823.52
13728.98
13696.45
13714.34
13777.17
13879.91
14007.71
14132.61
14227.07
14308.98
25426.81
21093.92
19500.74
18593.6
17751.91
16978.62
16423.81
16257.1
16508.45
16981.63
17378.94
17508.93
17381.5
17140.76
16922.03
16747.62
16525.98
16138.91
15544.78
14824.78
14146.9
13679.76
13515.06
13641.41
13971.75
14395.12
14818.91
15185.56
15468.2
15660.12
15768
15810.13
15814.5
15813.07
15832.74
15887.09
15972.34
16069.1
16148.42
16179.79
16138.6
16011.64
15799.61
15516.96
15189.29
14849.33
14531.9
14268.23
14080.48
13977.83
13955.39
13997.1
14082.5
14194.95
14325.6
14467.49
14605.15
14708.53
14772.43
14769.16
10196.63
11606.94
12661.52
13379.2
13639.69
13673.6
13781.6
14108.91
14616.47
15141.27
15506.15
15632.36
15580.21
15486.96
15452.07
15463.21
15420.54
15232.98
14903.99
14542.49
14298.32
14275.43
14481.98
14840.72
15239.76
15584.66
15824.22
15947.46
15967.01
15905.32
15789.61
15651.6
15525.26
15440.29
15413.76
15444.87
15515.44
15595.73
15652.84
15658.88
15596.96
15464.33
15272.37
15043.78
14807.84
14594.79
14430.61
14332.86
14307.89
14349.94
14442.92
14564.8
14693.46
14811.54
14907.96
14974.37
15002.38
14973.08
14917.05
14710.29
8992.118
10041.13
11092.24
12105.89
12840.08
13288.05
13637.73
13988.93
14310.04
14541.33
14656.51
14669.71
14629.03
14591.82
14579.67
14556.56
14467.16
14307.32
14159.32
14155.17
14395.15
14883
15521.1
16161.34
16672.36
16982.69
17085.28
17015.35
16823.87
16561.66
16274.98
16005.34
15786.95
15641.06
15570.9
15561.39
15584.53
15608.42
15606.04
15561.33
15471.64
15347.07
15207.43
15077.46
14981.08
14935.89
14949.66
15019.21
15131.57
15266.82
15402.19
15516.64
15593.84
15621.8
15591.15
15495.11
15337.68
15118.01
14904.36
14463.41
8625.238
9157.75
9844.94
10720.18
11734.24
12702.61
13447.88
13844.79
13880.92
13687.87
13462.35
13348
13380.41
13502.92
13611.66
13613
13485.36
13312.23
13251.68
13451.41
13962.91
14710.47
15530.12
16246.8
16741.09
16974.26
16973.41
16799.02
16517.84
16190.13
15867.36
15591.68
15392.66
15282.48
15253.77
15283.08
15339.45
15394.44
15429.82
15440.76
15434.64
15427.31
15438.33
15485.8
15581.42
15726.48
15910.49
16113.02
16308.44
16471.63
16582.95
16630.98
16611.41
16522.27
16360.28
16124.09
15828.46
15487.17
15187.49
14654.91
8543.647
8847.014
9300.713
9988.715
11097.53
12450.76
13573.72
14068.38
13876.49
13267.54
12637.41
12287.98
12308.52
12587
12914.66
13121.47
13172.85
13176.89
13303.65
13673.63
14286.61
15027.34
15731.31
16261.34
16551.63
16607.17
16475.53
16216.7
15886.47
15533.54
15201.61
14928.77
14742.5
14653.86
14655.63
14726.39
14839.02
14969.98
15105.4
15242.38
15386.28
15546.25
15730.91
15944.95
16186.21
16443.77
16697.89
16923.2
17094.83
17195.19
17217.96
17167.54
17053.72
16884.79
16664.42
16396.5
16097.32
15785.21
15529.71
15134.51
8533.126
8672.263
9005.284
9656.39
10831.52
12349.8
13639.62
14195.42
13916.73
13094.58
12193.97
11610.93
11507.72
11788.86
12219.8
12603.48
12894.09
13183.54
13595.59
14179.34
14873.13
15546.03
16072.3
16385.35
16486.31
16417.67
16230.01
15963.18
15646.14
15305.93
14974.34
14686.55
14473.66
14354.55
14332.17
14395.65
14526.72
14706.8
14921.73
15162.66
15423.95
15700.16
15984
16265.5
16531.94
16767.77
16955.06
17076.06
17118.4
17080.65
16974.27
16819.35
16636.46
16439.89
16236.76
16031.92
15833.89
15656.35
15524.49
15389.52
8564.406
8573.351
8843.608
9599.069
10890.38
12404.41
13607.22
14098.6
13821.27
13032.52
12147.11
11536.97
11364.47
11547.63
11881.83
12216.28
12545.1
12961.51
13541.88
14264.65
15016.81
15663.41
16117.98
16368.46
16455.52
16431.7
16332.17
16170.16
15950.07
15683.13
15394.37
15118.8
14891.48
14738.24
14671.04
14688.85
14781.99
14937.17
15140.77
15379.69
15640.28
15907.09
16162.59
16388.49
16567.76
16686.19
16733.29
16703.56
16599.26
16433.36
16229.1
16013.8
15810.31
15632.11
15484.84
15370.67
15288.83
15244.63
15222.37
15289.44
8601.566
8535.247
8816.576
9734.372
11115.84
12492.42
13455.63
13819.37
13613.44
13041.96
12408.79
11976.53
11834.38
11891.86
12004.97
12117.14
12295.29
12649.89
13226.5
13960.77
14718.59
15374.67
15867.75
16203.59
16420.45
16551.13
16606.44
16582.43
16477.81
16306.39
16097.68
15887.89
15708.72
15579.92
15507.89
15488.88
15514.01
15573.35
15658.01
15760.04
15871.18
15981.26
16077.68
16146.45
16174.6
16152.93
16077.82
15952
15784.86
15592.56
15396.04
15216.1
15067.59
14957.44
14887.37
14857.03
14861.3
14898.55
14933.66
15076.24
8624.454
8565.133
8970.361
10025.18
11348.49
12465.46
13181.55
13506.97
13505.26
13282
12988.46
12745.15
12571.36
12414.9
12249.5
12136.39
12193.82
12509.76
13076.46
13794.84
14534.12
15195.62
15739.29
16168.54
16497.86
16731.24
16862.67
16890.53
16830.63
16717.34
16592.91
16492.4
16432.78
16410.92
16409.37
16405.74
16381.05
16324.51
16234.5
16116.79
15981.25
15838.03
15694.22
15552.27
15410.96
15268.34
15124.99
14985.25
14856.12
14745.06
14658.05
14598.63
14567.63
14564.32
14588.04
14638.4
14710.47
14799.59
14867.48
15028.78
8632.372
8688.712
9320.629
10412.54
11493.33
12302
12885.02
13338.62
13671.29
13850.71
13854.05
13666.41
13295.3
12815.23
12380.27
12168.25
12292.66
12748.21
13425.22
14174.9
14877.62
15475.01
15959.02
16339.62
16619.54
16791.33
16851.81
16818.45
16733.44
16652.21
16623.06
16669.14
16781.25
16923.52
17047.52
17107.87
17073.64
16933.27
16693.94
16377.43
16014.37
15637.77
15276.82
14952.4
14675.97
14452.31
14283.81
14172.9
14120.35
14121.67
14165.74
14238.46
14328.64
14431.48
14547.28
14677.39
14817.66
14964.47
15078.92
15295.02
8642.292
8942.305
9824.464
10819.93
11586.61
12184.84
12790.73
13459.27
14120.38
14635.78
14838.73
14610.7
13990.39
13211.49
12604.98
12428.16
12743.82
13421.39
14236.75
14991.08
15579.3
15988.77
16254.61
16413.5
16483.55
16472.32
16396.82
16295.98
16226.08
16241.74
16373.72
16615.36
16923.57
17232.73
17474.5
17595.1
17565.39
17382.55
17065.96
16650.4
16178.72
15694.73
15236.82
14833.13
14500
14244.54
14069.45
13976.02
13962.44
14019.22
14127.71
14266.04
14418.7
14581.42
14756.94
14947.61
15148.36
15359.33
15537.49
15858.14
8694.184
9360.353
10427.48
11269.5
11848.78
12419.74
13113
13918.81
14764.23
15481.54
15813.21
15570.26
14819.22
13900.17
13242.29
13125.09
13555.43
14316.4
15120.03
15750.68
16125.89
16272.4
16263.54
16167.52
16030.11
15884.8
15769.31
15730.79
15815.08
16047.69
16418.57
16879.81
17357.46
17771.9
18057.84
18177.23
18122.27
17910.5
17575.81
17159.38
16702.64
16242.59
15808.77
15421.62
15092.75
14827.63
14629.62
14502.45
14448.41
14463.49
14534.82
14645.19
14782.24
14943.55
15131.8
15347.29
15582.25
15840.58
16073.77
16490.38
8849.903
9996.529
11198.28
12001.37
12609.47
13225.86
13900.85
14675.12
15551.42
16355.45
16769.53
16571.58
15844.49
14954.72
14329.2
14216.25
14588.84
15217.31
15827.57
16234.01
16385.55
16332.55
16164.06
15961.06
15782.86
15675.31
15680.63
15835.4
16157.37
16631.48
17205.59
17800.45
18329.96
18723.08
18938.79
18970.25
18838.93
18583.04
18245.31
17863.73
17466.89
17073.7
16695.54
16339.27
16009.93
15712.84
15455.18
15246.36
15096.15
15010.85
14989.92
15026.92
15114.64
15249.36
15428.83
15648.15
15896.23
16177.68
16439.34
16892.88
9380.643
11297.12
12706.6
13626.85
14301.35
14814.48
15287.46
15909.67
16725.66
17513.09
17931.2
17791.53
17201.29
16483.72
15972.19
15836.35
16034.4
16386.37
16697.34
16850.92
16833.63
16701.91
16532.38
16389.25
16318.1
16353.53
16523.69
16843.98
17304.46
17862.09
18445.57
18972.43
19371.05
19598
19644.66
19532.67
19302.05
18997.49
18656.98
18305.53
17954.27
17604.28
17252.76
16899.11
16548.27
16210.82
15900.6
15632.16
15419.17
15273.27
15201.96
15206.21
15280.24
15414.54
15598.84
15823.67
16077.08
16360.95
16621.58
17041.1
11080.76
13780.47
15187.25
15995
16429.04
16613.46
16819
17285.98
17980.89
18626
18943.44
18852.26
18478.48
18033.93
17687.46
17501.24
17438.46
17415.45
17361.07
17251.44
17108.34
16973.79
16884.49
16862.09
16918.54
17064.32
17308.46
17649.01
18062.12
18499.48
18898.1
19198.25
19360.61
19375.22
19259.45
19048.12
18780.84
18491.26
18200.79
17916.96
17636.23
17349.85
17051.08
16740.99
16430.37
16136.61
15877.72
15667.47
15514.81
15426.37
15407.58
15459.22
15572.96
15732.79
15922.91
16134.73
16362.16
16604.49
16819.74
17125.04
27858.93
25138.53
23735.88
22779.32
21847.74
21014.2
20539.52
20504.66
20704.97
20851.49
20801.52
20592.66
20322.13
20037.24
19721.1
19341.03
18894.13
18419.05
17978.66
17631.44
17408.29
17305.28
17293.83
17340.67
17425.1
17543.59
17700.39
17892.1
18097.4
18278.76
18395.07
18417.34
18338.85
18175.56
17957.99
17719.79
17488.13
17278.52
17094.36
16929.51
16772.98
16614.36
16449.35
16283.05
16129.28
16005.25
15924.17
15890.22
15899.7
15946.76
16027.9
16139.75
16272.84
16410.88
16539.98
16658.63
16773.12
16884.77
16979.79
17072.18
29542.91
27615.05
26173.8
25032.4
23875.59
22866.59
22273.31
22063.51
21972.84
21813.05
21607.65
21469.57
21424.6
21364.86
21138.68
20669.98
20012.61
19317.25
18747.83
18403.48
18286.31
18322.07
18411.34
18478.54
18494.8
18470.5
18429.64
18385.04
18328.06
18235.31
18084.62
17869.33
17603.17
17315.05
17038.16
16799.52
16614.19
16484.83
16404.96
16363.46
16348.82
16352.69
16372.39
16411.4
16476.93
16574.7
16703.22
16851.27
17000.82
17134.18
17240.16
17314.06
17352.25
17348.75
17300.28
17214.37
17109.54
16993.59
16891.23
16690.73
30056.68
28902.48
27588.1
26447.84
25423.05
24597.84
24044.34
23621.43
23152.84
22656.1
22306.82
22229.73
22359.96
22478.63
22360.32
21913.01
21225.29
20505.35
19960.1
19690.72
19660.9
19742.45
19797.13
19742.67
19572.12
19329.65
19068.44
18818.57
18579.02
18330.5
18055.75
17753.77
17442.24
17149.95
16905.58
16729.16
16628.89
16602.93
16643.49
16740.92
16886.28
17072.46
17294.07
17546.06
17821.23
18107.27
18385.17
18630.24
18816.3
18921.59
18934.09
18853.62
18689.09
18452.94
18158.01
17818.88
17458.83
17090.33
16776.25
16291.8
30185.81
29496.14
28189.69
26915.05
26089.44
25678.94
25333.31
24729.53
23860.17
23010.97
22502.45
22459.04
22753.37
23102.45
23227.59
22992.54
22454.24
21804.85
21246.48
20879.88
20671.71
20505.34
20267.62
19912.39
19470.1
19012.56
18605.23
18277.04
18018.76
17801.87
17601.26
17408.96
17235.07
17099.76
17023.24
17018.85
17091.02
17237.22
17451.22
17725.75
18053.38
18425.86
18832.37
19257.55
19680.16
20073.47
20407.75
20654.23
20788.86
20795.1
20666.63
20410.47
20047.96
19608.96
19121.24
18602.9
18072.43
17538.29
17090.98
16439.43
30190.71
29808.22
28536.92
27123.82
26411.2
26313.51
26121.33
25371.07
24208.62
23119.64
22515.93
22527.31
23007.96
23647.46
24117.66
24208.54
23895.92
23307.75
22618.37
21945.71
21313.01
20682.09
20016.63
19325.7
18663.68
18097.83
17672.05
17389.96
17222.45
17128.87
17077.29
17054.27
17063.41
17117.43
17229.52
17407.76
17653.56
17962.97
18329.08
18743.85
19198.33
19681.4
20177.51
20664.98
21116.26
21500.9
21790.53
21963.43
22006.31
21913.39
21686.15
21336.47
20890.35
20384.23
19851.61
19309.29
18764.94
18214.06
17756.27
17086.4
30125.64
29860.76
28731.46
27420.12
26750.76
26579.89
26208.34
25293.66
24090.93
23091.52
22646.21
22831.88
23485.3
24298.3
24940.22
25177.67
24940.36
24304.26
23416.26
22416.38
21399.73
20422.18
19524.76
18748.99
18132.76
17695.18
17426.21
17290
17239.94
17236
17255.66
17295.45
17365.14
17479.41
17650.62
17884.68
18180.1
18529.35
18921.41
19344.03
19784.65
20229.51
20661.73
21060.08
21400.35
21659.42
21820.32
21875.18
21824.32
21672.63
21427.48
21100.79
20713.12
20292.55
19864.66
19438.77
19011.89
18564.42
18186.37
17583.07
30019.57
29682.81
28809.58
27886.5
27189.03
26502.79
25586.13
24512.63
23580.02
23063.65
23076.07
23551.22
24285.95
25010.75
25477.56
25531.61
25136.82
24356.17
23311.82
22148.68
21008.48
20010.77
19236.87
18718.77
18437.66
18335.2
18334.66
18364.43
18375.73
18349.44
18292.5
18227.98
18183.88
18184.37
18244.67
18369.31
18552.92
18782.86
19042.87
19316.59
19589.53
19848.77
20081.35
20273.16
20410.4
20483.25
20489.25
20433.83
20327.19
20180.13
20001.42
19798.31
19578.36
19350.05
19119.91
18885.54
18638.41
18349.48
18087.08
17569.56
29872.47
29347.93
28807.63
28324.47
27430.74
26006.78
24496.58
23410.37
22959.48
23082.73
23602.9
24309.93
24988.18
25453.61
25594.12
25375.33
24814.83
23961.14
22896.91
21749.74
20681.39
19846.64
19341.3
19169.8
19250.39
19452.83
19647.84
19745.72
19711.86
19560.23
19334.16
19085.23
18857.82
18681.24
18568.34
18517.69
18517.52
18550.26
18597.35
18643.2
18677.25
18693.53
18688.62
18660.09
18607.04
18532.35
18444.17
18354.6
18276.28
18218.97
18187.68
18181.33
18191.7
18204.88
18206.34
18183.39
18128.6
18012.35
17878.39
17470.55
29662.4
28914.63
28642.6
28308.61
27058.86
25106.95
23370.73
22493.02
22502.22
23079.05
23872.48
24618.38
25148.42
25390.13
25351.13
25067.06
24550.77
23793.75
22817.91
21724.8
20690.65
19902.81
19478.16
19414.68
19601.14
19872.71
20078.47
20128.3
20005.14
19748.05
19422.02
19090.02
18796.05
18560.35
18382.82
18250.09
18142.81
18041.52
17931.18
17803.7
17658.55
17501.06
17339.77
17184.06
17043.54
16928.57
16850.44
16820.12
16846.1
16932.62
17078.19
17273.03
17496.37
17718.81
17912.8
18061.94
18164.27
18197.06
18187.5
17928.28
29172.8
28029.38
27752.64
27211.29
25745.87
23852.24
22392.37
21825.78
22073.09
22775.13
23559.33
24171.73
24513.49
24618.79
24576.68
24432.35
24139.57
23602.95
22774.18
21724.17
20636.39
19727.17
19147.05
18921.75
18959.29
19107.89
19226.72
19234.23
19119.3
18921.88
18700.61
18504.61
18358.6
18261.95
18196.61
18137.78
18062.88
17956.95
17814.65
17639.81
17443.26
17240.11
17047.01
16879.96
16752.86
16676.76
16659.62
16706.53
16820.02
16999.59
17239.84
17527.03
17836.84
18137.81
18402.28
18616.4
18783.2
18891.22
18963.88
18855.7
27703.86
26252.94
25990.45
25401.58
24256.36
22982.54
22042.8
21690.73
21916.72
22487.46
23079.45
23456.73
23580.87
23577.84
23595.99
23670.02
23689.03
23477.74
22920.66
22043.04
21004.28
20019.44
19262.56
18804.72
18610.45
18580.7
18610.72
18632.53
18627.71
18614.06
18620.57
18665.5
18746.28
18841.89
18922.82
18962.34
18944.37
18866.13
18736.25
18570.4
18386.81
18203.36
18036.3
17899.67
17804.13
17755.72
17755.72
17802.82
17895.84
18033.97
18213.6
18424.44
18648.8
18865.57
19057.1
19214.33
19340.92
19437.25
19526.68
19527.08
12239.15
16640.13
19016.88
20004.49
20361.79
20441.96
20411.51
20471.66
20781.12
21290.41
21774.67
22048.84
22128.69
22190.88
22400.76
22772.85
23160.78
23354.83
23202.91
22682.41
21897.81
21022.74
20225.68
19615.71
19225.57
19028.54
18971.74
19006.26
19101.84
19244.9
19427.16
19634.5
19842.71
20021.39
20142.61
20189.45
20160.37
20068.08
19933.94
19780.69
19626.88
19485
19362.73
19264.8
19193.35
19146.79
19120.07
19107.8
19108.3
19123.9
19156.72
19204.44
19260.88
19319.82
19376.6
19427.16
19472.59
19520.87
19588.51
19654.11
12303.94
16563.86
18651.04
19511.86
20098.62
20594.38
20859.11
20925.99
20980.17
21106.4
21227.66
21260.87
21249.23
21329.04
21600.37
22039.07
22508.94
22837.96
22895.88
22636.38
22099.52
21387.1
20626.28
19934.14
19392.56
19038.66
18869.98
18858.45
18965.11
19149.8
19374.8
19605.22
19809.56
19962.38
20048.38
20065.68
20026.06
19951.12
19865.4
19788.97
19732.68
19698.07
19680.76
19674.57
19673.25
19670.04
19657.64
19630.7
19589.18
19538.57
19485.84
19435.55
19390.56
19355.04
19333.64
19327.5
19335.93
19366.89
19422.11
19533.42
27649.36
25838.35
24826.49
23953.27
23433.44
23250.92
23107.15
22817.8
22408.26
21968.76
21560.18
21228.03
21024.87
20989.45
21115.49
21349.67
21615.27
21835.27
21941.99
21881.53
21623.68
21175.91
20590.44
19954.46
19364.76
18898.42
18593.05
18443.86
18415.08
18457.74
18525.52
18584.2
18614.34
18609.96
18575.57
18523.22
18469.49
18431.75
18423.66
18451.27
18511.38
18593.23
18683
18768.23
18840.27
18893.94
18926.32
18936.66
18927.32
18903.92
18873.58
18842.62
18816.4
18800.79
18802.17
18824.79
18867.27
18931
18996.68
19138.76
28994.02
27165.5
25856.66
25002.05
24343.27
23839.19
23470.57
23108.84
22614.27
21976.98
21328.15
20825.26
20536.42
20422.25
20404.52
20441.81
20548.78
20756.74
21058.72
21385.25
21626.51
21683.41
21514.17
21150.25
20676.28
20188.92
19757.97
19407.32
19119.85
18858.37
18589.11
18297.03
17988.82
17686.4
17416.58
17202.26
17057.29
16985.02
16979.14
17025.63
17105.62
17198.91
17287.92
17360.98
17414.01
17449.7
17474.53
17495.01
17515.36
17537.83
17564.66
17598.85
17643.1
17699.03
17768.46
17853.92
17952.1
18056.6
18127.16
18262.63
29220.06
27370.72
25960.22
25338.92
24845.8
24262.76
23749.99
23293.3
22699.25
21910.14
21101.87
20491.6
20138.18
19938.94
19773.35
19627.29
19598.98
19808.62
20296.78
20981.27
21688.93
22233.01
22489
22432.05
22125.31
21674.07
21173.83
20677.24
20190.54
19693.35
19166.23
18610.28
18051.43
17531.09
17090.91
16759.45
16545.51
16438.68
16414.92
16444.1
16496.7
16548.5
16583.2
16593.73
16582.69
16560.98
16543.43
16542.34
16562.4
16601.11
16654.06
16719.46
16797.27
16886.09
16983.34
17087.55
17192.92
17289.27
17331.92
17411.33
28807.97
26513.29
24787.1
24057.96
23813.07
23635.47
23388.27
22944.17
22182.63
21182.42
20221.68
19548.17
19191.92
19000.21
18817.66
18627.54
18553.19
18750.63
19287.95
20089.27
20963.66
21689.55
22103.83
22153.41
21892.51
21437.4
20907.34
20380.84
19882.97
19401.12
18913.98
18415.71
17925
17478.36
17114.82
16860.91
16722.23
16683.59
16715.86
16785.5
16862.74
16925.98
16962.96
16970.39
16953.53
16925
16900.83
16893.67
16906.87
16934.51
16968.01
17003.42
17042.27
17086.87
17136.74
17188.92
17236.48
17271.32
17266.4
17283.44
27277.7
24524.69
22720.59
21880.47
21945.05
22428.63
22725.38
22457.77
21602.75
20430.9
19318.27
18529.68
18109.9
17938.38
17875.01
17875.83
18006.96
18369.91
19003.91
19831.36
20674.1
21324.67
21630.17
21546.57
21141.84
20554.3
19931.63
19380.19
18943.49
18611.33
18347.23
18117.06
17906.24
17721.54
17581.59
17503.59
17493.4
17542.58
17632.17
17739.89
17846.46
17938.58
18008.8
18054.37
18076.93
18082.38
18079.2
18074.22
18067.99
18054.25
18025.25
17979.49
17924.72
17873.12
17832.4
17801.62
17773.31
17746.45
17714.36
17734.44
12190.79
14511.23
15299.54
15846.75
16994.02
18526.45
19704.97
20050.57
19608
18728.26
17778.65
17005.05
16522.39
16349.43
16452.7
16791.63
17345.44
18102.32
19020.1
19993.4
20859.08
21443.76
21628.43
21394.86
20831.13
20096.16
19362.78
18764.98
18368.64
18171.34
18124.24
18162.41
18230.46
18295.85
18349.1
18395.41
18444.08
18501.23
18567.78
18641.25
18718.29
18795.74
18869.94
18935.95
18987.94
19020.56
19030.23
19014.91
18972.56
18900.09
18795.48
18663.15
18517.9
18380.93
18267.9
18181
18112.94
18072.6
18057.13
18163.16
10767.75
12466.87
13450.21
14124.38
15256.49
16795.82
18100.04
18708.16
18634.23
18128.09
17410.58
16639.16
15974.96
15583.42
15571.54
15950.23
16654.94
17586.27
18629.97
19655.13
20515.75
21074.08
21240.01
21004.77
20449.03
19719.92
18986.96
18394.7
18028.52
17903.16
17973.85
18162.41
18387.03
18585.17
18723.93
18798.06
18820.57
18811.93
18792.29
18777.61
18778.36
18799.26
18839.06
18890.81
18942.98
18981.67
18993.88
18970.79
18909.48
18811.93
18683.45
18533.48
18378.04
18237.74
18128.37
18054.23
18011.56
18018.61
18059.59
18286.51
10411.04
11441.98
12503.15
13302.84
14172.2
15237.14
16259.75
16997.01
17388.31
17451.67
17187.43
16635.51
15956.23
15395.4
15162.65
15340.63
15884.15
16677.48
17590.18
18501.77
19303.55
19899.37
20217.35
20228.91
19962.78
19503.81
18973.28
18496.68
18169.78
18035.22
18077.6
18237.36
18436.38
18604.39
18696.71
18699.35
18623.47
18494.51
18341.54
18189.91
18057.7
17955.01
17884.6
17843.05
17821.64
17807.87
17788.48
17754.04
17702.77
17640.4
17575.99
17517.76
17472.21
17445.41
17442.19
17466.48
17520.99
17628.66
17752.21
18084.93
10390.51
11012.04
12243.78
13366.2
14017.06
14391.81
14850.57
15550.68
16366.25
17018.77
17265.38
17038.76
16479.78
15855.96
15423.96
15323.75
15556.66
16035.57
16655.68
17338.65
18035.06
18702.35
19285.65
19719.42
19949.13
19958.02
19781.35
19498.1
19203.56
18975.79
18851.48
18820.52
18838.59
18849.52
18806.49
18684.36
18481.32
18212.62
17901.58
17571.92
17243.65
16932.16
16649.22
16403.54
16200.36
16040.48
15920.99
15838.72
15794.55
15794.55
15845.39
15946.76
16087.39
16249.84
16421.13
16601.78
16799.36
17033.83
17246.1
17647.98
10460.11
10833.96
12177.08
13608.6
14192.66
14057.93
14012.37
14583.26
15639.56
16688.94
17312.84
17372.64
16985.61
16403.28
15881.15
15581.66
15540.44
15703.43
16001.8
16408.61
16941.35
17619.13
18413.65
19231.98
19942.35
20426.11
20625.02
20559.87
20314.45
19996.91
19698.88
19469.22
19309.43
19186.75
19055.3
18874.97
18622.04
18290.77
17889.06
17432.53
16940.41
16433.95
15936.31
15471.78
15063.3
14729.08
14480.57
14323.73
14262.61
14301.47
14441.47
14672.21
14966.4
15287.22
15607.03
15921.78
16239.08
16569.61
16843.33
17264.12
10576.02
10911.27
12229.16
13700.77
14321.92
14129.58
13947.34
14391.77
15395.87
16481.17
17221.68
17459.58
17270.49
16848.36
16401.59
16074.17
15908.39
15869.5
15915.57
16057.36
16361.63
16898.46
17674.65
18601.19
19515.46
20243.23
20664.9
20753.81
20573.29
20240.71
19879.06
19576.99
19369.8
19242.98
19150.94
19040.07
18866.91
18606.85
18254.27
17818.04
17316.54
16774.35
16220.4
15686
15201.72
14793.53
14480.15
14272.88
14178.1
14199.27
14334.76
14570.87
14877.16
15213.98
15551.45
15883.16
16213.12
16542.4
16810.07
17179.75
10736.37
11244.12
12417.18
13640.67
14354.45
14539.26
14619.65
14987.39
15683.15
16468.95
17075.74
17362.95
17339.01
17113.67
16831.6
16604.76
16470.29
16401.43
16363.8
16370.47
16491.25
16809.36
17358.55
18084.33
18853.67
19505.76
19914.82
20033.86
19902.95
19623.66
19315.62
19074.48
18946.45
18924.79
18964.9
19007.82
19001.88
18915.16
18737.8
18477.28
18151.47
17782.83
17394.92
17010.44
16649.79
16329.87
16063.41
15859.59
15725.28
15665.64
15682.15
15768.35
15907.37
16076.64
16258.66
16448.26
16645.15
16846.36
17018.94
17256.32
10970.16
11821.84
12824.57
13724.19
14567.76
15289.92
15791.17
16117.93
16413.37
16754.38
17087.13
17300.02
17332.09
17219.52
17062.84
16957.71
16943.12
16997.37
17075.74
17156.79
17263.32
17445.38
17740.12
18136.8
18569.44
18940.79
19163.32
19195.87
19059.1
18825.05
18587.7
18428.43
18390.61
18471.55
18632.33
18818.09
18979.14
19084.54
19125.32
19109.39
19052.66
18970.85
18874.55
18767.99
18650.48
18519.29
18372.68
18212.09
18042.55
17871.24
17705.46
17551.74
17416.38
17305.34
17221.9
17164.69
17130.22
17117.38
17128.9
17173.21
11483.08
12936.76
13871.79
14547.59
15465.91
16550.23
17349.1
17628.6
17567.83
17478.02
17500.15
17578.49
17612.95
17576.31
17519.16
17513.95
17603.7
17782.85
18008.67
18229.76
18414.07
18560.45
18688.64
18815.91
18937.08
19021.06
19026
18923.75
18719.72
18457.12
18203.73
18027.77
17974.27
18052.33
18237.23
18484.65
18748.99
18997.92
19218.18
19412.5
19591.02
19761.76
19924.16
20067.62
20174.69
20226.77
20209.68
20116.78
19948.58
19710.28
19410.73
19065.4
18699.65
18344.12
18020.99
17733.98
17478.94
17257.11
17103.46
16941.63
12899.27
14941.5
15688.18
16072.04
16833.88
17933.31
18782.67
18978.25
18654.13
18225.65
17990.87
17992.3
18119.52
18251
18325.51
18348.35
18364.8
18421.84
18536.39
18687.25
18833.37
18942.42
19007.39
19041.06
19055.75
19045.58
18984.67
18842.53
18606.23
18295.86
17964.02
17679.7
17504.88
17474.75
17589.8
17821.3
18126.05
18462.64
18802.87
19134.66
19457.21
19772.12
20075.5
20354.68
20590.37
20761.98
20852.74
20851.92
20753.76
20555.78
20260.6
19882.32
19451.1
19006.43
18579.25
18178.64
17803.55
17452.68
17185.51
16843.09
26233.5
23885.54
22285.27
21272.95
21029.34
21332.2
21579.42
21335.67
20642.18
19867.87
19374.23
19292.52
19505.5
19768.51
19863.85
19704.19
19346.28
18928.51
18583.66
18380.75
18319.2
18360.95
18466.76
18611.67
18776.75
18932.42
19031.36
19019.35
18858.32
18548.06
18134.04
17696.57
17326.23
17096.3
17043.35
17162.27
17415.63
17751.4