/*--------------------------------*- C++ -*----------------------------------*\
| =========                 |                                                 |
| \\      /  F ield         | OpenFOAM: The Open Source CFD Toolbox           |
|  \\    /   O peration     | Version:  2312                                  |
|   \\  /    A nd           | Website:  www.openfoam.com                      |
|    \\/     M anipulation  |                                                 |
\*---------------------------------------------------------------------------*/
FoamFile
{
    version     2.0;
    format      ascii;
    arch        "LSB;label=32;scalar=64";
    class       volScalarField;
    location    "5400";
    object      ILambda_14_0;
}
// * * * * * * * * * * * * * * * * * * * * * * * * * * * * * * * * * * * * * //

dimensions      [1 0 -3 0 0 0 0];

internalField   nonuniform List<scalar> 
12000
(
860.4157
811.319
807.8397
796.3482
782.6766
769.374
759.1909
752.6632
748.9796
747.2856
747.4964
750.2552
756.0982
764.4183
773.1273
779.4483
781.346
778.5368
772.3597
764.6805
756.7155
748.5962
739.8433
730.2402
720.4044
711.6963
705.6137
703.1064
704.1881
707.9635
712.9549
717.5256
720.256
720.225
717.1637
711.4838
704.184
696.5877
689.976
685.259
682.8515
682.7037
684.4612
687.5875
691.4381
695.4304
699.161
702.4602
705.0914
706.71
707.1801
706.6789
705.3858
703.1451
699.5648
693.9944
685.4487
672.917
656.0501
637.018
816.0646
791.5439
784.8855
771.2857
760.9533
753.5565
749.3751
747.754
748.3598
751.2655
756.534
763.6009
771.0013
776.7405
779.1335
777.5556
772.5816
765.4524
757.3025
748.6951
739.7125
730.42
721.2909
713.2738
707.4798
704.7097
705.0953
708.0093
712.239
716.3174
718.8862
719.0029
716.335
711.207
704.4928
697.3773
691.0435
686.3831
683.8379
683.411
684.789
687.4919
690.9867
694.7651
698.4164
701.6568
704.288
706.1125
706.9555
706.7662
705.5558
703.1779
699.2039
693.0281
684.0645
672.0325
657.4412
642.074
629.0447
621.4735
788.7791
771.2452
763.2577
754.1998
749.5704
747.7255
748.4662
751.3535
756.1781
762.4512
769.132
774.7068
777.673
777.1371
773.1367
766.4811
758.2454
749.285
740.0724
730.8863
722.1248
714.4678
708.7596
705.6901
705.4723
707.685
711.3401
715.129
717.7488
718.2137
716.0767
711.517
705.2696
698.4182
692.1093
687.2732
684.4369
683.6841
684.7492
687.1737
690.4463
694.0917
697.7113
700.9989
703.7341
705.7443
706.867
706.9414
705.8255
703.3404
699.1649
692.8436
683.9819
672.5344
659.064
644.9174
632.1447
622.9376
618.6067
618.568
768.2067
754.6938
750.4389
747.5787
748.236
751.0071
755.6078
761.3943
767.5416
772.8822
776.163
776.4377
773.3992
767.4404
759.4166
750.275
740.7851
731.4979
722.8839
715.4798
709.8947
706.6507
705.9511
707.514
710.5612
713.973
716.5523
717.313
715.7148
711.7834
706.0881
699.5813
693.3468
688.3326
685.1506
683.9949
684.6893
686.8205
689.889
693.4197
697.0151
700.3643
703.2279
705.4139
706.7455
707.0338
706.0644
703.5919
699.3307
692.9676
684.2657
673.2702
660.5191
647.1326
634.7065
624.9714
619.2481
617.9089
620.2278
624.9021
754.1319
747.1903
748.1377
750.4062
754.8754
760.3587
766.1884
771.3443
774.7799
775.5939
773.3228
768.0761
760.4692
751.3917
741.7485
732.3041
723.6694
716.3668
710.8676
707.5373
706.5071
707.5482
710.0328
713.0195
715.4475
716.3798
715.2273
711.8891
706.7715
700.6785
694.6029
689.4821
685.9904
684.4269
684.7206
686.5296
689.3815
692.798
696.3678
699.7666
702.7412
705.0809
706.5866
707.0457
706.2154
703.8244
699.592
693.2728
684.738
674.1046
661.8793
649.0294
636.9024
626.9763
620.494
618.0977
619.6345
624.2971
631.0839
639.2701
748.7442
749.5195
754.1315
759.2827
764.9642
770.0019
773.5408
774.7276
773.0475
768.4363
761.3152
752.4626
742.8098
733.2501
724.5282
717.2183
711.7378
708.3421
707.077
707.7125
709.7121
712.2794
714.4911
715.4882
714.673
711.8536
707.2942
701.6498
695.8047
690.6569
686.9159
684.9699
684.8538
686.313
688.9231
692.2141
695.7592
699.2109
702.2947
704.7791
706.4441
707.0559
706.356
704.0657
699.9152
693.6955
685.3372
675.0054
663.1921
650.761
638.8909
628.8916
621.9272
618.7319
619.4252
623.51
630.0833
638.1663
646.9516
655.8251
751.8956
758.4007
763.7918
768.7762
772.4139
773.8723
772.6504
768.5812
761.9491
753.4161
743.8791
734.2833
725.4695
718.0846
712.5526
709.0746
707.6269
707.95
709.5488
711.7294
713.6913
714.6683
714.0871
711.7014
707.6585
702.4733
696.9114
691.8099
687.8884
685.6045
685.0921
686.1891
688.5324
691.6735
695.1762
698.6693
701.8521
704.4713
706.2876
707.0502
706.4877
704.3185
700.2828
694.1966
686.0241
675.956
664.4749
652.3783
640.7276
630.7074
623.409
619.5977
619.5417
622.9645
629.144
637.1217
645.9362
654.7622
662.9011
669.7852
760.2936
768.1491
771.2622
773.05
772.1733
768.5651
762.3937
754.2232
744.891
735.3451
726.4779
718.9983
713.364
709.7661
708.1436
708.2092
709.4805
711.326
713.0391
713.9414
713.5046
711.4615
707.8753
703.139
697.8984
692.911
688.8806
686.3121
685.4271
686.1591
688.2169
691.1864
694.6295
698.1504
701.4187
704.1557
706.1051
707.0053
706.5788
704.5435
700.6472
694.7209
686.7468
676.9255
665.7272
653.9018
642.4301
632.4054
624.8583
620.5622
619.8761
622.6772
628.4037
636.1911
645.0493
654.0178
662.2368
668.9201
673.3271
674.9446
768.5205
772.7386
771.523
768.4538
762.6723
754.8862
745.8164
736.3925
727.5223
719.9582
714.1985
710.4503
708.6437
708.4756
709.4663
711.0216
712.5019
713.3028
712.9454
711.164
707.9668
703.6498
698.7484
693.9325
689.868
687.0809
685.862
686.2348
687.9888
690.759
694.1184
697.6524
700.9979
703.8452
705.9168
706.9413
706.6405
704.7376
700.989
695.2366
687.4707
677.8914
666.9508
655.3584
644.0345
634.0057
626.2558
621.5582
620.3333
622.5696
627.8325
635.3522
644.1571
653.2089
661.5044
668.1294
672.2744
673.2759
670.7789
665.0202
771.1371
768.3875
762.7652
755.4365
746.6387
737.4008
728.5789
720.957
715.0667
711.1463
709.1398
708.7448
709.4846
710.786
712.0536
712.7403
712.4153
710.8275
707.9537
704.0162
699.4547
694.8517
690.8209
687.8876
686.3896
686.4273
687.8707
690.4142
693.6565
697.1764
700.5832
703.534
705.7248
706.8707
706.6921
704.9192
701.3195
695.7451
688.1911
678.8516
668.158
656.7819
645.5928
635.5648
627.6446
622.6029
620.902
622.6127
627.3998
634.5767
643.2078
652.2267
660.5467
667.1562
671.2111
672.1399
669.7862
664.6085
657.8584
651.4226
765.2426
755.5098
747.4233
738.3539
729.6273
721.9828
715.9716
711.8689
709.6454
709.0168
709.5178
710.5903
711.6666
712.2391
711.916
710.4671
707.8558
704.2528
700.0197
695.6565
691.7171
688.7072
686.9914
686.731
687.87
690.1669
693.258
696.7283
700.1687
703.2068
705.5106
706.7777
706.7239
705.0849
701.6387
696.2469
688.9079
679.8082
669.3579
658.1935
647.14
637.127
629.07
623.7343
621.6113
622.8319
627.1379
633.9134
642.2658
651.1331
659.4
666.0157
670.1212
671.1951
669.2087
664.7643
659.1719
654.3811
652.6039
655.4722
752.0128
738.4946
730.8173
722.9986
716.9142
712.6237
710.1721
709.2984
709.5591
710.4135
711.3137
711.7776
711.4414
710.0933
707.6936
704.3801
700.4544
696.3447
692.5423
689.5203
687.6498
687.1355
687.9854
690.0225
692.9291
696.3092
699.7469
702.8466
705.2501
706.6353
706.71
705.2125
701.9289
696.7287
689.6119
680.7563
670.5506
659.5989
648.6862
638.7034
630.5387
624.9515
622.4536
623.2211
627.0564
633.4038
641.4163
650.055
658.2095
664.8286
669.0627
670.419
668.9135
665.1775
660.4558
656.441
654.9104
657.157
663.316
671.9758
735.9658
723.1455
718.0946
713.374
710.7363
709.5953
709.6092
710.2455
710.9765
711.3371
710.9811
709.7103
707.4849
704.4214
700.7776
696.9225
693.2887
690.3084
688.3436
687.6242
688.2089
689.9806
692.6733
695.9213
699.3144
702.4436
704.9284
706.4266
706.6344
705.2884
702.1798
697.1833
690.2989
681.6943
671.7369
660.9994
650.2304
640.2864
632.0316
626.2195
623.3779
623.7201
627.0988
633.0121
640.6594
649.0364
657.0561
663.6859
668.0953
669.8062
668.8301
665.7517
661.7011
658.1623
656.6111
658.0405
662.4932
668.7774
674.6366
677.6674
722.2843
713.4347
711.5322
709.8771
709.6841
710.0832
710.6467
710.9053
710.5269
709.3196
707.243
704.3985
701.0115
697.4038
693.9558
691.0569
689.0494
688.1724
688.5214
690.0315
692.4892
695.5676
698.8746
701.9989
704.5447
706.1507
706.4985
705.3183
702.401
697.6228
690.9812
682.6331
672.9249
662.3994
651.7713
641.866
633.526
627.4997
624.3293
624.2602
627.1903
632.6677
639.9395
648.0417
655.9211
662.5727
667.187
669.2909
668.8672
666.4181
662.9296
659.6964
658.0002
658.7063
661.9083
666.7771
671.7432
675.0809
675.8263
674.6205
713.9925
709.7522
709.9286
709.9032
710.3343
710.4764
710.0748
708.9218
706.9769
704.328
701.1755
697.8036
694.548
691.757
689.7466
688.7543
688.899
690.1588
692.3701
695.2501
698.4347
701.5214
704.1074
705.8158
706.3122
705.3146
702.6076
698.0638
691.6748
683.5857
674.1227
663.8011
653.305
643.4314
635.0041
628.7671
625.2754
624.804
627.2922
632.3355
639.2282
647.0497
654.7841
661.4576
666.2806
668.7793
668.8989
667.0515
664.0787
661.1003
659.249
659.3359
661.5575
665.3792
669.7031
673.3198
675.532
676.7353
678.6178
683.5543
710.832
709.5568
710.1268
710.0358
709.6333
708.5174
706.6933
704.2212
701.2836
698.1334
695.0689
692.4009
690.4173
689.3454
689.3172
690.344
692.3073
694.9702
698.0034
701.0234
703.6287
705.4319
706.0821
705.2816
702.8025
698.5077
692.3793
684.5489
675.3236
665.1944
654.8183
644.9679
636.451
630.0079
626.2058
625.3464
627.4071
632.028
638.5489
646.0919
653.6785
660.3652
665.3799
668.2449
668.8662
667.5707
665.0695
662.3304
660.3613
659.9416
661.3771
664.3872
668.2117
671.9516
675.0339
677.603
680.6327
685.6101
693.7678
705.1305
710.2465
709.5416
709.2548
708.1012
706.4039
704.0856
701.3465
698.4016
695.5211
692.9822
691.0453
689.9233
689.7525
690.5685
692.2916
694.7289
697.5905
700.5187
703.122
705.008
705.8109
705.2152
702.9753
698.9395
693.0759
685.5015
676.5054
666.5573
656.291
646.4586
637.854
631.2153
627.1205
625.8954
627.5524
631.7726
637.9387
645.2138
652.6549
659.3459
664.5293
667.7208
668.7892
667.9852
665.907
663.3925
661.344
660.5119
661.2929
663.6187
667.0046
670.7802
674.4358
677.9325
681.7991
686.9132
694.0054
703.0484
712.828
721.1437
709.4101
707.6204
706.1542
703.9236
701.3781
698.6166
695.9105
693.4994
691.621
690.4716
690.1864
690.8171
692.3154
694.5287
697.2071
700.0237
702.6035
704.5551
705.5016
705.109
703.1117
699.3385
693.7406
686.4188
677.6449
667.8697
657.7077
647.8935
639.2094
632.3911
628.026
626.4615
627.7413
631.5847
637.4149
644.4337
651.7319
658.4184
663.7477
667.228
668.6933
668.3279
666.6337
664.339
662.2546
661.0995
661.3344
663.0565
666.007
669.7123
673.7269
677.8795
682.3862
687.734
694.3448
702.1637
710.3788
717.4494
721.5538
721.4333
706.8132
703.6245
701.4328
698.7852
696.2509
693.958
692.145
690.9848
690.6102
691.0819
692.3765
694.3757
696.8674
699.5579
702.0934
704.0894
705.1624
704.9621
703.2019
699.6892
694.3556
687.2837
678.7285
669.1236
659.0667
649.277
640.5263
633.5476
628.9357
627.0566
627.9824
631.4678
636.9746
643.7421
650.8941
657.563
663.014
666.7477
668.567
668.5985
667.2625
665.1948
663.1269
661.7435
661.5447
662.7493
665.2759
668.8202
673.0148
677.6135
682.6073
688.1921
694.5669
701.6456
708.8425
715.083
719.0889
719.8655
717.2187
712.019
702.6269
698.7562
696.6047
694.3667
692.6292
691.467
691.0246
691.3625
692.4766
694.277
696.5855
699.1407
701.613
703.6299
704.8064
704.7797
703.2438
699.9843
694.9113
688.0885
679.7531
670.3222
660.3774
650.624
641.8231
634.7042
629.8674
627.6945
628.2833
631.4219
636.6096
643.1231
650.1181
656.7509
662.2967
666.249
668.3831
668.7754
667.777
665.9454
663.9434
662.4204
661.8971
662.6781
664.817
668.1504
672.3955
677.279
682.6413
688.4549
694.727
701.3205
707.7914
713.3642
717.112
718.2962
716.7305
713.0103
708.4779
704.8123
698.0701
694.5749
693.1345
691.9254
691.4372
691.661
692.6175
694.236
696.3685
698.7834
701.1765
703.1908
704.4448
704.568
703.2383
700.2208
695.4042
688.8316
680.7216
671.474
661.6541
651.9529
643.1205
635.8811
630.8386
628.388
628.6511
631.4481
636.3152
642.5664
649.3903
655.9664
661.5801
665.7184
668.1313
668.8509
668.1688
666.5758
664.6749
663.081
662.3226
662.7627
664.5559
667.6532
671.8548
676.8948
682.5244
688.5547
694.8288
701.1316
707.0874
712.1243
715.5724
716.8907
715.9384
713.1596
709.5892
706.6597
705.8475
708.2321
694.5111
692.2433
691.8977
691.9797
692.8002
694.2508
696.2145
698.4857
700.7853
702.7742
704.0791
704.3265
703.1824
700.394
695.8292
689.5102
681.6351
672.585
662.9076
653.2779
644.434
637.0934
631.8616
629.1459
629.0905
631.5472
636.0893
642.0686
648.707
655.2075
660.8658
665.1626
667.8239
668.8419
668.4556
667.0978
665.3194
663.7024
662.7745
662.9373
664.4198
667.2639
671.3465
676.4297
682.2225
688.4299
694.7667
700.9313
706.5597
711.2044
714.3848
715.7267
715.1518
713.0297
710.2034
707.857
707.2607
709.4736
715.0854
724.0745
692.8726
692.2554
693.0596
694.3179
696.1193
698.2413
700.4327
702.3737
703.7022
704.0469
703.0664
700.4933
696.1761
690.1154
682.4878
673.6529
664.1387
654.6024
645.7677
638.3444
632.9383
629.9678
629.599
631.7154
635.9278
641.6266
648.0677
654.4781
660.1633
664.5976
667.4844
668.7786
668.6715
667.5445
665.9026
664.2967
663.2486
663.1845
664.3869
666.9689
670.8748
675.9049
681.7578
688.077
694.4859
700.6047
706.0491
710.4343
713.4089
714.7374
714.4187
712.7936
710.5771
708.7698
708.4604
710.5756
715.6497
723.6666
734.0236
745.6628
693.4447
694.4402
696.1079
698.047
700.1166
701.9849
703.3089
703.7228
702.8822
700.5086
696.4332
690.6352
683.2678
674.6669
665.3376
655.9167
647.1119
639.6233
634.0563
630.8399
630.1621
631.9385
635.8181
641.2308
647.4669
653.7778
659.4786
664.0372
667.1346
668.6901
668.8509
667.9524
666.4579
664.8899
663.761
663.5126
664.4657
666.7883
670.4818
675.388
681.2151
687.5774
694.0403
700.1608
705.521
709.7566
712.5925
713.8955
713.7427
712.4832
710.7556
709.4234
709.4214
711.5481
716.2632
723.5464
732.8459
743.134
753.092
761.4257
695.89
697.9783
699.8602
701.6146
702.9082
703.3601
702.6337
700.4411
696.5985
691.0641
683.9666
675.6156
666.4907
657.2053
648.4487
640.9099
635.1932
631.7378
630.7545
632.1913
635.7365
640.86
646.8874
653.0943
658.8055
663.482
666.7823
668.5912
669.0144
668.3444
667.007
665.498
664.32
663.9231
664.6564
666.7303
670.1942
674.9308
680.6693
687.0179
693.5096
699.6571
705.0068
709.1894
711.9639
713.2602
713.2166
712.2061
710.8304
709.86
710.1105
712.2716
716.7328
723.4612
731.9684
741.3743
750.5631
758.4218
764.1151
767.3059
699.2544
701.3952
702.5274
702.9807
702.3434
700.3083
696.6859
691.4112
684.5881
676.4981
667.5921
658.4579
649.7638
642.1863
636.3278
632.6381
631.3507
632.4471
635.6558
640.4875
646.3034
652.4038
658.1227
662.914
666.4138
668.4729
669.1567
668.717
667.5447
666.1112
664.9082
664.3912
664.93
666.7689
669.9976
674.537
680.144
686.435
692.9311
699.1175
704.5103
708.7224
711.5185
712.8568
712.9122
712.0789
710.9432
710.2173
710.6312
712.7902
717.0299
723.3121
731.2013
739.9375
748.5877
756.243
762.2316
766.2892
768.6003
769.654
702.0083
702.7192
702.0472
700.1444
696.7262
691.7005
685.1516
677.3279
668.6504
659.6782
651.057
643.4491
637.4543
633.5327
631.9409
632.6946
635.5629
640.0983
645.6979
651.6869
657.4088
662.3104
666.0052
668.3104
669.252
669.043
668.0409
666.6939
665.4832
664.8674
665.2328
666.8509
669.8455
674.1734
679.6209
685.8223
692.3005
698.5275
703.9972
708.3005
711.1907
712.6286
712.8021
712.1157
711.1481
710.5782
711.0802
713.2003
717.2356
723.1483
730.5491
738.7682
746.9994
754.4781
760.6368
765.2023
768.204
769.8617
770.3693
769.7462
702.2838
699.9899
696.7689
691.9671
685.6871
678.1282
669.6849
660.8823
652.3422
644.7111
638.5853
634.4346
632.5389
632.9481
635.4722
639.7055
645.0818
650.9512
656.6673
661.6696
665.5499
668.0923
669.2844
669.3012
668.4686
667.2127
666.0045
665.3047
665.513
666.9239
669.6908
673.8024
679.0751
685.1657
691.6076
697.8702
703.433
707.8661
710.9025
712.4887
712.8063
712.2568
711.4118
710.9315
711.4601
713.5104
717.3588
722.9736
730.0043
737.8462
745.7721
753.095
759.3046
764.1293
767.5041
769.4656
770.0109
768.9764
766.0593
761.1219
698.4168
692.0486
686.2674
678.9209
670.7173
662.087
653.6359
645.9897
639.7407
635.3673
633.1723
633.2391
635.4183
639.3463
644.493
650.2341
655.9332
661.0237
665.0762
667.8425
669.2728
669.5057
668.8364
667.67
666.4679
665.6925
665.7554
666.9709
669.5185
673.4156
678.5072
684.4738
690.8649
697.1541
702.8132
707.3946
710.6076
712.375
712.8582
712.4436
711.6912
711.2494
711.7493
713.6929
717.3545
722.718
729.4685
737.0503
744.7843
752.0155
758.2423
763.1765
766.7092
768.8059
769.3965
768.33
765.4442
760.778
754.902
749.1287
689.655
679.2699
671.8555
663.2893
654.9475
647.2911
640.9298
636.3443
633.8597
633.5918
635.4313
639.0553
643.9702
649.5768
655.2497
660.4168
664.6283
667.6051
669.2611
669.6994
669.1855
668.1046
666.9089
666.0625
665.9877
667.017
669.3531
673.0395
677.9475
683.7817
690.1095
696.4134
702.1627
706.8959
710.2989
712.266
712.9301
712.6532
711.9769
711.5389
711.9661
713.7642
717.2216
722.3478
728.8645
736.2564
743.8754
751.0754
757.3365
762.3341
765.9245
768.0582
768.6768
767.6769
764.9971
760.821
755.8205
751.3318
749.281
751.5837
676.7159
663.7987
656.4256
648.5832
642.149
637.3566
634.5959
634.0046
635.5133
638.8388
643.5232
648.9926
654.633
659.8677
664.2281
667.4054
669.2782
669.915
669.5524
668.5557
667.3683
666.4555
666.2498
667.1006
669.2317
672.7106
677.4333
683.1276
689.3798
695.684
701.5114
706.3902
709.9851
712.1611
713.018
712.8867
712.2845
711.8352
712.1643
713.789
717.0213
721.9051
728.2019
735.4333
742.9738
750.1748
756.4866
761.5379
765.1475
767.266
767.8863
766.9919
764.6089
760.9704
756.7214
753.0301
751.482
753.6886
760.6311
771.9564
661.8584
649.0496
643.5781
638.3507
635.3683
634.4539
635.642
638.674
643.1292
648.4586
654.0603
659.3546
663.8553
667.2253
669.3096
670.1425
669.932
669.0235
667.8508
666.8799
666.5525
667.2337
669.1671
672.4426
676.9792
682.5271
688.6922
694.9821
700.8726
705.8858
709.6684
712.0569
713.1167
713.1435
712.6253
712.1678
712.3934
713.8329
716.8269
721.4591
727.5346
734.6125
742.0872
749.3041
755.6789
760.7894
764.4112
766.4902
767.0733
766.2479
764.1461
761.0432
757.5108
754.5165
753.3394
755.2371
760.923
770.0268
780.8119
790.5563
648.3243
638.5911
636.3646
634.8859
635.808
638.5352
642.7604
647.9425
653.4956
658.8375
663.467
667.0204
669.3101
670.3375
670.2818
669.468
668.3194
667.3015
666.8643
667.3871
669.1323
672.2108
676.5638
681.9631
688.0339
694.2985
700.2398
705.3767
709.3409
711.9429
713.2136
713.412
712.9931
712.5404
712.6701
713.925
716.6757
721.0482
726.8947
733.8144
741.2243
748.4646
754.9178
760.11
763.7683
765.8221
766.3564
765.5507
763.6478
760.9859
758.0846
755.72
754.8862
756.5617
761.302
768.8121
777.7269
785.7914
790.5351
790.3395
639.3008
634.8561
636.1765
638.396
642.4273
647.4372
652.928
658.2995
663.0406
666.7625
669.247
670.4633
670.562
669.847
668.7301
667.6751
667.1387
667.5139
669.0806
671.9702
676.1451
681.3981
687.3734
693.6086
699.5947
704.8494
708.9917
711.8082
713.2968
713.6789
713.3747
712.9419
712.987
714.0625
716.5674
720.671
726.2749
733.0225
740.3575
747.6208
754.167
759.473
763.2143
765.292
765.8077
765.0092
763.2357
760.8981
758.5009
756.6769
756.1699
757.697
761.6761
767.9015
775.351
782.3121
786.9016
787.8591
785.3068
780.9826
636.7893
638.2237
642.2415
646.9606
652.3944
657.7639
662.596
666.4658
669.1293
670.5236
670.7712
670.1544
669.0721
667.9854
667.3566
667.591
668.9861
671.6929
675.6949
680.8055
686.6877
692.8938
698.9236
704.2944
708.6142
711.6473
713.3596
713.9355
713.759
713.3601
713.3326
714.2349
716.4924
720.3168
725.6601
732.2132
739.4524
746.7268
753.3706
758.8172
762.6908
764.8541
765.4059
764.6352
762.9557
760.8479
758.829
757.4434
757.2436
758.7153
762.1207
767.2946
773.4987
779.4793
783.8264
785.5812
784.8635
783.1981
783.2586
787.8748
640.8416
646.8632
651.9309
657.2837
662.1822
666.1728
668.9968
670.5546
670.9426
670.42
669.3722
668.256
667.5381
667.6356
668.8628
671.3905
675.2228
680.1938
685.9848
692.1626
698.2354
703.7207
708.2163
711.4654
713.4036
714.1789
714.1394
713.7862
713.6975
714.4351
716.4473
719.9857
725.0523
731.3875
738.505
745.7693
752.5032
758.1043
762.1474
764.4514
765.0951
764.3844
762.783
760.8306
759.0729
758.0125
758.0752
759.5664
762.5971
766.9838
772.1733
777.279
781.3051
783.5573
784.111
784.0932
785.5392
790.7481
801.3206
817.3101
649.4991
657.4261
661.7596
665.9432
668.8845
670.5913
671.109
670.6759
669.6624
668.519
667.716
667.6811
668.7446
671.097
674.7632
679.5973
685.2985
691.4478
697.5615
703.1569
707.8225
711.2816
713.4411
714.4148
714.5157
714.2157
714.0765
714.6601
716.4342
719.6872
724.4687
730.5685
737.5409
744.7723
751.5819
757.3395
761.5755
764.0614
764.844
764.2252
762.6951
760.8379
759.2332
758.3758
758.6212
760.1533
762.9595
766.8084
771.2425
775.6273
779.2978
781.8149
783.2669
784.474
786.9218
792.3185
801.854
815.4617
831.5073
847.2864
659.5024
666.3312
668.7072
670.6727
671.2749
670.9304
669.9496
668.7835
667.9019
667.7422
668.6499
670.8343
674.3407
679.0428
684.6574
690.7787
696.9303
702.6298
707.4563
711.1151
713.4863
714.6515
714.891
714.6483
714.4679
714.91
716.4583
719.4335
723.9295
729.7842
736.5939
743.7709
750.6387
756.5471
760.9875
763.6847
764.6449
764.1494
762.6942
760.8909
759.3514
758.5828
758.9137
760.4594
763.1223
766.6191
770.5287
774.3666
777.6999
780.3037
782.3326
784.4284
787.6688
793.283
802.1568
814.2856
828.4519
842.4043
853.6027
860.299
667.5397
671.1532
671.3621
671.1954
670.2151
669.0349
668.0807
667.8064
668.569
670.596
673.9518
678.5293
684.062
690.1565
696.3435
702.1401
707.1174
710.9637
713.5347
714.8829
715.2575
715.0758
714.8646
715.1805
716.5195
719.2306
723.4476
729.0537
735.6868
742.789
749.694
755.7398
760.3859
763.3128
764.4822
764.1428
762.7794
761.0144
759.4843
758.7183
759.0472
760.5596
763.1111
766.3783
769.9442
773.3994
776.451
779.0272
781.3621
784.0244
787.8439
793.7047
802.2202
813.3794
826.3148
839.3602
850.491
858.0428
861.3547
860.9385
671.5486
671.5599
670.4378
669.2719
668.2342
667.8572
668.4839
670.3643
673.5788
678.0389
683.4935
689.5611
695.7791
701.6645
706.7809
710.8013
713.5598
715.082
715.5891
715.4734
715.2443
715.4528
716.6039
719.0697
723.0193
728.3776
734.8233
741.8303
748.7484
754.9113
759.7543
762.9189
764.3214
764.1706
762.9266
761.2077
759.6647
758.8503
759.1143
760.5489
762.9953
766.1091
769.4655
772.6827
775.5359
778.042
780.4973
783.4524
787.6111
793.652
801.9943
812.5686
824.6801
837.0474
848.0579
856.1996
860.5197
860.8491
857.5819
851.1689
671.5378
669.3944
668.4158
667.8995
668.3983
670.1391
673.2184
677.5649
682.9414
688.9783
695.219
701.1809
706.4214
710.6002
713.532
715.2184
715.8552
715.8112
715.5783
715.7
716.6866
718.9288
722.6259
727.7405
733.9903
740.8828
747.7882
754.0434
759.0676
762.4691
764.1211
764.1883
763.0967
761.4472
759.8939
759.0087
759.1684
760.4882
762.8209
765.8208
769.0578
772.1528
774.901
777.354
779.8388
782.9044
787.2
793.3016
801.5191
811.7326
823.3145
835.1807
845.9779
854.361
859.2769
860.159
856.9294
849.7696
838.8194
824.1836
669.5471
667.8146
668.4128
669.9427
672.8993
677.1275
682.4215
688.4184
694.6684
700.6902
706.0359
710.3543
713.443
715.2825
716.0452
716.0776
715.8542
715.9092
716.7544
718.7947
722.2545
727.1302
733.177
739.9362
746.8028
753.1233
758.3082
761.9391
763.8496
764.159
763.2519
761.7018
760.1544
759.1944
759.2266
760.4005
762.5987
765.4934
768.6587
771.7099
774.4349
776.8816
779.3755
782.4583
786.7571
792.8091
800.8818
810.8362
822.0753
833.6038
844.1923
852.6003
857.7864
859.0483
856.0762
848.9386
838.0358
824.097
808.3319
792.616
668.6885
669.8148
672.7115
676.7622
681.9729
687.911
694.1534
700.2144
705.6439
710.0813
713.3098
715.2908
716.1756
716.2891
716.0882
716.0958
716.822
718.6812
721.9188
726.561
732.3979
739.0056
745.807
752.1634
757.4836
761.3293
763.4983
764.0649
763.3682
761.946
760.4259
759.3973
759.2899
760.2924
762.3294
765.1062
768.2131
771.2625
774.023
776.5149
779.0357
782.1049
786.3348
792.2552
800.1364
809.8553
820.8476
832.1645
842.6257
851.0261
856.3332
857.8218
855.1327
848.2956
837.7713
824.5265
810.1038
796.6409
786.7441
782.9149
671.6464
676.7678
681.6195
687.4931
693.7022
699.7758
705.2663
709.8014
713.1531
715.2658
716.2707
716.4724
716.3091
716.2906
716.9221
718.6231
721.6555
726.0717
731.6946
738.1348
744.8451
751.2068
756.6324
760.6702
763.0869
763.9138
763.4427
762.17
760.6977
759.6115
759.3615
760.1757
762.0268
764.6645
767.707
770.77
773.6014
776.1817
778.7625
781.8237
785.956
791.6916
799.3271
808.7832
819.5461
830.7107
841.1207
849.5693
855.0047
856.6858
854.2628
847.8018
837.8079
825.2808
811.7682
799.3085
790.1746
786.4151
789.2532
798.4693
679.3266
687.7033
693.2504
699.4024
704.9055
709.5166
712.9753
715.2111
716.3371
716.6371
716.53
716.5104
717.0752
718.6454
721.4946
725.6977
731.1078
737.3692
743.9663
750.3035
755.8027
760.0041
762.6487
763.728
763.4869
762.3777
760.9709
759.8419
759.4552
760.0753
761.7251
764.2047
767.169
770.2458
773.1651
775.8645
778.5388
781.6145
785.6487
791.1723
798.5144
807.656
818.1529
829.158
839.543
848.0911
853.7137
855.6333
853.4968
847.4132
837.9498
826.1249
813.4038
801.6359
792.8309
788.7319
790.2798
797.1769
807.7622
819.4195
690.3598
699.752
704.4319
709.2463
712.7548
715.1094
716.3565
716.7661
716.7358
716.7425
717.2717
718.7417
721.4341
725.442
730.646
736.7228
743.1891
749.475
755.0164
759.3507
762.1985
763.5159
763.5028
762.5665
761.2429
760.0912
759.584
760.0177
761.4632
763.7736
766.6462
769.728
772.7376
775.5718
778.365
781.4813
785.433
790.7393
797.7585
806.5357
816.7095
827.5084
837.8489
846.5145
852.3768
854.6037
852.8068
847.1052
838.1139
826.8872
814.8432
803.6612
795.0992
790.6813
791.2727
796.6949
805.5959
815.7143
824.4992
829.9529
701.7825
709.6111
712.3515
714.9822
716.3008
716.8373
716.9006
716.9602
717.4842
718.8847
721.4468
725.2785
730.2846
736.1728
742.4923
748.7014
754.2533
758.6881
761.7117
763.2494
763.4597
762.7057
761.4862
760.3395
759.7403
760.0098
761.2628
763.4036
766.1746
769.2478
772.3378
775.3065
778.2302
781.4079
785.2985
790.3992
797.0878
805.4701
815.2713
825.8092
836.0642
844.839
850.9753
853.5786
852.1968
846.9157
838.3592
827.6099
816.0799
805.3558
797.0116
792.3717
792.216
796.4874
804.1399
813.2777
821.6213
827.1363
828.5611
825.665
710.6112
715.2976
716.0751
716.8886
717.0124
717.1566
717.699
719.0571
721.5118
725.1827
729.996
735.6886
741.8423
747.9454
753.4726
757.9715
761.1392
762.8757
763.3023
762.7398
761.6486
760.5422
759.8904
760.0322
761.1188
763.1017
765.7678
768.8182
771.9704
775.0596
778.1107
781.3594
785.2082
790.1236
796.4924
804.4713
813.8699
824.1015
834.2264
843.0869
849.5126
852.5506
851.6686
846.8821
838.7789
828.4396
817.2815
806.8587
798.6489
793.8378
793.1058
796.4371
803.009
811.2519
819.1491
824.7375
826.628
824.3085
818.1205
808.9946
715.4626
717.2087
717.0483
717.3911
717.932
719.2781
721.6398
725.1604
729.7802
735.2648
741.2283
747.1908
752.6522
757.1728
760.4467
762.355
762.9863
762.6216
761.6829
760.6554
759.9973
760.0569
761.0142
762.861
765.4262
768.4418
771.6342
774.8208
777.9841
781.3023
785.1223
789.8744
795.9442
803.5283
812.5125
822.4054
832.3571
841.2678
847.9752
851.4816
851.1713
846.966
839.3778
829.448
818.5849
808.3382
800.1551
795.1564
793.9535
796.5238
802.1606
809.5331
816.8922
822.4273
824.7054
823.0429
817.6466
809.4756
799.9377
790.5328
717.2755
717.8294
718.2179
719.6173
721.8667
725.2493
729.6675
734.9278
740.6724
746.4558
751.8064
756.3021
759.6402
761.6886
762.5084
762.3441
761.5795
760.668
760.0506
760.0768
760.9461
762.6834
765.1555
768.1252
771.3333
774.5879
777.8386
781.2148
785.0112
789.6199
795.4165
802.6261
811.199
820.7341
830.4742
839.3909
846.3495
850.3254
850.6274
847.0733
840.0728
830.5924
820.0052
809.858
801.6055
796.3643
794.729
796.6733
801.5435
808.1464
814.9347
820.2823
822.8226
821.7777
817.1735
809.84
801.1801
792.8157
786.2574
782.6029
718.665
720.2101
722.2433
725.5069
729.693
734.7143
740.2076
745.7737
750.9684
755.3933
758.7539
760.9106
761.902
761.9391
761.3679
760.6076
760.0764
760.1167
760.9389
762.5933
764.9795
767.8905
771.0854
774.371
777.6748
781.0866
784.8552
789.3346
794.8848
801.7476
809.9262
819.0994
828.6011
837.4812
844.6478
849.0686
849.9905
847.1293
840.7775
831.7994
821.504
811.4206
803.0233
797.4648
795.374
796.7541
800.9923
806.9723
813.268
818.3954
821.0901
820.5722
816.7416
810.2369
802.3057
794.491
788.2282
784.5005
783.6505
785.3657
722.2679
726.1132
729.8851
734.6531
739.8508
745.1634
750.1589
754.4713
757.8168
760.0541
761.2034
761.4451
761.0877
760.514
760.1134
760.2143
761.0294
762.6266
764.9327
767.7699
770.9186
774.192
777.5053
780.9193
784.645
789.0007
794.3274
800.8748
808.6861
817.5087
826.7606
835.5718
842.9038
847.7321
849.2587
847.1061
841.4462
833.0231
823.0563
813.0354
804.4478
798.4999
795.8924
796.6981
800.3646
805.834
811.7495
816.7092
819.5244
819.4444
816.3123
810.6152
803.4
796.0407
789.8878
785.8894
784.3242
784.7545
786.2087
787.5516
729.1062
734.9946
739.5988
744.628
749.3761
753.5363
756.8331
759.1283
760.4261
760.8788
760.7576
760.4064
760.1812
760.3891
761.2372
762.8033
765.0362
767.7853
770.8546
774.0705
777.3454
780.7218
784.3811
788.6114
793.7328
799.9963
807.4738
815.9687
824.9741
833.6968
841.1569
846.3509
848.4514
847.0015
842.0566
834.2334
824.643
814.7122
805.9256
799.5431
796.3564
796.5406
799.634
804.6464
810.2691
815.1377
818.0935
818.3973
815.8613
810.8781
804.337
797.43
791.3705
787.0751
784.8982
784.5286
785.1263
785.6659
785.3326
783.7872
738.0262
744.4728
748.6049
752.5866
755.7985
758.127
759.5652
760.2358
760.3725
760.2781
760.2707
760.6299
761.5497
763.111
765.2795
767.9291
770.8896
774.0059
777.1965
780.495
784.0629
788.163
793.0956
799.1075
806.2893
814.4888
823.2626
831.8884
839.446
844.9614
847.5926
846.8186
842.5891
835.3943
826.2264
816.4309
807.4697
800.6444
796.8412
796.3568
798.8473
803.4125
808.7944
813.6435
816.7915
817.4735
815.4589
811.0701
805.0907
798.581
792.6316
788.1013
785.3995
784.3814
784.4186
784.6578
784.3925
783.3663
781.8216
780.2388
746.5754
751.9544
754.7094
757.0663
758.6283
759.5157
759.9269
760.1171
760.3632
760.9115
761.9366
763.5165
765.6286
768.1696
770.9958
773.9753
777.0402
780.2246
783.6781
787.6442
792.4053
798.1997
805.1287
813.0724
821.6395
830.17
837.8011
843.594
846.704
846.5616
843.0253
836.4663