/*--------------------------------*- C++ -*----------------------------------*\
| =========                 |                                                 |
| \\      /  F ield         | OpenFOAM: The Open Source CFD Toolbox           |
|  \\    /   O peration     | Version:  2312                                  |
|   \\  /    A nd           | Website:  www.openfoam.com                      |
|    \\/     M anipulation  |                                                 |
\*---------------------------------------------------------------------------*/
FoamFile
{
    version     2.0;
    format      ascii;
    arch        "LSB;label=32;scalar=64";
    class       volScalarField;
    location    "5400";
    object      ILambda_9_0;
}
// * * * * * * * * * * * * * * * * * * * * * * * * * * * * * * * * * * * * * //

dimensions      [1 0 -3 0 0 0 0];

internalField   nonuniform List<scalar> 
12000
(
775.1498
768.3213
765.8887
763.2165
761.2993
759.8171
758.7257
757.9332
757.3681
756.9605
756.6315
756.277
755.7576
754.898
753.5021
751.3811
748.3933
744.4858
739.7266
734.3189
728.5876
722.9376
717.7893
713.501
710.2965
708.2133
707.0849
706.5645
706.1862
705.4528
703.9316
701.3367
697.5807
692.7854
687.2496
681.3865
675.6456
670.44
666.0953
662.8254
660.7319
659.8144
659.9743
661.0028
662.5587
664.1555
665.1871
665.0148
663.1101
659.2173
653.4699
646.4048
638.8566
631.7778
626.0511
622.3314
620.9185
621.6842
624.1171
627.4862
789.4954
780.5991
776.4878
772.1559
768.6635
765.7627
763.4192
761.5456
760.0758
758.967
758.2008
757.7667
757.6363
757.7329
757.909
757.9379
757.529
756.3667
754.1692
750.7555
746.1033
740.384
733.9606
727.3437
721.1097
715.7972
711.8004
709.2864
708.1537
708.0456
708.4159
708.6344
708.1087
706.3957
703.278
698.7894
693.1888
686.8926
680.3881
674.1529
668.6004
664.0594
660.7789
658.9359
658.6205
659.7835
662.1577
665.1932
668.0624
669.779
669.4252
666.4189
660.7112
652.8298
643.7624
634.7463
627.0261
621.6005
619.005
619.2019
799.7116
790.1411
785.0662
779.756
775.2857
771.493
768.3675
765.8019
763.6771
761.8834
760.3485
759.049
758.0045
757.2539
756.8184
756.6627
756.6634
756.5993
756.1677
755.0306
752.8813
749.5193
744.9146
739.243
732.8798
726.3485
720.2298
715.0517
711.1815
708.7474
707.6084
707.3808
707.5163
707.4142
706.5417
704.5334
701.2495
696.7802
691.401
685.4962
679.4755
673.7103
668.5079
664.1219
660.7829
658.7139
658.0999
658.9975
661.2116
664.1989
667.077
668.7822
668.3472
665.1935
659.3199
651.3264
642.2855
633.4928
626.1387
620.9928
811.9672
802.2876
796.3147
789.8679
784.084
778.982
774.6885
771.1812
768.3634
766.0834
764.1789
762.516
761.0199
759.6845
758.561
757.7239
757.2238
757.0398
757.0437
756.9917
756.5483
755.3438
753.0532
749.4803
744.6253
738.7151
732.1857
725.6128
719.606
714.6857
711.1733
709.1212
708.3
708.2467
708.3648
708.0501
706.8129
704.3681
700.6727
695.9047
690.3949
684.5358
678.6966
673.1747
668.1968
663.962
660.6962
658.6713
658.1493
659.2456
661.7588
665.0593
668.1273
669.7722
668.9646
665.1609
658.5114
649.8683
640.5206
631.6905
823.2338
815.1484
809.1578
802.2149
795.3818
788.8869
783.0609
778.0809
774.009
770.7845
768.2543
766.2164
764.4714
762.8701
761.3456
759.9206
758.6865
757.7584
757.2165
757.0489
757.1135
757.1324
756.7269
755.4875
753.0675
749.2765
744.1498
737.9725
731.2465
724.6036
718.6818
713.9923
710.809
709.109
708.5785
708.6833
708.7874
708.2895
706.7455
703.9461
699.9344
694.9622
689.4004
683.6352
677.9838
672.6621
667.8167
663.6036
660.2695
658.17
657.6791
658.9931
661.9063
665.6817
669.1133
670.8003
669.5729
664.9574
657.4624
648.4021
830.9831
826.4668
821.8175
815.7095
808.8536
801.6148
794.4766
787.8429
782.0252
777.1965
773.3801
770.4628
768.2327
766.4358
764.8381
763.28
761.7089
760.182
758.8347
757.8233
757.2538
757.1171
757.2494
757.3332
756.9441
755.6363
753.0496
749.0107
743.6012
737.1709
730.2883
723.6333
717.8589
713.4508
710.6219
709.2671
708.9902
709.1952
709.2204
708.4814
706.589
703.415
699.0903
693.9395
688.3714
682.7603
677.3603
672.2891
667.5944
663.3785
659.9136
657.6634
657.1528
658.7032
662.1337
666.5686
670.4801
672.0747
670.0174
664.1986
832.7274
833.1532
831.2061
827.586
822.3564
815.8522
808.5293
800.9015
793.484
786.7227
780.937
776.2817
772.7377
770.1344
768.1999
766.6297
765.1602
763.6277
762.0013
760.3772
758.9363
757.8723
757.3092
757.2305
757.4409
757.577
757.1682
755.7392
752.9289
748.5959
742.8815
736.2079
729.2079
722.6
717.0364
712.9615
710.5161
709.5097
709.468
709.7426
709.6548
708.6425
706.3728
702.7982
698.1401
692.8037
687.2457
681.8336
676.7502
671.9904
667.47
663.2103
659.508
656.9755
656.3802
658.2827
662.5666
668.0634
672.6197
673.938
827.8214
832.9869
834.3779
834.4254
832.433
828.52
822.8832
815.915
808.1319
800.116
792.4361
785.5702
779.8413
775.3795
772.118
769.8255
768.1702
766.8018
765.4338
763.9074
762.2204
760.5125
759.0086
757.9335
757.4183
757.4265
757.7211
757.8876
757.4125
755.8013
752.708
748.0398
742.0094
735.1144
728.0459
721.5462
716.2501
712.5471
710.5005
709.8379
710.016
710.3423
710.1247
708.8191
706.1422
702.1249
697.0883
691.5395
686.0073
680.8647
676.2078
671.8631
667.5485
663.1472
658.9775
655.9058
655.1566
657.7302
663.5776
671.1099
818.2633
826.0972
830.2231
833.8664
835.7772
835.766
833.6237
829.3973
823.3388
815.8963
807.6561
799.2666
791.3482
784.4058
778.7596
774.5079
771.5308
769.5351
768.1318
766.9313
765.6342
764.0962
762.3514
760.5853
759.063
758.0295
757.6092
757.7313
758.1067
758.2679
757.6657
755.8019
752.3641
747.3252
740.9781
733.8943
726.8109
720.4771
715.4942
712.1893
710.55
710.2317
710.6325
711.0187
710.6768
709.0649
705.9356
701.3997
695.9012
690.0906
684.6109
679.8575
675.8116
672.047
667.9621
663.2057
658.1531
654.1594
653.2365
656.9963
808.112
815.4411
820.5639
826.2708
831.2387
835.0425
837.1137
837.0804
834.7574
830.2008
823.7089
815.7919
807.1073
798.3692
790.2451
783.2597
777.722
773.6914
770.9906
769.2645
768.0727
766.9962
765.7349
764.1705
762.3803
760.5955
759.1135
758.1857
757.9119
758.1718
758.616
758.7251
757.9262
755.7365
751.8975
746.4621
739.8077
732.5712
725.5199
719.3926
714.7468
711.8486
710.6213
710.6625
711.3185
711.8065
711.3682
709.436
705.7821
700.6076
694.5231
688.3867
683.0156
678.8493
675.7009
672.7474
668.8764
663.3823
656.7338
650.7663
801.5264
805.6186
809.6402
815.0331
820.92
826.8627
832.1767
836.2194
838.4119
838.3388
835.8115
830.9083
823.9769
815.5944
806.4901
797.4405
789.1536
782.1647
776.7616
772.9569
770.5128
769.0151
767.9805
766.9744
765.7102
764.1079
762.2939
760.5421
759.1705
758.4188
758.3432
758.7586
759.2498
759.2525
758.1861
755.6046
751.3223
745.4811
738.5392
731.1843
724.1955
718.2879
713.9754
711.4756
710.6682
711.1076
712.0863
712.749
712.2545
709.9737
705.6855
699.7059
692.874
686.3416
681.1779
677.8874
676.0262
674.1742
670.4853
663.7364
800.5155
800.5458
802.0714
805.1094
809.4891
815.0182
821.2167
827.4819
833.1056
837.3738
839.6598
839.5185
836.7608
831.495
824.1238
815.2947
805.808
796.4971
788.1013
781.1543
775.9117
772.3313
770.1129
768.7888
767.8452
766.8479
765.5409
763.8944
762.0874
760.4302
759.2454
758.74
758.9068
759.484
759.9902
759.828
758.4302
755.4085
750.664
744.428
737.2265
729.7783
722.8573
717.1512
713.1426
711.0256
710.6602
711.5664
712.967
713.8956
713.3817
710.7006
705.6332
698.6444
690.8742
683.8666
679.0321
676.9673
676.9487
677.0951
803.8052
801.3136
800.3841
800.4424
801.861
804.8405
809.3232
815.051
821.538
828.122
834.0348
838.5004
840.8441
840.5976
837.5791
831.9348
824.1291
814.8823
805.0633
795.5544
787.1136
780.2593
775.202
771.8374
769.803
768.586
767.6579
766.6044
765.2176
763.5284
761.769
760.2746
759.3527
759.1554
759.594
760.323
760.8016
760.4174
758.6391
755.1544
749.9557
743.354
735.922
728.3879
721.5105
715.9592
712.2118
710.4701
710.5937
712.0631
714.0006
715.2844
714.774
711.6254
705.6227
697.4102
688.4975
680.9147
676.4983
676.0452
807.6162
805.601
803.6276
801.8034
800.5438
800.3843
801.6749
804.6229
809.2025
815.1382
821.9098
828.7994
834.9744
839.5982
841.9532
841.5555
838.2406
832.2019
823.9723
814.3466
804.2574
794.6256
786.2126
779.505
774.655
771.4897
769.5873
768.4022
767.4102
766.2377
764.7421
763.023
761.361
760.1003
759.5107
759.6673
760.3866
761.2397
761.6406
760.9851
758.7993
754.8573
749.237
742.3078
734.6631
727.024
720.1377
714.6799
711.1581
709.8086
710.4939
712.6331
715.2119
716.9204
716.427
712.7567
705.6937
696.0766
685.7628
677.0253
807.9374
809.0972
808.0112
806.4347
804.2912
802.2157
800.7268
800.3578
801.5249
804.461
809.1516
815.3045
822.358
829.5348
835.9366
840.6689
842.9777
842.3739
838.7218
832.2731
823.6356
813.6792
803.3933
793.7231
785.4159
778.9088
774.2826
771.2916
769.4605
768.2269
767.0928
765.7469
764.1269
762.4039
760.8968
759.9387
759.7373
760.2719
761.258
762.1926
762.4659
761.5062
758.9134
754.5472
748.552
741.327
733.4633
725.6711
718.7066
713.2879
709.9837
709.0729
710.4027
713.2994
716.59
718.767
718.3007
714.0799
705.8798
694.5859
802.9034
808.0901
809.2252
809.7842
808.9634
807.221
804.9266
802.624
800.9072
800.3513
801.4181
804.3687
809.193
815.5761
822.9086
830.3495
836.9342
841.7146
843.9095
843.0368
839.0034
832.1306
823.1076
812.8775
802.477
792.8593
784.7373
778.4802
774.0859
771.2342
769.4068
768.044
766.697
765.1376
763.3937
761.7057
760.4147
759.8189
760.0419
760.9545
762.174
763.141
763.2476
761.9758
759.0051
754.2663
747.9411
740.4295
732.3086
724.2938
717.1867
711.7834
708.7255
708.3171
710.3601
714.069
718.1031
720.7519
720.3325
715.7952
793.7697
801.6064
805.0004
808.2687
810.0959
810.6026
809.8088
807.9699
805.5109
802.9982
801.0725
800.3579
801.3586
804.3591
809.3473
815.9773
823.5853
831.2624
837.9782
842.7372
844.7418
843.5321
839.0722
831.7648
822.3853
811.9468
801.5202
792.0475
784.186
778.2195
774.054
771.2976
769.4032
767.8356
766.2187
764.4235
762.5734
760.9679
759.9504
759.7606
760.4203
761.6881
763.0956
764.0512
763.9734
762.4103
759.1128
754.0559
747.4255
739.6032
731.1614
722.8548
715.5692
710.1949
707.4344
707.5947
710.4174
714.9855
719.7923
723.1521
783.9246
791.7713
796.2956
801.3222
805.5563
808.8147
810.7982
811.3708
810.5719
808.643
806.0244
803.3167
801.2076
800.3703
801.3479
804.4425
809.6312
816.5281
824.4072
832.288
839.0761
843.7364
845.4688
843.8515
838.9221
831.1755
821.4766
810.9013
800.5396
791.3008
783.7659
778.1177
774.1654
771.4532
769.4231
767.5872
765.6622
763.6291
761.7037
760.2299
759.5314
759.7692
760.8544
762.4393
763.9898
764.9071
764.6535
762.8427
759.2756
753.9382
746.9961
738.8129
729.9836
721.3376
713.8624
708.5428
706.1471
706.9915
710.7268
716.3108
776.6752
782.2463
786.4202
791.4596
796.6126
801.5707
805.937
809.3238
811.4218
812.0563
811.2431
809.22
806.4459
803.5593
801.2967
800.3797
801.3858
804.6266
810.058
817.244
825.3879
833.4347
840.2296
844.7083
846.0837
843.9902
838.5543
830.3729
820.4
809.7643
799.5562
790.631
783.4736
778.1553
774.3893
771.668
769.4424
767.2928
765.0429
762.7867
760.8232
759.5227
759.1696
759.8347
761.3183
763.1804
764.8425
765.7174
765.317
763.3074
759.513
753.9067
746.628
738.0379
728.7716
719.7384
712.0436
706.8227
704.9541
706.6617
773.3387
775.8816
778.7818
782.4249
786.8086
791.6854
796.8096
801.8107
806.2735
809.7789
811.976
812.6552
811.8116
809.684
806.7553
803.7063
801.3247
800.3781
801.4723
804.9182
810.6386
818.1354
826.5339
834.7029
841.4329
845.6435
846.5785
843.9467
837.9782
829.3778
819.1845
808.5659
798.5928
790.0453
783.2977
778.3047
774.6904
771.9113
769.4463
766.9591
764.3864
761.9306
759.9607
758.858
758.8568
759.9352
761.7903
763.904
765.6672
766.5104
765.9902
763.8116
759.8105
753.9461
746.3344
737.315
727.5306
717.9903
710.0242
704.9284
772.8915
773.1943
774.8443
776.7675
779.5197
782.9825
787.1668
791.9254
797.0051
802.0399
806.5889
810.1961
812.4698
813.1672
812.2681
810.0192
806.9338
803.7406
801.2794
800.3609
801.6102
805.3253
811.3818
819.208
827.8444
836.084
842.6717
846.5271
846.9439
843.7234
837.2105
828.2197
817.8663
807.3392
797.6689
789.5437
783.2184
778.5339
775.037
772.1647
769.4376
766.6084
763.724
761.0855
759.1222
758.2209
758.5668
760.0503
762.2711
764.6344
766.4974
767.3034
766.6543
764.3091
760.1419
754.1001
746.2078
736.6741
726.1132
715.6765
773.2866
772.6381
773.6603
774.5199
775.919
777.7925
780.3097
783.5559
787.5476
792.1824
797.2191
802.2835
806.907
810.594
812.913
813.5926
812.6043
810.2111
806.9657
803.6491
801.1543
800.3289
801.8065
805.8574
812.2952
820.4628
829.3109
837.5608
843.9246
847.3402
847.171
843.327
836.2748
826.9344
816.4833
806.1125
796.7943
789.1143
783.2082
778.8126
775.4114
772.4332
769.4432
766.2775
763.0831
760.2542
758.2831
757.5734
758.2732
760.1875
762.8046
765.4269
767.3552
768.0504
767.2104
764.7303
760.5546
754.5105
746.3142
735.9008
773.3606
772.3178
773.1747
773.8002
774.7146
775.7731
777.0922
778.8154
781.1165
784.1411
787.9503
792.4721
797.474
802.5678
807.2523
810.9913
813.3156
813.9316
812.8122
810.2477
806.8388
803.4245
800.949
800.2891
802.0728
806.5262
813.3849
821.896
830.9185
839.11
845.1662
848.0637
847.2555
842.7713
835.2008
825.5589
815.0672
804.9005
795.9606
788.7297
783.234
779.1205
775.8202
772.7521
769.5135
766.007
762.4715
759.4039
757.3874
756.8731
757.9839
760.4161
763.4894
766.3403
768.1946
768.6068
767.5256
765.0902
761.2409
755.5145
773.8726
771.7876
772.2235
772.7619
773.7082
774.7777
775.8797
777.0078
778.2608
779.822
781.9128
784.7302
788.3782
792.8094
797.7926
802.9184
807.6488
811.4056
813.6864
814.1843
812.8854
810.1196
806.5459
803.0649
800.669
800.2532
802.4235
807.3428
814.6534
823.4982
832.6464
840.7048
846.372
848.6853
847.203
842.0809
834.0244
824.1275
813.6362
803.6955
795.1355
788.3466
783.2636
779.4568
776.3017
773.1863
769.7091
765.8187
761.8539
758.4568
756.3611
756.1071
757.7794
760.8837
764.4508
767.3759
768.8735
768.7995
767.5714
765.6737
776.8928
772.5516
771.6842
771.3628
771.9145
772.9997
774.3526
775.7431
777.0324
778.2068
779.383
780.7826
782.6773
785.3141
788.8345
793.2082
798.1961
803.3595
808.1182
811.8528
814.0334
814.3509
812.8189
809.8211
806.0844
802.5742
800.3252
800.2365
802.8727
808.3147
816.0965
825.2523
834.4688
842.3182
847.5247
849.2058
847.0359
841.2943
832.7875
822.6674
812.1887
802.4632
794.2638
787.9135
783.2777
779.8515
776.9283
773.8174
770.0744
765.6851
761.1338
757.2966
755.1449
755.3331
757.8273
761.7767
765.7744
768.4721
769.2496
768.4906
783.9905
776.8781
773.899
771.6036
770.6164
770.7337
771.7213
773.2574
775.0075
776.6904
778.1389
779.337
780.4253
781.6684
783.3897
785.8833
789.3216
793.6809
798.7034
803.9119
808.6792
812.3457
814.3625
814.4317
812.6108
809.352
805.4593
801.9638
799.9335
800.255
803.4308
809.4402
817.6984
827.1307
836.3536
843.9255
848.618
849.6441
846.7962
840.4643
831.5337
821.1934
810.6996
801.1453
793.2779
787.3888
783.2885
780.3751
777.7991
774.7186
770.6048
765.5082
760.1614
755.8069
753.7368
754.679
758.3173
763.2571
767.5813
769.81
794.5589
785.7849
780.7683
776.0293
772.5453
770.4131
769.67
770.158
771.5791
773.5467
775.6638
777.6029
779.1747
780.3691
781.3578
782.4535
784.0319
786.4297
789.8413
794.2375
799.3293
804.5909
809.3442
812.8922
814.6771
814.4281
812.2639
808.7199
804.6851
801.2538
799.5155
800.3246
804.101
810.7059
819.4291
829.0939
838.2637
845.5062
849.659
850.0374
846.5422
839.6504
830.2995
819.7005
809.1202
799.6689
792.1183
786.764
783.3568
781.137
779.0166
775.9208
771.2259
765.1361
758.7859
753.9176
752.1699
754.2575
759.479
765.9563
805.5384
797.6749
791.8904
785.5583
779.7451
774.8572
771.3007
769.2786
768.7972
769.6584
771.502
773.8748
776.32
778.4697
780.1211
781.2797
782.1567
783.1177
784.5902
786.9477
790.3952
794.8844
800.0817
805.403
810.1161
813.4917
814.9757
814.3417
811.787
807.9432
803.7888
800.4755
799.0986
800.4606
804.8788
812.0854
821.2452
831.093
840.1609
847.0475
850.6687
850.4368
846.338
838.9042
829.0994
818.1554
807.3814
797.964
790.7578
786.0847
783.5921
782.2605
780.6494
777.3949
771.8281
764.441
756.9126
751.5695
750.4203
754.1708
812.8626
808.6774
804.1226
798.2043
791.6366
784.9516
778.7891
773.701
770.1067
768.2194
768.0182
769.2559
771.5072
774.2519
776.9777
779.284
780.9653
782.0531
782.807
783.6495
785.0584
787.4361
790.9854
795.624
800.96
806.3428
810.9851
814.1331
815.2508
814.1738
811.1947
807.0507
802.8098
799.6702
798.7158
800.6765
805.7527
813.5431
823.0966
833.079
842.015
848.551
851.6821
850.8985
846.2375
838.2503
827.9117
816.4937
805.4065
795.9865
789.2221
785.4478
784.1204
783.8367
782.7168
779.1088
772.3692
763.3608
754.3454
748.085
813.7674
814.6089
812.9892
809.6722
804.6883
798.4042
791.3881
784.2982
777.8208
772.5643
768.9717
767.2528
767.3537
768.9708
771.6109
774.6878
777.6395
780.0426
781.7004
782.6822
783.304
784.0487
785.4405
787.9008
791.6162
796.455
801.9546
807.3919
811.9272
814.7927
815.4868
813.9245
810.5062
806.0795
801.7955
798.8848
798.3997
800.9815
806.705
815.0402
824.9374
835.0171
843.8172
850.0398
852.7464
851.4729
846.2671
837.671
826.6733
814.6327
803.1359
793.7395
787.5819
784.9534
785.0182
785.9064
785.2606
781.1128
772.7855
761.3412
808.534
813.3782
815.138
815.57
814.0438
810.523
805.2047
798.5107
791.0598
783.5839
776.8295
771.4501
767.9062
766.3952
766.8214
768.819
771.8245
775.1883
778.3061
780.7431
782.3242
783.1681
783.6546
784.3278
785.7525
788.3569
792.296
797.3742
803.0484
808.521
812.9064
815.437
815.6626
813.5925
809.7429
805.0693
800.7939
798.161
798.1739
801.3737
807.7114
816.5419
826.7392
836.9012
845.5915
851.5616
853.9129
852.1884
846.4114
837.1045
825.2999
812.5073
800.5595
791.2637
785.883
784.6133
786.2955
788.5536
788.4592
783.6924
800.5483
806.3482
810.3461
813.9146
816.176
816.644
815.0299
811.2783
805.6088
798.4978
790.6272
782.7967
775.8117
770.3632
766.9213
765.6603
766.4346
768.8102
772.1521
775.7519
778.9727
781.381
782.8366
783.5184
783.8758
784.5117
786.0225
788.8289
793.0386
798.3789
804.2205
809.6943
813.8806
816.0289
815.7569
813.179
808.9279
804.0571
799.8424
797.5231
798.0401
801.8333
808.7411
818.0243
828.5027
838.7649
847.3971
853.179
855.2188
853.0342
846.6117
836.4735
823.7426
810.1263
797.7147
788.5509
784.0451
784.3837
788.1564
792.5988
794.5857
797.7785
801.823
806.394
810.9609
814.7649
817.1757
817.6662
815.9254
811.9105
805.8739
798.3464
790.0765
781.9309
774.769
769.312
766.0286
765.0602
766.2018
768.9465
772.5888
776.3683
779.627
781.9469
783.2366
783.7446
783.9916
784.6342
786.2876
789.3482
793.8609
799.4665
805.4485
810.8757
814.8108
816.5384
815.7584
812.6942
808.0872
803.0723
798.9588
796.9658
797.9695
802.3192
809.7615
819.4849
830.2664
840.6801
849.3121
854.9392
856.653
853.9451
846.7935
835.7613
822.0717
807.5807
794.588
785.4533
781.9648
784.5145
794.2979
792.6315
794.5866
797.587
801.8929
806.783
811.6091
815.6283
818.1484
818.6166
816.7104
812.4018
805.9829
798.0436
789.4011
780.9871
773.7091
768.3088
765.242
764.6056
766.127
769.2232
773.1212
777.0179
780.2486
782.4265
783.5218
783.8593
784.0297
784.7331
786.587
789.9459
794.778
800.6321
806.7105
812.0351
815.6706
816.9546
815.6766
812.1645
807.252
802.1332
798.1337
796.4485
797.9013
802.7754
810.7509
820.9549
832.1099
842.741
851.3946
856.823
858.1205
854.8174
846.9494
835.1064
820.4762
804.9112
790.9233
781.2137
800.3443
793.9923
792.833
792.5666
794.2778
797.5642
802.0823
807.2372
812.3036
816.4983
819.0858
819.4862
817.3728
812.7395
805.9248
797.5829
788.601
779.9726
772.6455
767.3703
764.5772
764.3067
766.2111
769.6299
773.7288
777.6748
780.8126
782.8027
783.6888
783.8756
784.0178
784.8437
786.9543
790.6443
795.7945
801.8629
807.9833
813.1509
816.4534
817.2935
815.5493
811.6369
806.4576
801.243
797.3281
795.8978
797.7549
803.1529
811.7234
822.5167
834.1489
845.0303
853.626
858.6942
859.447
855.5866
847.2177
834.7567
819.0389
801.5901
810.2078
801.5699
797.8075
794.2635
792.4405
792.3686
794.154
797.6218
802.3655
807.7639
813.0446
817.377
819.9857
820.2692
817.9037
812.9139
805.6923
796.9623
787.6813
778.8999
771.5962
766.5165
764.0512
764.1727
766.4519
770.1525
774.388
778.3111
781.2941
783.0611
783.7385
783.81
783.9828
784.9951
787.4101
791.4476
796.8963
803.1321
809.2397
814.2112
817.1747
817.6006
815.4411
811.1723
805.7345
800.3824
796.4718
795.2171
797.4529
803.4401
812.7566
824.3127
836.515
847.5698
855.8663
860.3127
860.4554
856.2786
847.8399
835.1959
819.7206
812.0799
807.3599
802.0865
797.5503
794.1193
792.2497
792.2259
794.1247
797.7739
802.7426
808.3711
813.839
818.2682
820.8475
820.9603
818.2954
812.9171
805.2809
796.1832
786.651
777.785
770.5819
765.7682
763.6797
764.2097
766.8435
770.7733
775.0737
778.9011
781.6749
783.1971
783.682
783.6862
783.9529
785.2085
787.959
792.3385
798.0476
804.3977
810.4497
815.2151
817.871
817.9445
815.4313
810.8298
805.092
799.4979
795.4644
794.3034
796.9478
803.6903
814.0032
826.5281
839.3136
850.2998
857.9093
861.4497
861.0516
857.2339
825.3262
821.187
817.3456
812.5196
807.2656
802.0654
797.4556
793.9836
792.1122
792.15
794.182
798.0259
803.2225
809.0689
814.6948
819.1761
821.6704
821.5547
818.5405
812.7431
804.6884
795.2502
785.5224
776.6467
769.6239
765.1445
763.4741
764.4175
767.3731
771.4701
775.7602
779.4243
781.9471
783.22
783.5447
783.5381
783.9587
785.4981
788.5896
793.2799
799.1959
805.6104
811.5886
816.1778
818.5994
818.4077
815.5965
810.6443
804.4998
798.4965
794.1855
793.0687
796.2435
804.0217
815.6546
829.3391
842.631
853.2066
859.6562
861.8977
825.7277
825.7858
823.9472
821.2288
817.2921
812.5197
807.2562
802.0125
797.3558
793.8577
792.0091
792.1365
794.3281
798.3855
803.8154
809.8673
815.6193
820.1032
822.4521
822.0464
818.6323
812.3872
803.9161
794.1721
784.3116
775.5059
768.7432
764.6605
763.4389
764.787
768.0193
772.2146
776.4212
779.8655
782.1143
783.1537
783.3655
783.408
784.0303
785.8691
789.2767
794.2222
800.284
806.7288
812.6514
817.1397
819.4358
819.0736
815.9906
810.61
803.8839
797.2609
792.5262
791.4683
795.3844
804.5458
817.8524
832.9267
846.7624
856.7934
822.0343
825.285
825.5046
825.3482
823.8169
821.1039
817.2401
812.4769
807.1977
801.9171
797.2274
793.7272
791.9326
792.1842
794.5672
798.8609
804.5309
810.7745
816.617
821.0494
823.1881
822.4285
818.5646
811.8478
802.9694
792.9629
783.0396
774.3861
767.9602
764.3271
763.5704
765.2994
768.752
772.9732
777.0305
780.2162
782.1905
783.0329
783.19
783.3367
784.1882
786.3112
789.9805
795.1095
801.2632
807.7356
813.6663
818.1701
820.4659
820.0078
816.6263
810.6757
803.1513
795.7017
790.4392
789.4925
794.3578
805.2549
820.794
838.2707
816.5262
821.2695
822.8479
824.6051
825.3281
825.0721
823.6298
820.959
817.1299
812.3713
807.0723
801.7617
797.0565
793.5826
791.8783
792.2938
794.9048
799.4598
805.3766
811.7956
817.6886
822.0105
823.8705
822.6923
818.3317
811.126
801.8588
791.642
781.7318
773.3134
767.294
764.1499
763.8579
765.9287
769.5363
773.7132
777.5686
780.4781
782.2007
782.8991
783.0617
783.3525
784.4316
786.7913
790.6453
795.8866
802.1053
808.6482
814.6968
819.3554
821.7605
821.2296
817.4627
810.7709
802.2578
793.8328
787.9543
787.0886
792.9984
806.0565
810.9953
815.9777
818.1368
820.7658
822.8237
824.3451
825.0755
824.8191
823.4094
820.7699
816.9568
812.1913
806.8682
801.5345
796.833
793.4169
791.844
792.4677
795.3462
800.1888
806.3577
812.9319
818.8302
822.978
824.4884
822.8281
817.9294
810.2264
800.5993
790.2333
780.4164
772.3127
766.7593
764.1283
764.2838
766.645
770.3393
774.4101
778.0301
780.6697
782.1831
782.7976
783.0152
783.4627
784.7324
787.2517
791.2059
796.5096
802.8133
809.5229
815.8307
820.7712
823.3381
822.6877
818.4196
810.8675
801.2789
791.7733
785.0075
783.4655
805.7863
810.7362
813.155
815.9866
818.505
820.8001
822.7335
824.1459
824.8289
824.5636
823.1651
820.5362
816.7188
811.9309
806.5773
801.2266
796.5498
793.2264
791.8297
792.7095
795.8972
801.0533
807.4765
814.1807
820.0339
823.9396
825.0287
822.8262
817.3558
809.1579
799.2102
788.7633
779.1201
771.4037
766.3619
764.2509
764.8223
767.4161
771.1344
775.0547
778.4301
780.8293
782.1889
782.7744
783.0718
783.6508
785.0368
787.6199
791.6016
796.9627
803.4318
810.4501
817.1574
822.4475
825.1397
824.2671
819.414
810.9828
800.2681
789.2068
800.0866
805.3915
808.2563
811.2997
814.014
816.5193
818.8235
820.9048
822.676
823.9802
824.6046
824.3148
822.906
820.2626
816.4161
811.5862
806.1931
800.8313
796.2019
793.0095
791.8376
793.0242
796.5634
802.0568
808.732
815.5352
821.2875
824.8807
825.4782
822.68
816.6147
807.9356
797.7158
787.2593
777.8653
770.5957
766.0933
764.4925
765.4388
768.2096
771.9044
775.6548
778.8036
781.0112
782.2749
782.868
783.2342
783.8773
785.275
787.824
791.7955
797.2708
804.0465
811.5368
818.7424
824.3604
827.0541
825.8204
820.326
811.0919
793.0948
798.989
802.5922
806.2386
809.4595
812.3055
814.8277
817.0974
819.1696
821.0482
822.6624
823.859
824.4173
824.0865
822.6426
819.9548
816.0494
811.1541
805.7107
800.3441
795.7872
792.7673
791.872
793.4176
797.3497
803.2001
810.119
816.9841
822.5752
825.7851
825.826
822.3887
815.718
806.5832
796.146
785.7486
776.6676
769.8857
765.9306
764.816
766.0933
768.9974
772.645
776.2349
779.1989
781.2739
782.4896
783.0978
783.4815
784.0846
785.3735
787.8088
791.7836
797.4939
804.7606
812.8851
820.6461
826.5072
829.0212
827.3624
785.1149
791.0553
795.297
799.7166
803.8045
807.4524
810.6132
813.3133
815.6352
817.6824
819.5393
821.2325
822.7028
823.7968
824.2827
823.8924
822.3846
819.6178
815.6191
810.632
805.1264
799.7626
795.3062
792.5041
791.9395
793.8962
798.2591
804.4804
811.6272
818.5102
823.8772
826.6365
826.0654
821.9597
814.6878
805.1332
794.5349
784.2561
775.5331
769.2573
765.8389
765.179
766.751
769.7653
773.3697
776.8333
779.6678
781.6649
782.8596
783.4577
783.7736
784.2113
785.2737
787.5444
791.5787
797.686
805.6675
814.6366
823.0751
829.2703
777.7449
782.4624
786.6528
791.3753
796.1724
800.7764
804.976
808.6385
811.7246
814.281
816.4161
818.2624
819.9298
821.4627
822.8081
823.8075
824.215
823.7447
822.1405
819.2553
815.1253
810.0177
804.4384
799.0875
794.7634
792.2272
792.0489
794.4666
799.2923
805.8897
813.2397
820.0911
825.1712
827.4198
826.1953
821.4092
813.5553
803.6236
792.9152
782.7977
774.4543
768.6813
765.7776
765.5452
767.3948
770.5232
774.1123
777.4958
780.252
782.2085
783.3848
783.9247
784.0744
784.2207
784.9442
787.0008
791.1585
797.8812
806.9636
817.3582
773.0402
775.2252
778.3475
782.3463
787.0099
792.0148
797.0481
801.8191
806.1013
809.7606
812.767
815.1868
817.1544
818.8282
820.3393
821.7434
822.9879
823.9032
824.2263
823.6532
821.9161
818.8696
814.5674
809.3102
803.6474
798.3229
794.1669
791.9477
792.2104
795.1344
800.4466
807.4147
814.9343
821.7004
826.4348
828.1251
826.224
820.7639
812.3589
802.0919
791.3097
781.3716
773.404
768.1154
765.7069
765.8953
768.035
771.3068
774.9184
778.259
780.9663
782.8977
784.0486
784.4908
784.3922
784.1193
784.355
786.1071
790.4831
798.2015
772.2547
771.3867
772.6426
774.8671
778.2317
782.5086
787.4357
792.6866
797.9195
802.8234
807.1608
810.7988
813.7204
816.0131
817.8363
819.3716
820.7654
822.078
823.2493
824.0932
824.3254
823.6244
821.7152
818.4616
813.9452
808.5102
802.7574
797.4773
793.5288
791.6789
792.4344
795.9023
801.7135
809.0357
816.6837
823.3111
827.6507
828.7535
826.1742
820.0632
811.1421
800.5692
789.7235
779.9521
772.3349
767.5106
765.5994
766.2369
768.711
772.167
775.8232
779.1246
781.7823
783.7003
784.8513
785.2043
784.7911
783.9182
783.4005
784.5304
775.0361
771.78
771.0525
771.039
772.2565
774.6821
778.2476
782.7582
787.9222
793.3858
798.782
803.7825
808.1439
811.7397
814.5697
816.7452
818.45
819.8846
821.2048
822.4673
823.5963
824.3823
824.5167
823.6609
821.5384
818.0311
813.2596
807.6219
801.7771
796.5641
792.8653
791.4354
792.7289
796.7669
803.0761
810.7248
818.4559
824.8979
828.8117
829.3222
826.0861
819.359
809.9498
799.0746
788.1387
778.4899
771.1875
766.8263
765.4553
766.6128
769.4848
773.1482
776.8236
780.0386
782.6291
784.5839
785.8344
786.1555
785.3142
783.4281
779.5984
775.4992
773.4357
771.5934
770.624
770.711
772.0232
774.6043
778.3676
783.0976
788.4751
794.1186
799.6391
804.6958
809.0458
812.5748
815.3047
817.3726
818.986
820.3604
821.6534
822.9093
824.028
824.7698
824.7986
823.7606
821.3836
817.578
812.5144
806.6548
800.7222
795.6034
792.1969
791.2321
793.0972
797.7156
804.5063
812.4436
820.214
826.4392
829.9225
829.8662
826.0166
818.7109
808.8207
797.6074
786.5136
776.9209
769.9085
766.052
765.3182
767.102
770.428
774.2685
777.8639
780.8951
783.4084
785.5197
787.075
787.5634
783.7178
780.3971
778.0688
775.4692
773.1154
771.2908
770.3178
770.4595
771.8842
774.6306
778.5947
783.5354
789.1047
794.8947
800.4979
805.5671
809.8666
813.3014
815.9207
817.89
819.4393
820.7941
822.1065
823.3989
824.5382
825.2479
825.1622
823.9146
821.2446
817.1015
811.7169
805.6255
799.6177
794.6243
791.5499
791.0848
793.5372
798.7258
805.9637
814.145
821.9191
827.9199
831.0016
830.4348
826.0298
818.1721
807.7721
796.1381
784.7838
775.1789
768.4693
765.2216
765.2781
767.8126
771.6156
775.5312
778.8642
781.5536
783.9869
786.5279
785.8957
784.2504
782.6082
780.4216
777.9006
775.2745
772.8603
771.0063
770.051
770.2698
771.8306
774.7608
778.9336
784.0795
789.8202
795.7231
801.3664
806.4028
810.6111
813.9231
816.4204
818.2993
819.8106
821.1849
822.5603
823.9284
825.1145
825.8003
825.5892
824.1058
821.1098
816.5996
810.878
804.5582
798.4979
793.6648
790.9566
791.0101
794.0429
799.7673
807.4016
815.7797
823.5377
829.3374
832.0816
831.0852
826.1833
817.772
806.786
794.6045
782.8702
773.2083
766.8717
764.4025
765.4521
768.8832
773.1712
776.9843
779.7102
781.6234
785.9987
785.8612
785.3057
784.2313
782.5577
780.3418
777.7527
775.0539
772.585
770.7175
769.8053
770.1306
771.8564
774.9925
779.3854
784.7331
790.6264
796.6096
802.251
807.21
811.2878
814.4497
816.8146
818.6113
820.1091
821.538
823.0138
824.4888
825.7397
826.4026
826.0513
824.3076
820.9602
816.0668
810.0091
803.4813
797.4034
792.7684
790.452
791.0236
794.6045
800.8075
808.7756
817.3095
825.0556
830.7109
833.2102
831.8735
826.5132
817.5041
805.8091
792.925
780.6952
770.9622
765.1107
763.6444
765.9735
770.5443
775.3567
778.7756
785.0759
785.4796
785.7697
785.7753
785.3094
784.2334
782.5188
780.2327
777.5596
774.7856
772.2721
770.4111
769.5697
770.0333
771.9543
775.3203
779.9456
785.4929
791.5212
797.5538
803.1541
807.9949
811.907
814.8959
817.1218
818.8462
820.3537
821.8669
823.4717
825.0732
826.3945