/*--------------------------------*- C++ -*----------------------------------*\
| =========                 |                                                 |
| \\      /  F ield         | OpenFOAM: The Open Source CFD Toolbox           |
|  \\    /   O peration     | Version:  2312                                  |
|   \\  /    A nd           | Website:  www.openfoam.com                      |
|    \\/     M anipulation  |                                                 |
\*---------------------------------------------------------------------------*/
FoamFile
{
    version     2.0;
    format      ascii;
    arch        "LSB;label=32;scalar=64";
    class       volScalarField;
    location    "5400";
    object      ILambda_5_0;
}
// * * * * * * * * * * * * * * * * * * * * * * * * * * * * * * * * * * * * * //

dimensions      [1 0 -3 0 0 0 0];

internalField   nonuniform List<scalar> 
12000
(
3949.411
3951.015
3952.81
3954.614
3956.185
3957.229
3957.374
3956.233
3953.556
3949.377
3944.117
3938.608
3934.013
3931.665
3932.835
3938.472
3948.954
3963.901
3982.08
4001.416
4019.122
4031.92
4036.337
4029.022
4007.067
3968.274
3911.348
3836.01
3743.003
3634.008
3511.493
3378.489
3238.357
3094.528
2950.276
2808.515
2671.653
2541.498
2419.214
2305.342
2199.854
2102.248
2011.662
1926.998
1847.05
1770.616
1696.596
1624.067
1552.339
1480.978
1409.817
1338.938
1268.644
1199.416
1131.886
1066.675
1004.863
945.4647
897.1267
822.9
3978.222
3979.852
3980.375
3979.482
3976.833
3972.158
3965.485
3957.42
3949.248
3942.804
3940.131
3943.029
3952.582
3968.753
3990.137
4013.924
4036.075
4051.7
4055.564
4042.667
4008.796
3950.994
3867.877
3759.778
3628.704
3478.134
3312.673
3137.635
2958.584
2780.889
2609.343
2447.859
2299.277
2165.282
2046.418
1942.204
1851.307
1771.765
1701.23
1637.208
1577.272
1519.249
1461.353
1402.274
1341.215
1277.894
1212.493
1145.597
1078.101
1011.111
945.8481
883.5512
825.3937
772.4114
725.4535
685.1485
651.8101
625.7534
606.5586
591.6369
3990.477
3986.47
3980.806
3973.224
3963.985
3954.192
3945.863
3941.594
3943.838
3954.096
3972.27
3996.332
4022.344
4044.838
4057.46
4053.777
4028.098
3976.19
3895.8
3786.904
3651.699
3494.328
3320.423
3136.517
2949.414
2765.589
2590.677
2429.091
2283.796
2156.243
2046.441
1953.146
1874.139
1806.543
1747.158
1692.769
1640.419
1587.615
1532.469
1473.77
1410.989
1344.233
1274.155
1201.832
1128.638
1056.104
985.7949
919.1947
857.62
802.1518
753.5938
712.4515
678.9325
652.9587
634.1943
622.1031
615.8179
615.0278
616.3965
627.7598
3980.342
3971.079
3960.52
3950.195
3943.172
3943.024
3952.427
3971.856
3998.839
4028.009
4051.847
4061.847
4049.818
4009.107
3935.531
3827.908
3688.155
3520.972
3333.222
3133.096
2929.222
2729.807
2541.919
2370.972
2220.435
2091.769
1984.566
1896.841
1825.431
1766.443
1715.703
1669.159
1623.215
1574.975
1522.386
1464.29
1400.395
1331.171
1257.711
1181.56
1104.529
1028.53
955.4192
886.8749
824.304
768.7845
721.0381
681.4298
649.9894
626.4488
610.288
600.7861
597.0726
598.1719
603.0562
610.6438
619.9384
629.8186
639.0821
650.2506
3955.057
3945.228
3939.866
3944.746
3962.884
3992.373
4026.213
4053.673
4062.572
4041.741
3983.028
3882.539
3741.054
3563.688
3358.987
3137.661
2911.199
2690.558
2485.089
2301.789
2144.913
2015.93
1913.781
1835.347
1776.045
1730.483
1693.074
1658.579
1622.524
1581.482
1533.211
1476.666
1411.909
1339.931
1262.435
1181.589
1099.783
1019.418
942.7173
871.5928
807.5542
751.6644
704.534
666.3485
636.9185
615.7445
602.0868
595.0353
593.5728
596.6286
603.1208
611.988
622.2117
632.8258
642.9494
651.6798
658.575
661.8712
664.7031
655.2266
3936.803
3943.44
3969.992
4009.8
4046.455
4060.1
4033.192
3954.383
3820.312
3635.461
3410.623
3160.626
2901.871
2650.086
2418.546
2216.91
2050.693
1921.311
1826.578
1761.515
1719.3
1692.254
1672.727
1653.828
1629.945
1597.053
1552.817
1496.522
1428.866
1351.667
1267.53
1179.498
1090.736
1004.259
922.7215
848.2755
782.4941
726.3527
680.2595
644.1225
617.4378
599.39
588.9514
584.9728
586.2597
591.6311
599.9601
610.1973
621.3804
632.6339
643.1627
652.2449
659.2259
663.5168
664.6184
662.0243
655.7753
644.1639
633.2635
599.447
3953.628
4008.819
4047.681
4030.624
3935.486
3759.483
3515.348
3225.606
2916.775
2614.463
2339.871
2107.803
1926.03
1795.682
1712.376
1667.755
1651.146
1651.135
1656.888
1659.141
1650.822
1627.331
1586.516
1528.43
1454.919
1369.135
1275.025
1176.854
1078.791
984.587
897.3476
819.4082
752.2923
696.7437
652.8137
619.9838
597.3058
583.5446
577.3101
577.1689
581.7316
589.7121
599.9609
611.4752
623.3911
634.9644
645.5449
654.5517
661.4529
665.755
667.0024
664.7895
658.781
648.7482
634.5926
616.3872
594.5596
568.7175
544.6802
498.857
4012.259
3962.693
3744.018
3406.127
3009.803
2610.54
2251.098
1958.847
1746.147
1612.654
1548.607
1538.365
1563.671
1606.338
1650.254
1682.648
1694.696
1681.569
1642.063
1577.955
1493.225
1393.233
1283.967
1171.388
1060.929
957.145
863.5144
782.3725
714.9531
661.5108
621.4947
593.7487
576.7153
568.6246
567.6576
572.0733
580.2979
590.9762
602.9883
615.4389
627.625
638.9927
649.0886
657.5153
663.8958
667.8518
668.9972
666.9494
661.3545
651.925
638.4856
621.0229
599.7285
575.0542
547.6819
518.7357
489.1584
461.3485
435.9435
410.7831
3568.72
2823.59
2200.54
1737.736
1442.45
1298.18
1274.02
1332.945
1438.121
1557.187
1664.679
1742.935
1781.891
1778.161
1733.687
1654.233
1547.907
1423.842
1291.123
1157.984
1031.289
916.2505
816.3688
733.5201
668.1643
619.6158
586.3443
566.2713
557.0413
556.2505
561.626
571.1508
583.1368
596.2508
609.5023
622.1995
633.8876
644.2756
653.164
660.3801
665.728
668.9576
669.7545
667.7524
662.5637
653.8267
641.2629
624.7394
604.3292
580.3639
553.4733
524.6083
495.0371
466.3505
440.3121
419.2236
404.2129
401.1818
399.1958
443.8661
481.6314
456.3254
626.7965
907.7836
1221.842
1512.04
1742.425
1894.947
1965.51
1959.98
1890.563
1772.73
1622.826
1456.314
1286.621
1124.488
977.7431
851.3848
747.8841
667.6138
609.3358
570.689
548.6404
539.8711
541.0876
549.2521
561.7355
576.4014
591.6293
606.2911
619.6897
631.4752
641.546
649.9491
656.786
662.1323
665.979
668.1968
668.5264
666.5953
661.9563
654.146
642.7546
627.503
608.3176
585.3969
559.2631
530.7941
501.2309
472.1608
445.4741
423.2994
407.9109
401.6615
406.7227
425.6117
458.4172
513.6355
564.1843
719.8113
1065.042
1741.315
2172.942
2389.179
2432.757
2348.034
2176.268
1953.325
1708.63
1464.878
1238.31
1039.382
873.6605
742.8077
645.5667
578.6812
537.6983
517.6298
513.4657
520.5424
534.7835
552.8304
572.086
590.6921
607.4589
621.764
633.4331
642.6136
649.6497
654.9659
658.9656
661.9494
664.0571
665.2363
665.2389
663.6451
659.9114
653.4398
643.6608
630.1233
612.5846
591.0898
566.0369
538.2179
508.8342
479.4826
452.112
428.9526
412.4223
405.0155
409.1803
427.1946
461.0365
512.3143
581.9978
671.1207
777.3928
909.5843
1026.501
1291.776
3713.516
3126.6
2577.803
2085.168
1660.102
1307.486
1026.777
813.3737
659.9397
557.5777
496.8089
468.3291
463.5468
474.9297
496.1876
522.3248
549.5922
575.3723
598.0229
616.7026
631.1952
641.7415
648.8875
653.3497
655.8973
657.2548
658.02
658.6036
659.1874
659.7061
659.8531
659.1114
656.8073
652.1862
644.504
633.1264
617.6309
597.899
574.1936
547.2118
518.1083
488.4863
460.355
436.0549
418.156
409.3349
412.2382
429.3416
462.8133
514.39
585.2726
676.051
786.6485
916.3484
1063.639
1227.022
1401.783
1594.635
1760.228
2077.538
535.7494
406.7888
328.5997
293.7469
292.4371
315.045
353.0028
399.1498
447.8377
494.8907
537.4721
573.8932
603.3982
625.95
642.0271
652.447
658.218
660.4232
660.1331
658.3407
655.9132
653.5553
651.7783
650.8754
650.9037
651.6768
652.7714
653.5538
653.227
650.9007
645.6799
636.768
623.5746
605.8209
583.6295
557.5921
528.8051
498.869
469.8494
444.2005
424.6556
414.0922
415.3791
431.2179
463.988
515.6055
587.4051
680.0526
793.4915
926.9288
1078.857
1247.116
1428.974
1621.282
1820.466
2023.264
2224.356
2427.634
2596.553
2878.205
629.3146
638.6846
651.3161
664.5341
676.2089
685.0277
690.4095
692.3326
691.1576
687.4683
681.9462
675.282
668.1182
661.0169
654.4475
648.7857
644.3179
641.2414
639.6584
639.5595
640.8014
643.0827
645.9268
648.6791
650.527
650.5472
647.7796
641.3251
630.4593
614.7498
594.1662
569.1684
540.7623
510.5159
480.5296
453.3617
431.913
419.2786
418.5771
432.7697
464.4824
515.844
588.3496
682.7598
799.04
936.3442
1093.042
1266.788
1454.622
1653.109
1858.485
2066.828
2274.22
2476.928
2671.471
2855.067
3024.373
3181.579
3306.795
3487.577
629.5726
629.6257
629.1915
628.3013
627.1022
625.8009
624.602
623.6667
623.0957
622.9373
623.2081
623.9162
625.0813
626.7432
628.9561
631.7645
635.165
639.0571
643.1953
647.1517
650.3037
651.8531
650.8831
646.4518
637.7137
624.058
605.2472
581.5391
553.7749
523.4227
492.5664
463.8391
440.3038
425.2902
422.202
434.3072
464.5309
515.2641
588.2038
684.2339
803.3554
944.6674
1106.401
1285.997
1480.231
1685.364
1897.316
2111.852
2324.772
2532.083
2730.162
2915.886
3086.736
3240.872
3377.141
3495.173
3594.912
3678.538
3740.834
3816.324
630.9261
631.6242
632.4145
633.3086
634.2997
635.3515
636.3963
637.3655
638.2262
639.0084
639.8134
640.7974
642.1302
643.9333
646.2084
648.7692
651.1924
652.805
652.7159
649.8982
643.3167
632.0876
615.6528
593.9447
567.5201
537.6429
506.3028
476.163
450.4399
432.7235
426.7553
436.1818
464.3064
513.8594
586.8046
684.1956
806.0925
951.5404
1118.61
1304.496
1505.657
1717.999
1937.073
2158.292
2377.131
2589.33
2791.06
2979.068
3150.776
3304.354
3438.741
3553.636
3649.455
3727.239
3788.576
3835.442
3870.062
3895.131
3911.391
3929.024
633.6263
634.6571
635.5765
636.3695
637.0149
637.484
637.7869
638.0234
638.3858
639.1121
640.4038
642.3245
644.7034
647.0692
648.6349
648.3476
645.0045
637.4279
624.676
606.2613
582.3461
553.8839
522.6851
491.3937
463.3729
442.5098
432.9586
438.8454
463.9658
511.5007
583.7761
682.0851
806.5842
956.2685
1129.023
1321.74
1530.499
1750.773
1977.674
2206.193
2431.436
2648.845
2854.373
3044.639
3217.026
3369.746
3501.85
3613.206
3704.44
3776.841
3832.243
3872.889
3901.295
3920.074
3931.841
3938.988
3943.674
3947.894
3951.282
3962.248
637.2315
637.8432
638.2268
638.4141
638.4692
638.5257
638.8266
639.6608
641.2093
643.3842
645.7144
647.3118
646.9371
643.1655
634.6302
620.308
599.8017
573.5736
543.0912
510.8594
480.3303
455.6979
441.6004
442.7629
463.6196
507.9528
578.5855
677.1518
803.9628
957.974
1136.85
1337.115
1554.368
1783.55
2019.227
2255.88
2488.177
2711.216
2920.72
3113.187
3285.992
3437.429
3566.714
3673.938
3759.985
3826.426
3875.379
3909.367
3931.158
3943.607
3949.509
3951.457
3951.723
3952.143
3954.093
3958.295
3965.181
3974.114
3984.157
3998.961
638.5927
638.5577
638.3662
638.237
638.4803
639.4076
641.1436
643.3681
645.1683
645.0978
641.4146
632.4411
616.9768
594.6856
566.3873
534.2019
501.5212
472.81
453.2628
448.3625
463.3944
502.9721
570.6274
668.5014
797.1625
955.5584
1141.098
1349.845
1576.793
1816.199
2061.939
2307.858
2548.086
2777.32
2991.029
3185.61
3358.47
3508.052
3633.81
3736.131
3816.228
3876.007
3917.912
3944.763
3959.593
3965.483
3965.411
3962.116
3957.973
3954.898
3954.273
3956.903
3962.999
3972.178
3983.575
3995.635
4007.241
4014.131
4021.48
4004.936
637.77
637.5693
637.7292
638.7391
640.6531
642.7796
643.5842
640.9028
632.4925
616.7232
593.1831
563.079
529.3718
496.6342
470.6634
457.9169
464.8588
497.3052
559.8467
655.4119
785.0048
947.6313
1140.404
1358.795
1597.005
1848.392
2105.928
2362.633
2611.965
2848.131
3066.322
3262.855
3435.24
3582.162
3703.42
3799.805
3872.954
3925.184
3959.313
3978.488
3986.007
3985.161
3979.086
3970.628
3962.233
3955.854
3952.884
3954.109
3959.701
3969.221
3981.67
3995.551
4008.968
4019.723
4025.532
4023.761
4013.36
3987.528
3963.567
3869.214
636.9913
637.8105
639.7972
641.8787
641.473
635.3814
620.964
597.2502
565.6946
530.3458
497.4589
474.7325
470.3514
491.9949
545.9549
636.465
765.2992
931.6528
1132.286
1361.879
1613.54
1879.391
2151.171
2420.8
2680.855
2924.941
3147.941
3346.142
3517.258
3660.366
3775.765
3864.805
3929.681
3973.221
3998.686
4009.572
4009.44
4001.759
3989.773
3976.38
3964.04
3954.694
3949.704
3949.818
3955.154
3965.211
3978.907
3994.646
4010.402
4023.84
4032.445
4033.668
4025.079
4004.504
3970.248
3920.773
3856.928
3772.356
3695.499
3512.67
638.657
641.1826
640.4518
631.1144
609.9642
577.9259
540.334
506.0419
485.8472
490.6642
529.887
610.1958
734.8698
903.5934
1112.69
1355.68
1624.048
1908.093
2197.776
2483.471
2756.572
3009.928
3238.1
3437.445
3606.069
3743.664
3851.275
3931.034
3985.878
4019.282
4035.023
4036.973
4028.93
4014.482
3996.898
3979.042
3963.301
3951.53
3945.01
3944.414
3949.797
3960.6
3975.679
3993.362
4011.525
4027.71
4039.246
4043.404
4037.554
4019.329
3986.774
3938.49
3873.739
3792.522
3695.671
3584.536
3462.584
3327.211
3208.142
2989.763
643.0576
634.1664
606.9964
566.6487
526.8562
504.9084
517.1719
576.0942
688.6305
855.8629
1073.55
1333.244
1623.665
1932.099
2245.683
2552.463
2842.171
3106.715
3340.392
3539.868
3703.99
3833.457
3930.445
3998.199
4040.653
4062.097
4066.903
4059.315
4043.302
4022.462
3999.957
3978.478
3960.215
3946.837
3939.471
3938.68
3944.447
3956.173
3972.69
3992.291
4012.808
4031.693
4046.155
4053.302
4050.309
4034.592
4003.981
3956.873
3892.366
3810.355
3711.585
3597.66
3471.004
3334.772
3192.733
3049.057
2908.494
2773.579
2660.619
2507.576
631.8681
578.8329
538.0648
544.969
621.0712
773.2011
996.4815
1278.082
1600.701
1945.488
2294.293
2631.225
2943.559
3222.127
3461.31
3658.714
3814.671
3931.635
4013.554
4065.29
4092.116
4099.312
4091.881
4074.364
4050.747
4024.432
3998.26
3974.538
3955.084
3941.248
3933.92
3933.518
3939.963
3952.661
3970.481
3991.767
4014.369
4035.726
4052.966
4063.063
4062.999
4049.962
4021.536
3975.877
3911.877
3829.279
3728.748
3611.896
3481.241
3340.122
3192.555
3043.061
2896.448
2757.598
2631.177
2521.682
2432.063
2368.111
2322.328
2322.343
593.026
632.9527
827.4532
1136.878
1517.163
1928.989
2340.489
2727.793
3074.648
3371.548
3614.616
3804.368
3944.493
4040.75
4100.012
4129.493
4136.17
4126.39
4105.643
4078.485
4048.562
4018.709
3991.088
3967.326
3948.635
3935.889
3929.664
3930.222
3937.476
3950.922
3969.587
3991.98
4016.092
4039.435
4059.127
4072.036
4074.958
4064.826
4038.929
3995.127
3932.043
3849.208
3747.163
3627.493
3492.799
3346.602
3193.193
3037.437
2884.533
2739.759
2608.21
2494.546
2402.763
2336.01
2296.359
2285.147
2300.867
2348.399
2399.591
2556.644
1040.842
1745.721
2358.17
2870.438
3283.135
3602.369
3837.867
4001.444
4105.738
4163.212
4185.427
4182.557
4163.138
4133.993
4100.309
4065.816
4033.035
4003.565
3978.361
3957.983
3942.791
3933.066
3929.05
3930.922
3938.712
3952.182
3970.697
3993.12
4017.738
4042.262
4063.881
4079.393
4085.397
4078.525
4055.699
4014.393
3952.865
3870.354
3767.206
3644.934
3506.201
3354.715
3195.071
3032.521
2872.708
2721.374
2584.062
2465.832
2371
2302.929
2263.866
2254.842
2275.629
2324.782
2399.65
2496.849
2610.784
2741.821
2858.964
3072.912
4127.545
4245.255
4309.302
4329.877
4318.792
4286.805
4242.887
4194.049
4145.399
4100.325
4060.757
4027.477
4000.444
3979.115
3962.737
3950.595
3942.184
3937.305
3936.068
3938.818
3945.972
3957.835
3974.376
3995.043
4018.618
4043.152
4065.988
4083.879
4093.193
4090.179
4071.281
4033.452
3974.459
3893.125
3789.509
3664.991
3522.266
3365.245
3198.861
3028.818
2861.281
2702.539
2558.661
2435.172
2336.765
2267.058
2228.423
2221.881
2247.069
2302.28
2384.567
2489.902
2613.38
2749.451
2892.19
3035.505
3173.437
3301.195
3406.724
3531.973
4036.121
4024.358
4009.633
3994.64
3981.388
3971.022
3963.909
3959.793
3957.99
3957.611
3957.779
3957.833
3957.474
3956.857
3956.593
3957.663
3961.244
3968.467
3980.15
3996.523
4017.02
4040.143
4063.443
4083.623
4096.752
4098.581
4084.917
4052.02
3996.982
3918.056
3814.886
3688.641
3542.02
3379.149
3205.363
3026.907
2850.576
2683.318
2531.837
2402.216
2299.588
2227.869
2189.568
2185.684
2215.683
2277.558
2367.958
2482.383
2615.416
2760.998
2912.705
3064.036
3208.687
3340.776
3455.167
3547.135
3614.598
3649.931
3670.702
3612.611
4035.753
4032.408
4029.345
4026.558
4023.886
4021.035
4017.583
4013.106
4007.367
4000.501
3993.115
3986.3
3981.507
3980.326
3984.167
3993.923
4009.644
4030.307
4053.702
4076.484
4094.378
4102.526
4095.931
4069.952
4020.795
3945.936
3844.443
3717.168
3566.773
3397.625
3215.542
3027.436
2840.88
2663.64
2503.197
2366.314
2258.652
2184.47
2146.428
2145.479
2180.865
2250.208
2349.673
2474.202
2617.794
2773.806
2935.275
3095.23
3246.98
3384.377
3502.034
3595.494
3661.354
3697.299
3702.297
3675.772
3620.914
3530.458
3444.591
3215.73
4031.492
4027.017
4022.305
4017.216
4011.513
4004.944
3997.472
3989.561
3982.314
3977.373
3976.615
3981.711
3993.644
4012.281
4036.081
4062.01
4085.678
4101.693
4104.184
4087.424
4046.473
3977.758
3879.532
3752.154
3598.169
3422.198
3230.641
3031.241
2832.555
2643.38
2472.178
2326.551
2212.804
2135.603
2097.761
2100.143
2141.69
2219.55
2329.29
2465.185
2620.543
2788.058
2960.165
3129.383
3288.623
3431.458
3552.347
3646.796
3711.47
3744.241
3744.195
3711.573
3647.697
3554.795
3436.038
3294.586
3136.732
2957.448
2801.766
2499.29
4023.657
4018.485
4012.798
4006.233
3998.843
3991.435
3985.704
3983.977
3988.544
4000.853
4020.832
4046.474
4073.775
4097.022
4109.391
4103.752
4073.547
4013.63
3920.951
3795.002
3637.993
3454.745
3252.339
3039.569
2826.267
2622.571
2438.215
2281.885
2160.691
2079.784
2042.129
2048.438
2097.229
2185.026
2306.639
2455.52
2624.156
2804.47
2988.228
3167.398
3334.487
3482.811
3606.708
3701.701
3764.578
3793.433
3787.64
3747.785
3675.55
3573.576
3445.287
3294.71
3126.291
2944.667
2754.617
2560.356
2367.679
2173.663
2012.477
1746.823
4013.216
4007.099
3999.843
3992.707
3988.448
3990.386
4001.128
4021.269
4048.542
4077.713
4101.181
4110.028
4095.327
4049.43
3967.086
3846.206
3688.217
3498.003
3283.462
3054.786
2823.554
2601.766
2400.906
2231.123
2100.589
2015.059
1977.64
1988.767
2046.35
2146.059
2281.709
2445.714
2629.558
2824.267
3020.854
3210.713
3385.955
3539.682
3666.184
3761.07
3821.337
3845.372
3832.906
3784.919
3703.505
3591.713
3453.36
3292.841
3114.921
2924.546
2726.645
2525.966
2326.924
2133.456
1948.993
1776.122
1617.689
1471.545
1355.404
1188.304
4001.48
3994.304
3990.619
3996.002
4013.544
4041.686
4073.88
4099.651
4106.612
4082.846
4019.025
3909.907
3755.114
3559.178
3330.966
3082.64
2828.352
2582.856
2360.204
2172.653
2029.842
1938.29
1901.192
1918.485
1987.137
2101.588
2254.29
2436.295
2637.839
2848.887
3059.622
3260.855
3444.36
3603.113
3731.469
3825.246
3881.761
3899.793
3879.507
3822.335
3730.82
3608.44
3459.414
3288.495
3100.77
2901.453
2695.697
2488.419
2284.15
2086.905
1900.09
1726.434
1567.948
1425.928
1300.981
1193.01
1101.676
1024.49
966.7823
893.4383
3989.756
3994.775
4018.26
4054.359
4087.55
4098.354
4068.725
3985.935
3844.752
3647.942
3405.368
3132.222
2846.841
2568.491
2315.369
2103.02
1943.257
1843.596
1807.15
1832.91
1916.29
2049.844
2224.056
2428.126
2650.695
2880.474
3106.765
3319.857
3511.321
3674.195
3803.09
3894.224
3945.389
3955.882
3926.391
3858.85
3756.272
3622.564
3462.328
3280.657
3082.928
2874.599
2661.023
2447.268
2237.967
2037.193
1848.358
1674.149
1516.496
1376.57
1254.812
1150.99
1064.28
993.3702
936.5599
891.8827
857.3656
830.2872
811.471
786.3788
3996.232
4044.93
4078.779
4059.046
3962.258
3782.86
3530.578
3225.955
2895.534
2567.396
2267.534
2017.338
1832.162
1720.822
1685.847
1724.26
1828.674
1988.519
2191.249
2423.421
2671.597
2923.043
3166.221
3391.117
3589.413
3754.563
3881.775
3967.948
4011.577
4012.621
3972.367
3893.273
3778.801
3633.243
3461.524
3269.017
3061.335
2844.141
2622.955
2402.978
2188.936
1984.953
1794.446
1620.063
1463.645
1326.234
1208.102
1108.819
1027.343
962.1262
911.2393
872.5051
843.6251
822.3204
806.4212
794.0184
783.5377
773.4043
764.8345
747.8821
4031.635
3981.019
3765.839
3428.867
3025.129
2608.355
2224.156
1906.746
1677.98
1547.963
1516.748
1576.596
1714.358
1913.714
2157.064
2427.013
2707.42
2984.044
3244.866
3480.169
3682.453
3846.266
3967.998
4045.678
4078.78
4068.068
4015.449
3923.838
3797.034
3639.571
3456.571
3253.568
3036.33
2810.667
2582.237
2356.368
2137.888
1930.985
1739.101
1564.857
1410.015
1275.489
1161.378
1067.043
991.2041
932.0654
887.4478
854.9329
832.0061
816.1936
805.1871
796.9538
789.8189
782.5479
774.3344
764.9761
754.4025
743.8922
733.2298
723.9739
3589.333
2863.668
2238.146
1753.376
1428.724
1264.404
1246.308
1351.257
1551.62
1818.951
2126.584
2451.219
2773.651
3078.879
3355.779
3596.552
3796.09
3951.372
4060.963
4124.643
4143.163
4118.111
4051.844
3947.461
3808.772
3640.257
3446.972
3234.431
3008.442
2774.909
2539.635
2308.106
2085.308
1875.555
1682.363
1508.365
1355.271
1223.872
1114.087
1025.051
955.2252
902.5376
864.5331
838.5312
821.7817
811.6114
805.5561
801.4734
797.6312
792.7722
786.1502
777.5424
767.2298
755.9818
744.9068
735.7385
729.3926
730.7961
731.47
768.232
607.327
531.0681
651.2961
920.3599
1285.27
1699.226
2124.971
2535.246
2911.83
3243.915
3526.246
3757.34
3937.953
4069.938
4155.49
4196.749
4195.706
4154.298
4074.628
3959.197
3811.109
3634.19
3433.011
3212.815
2979.346
2738.629
2496.709
2259.378
2031.93
1818.943
1624.119
1450.176
1298.803
1170.674
1065.506
982.1685
918.8179
873.06
842.1215
823.0258
812.7629
808.4463
807.4515
807.5308
806.9018
804.3077
799.0496
790.9897
780.5293
768.5629
756.4119
745.7431
738.468
736.6688
742.3579
757.9527
783.774
827.5687
866.7834
993.0316
1120.969
1793.49
2379.872
2871.24
3268.646
3579.733
3815.749
3988.907
4110.335
4188.843
4230.479
4238.691
4214.904
4159.3
4071.651
3952.06
3801.517
3622.239
3417.778
3192.925
2953.462
2705.804
2456.6
2212.322
1978.909
1761.471
1564.072
1389.61
1239.776
1115.087
1014.987
937.989
881.8507
843.771
820.5903
808.9873
805.6631
807.5065
811.7348
816.0079
818.5119
818.0138
813.8849
806.096
795.1866
782.2092
768.6546
756.3611
747.4119
744.0255
748.4433
762.8206
789.1164
829.0285
883.759
954.6439
1040.057
1148.325
1243.754
1468.016
4027.73
4133.872
4191.597
4215.438
4219.638
4213.758
4201.683
4182.261
4150.789
4100.847
4026.022
3921.253
3783.72
3613.265
3412.395
3185.949
2940.555
2683.951
2424.296
2169.531
1926.845
1702.277
1500.464
1324.526
1176.077
1055.321
961.2316
891.764
844.0997
814.8887
800.486
797.1688
801.3296
809.6409
819.1895
827.5805
833.0102
834.3081
830.9508
823.0464
811.295
796.9246
781.6092
767.3698
756.4653
751.2767
754.1894
767.4777
793.1978
833.0895
888.4938
960.2857
1048.822
1153.937
1274.805
1410.567
1557.53
1721.938
1863.894
2141.436
3925.69
3919.888
3927.793
3947.418
3968.339
3976.103
3956.395
3897.93
3794.047
3643.201
3448.589
3217.223
2958.743
2684.191
2404.859
2131.335
1872.793
1636.532
1427.766
1249.603
1103.2
988.0098
902.1007
842.495
805.5016
787.0212
782.8144
788.7264
800.8698
815.7681
830.4645
842.5995
850.4606
853.0067
849.8675
841.3196
828.2408
812.042
794.5813
778.0617
764.9174
757.6929
758.9194
770.9945
796.0699
835.9502
892.0081
965.1171
1055.605
1163.228
1287.166
1426.039
1577.942
1740.512
1910.927
2086.336
2262.238
2440.998
2591.543
2839.347
3924.27
3966.854
3998.693
3988.037
3915.513
3774.919
3570.576
3313.972
3020.64
2707.535
2391.003
2085.384
1802.181
1549.707
1333.091
1154.552
1013.847
908.7915
835.805
790.4139
767.6888
762.5982
770.2789
786.2298
806.4423
827.4851
846.5535
861.4971
870.8324
873.7421
870.0628
860.2583
845.3771
826.9907
807.1135
788.1041
772.5524
763.1551
762.5869
773.3731
797.7688
837.6516
894.4317
968.9826
1061.595
1171.955
1299.143
1441.658
1597.463
1764.042
1938.481
2117.555
2297.826
2475.748
2647.78
2810.486
2960.506
3096.28
3206.013
3342.602
3948.267
3906.988
3726.777
3443.539
3097.086
2722.897
2349.694
1998.957
1685.285
1417.188
1198.111
1027.557
902.1746
816.7574
765.0814
740.5794
736.8373
747.9252
768.5891
794.3339
821.4324
846.8917
868.403
884.2937
893.4913
895.5
890.3882
878.7759
861.816
841.1581
818.891
797.4602
779.5627
768.0219
765.6516
775.1161
798.7958
838.6663
896.1979
972.2795
1067.17
1180.48
1311.177
1457.62
1617.61
1788.469
1967.117
2150.179
2334.082
2515.166
2689.793
2854.456
3005.88
3141.112
3257.672
3353.329
3427.394
3476.062
3509.081
3496.735
3536.084
2898.316
2344.553
1881.806
1509.462
1221.904
1010.235
863.6954
770.8187
720.3392
701.839
706.1549
725.573
753.8537
786.132
818.7388
848.9852
874.9487
895.2924
909.1327
915.9651
915.6414
908.3863
894.8342
876.067
853.6339
829.5395
806.1943
786.3241
772.8457
768.7176
776.7782
799.5855
839.2709
897.4173
974.9684
1072.175
1188.574
1323.007
1473.667
1638.162
1813.611
1996.74
2183.995
2371.653
2555.933
2733.109
2899.614
3052.138
3187.724
3303.847
3398.486
3470.191
3518.102
3542.072
3542.266
3520.962
3474.639
3427.36
3292.657
758.7997
653.5994
596.9694
579.6946
591.0459
621.2386
662.1508
707.4947
752.7384
794.886
832.1779
863.7565
889.3432
908.9598
922.7198
930.7058
932.9365
929.4132
920.2259
905.6903
886.4854
863.7626
839.2053
815.0239
793.8856
778.7847
772.867
779.2295
800.7146
839.7195
898.0373
976.7405
1076.114
1195.635
1334.003
1489.203
1658.6
1839.054
2027.043
2218.793
2410.398
2597.948
2777.628
2945.829
3099.232
3234.895
3350.327
3443.548
3513.147
3558.322
3578.908
3575.39
3548.9
3501.172
3434.565
3351.689
3256.761
3148.662
3052.696
2874.854
858.2103
870.4588
885.1665
899.906
912.8851
923.1571
930.5329
935.3468
938.1607
939.4891
939.5966
938.3917
935.4291
930.0115
921.373
908.9069
892.4009
872.235
849.5123
826.0978
804.56
788.021
779.9356
783.8262
803.0057
840.3171
897.9172
977.1189
1078.303
1200.902
1343.441
1503.636
1678.525
1864.619
2058.063
2254.796
2450.686
2641.667
2823.842
2993.577
3147.583
3282.976
3397.341
3488.781
3555.959
3598.136
3615.2
3607.68
3576.746
3524.192
3452.394
3364.251
3263.102
3152.617
3036.696
2919.254
2804.526
2694.339
2602.601
2476.271
875.9969
879.9978
883.3767
886.3117
889.1678
892.3634
896.1736
900.4933
904.7044
907.7213
908.185
904.7566
896.4515
882.9533
864.8482
843.7406
822.2286
803.744
792.2808
792.0488
807.1003
840.9738
896.394
975.0567
1077.511
1203.144
1350.247
1516.162
1697.467
1890.188
2090.013
2292.49
2493.197
2687.88
2872.565
3043.629
3197.863
3332.511
3445.299
3534.469
3598.806
3637.665
3650.999
3639.376
3603.992
3546.661
3469.791
3376.335
3269.71
3153.705
3032.355
2909.807
2790.163
2677.34
2574.885
2485.992
2412.751
2358.477
2319.5
2307.196
893.861
897.8007
901.916
906.6246
911.9881
917.4594
921.8105
923.3122
920.1813
911.1322
895.8539
875.3195
851.8831
829.1551
811.6854
804.5122
812.6467
840.5687
891.794
968.5619
1071.665
1200.427
1352.809
1525.615
1714.768
1915.608
2123.181
2332.503
2538.769
2737.507
2924.676
3096.724
3250.61
3383.799
3494.259
3580.459
3641.369
3676.479
3685.821
3669.995
3630.194
3568.217
3486.458
3387.878
3275.939
3154.519
3027.783
2900.051
2775.627
2658.641
2552.874
2461.611
2387.503
2332.473
2297.588
2283.298
2288.226
2314.621
2345.09
2440.368
910.4791
914.766
919.8435
924.8787
927.8288
926.1614
917.8012
902.0146
879.9998
855.0033
831.9916
817.0309
816.5191
836.4042
881.5041
955.008
1058.203
1190.427
1349.232
1530.687
1729.791
1940.905
2158.171
2375.868
2588.681
2791.872
2981.375
3153.803
3306.415
3437.051
3544.07
3626.288
3682.956
3713.748
3718.788
3698.69
3654.597
3588.23
3501.903
3398.52
3281.537
3154.879
3022.825
2889.864
2760.517
2639.153
2529.802
2435.978
2360.519
2305.468
2271.989
2260.325
2269.808
2298.917
2345.328
2406.257
2477.626
2558.883
2631.374
2759.534
927.1637
932.4146
934.9632
930.5892
916.7723
894.2862
867.4134
843.2098
830.2223
837.0187
870.8888
936.9191
1037.492
1172.191
1338.053
1530.068
1741.82
1966.171
2195.881
2424.127
2644.856
2852.996
3044.504
3216.315
3366.207
3492.637
3594.575
3671.377
3722.698
3748.465
3748.901
3724.586
3676.535
3606.289
3515.979
3408.357
3286.793
3155.209
3017.976
2879.75
2745.292
2619.254
2505.963
2409.21
2332.072
2276.762
2244.527
2235.603
2249.216
2283.645
2336.328
2404.009
2482.917
2568.964
2657.945
2745.758
2828.499
2903.281
2963.498
3031.126
944.5513
940.3948
921.6616
892.4555
863.7173
849.1853
861.7952
911.2691
1002.879
1137.197
1310.619
1516.34
1745.526
1988.48
2235.653
2478.435
2709.643
2923.75
3116.87
3286.554
3431.493
3551.176
3645.565
3714.851
3759.29
3779.149
3774.736
3746.505
3695.202
3622.02
3528.738
3417.814
3292.42
3156.411
3014.216
2870.678
2730.84
2599.7
2481.954
2381.752
2302.475
2246.56
2215.378
2209.175
2227.072
2267.139
2326.514
2401.573
2488.139
2581.704
2677.665
2771.547
2859.216
2937.043
3002.096
3052.022
3086.023
3101.026
3106.871
3069.374
948.1248
908.669
879.0255
887.2534
950.3016
1073.353
1252.2
1476.309
1731.735
2003.571
2277.825
2542.662
2789.045
3010.882
3204.783
3369.56
3505.589
3614.157
3696.882
3755.28
3790.5
3803.243
3793.836
3762.414
3709.186
3634.71
3540.137
3427.405
3299.329
3159.604
3012.705
2863.698
2717.992
2581.038
2458.023
2353.565
2271.446
2214.401
2183.97
2180.425
2202.779
2248.862
2315.47
2398.558
2493.486
2595.271
2698.854
2799.359
2892.319
2973.875
3040.928
3091.233
3123.46
3137.17
3132.844
3111.474
3075.798
3024.383
2975.938
2866.201
928.1314
962.4359
1119.211
1366.55
1669.045
1995.149
2319.469
2623.404
2894.923
3127.785
3320.413
3474.579
3594.077
3683.523
3747.382
3789.291
3811.688
3815.755
3801.603
3768.638
3716.026
3643.173
3550.15
3438.018
3309.007
3166.552
3015.182
2860.291
2707.811
2563.838
2434.236
2324.263
2238.241
2179.294
2149.18
2148.209
2175.254
2227.858
2302.402
2394.349
2498.512
2609.362
2721.326
2829.074
2927.776
3013.317
3082.453
3132.921
3163.473
3173.87
3164.813
3137.831
3095.143
3039.466
2973.908
2901.514
2826.141
2747.919
2682.126
2574.384
1292.364
1852.936
2338.332
2742.232
3065.375
3313.458
3495.704
3623.428
3708.532
3762.129
3793.464
3809.244
3813.392
3807.207
3789.857
3759.088
3712.045
3646.081
3559.446
3451.793
3324.471
3180.573
3024.782
2863.044
2702.121
2549.082
2410.78
2293.37
2201.9
2140
2109.687
2111.285
2143.467
2203.384
2286.896
2388.85
2503.413
2624.417
2745.701
2861.431
2966.383
3056.174
3127.424
3177.863
3206.362
3212.907
3198.507
3165.067
3115.21
3052.086
2979.161
2900.012
2818.136
2736.76
2658.74
2586.32
2521.502
2464.255
2420.245
2364.114
3742.736
3830.026
3873.644
3882.787
3869.046
3843.544
3815.385
3790.583
3771.515
3757.015
3743.031
3723.652
3692.292
3642.864
3570.776
3473.646
3351.678
3207.687
3046.828
2876.086
2703.614
2538.01
2387.605
2259.833
2160.717
2094.511
2063.494
2067.921
2106.111
2174.651
2268.688
2382.286
2508.819
2641.367
2773.104
2897.649