/*--------------------------------*- C++ -*----------------------------------*\
| =========                 |                                                 |
| \\      /  F ield         | OpenFOAM: The Open Source CFD Toolbox           |
|  \\    /   O peration     | Version:  2312                                  |
|   \\  /    A nd           | Website:  www.openfoam.com                      |
|    \\/     M anipulation  |                                                 |
\*---------------------------------------------------------------------------*/
FoamFile
{
    version     2.0;
    format      ascii;
    arch        "LSB;label=32;scalar=64";
    class       volScalarField;
    location    "5400";
    object      nut;
}
// * * * * * * * * * * * * * * * * * * * * * * * * * * * * * * * * * * * * * //

dimensions      [0 2 -1 0 0 0 0];

internalField   nonuniform List<scalar> 
12000
(
3.258732e-05
0.0001717051
0.000191777
0.0002276621
0.0002539449
0.0002311486
0.0001925591
0.0001850551
0.0002497961
0.0003171145
0.0002187958
0.0001625891
0.0001857499
0.0002990988
0.0002835412
0.0001825548
0.0001627029
0.0002166538
0.0002745754
0.0002076894
0.0001706658
0.0001933399
0.0002314494
0.0002074784
0.0001834558
0.0001934326
0.0002049327
0.0001937363
0.0001898469
0.0001976623
0.0001953956
0.0001886758
0.0001851274
0.0001861025
0.000196864
0.0002021673
0.0001887599
0.000171434
0.0001668055
0.0001900948
0.0002270819
0.0001987257
0.0001504567
0.0001448491
0.000191367
0.0002777814
0.0001825495
0.0001195973
0.0001369805
0.0002415486
0.0002371585
0.0001207208
0.0001166276
0.0001646666
0.000173682
0.0001184486
9.471068e-05
8.561442e-05
7.73483e-05
6.156143e-05
1.988407e-05
0.0002260095
0.0002547065
0.0002930776
0.0003413049
0.000381474
0.0004425162
0.0005155499
0.0005784467
0.0006222954
0.0006992292
0.0008182016
0.0009177433
0.0009500417
0.0009998561
0.001128175
0.001276184
0.001337527
0.001361209
0.001460446
0.001613638
0.001703818
0.00172861
0.001804854
0.001926722
0.002008216
0.002053689
0.00212583
0.002199901
0.002239244
0.002277864
0.002333796
0.002367087
0.002389937
0.002389388
0.002387539
0.002399736
0.002409627
0.002398066
0.002337924
0.002259838
0.002147533
0.002192742
0.00212557
0.001996167
0.001860394
0.001318683
0.001583923
0.001559213
0.001373167
0.001141059
0.001024501
0.000959137
0.000796167
0.0006669732
0.0005125132
0.0003483955
0.0002097791
0.000107357
5.794745e-05
2.846944e-05
0.0002732992
0.0003860746
0.0004694392
0.0005843437
0.0007079418
0.0008556459
0.001015897
0.001179275
0.001342097
0.001515104
0.00169997
0.001876139
0.002034514
0.002195945
0.002367004
0.002531875
0.002672355
0.002804951
0.002940736
0.003071607
0.003184147
0.003285139
0.003384823
0.003478242
0.003559409
0.003631896
0.003699175
0.003755775
0.003806858
0.003849782
0.003886688
0.003916148
0.003937903
0.003951372
0.003956996
0.003955067
0.003944644
0.003925274
0.003896974
0.003859594
0.003812153
0.003752657
0.003681068
0.003599411
0.003503372
0.003284618
0.00318922
0.002986223
0.002735227
0.00259674
0.002224158
0.001967294
0.001602099
0.001381167
0.001276453
0.000883922
0.0004913859
0.0001779668
5.737932e-05
3.358888e-05
0.0003074261
0.0004850248
0.0006261531
0.0008137033
0.001021217
0.001252587
0.001497472
0.001747688
0.002001447
0.0022567
0.00250824
0.002716851
0.002969109
0.003177728
0.00337538
0.003559765
0.003729264
0.003885884
0.004031142
0.004165041
0.004287688
0.004400363
0.004503814
0.004598026
0.00468337
0.004760491
0.004827501
0.004890339
0.00494323
0.004987177
0.005023131
0.005051582
0.005071229
0.005081082
0.005080775
0.005069928
0.005047985
0.005014237
0.004967801
0.004907583
0.004832344
0.004740824
0.004630319
0.004502729
0.004356032
0.004187966
0.003995506
0.003778368
0.003536323
0.002914776
0.002452164
0.002300104
0.002073444
0.001931365
0.001525808
0.001094409
0.0006551305
0.0002630498
5.875794e-05
3.411824e-05
0.0003452681
0.0005897624
0.0007941947
0.00104899
0.001328392
0.001627794
0.001937289
0.002248406
0.002555458
0.002852844
0.003140179
0.003414504
0.003671106
0.00390585
0.004120404
0.004318839
0.004502595
0.004671733
0.004827511
0.004971236
0.005103953
0.005226478
0.005339308
0.005442857
0.005537579
0.005622579
0.005700246
0.005769738
0.005829141
0.005879391
0.005921015
0.005953367
0.005975659
0.00598724
0.005988148
0.005977709
0.005955273
0.005920174
0.005871725
0.005809168
0.005731626
0.005638203
0.005527583
0.005396056
0.005248475
0.005078245
0.004884153
0.004665354
0.003902694
0.00355509
0.003498312
0.003296352
0.002928565
0.002504385
0.001989991
0.001426989
0.0008450951
0.0003269788
5.880467e-05
3.510091e-05
0.0003642823
0.0006837669
0.0009445899
0.001250657
0.001583228
0.001932571
0.002288632
0.002641692
0.002984539
0.003310707
0.003618249
0.003906759
0.004177343
0.004430452
0.004663347
0.004877017
0.005074872
0.005258409
0.00542874
0.005587001
0.00573416
0.005870391
0.005996039
0.006111882
0.006218212
0.006312744
0.006400847
0.006478028
0.00654461
0.006600971
0.006646516
0.006681139
0.006704224
0.006714834
0.006712885
0.006697634
0.006668459
0.006624545
0.00656505
0.006489072
0.006395594
0.00628347
0.006151436
0.005998141
0.005820076
0.005618893
0.00539187
0.005134254
0.004839758
0.004502564
0.004123048
0.003703377
0.003241806
0.002734687
0.002180383
0.00158412
0.0009646947
0.0003906482
5.926207e-05
3.626757e-05
0.0003816498
0.000764908
0.00107559
0.0014201
0.001789177
0.002170623
0.002553671
0.002929323
0.003291744
0.003637192
0.003963971
0.004272
0.004561837
0.004831322
0.005082299
0.00531503
0.005530582
0.005730627
0.005916608
0.006089653
0.006250604
0.006400557
0.00654013
0.006669099
0.006784957
0.006892747
0.006989672
0.007075383
0.007149511
0.007211736
0.007261467
0.00729885
0.007323096
0.007333627
0.007330073
0.007311629
0.007277755
0.00722789
0.007161393
0.007077516
0.006975372
0.006853897
0.006711857
0.006547601
0.006357651
0.006145496
0.005903607
0.005627368
0.005313689
0.004960489
0.004564476
0.004120794
0.003624219
0.003070517
0.002458021
0.001790978
0.001091446
0.0004410103
5.949537e-05
3.750401e-05
0.0003935326
0.0008305909
0.001184263
0.001554584
0.001943981
0.002342782
0.002743335
0.003138957
0.00352118
0.003884741
0.004228104
0.004550383
0.004850832
0.005133061
0.005398578
0.005648919
0.005883831
0.006103645
0.006309383
0.006502016
0.006681838
0.006849008
0.007003373
0.007145859
0.007275819
0.007397069
0.007505889
0.007601556
0.007683815
0.007752301
0.007806639
0.007847073
0.007872649
0.007882698
0.007876679
0.007854037
0.00781425
0.007756779
0.007681033
0.007586315
0.007471765
0.007336316
0.007178487
0.006997222
0.00678828
0.006554003
0.006287696
0.005986535
0.005647489
0.005267248
0.00484161
0.004366309
0.003837439
0.003251866
0.002608416
0.001911033
0.001178692
0.0004872165
5.967847e-05
3.972964e-05
0.0004042726
0.0008780053
0.001268346
0.001658315
0.002063768
0.002478189
0.002891057
0.003294081
0.003683709
0.004057529
0.004413205
0.004749951
0.005067981
0.005368361
0.005652022
0.005920695
0.006175751
0.006416526
0.006642012
0.00685226
0.007050375
0.007236535
0.007411028
0.007570266
0.007718839
0.007853559
0.007973939
0.008079574
0.008170042
0.008244889
0.008303829
0.008346936
0.008373316
0.008382279
0.00837326
0.008345723
0.008299129
0.008233032
0.008147034
0.008040738
0.007913755
0.007765464
0.007593084
0.007396107
0.007171112
0.006919504
0.006636818
0.00631984
0.00596397
0.00556712
0.00512346
0.004627629
0.004074666
0.003459974
0.002781112
0.00204161
0.001262202
0.0005244009
5.98628e-05
3.870383e-05
0.0004245133
0.0009158534
0.001335793
0.00174274
0.00215637
0.002574932
0.002992058
0.003401526
0.003799317
0.004182858
0.004550593
0.004901942
0.005237017
0.005556345
0.005860511
0.006148486
0.006419785
0.006678945
0.006926227
0.007161486
0.007382433
0.007589291
0.007781943
0.007958229
0.008121769
0.00826973
0.008401648
0.008517042
0.008615421
0.008696286
0.008759341
0.008804481
0.008830925
0.008838083
0.008825515
0.008792748
0.008738405
0.008662166
0.008563794
0.008442844
0.008298681
0.008130624
0.007940286
0.007725642
0.007483364
0.007213504
0.006912462
0.006577661
0.006206543
0.00579159
0.005327144
0.004808417
0.004231997
0.003593314
0.002890458
0.002127154
0.001322862
0.0005564287
5.989185e-05
3.831738e-05
0.0004243806
0.0009338628
0.00138031
0.001800958
0.002220579
0.002642167
0.003062022
0.003475679
0.003879761
0.00427203
0.004651123
0.005016354
0.005367467
0.005704409
0.006025218
0.0063332
0.006629711
0.006912217
0.007181344
0.007436682
0.007677506
0.007903246
0.008113378
0.008306701
0.008484366
0.008644898
0.00878771
0.008912228
0.009017884
0.009104116
0.009170545
0.009216823
0.009242117
0.009245769
0.009227191
0.009185999
0.009122924
0.009037509
0.008929103
0.008797154
0.008641127
0.008460499
0.00825454
0.008022517
0.007762817
0.007475055
0.007156446
0.006803891
0.006413294
0.005980354
0.00550143
0.004970069
0.004377559
0.003720064
0.00299535
0.002206915
0.001375088
0.0005814634
5.996913e-05
4.354422e-05
0.0004007117
0.0009347681
0.001410604
0.001846667
0.002271602
0.002694147
0.003114266
0.00352962
0.003937824
0.004337003
0.004725826
0.005103449
0.005469338
0.005822076
0.006164028
0.006493279
0.006809501
0.007111977
0.007400348
0.007674175
0.007932762
0.008175319
0.008401067
0.008609714
0.008800707
0.008973132
0.00912626
0.009259395
0.00937187
0.009463028
0.009532332
0.009579346
0.009603601
0.00960466
0.009582078
0.009535432
0.009464306
0.009368372
0.009247351
0.009100996
0.00892909
0.008731436
0.008507751
0.008257622
0.007980435
0.00767555
0.007341206
0.006974712
0.006571914
0.006127283
0.005634393
0.005087065
0.004480298
0.003807075
0.003066532
0.002262077
0.001413685
0.0006019352
5.992713e-05
4.292867e-05
0.0004029833
0.0009326706
0.001424964
0.001872507
0.00230186
0.002725571
0.00314658
0.003564005
0.003976099
0.004381332
0.004778629
0.00516712
0.005545917
0.005914821
0.006271679
0.006615315
0.006938011
0.007233857
0.007570763
0.007861731
0.00813847
0.00840043
0.008643431
0.008867922
0.00907244
0.009256132
0.00941823
0.009558221
0.009675651
0.009770037
0.009840994
0.009888108
0.009910755
0.00990842
0.009880649
0.00982705
0.009747293
0.009641121
0.009508342
0.009348828
0.009162518
0.008949386
0.008709354
0.008441542
0.008147268
0.007825974
0.007477269
0.007099126
0.006687015
0.006234466
0.005734225
0.005178955
0.004561777
0.003878893
0.003126138
0.002307357
0.001443397
0.0006166312
5.994042e-05
4.312022e-05
0.0003941617
0.000921154
0.001426738
0.00188469
0.002318889
0.002743477
0.003163927
0.003581359
0.003995317
0.004404751
0.004808287
0.005204117
0.005589081
0.005960519
0.006084282
0.006233035
0.006450584
0.006714515
0.007065432
0.007441488
0.007811495
0.008099557
0.008376118
0.00867694
0.009042875
0.009419159
0.009650431
0.009796407
0.009918837
0.01001685
0.01008975
0.01013701
0.01015812
0.0101526
0.01012006
0.01006017
0.009972679
0.009857411
0.009714214
0.009543022
0.009343918
0.009117137
0.008824625
0.008420355
0.008001203
0.007635745
0.007371085
0.007139891
0.006762275
0.006307151
0.005803565
0.005243711
0.004620782
0.00392934
0.003167312
0.002338899
0.001465008
0.0006279006
5.988918e-05
4.391236e-05
0.0003840833
0.0009047226
0.001418949
0.001888493
0.002329447
0.002756834
0.003178204
0.0035963
0.004011258
0.004421849
0.004825906
0.005220382
0.005499317
0.005687202
0.005871682
0.006055371
0.006232961
0.00643668
0.006682757
0.007006207
0.007360178
0.007719751
0.008059621
0.008394763
0.00871061
0.009021979
0.009323389
0.009615706
0.009902881
0.01016226
0.01027651
0.01032402
0.01034393
0.0103358
0.01029926
0.01023407
0.01014011
0.01001739
0.009824358
0.009557318
0.009242507
0.008882335
0.008473269
0.008059025
0.007694746
0.007385682
0.007125113
0.006920912
0.006748489
0.006353379
0.005850422
0.005288942
0.00466248
0.003966127
0.003197834
0.00236187
0.001479727
0.0006349387
5.985847e-05
4.473283e-05
0.000374626
0.0008872465
0.001407936
0.001886686
0.002333756
0.002764124
0.00318648
0.003604476
0.004018774
0.004428336
0.004831087
0.005224219
0.005520177
0.005693607
0.005825309
0.005955258
0.006116878
0.006348854
0.006619685
0.006903769
0.007195038
0.007524618
0.007859028
0.008189245
0.008513024
0.008818976
0.009097675
0.009351209
0.009592332
0.009835129
0.01008754
0.01016799
0.01009456
0.01004809
0.009993621
0.009914644
0.009802531
0.009652058
0.009458825
0.009220338
0.008937355
0.008612926
0.00825156
0.007864038
0.007470422
0.007127404
0.006886746
0.006749338
0.006643039
0.006383526
0.005882131
0.005320146
0.004691478
0.003991617
0.003218853
0.002377892
0.001490429
0.0006400899
5.980878e-05
4.542546e-05
0.000366481
0.0008697881
0.001391899
0.001876161
0.00232999
0.002764294
0.003187968
0.003605507
0.004018325
0.004425934
0.004826643
0.005217865
0.005484366
0.005618202
0.005730051
0.005880048
0.006094616
0.006324821
0.006558291
0.006815886
0.007106564
0.007406086
0.007720633
0.008032016
0.008329688
0.008606903
0.008860727
0.009093954
0.009317226
0.009550586
0.009831272
0.009933727
0.009840933
0.009772964
0.00970965
0.009635063
0.009535391
0.009399845
0.009220635
0.008994026
0.008720367
0.008403253
0.008051913
0.007685184
0.007329808
0.00701389
0.006761502
0.006600674
0.0065121
0.006384224
0.005903955
0.00534236
0.004712522
0.00401025
0.003234278
0.00238984
0.001497936
0.0006430454
5.976477e-05
4.607629e-05
0.0003596331
0.0008523394
0.001374114
0.001864917
0.002323203
0.002760424
0.003185057
0.003601839
0.004012663
0.004417475
0.004814861
0.005202726
0.00546104
0.005617939
0.005753633
0.005904923
0.00607874
0.006286339
0.00653858
0.006806293
0.00709156
0.007382645
0.007681471
0.007975358
0.008256238
0.008516942
0.008753311
0.008967379
0.009171997
0.009399159
0.009712512
0.00985356
0.009748098
0.009654075
0.009574413
0.00949143
0.009387546
0.009250255
0.009071773
0.00884816
0.008578904
0.008267071
0.007920714
0.007555497
0.007197004
0.006879098
0.006638166
0.00649625
0.00643235
0.00632906
0.005916941
0.005356945
0.004727142
0.004023694
0.003245655
0.002398054
0.001503932
0.0006455285
5.970384e-05
4.657722e-05
0.000353793
0.0008358797
0.001355017
0.001848799
0.002311289
0.00275232
0.003178309
0.003594495
0.004003403
0.004405559
0.004800093
0.005184661
0.005448995
0.005613192
0.005757091
0.005919113
0.006111502
0.006332185
0.006571882
0.006837929
0.007122653
0.007423045
0.007718482
0.008003068
0.008271446
0.008518709
0.008742979
0.008948101
0.009145221
0.009351489
0.009583278
0.009833605
0.009820969
0.009623804
0.009511092
0.009416856
0.009306397
0.009162971
0.008978548
0.008749767
0.008476766
0.008163447
0.00781875
0.007458289
0.007105243
0.006788566
0.006541642
0.006390569
0.006327242
0.006254566
0.005922902
0.005364257
0.004734096
0.004029285
0.003249533
0.002400688
0.001504987
0.0006458312
5.965823e-05
4.709413e-05
0.0003493744
0.0008213724
0.001336482
0.001831742
0.002298399
0.002740959
0.003168183
0.003584185
0.003991685
0.004391697
0.004783877
0.005166902
0.005472511
0.005659879
0.005820083
0.00598981
0.006183628
0.006404728
0.00665167
0.006921199
0.007206548
0.007498172
0.007783753
0.008059995
0.008319488
0.008556548
0.008769089
0.008961029
0.009144015
0.009336395
0.009557279
0.009822211
0.00983788
0.009632929
0.009494441
0.009376247
0.009249131
0.009094923
0.008903554
0.008670631
0.008396006
0.008083486
0.007741627
0.007385216
0.007036564
0.006724024
0.006481074
0.006334437
0.006278606
0.006223593
0.005927798
0.005369843
0.004739482
0.004033973
0.00325331
0.002403465
0.001506583
0.0006470255
5.960841e-05
4.742999e-05
0.0003458957
0.0008086054
0.00131869
0.001814147
0.00228311
0.002728882
0.003156971
0.003572775
0.003979381
0.004378158
0.004769341
0.005151933
0.005525089
0.005734841
0.005911626
0.006095681
0.006299406
0.00652697
0.006776881
0.007046126
0.00732507
0.007607646
0.0078859
0.008152773
0.008400793
0.00862518
0.008824073
0.009000587
0.009165072
0.009336625
0.009542614
0.009818151
0.009854947
0.009645935
0.009486418
0.00934633
0.009201964
0.009035463
0.008835714
0.008597528
0.008320478
0.008008342
0.00766948
0.007317929
0.006974602
0.006666027
0.006424735
0.006278541
0.006226515
0.006187591
0.005929119
0.005371904
0.004741316
0.004035041
0.003253516
0.002403205
0.001506626
0.0006466974
5.954234e-05
4.790277e-05
0.0003439807
0.0007985306
0.001303003
0.001797246
0.002267513
0.002714995
0.003144544
0.003560878
0.003967292
0.004365592
0.004756454
0.005140131
0.005515214
0.005838029
0.006043883
0.006241606
0.006454072
0.006685462
0.006936298
0.007201114
0.007473878
0.007747264
0.008015988
0.008270123
0.008504417
0.008714579
0.008898645
0.009058909
0.009204634
0.009355134
0.009541928
0.00980956
0.009863631
0.009664329
0.009488803
0.009327901
0.009165841
0.00898643
0.008778038
0.008534716
0.008255575
0.007944109
0.00760829
0.007261468
0.006923614
0.006620175
0.006382851
0.006239433
0.006191018
0.006162336
0.005929857
0.005372982
0.004742016
0.004035041
0.003252813
0.002401949
0.00150565
0.0006464548
5.950111e-05
4.814567e-05
0.0003428356
0.0007900153
0.001288635
0.00178103
0.002251848
0.002700851
0.00313185
0.003549159
0.003956093
0.004354755
0.004746227
0.005130852
0.005509158
0.00588091
0.006199539
0.006415948
0.006635471
0.006872682
0.007123359
0.007383649
0.00764918
0.007912978
0.008167679
0.008407215
0.008626709
0.00882228
0.008991885
0.00913669
0.009263159
0.00938734
0.009543454
0.009796225
0.009891254
0.009701374
0.00949067
0.009312129
0.009136962
0.008946421
0.008729348
0.008480327
0.008198576
0.007887425
0.007554451
0.007212293
0.006879714
0.006581624
0.006348688
0.006208605
0.006164037
0.006143783
0.005929705
0.005372905
0.004741442
0.004033788
0.003251077
0.002400277
0.001504205
0.000645605
5.943758e-05
4.85983e-05
0.00034284
0.0007841502
0.001277194
0.001767102
0.002237852
0.002687708
0.00311997
0.003538492
0.003946502
0.004346269
0.004739181
0.005125956
0.005506894
0.00588186
0.006251031
0.006614244
0.006854468
0.007083543
0.00733176
0.00759042
0.007848453
0.008099105
0.008338892
0.00856356
0.008768053
0.008948191
0.009102573
0.009233493
0.009348145
0.009459122
0.009582452
0.009729063
0.009879871
0.009783719
0.009513904
0.009307008
0.009115972
0.008914379
0.008689018
0.008434399
0.008149915
0.007838844
0.007508434
0.007170709
0.006843405
0.006551061
0.006323345
0.006187501
0.006146762
0.006132288
0.005929645
0.005372534
0.00474031
0.004031793
0.003248442
0.002397518
0.001502118
0.0006447416
5.941403e-05
4.869549e-05
0.0003440753
0.000780379
0.001267549
0.001754482
0.002224587
0.002675441
0.003109172
0.003529279
0.003938899
0.0043404
0.004735367
0.005124744
0.005509004
0.005888285
0.006262541
0.006631493
0.00699422
0.007337159
0.007574813
0.007811881
0.008062729
0.008307312
0.008535991
0.00874141
0.008928477
0.009092153
0.009230466
0.009345045
0.00944239
0.009534102
0.009633714
0.009747973
0.00987881
0.009798611
0.009536457
0.009315532
0.00910676
0.008890745
0.008655378
0.008394626
0.00810728
0.007796183
0.007468162
0.007134714
0.006812859
0.006526451
0.006304457
0.006173606
0.006137122
0.006126993
0.005930043
0.005372334
0.004739191
0.004029765
0.003245812
0.002394826
0.001500026
0.0006437054
5.936826e-05
4.882263e-05
0.0003472734
0.0007778959
0.001259839
0.001743942
0.002213423
0.002664944
0.00310018
0.003522126
0.0039338
0.004337585
0.004735177
0.005127656
0.005515601
0.005899196
0.006278293
0.006652417
0.007020767
0.007382052
0.007734794
0.008077272
0.008316936
0.008529439
0.008738137
0.008940081
0.009114967
0.009261062
0.009380549
0.009476404
0.009553548
0.009620096
0.009688123
0.009774824
0.009892569
0.009816579
0.009556865
0.009324592
0.009101029
0.008871871
0.008626818
0.008360011
0.008069878
0.007758803
0.00743316
0.007103957
0.006787611
0.006507375
0.006291559
0.006166241
0.006134107
0.006126858
0.00593122
0.005372564
0.00473823
0.004027673
0.003242932
0.002391741
0.001497599
0.0006425881
5.936051e-05
5.09413e-05
0.0003413669
0.0007747241
0.001253609
0.001735501
0.002204373
0.002656575
0.003093357
0.00351746
0.003931674
0.004338343
0.004739203
0.005135395
0.005527536
0.005915791
0.006299915
0.006679277
0.007052889
0.007419404
0.007777161
0.008124009
0.008457935
0.008776321
0.008976158
0.009147228
0.009299921
0.009429377
0.009531565
0.00960935
0.009667592
0.009713232
0.009756347
0.009810721
0.009896809
0.00982072
0.00957282
0.009332971
0.009096095
0.008854867
0.008601066
0.008328952
0.008036571
0.007725868
0.007402785
0.007077898
0.006767127
0.006493228
0.006283941
0.006164636
0.006137059
0.006131631
0.005933529
0.005373689
0.004737991
0.004026199
0.003240625
0.002389215
0.001495487
0.0006415373
5.933614e-05
5.329971e-05
0.0003447751
0.00076418
0.001251115
0.001729678
0.002197598
0.002650561
0.003089278
0.003515866
0.003933179
0.004343428
0.004748318
0.005148986
0.005546025
0.005939533
0.006329146
0.00671408
0.007093159
0.007464849
0.007827284
0.008178321
0.008515615
0.008836623
0.009138847
0.009367236
0.009501079
0.009605279
0.009687504
0.009746701
0.009785894
0.009809862
0.009826542
0.009850464
0.009906147
0.009826564
0.009585097
0.009337841
0.009090607
0.008839658
0.00857846
0.008301787
0.008007573
0.007697424
0.007376927
0.00705632
0.006751128
0.00648366
0.006281124
0.006168121
0.006145114
0.006140545
0.005937573
0.005375886
0.004738468
0.004025172
0.003238509
0.002386634
0.00149319
0.0006403969
5.934844e-05
5.456338e-05
0.000350143
0.0007534534
0.001251084
0.00172625
0.002193347
0.002647314
0.003088259
0.003518001
0.003939103
0.004353726
0.004763507
0.005169517
0.005572268
0.005971745
0.006367436
0.006758383
0.007143226
0.007520248
0.007887396
0.008242158
0.008582341
0.008905333
0.009208764
0.009489433
0.009731555
0.009827595
0.009880795
0.009913689
0.00992964
0.009932187
0.009925082
0.009910756
0.009885204
0.009831513
0.009633894
0.009344751
0.009083106
0.008825522
0.008559519
0.008279491
0.007983947
0.007674615
0.007356774
0.007040295
0.006740388
0.006479095
0.006283297
0.006176773
0.006158342
0.006153695
0.005942905
0.005379534
0.004740098
0.004025151
0.003237297
0.002384829
0.001491505
0.0006394452
5.934546e-05
5.477721e-05
0.0003548606
0.0007436208
0.001244539
0.001725075
0.00219133
0.002646513
0.003090071
0.003523831
0.003949751
0.004369818
0.004785557
0.005197929
0.00560732
0.00601356
0.006415949
0.006813333
0.007204129
0.007586205
0.007957271
0.008315456
0.00865796
0.008982142
0.009285764
0.009565465
0.009819148
0.01003925
0.01009266
0.01009891
0.01008739
0.01006303
0.01002795
0.009981877
0.00991973
0.009836596
0.009639115
0.009354839
0.009085158
0.008818354
0.008545827
0.008262196
0.007965276
0.007656176
0.007340199
0.007027504
0.006733016
0.006478112
0.00628926
0.006189432
0.006175958
0.006170735
0.005949362
0.005383972
0.004742719
0.004025933
0.003236635
0.002383297
0.001489862
0.0006384815
5.936565e-05
5.4735e-05
0.0003592029
0.0007353833
0.001230054
0.001726851
0.00219251
0.002649479
0.003096663
0.0035353
0.003966677
0.004393043
0.004815748
0.005235538
0.005652572
0.006066409
0.006475994
0.006879774
0.007275766
0.007662541
0.008037786
0.008398728
0.008742759
0.009067312
0.009369697
0.009647418
0.00989815
0.01011978
0.01029679
0.0103072
0.01026963
0.01021424
0.01014537
0.0100626
0.009966359
0.009855921
0.009649834
0.009365736
0.009089377
0.008815281
0.008536975
0.008249752
0.007952424
0.007645445
0.007333381
0.007024534
0.006733899
0.006483787
0.006301419
0.006208575
0.006199274
0.006192193
0.005958098
0.005390266
0.004746759
0.004027946
0.003237079
0.002382715
0.001488888
0.0006378098
5.937617e-05
5.526003e-05
0.000363717
0.0007285065
0.001215665
0.001731274
0.002196762
0.002655925
0.003107188
0.003551242
0.003990043
0.004424639
0.004855637
0.005283657
0.005708489
0.006129465
0.006545873
0.006956147
0.00735842
0.00775002
0.008128538
0.008491398
0.008835975
0.00915983
0.009460178
0.009734797
0.009981527
0.01019845
0.0103839
0.01050049
0.01046545
0.01038294
0.01028054
0.01016335
0.01003028
0.009882047
0.009661407
0.009380027
0.009100052
0.00882085
0.008539967
0.008252999
0.007955613
0.007646967
0.007333081
0.007026639
0.006741271
0.006498198
0.006321984
0.006235132
0.006230806
0.006222337
0.005968512
0.00539794
0.004751843
0.004030915
0.003238258
0.00238259
0.001488122
0.0006372462
5.94138e-05
5.55213e-05
0.0003683235
0.0007230411
0.001204186
0.001737974
0.002204333
0.0026666
0.003122942
0.003573649
0.004019788
0.004462258
0.004902054
0.005339178
0.005773306
0.006203491
0.006628001
0.007045094
0.007452636
0.007848185
0.00822918
0.008593015
0.00893711
0.009259152
0.009556438
0.009826954
0.01006874
0.0102801
0.01045963
0.01060619
0.01065217
0.01056429
0.01043013
0.01027474
0.01010348
0.009914952
0.009674489
0.009392008
0.009108674
0.008826026
0.008539731
0.008245853
0.00794429
0.007640924
0.007336458
0.007036033
0.006754772
0.006514681
0.006342339
0.006259234
0.006258523
0.006246845
0.005980467
0.005407216
0.004758572
0.004035323
0.003240638
0.002383443
0.001488033
0.0006368922
5.944959e-05
5.621773e-05
0.0003730891
0.0007189234
0.001194355
0.001746973
0.002215107
0.002681493
0.003143865
0.003602361
0.004057521
0.004509909
0.004959802
0.005406937
0.005850527
0.006289259
0.006721363
0.007144746
0.007557062
0.007955797
0.008338376
0.008702242
0.009044926
0.009364047
0.009657383
0.009922965
0.01015906
0.01036422
0.01053727
0.01067732
0.01078376
0.01073326
0.01058302
0.01039397
0.01018409
0.009953346
0.009690059
0.009403469
0.009112549
0.008821091
0.008529341
0.008237941
0.007943971
0.00764288
0.00733851
0.007039173
0.006761692
0.006527894
0.006362758
0.006284472
0.006283407
0.006267811
0.005993781
0.00541768
0.004766255
0.00404051
0.003243594
0.00238466
0.001488112
0.0006366479
5.949867e-05
5.63763e-05
0.0003779961
0.0007164985
0.001186007
0.001757722
0.002229015
0.002700822
0.003170841
0.0036385
0.004103901
0.004567136
0.005027967
0.005485685
0.005939089
0.006386517
0.006825932
0.007255027
0.007671333
0.008072315
0.008455456
0.008818301
0.009158513
0.009473859
0.00976235
0.01002223
0.010252
0.01045044
0.01061662
0.01074986
0.01084975
0.01088615
0.0107367
0.01051973
0.01027675
0.01000724
0.009714141
0.009414874
0.009118696
0.008828491
0.008542169
0.008252619
0.007956326
0.007653285
0.007348424
0.007051149
0.006776039
0.006545033
0.006384237
0.006314039
0.006320471
0.006303666
0.006008978
0.00542966
0.004775263
0.004046808
0.003247681
0.002386928
0.001489004
0.0006367924
5.95334e-05
5.684784e-05
0.0003826572
0.0007149058
0.001180663
0.001771171
0.002246876
0.002725293
0.003203867
0.003681664
0.004158251
0.004633132
0.005105483
0.005574075
0.006037275
0.006493092
0.006939265
0.007373374
0.007792917
0.008195388
0.008578334
0.008939389
0.00927638
0.009587284
0.009870331
0.01012401
0.01034706
0.01053852
0.01069768
0.01082409
0.01091752
0.01097793
0.01087314
0.01064327
0.01037423
0.01006915
0.009743939
0.009432986
0.009135254
0.008845635
0.008558014
0.008267609
0.007971791
0.007670769
0.007368036
0.007072644
0.006800262
0.006573138
0.006416867
0.006349849
0.006356707
0.006334334
0.006025483
0.005442818
0.004785266
0.004053951
0.003252378
0.002389247
0.001489732
0.000636887
5.958481e-05
5.841456e-05
0.0003867079
0.00071593
0.001176702
0.001782111
0.002268683
0.002755208
0.003244048
0.003733513
0.004222429
0.004709645
0.005193773
0.005673121
0.0061457
0.00660927
0.007061439
0.00749973
0.007921644
0.008324718
0.008706484
0.009064935
0.009397958
0.009703771
0.009980848
0.01022792
0.010444
0.01062834
0.01078045
0.01090008
0.01098715
0.0110418
0.01099235
0.01076265
0.01047726
0.010142
0.009786277
0.009461028
0.009156933
0.008865383
0.00857823
0.008289404
0.007994694
0.007693775
0.007391179
0.00709649
0.006825772
0.006601663
0.006450142
0.006389326
0.006401357
0.006376096
0.006043982
0.005457793
0.004796981
0.004062655
0.003258296
0.002393032
0.001491604
0.0006372915
5.963045e-05
5.664883e-05
0.0003990577
0.00071731
0.001174641
0.001785239
0.002293463
0.002788839
0.003288679
0.00379047
0.004292293
0.004792295
0.005288503
0.005778753
0.00626071
0.006731901
0.007189793
0.007631847
0.008055571
0.008458586
0.008838523
0.009193713
0.009522211
0.009822488
0.01009328
0.01033356
0.01054259
0.01071985
0.01086504
0.01097808
0.01105911
0.01110831
0.01110898
0.01088053
0.01058287
0.01022102
0.009835432
0.009494516
0.009184837
0.008892358
0.008605691
0.008316979
0.008022107
0.007720905
0.007418132
0.007123672
0.006853995
0.006632044
0.006483744
0.006426452
0.006440251
0.006410892
0.00606323
0.005473547
0.00480943
0.004072023
0.00326484
0.002397006
0.001493533
0.0006379151
5.96989e-05
5.560161e-05
0.0004048443
0.0007192591
0.001172628
0.00178483
0.002322287
0.002827665
0.003339537
0.003854548
0.00436994
0.004883131
0.005391545
0.005892563
0.006383528
0.006861766
0.007324647
0.007769628
0.008194302
0.008596447
0.0089739
0.009325222
0.009648718
0.009943121
0.01020742
0.01044084
0.01064286
0.01081318
0.01095168
0.01105844
0.0111336
0.01117754
0.01119063
0.0109804
0.01067488
0.01029153
0.009881909
0.009528557
0.009214258
0.008921174
0.008635312
0.008347396
0.008052759
0.007751246
0.007447986
0.007153341
0.006884272
0.006664141
0.006519022
0.006465671
0.006481879
0.006448368
0.006083775
0.005490428
0.004822837
0.004082182
0.003272048
0.002401713
0.001495869
0.0006386732
5.975274e-05
5.691223e-05
0.0004020202
0.0007226675
0.001172105
0.001787322
0.002354921
0.002871594
0.003396522
0.003925491
0.004454894
0.004981415
0.0055019
0.006013309
0.006512707
0.00699728
0.007464367
0.007911491
0.008336382
0.008737008
0.009111472
0.009458504
0.009776707
0.01006507
0.01032282
0.01054943
0.01074458
0.01090814
0.01104015
0.01114089
0.01121056
0.01124953
0.01125823
0.01106006
0.01075425
0.01035531
0.009926235
0.009563391
0.009246324
0.008953715
0.008669057
0.008381831
0.008087071
0.007784838
0.007480676
0.007185426
0.006916524
0.006697721
0.006555223
0.006505245
0.006523568
0.006486275
0.006105212
0.005508157
0.004837046
0.004093065
0.003279806
0.002406571
0.001498342
0.0006394095
5.983315e-05
5.942294e-05
0.0004053989
0.0007276237
0.001173
0.001790943
0.002391402
0.002920291
0.003459013
0.004002423
0.004546051
0.005085861
0.005618149
0.006139499
0.006646753
0.00713701
0.007607634
0.008056255
0.008480775
0.008879379
0.00925048
0.009592944
0.009905697
0.01018798
0.01043925
0.01065921
0.01084773
0.01100485
0.01113083
0.01122579
0.0112902
0.01132445
0.01132899
0.01112983
0.01082313
0.01041478