/*--------------------------------*- C++ -*----------------------------------*\
| =========                 |                                                 |
| \\      /  F ield         | OpenFOAM: The Open Source CFD Toolbox           |
|  \\    /   O peration     | Version:  2312                                  |
|   \\  /    A nd           | Website:  www.openfoam.com                      |
|    \\/     M anipulation  |                                                 |
\*---------------------------------------------------------------------------*/
FoamFile
{
    version     2.0;
    format      ascii;
    arch        "LSB;label=32;scalar=64";
    class       volScalarField;
    location    "5400";
    object      omega;
}
// * * * * * * * * * * * * * * * * * * * * * * * * * * * * * * * * * * * * * //

dimensions      [0 0 -1 0 0 0 0];

internalField   nonuniform List<scalar> 
12000
(
52.13392
17.43183
18.8213
20.22298
21.33537
22.38418
23.27304
24.01245
24.64877
25.24477
25.82891
26.32509
26.71308
27.08539
27.45616
27.81662
28.08198
28.30246
28.52044
28.74799
28.92731
29.05021
29.16856
29.28529
29.37946
29.43269
29.47577
29.50717
29.51028
29.50629
29.4776
29.44503
29.38068
29.2992
29.11514
28.9405
28.84655
28.78509
28.59637
28.21755
27.73917
27.43415
27.36184
27.12045
26.37543
25.56337
25.28342
25.21384
24.87773
23.54185
22.77081
22.54825
22.05265
20.87576
19.82157
18.94641
17.90817
16.81347
15.67613
37.58634
91.82746
20.36879
19.40157
19.92183
20.12658
20.12933
20.1169
19.90951
19.44809
18.84625
18.35632
17.64506
17.0623
16.69804
16.24095
15.5394
14.72539
14.47352
14.29055
13.81798
13.13228
12.82244
12.76006
12.47832
12.04491
11.8099
11.71551
11.51936
11.33305
11.2812
11.21523
11.08686
11.06615
11.07235
11.15615
11.22826
11.23138
11.22235
11.30797
11.60799
11.99369
12.13509
12.1639
12.35891
13.02533
13.78107
14.20507
14.14041
14.70951
16.17032
17.32161
17.81446
18.69791
20.79268
22.92754
25.01624
28.67986
35.4333
48.38504
70.30829
94.39286
20.75835
18.4954
18.2212
17.41363
16.68137
15.94637
15.22537
14.42798
13.54134
12.73816
12.08186
11.52785
11.01236
10.51562
10.08153
9.739119
9.469796
9.199836
8.94091
8.735393
8.591064
8.462527
8.33416
8.233511
8.169697
8.122614
8.084408
8.071027
8.069002
8.078699
8.094536
8.13194
8.189117
8.254677
8.326332
8.403858
8.496702
8.614056
8.75223
8.896508
9.037689
9.189854
9.374303
9.588239
9.82154
10.06775
10.35505
10.67877
11.05139
11.52171
12.12447
12.80187
13.66638
14.82587
16.7327
20.17164
26.50824
42.3235
76.92416
96.34641
19.96822
16.67684
16.11833
15.14436
14.23046
13.33797
12.46083
11.61547
10.83775
10.18942
9.632505
9.131054
8.687435
8.311446
7.999949
7.739716
7.513483
7.316835
7.152305
7.01992
6.912936
6.824171
6.752901
6.700441
6.664844
6.643047
6.636953
6.638252
6.653719
6.675351
6.70886
6.757917
6.816901
6.885479
6.964323
7.054066
7.155367
7.269519
7.397606
7.540197
7.697776
7.872039
8.066627
8.286486
8.539688
8.825747
9.153341
9.532941
9.981279
10.52189
11.11789
11.7864
12.68018
13.8748
15.69513
18.60416
24.1876
38.60139
82.3018
98.16617
19.16521
15.30627
14.52111
13.49436
12.51134
11.5792
10.70372
9.921134
9.239075
8.674326
8.205151
7.801195
7.439249
7.115798
6.849616
6.626514
6.434824
6.27296
6.139433
6.029709
5.940519
5.869247
5.81435
5.774679
5.748897
5.736957
5.735679
5.745265
5.763273
5.790863
5.831024
5.881076
5.94079
6.009703
6.08859
6.177546
6.276538
6.385997
6.50647
6.638516
6.782768
6.940618
7.112043
7.299656
7.505133
7.731428
7.987943
8.283208
8.623366
9.000413
9.438642
10.02446
10.82483
11.94513
13.58759
16.3002
21.64353
36.03242
86.078
99.84346
19.20607
14.2214
13.24024
12.22245
11.25321
10.35972
9.555387
8.854586
8.254266
7.74174
7.305532
6.930211
6.61633
6.344322
6.102824
5.899532
5.728729
5.585187
5.465351
5.366595
5.286759
5.224025
5.176932
5.144255
5.1249
5.119629
5.123201
5.138485
5.164463
5.200725
5.247171
5.303722
5.370563
5.446032
5.530843
5.626772
5.733131
5.850062
5.978126
6.118041
6.270736
6.437454
6.620029
6.820489
7.03684
7.280221
7.554716
7.852616
8.181991
8.573693
9.056562
9.659658
10.43319
11.47772
13.00598
15.50361
20.39855
33.8674
89.03823
101.5014
19.18181
13.39724
12.22563
11.23473
10.31383
9.481323
8.745257
8.107254
7.559874
7.091005
6.689206
6.344324
6.047198
5.798023
5.583939
5.39551
5.235498
5.100866
4.989034
4.897628
4.824726
4.76872
4.728264
4.702211
4.69111
4.69057
4.702014
4.725066
4.759127
4.803826
4.858316
4.922441
4.99685
5.081179
5.1748
5.278281
5.391929
5.515889
5.650404
5.795813
5.95258
6.121345
6.303172
6.498579
6.712745
6.944901
7.191389
7.462674
7.772066
8.134591
8.569619
9.110324
9.814021
10.78455
12.22822
14.6243
19.37394
32.52929
91.21541
103.2384
19.36426
12.79791
11.42573
10.45991
9.596927
8.826109
8.148967
7.562089
7.05667
6.621714
6.2471
5.924182
5.645818
5.405918
5.203956
5.032685
4.883715
4.757211
4.652453
4.567671
4.501218
4.451633
4.417651
4.398186
4.393279
4.399595
4.418177
4.448363
4.489626
4.541554
4.60408
4.676571
4.7587
4.850615
4.952327
5.063912
5.185507
5.317244
5.459291
5.611868
5.775292
5.950242
6.137174
6.339083
6.55553
6.785153
7.034593
7.310727
7.622351
7.982338
8.41138
8.942063
9.628125
10.56588
11.94754
14.21971
18.70099
31.22701
92.795
104.7949
19.46979
12.3904
10.80771
9.848059
9.036627
8.322699
7.69793
7.154992
6.684804
6.277969
5.925923
5.621293
5.357925
5.130748
4.935788
4.771699
4.633808
4.517031
4.42021
4.34234
4.28226
4.238774
4.210741
4.198594
4.198271
4.210715
4.235313
4.271462
4.318669
4.376549
4.445571
4.525057
4.613977
4.712583
4.821007
4.939374
5.067829
5.20646
5.355314
5.514401
5.683719
5.863112
6.055105
6.258362
6.472329
6.699652
6.943952
7.210711
7.509378
7.850089
8.253827
8.752703
9.399686
10.29081
11.61738
13.82177
18.19866
30.43299
94.0059
79.593
19.02922
12.07532
10.32752
9.361972
8.593282
7.928263
7.34737
6.841222
6.401289
6.019329
5.687837
5.400344
5.151435
4.936634
4.752154
4.594979
4.464294
4.356589
4.267827
4.197152
4.143524
4.10595
4.083431
4.075967
4.080615
4.097869
4.127086
4.16773
4.219363
4.281646
4.355286
4.439739
4.533764
4.637543
4.751173
4.874762
5.008941
5.153775
5.309246
5.475387
5.652307
5.83984
6.036314
6.242612
6.459187
6.687956
6.931531
7.194193
7.482219
7.811482
8.203071
8.688604
9.317965
10.18478
11.47269
13.60469
17.82287
29.6349
94.85362
81.35268
19.3757
11.95801
9.993429
8.988679
8.243875
7.61804
7.076157
6.604088
6.192367
5.833281
5.520428
5.24836
5.012465
4.808851
4.634204
4.485581
4.360881
4.258963
4.177674
4.11372
4.065919
4.033513
4.015591
4.011652
4.020131
4.040831
4.073219
4.116849
4.171371
4.236523
4.313038
4.400608
4.498196
4.606
4.724223
4.852991
4.991817
5.140772
5.299995
5.469532
5.649348
5.839609
6.039885
6.249642
6.468567
6.69752
6.93864
7.196494
7.479197
7.799061
8.17352
8.634169
9.237743
10.07532
11.32858
13.41628
17.56158
29.15139
95.4797
109.1156
20.86231
12.02495
9.76479
8.697618
7.964726
7.370093
6.860048
6.416227
6.028917
5.691165
5.396727
5.140549
4.918417
4.726751
4.562489
4.423028
4.306035
4.209924
4.133399
4.074916
4.032455
4.004541
3.990421
3.989216
4.000279
4.023158
4.057423
4.102728
4.158815
4.225518
4.303479
4.392564
4.491916
4.601617
4.7218
4.852618
4.994233
5.146753
5.310213
5.484548
5.669555
5.864975
6.070159
6.284315
6.506778
6.737006
6.976271
7.22847
7.501499
7.808868
8.171721
8.622042
9.209928
10.03049
11.25911
13.30442
17.35771
28.67603
95.88308
84.15877
20.98889
12.08991
9.621235
8.485263
7.746389
7.16994
6.685595
6.267514
5.903367
5.585317
5.30772
5.066023
4.856456
4.67617
4.522771
4.393939
4.286421
4.197747
4.126654
4.07211
4.032618
4.00668
3.994747
3.995306
4.007951
4.032169
4.067556
4.113827
4.170792
4.238342
4.316875
4.406374
4.506443
4.617198
4.738801
4.871435
5.01529
5.170529
5.337243
5.515388
5.704731
5.904805
6.114924
6.333813
6.560269
6.793076
7.031848
7.279089
7.54303
7.838253
8.186684
8.621324
9.194945
9.995094
11.2018
13.22021
17.22917
28.40481
96.21411
84.98079
21.60762
12.25412
9.552659
8.335241
7.582549
7.019542
6.557237
6.161299
5.81694
5.516073
5.2537
5.026163
4.830859
4.665426
4.523094
4.398822
4.294041
4.207685
4.138777
4.086759
4.050759
4.029824
4.021629
4.025167
4.039809
4.065113
4.100906
4.147218
4.203977
4.271145
4.349032
4.437885
4.537685
4.648542
4.770603
4.90405
5.049091
5.20593
5.374744
5.555602
5.748315
5.952154
6.166245
6.390297
6.622932
6.860552
7.099667
7.341322
7.595037
7.877829
8.213201
8.63462
9.194211
9.982436
11.17412
13.16879
17.12876
28.15406
96.45067
85.80982
22.29869
12.4751
9.556056
8.248644
7.469327
6.90837
6.459462
6.08141
5.755531
5.472378
5.226342
5.014083
4.831507
4.673135
4.537275
4.422437
4.325375
4.244969
4.18027
4.130599
4.095577
4.074463
4.066246
4.069927
4.084903
4.110592
4.146658
4.192862
4.249022
4.315119
4.391661
4.479431
4.578687
4.68943
4.811724
4.945674
5.091401
5.249007
5.418827
5.601428
5.797046
6.005431
6.225945
6.45666
6.69363
6.932415
7.170275
7.407968
7.652259
7.921483
8.2434
8.652786
9.201044
9.97733
11.1559
13.13545
17.07313
28.02905
96.6208
86.46586
22.95585
12.7163
9.591395
8.194722
7.38545
6.822408
6.383927
6.020978
5.711297
5.443612
5.211631
5.011752
4.839547
4.691938
4.565432
4.457775
4.366806
4.291136
4.230208
4.183459
4.150191
4.129614
4.121189
4.124227
4.138356
4.16309
4.198142
4.243307
4.298447
4.363524
4.438653
4.524853
4.623382
4.734284
4.857225
4.992206
5.139405
5.299088
5.471562
5.657064
5.855587
6.066698
6.289323
6.521454
6.759872
6.999788
7.236301
7.468723
7.704943
7.963485
8.273313
8.671747
9.210042
9.976873
11.14561
13.1122
17.02668
27.91933
96.71283
86.99203
23.55544
12.97508
9.66781
8.188558
7.338962
6.764664
6.329575
5.976451
5.67883
5.423439
5.203263
5.014698
4.854573
4.71739
4.599385
4.498229
4.412564
4.341736
4.28486
4.240992
4.209437
4.189709
4.181315
4.183797
4.197028
4.22064
4.254412
4.29818
4.351834
4.415342
4.488741
4.573343
4.670889
4.781555
4.904872
5.040658
5.188971
5.350032
5.524128
5.711475
5.912028
6.12526
6.349847
6.583257
6.821488
7.059582
7.293374
7.522186
7.752802
8.002259
8.301074
8.689523
9.219366
9.978815
11.14006
13.09601
16.99761
27.86744
96.75508
87.44769
24.11448
13.24894
9.769727
8.198806
7.314502
6.727887
6.292783
5.945983
5.657543
5.412363
5.202599
5.023936
4.872567
4.7435
4.633062
4.538883
4.459331
4.393175
4.339549
4.29794
4.267792
4.248703
4.240299
4.24224
4.254518
4.276887
4.309222
4.351424
4.403427
4.465185
4.53666
4.619333
4.71539
4.825322
4.948624
5.084931
5.234174
5.396507
5.57216
5.761277
5.963723
6.178844
6.405154
6.639947
6.878979
7.116759
7.348223
7.572334
7.79644
8.038808
8.329789
8.710035
9.232742
9.985471
11.13963
13.08919
16.96953
27.79013
96.72237
87.75388
24.6281
13.52547
9.892427
8.241052
7.316028
6.709607
6.269517
5.925287
5.643108
5.405805
5.204348
5.034415
4.891089
4.769382
4.665572
4.577169
4.502461
4.440248
4.389654
4.349997
4.320873
4.302018
4.293319
4.294575
4.30582
4.326924
4.357828
4.398497
4.448927
4.509193
4.579543
4.660622
4.754667
4.863699
4.98726
5.124381
5.274826
5.438701
5.616189
5.807347
6.011909
6.229033
6.456968
6.692687
6.931646
7.168194
7.397231
7.617638
7.836654
8.072672
8.356098
8.728833
9.246093
9.994826
11.14566
13.08984
16.96783
27.78303
96.63223
88.01132
25.11653
13.80646
10.03096
8.300079
7.329973
6.706243
6.257927
5.912744
5.633965
5.402391
5.207694
5.044163
4.90706
4.791359
4.693078
4.609598
4.539045
4.480102
4.431866
4.393763
4.365493
4.346925
4.338032
4.338742
4.348961
4.369022
4.398791
4.438314
4.48765
4.54692
4.616389
4.696571
4.789751
4.898368
5.022271
5.160473
5.312559
5.478446
5.658156
5.851592
6.058311
6.277259
6.506439
6.742563
6.980833
7.21538
7.440982
7.656614
7.869927
8.09989
8.377225
8.744429
9.257401
10.00261
11.15007
13.08996
16.95837
27.73491
96.52992
88.15489
25.56152
14.08274
10.17817
8.37178
7.359173
6.710313
6.252478
5.904683
5.62728
5.399398
5.209351
5.050689
4.918435
4.807595
4.713657
4.633951
4.566579
4.510183
4.463872
4.427126
4.399712
4.381551
4.372674
4.373129
4.382778
4.402273
4.431464
4.47047
4.519416
4.578457
4.647833
4.727941
4.821086
4.929977
5.05475
5.19447
5.348589
5.516837
5.699046
5.894935
6.103861
6.324543
6.554733
6.790897
7.028044
7.260225
7.482279
7.693372
7.901477
8.125987
8.397861
8.760201
9.269735
10.01259
11.1583
13.096
16.95839
27.72395
96.37196
88.42952
26.00109
14.35792
10.33108
8.451986
7.396878
6.723966
6.252984
5.899709
5.621496
5.395452
5.208558
5.052617
4.923331
4.815817
4.725428
4.64872
4.583824
4.529445
4.484737
4.449231
4.422716
4.405157
4.396631
4.397251
4.407046
4.426587
4.455874
4.495092
4.544422
4.604047
4.674182
4.755139
4.849109
4.958917
5.085034
5.226659
5.383126
5.553963
5.738795
5.937132
6.148115
6.370231
6.600989
6.836632
7.072009
7.301135
7.518995
7.725117
7.927994
8.147549
8.414961
8.773673
9.280884
10.02242
11.16744
13.10455
16.96476
27.70952
96.24289
88.59884
26.40182
14.62844
10.48848
8.538638
7.440752
6.742429
6.25692
5.8963
5.61538
5.389416
5.204075
5.05054
4.922395
4.81543
4.726247
4.651674
4.588939
4.536541
4.493581
4.459552
4.43424
4.417658
4.409966
4.41128
4.421961
4.442222
4.472313
4.512482
4.562971
4.62401
4.695807
4.778523
4.873984
4.985185
5.113178
5.257183
5.416292
5.589871
5.777372
5.978108
6.190997
6.41429
6.645263
6.87996
7.113122
7.338797
7.552199
7.753292
7.951131
8.166148
8.429744
8.785572
9.2911
10.03187
11.17666
13.11325
16.97062
27.70429
96.08368
88.94283
26.83011
14.90204
10.64651
8.62757
7.487559
6.763331
6.262236
5.892846
5.607632
5.380163
5.194869
5.042013
4.91508
4.809528
4.721506
4.647892
4.58629
4.534822
4.492576
4.45914
4.434675
4.419331
4.413037
4.415745
4.427914
4.449665
4.481297
4.523131
4.575456
4.63855
4.712717
4.798389
4.896399
5.009259
5.139271
5.285969
5.447992
5.624467
5.814664
6.017705
6.232293
6.456452
6.687241
6.920533
7.150999
7.372777
7.581393
7.777349
7.970339
8.181319
8.441876
8.795749
9.300533
10.0416
11.18757
13.12591
16.98427
27.70913
95.98166
89.39354
27.22652
15.16038
10.80484
8.719378
7.536961
6.785889
6.268043
5.888562
5.597647
5.36728
5.180752
5.027527
4.900574
4.794925
4.706823
4.633366
4.572372
4.522343
4.482116
4.450971
4.428455
4.414533
4.409511
4.413471
4.427037
4.450348
4.483966
4.528057
4.58285
4.648648
4.725763
4.814603
4.915775
5.031493
5.164164
5.313607
5.478526
5.657888
5.850732
6.055941
6.271993
6.496689
6.726897
6.958354
7.185704
7.403235
7.606853
7.797657
7.986011
8.193368
8.451458
8.803979
9.308477
10.05012
11.19727
13.13691
16.99518
27.7111
95.8634
89.25429
27.52075
15.43507
10.96841
8.813017
7.5872
6.808549
6.273076
5.882477
5.584741
5.350344
5.161528
5.007034
4.87936
4.773264
4.684927
4.611505
4.550869
4.501455
4.462166
4.432388
4.411709
4.399934
4.397163
4.40337
4.419418
4.445447
4.481581
4.528277
4.586053
4.655097
4.735714
4.82821
4.932982
5.052046
5.18781
5.340258
5.508153
5.690346
5.88568
6.092812
6.309995
6.534828
6.764011
6.993183
7.217011
7.429987
7.628458
7.814175
7.998191
8.202422
8.458693
8.810586
9.315556
10.05869
11.20833
13.15147
17.01388
27.72944
95.78386
113.9837
28.64121
15.76044
11.13864
8.907796
7.637448
6.830614
6.276819
5.874202
5.568685
5.329329
5.137401
4.980976
4.85212
4.745339
4.656697
4.583317
4.523083
4.474458
4.436359
4.408061
4.389139
4.379457
4.37908
4.387856
4.406679
4.435573
4.474893
4.525018
4.586185
4.658883
4.743345
4.839849
4.948675
5.071533
5.210655
5.36619
5.537016
5.721895
5.919473
6.128191
6.346099
6.570618
6.798315
7.024773
7.244727
7.452923
7.646193
7.826963
8.006969
8.208547
8.463527
8.815209
9.320959
10.06571
11.21766
13.16359
17.02848
27.7406
95.68808
114.905
29.14608
16.03212
11.29693
9.000849
7.687179
6.851605
6.278508
5.863328
5.549343
5.304363
5.108749
4.949964
4.819667
4.71211
4.623215
4.550031
4.490407
4.442786
4.406068
4.379507
4.362641
4.355283
4.357336
4.369087
4.390804
4.422844
4.465528
4.519199
4.584197
4.660791
4.749336
4.85007
4.963159
5.089989
5.23259
5.391249
5.564927
5.752277
5.951777
6.161685
6.379875
6.603624
6.829404
7.05278
7.2686
7.471901
7.660027
7.836089
8.012487
8.211511
8.465573
8.818085
9.325316
10.07241
11.22774
13.17846
17.05015
27.76959
95.64786
115.0401
29.47659
16.27279
11.44506
9.090354
7.734793
6.870657
6.278216
5.849639
5.526594
5.275491
5.075799
4.914382
4.782506
4.674164
4.585117
4.512315
4.453553
4.407235
4.372232
4.347765
4.333344
4.328695
4.33358
4.348315
4.373023
4.408153
4.454211
4.511506
4.580323
4.660939
4.753646
4.858701
4.976453
5.107474
5.253252
5.414882
5.591396
5.781037
5.982125
6.192803
6.41083
6.633377
6.856859
7.076866
7.288395
7.486802
7.669946
7.841577
8.01422
8.211834
8.465788
8.818854
9.327945
10.07741
11.23579
13.19045
17.06718
27.79128
95.60878
115.0147
29.8684
16.52896
11.59476
9.178712
7.781458
6.888311
6.27594
5.833402
5.500802
5.243206
5.039191
4.875024
4.741564
4.632537
4.543524
4.47136
4.413756
4.369061
4.336093
4.314022
4.302323
4.300637
4.308645
4.326704
4.354791
4.393172
4.442418
4.503153
4.575673
4.660211
4.756975
4.866222
4.988241
5.123394
5.272787
5.437364
5.616271
5.80777
6.01005
6.221105
6.438575
6.659563
6.880465
7.096924
7.304109
7.497735
7.676222
7.843525
8.014154
8.210661
8.464771
8.818976
9.329605
10.08181
11.244
13.20414
17.08937
27.82675
95.59675
115.2133
30.27773
16.79238
11.73819
9.259547
7.823384
6.902325
6.270248
5.814035
5.471913
5.207788
4.999441
4.832579
4.697671
4.588169
4.499463
4.428249
4.372139
4.329403
4.298794
4.279426
4.270677
4.272136
4.283641
4.305177
4.336812
4.378741
4.431284
4.495118
4.570943
4.65904
4.759598
4.872806
4.998846
5.137896
5.29076
5.458151
5.63922
5.832238
6.035313
6.246334
6.462838
6.681876
6.899865
7.112577
7.315408
7.504369
7.678263
7.842597
8.010897
8.206561
8.461221
8.817002
9.329638
10.08455
11.2501
13.21468
17.1064
27.85408
95.57691
115.5156
30.71807
17.07015
11.88152
9.335752
7.861679
6.913473
6.262042
5.792158
5.440518
5.169939
4.957392
4.788014
4.651876
4.542146
4.454014
4.384034
4.329707
4.289209
4.261233
4.244833
4.239307
4.244135
4.259193
4.284345
4.319625
4.365177
4.421247
4.488246
4.566959
4.658112
4.761973
4.87868
5.008341
5.151021
5.307187
5.477182
5.660109
5.854278
6.057732
6.268276
6.483436
6.700315
6.915396
7.124494
7.323202
7.507935
7.678045
7.839111
8.00554
8.20073
8.45624
8.813897
9.32901
10.08668
11.25607
13.22621
17.12705
27.89235
95.61056
115.7257
31.1222
17.34266
12.02035
9.405565
7.893821
6.919658
6.249948
5.767226
5.406657
5.13002
4.913584
4.741982
4.604913
4.495273
4.408045
4.339627
4.287401
4.249451
4.224352
4.211055
4.20883
4.217116
4.235793
4.264621
4.303583
4.35277
4.412377
4.482685
4.564246
4.657975
4.764559
4.884241
5.017064
5.162992
5.322175
5.494556
5.679124
5.874198
6.077826
6.287808
6.501595
6.716122
6.927903
7.133105
7.327715
7.508289
7.674953
7.833553
7.998707
8.193857
8.450364
8.809709
9.326888
10.08715
11.26003
13.23477
17.14266
27.92263
95.67272
116.1652
31.56138
17.62347
12.15769
9.472337
7.923474
6.923364
6.235747
5.740396
5.37119
5.088886
4.868989
4.695582
4.557965
4.448742
4.362712
4.29613
4.24626
4.211066
4.189009
4.178952
4.180105
4.191963
4.21421
4.246644
4.289195
4.341905
4.404914
4.478457
4.562855
4.65891
4.767714
4.889783
5.025207
5.173895
5.3357
5.510147
5.696099
5.891871
6.095433
6.304443
6.516311
6.728208
6.936876
7.138579
7.329236
7.506262
7.66966
7.825916
7.990031
8.185392
8.443142
8.804463
9.324112
10.08726
11.26402
13.24412
17.16114
27.96055
95.75582
116.2547
31.92994
17.89482
12.29517
9.536739
7.948522
6.923274
6.218554
5.711705
5.334715
5.047287
4.824311
4.649416
4.511562
4.403095
4.318599
4.25412
4.206752
4.174336
4.155305
4.148513
4.153123
4.168558
4.194399
4.230405
4.276464
4.332574
4.398835
4.47544
4.562674
4.660994
4.771536
4.895388
5.032761
5.183555
5.347435
5.523557
5.710498
5.906417
6.109221
6.316689
6.526425
6.735705
6.941337
7.139592
7.326973
7.500712
7.661366
7.815695
7.978981
8.174694
8.433956
8.797618
9.319799
10.08583
11.26565
13.25007
17.17395
27.98673
95.79657
116.9175
32.33662
18.17208
12.42752
9.59679
7.972347
6.92255
6.200989
5.682723
5.29824
5.006189
4.780653
4.604742
4.467054
4.359671
4.276899
4.214606
4.169753
4.140142
4.124145
4.120575
4.12854
4.147396
4.176682
4.2161
4.265488
4.324799
4.394086
4.473497
4.563276
4.663777
4.775928
4.901061
5.039757
5.192007
5.357389
5.534684
5.722132
5.917789
6.119611
6.325452
6.532982
6.739514
6.942002
7.137093
7.321261
7.492104
7.650516
7.803606
7.966777
8.163362
8.424271
8.790119
9.314724
10.08353
11.26644
13.25646
17.18948
28.02068
95.81246
117.7193
32.80801
18.43531
12.55652
9.652584
7.99053
6.917011
6.179844
5.651416
5.260487
4.964704
4.737397
4.561128
4.424091
4.318065
4.237173
4.177175
4.134977
4.108332
4.095568
4.095297
4.106606
4.128794
4.161365
4.203984
4.256451
4.318684
4.390702
4.472623
4.564654
4.667098
4.78064
4.906649
5.046119
5.199213
5.365507
5.543483
5.731088
5.926247
6.126893
6.330943
6.536107
6.740019
6.939771
7.132036
7.313484
7.481913
7.638452
7.790448
7.953448
8.150748
8.413266
8.78136
9.308335
10.07987
11.26651
13.26054
17.20071
28.04971
95.82334
95.95545
32.5557
18.63805
12.67846
9.705524
8.006726
6.911601
6.160004
5.622066
5.225185
4.925928
4.696971
4.520379
4.38399
4.279321
4.200356
4.142739
4.103276
4.079568
4.069896
4.072755
4.087217
4.112533
4.148163
4.193737
4.249026
4.313917
4.388394
4.472537
4.566496
4.670574
4.78522
4.911805
5.051679
5.205181
5.37194
5.550207
5.737636
5.932015
6.131288
6.333369
6.53635
6.737808
6.934977
7.124685
7.303757
7.470181
7.625309
7.776696
7.939959
8.138275
8.40244
8.77258
9.301635
10.07537
11.26455
13.26239
17.20936
28.07713
95.86552
95.89519
32.75354
18.89823
12.81512
9.760609
8.0224
6.906573
6.1415
5.594945
5.192781
4.890571
4.660314
4.483623
4.348026
4.244828
4.167844
4.112571
4.075691
4.054723
4.047884
4.053622
4.070961
4.099112
4.137499
4.185722
4.243506
4.310697
4.387246
4.47321
4.568766
4.674151
4.789725
4.916786
5.056821
5.210419
5.377268
5.555432
5.742332
5.935649
6.133276
6.33347
6.534192
6.733239
6.927975
7.115352
7.292324
7.457025
7.610987
7.761931
7.925536
8.124894
8.39075
8.763041
9.29436
10.07063
11.26283
13.26411
17.21848
28.09792
95.90247
118.0037
33.66115
19.19113
12.95415
9.814796
8.037147
6.901705
6.124251
5.569933
5.163107
4.858397
4.627167
4.450606
4.315941
4.214265
4.139223
4.086195
4.051768
4.033391
4.029193
4.037608
4.057595
4.08833
4.129204
4.179773
4.239739
4.308922
4.387256
4.47474
4.571552
4.677927
4.794206
4.92161
5.061629
5.215047
5.381637
5.559322
5.74534
5.937269
6.133199
6.331291
6.529738
6.726463
6.918947
7.104247
7.279423
7.442731
7.595848
7.746615
7.910733
8.111178
8.378641
8.752882
9.286147
10.06451
11.25928
13.2646
17.22609
28.12841
95.9772
119.3324
34.16211
19.44718
13.08665
9.867125
8.05155
6.897734
6.108867
5.547529
5.136595
4.829775
4.597839
4.421573
4.287924
4.18778
4.114635
4.063756
4.031644
4.015678
4.013902
4.024757
4.047132
4.080168
4.123216
4.175806
4.237615
4.308446
4.38819
4.476921
4.574719
4.681806
4.79852
4.926065
5.06592
5.218933
5.384939
5.561778
5.746557
5.936921
6.130908
6.326854
6.52308
6.717627
6.908077
7.09157
7.265247
7.42746
7.579995
7.730792
7.895554
8.097157
8.366263
8.74249
9.277783
10.05838
11.25584
13.26474
17.2315
28.14529
96.06252
119.5571
34.36945
19.65554
13.21117
9.91876
8.067231
6.89622
6.096632
5.528787
5.114132
4.805464
4.57297
4.397049
4.264381
4.165665
4.094255
4.045313
4.015257
4.001627
4.001962
4.014944
4.039392
4.074403
4.119302
4.173595
4.236937
4.309082
4.389981
4.479613
4.578081
4.685598
4.802494
4.929985
5.06952
5.221937
5.387095
5.562778
5.746084
5.934626
6.126567
6.320366
6.514463
6.707002
6.895643
7.077591
7.250046
7.411431
7.563615
7.714603
7.880085
8.082831
8.353484
8.731537
9.268625
10.05115
11.25104
13.26392
17.23769
28.17316
96.16795
119.8309
34.59677
19.86598
13.33646
9.971045
8.084472
6.897146
6.087855
5.514148
5.096143
4.785821
4.552838
4.377238
4.245458
4.148026
4.078171
4.030964
4.002757
3.99102
3.993245
4.008072
4.034283
4.070953
4.117385
4.173063
4.237576
4.310765
4.392488
4.482733
4.581596
4.689285
4.806126
4.933395
5.072502
5.224168
5.388256
5.562535
5.744098
5.930652
6.120478
6.312154
6.504229
6.69493
6.881975
7.062616
7.234092
7.394879
7.546907
7.698228
7.864509
8.068419
8.340602
8.720442
9.259291
10.04367
11.2457
13.26134
17.23966
28.18518
96.22638
120.6479
34.93075
20.06726
13.45998
10.02501
8.104777
6.902242
6.083611
5.504345
5.083163
4.771246
4.537736
4.362345
4.231287
4.13493
4.066393
4.020659
3.994013
3.983852
3.987659
4.004021
4.031694
4.069731
4.117367
4.174025
4.239457
4.313364
4.395615
4.486191
4.585185
4.692805
4.80942
4.936348
5.074889
5.225644
5.388459
5.561109
5.740744
5.92519
6.112864
6.302466
6.492636
6.681662
6.867307
7.046849
7.217555
7.377934
7.52996
7.681713
7.848824
8.053867
8.327498
8.709012
9.249497
10.03564
11.23985
13.25875
17.24315
28.20573
96.27322
101.005
34.56192
20.21384
13.57808
10.07968
8.128358
6.911814
6.08427
5.499727
5.075365
4.7618
4.527669
4.352341
4.22181
4.1263
4.058825
4.014292
3.988922
3.980047
3.98515
4.002738
4.031497
4.070405
4.118868
4.176363
4.242414
4.316764
4.399277
4.489932
4.588821
4.696155
4.81243
4.938931
5.076746
5.226436
5.387822
5.558669
5.736222
5.918467
6.103977
6.291568
6.479952
6.667461
6.851882
7.03051
7.200627
7.360761
7.512914
7.66518
7.833152
8.03931
8.31433
8.697432
9.239448
10.02718
11.23323
13.2546
17.24326
28.21427
96.31017
101.2534
34.74962
20.39965
13.70278
10.13988
8.155806
6.925392
6.090271
5.500773
5.073796
4.758387
4.523262
4.347643
4.217332
4.122388
4.055698
4.012065
3.987624
3.979605
3.985422
4.00372
4.033225
4.072971
4.122097
4.180049
4.246419
4.320936
4.403457
4.493959
4.592533
4.699396
4.815192
4.94115
5.07812
5.226639
5.386446
5.555307
5.730636
5.910619
6.093984
6.279646
6.466369
6.65251
6.835867
7.013742
7.183422
7.343443
7.495824
7.64866
7.817499
8.024733
8.301071
8.685675
9.229144
10.01842
11.22636
13.25044
17.24357
28.22997
96.37131
102.099
35.08484
20.60919
13.83548
10.20872
8.187269
6.941835
6.100505
5.506583
5.076279
4.759454
4.523729
4.347918
4.217572
4.122695
4.056192
4.012912
3.988952
3.981541
3.988179
4.007184
4.03726
4.077407
4.12684
4.184978
4.251405
4.325844
4.40815
4.498298
4.596382
4.702617
4.817842
4.943054
5.078904
5.226201
5.38441
5.551158
5.724138
5.901815
6.083078
6.266909
6.452096
6.637007
6.819442
6.996703
7.166073
7.326091
7.478779
7.632226
7.801928
8.010199
8.287781
8.673789
9.218595
10.00927
11.21886
13.24537
17.24335
28.23758
96.43889
102.9518
35.37319
20.80979
13.96963
10.28363
8.223521
6.962614
6.115626
5.517795
5.084864
4.765983
4.528804
4.352064
4.221384
4.126608
4.060433
4.017501
3.993906
3.986837
3.993734
4.012998
4.043281
4.08355
4.133011
4.191072
4.257307
4.331434
4.413306
4.502898
4.60031
4.705816
4.820314
4.944638
5.079522
5.225592
5.3818
5.546109
5.716689
5.892151
6.071435
6.253557
6.43733
6.62113
6.802761
6.979519
7.148681
7.308778
7.461829
7.615907
7.786459
7.99572
8.274479
8.661812
9.207886
9.99989
11.21108
13.23987
17.24214
28.24965
96.52572
103.6981
35.54886
20.98537
14.10319
10.36423
8.265182
6.988486
6.135935
5.534246
5.098566
4.777688
4.539133
4.361491
4.230184
4.134988
4.068563
4.02554
4.001931
3.994869
4.001763
4.020996
4.0512
4.09132
4.14055
4.198286
4.264096
4.337694
4.418932
4.507788
4.604366
4.70912
4.822919
4.946284
5.07988
5.224288
5.378435
5.54043
5.708673
5.881948
6.059296
6.23978
6.422229
6.605018
6.785942
6.962289
7.131323
7.291564
7.445017
7.599736
7.771113
7.981314
8.261173
8.649741
9.196985
9.990203
11.20283
13.23363
17.23938
28.25526
96.60138
104.5285
35.72886
21.15376
14.23868
10.45082
8.312586
7.020053
6.161883
5.556115
5.117453
4.794362
4.554164
4.375301
4.243076
4.147186
4.080236
4.036811
4.012875
4.005527
4.012133
4.031057
4.060911
4.100626
4.149381
4.206566
4.271742
4.344623
4.425061
4.513041
4.60867
4.712588
4.82559
4.947855
5.079988
5.222561
5.374535
5.534187
5.700123
5.871277
6.046774
6.225709
6.406923
6.588787
6.769086
6.945097
7.114065
7.274496
7.428375
7.583732
7.755905
7.966994
8.247887
8.637618
9.18597
9.980359
11.19441
13.22731
17.237
28.26312
96.6649
105.2216
35.88524
21.31542
14.37807
10.54425
8.367159
7.057122
6.19267
5.583091
5.141359
4.815838
4.573722
4.393341
4.259901
4.163025
4.095259
4.051138
4.026583
4.01867
4.024714
4.043066
4.07232
4.11139
4.159445
4.215867
4.280212
4.352194
4.431668
4.518621
4.613328
4.716425
4.828417
4.949351
5.079812
5.220387
5.370133
5.527477
5.691179
5.860295
6.03402
6.211487
6.391542
6.572552
6.752292
6.928022
7.096969
7.257617
7.41193
7.567909
7.740839
7.952757
8.23461
8.625418
9.174784
9.970224
11.18551
13.2201
17.23263
28.26547
96.71063
106.1555
36.08516
21.48546
14.52255
10.64595
8.431632
7.099597
6.226938
5.61421
5.169641
4.841669
4.597478
4.415351
4.280438
4.182305
4.113447
4.068354
4.042908
4.034168
4.039394
4.056929
4.085347
4.12355
4.170699
4.226166
4.289507
4.360436
4.43881
4.524652
4.61838
4.720531
4.831316
4.950724
5.079357
5.217843
5.365336
5.520405
5.681941
5.849098
6.021134
6.197209
6.376175
6.556393
6.735626
6.911116
7.080071
7.240951
7.395696
7.552274
7.725921
7.938614
8.221364
8.613186
9.163523
9.959998
11.17656
13.213
17.22887
28.26933
96.76562
106.8755
36.26194
21.64218
14.6689
10.75531
8.504552
7.14811
6.265884
5.649701
5.202133
4.871562
4.62512
4.441039
4.304421
4.204786
4.134585
4.088267
4.061681
4.051873
4.056043
4.072531
4.099896
4.137027
4.183076
4.23741
4.299583
4.36931
4.446453
4.531197
4.623929
4.724896
4.834224
4.951922
5.07862
5.214974
5.360227
5.513075
5.672519
5.837798
6.008224
6.182978
6.360916
6.540393
6.719157
6.894434
7.063411
7.224522
7.379682
7.536827
7.711143
7.924552
8.208126
8.600882
9.152102
9.949501
11.16716
13.20515
17.22378
28.27156
96.82134
107.3275
36.35648
21.81106
14.82351
10.87375
8.58569
7.202972
6.309719
5.689457
5.238729
4.905352
4.656437
4.470174
4.331621
4.23025
4.158469
4.110693
4.082734
4.071633
4.074524
4.089751
4.11586
4.151726
4.196496
4.249532
4.310387
4.37878
4.454702
4.538337
4.629849
4.72939
4.837072
4.952937
5.077644
5.211864
5.354915
5.505603
5.66303
5.82651
5.995399
6.168897
6.345861
6.524634
6.702954
6.878028
7.047022
7.208347
7.363893
7.521566
7.696502
7.910575
8.194917
8.588552
9.140622
9.938946
11.15777
13.19748
17.21918
28.27403
96.87337
124.731
36.8582
21.99342
14.9821
10.99903
8.675554
7.266731
6.358304
5.731983
5.278484
4.94241
4.690981
4.502413
4.361752
4.258447
4.184876
4.135421
4.105871
4.093266
4.094672
4.108442
4.133106
4.16753
4.210854
4.262441
4.321866
4.388939
4.463629
4.545961
4.636028
4.733948
4.839833