/*--------------------------------*- C++ -*----------------------------------*\
| =========                 |                                                 |
| \\      /  F ield         | OpenFOAM: The Open Source CFD Toolbox           |
|  \\    /   O peration     | Version:  2312                                  |
|   \\  /    A nd           | Website:  www.openfoam.com                      |
|    \\/     M anipulation  |                                                 |
\*---------------------------------------------------------------------------*/
FoamFile
{
    version     2.0;
    format      ascii;
    arch        "LSB;label=32;scalar=64";
    class       volScalarField;
    location    "5400";
    object      qr;
}
// * * * * * * * * * * * * * * * * * * * * * * * * * * * * * * * * * * * * * //

dimensions      [1 0 -3 0 0 0 0];

internalField   uniform 0;

boundaryField
{
    plate
    {
        type            calculated;
        value           nonuniform List<scalar> 
200
(
-10008.49
-10154.39
-10233.04
-10232.69
-10178.31
-10134.35
-10130.86
-10168.9
-10210.71
355.6143
346.6149
-10330.85
315.0866
291.5762
272.7886
262.988
256.4053
254.3383
268.6504
297.1396
324.8741
337.3117
327.5927
304.8311
286.6343
286.7992
-10342.8
-10314.81
-10292.18
-10266.63
-10233.48
-10198.13
-10166.22
-10133.62
-10100.36
-10075
-10066.4
85.05469
66.54227
-9957.235
-9889.591
-9828.132
-9782.789
-9750.752
-169.7716
-233.2901
-294.7541
-348.0762
-395.0404
-440.145
-489.4695
-539.3117
-579.4691
-602.5694
-9055.491
-8958.829
-8892.591
-8847.258
-8802.145
-8752.287
-1117.069
-1165.035
-8452.454
-8332.203
-8220.349
-8137.415
-8081.991
-1557.964
-1644.425
-7864.451
-7782.029
-1903.16
-1963.226
-2000.046
-2039.817
-2112.858
-2217.938
-2329.746
-6857.535
-6835.417
-6779.258
-6648.982
-6402.335
-5863.757
-5952.308
-6154.832
-6127.362
-5906.255
-5135.836
-4146.714
-4008.172
-4151.27
-4576.728
-5052.472
-5246.956
-5175.309
-4866.459
-4479.118
-4214.67
-4101.702
-4085.331
-4106.156
-4128.068
-4134.807
-4147.689
-4204.94
-4337.598
-4548.47
-4787.064
-4974.348
-5056.179
-5034.834
-4951.538
-4864.631
-4828.203
-4861.28
-4945.317
-5039.842
-5106.419
-5126.627
-5102.677
-5050.735
-4988.084
-4924.411
-4860.422
-4790.953
-4716.62
-4646.289
-4595.94
-4581.723
-4611.288
-4680.607
-4772.08
-4863.066
-4932.375
-4969.011
-4970.385
-4938.79
-4880.312
-4797.436
-4697.719
-4592.68
-4500.14
-4438.768
-4422.65
-4456.885
-4535.762
-4643.229
-4754.84
-4847.203
-4907.219
-4935.391
-4940.001
-4929.54
-4909.282
-4880.042
-4843.296
-4805.925
-4780.609
-4781.56
-4814.743
-4872.707
-4931.775
-4968.802
-4971.453
-4943.6
-4900.242
-4863.824
-4850.535
-4859.279
-4861.771
-4823.263
-4731.248
-4616.266
-4533.168
-4532.667
-4652.55
-4881.703
-5124.528
-5258.436
-5230.377
-5093.593
-4940.739
-4845.618
-4828.691
-4881.115
-5000.291
-5260.567
-5538.832
-5854.66
-5923.513
-6137.343
-6413.648
-2580.413
-8123.793
-934.7846
-10197.02
551.5385
1159.18
1206.369
)
;
    }
    riser
    {
        type            calculated;
        value           nonuniform List<scalar> 
200
(
3377.352
3234.876
3201.652
3210.634
3256.32
3316.355
3398.049
3406.393
3231.585
3079.372
3223.509
3453.883
3426.426
3295.346
3373.943
3583.526
3667.059
3573.635
3438.01
3395.148
3506.803
3760.004
4041.23
4202.128
4242.601
4278.606
4279.252
4130.135
3962.717
4040.284
4321.747
4474.125
4337.314
4167.676
4325.433
4773.148
5125.165
5217.875
5194.016
5030.963
4615.932
4214.596
4194.835
4476.55
4733.604
4810.053
4696.739
4446.538
4222.154
4171.047
4232.404
4230.001
4146.858
4107.721
4082.129
3944.17
3831.883
4043.896
4536.135
4915.779
4981.919
4862.48
4644.157
4349.127
4183.54
4298.826
4514.233
4659.546
4813.626
4956.909
4897.284
4692.892
4632.074
4746.417
4771.836
4566.442
4288.918
4143.963
4114.294
4060.979
3985.592
4008.329
4152.749
4311.969
4388.451
4376.47
4329.991
4296.263
4292.703
4318.801
4361.313
4395.852
4406.369
4400.55
4398.255
4410.92
4434.522
4455.759
4459.573
4432.824
4369.252
4275.654
4172.413
4086.093
4038.855
4040.534
4086.285
4159.919
4241.322
4314.666
4372.902
4416.03
4445.582
4460.556
4457.676
4434.71
4393.818
4342.621
4292.257
4253.317
4231.789
4227.135
4233.414
4242.595
4248.256
4247.99
4243.628
4239.553
4240.24
4248.375
4264.279
4286.437
4312.467
4339.897
4366.511
4390.35
4409.63
4422.809
4428.844
4427.565
4419.982
4408.234
4395.05
4382.894
4373.229
4366.221
4360.924
4355.759
4349.218
4340.666
4330.894
4322.041
4316.855
4317.634
4325.221
4338.326
4353.607
4366.795
4374.625
4376.482
4374.412
4371.052
4366.57
4356.695
4333.57
4289.926
4224.906
4147.987
4077.412
4032.879
4026.428
4056.87
4110.194
4164.898
4200.179
4204.768
4182.183
4147.606
4116.344
4091.15
4058.374
3998.145
3904.181
3798.742
3722.776
3698.816
3702.877
3689.401
3654.404
3650.802
3705.433
3720.948
3572.747
3291.832
3073.172
3047.081
3102.523
3084.045
3093.478
2998.087
)
;
    }
    topAndBottom
    {
        type            calculated;
        value           nonuniform List<scalar> 
120
(
-1492.269
-837.4979
-263.5747
133.705
427.6145
665.9193
837.8329
946.9418
1024.693
1101.921
1185.597
1265.038
1332.417
1390.382
1443.134
1492.649
1537.767
1574.447
1598.855
1609.355
1607.51
1598.174
1587.31
1579.22
1574.787
1572.234
1569.165
1564.792
1560.634
1559.522
1564.315
1576.399
1594.916
1617.141
1639.578
1659.126
1673.762
1682.574
1685.415
1682.706
1675.559
1665.895
1656.078
1648.092
1642.667
1638.953
1634.916
1628.382
1617.85
1602.661
1582.542
1557.43
1527.638
1493.954
1457.755
1421.665
1392.113
1379.616
1400.311
1596.275
4557.471
4814.863
4838.293
4697.004
4366.12
3936.626
3543.371
3264.742
3102.641
3016.011
2966.211
2952.421
3011.979
3180.9
3446.225
3731.67
3933.832
3983.366
3881.912
3688.137
3469.57
3259.967
3050.9
2816.415
2546.304
2262.751
2012.17
1842.241
1780.612
1825.821
1950.775
2112.882
2265.073
2365.193
2383.93
2311.211
2158.975
1958.347
1751
1577.512
1466.561
1429.592
1461.718
1547.537
1668.981
1810.441
1960.691
2110.367
2251.142
2376.35
2480.707
2560.751
2617.116
2656.674
2687.92
2714.674
2736.691
2749.01
2773.076
2781.663
)
;
    }
    frontAndBack
    {
        type            empty;
    }
}


// ************************************************************************* //
