/*--------------------------------*- C++ -*----------------------------------*\
| =========                 |                                                 |
| \\      /  F ield         | OpenFOAM: The Open Source CFD Toolbox           |
|  \\    /   O peration     | Version:  2312                                  |
|   \\  /    A nd           | Website:  www.openfoam.com                      |
|    \\/     M anipulation  |                                                 |
\*---------------------------------------------------------------------------*/
FoamFile
{
    version     2.0;
    format      ascii;
    arch        "LSB;label=32;scalar=64";
    class       volScalarField;
    location    "4200";
    object      alphat;
}
// * * * * * * * * * * * * * * * * * * * * * * * * * * * * * * * * * * * * * //

dimensions      [1 -1 -1 0 0 0 0];

internalField   nonuniform List<scalar> 
12000
(
3.169192e-05
0.0001602455
0.0001651124
0.0001643455
0.0001725508
0.0002072529
0.0002310819
0.0001994897
0.0001648887
0.0001727406
0.0002159146
0.0002134014
0.0001776329
0.0001693685
0.0001873224
0.0001941355
0.0001802972
0.000178813
0.0001881654
0.0001789872
0.0001637103
0.0001706621
0.0001900792
0.0001811175
0.0001607102
0.0001623824
0.0001786117
0.000178858
0.0001665121
0.0001629482
0.000165304
0.0001659872
0.0001688721
0.0001704557
0.0001631301
0.0001535539
0.0001512762
0.0001683617
0.0001886247
0.0001723808
0.0001435968
0.0001301731
0.0001542044
0.0002278164
0.0002001973
0.0001243666
0.000109536
0.0001514316
0.0002748313
0.0001713872
0.0001005531
0.0001151673
0.0001812441
0.0001620001
0.000106729
0.0001002924
0.0001002163
8.433565e-05
7.207044e-05
5.886856e-05
1.997399e-05
0.0001950473
0.0002323532
0.0002772942
0.0003178432
0.0003535849
0.000394201
0.0004458947
0.0005154678
0.0005881295
0.0006427201
0.000698309
0.0007792554
0.0008666729
0.0009353428
0.0009963509
0.001072311
0.001150361
0.001217028
0.001292876
0.001386531
0.001460532
0.001501927
0.001561865
0.001656541
0.00173161
0.001761325
0.001796339
0.001860659
0.001922284
0.001962188
0.001989595
0.002007663
0.002022829
0.002042773
0.002060417
0.002059064
0.002028144
0.00198725
0.001972546
0.001967533
0.001945862
0.001869827
0.001761378
0.001430271
0.001271399
0.001591551
0.001456783
0.001313207
0.0009348309
0.001031522
0.0009913067
0.0008411672
0.0007262346
0.0006048033
0.0004583478
0.0003173049
0.0001938492
0.0001066621
5.437219e-05
2.899008e-05
0.0002582942
0.0003463896
0.0004219963
0.0005260954
0.0006421642
0.0007688046
0.0009013396
0.001047864
0.001200915
0.001340394
0.00148382
0.001628883
0.001771631
0.001906634
0.002034578
0.002159078
0.00227734
0.002388478
0.002494955
0.002595496
0.002685737
0.002767325
0.002845383
0.002918699
0.00298258
0.003037883
0.003088994
0.003136017
0.00317502
0.003211166
0.003238703
0.003261946
0.003280738
0.003294336
0.003301685
0.003302831
0.003298093
0.0032877
0.003270654
0.003246091
0.003214594
0.003177077
0.00312791
0.00307005
0.002999193
0.00290983
0.002708098
0.002451013
0.002332821
0.002353922
0.00203897
0.001744458
0.001408278
0.001205309
0.001123018
0.0008050647
0.0004515427
0.0001669946
5.382362e-05
2.876879e-05
0.0002863132
0.0004326516
0.0005583219
0.000720571
0.0009034482
0.001100358
0.001306908
0.001520874
0.001737965
0.00194942
0.002150239
0.002341472
0.002517969
0.002683096
0.002837343
0.002980801
0.003113695
0.003236316
0.00334924
0.003453075
0.003548156
0.003635073
0.003714456
0.00378649
0.003851356
0.003909458
0.003961046
0.004005298
0.00404483
0.004076573
0.004101917
0.004121858
0.004135219
0.004141025
0.004139226
0.004129523
0.004111999
0.004085671
0.004049805
0.00400375
0.003946796
0.003877887
0.003795669
0.003698739
0.003589146
0.003462086
0.003316976
0.003152448
0.002967074
0.002760031
0.002192089
0.001918224
0.001756678
0.001684833
0.001349913
0.0009793245
0.0005965749
0.0002458718
5.417155e-05
2.876365e-05
0.0003157908
0.0005214489
0.0007000798
0.0009176071
0.00115771
0.001409926
0.001666496
0.001921548
0.002170515
0.002411194
0.002639853
0.002856348
0.003054507
0.0032336
0.003397129
0.003547912
0.003687682
0.003817567
0.003937856
0.00404933
0.004152783
0.00424873
0.004336474
0.0044161
0.004487946
0.004552257
0.004607497
0.004659238
0.004702387
0.004738138
0.00476742
0.004789599
0.004804199
0.004810856
0.00481005
0.004801397
0.004783858
0.004757217
0.004721095
0.004675056
0.004618668
0.004551161
0.004471338
0.004378897
0.00427166
0.004146722
0.004005156
0.003843481
0.00351801
0.00296309
0.002860064
0.002837642
0.002554112
0.002170194
0.001741826
0.001267857
0.0007645277
0.0003032143
5.386876e-05
2.927939e-05
0.0003315354
0.0005948592
0.0008177023
0.00107558
0.001355504
0.001645291
0.001935416
0.002218695
0.002490014
0.002746198
0.002986593
0.003214003
0.003428152
0.003626557
0.003808191
0.003973041
0.004124224
0.004263917
0.004393184
0.004512624
0.004622708
0.00472375
0.004817081
0.00490332
0.004982662
0.005055102
0.005119501
0.005177692
0.005227056
0.00526826
0.005300914
0.005325343
0.005341207
0.005347657
0.005344375
0.00533127
0.005308041
0.005274123
0.005228984
0.005172073
0.005102754
0.005020283
0.004923753
0.004811774
0.004682495
0.004534311
0.004365508
0.004176424
0.003959379
0.003708653
0.003421007
0.003097787
0.002738256
0.00233698
0.00188829
0.001393067
0.0008647943
0.0003600545
5.392823e-05
2.99132e-05
0.0003424862
0.000657324
0.0009184108
0.0012052
0.001510097
0.001820706
0.002128477
0.002427807
0.002715483
0.002990472
0.003246097
0.003482166
0.003701264
0.003905701
0.004095421
0.004270988
0.0044331
0.004583498
0.004723639
0.004854528
0.00497686
0.005091127
0.005197691
0.005296678
0.005388004
0.005469082
0.005545211
0.005612099
0.00566968
0.005717839
0.005756117
0.005784681
0.0058029
0.00581044
0.005807229
0.005792698
0.005766524
0.005728389
0.005677936
0.005614745
0.005538303
0.005447955
0.005342846
0.005221885
0.00508367
0.004927292
0.004749164
0.004548756
0.004319313
0.004057996
0.003761383
0.003424266
0.003040054
0.00260303
0.002109727
0.001560751
0.0009700747
0.0004031047
5.390762e-05
3.067566e-05
0.000347547
0.0007041163
0.0009969169
0.001301403
0.001619994
0.001946078
0.002270153
0.002583143
0.002880988
0.003159778
0.003422089
0.003666733
0.003894252
0.004106314
0.004305426
0.004492936
0.004668816
0.004833726
0.0049887
0.005134616
0.00527207
0.005401371
0.005522577
0.005635544
0.005739974
0.00583473
0.005921636
0.005998611
0.006065127
0.00612077
0.006165194
0.006198643
0.006220326
0.006229725
0.00622644
0.006210075
0.006180285
0.006136727
0.006079038
0.006006806
0.00591954
0.005816648
0.005697418
0.005560894
0.005406334
0.005232345
0.005034902
0.00481393
0.004563618
0.004280305
0.003960335
0.003599872
0.003193256
0.002735492
0.002222528
0.001653781
0.001040571
0.0004427909
5.389053e-05
3.237994e-05
0.000352813
0.000737228
0.00105653
0.001376307
0.001707017
0.002039522
0.002366421
0.002683495
0.002986339
0.003272829
0.003542833
0.003796526
0.004034667
0.004258433
0.004469361
0.004669472
0.004859967
0.005041011
0.005212883
0.005375969
0.005530616
0.005676792
0.005814218
0.005942497
0.006058442
0.006167163
0.00626455
0.006351542
0.006427359
0.006491278
0.006542654
0.006581208
0.006606226
0.006617151
0.006613532
0.006594981
0.006561155
0.006511733
0.006446404
0.006364833
0.006266638
0.006151347
0.006018451
0.005867722
0.005698683
0.005507607
0.005292548
0.005053846
0.004789191
0.004494804
0.004164176
0.003790608
0.003367567
0.002889331
0.002351009
0.001751924
0.00110464
0.0004725302
5.388623e-05
3.207779e-05
0.0003600273
0.0007603978
0.001102222
0.001433198
0.001767067
0.002101263
0.002430242
0.002749672
0.003056445
0.00334896
0.003626802
0.003890231
0.004139987
0.004377105
0.004602744
0.00481814
0.005024375
0.005221833
0.005410228
0.00558895
0.005757115
0.005917283
0.006068888
0.006211322
0.006342394
0.00646514
0.00657697
0.006675865
0.006761442
0.006833181
0.006890625
0.006933469
0.006960982
0.006972573
0.006967747
0.006946086
0.006907239
0.006850908
0.006776846
0.006684858
0.006574814
0.006445717
0.006296779
0.006128032
0.005938865
0.005730675
0.005500057
0.005245627
0.00496398
0.00465159
0.004304141
0.003914871
0.003475199
0.002981488
0.002428279
0.001814476
0.001151137
0.0004987668
5.382547e-05
3.20388e-05
0.0003513023
0.0007678913
0.001130289
0.001469656
0.001805777
0.002140185
0.002469639
0.002790644
0.003100701
0.003398468
0.003683579
0.00395636
0.004217507
0.004467814
0.004707875
0.004936477
0.005156039
0.00536723
0.005570501
0.00576614
0.005954593
0.006133031
0.006301304
0.006458988
0.006604623
0.00673932
0.006861229
0.006969417
0.00706308
0.007141503
0.007204136
0.007250488
0.007279724
0.007291206
0.00728441
0.007258895
0.007214288
0.007150268
0.007066548
0.006962873
0.006839003
0.006695707
0.006533352
0.006350832
0.006147156
0.005921403
0.005672966
0.005401138
0.005104136
0.004778886
0.004419596
0.004018825
0.003571646
0.003067188
0.002500177
0.001869762
0.001187922
0.000517203
5.377424e-05
3.506744e-05
0.0003377185
0.0007652891
0.001149433
0.00149871
0.001836914
0.00217032
0.002498211
0.002818596
0.003129905
0.003431379
0.003722908
0.004004675
0.004276722
0.00453873
0.004789613
0.005032783
0.005267124
0.005493503
0.005712213
0.005923117
0.00612559
0.006318576
0.006501095
0.006672302
0.006830897
0.006976783
0.007108538
0.007225197
0.007325846
0.007409623
0.007475762
0.007523631
0.007552762
0.007562705
0.007553026
0.007523331
0.007473277
0.007402571
0.007310963
0.007198229
0.007064144
0.006908442
0.00673097
0.006531674
0.006310337
0.006065871
0.005800344
0.005424111
0.005133507
0.004863131
0.004497568
0.004091399
0.003635412
0.003122503
0.002546596
0.001907154
0.001215468
0.0005328779
5.371237e-05
3.502842e-05
0.0003314247
0.0007606132
0.001152613
0.001507948
0.001846998
0.002178582
0.002504525
0.002824397
0.003137304
0.003442365
0.003738505
0.004023983
0.004236487
0.004355061
0.00450716
0.004713285
0.00499117
0.005288088
0.005589305
0.005856787
0.006147121
0.006457441
0.006676053
0.006858588
0.00702763
0.007182238
0.007321351
0.007444119
0.007549712
0.007637349
0.007706337
0.007756019
0.007785669
0.007794669
0.007782482
0.007748655
0.007692822
0.007614699
0.00751409
0.007390873
0.007245
0.007076481
0.00688531
0.00667158
0.006380188
0.00594733
0.005549813
0.005242884
0.005000402
0.004800262
0.004548388
0.004141703
0.00368355
0.003165885
0.002584012
0.001936134
0.001234667
0.000542661
5.363572e-05
3.542856e-05
0.0003214613
0.0007480583
0.001150895
0.001513428
0.001854683
0.002185621
0.002510133
0.002828759
0.003140765
0.003444829
0.003739125
0.003944657
0.004077658
0.004204867
0.004325945
0.00446493
0.004637272
0.004888555
0.005179492
0.005502882
0.005816843
0.006134807
0.006448739
0.006785884
0.007127619
0.007341924
0.007487258
0.007615681
0.007726117
0.007817651
0.007889407
0.007940569
0.007970374
0.00797814
0.007963293
0.007925375
0.007864049
0.007779101
0.007670425
0.007538004
0.007381889
0.007202449
0.006931404
0.006509902
0.006092491
0.005731755
0.005406483
0.005108774
0.00487875
0.004730838
0.004564873
0.004175689
0.003716078
0.003195753
0.002609234
0.001956189
0.001249097
0.0005507408
5.358844e-05
3.596197e-05
0.0003118571
0.0007331043
0.00114154
0.001511369
0.001855993
0.002187112
0.002510104
0.002826538
0.0031362
0.003438016
0.003730237
0.003901257
0.00401411
0.00411496
0.004237673
0.004411383
0.004608686
0.004819982
0.005059082
0.005332683
0.00565171
0.005976837
0.006300592
0.006620164
0.006934795
0.007240993
0.007527738
0.007741293
0.007856247
0.007951545
0.008026041
0.008078734
0.008108814
0.008115543
0.008098348
0.008056786
0.007990569
0.007899584
0.007783913
0.007628994
0.007345155
0.007026514
0.006691737
0.006338069
0.005965383
0.005583734
0.005237343
0.004967843
0.004773249
0.004628155
0.004487885
0.004197832
0.003739094
0.003217413
0.002627873
0.001970525
0.001258303
0.0005551565
5.351593e-05
3.648789e-05
0.0003035603
0.0007174292
0.001130537
0.001505027
0.00185225
0.00218336
0.002504542
0.002818291
0.003125039
0.003424008
0.003713124
0.003851107
0.003955495
0.004074284
0.004223332
0.004382444
0.0045571
0.004744094
0.004974788
0.005244204
0.005530253
0.005837833
0.006153435
0.006467215
0.006767686
0.007043632
0.007290057
0.007508272
0.007709854
0.007909129
0.008119687
0.008174015
0.008195229
0.00816954
0.008120884
0.008041796
0.007929245
0.007781914
0.007600683
0.007385017
0.007132408
0.006842446
0.006518459
0.00617045
0.00581593
0.005473123
0.005155438
0.004875249
0.004664008
0.004539548
0.004447741
0.004212933
0.003754288
0.003231246
0.002639745
0.001979724
0.001264326
0.0005576606
5.347333e-05
3.69391e-05
0.0002965767
0.0007020783
0.001115717
0.00149391
0.001843855
0.002175322
0.002494946
0.002806022
0.003109663
0.003405599
0.003692602
0.003864417
0.003984038
0.004094939
0.004215787
0.004356289
0.004527028
0.004743496
0.004975947
0.005230509
0.005498345
0.005785402
0.006078095
0.006367289
0.006644485
0.006901763
0.007132032
0.007332117
0.007510945
0.007698153
0.007954402
0.008078166
0.008018275
0.007970155
0.007915242
0.007842866
0.007742058
0.007607442
0.007436228
0.007225216
0.006974231
0.00668857
0.006376382
0.006045654
0.005706808
0.005374619
0.005068205
0.004807413
0.004609104
0.00447771
0.004389272
0.004223855
0.003766384
0.003243123
0.002650043
0.001987947
0.00127041
0.000560559
5.340226e-05
3.730558e-05
0.0002901732
0.0006869229
0.001099565
0.001480941
0.001832768
0.002164423
0.002482622
0.002791206
0.00309185
0.003384757
0.00366909
0.003848466
0.003973675
0.004092767
0.004225169
0.00437795
0.004553334
0.004749166
0.004975909
0.005227501
0.005503059
0.005782845
0.006062789
0.006335597
0.006593584
0.006830298
0.007042626
0.007232663
0.0074092
0.007587244
0.00778397
0.008002439
0.00801611
0.007880979
0.007807907
0.007735704
0.007637237
0.007502619
0.00732927
0.007117206
0.006868092
0.00658612
0.006278274
0.005953871
0.005624179
0.005302022
0.005002221
0.004742092
0.004542543
0.004417147
0.00434351
0.004213037
0.003770699
0.003247127
0.002653263
0.00199014
0.001271269
0.0005608196
5.336016e-05
3.757995e-05
0.0002850556
0.0006735747
0.001083392
0.001465691
0.001818876
0.002150913
0.002468088
0.002774585
0.003072601
0.00336287
0.003645156
0.003860516
0.004000853
0.004126129
0.004259689
0.004412204
0.004589182
0.004792339
0.005020899
0.005271051
0.005536857
0.005809651
0.006081483
0.006344429
0.00659159
0.006817706
0.007020394
0.007202039
0.007371811
0.007545827
0.007743168
0.007981596
0.008024651
0.007886937
0.007795141
0.007708174
0.007601426
0.007461219
0.00728195
0.007063256
0.00680838
0.006523329
0.006215978
0.005895336
0.00557147
0.005256023
0.004963058
0.004708641
0.004512002
0.004386457
0.004314194
0.004192806
0.003774614
0.003251332
0.002657066
0.001993091
0.001273279
0.0005619377
5.331403e-05
3.783284e-05
0.0002810817
0.0006611556
0.001067322
0.001449676
0.001804104
0.002136177
0.002452468
0.002757334
0.003053387
0.003341916
0.003623368
0.003889622
0.004046704
0.004183596
0.00432661
0.004486363
0.004667761
0.004872178
0.005099445
0.005348116
0.005610834
0.005877708
0.006141614
0.006395173
0.006632082
0.006848047
0.007041657
0.007215451
0.007377392
0.00754242
0.007733323
0.007983442
0.008054711
0.007923581
0.007814277
0.007707918
0.007586209
0.007434659
0.007245946
0.007019254
0.00675836
0.006469919
0.006162161
0.005843999
0.005524779
0.005214853
0.004926917
0.00467615
0.00448215
0.004359522
0.004292427
0.004180314
0.003775763
0.003252364
0.002657636
0.001993195
0.001273289
0.0005617088
5.325651e-05
3.798801e-05
0.0002783798
0.0006510091
0.001052538
0.001433769
0.001788311
0.002120526
0.002436269
0.00274001
0.003034703
0.003322073
0.00360302
0.003878331
0.004111974
0.004267968
0.004421011
0.00458754
0.004773205
0.004980686
0.005209385
0.005455084
0.005711871
0.005972304
0.006228051
0.006471929
0.006698347
0.006903844
0.007087632
0.007252105
0.007403807
0.007556031
0.007734807
0.00798859
0.008087505
0.007963966
0.007839526
0.007716998
0.007581068
0.007417642
0.007219073
0.006984402
0.00671773
0.006426192
0.006118209
0.005802385
0.005487308
0.005182365
0.004899321
0.004652451
0.004460824
0.004339166
0.004273118
0.004165936
0.003776117
0.003252686
0.002657489
0.001992834
0.001273104
0.0005616951
5.322347e-05
3.8224e-05
0.0002769664
0.000642591
0.001038921
0.001418252
0.001772477
0.002104744
0.002420096
0.002723147
0.003017045
0.003303868
0.003584919
0.003861061
0.004133744
0.004372283
0.004538763
0.004711168
0.004903379
0.005114302
0.005341891
0.005583534
0.005834381
0.006087251
0.006334249
0.006568211
0.006783604
0.006977489
0.007150087
0.007305063
0.007449685
0.007594432
0.007751132
0.007926779
0.008102301
0.008061046
0.007867986
0.007722215
0.007575322
0.007402871
0.007195768
0.006953839
0.006682016
0.006387886
0.006079912
0.00576633
0.005455019
0.005154487
0.004875718
0.004632463
0.004443644
0.004324271
0.004260859
0.004158194
0.003775816
0.003252209
0.002656698
0.001991837
0.00127205
0.0005610355
5.315987e-05
3.834484e-05
0.0002765451
0.0006361799
0.001027104
0.001403854
0.001757201
0.002089184
0.002404353
0.002707075
0.00300066
0.003287455
0.003569087
0.003846734
0.004121365
0.004393725
0.004665383
0.004865862
0.005054757
0.0052634
0.005490992
0.005731534
0.005977712
0.006222222
0.006458844
0.006681763
0.006885695
0.007067589
0.007227728
0.007370068
0.007502197
0.007634603
0.007777594
0.007934327
0.008104002
0.008086267
0.007902159
0.007743521
0.007580377
0.007394658
0.00717769
0.006928629
0.00665211
0.00635571
0.006047797
0.005736239
0.005428295
0.005131727
0.004856655
0.004616781
0.004430549
0.004312912
0.004250911
0.004150896
0.003774906
0.003250977
0.002655189
0.001990138
0.001270659
0.0005604734
5.313928e-05
3.854535e-05
0.0002766988
0.0006311051
0.001016769
0.001390574
0.001742748
0.002074347
0.002389407
0.002692075
0.002985725
0.003272886
0.003555411
0.003834678
0.004111768
0.004387557
0.004662797
0.004937821
0.005212222
0.005448481
0.005663541
0.005889943
0.006125815
0.006364682
0.006595252
0.006810238
0.007003308
0.00717228
0.007318731
0.007446977
0.007563847
0.007678174
0.007800355
0.007942849
0.008114483
0.008109683
0.007929666
0.007762136
0.007586492
0.007389002
0.007162553
0.006906594
0.00662571
0.006327359
0.006019672
0.005710086
0.005405271
0.005112335
0.004840669
0.00460407
0.004420655
0.004305362
0.004245471
0.004147733
0.003774217
0.003249837
0.002653628
0.001988409
0.001269165
0.000559558
5.308319e-05
3.876603e-05
0.0002780759
0.0006280969
0.001008439
0.001379051
0.001729558
0.002060543
0.002375535
0.002678381
0.002972426
0.003260304
0.003544013
0.003825063
0.004104591
0.004383439
0.004662165
0.00494099
0.005219778
0.005498138
0.005774992
0.006048526
0.006297771
0.006517584
0.006730696
0.006934759
0.007120104
0.007280193
0.007414547
0.007528414
0.007629894
0.00772807
0.007832832
0.007955345
0.008111488
0.008117221
0.007952584
0.007780488
0.007593637
0.007385118
0.007149843
0.006887539
0.006602715
0.00630269
0.005995321
0.005687599
0.005385635
0.005095997
0.004827623
0.004594088
0.004413356
0.004300248
0.004242012
0.004145556
0.003773414
0.003248481
0.002651707
0.00198629
0.001267446
0.0005588271
5.307519e-05
3.883873e-05
0.0002798589
0.0006253774
0.00100099
0.001368449
0.001717604
0.002048174
0.002363123
0.002666343
0.002961099
0.003250067
0.003535333
0.003818481
0.004100676
0.004382717
0.004665044
0.004947733
0.00523047
0.005512517
0.005792663
0.006069246
0.006340277
0.006603526
0.006856509
0.007074692
0.007244301
0.007389108
0.007511261
0.007612392
0.007698925
0.007779912
0.007865105
0.007967669
0.008109071
0.008123485
0.007969865
0.007793886
0.007599262
0.00738216
0.007139261
0.006871192
0.006582781
0.00628131
0.005974343
0.005668406
0.005369084
0.005082477
0.004817169
0.004586584
0.004408606
0.004297962
0.004241698
0.004146219
0.003773155
0.003247516
0.002650163
0.001984482
0.001265815
0.0005578299
5.302935e-05
3.973723e-05
0.0002794961
0.0006201783
0.0009953995
0.001359763
0.001707268
0.002037253
0.002352428
0.002656315
0.002952163
0.003242675
0.003529989
0.003815728
0.004101055
0.004386712
0.004673028
0.004959927
0.005246909
0.005533037
0.005816952
0.0060969
0.006370798
0.006636307
0.006890877
0.00713191
0.007356761
0.00751506
0.007622836
0.007707433
0.007778822
0.00784558
0.007915522
0.007991796
0.008068231
0.008121648
0.008020443
0.007806837
0.007601116
0.007378907
0.007131032
0.006858253
0.006566511
0.006263595
0.005956935
0.005652594
0.005355638
0.005071747
0.004809222
0.004581384
0.004406045
0.004297771
0.004243207
0.004148049
0.003773395
0.003246744
0.002648564
0.001982545
0.001264148
0.0005570316
5.303015e-05
4.107428e-05
0.0002821456
0.0006082824
0.0009919756
0.001352791
0.001698548
0.002028034
0.002343629
0.002648573
0.002946022
0.003238672
0.003528678
0.003817665
0.004106767
0.004396644
0.004687496
0.004979083
0.005270714
0.005561264
0.005849195
0.006132611
0.006409312
0.006676876
0.006932738
0.007174291
0.007398964
0.007604782
0.007749705
0.00782414
0.007876061
0.007922885
0.007973043
0.008028443
0.008081163
0.008119479
0.008028137
0.007823405
0.007612502
0.007382136
0.007127084
0.006848992
0.006553947
0.006249646
0.005943202
0.005640216
0.005345287
0.005063751
0.004803711
0.004578422
0.004405677
0.00429991
0.004247264
0.004152142
0.003773636
0.003246349
0.002647481
0.001981111
0.001262782
0.0005562079
5.299747e-05
4.167365e-05
0.0002854078
0.0005980789
0.0009903622
0.001347572
0.001691765
0.002020928
0.002337203
0.002643627
0.002943244
0.003238707
0.003532144
0.003825141
0.004118756
0.004413532
0.004709511
0.005006267
0.005302906
0.005598099
0.005890127
0.006176943
0.006456238
0.006725532
0.006982126
0.007223585
0.007447569
0.00765139
0.007832994
0.007952371
0.007995673
0.008020303
0.008045192
0.008074424
0.008105223
0.008130447
0.008040493
0.007839821
0.007624981
0.007388185
0.007126702
0.00684343
0.006545012
0.00623921
0.005932858
0.005631084
0.00533799
0.00505855
0.004800711
0.004577702
0.004407324
0.004303863
0.004252862
0.004157381
0.003774925
0.003246398
0.002646889
0.001979748
0.001261384
0.0005554201
5.300328e-05
4.179617e-05
0.0002884813
0.0005886779
0.0009771749
0.001344054
0.001686371
0.002015631
0.002333136
0.002641696
0.002944236
0.003243337
0.003541064
0.00383892
0.004137841
0.004438212
0.004739886
0.005042223
0.005344109
0.005644009
0.005940017
0.006229934
0.006511354
0.006781583
0.007038393
0.007279069
0.007501503
0.007702882
0.007881482
0.008035554
0.00811726
0.008131997
0.008134082
0.008138289
0.008144726
0.008146922
0.008050906
0.007856015
0.007639692
0.007397522
0.007129892
0.006841563
0.006539932
0.00623273
0.005926326
0.005625278
0.005333319
0.005055371
0.004799383
0.004578522
0.004410593
0.004309674
0.004260556
0.004164583
0.003777
0.003247279
0.002646636
0.001979095
0.001260493
0.0005547811
5.297791e-05
4.201237e-05
0.0002915238
0.0005806852
0.0009626598
0.001342816
0.001683595
0.002013005
0.002332115
0.002643418
0.002949648
0.003253247
0.003556155
0.003859727
0.004164728
0.004471336
0.004779181
0.005087386
0.005394613
0.005699122
0.005998847
0.00629144
0.006574208
0.006845082
0.007101315
0.007340515
0.007560282
0.00775854
0.007933455
0.008083468
0.008207312
0.008244723
0.008233745
0.008215261
0.008196489
0.0081727
0.008067104
0.007875388
0.007656991
0.007409922
0.007136696
0.006843471
0.006538289
0.006228992
0.005922132
0.005622099
0.005331911
0.005055876
0.004801639
0.004582401
0.004416308
0.004317287
0.004269664
0.004172873
0.003779743
0.003248665
0.002646899
0.001978559
0.001259573
0.0005541582
5.298571e-05
4.225306e-05
0.0002945036
0.0005735696
0.0009492784
0.001342655
0.00168255
0.002012851
0.002334227
0.002649074
0.002959892
0.003268935
0.003577954
0.003888102
0.004199917
0.004513334
0.004827726
0.00514197
0.005454495
0.005763332
0.006066015
0.006360504
0.006644482
0.006915138
0.007170024
0.007406956
0.007623513
0.007817914
0.007988502
0.008133904
0.008253034
0.008345094
0.008337965
0.008301961
0.008259142
0.00820786
0.008089769
0.007899033
0.007677903
0.007425904
0.007147299
0.006849779
0.006542579
0.006233189
0.005927162
0.005626645
0.005335242
0.005058643
0.004805416
0.00458803
0.00442447
0.004328726
0.004282626
0.004184308
0.003783318
0.003250805
0.002647856
0.001978631
0.001259232
0.000553838
5.297283e-05
4.253569e-05
0.0002977005
0.0005678647
0.0009366871
0.001344757
0.001684231
0.002015776
0.002340085
0.002659275
0.002975578
0.003290988
0.003607007
0.003924531
0.004243822
0.004564533
0.004885775
0.005206016
0.005523233
0.005835679
0.006141342
0.006437443
0.006721531
0.006991133
0.00724389
0.00747776
0.007690465
0.007880427
0.008046182
0.008186548
0.00830062
0.008387761
0.008433297
0.008394919
0.008330788
0.008250963
0.008117646
0.00792507
0.007700382
0.007444281
0.00716201
0.006861352
0.006550372
0.006236503
0.005926181
0.005626198
0.005338588
0.005065746
0.00481407
0.004597715
0.004434502
0.004338279
0.004292739
0.004193781
0.003787342
0.003253364
0.002649174
0.001979079
0.001258944
0.0005534119
5.298709e-05
4.280447e-05
0.0003006807
0.0005629302
0.0009260242
0.001347275
0.001687348
0.002021329
0.002349976
0.002674342
0.002996995
0.003319792
0.003643823
0.003969589
0.004296904
0.004624917
0.004952145
0.005277779
0.005599974
0.005916169
0.006223916
0.006520771
0.006804301
0.007072145
0.007322136
0.007552176
0.007760497
0.007945572
0.008106136
0.008241198
0.008350027
0.008432138
0.008487268
0.008478055
0.008405117
0.008300946
0.008151852
0.007955584
0.007725146
0.007461944
0.007172397
0.006865879
0.006551608
0.006238343
0.005930991
0.005632061
0.00534433
0.005071789
0.004820972
0.004604874
0.004441993
0.00434654
0.004302896
0.004203691
0.003792061
0.003256533
0.002650947
0.00197967
0.001259031
0.0005532661
5.29966e-05
4.316693e-05
0.0003040604
0.0005597097
0.0009177875
0.001352034
0.001693598
0.002030717
0.002363876
0.002695186
0.00302594
0.003356844
0.00368878
0.00402225
0.004357167
0.004692591
0.005027289
0.005358809
0.005685139
0.006004003
0.006313018
0.006609786
0.006891958
0.00715731
0.007403829
0.007629607
0.007833084
0.008012924
0.008168056
0.008297664
0.008401178
0.008478252
0.008528734
0.008552642
0.008479817
0.008356284
0.008190776
0.007986469
0.007747821
0.007479571
0.007187049
0.006878302
0.006562988
0.006248598
0.005940421
0.005640134
0.005351185
0.005077423
0.004827023
0.004613545
0.004454375
0.004361904
0.004316999
0.00421393
0.003797483
0.003260325
0.002653311
0.001980867
0.001259337
0.0005531851
5.300551e-05
4.328061e-05
0.0003068924
0.0005567186
0.0009080083
0.001357302
0.001700996
0.002042172
0.00238118
0.002719252
0.003057535
0.003397375
0.003739162
0.004082449
0.004426258
0.004769404
0.005110223
0.005446655
0.005776488
0.006097404
0.006407047
0.006703088
0.006983296
0.007245616
0.007488172
0.007709321
0.00790767
0.008082082
0.00823167
0.008355788
0.008454011
0.008526113
0.008572035
0.008591858
0.008546968
0.008418153
0.00823606
0.008021213
0.007776714
0.00750411
0.007207884
0.00689601
0.006577369
0.00626048
0.005950584
0.005650659
0.005362327
0.005089051
0.004838479
0.00462418
0.004464618
0.004373918
0.00433251
0.004229488
0.00380351
0.003264608
0.002656076
0.001982362
0.00125991
0.0005533208
5.301603e-05
4.415321e-05
0.0003101
0.000555707
0.0009030056
0.001360658
0.001712267
0.002058765
0.002404817
0.002751251
0.003098925
0.003448368
0.0037995
0.004151627
0.004503555
0.0048537
0.00520018
0.005540871
0.005873512
0.006195778
0.006505361
0.006800032
0.007077679
0.00733647
0.007574695
0.007790916
0.007983941
0.008152821
0.008296845
0.008415518
0.008508547
0.008575811
0.008617329
0.008633238
0.008618649
0.008487159
0.008290482
0.008065022
0.007812024
0.007532444
0.007231196
0.006915778
0.006595116
0.006276791
0.005965749
0.005664539
0.005375032
0.005100875
0.00484999
0.004636125
0.00447754
0.004387349
0.004345543
0.004241091
0.003809845
0.003269196
0.002659114
0.001984134
0.001260776
0.0005534966
5.303576e-05
4.356301e-05
0.000315337
0.0005553186
0.0008978718
0.001355217
0.001725343
0.002077606
0.002431381
0.002786925
0.003144518
0.003504081
0.003865029
0.004226277
0.004586313
0.004943304
0.005295198
0.005639786
0.00597478
0.006297885
0.006606881
0.006899683
0.007174368
0.00742927
0.007662901
0.007874022
0.008061636
0.008224977
0.008363495
0.008476836
0.008564816
0.008627396
0.008664657
0.008676769
0.008663966
0.00855023
0.008344909
0.008108913
0.00784788
0.007562798
0.007257226
0.006938343
0.006614835
0.006294282
0.005981621
0.005679288
0.005389004
0.005114199
0.004862777
0.004648663
0.004490438
0.00440137
0.00436064
0.004254584
0.003816897
0.003274403
0.002662622
0.001986122
0.001261548
0.0005537748
5.305351e-05
4.297708e-05
0.0003182055
0.0005551382
0.0008922698
0.001349782
0.001740913
0.002099938
0.002462335
0.002827749
0.003195822
0.003565875
0.003936817
0.004307162
0.004675102
0.005038593
0.005395443
0.005743377
0.006080116
0.006403451
0.006711304
0.007001626
0.007272958
0.007523671
0.007752499
0.007958412
0.008140598
0.008298458
0.00843158
0.008539729
0.008622816
0.008680871
0.008714021
0.008722459
0.008706425
0.008602862
0.008392795
0.008150283
0.00788305
0.007592777
0.007283091
0.006961056
0.006635197
0.006312875
0.005998787
0.005695174
0.005403767
0.00512799
0.004875869
0.004661499
0.004503567
0.004415261
0.004375221
0.004268087
0.003824259
0.003279921
0.002666447
0.001988456
0.001262698
0.0005540289
5.307696e-05
4.416991e-05
0.0003191785
0.0005560098
0.0008879381
0.001344812
0.001759329
0.00212606
0.002497897
0.002873831
0.003252832
0.003633612
0.004014578
0.004393854
0.004769346
0.005138829
0.005500017
0.00585063
0.006188459
0.006511422
0.006817599
0.007105144
0.007372783
0.007619105
0.007843041
0.008043743
0.008220568
0.008373063
0.008500944
0.008604079
0.008682458
0.008736169
0.008765376
0.008770287
0.00875114
0.008655111
0.008441675
0.008193926
0.007921282
0.00762619
0.007312421
0.006986999
0.006658381
0.006333833
0.006017918
0.005712733
0.00541995
0.005142957
0.004889858
0.004674924
0.004517025
0.004429351
0.004389969
0.004281724
0.003832014
0.003285808
0.002670615
0.001991056
0.001263897
0.0005544288
5.309695e-05
4.488541e-05
0.0003222446
0.0005576879
0.000884957
0.001341569
0.001780319
0.0021556
0.002537586
0.002924566
0.003314816
0.003706435
0.004097331
0.004485257
0.004867873
0.005242819
0.005607775
0.005960503
0.006298902
0.006621035