/*--------------------------------*- C++ -*----------------------------------*\
| =========                 |                                                 |
| \\      /  F ield         | OpenFOAM: The Open Source CFD Toolbox           |
|  \\    /   O peration     | Version:  2312                                  |
|   \\  /    A nd           | Website:  www.openfoam.com                      |
|    \\/     M anipulation  |                                                 |
\*---------------------------------------------------------------------------*/
FoamFile
{
    version     2.0;
    format      ascii;
    arch        "LSB;label=32;scalar=64";
    class       volScalarField;
    location    "4200";
    object      G;
}
// * * * * * * * * * * * * * * * * * * * * * * * * * * * * * * * * * * * * * //

dimensions      [1 0 -3 0 0 0 0];

internalField   nonuniform List<scalar> 
12000
(
21749.37
19615.85
18670.2
17982.16
17287.55
16604.47
16035.18
15630.71
15369.48
15197.65
15072.92
14987.64
14964.79
15027.47
15162.71
15311.09
15393.69
15355.6
15193.35
14949.35
14682.12
14435.16
14223.14
14038.1
13865.76
13698.91
13541.2
13402.45
13291.09
13208.64
13148.57
13098.75
13045.77
12978.96
12893.04
12788.86
12672.23
12551.7
12436.28
12333.99
12251.47
12194.18
12166.2
12169.7
12204.3
12267.04
12352.41
12452.24
12556.68
12656.2
12743.16
12812.8
12862.31
12891.62
12901.29
12888.02
12845.24
12763.33
12659.9
12451.42
23667.67
22295.77
21179.3
20160.3
19154.76
18282.96
17645.92
17213.52
16892.34
16609.11
16346.51
16137.73
16030.38
16038.02
16114.39
16172.84
16135.76
15975.33
15718.49
15419.57
15125.06
14854.13
14601.7
14354.88
14108.09
13868
13648.54
13461.9
13311.83
13191.99
13089.14
12988.6
12879.48
12757.68
12626.26
12493.51
12370.03
12265.87
12188.59
12142.33
12127.99
12144.2
12188.33
12257.13
12346.5
12450.78
12562.3
12672
12770.68
12850.21
12903.96
12927.36
12919
12881.95
12822.98
12748.32
12659.88
12549.69
12432.11
12242.66
24032.16
23150.26
22079.41
21068.04
20175.36
19420.68
18805.01
18292.33
17838.9
17426.94
17080.65
16851.07
16771.18
16814.27
16893.84
16908.03
16793.73
16551.3
16229.05
15885.91
15560.71
15263.71
14987.66
14724.44
14475.08
14249.02
14056.84
13902.81
13781.71
13680.75
13584.73
13481.73
13366.69
13242.18
13116.37
12999.79
12902.14
12830.34
12787.65
12773.76
12785.38
12817.34
12863.82
12919.59
12980.21
13041.39
13098.16
13144.8
13175.71
13186.29
13173.21
13134.37
13069.5
12981.53
12877.6
12766.68
12654.26
12532.6
12412.63
12225.68
24016.79
23413.58
22313.29
21272.16
20555.87
20024
19493.31
18914.53
18336.42
17836.22
17487.24
17330.89
17342.99
17427.33
17456.74
17336.91
17048.25
16641.06
16195.58
15778.41
15420.51
15121.56
14868.35
14651.29
14469.95
14328.83
14229.64
14166.29
14125.03
14088.84
14043.32
13981.21
13903.86
13819.56
13739.76
13675.16
13632.97
13616.03
13623.21
13650.29
13690.95
13737.74
13783.4
13822.13
13850.18
13865.36
13865.87
13849.6
13814.23
13757.9
13679.79
13580.15
13460.36
13323.37
13174.72
13021.2
12868.34
12709.67
12568.49
12341.55
23805
23380.43
22316.68
21243.81
20563.98
20132.08
19690.24
19150.84
18582.13
18105.04
17814.59
17728.89
17772.69
17811.97
17723.63
17455.2
17038.19
16554.75
16087.42
15684.45
15354.68
15084.19
14857.09
14666.85
14515.46
14405.84
14334.84
14291.27
14259.18
14223.72
14176.54
14118.09
14056.55
14003.98
13971.69
13966.71
13990.35
14038.8
14104.96
14180.16
14255.38
14322.06
14372.92
14402.89
14409.63
14393.23
14355.11
14296.77
14219.06
14122.53
14008.39
13879.02
13737.34
13585.64
13425.6
13258.7
13089.69
12918.38
12781.45
12558.02
23583.12
23196.93
22274.28
21217.75
20373.24
19803.47
19395.57
19021.47
18643.69
18314.72
18100.01
18002.53
17949.06
17838.75
17607.85
17262.38
16862.66
16479.45
16155.33
15892.79
15668.28
15455.74
15242.85
15033.11
14837.51
14664.39
14513.75
14378.19
14248.23
14118.32
13990.32
13873.31
13780.11
13722.56
13707.54
13734.98
13798.33
13886.69
13987.54
14088.99
14180.88
14255.21
14306.13
14330.13
14326.42
14296.93
14245.61
14176.94
14094.4
14000.17
13896.11
13784.76
13668.63
13548.15
13421.01
13284.92
13145.49
13011.43
12918.95
12772.77
23460.81
22937.21
22138.8
21094.31
20016.67
19223.09
18800.47
18598
18457.55
18331.6
18229.43
18133.47
17987.27
17742.1
17400.57
17017.65
16664.74
16387.73
16187.43
16029.47
15870.58
15682.23
15459.27
15214.04
14963.84
14720.81
14488.63
14265.54
14050.17
13845.97
13662.27
13511.73
13406.01
13351.86
13349
13390.42
13464.35
13557.04
13655.34
13748.42
13828.38
13889.92
13929.64
13945.63
13937.73
13908.15
13861.45
13803.35
13738.74
13670.46
13599.68
13527.18
13453.29
13376.35
13292.67
13200.78
13109.3
13033.13
12996.36
12948.81
23389.3
22389.76
21528.79
20484.07
19346.89
18466.09
17991.46
17826.79
17824.82
17895.09
17976.93
17995.48
17875.41
17587.46
17171.56
16713.98
16298.89
15969.82
15721.6
15519.48
15326.86
15123.9
14910.42
14697.28
14495.49
14309.74
14138.51
13978.53
13829.44
13695.97
13586.47
13509.35
13469.4
13465.86
13492.77
13540.78
13599.55
13659.7
13713.98
13757.7
13788.46
13805.24
13807.42
13794.21
13765.02
13720.72
13664.43
13601.16
13535.99
13472.21
13410.62
13350.35
13289.67
13226.13
13157.59
13086.37
13023.51
12983.49
12976.2
12980.59
22611.04
21098.19
20261.41
19481.35
18643.13
17854.3
17276.02
17010.78
17050.76
17290.87
17573.86
17744.27
17700.99
17428.82
16990.96
16487.33
16005.58
15592.07
15252.42
14971.62
14735.21
14539.45
14388.83
14287.75
14233.95
14217.47
14224.67
14243.67
14267.86
14295.93
14329.06
14367.46
14408.34
14446.02
14473.7
14485.63
14478.5
14451.67
14406.65
14346.21
14273.55
14191.53
14101.92
14005.07
13900.44
13787.92
13669.28
13548.61
13431.36
13322.16
13222.95
13132.57
13048.28
12967.91
12892.04
12825.75
12777.83
12755.2
12752.83
12765.99
11652.44
14000.39
15134.11
15728.01
15903.77
15681.18
15338.44
15222.41
15473.14
15977.05
16502.77
16854.75
16949.6
16811.34
16522.8
16172.02
15818.18
15485.29
15176.68
14894.76
14652.19
14469.93
14366.99
14350.62
14412.71
14533.46
14688.88
14857.66
15024.51
15179.57
15315.77
15426.47
15504.85
15544.96
15543.42
15500.49
15419.88
15307.46
15169.76
15012.76
14841.47
14659.85
14470.86
14276.45
14077.9
13876.59
13675.24
13478.84
13294.33
13128.53
12985.26
12863.81
12760.72
12674.18
12606.9
12564.19
12547.61
12552.42
12559.34
12586.56
11566.63
13334.19
14307.02
14872.42
15077.39
14927.89
14650.03
14562.48
14812.19
15290.32
15765.7
16063.06
16140.72
16056.79
15893.47
15702.32
15491.82
15246.68
14956.62
14635.1
14319.73
14057.86
13888.28
13828.88
13874.67
14004.32
14189.84
14404.42
14626.15
14838.11
15026.98
15182.08
15295.59
15363.33
15385.22
15364.76
15307.54
15219.41
15105.09
14967.73
14809.46
14632.32
14439.03
14233.26
14019.31
13801.96
13586.79
13380.85
13192.55
13029.97
12897.74
12795.16
12718.26
12665.27
12639.72
12645.62
12676.87
12718.74
12746.44
12801.86
20937.17
18260.54
17303.41
16764.1
16248.13
15739.52
15321.68
15114.69
15166.3
15379.4
15581.35
15653.18
15589.22
15458.4
15328.28
15217.14
15095.46
14919.51
14666.73
14351.82
14019.32
13722.69
13503.71
13381.62
13353.85
13403.77
13509.63
13650.59
13808.87
13969.72
14120.85
14252.69
14358.91
14436.9
14487.26
14512.52
14515.45
14497.65
14459.02
14398.15
14313.58
14205.26
14075.58
13929.43
13773.41
13614.63
13460.11
13316.79
13191.59
13090.41
13016.1
12967.29
12940.33
12933.63
12949.64
12989.44
13043.03
13092.94
13121.68
13169.8
11616.4
12484.48
13151.57
13609.92
13771.76
13761.88
13749.71
13832.24
14018.34
14244.4
14420.32
14492.31
14475.12
14429.66
14411.05
14432.07
14464.9
14470.51
14428.37
14346.72
14252.36
14172.44
14121.29
14098.25
14093.85
14097.96
14104.73
14112.98
14123.69
14137.35
14152.77
14167.5
14178.98
14185.36
14185.63
14179.1
14164.84
14141.25
14106.19
14057.52
13993.99
13916.26
13827.43
13732.82
13638.8
13551.19
13474.22
13410.25
13360.2
13323.88
13300.17
13287.27
13283.6
13288.64
13302.03
13320.36
13334.51
13332.76
13315.29
13278.93
10985.94
11609.29
12255.83
12893.93
13349.37
13591.58
13720.59
13806.36
13864.59
13900.84
13921.12
13924.06
13908.91
13887.26
13877.93
13892.55
13931.25
13991.87
14079.14
14202.43
14364.38
14551.52
14735.22
14882.23
14967.84
14983.89
14938.88
14851.86
14744.46
14634.69
14534.18
14448.11
14376.71
14317.17
14265.24
14216.55
14167.55
14116.1
14061.66
14005.14
13948.66
13895.34
13849.05
13813.87
13793.09
13787.88
13796.36
13813.53
13832.36
13845.79
13849.26
13842.25
13827.33
13806.32
13776.52
13730.79
13664.8
13576.38
13489.19
13328.77
10851.84
11138.88
11541.31
12085.99
12715.2
13279.16
13651.19
13764.22
13645.42
13417.94
13225.42
13145.02
13167.55
13239.22
13310.69
13361.53
13402.02
13463.29
13581.05
13776.7
14043.7
14346.66
14633.75
14855.75
14981.88
15006.25
14944.39
14824.08
14675.56
14524.42
14388.16
14275.81
14189.22
14125.27
14078.26
14042.25
14012.96
13988.75
13970.7
13961.79
13965.67
13985.56
14023.56
14080.26
14154.29
14241.6
14334.89
14423.7
14496.05
14541.77
14556.39
14542.95
14509.02
14459.52
14391.53
14297.34
14177.73
14037.22
13916.71
13692.7
10852.47
10997.85
11246.69
11663.2
12343.53
13145.83
13760.82
13950.46
13705.8
13226.42
12775.4
12531.7
12530.47
12697.34
12924.85
13136.29
13310.54
13470.34
13651.91
13876.19
14135.26
14396.54
14618.4
14766.88
14825.95
14798.73
14702.29
14560.17
14396.07
14230.15
14077.44
13947.74
13846.09
13773.72
13729.25
13710.17
13714.18
13740
13787.45
13856.79
13947.67
14058.29
14185.12
14323.26
14466.82
14608.79
14740.55
14851.69
14931.75
14973.64
14977.5
14951.43
14907.03
14851.59
14783.76
14697.64
14595.34
14481.84
14395.54
14226.11
10864.44
10920.27
11095.96
11475.16
12178.29
13078.05
13813
14072.88
13807.03
13210.61
12580.07
12159.99
12052.83
12217.05
12534.51
12893.2
13233.98
13547.67
13844.37
14125.95
14377.93
14577.96
14708.92
14766.44
14758.28
14698.47
14601.25
14477.76
14336.07
14183.05
14026.27
13874.79
13738.75
13628.13
13551.34
13514.3
13519.97
13568.44
13657.04
13780.53
13931.18
14099.13
14273.32
14442.86
14598.37
14732.29
14838.38
14911.19
14947.02
14946.51
14916.8
14870.41
14820.35
14774.3
14732.69
14692.06
14652.26
14614.02
14596.14
14543.88
10887.52
10877.93
11020.9
11449.41
12200.16
13088.53
13788.37
14048.2
13825.27
13271.29
12638.66
12165.91
11982.93
12081.5
12363.35
12720.77
13088.59
13445.01
13783.72
14091.73
14347.94
14535.3
14651.35
14708.66
14726.55
14721.07
14699.06
14658.39
14592.42
14495.76
14368.53
14218.07
14058.05
13905.74
13778.65
13691.42
13653.68
13669.02
13735.07
13844.19
13984.55
14141.52
14299.49
14443.95
14563.45
14650.55
14701.67
14716.56
14698.47
14655.02
14597.84
14539.92
14491.54
14458.06
14440.91
14439.43
14451.8
14473.58
14502.82
14529.07
10904.2
10862.79
11017.51
11532.05
12317.28
13113.7
13682.6
13899.52
13758.77
13358.69
12872.9
12483.62
12300.98
12328.35
12496.59
12728.9
12982.2
13245.84
13517.92
13787.95
14037.55
14251.59
14426.6
14570.02
14692.54
14800.08
14890.1
14953.13
14977.52
14954.55
14882.11
14765.97
14618.83
14457.84
14301.36
14165.97
14064.03
14002.53
13982.85
14001.37
14050.38
14119.24
14195.72
14267.63
14324.55
14359.41
14369.31
14355.76
14324.4
14283.9
14243.69
14210.89
14188.65
14177.85
14180.34
14198.92
14233.27
14275.72
14313.33
14345.62
10911.3
10883.16
11112.56
11699.94
12438.16
13072.99
13501.28
13717
13724.73
13549.41
13268.82
12991.18
12799.58
12720.87
12737.77
12820.33
12948.15
13113.19
13311.7
13537.04
13778.81
14026.06
14269.96
14503.72
14720.75
14913.24
15072.42
15190.17
15260.97
15283.09
15258.85
15193.91
15096.2
14974.71
14838.52
14696
14554.45
14419.87
14297.18
14190.26
14101.93
14033.54
13984.34
13951.28
13929.59
13914.33
13902.48
13894.31
13892.89
13901.76
13921.8
13949.59
13979.26
14007.16
14035.52
14070.45
14114.47
14159.48
14190.14
14202.98
10917.07
10958.81
11317.52
11920.82
12509.95
12956.97
13305.75
13604.6
13821.66
13895.38
13804.11
13584.55
13312.46
13072.8
12930.58
12911.47
13001.75
13166.33
13370.97
13595.02
13830.8
14075.61
14324.06
14565.38
14785.61
14971.98
15116.66
15218.43
15281.75
15314.21
15323.47
15314.57
15288.73
15243.54
15174.41
15076.69
14947.72
14788.4
14604.04
14404.24
14201.86
14010.94
13843.92
13709.21
13610.12
13545.99
13514.92
13515.9
13548.32
13608.94
13689.17
13775.93
13856.66
13925.34
13984.69
14042.05
14100.89
14155.3
14190.28
14214.49
10946.63
11120.46
11615.14
12156.54
12557.73
12874.72
13229.32
13648.5
14056.05
14334.73
14388.77
14195.1
13829.17
13438.6
13170.4
13100.43
13212.83
13433.77
13684.61
13917.17
14118.39
14294.88
14455.44
14602.22
14731.48
14838.7
14923.18
14989.5
15045.86
15100.73
15159.36
15221.36
15280.07
15323.86
15338.84
15312.11
15234.76
15103.94
14923.9
14705.81
14466.39
14225.27
14001.47
13809.93
13659.62
13554.12
13494.18
13479.78
13509.38
13576.82
13669.4
13770.6
13866.69
13952.1
14029.26
14103.47
14176.19
14245.66
14297.7
14369.28
11019.56
11386.74
11974.56
12419.66
12707.14
13002.05
13397.22
13880.47
14381.58
14784.88
14956.07
14820.93
14435.55
13971.64
13620.82
13493.71
13583.3
13800.93
14042.57
14238.38
14365.99
14436.66
14474.02
14499.58
14528
14568.41
14626.94
14707.83
14812.94
14940.63
15084.79
15234.85
15376.85
15495.41
15576.07
15607.55
15583.23
15502.03
15368.41
15191.97
14986.39
14767.66
14551.73
14352.07
14178.23
14036.26
13930.24
13863.44
13837.13
13847.93
13886.6
13940.94
14001.39
14064.36
14130.24
14199.35
14269.45
14343.24
14408.28
14526.7
11156.56
11778.95
12428.6
12841.88
13142.53
13462.44
13837.45
14279.12
14776.48
15238.86
15510.23
15474.95
15152.63
14694.24
14290.24
14068.65
14049.42
14166.35
14323.79
14447.22
14505.53
14506.16
14477.47
14451.62
14454.46
14501.99
14600.48
14747.89
14935.3
15148.62
15370.6
15583.16
15769.79
15917.44
16017.71
16067
16065.79
16017.56
15927.55
15802.05
15647.91
15472.45
15283.2
15087.72
14893.46
14707.92
14538.67
14392.92
14276.18
14190.79
14135.39
14106.55
14101.19
14117.2
14151.25
14197.73
14250.7
14315.62
14380.84
14519.25
11481.97
12529.75
13285.22
13758.71
14101.11
14367.95
14617.86
14944.73
15386.19
15854.97
16185.86
16250.16
16036.31
15646.4
15230.72
14912.67
14744.63
14707.1
14739.87
14781.56
14797.08
14784.06
14763.06
14761.82
14802.73
14896.87
15043.74
15233.74
15451.46
15678.71
15897.25
16091.2
16248.87
16363.73
16434.36
16463.26
16455.12
16414.9
16346.33
16251.17
16129.46
15980.55
15804.78
15605.08
15387.87
15162.45
14939.3
14728
14536.29
14370.48
14236.14
14137.8
14077.54
14053.19
14057.71
14081.76
14117.81
14171.15
14228.55
14361.91
12437.04
13923.62
14670.45
15080.6
15298.3
15386.63
15471.99
15684.5
16046.95
16461.71
16788.42
16924
16835.87
16557.97
16170.72
15771.71
15441.34
15217.43
15092.57
15033.61
15007.97
15000.13
15012.39
15055.1
15135.96
15254.35
15401.7
15564.99
15730.48
15886.25
16023.35
16136.14
16222.16
16281.7
16316.95
16330.98
16326.6
16305.26
16266.35
16206.92
16122.25
16007.39
15859.51
15680.2
15476.38
15258.75
15038.49
14824.31
14622.37
14438.82
14281.84
14160.05
14077.86
14032.4
14015.27
14018.15
14035.84
14071.8
14112.05
14216.62
21872.6
20299.32
19458.88
18880.85
18341.76
17857.77
17542.84
17456.7
17550.48
17721.35
17879.88
17961.04
17906.84
17673.47
17263.43
16741.84
16212.25
15768.75
15459.68
15283.27
15208.24
15199.04
15230.26
15287.53
15361.72
15443.91
15524.28
15594.02
15647.67
15684.12
15706.06
15718.4
15726.52
15734.81
15745.79
15759.86
15775.39
15789
15795.74
15789.33
15762.73
15709.53
15626.12
15513.7
15378.58
15229.99
15076.17
14921.66
14768.23
14618.8
14480.39
14362.01
14268.83
14198.67
14145.29
14105.35
14079.3
14069.66
14067.23
14103.08
22740.19
21623.27
20770.23
20104.46
19449.98
18859.43
18462.25
18282.89
18248.87
18291.59
18382.06
18483.84
18513.34
18368.56
17998.68
17447.3
16834.09
16293.56
15915.53
15720.43
15672.42
15711.52
15782.29
15847.77
15889.57
15901.52
15883.68
15839.24
15773.77
15695.13
15612.88
15536.88
15475.58
15434.61
15416.14
15419.05
15439.68
15472.69
15511.62
15549.19
15577.79
15590.61
15583.26
15555.05
15508.83
15448.66
15376.85
15292.36
15192.44
15076.54
14949.03
14817.57
14688.13
14561.8
14437.46
14317.22
14207.07
14110.31
14029.92
13947.9
22954.58
22270.48
21500.28
20851.87
20270.73
19763.12
19380.07
19112.1
18923.36
18819.32
18825.84
18917.67
18992.2
18918.95
18619.42
18115.78
17519.32
16972.66
16583.97
16388.84
16352.94
16403.75
16468.28
16497.77
16473.53
16399.29
16289.32
16159.34
16022.43
15888.69
15766.32
15662.33
15582.47
15530.57
15508.11
15514.16
15545.78
15598.48
15666.58
15743.41
15821.79
15894.92
15957.42
16005.84
16038.05
16051.74
16043.1
16006.88
15938.09
15834.34
15697.38
15532.63
15346.89
15146.19
14935.66
14720.97
14510.46
14308.08
14135.55
13913.51
22932.21
22508.42
21761.57
21050.79
20565.45
20266.21
20011.96
19702.77
19359.75
19089.38
18979.94
19026.63
19132.13
19162.35
19015.24
18667.92
18183.01
17674.08
17249.83
16967.96
16820.86
16754.79
16705.08
16626.02
16502.7
16345.65
16177.01
16017.93
15882.12
15775.4
15698.58
15650.59
15630.34
15637.16
15670.41
15728.93
15810.55
15911.95
16028.55
16154.82
16284.79
16412.78
16533.71
16642.7
16734.22
16801.65
16837.82
16836.4
16792.81
16704.32
16569.96
16391.52
16174.95
15929.96
15666.81
15392.72
15115.06
14835.91
14598.07
14264.78
22807.42
22568.09
21867.86
21082.38
20632.53
20497.22
20374.74
20068.39
19628.16
19229.56
19010.95
19003.55
19142.56
19307.92
19372.31
19249.43
18927.38
18467.95
17970.7
17523.34
17167.38
16894.75
16669.71
16457.51
16242.73
16031.39
15841.37
15690.39
15588.32
15535.67
15526.55
15552.79
15607.06
15684.18
15780.92
15895.08
16024.42
16165.98
16315.92
16470.03
16624.42
16775.87
16921.33
17056.72
17175.97
17271.54
17336.32
17365.47
17356.27
17305.97
17210.53
17066.83
16877.17
16650.89
16399.82
16131.2
15850.13
15554.46
15302.69
14917.88
22614.21
22470.38
21876.59
21134.98
20684.29
20532.54
20394.08
20086.7
19661.33
19275.8
19055.18
19043.17
19206.9
19451.7
19646.33
19667.92
19451.87
19017.31
18452.02
17866.97
17348.78
16934.71
16617.17
16366.91
16156.9
15975.05
15823.47
15710.34
15641.68
15617.3
15631.33
15675.26
15741.01
15822.72
15916.88
16021.44
16134.56
16253.89
16376.61
16500.24
16623.37
16745.65
16866.55
16983.71
17092.22
17185.85
17259.48
17310.61
17338.12
17339.12
17307.11
17234.63
17118.74
16963.95
16778.91
16569.15
16338.56
16080.95
15859
15474.85
22403.61
22255.81
21815.17
21264.24
20801.34
20437.02
20099.55
19764.99
19470.38
19266.34
19186.01
19237.96
19400.29
19611.22
19772.91
19780.24
19564.56
19127.35
18542.15
17922.68
17375.62
16963.51
16694.02
16534.65
16439.18
16369.86
16307.11
16247.2
16194.31
16153.12
16125.22
16109.22
16102.59
16103.4
16110.93
16125.16
16145.93
16172.48
16203.82
16239.74
16281.31
16330.45
16388.32
16453.78
16523.22
16592.22
16657.71
16718.7
16774.59
16822.23
16854.43
16861.78
16836.72
16776.49
16682.94
16558.54
16407.94
16223.12
16058.02
15713.99
22186.77
21970.47
21702.95
21382.48
20868.26
20206.81
19623.28
19278.56
19167.79
19198.92
19292.49
19412.74
19546.11
19670.2
19738.4
19687.56
19465.21
19061.59
18526
17954.28
17452.14
17094.43
16901.74
16843.5
16861.2
16896.21
16908.76
16882.91
16820.8
16732.99
16630.62
16521.83
16411.51
16302.68
16197.57
16098
16005.3
15920.47
15844.78
15780.58
15731.31
15700.53
15690.33
15700.32
15728.12
15771
15827.28
15896.23
15976.58
16064.93
16155.01
16237.93
16303.39
16341.88
16348.03
16321.52
16268.56
16181.23
16095.21
15838.5
21976.36
21658.41
21516.49
21306.74
20702.07
19851.72
19161.26
18856.46
18876.99
19042.18
19216.1
19351.81
19456.07
19541.74
19598.04
19583.99
19445.15
19145.99
18699.48
18173.55
17667.89
17273.4
17037.3
16951.26
16964.92
17013.43
17043.19
17025.18
16954.52
16841.58
16701.74
16548.44
16390.58
16233.01
16078.03
15926.77
15780.22
15640.01
15509.07
15391.8
15293.43
15218.63
15170.17
15148.68
15153.48
15183.8
15239.05
15318.19
15419.02
15538.23
15671.34
15811.59
15948.43
16068.9
16163.41
16230.28
16276.09
16293.32
16298.39
16170.81
21684.14
21164.86
21012.77
20761.24
20143.96
19365.54
18767.72
18513.91
18541.5
18691.68
18841.77
18952.35
19043.52
19147.53
19269.65
19371.3
19380.86
19227.99
18883.79
18383.55
17817.57
17294.89
16900.16
16665.91
16571.2
16562.09
16579.69
16581.29
16548.03
16480.67
16389.98
16287.8
16182.18
16076.36
15970.19
15862.26
15751.82
15640.03
15530.39
15428.15
15339.01
15267.65
15217.1
15189.14
15185.19
15206.6
15253.99
15326.36
15421.45
15536.93
15670.93
15819.99
15976.37
16128.64
16267.41
16390.25
16501.34
16593.38
16670.51
16669.13
21003.8
20297.38
20142.58
19925.63
19525.66
19046.79
18628.05
18370.72
18294.17
18338.12
18419.6
18493.89
18571.98
18692.19
18874.67
19089.98
19259.11
19284.58
19096.38
18688.27
18125.19
17518.18
16980.65
16588.58
16362.22
16273.49
16269.79
16299.54
16328.2
16341.56
16339.78
16328.65
16312.84
16293.23
16267.42
16232.1
16185.42
16128.32
16064.5
15999.07
15936.86
15881.33
15834.78
15799.4
15777.86
15772.8
15785.52
15815.44
15861.18
15922.36
16000.07
16094.96
16204.64
16323.46
16445.38
16566.49
16685.81
16796.83
16899.24
16973.09
13897.62
15822.97
16885.17
17443.13
17766.54
17889.44
17823.65
17677.05
17583.11
17596.77
17685.36
17797.61
17923.43
18095.75
18349.07
18675.8
19010.43
19248.91
19291.61
19087.93
18660.51
18097.57
17518.28
17028.91
16690.56
16510.47
16455.5
16476.31
16529.01
16586.19
16636.81
16679.62
16715.86
16744.86
16763.49
16768.13
16757.02
16731.59
16695.78
16654.22
16610.38
16565.96
16521.84
16479.39
16440.75
16407.97
16381.74
16361.43
16346.63
16338.69
16340.9
16357.32
16391.25
16444.02
16513.89
16595.25
16681.84
16768.5
16854.44
16945.84
13959.47
15739.32
16687.19
17217.36
17634.21
17905.72
17931.04
17754.92
17536.59
17406.85
17393.82
17458.65
17567.77
17727.39
17965.85
18292.92
18670.34
19011.8
19211.67
19187.85
18917.6
18448.89
17882.01
17331.43
16886.74
16589.84
16434.87
16385.64
16398.2
16437.7
16484.52
16531.38
16576.72
16619.2
16655.83
16683.02
16698.87
16704.26
16702.2
16695.95
16687.4
16676.81
16663.85
16648.59
16631.58
16612.92
16591.71
16566.68
16537.59
16506.17
16476.07
16452.61
16442.54
16452.1
16483.08
16529.91
16583.85
16640.59
16698.95
16780.66
20369.65
19566.1
19239.23
19036.62
18947.31
18905.88
18761.55
18451.91
18061.37
17726.55
17526.8
17457.97
17478.11
17560.92
17712.31
17948.59
18261.65
18598.32
18867.95
18974.71
18857.63
18517.68
18018.29
17459.92
16942.48
16533.54
16255.31
16091.69
16007.39
15967.35
15948.17
15939.67
15940
15949.54
15967.33
15990.73
16016.98
16044.5
16072.95
16102.37
16132.32
16161.96
16190.57
16217.71
16242.83
16264.62
16281.1
16290.48
16292.08
16286.59
16276.26
16265.5
16261.35
16271.37
16298.95
16340.28
16387.03
16434.38
16476.92
16550.43
20748.49
19984.33
19582
19381.04
19209.51
19033.92
18820.74
18517.81
18134.13
17756.01
17477.68
17334.3
17300.04
17335
17426.91
17594.01
17854.39
18190.94
18538.2
18800.05
18887.66
18756.75
18425.32
17963.99
17465.93
17012.14
16648.23
16380.16
16186.58
16037.59
15910.05
15793.79
15689.59
15603.06
15539.07
15499.08
15481.14
15481.13
15494.15
15515.5
15541.49
15569.87
15599.83
15631.24
15663.64
15695.87
15726.37
15753.79
15777.22
15796.17
15811.2
15825.09
15843.22
15871.55
15912.99
15965.29
16021.26
16074.82
16112.01
16181.48
20460.59
19820.47
19448.69
19375
19302.18
19119.14
18866.28
18559.15
18189.87
17799.77
17473.89
17272.46
17191.05
17186.08
17227.51
17325.45
17512.95
17805.68
18171.58
18530.96
18785.47
18858.68
18726.53
18423.56
18024.21
17610.65
17243.33
16946.51
16711.92
16514.38
16329.32
16144.05
15959.85
15787.19
15638.6
15522.9
15442.48
15393.64
15368.73
15359.16
15357.88
15360.68
15365.86
15373
15381.85
15392.03
15403.32
15415.71
15428.95
15442.63
15457
15474.15
15497.74
15531.28
15576.22
15630.98
15689.38
15744.58
15776.61
15836.91
19850.16
19257.26
18865.41
18816.28
18892.19
18882.97
18737.61
18470.74
18101.37
17681.14
17304.14
17054.14
16949.63
16946.67
16990.26
17061.93
17185.54
17394.81
17692.82
18032.85
18331.23
18502.42
18495.74
18315.02
18013.14
17666.65
17344.4
17084.92
16890.83
16739.15
16599.29
16449.04
16282.42
16108.32
15943.4
15803.62
15698.32
15628.28
15587.45
15566.74
15557.6
15553.97
15552.24
15550.23
15546.55
15540.63
15532.98
15524.74
15517.02
15510.79
15507.61
15510.06
15520.93
15542.06
15573.96
15615.69
15662.43
15708.49
15735.38
15787.48
18601.19
18242.92
17965.14
17924.35
18123.65
18359.54
18445.47
18316.78
17996.86
17561.64
17125.09
16801.1
16648.27
16647.69
16734.95
16855.57
16997.7
17182.67
17428.88
17719.48
17996.43
18182.54
18216.93
18083.33
17817.01
17488.67
17174.77
16929.29
16768.96
16676.13
16614.62
16549.11
16459.12
16343.33
16214.94
16092.56
15991.65
15919.77
15876.51
15856.43
15852.53
15858.35
15868.4
15877.98
15883.34
15882.25
15874.41
15860.97
15843.89
15825.64
15809.29
15798.13
15794.65
15800.14
15815.13
15839.64
15870.85
15906.97
15935.12
15995.49
15650.06
16240.44
16461.66
16616.41
16949.86
17398.02
17749.9
17864.97
17723.69
17385.09
16955.1
16562.35
16313.45
16248.24
16335.28
16511.27
16728.93
16976.34
17260
17572.73
17873.87
18096.4
18175.11
18078.33
17824.94
17478.54
17122.54
16829.16
16636.31
16541.3
16511.11
16501.94
16478.15
16422.96
16338.84
16240.42
16145.19
16066.6
16011.4
15980.51
15971.13
15978.47
15996.59
16019.09
16040.08
16055.22
16062.28
16061.07
16053.05
16040.9
16027.9
16017.06
16010.38
16008.94
16013.45
16024.88
16043.16
16072.92
16106.12
16185.47
15322.26
15809.02
16093.75
16227.64
16453.87
16846.55
17269.35
17550.47
17601.58
17419.83
17062.36
16634.65
16263.68
16046.9
16013.51
16130.94
16346.17
16623.07
16948.64
17311.59
17677.72
17984.49
18159.63
18152.27
17957.9
17623.62
17231.34
16867.86
16595.6
16436.41
16372.96
16364.17
16365.63
16345.72
16292.26
16210
16113.16
16017.68
15936.29
15876.65
15841.55
15829.69
15836.79
15856.91
15883.8
15912.05
15937.79
15958.92
15975.12
15987.43
15997.32
16005.73
16012.85
16018.5
16022.64
16026.85
16034.64
16057.52
16090.83
16175.9
15587.06
15824.23
16079.85
16188.81
16269.02
16483.33
16831.36
17182.32
17401.05
17412.33
17207.42
16842.69
16427.71
16083.66
15890.54
15863.87
15974.67
16187.78
16483.6
16850.46
17261.45
17659.9
17967.41
18111.1
18054.09
17812.6
17450.98
17057.84
16714.88
16471.96
16337.69
16286.38
16275.49
16264.24
16226.14
16152.63
16049.73
15931.37
15813.12
15707.88
15623.86
15564.39
15528.97
15514.76
15517.99
15534.74
15561.44
15595.19
15633.91
15675.96
15719.33
15761.07
15797.58
15825.42
15842.41
15850.16
15855.51
15873.64
15901.96
15970.98
15766.13
15873.78
16122.28
16277.95
16295.85
16336.13
16529.7
16848.27
17160.57
17337.07
17306.9
17073.2
16707.91
16322.13
16017.23
15846.49
15813.21
15898.57
16089.42
16382.73
16767.36
17203.19
17617.14
17921.99
18048.2
17971.43
17722
17372.44
17010.15
16707.7
16502.94
16394.9
16353.8
16338.21
16311.38
16251.05
16151.58
16020.25
15870.97
15718.44
15574.41
15446.43
15338.67
15253.32
15191.66
15154.35
15141.26
15151.45
15182.97
15232.5
15294.82
15362.75
15428.03
15482.95
15522.5
15547.67
15565.81
15589.89
15616.54
15664.74
15877.81
15919.08
16143.18
16360.29
16407.83
16359.81
16402.47
16618.44
16932.75
17201.93
17311.1
17216.96
16950.61
16596.69
16254.15
15995
15846.63
15805.86
15866.74
16035.19
16319.23
16705.43
17142.85
17548.61
17834.08
17937.84
17848.51
17607.22
17289.94
16978.93
16735.92
16586.93
16522.32
16508.7
16505.71
16480.37
16414.69
16305.98
16162.01
15994.89
15816.22
15635.28
15459.35
15295.08
15149.15
15028.12
14937.55
14881.18
14860.17
14872.39
14912.19
14970.63
15036.86
15100.59
15155.29
15200.69
15240.67
15280.64
15312.8
15355.39
15935.35
15967.14
16146.38
16383.85
16501.55
16469.23
16432.22
16533.06
16777.48
17056.52
17242.25
17256.89
17093.8
16807.51
16483.9
16200.63
15998.96
15884.28
15849.93
15900.6
16054.48
16323.58
16689.29
17092.91
17449.38
17677.52
17730.82
17613.98
17378.45
17100.92
16855.07
16688.65
16613.58
16610.37
16642.13
16670.74
16668.57
16622.69
16532.52
16404.29
16246.07
16065.37
15869.2
15665.25
15462.58
15271.39
15101.89
14962.83
14860.05
14795.49
14766.8
14767.62
14789.08
14822.63
14863.1
14909.23
14959.04
15009.12
15045.53
15097.53
16049.34
16085.22
16202.88
16399.33
16564.17
16605.75
16572.15
16591.64
16734.69
16958.95
17157.92
17235.86
17153
16934.29
16650.16
16379.56
16174.1
16045.25
15980.5
15971.57
16029.97
16178.23
16424.99
16744.12
17073.25
17333.83
17461.73
17432.58
17270.06
17034.77
16799.95
16625.63
16541.43
16543.32
16602.82
16682.3
16748.85
16781.7
16772.59
16721.6
16632.31
16508.82
16355.24
16176.51
15979.44
15772.98
15567.6
15373.85
15200.78
15054.69
14938.46
14851.68
14791.87
14756.66
14745.18
14756.33
14783.5
14817.91
14842.16
14896.19
16246.32
16283.22
16338.58
16456.71
16620.15
16734.36
16753.9
16741.8
16793.04
16934.52
17105.73
17211.24
17183.62
17017.11
16764.36
16504.63
16302.53
16182.03
16130.35
16124.33
16156.24
16239.47
16392.09
16612.57
16866.28
17092.27
17226.71
17230.05
17104.01
16890.66
16655.43
16462.59
16354.21
16340.59
16403.89
16510.58
16625.75
16723.12
16788.35
16816.79
16809.13
16767.52
16693.66
16588.87
16455.03
16295.75
16116.82
15925.72
15730.56
15538.98
15357.58
15192
15047.58
14929.88
14843.41
14788.43
14757.63
14742.51
14729.42
14752.17
16531
16552.95
16551.2
16585.62
16706.67
16853.14
16928.4
16921.52
16912.29
16974.85
17102.93
17219.24
17237.24
17117.45
16886.79
16618.92
16392.67
16254.41
16205.99
16221.13
16273.97
16357.47
16480.35
16648.26
16845.12
17028.9
17145.05
17149.89
17031.22
16815.44
16558.39
16324.88
16166.62
16107.85
16142.93
16244.74
16377.99
16511.38
16624.33
16707.79
16760.99
16786.71
16787.46
16763.61
16713.63
16635.49
16528.29
16393.01
16232.6
16051.71
15856.73
15656.25
15461.08
15282.62
15129.1
15002.4
14898.36
14813.15
14745.15
14698.33
16914.84
16887.45
16827.26
16788.84
16845.07
16973.93
17075.84
17088.96
17053.42
17056.87
17139.74
17258.33
17322.45
17260.39
17062.42
16782.67
16506.29
16305.57
16211.29
16212.82
16280.33
16389.54
16531.53
16704.4
16896.62
17076.85
17198.38
17216.47
17108.92
16888.5
16601.2
16311.08
16079.15
15945.16
15918.99
15983.37
16104.78
16246.83
16381.02
16491.72
16575.43
16636.1
16679.55
16709.13
16724.1
16720.37
16692.32
16634.66
16543.74
16418.49
16261.67
16080.82
15887.68
15694.76
15510.52
15337.45
15176.14
15028.41
14909.11
14777.73
17327.17
17231.26
17116.9
17025.14
17014.81
17091.4
17185.61
17219.1
17186.79
17157.31
17197.74
17306.26
17410.17
17418
17279.03
17011.81
16690.79
16405.48
16219.5
16152.21
16187.68
16297.88
16460.77
16662.74
16888.18
17107.92
17277.57
17348.79
17287.96
17092.25
16794.66
16455.33
16143.04
15914.42
15799.09
15795.32
15876.33