/*--------------------------------*- C++ -*----------------------------------*\
| =========                 |                                                 |
| \\      /  F ield         | OpenFOAM: The Open Source CFD Toolbox           |
|  \\    /   O peration     | Version:  2312                                  |
|   \\  /    A nd           | Website:  www.openfoam.com                      |
|    \\/     M anipulation  |                                                 |
\*---------------------------------------------------------------------------*/
FoamFile
{
    version     2.0;
    format      ascii;
    arch        "LSB;label=32;scalar=64";
    class       volScalarField;
    location    "4200";
    object      ILambda_4_0;
}
// * * * * * * * * * * * * * * * * * * * * * * * * * * * * * * * * * * * * * //

dimensions      [1 0 -3 0 0 0 0];

internalField   nonuniform List<scalar> 
12000
(
3059.694
3059.551
3059.455
3059.418
3059.442
3059.516
3059.629
3059.774
3059.942
3060.124
3060.312
3060.495
3060.666
3060.814
3060.93
3061.004
3061.024
3060.981
3060.862
3060.656
3060.351
3059.937
3059.401
3058.734
3057.926
3056.968
3055.855
3054.581
3053.144
3051.544
3049.784
3047.868
3045.805
3043.605
3041.284
3038.857
3036.345
3033.769
3031.153
3028.524
3025.91
3023.339
3020.84
3018.445
3016.182
3014.08
3012.165
3010.465
3009.003
3007.798
3006.868
3006.227
3005.885
3005.845
3006.112
3006.682
3007.532
3008.713
3009.852
3012.587
3099.021
3099.634
3100.121
3100.487
3100.722
3100.819
3100.773
3100.576
3100.221
3099.701
3099.008
3098.132
3097.065
3095.799
3094.323
3092.632
3090.718
3088.578
3086.211
3083.619
3080.808
3077.787
3074.573
3071.184
3067.645
3063.985
3060.237
3056.438
3052.629
3048.855
3045.16
3041.592
3038.199
3035.028
3032.124
3029.53
3027.287
3025.429
3023.987
3022.985
3022.441
3022.365
3022.76
3023.619
3024.929
3026.667
3028.802
3031.294
3034.095
3037.149
3040.393
3043.757
3047.164
3050.53
3053.778
3056.796
3059.539
3061.787
3063.694
3064.925
3123.027
3121.332
3119.447
3117.378
3115.125
3112.688
3110.068
3107.26
3104.258
3101.059
3097.659
3094.06
3090.269
3086.296
3082.161
3077.888
3073.511
3069.068
3064.606
3060.175
3055.833
3051.639
3047.654
3043.94
3040.558
3037.566
3035.017
3032.959
3031.433
3030.47
3030.092
3030.311
3031.125
3032.524
3034.483
3036.965
3039.921
3043.292
3047.004
3050.977
3055.118
3059.327
3063.496
3067.512
3071.258
3074.61
3077.448
3079.647
3081.084
3081.642
3081.205
3079.662
3076.91
3072.851
3067.411
3060.465
3052.14
3041.517
3032.209
3009.195
3112.833
3108.843
3104.756
3100.553
3096.223
3091.766
3087.181
3082.479
3077.687
3072.847
3068.012
3063.25
3058.638
3054.258
3050.199
3046.546
3043.385
3040.793
3038.839
3037.58
3037.057
3037.297
3038.307
3040.079
3042.581
3045.766
3049.565
3053.893
3058.649
3063.713
3068.954
3074.23
3079.387
3084.267
3088.705
3092.535
3095.591
3097.708
3098.729
3098.5
3096.88
3093.737
3088.95
3082.414
3074.039
3063.751
3051.491
3037.219
3020.912
3002.565
2982.189
2959.815
2935.486
2909.261
2881.235
2851.408
2820.294
2786.114
2757.26
2698.806
3078.819
3074.44
3069.93
3065.327
3060.746
3056.309
3052.153
3048.434
3045.306
3042.912
3041.376
3040.792
3041.227
3042.711
3045.238
3048.766
3053.217
3058.479
3064.408
3070.835
3077.566
3084.387
3091.069
3097.376
3103.063
3107.887
3111.609
3113.995
3114.828
3113.902
3111.032
3106.052
3098.821
3089.224
3077.168
3062.59
3045.455
3025.752
3003.5
2978.741
2951.544
2921.999
2890.219
2856.337
2820.502
2782.88
2743.65
2703.001
2661.13
2618.243
2574.545
2530.248
2485.56
2440.683
2395.843
2351.125
2307.199
2262.136
2225.099
2157.864
3051.403
3048.122
3045.433
3043.854
3043.743
3045.248
3048.429
3053.241
3059.531
3067.06
3075.528
3084.578
3093.822
3102.847
3111.233
3118.563
3124.431
3128.456
3130.285
3129.603
3126.135
3119.65
3109.965
3096.947
3080.511
3060.618
3037.281
3010.553
2980.532
2947.356
2911.195
2872.254
2830.763
2786.977
2741.168
2693.624
2644.642
2594.526
2543.581
2492.112
2440.418
2388.789
2337.506
2286.833
2237.022
2188.303
2140.89
2094.974
2050.726
2008.293
1967.8
1929.349
1893.021
1858.867
1826.947
1797.199
1769.873
1743.987
1723.4
1691.031
3050.97
3057.418
3067.536
3080.318
3094.368
3108.386
3121.283
3132.059
3139.837
3143.893
3143.646
3138.651
3128.598
3113.301
3092.691
3066.804
3035.773
2999.815
2959.221
2914.343
2865.585
2813.391
2758.236
2700.613
2641.029
2579.991
2518.002
2455.555
2393.123
2331.156
2270.079
2210.281
2152.121
2095.92
2041.962
1990.489
1941.706
1895.78
1852.837
1812.967
1776.224
1742.626
1712.162
1684.787
1660.433
1639.005
1620.384
1604.433
1591
1579.915
1571
1564.066
1558.919
1555.355
1553.187
1552.197
1552.165
1553.07
1554.055
1557.234
3115.147
3141.355
3153.934
3152.867
3138.632
3112.242
3074.853
3027.579
2971.624
2908.24
2838.676
2764.161
2685.889
2605.006
2522.592
2439.659
2357.137
2275.872
2196.621
2120.052
2046.741
1977.175
1911.754
1850.793
1794.526
1743.109
1696.63
1655.107
1618.501
1586.717
1559.612
1536.999
1518.655
1504.328
1493.737
1486.585
1482.558
1481.332
1482.578
1485.965
1491.165
1497.854
1505.72
1514.46
1523.784
1533.42
1543.113
1552.624
1561.737
1570.255
1578
1584.819
1590.576
1595.157
1598.47
1600.441
1601.036
1599.972
1598.573
1591.224
3065.262
2903.716
2744.338
2588.833
2438.979
2296.373
2162.105
2037.005
1921.749
1816.781
1722.331
1638.462
1565.085
1501.977
1448.804
1405.136
1370.467
1344.225
1325.795
1314.521
1309.729
1310.731
1316.836
1327.359
1341.629
1358.995
1378.832
1400.545
1423.57
1447.385
1471.503
1495.48
1518.912
1541.439
1562.742
1582.544
1600.608
1616.737
1630.772
1642.59
1652.101
1659.249
1664.007
1666.374
1666.377
1664.063
1659.501
1652.776
1643.991
1633.261
1620.711
1606.478
1590.701
1573.53
1555.12
1535.575
1515.313
1493.247
1474.79
1438.163
834.0982
785.1973
755.7113
744.2987
748.9922
767.4575
797.4838
837.1389
884.5847
938.1056
996.1427
1057.279
1120.237
1183.871
1247.169
1309.238
1369.307
1426.712
1480.899
1531.409
1577.876
1620.018
1657.633
1690.588
1718.817
1742.31
1761.112
1775.31
1785.035
1790.451
1791.752
1789.155
1782.899
1773.237
1760.434
1744.763
1726.502
1705.929
1683.322
1658.954
1633.094
1606.001
1577.925
1549.106
1519.772
1490.137
1460.401
1430.752
1401.361
1372.386
1343.968
1316.236
1289.303
1263.266
1238.224
1214.184
1191.449
1169.125
1151.084
1120.805
1011.985
1181.877
1335.652
1473.285
1595.058
1701.512
1793.44
1871.598
1936.719
1989.581
2030.983
2061.724
2082.602
2094.41
2097.929
2093.923
2083.139
2066.299
2044.099
2017.208
1986.263
1951.869
1914.598
1874.988
1833.541
1790.726
1746.973
1702.681
1658.212
1613.896
1570.029
1526.875
1484.669
1443.614
1403.887
1365.638
1328.991
1294.047
1260.884
1229.562
1200.119
1172.578
1146.945
1123.211
1101.355
1081.345
1063.137
1046.679
1031.913
1018.771
1007.184
997.0737
988.3626
980.9671
974.8113
969.7964
965.8383
962.9123
960.7695
959.3801
3031.019
2920.653
2810.789
2701.871
2594.299
2488.674
2385.429
2284.854
2187.277
2092.984
2002.202
1915.122
1831.894
1752.634
1677.425
1606.316
1539.331
1476.463
1417.684
1362.943
1312.169
1265.274
1222.154
1182.693
1146.762
1114.224
1084.932
1058.734
1035.474
1014.993
997.1272
981.7157
968.5959
957.6072
948.5913
941.3929
935.8606
931.8473
929.211
927.8149
927.528
928.2256
929.7888
932.1054
935.0698
938.5827
942.5516
946.8903
951.5192
956.3652
961.361
966.4458
971.5644
976.6677
981.7093
986.6659
991.4298
996.2267
1000.113
1006.759
983.5646
952.216
924.2797
899.7419
878.5685
860.573
845.5315
833.2787
823.6352
816.4101
811.4181
808.4759
807.4041
808.0273
810.1755
813.6846
818.3969
824.1615
830.8349
838.281
846.3719
854.9872
864.0149
873.3509
882.8991
892.5713
902.2873
911.974
921.5662
931.0053
940.2398
949.2245
957.9206
966.295
974.3199
981.973
989.2366
996.0973
1002.546
1008.577
1014.189
1019.382
1024.161
1028.531
1032.501
1036.082
1039.285
1042.124
1044.613
1046.769
1048.608
1050.146
1051.403
1052.396
1053.143
1053.662
1053.973
1054.066
1054.1
1053.551
1023.031
1024.861
1027.092
1029.684
1032.553
1035.636
1038.87
1042.192
1045.546
1048.883
1052.159
1055.338
1058.386
1061.276
1063.985
1066.496
1068.793
1070.868
1072.713
1074.324
1075.7
1076.843
1077.756
1078.446
1078.919
1079.185
1079.252
1079.133
1078.838
1078.38
1077.771
1077.024
1076.151
1075.165
1074.079
1072.904
1071.652
1070.335
1068.964
1067.55
1066.102
1064.63
1063.142
1061.649
1060.157
1058.674
1057.207
1055.763
1054.348
1052.967
1051.627
1050.331
1049.084
1047.891
1046.758
1045.677
1044.672
1043.699
1042.916
1041.621
1040.614
1041.254
1041.804
1042.282
1042.697
1043.046
1043.332
1043.556
1043.72
1043.827
1043.879
1043.881
1043.836
1043.749
1043.625
1043.468
1043.283
1043.075
1042.847
1042.605
1042.352
1042.092
1041.828
1041.562
1041.298
1041.037
1040.781
1040.532
1040.291
1040.058
1039.835
1039.621
1039.417
1039.223
1039.039
1038.865
1038.702
1038.55
1038.409
1038.28
1038.163
1038.06
1037.972
1037.899
1037.843
1037.805
1037.788
1037.791
1037.817
1037.868
1037.943
1038.043
1038.17
1038.324
1038.506
1038.705
1038.931
1039.186
1039.404
1039.815
1050.03
1050.211
1050.339
1050.44
1050.524
1050.593
1050.652
1050.7
1050.74
1050.772
1050.795
1050.811
1050.819
1050.82
1050.812
1050.796
1050.772
1050.737
1050.693
1050.637
1050.569
1050.488
1050.392
1050.282
1050.156
1050.014
1049.856
1049.681
1049.491
1049.286
1049.068
1048.838
1048.599
1048.352
1048.101
1047.85
1047.601
1047.358
1047.126
1046.908
1046.707
1046.526
1046.37
1046.24
1046.138
1046.066
1046.022
1046.007
1046.019
1046.055
1046.11
1046.179
1046.256
1046.332
1046.402
1046.441
1046.466
1046.407
1046.395
1045.959
1054.299
1054.312
1054.272
1054.204
1054.116
1054.011
1053.89
1053.754
1053.603
1053.438
1053.257
1053.062
1052.85
1052.622
1052.378
1052.117
1051.838
1051.544
1051.232
1050.905
1050.563
1050.209
1049.843
1049.469
1049.09
1048.709
1048.332
1047.961
1047.603
1047.261
1046.942
1046.649
1046.388
1046.162
1045.974
1045.828
1045.725
1045.665
1045.647
1045.669
1045.726
1045.814
1045.925
1046.05
1046.178
1046.298
1046.394
1046.453
1046.457
1046.389
1046.23
1045.962
1045.565
1045.021
1044.31
1043.4
1042.322
1040.903
1039.695
1036.453
1056.61
1056.384
1056.105
1055.796
1055.466
1055.118
1054.756
1054.379
1053.989
1053.586
1053.171
1052.744
1052.307
1051.861
1051.409
1050.954
1050.498
1050.047
1049.606
1049.179
1048.772
1048.392
1048.044
1047.734
1047.468
1047.25
1047.083
1046.97
1046.911
1046.905
1046.95
1047.04
1047.168
1047.324
1047.498
1047.674
1047.838
1047.97
1048.053
1048.063
1047.98
1047.781
1047.441
1046.937
1046.245
1045.344
1044.212
1042.828
1041.177
1039.241
1037.01
1034.473
1031.626
1028.47
1025.002
1021.225
1017.199
1012.706
1008.829
1000.879
1055.451
1055.035
1054.571
1054.083
1053.582
1053.075
1052.564
1052.052
1051.542
1051.04
1050.55
1050.077
1049.63
1049.214
1048.838
1048.51
1048.237
1048.024
1047.876
1047.797
1047.786
1047.841
1047.957
1048.125
1048.335
1048.572
1048.818
1049.052
1049.251
1049.39
1049.441
1049.376
1049.164
1048.777
1048.184
1047.358
1046.271
1044.9
1043.223
1041.223
1038.885
1036.201
1033.167
1029.783
1026.057
1022.001
1017.636
1012.985
1008.081
1002.96
997.6657
992.2478
986.7601
981.2658
975.8193
970.5016
965.3802
960.465
956.3322
950.197
1052.544
1052.118
1051.661
1051.203
1050.76
1050.342
1049.959
1049.621
1049.34
1049.125
1048.986
1048.929
1048.958
1049.071
1049.265
1049.527
1049.844
1050.193
1050.55
1050.884
1051.161
1051.346
1051.399
1051.281
1050.95
1050.37
1049.502
1048.313
1046.773
1044.858
1042.55
1039.836
1036.712
1033.182
1029.256
1024.954
1020.306
1015.347
1010.124
1004.689
999.104
993.4371
987.7633
982.1633
976.7233
971.5335
966.6878
962.2824
958.4154
955.1854
952.6909
951.0289
950.295
950.5847
951.971
954.5838
958.341
963.9518
968.9307
983.2572
1051.028
1050.944
1050.851
1050.805
1050.835
1050.957
1051.181
1051.507
1051.923
1052.408
1052.928
1053.442
1053.9
1054.247
1054.425
1054.373
1054.034
1053.352
1052.277
1050.767
1048.788
1046.316
1043.34
1039.859
1035.887
1031.448
1026.583
1021.343
1015.792
1010.006
1004.071
998.0834
992.1473
986.3748
980.8834
975.7952
971.2351
967.3294
964.2043
961.9847
960.7925
960.7453
961.9554
964.5284
968.5623
974.1462
981.3602
990.2739
1000.946
1013.425
1027.747
1043.936
1062.005
1081.96
1103.766
1127.496
1152.716
1181.13
1205.207
1256.019
1055.294
1055.731
1056.261
1056.909
1057.616
1058.306
1058.884
1059.239
1059.261
1058.847
1057.906
1056.366
1054.173
1051.301
1047.744
1043.522
1038.681
1033.287
1027.431
1021.223
1014.788
1008.269
1001.819
995.6027
989.7901
984.5553
980.0738
976.5197
974.0633
972.8686
973.0914
974.8777
978.3613
983.6632
990.8898
1000.132
1011.465
1024.948
1040.622
1058.511
1078.624
1100.951
1125.468
1152.134
1180.893
1211.678
1244.404
1278.979
1315.295
1353.239
1392.687
1433.506
1475.56
1518.711
1562.783
1607.755
1652.924
1700.548
1740.117
1815.438
1065.238
1066.074
1066.568
1066.363
1065.19
1062.935
1059.543
1055.038
1049.52
1043.147
1036.122
1028.686
1021.104
1013.657
1006.634
1000.326
995.0193
990.9887
988.4943
987.777
989.0558
992.525
998.3528
1006.68
1017.617
1031.25
1047.633
1066.793
1088.73
1113.42
1140.811
1170.832
1203.388
1238.365
1275.634
1315.048
1356.447
1399.662
1444.512
1490.811
1538.366
1586.981
1636.46
1686.603
1737.216
1788.105
1839.081
1889.961
1940.569
1990.734
2040.297
2089.104
2137.015
2183.901
2229.615
2274.153
2316.982
2359.832
2394.816
2455.678
1076.006
1071.745
1064.568
1055.313
1045.061
1034.796
1025.311
1017.326
1011.466
1008.246
1008.086
1011.319
1018.193
1028.88
1043.484
1062.041
1084.535
1110.895
1141.008
1174.718
1211.838
1252.152
1295.419
1341.381
1389.763
1440.283
1492.65
1546.571
1601.752
1657.903
1714.74
1771.984
1829.369
1886.638
1943.549
1999.873
2055.395
2109.916
2163.256
2215.248
2265.744
2314.611
2361.734
2407.014
2450.367
2491.725
2531.036
2568.26
2603.371
2636.357
2667.217
2695.96
2722.606
2747.188
2769.73
2790.317
2808.886
2825.937
2839.489
2859.305
1068.573
1048.434
1039.043
1040.101
1051.043
1071.003
1099.069
1134.446
1176.336
1223.945
1276.516
1333.321
1393.667
1456.896
1522.385
1589.551
1657.849
1726.771
1795.85
1864.659
1932.807
1999.941
2065.745
2129.941
2192.281
2252.555
2310.581
2366.207
2419.313
2469.801
2517.602
2562.668
2604.972
2644.509
2681.289
2715.34
2746.706
2775.439
2801.609
2825.289
2846.567
2865.532
2882.283
2896.922
2909.554
2920.287
2929.23
2936.492
2942.184
2946.412
2949.285
2950.906
2951.377
2950.799
2949.265
2946.85
2943.742
2939.624
2936.053
2927.412
1149.171
1278.299
1403.212
1523.636
1639.362
1750.086
1855.687
1956.122
2051.313
2141.225
2225.867
2305.271
2379.499
2448.632
2512.777
2572.055
2626.606
2676.584
2722.153
2763.49
2800.777
2834.203
2863.962
2890.249
2913.264
2933.203
2950.264
2964.64
2976.522
2986.098
2993.549
2999.051
3002.774
3004.882
3005.529
3004.866
3003.031
3000.159
2996.373
2991.791
2986.521
2980.664
2974.313
2967.553
2960.462
2953.11
2945.563
2937.877
2930.104
2922.289
2914.473
2906.691
2898.974
2891.348
2883.841
2876.449
2869.277
2862
2856.014
2845.31
3004.305
3030.713
3053.531
3072.876
3088.888
3101.807
3111.897
3119.37
3124.44
3127.321
3128.22
3127.333
3124.848
3120.945
3115.792
3109.551
3102.372
3094.395
3085.753
3076.566
3066.948
3057.002
3046.82
3036.49
3026.087
3015.68
3005.329
2995.088
2985.002
2975.11
2965.445
2956.033
2946.895
2938.047
2929.5
2921.26
2913.329
2905.709
2898.393
2891.378
2884.653
2878.209
2872.035
2866.118
2860.445
2855.002
2849.777
2844.757
2839.929
2835.281
2830.804
2826.488
2822.325
2818.307
2814.433
2810.694
2807.101
2803.557
2800.595
2795.556
2971.397
2968.311
2964.769
2960.857
2956.673
2952.282
2947.745
2943.118
2938.45
2933.783
2929.152
2924.587
2920.113
2915.751
2911.516
2907.419
2903.47
2899.673
2896.03
2892.541
2889.201
2886.005
2882.947
2880.016
2877.202
2874.493
2871.877
2869.339
2866.866
2864.444
2862.059
2859.696
2857.343
2854.987
2852.618
2850.225
2847.8
2845.336
2842.827
2840.272
2837.668
2835.017
2832.321
2829.586
2826.819
2824.027
2821.223
2818.418
2815.625
2812.86
2810.137
2807.474
2804.887
2802.392
2800.007
2797.748
2795.63
2793.622
2791.996
2789.473
2958.819
2956.214
2953.545
2950.847
2948.131
2945.406
2942.676
2939.942
2937.201
2934.454
2931.699
2928.931
2926.15
2923.35
2920.527
2917.677
2914.795
2911.876
2908.913
2905.9
2902.833
2899.705
2896.51
2893.245
2889.905
2886.488
2882.992
2879.416
2875.764
2872.037
2868.241
2864.385
2860.477
2856.529
2852.555
2848.57
2844.593
2840.642
2836.738
2832.901
2829.155
2825.522
2822.025
2818.685
2815.524
2812.561
2809.816
2807.304
2805.038
2803.03
2801.287
2799.812
2798.607
2797.665
2796.985
2796.541
2796.339
2796.313
2796.471
2796.945
2942.244
2939.164
2935.984
2932.741
2929.446
2926.108
2922.732
2919.322
2915.877
2912.398
2908.885
2905.336
2901.748
2898.118
2894.443
2890.72
2886.945
2883.117
2879.235
2875.3
2871.314
2867.284
2863.215
2859.119
2855.009
2850.9
2846.81
2842.759
2838.772
2834.871
2831.082
2827.432
2823.948
2820.655
2817.58
2814.746
2812.174
2809.884
2807.891
2806.207
2804.839
2803.79
2803.057
2802.631
2802.5
2802.643
2803.035
2803.644
2804.434
2805.362
2806.381
2807.438
2808.476
2809.433
2810.253
2810.844
2811.207
2811.057
2810.972
2808.824
2918.278
2914.632
2910.922
2907.181
2903.417
2899.637
2895.84
2892.022
2888.176
2884.298
2880.383
2876.426
2872.428
2868.391
2864.321
2860.229
2856.13
2852.043
2847.99
2843.999
2840.1
2836.325
2832.707
2829.282
2826.082
2823.141
2820.489
2818.152
2816.153
2814.509
2813.232
2812.326
2811.788
2811.608
2811.769
2812.243
2812.998
2813.99
2815.17
2816.481
2817.86
2819.235
2820.533
2821.673
2822.571
2823.142
2823.297
2822.948
2822.006
2820.383
2817.995
2814.761
2810.602
2805.446
2799.235
2791.866
2783.475
2773.217
2764.367
2743.389
2887.753
2884.053
2880.295
2876.489
2872.636
2868.737
2864.789
2860.793
2856.763
2852.718
2848.687
2844.706
2840.817
2837.068
2833.508
2830.187
2827.156
2824.459
2822.138
2820.226
2818.748
2817.72
2817.147
2817.021
2817.323
2818.022
2819.075
2820.426
2822.008
2823.745
2825.548
2827.325
2828.972
2830.381
2831.441
2832.038
2832.057
2831.382
2829.901
2827.506
2824.093
2819.566
2813.835
2806.82
2798.451
2788.668
2777.425
2764.685
2750.426
2734.637
2717.323
2698.499
2678.194
2656.45
2633.332
2608.839
2583.378
2555.519
2531.996
2484.648
2857.98
2854.291
2850.473
2846.564
2842.633
2838.753
2835.006
2831.484
2828.282
2825.486
2823.172
2821.4
2820.211
2819.628
2819.647
2820.246
2821.378
2822.974
2824.947
2827.191
2829.582
2831.986
2834.254
2836.233
2837.762
2838.68
2838.826
2838.04
2836.173
2833.079
2828.628
2822.698
2815.183
2805.995
2795.06
2782.322
2767.746
2751.313
2733.025
2712.9
2690.978
2667.315
2641.983
2615.073
2586.687
2556.944
2525.975
2493.92
2460.931
2427.167
2392.793
2357.979
2322.899
2287.727
2252.65
2217.777
2183.606
2148.802
2120.126
2069.049
2829.731
2826.283
2823.036
2820.344
2818.451
2817.466
2817.441
2818.36
2820.139
2822.641
2825.684
2829.053
2832.509
2835.795
2838.645
2840.792
2841.975
2841.942
2840.459
2837.309
2832.301
2825.269
2816.077
2804.617
2790.814
2774.623
2756.031
2735.055
2711.743
2686.168
2658.432
2628.661
2597.003
2563.624
2528.71
2492.461
2455.088
2416.813
2377.864
2338.473
2298.875
2259.304
2219.991
2181.164
2143.041
2105.835
2069.747
2034.967
2001.673
1970.027
1940.18
1912.265
1886.401
1862.687
1841.217
1822.038
1805.269
1790.701
1779.421
1765.934
2808.257
2809.176
2812.389
2817.296
2823.027
2828.773
2833.851
2837.629
2839.544
2839.126
2835.986
2829.818
2820.394
2807.564
2791.247
2771.43
2748.161
2721.545
2691.737
2658.935
2623.376
2585.33
2545.092
2502.981
2459.328
2414.477
2368.776
2322.574
2276.219
2230.049
2184.394
2139.569
2095.875
2053.592
2012.982
1974.284
1937.715
1903.467
1871.709
1842.584
1816.211
1792.683
1772.072
1754.423
1739.761
1728.087
1719.383
1713.612
1710.716
1710.623
1713.245
1718.479
1726.212
1736.314
1748.647
1763.117
1779.293
1798.284
1814.569
1850.006
2805.848
2819.799
2825.099
2821.769
2810.085
2790.654
2764.16
2731.242
2692.599
2648.963
2601.072
2549.661
2495.46
2439.179
2381.506
2323.099
2264.581
2206.539
2149.516
2094.011
2040.478
1989.323
1940.905
1895.537
1853.483
1814.962
1780.148
1749.173
1722.127
1699.064
1679.998
1664.911
1653.755
1646.451
1642.897
1642.966
1646.511
1653.367
1663.356
1676.285
1691.951
1710.144
1730.647
1753.24
1777.7
1803.805
1831.333
1860.066
1889.789
1920.293
1951.374
1982.836
2014.492
2046.163
2077.664
2108.913
2139.416
2170.442
2195.932
2241.164
2742.321
2636.915
2532.779
2430.751
2331.768
2236.762
2146.38
2061.159
1981.591
1908.06
1840.848
1780.152
1726.094
1678.72
1638.011
1603.89
1576.226
1554.843
1539.522
1530.013
1526.032
1527.276
1533.418
1544.121
1559.034
1577.801
1600.064
1625.463
1653.644
1684.257
1716.96
1751.422
1787.323
1824.356
1862.228
1900.662
1939.397
1978.186
2016.801
2055.03
2092.677
2129.563
2165.527
2200.42
2234.113
2266.487
2297.443
2326.891
2354.757
2380.977
2405.502
2428.29
2449.314
2468.554
2485.992
2501.649
2515.467
2527.659
2537.264
2549.52
1291.218
1255.942
1230.945
1215.962
1210.495
1213.746
1224.864
1243.117
1267.77
1298.087
1333.369
1372.943
1416.169
1462.438
1511.178
1561.851
1613.955
1667.025
1720.631
1774.38
1827.915
1880.91
1933.076
1984.153
2033.913
2082.157
2128.712
2173.433
2216.197
2256.904
2295.476
2331.851
2365.987
2397.856
2427.446
2454.755
2479.794
2502.584
2523.154
2541.54
2557.786
2571.94
2584.055
2594.187
2602.397
2608.747
2613.3
2616.121
2617.277
2616.833
2614.856
2611.414
2606.571
2600.393
2592.953
2584.269
2574.613
2563.188
2553.471
2531.813
1384.86
1476.741
1565.857
1651.974
1734.869
1814.272
1890.051
1962.128
2030.41
2094.844
2155.413
2212.126
2265.015
2314.132
2359.549
2401.355
2439.649
2474.544
2506.159
2534.623
2560.065
2582.62
2602.423
2619.61
2634.314
2646.666
2656.794
2664.822
2670.868
2675.047
2677.468
2678.232
2677.438
2675.177
2671.534
2666.591
2660.423
2653.1
2644.688
2635.249
2624.841
2613.518
2601.331
2588.328
2574.556
2560.057
2544.875
2529.049
2512.619
2495.625
2478.103
2460.093
2441.631
2422.752
2403.51
2383.875
2364.151
2343.274
2325.91
2292.483
2689.69
2707.24
2722.014
2734.123
2743.696
2750.928
2756.04
2759.21
2760.614
2760.429
2758.817
2755.928
2751.901
2746.862
2740.921
2734.178
2726.72
2718.62
2709.94
2700.731
2691.035
2680.883
2670.299
2659.3
2647.896
2636.093
2623.892
2611.29
2598.283
2584.865
2571.031
2556.773
2542.085
2526.964
2511.406
2495.412
2478.982
2462.123
2444.841
2427.148
2409.058
2390.588
2371.759
2352.595
2333.123
2313.371
2293.371
2273.159
2252.769
2232.242
2211.615
2190.93
2170.23
2149.553
2128.958
2108.43
2088.233
2067.452
2050.288
2018.776
2640.598
2634.638
2628.413
2622.058
2615.663
2609.268
2602.902
2596.564
2590.237
2583.888
2577.472
2570.933
2564.213
2557.246
2549.966
2542.31
2534.214
2525.617
2516.466
2506.711
2496.311
2485.229
2473.438
2460.919
2447.659
2433.655
2418.911
2403.439
2387.257
2370.392
2352.876
2334.748
2316.051
2296.834
2277.149
2257.053
2236.605
2215.866
2194.899
2173.769
2152.541
2131.278
2110.044
2088.904
2067.917
2047.144
2026.641
2006.463
1986.661
1967.284
1948.376
1929.979
1912.131
1894.863
1878.216
1862.178
1846.911
1831.834
1819.577
1798.64
2566.588
2561.45
2556.401
2551.277
2545.833
2539.871
2533.237
2525.785
2517.393
2507.973
2497.456
2485.796
2472.972
2458.978
2443.827
2427.548
2410.184
2391.791
2372.433
2352.188
2331.136
2309.367
2286.975
2264.055
2240.706
2217.029
2193.122
2169.085
2145.014
2121.002
2097.142
2073.518
2050.213
2027.305
2004.865
1982.959
1961.648
1940.986
1921.022
1901.799
1883.352
1865.714
1848.907
1832.952
1817.862
1803.646
1790.307
1777.843
1766.249
1755.515
1745.628
1736.569
1728.319
1720.854
1714.151
1708.173
1702.915
1698.243
1694.598
1689.593
2475.452
2466.267
2454.348
2439.831
2422.903
2403.839
2382.906
2360.335
2336.36
2311.213
2285.116
2258.279
2230.904
2203.179
2175.284
2147.385
2119.636
2092.181
2065.149
2038.658
2012.814
1987.711
1963.432
1940.048
1917.62
1896.197
1875.82
1856.519
1838.316
1821.225
1805.251
1790.392
1776.642
1763.985
1752.401
1741.866
1732.352
1723.824
1716.248
1709.583
1703.789
1698.822
1694.638
1691.189
1688.431
1686.315
1684.794
1683.823
1683.354
1683.342
1683.742
1684.511
1685.609
1686.993
1688.625
1690.475
1692.469
1694.721
1696.627
1700.443
2269.133
2226.117
2184.472
2144.341
2105.829
2069.049
2034.047
2000.846
1969.475
1939.949
1912.266
1886.417
1862.38
1840.128
1819.624
1800.825
1783.681
1768.137
1754.135
1741.611
1730.499
1720.73
1712.235
1704.941
1698.777
1693.668
1689.544
1686.332
1683.962
1682.364
1681.47
1681.214
1681.533
1682.366
1683.653
1685.339
1687.369
1689.694
1692.265
1695.038
1697.971
1701.025
1704.164
1707.354
1710.565
1713.77
1716.944
1720.063
1723.108
1726.062
1728.909
1731.636
1734.233
1736.69
1738.998
1741.159
1743.148
1745.024
1746.534
1748.796
1708.501
1697.66
1688.223
1680.196
1673.544
1668.183
1664.014
1660.951
1658.909
1657.8
1657.541
1658.048
1659.244
1661.053
1663.401
1666.221
1669.446
1673.014
1676.868
1680.953
1685.217
1689.614
1694.099
1698.634
1703.18
1707.706
1712.181
1716.577
1720.873
1725.046
1729.078
1732.954
1736.662
1740.19
1743.53
1746.675
1749.622
1752.367
1754.909
1757.248
1759.386
1761.327
1763.072
1764.629
1766.001
1767.196
1768.221
1769.082
1769.789
1770.349
1770.771
1771.064
1771.237
1771.3
1771.26
1771.127
1770.918
1770.601
1770.327
1769.554
1706.214
1709.921
1713.706
1717.576
1721.511
1725.481
1729.456
1733.409
1737.314
1741.146
1744.884
1748.51
1752.007
1755.36
1758.559
1761.594
1764.457
1767.143
1769.647
1771.967
1774.102
1776.053
1777.821
1779.41
1780.822
1782.063
1783.137
1784.052
1784.813
1785.429
1785.905
1786.25
1786.473
1786.581
1786.583
1786.487
1786.302
1786.036
1785.698
1785.295
1784.836
1784.328
1783.78
1783.198
1782.59
1781.963
1781.324
1780.679
1780.033
1779.394
1778.766
1778.156
1777.568
1777.008
1776.48
1775.987
1775.538
1775.121
1774.789
1774.289
1774.555
1776.833
1778.93
1780.872
1782.671
1784.328
1785.847
1787.23
1788.478
1789.592
1790.576
1791.433
1792.166
1792.781
1793.283
1793.676
1793.966
1794.16
1794.264
1794.283
1794.225
1794.096
1793.902
1793.65
1793.347
1792.998
1792.611
1792.192
1791.746
1791.279
1790.798
1790.307
1789.812
1789.32
1788.833
1788.358
1787.899
1787.461
1787.048
1786.664
1786.313
1785.999
1785.725
1785.496
1785.315
1785.183
1785.106
1785.085
1785.123
1785.222
1785.386
1785.616
1785.915
1786.286
1786.728
1787.247
1787.832
1788.538
1789.137
1790.503
1804.07
1804.736
1805.23
1805.585
1805.824
1805.962
1806.008
1805.973
1805.864
1805.689
1805.456
1805.171
1804.843
1804.476
1804.079
1803.657
1803.216
1802.763
1802.302
1801.839
1801.38
1800.929
1800.492
1800.072
1799.675
1799.304
1798.964
1798.658
1798.391
1798.166
1797.986
1797.855
1797.777
1797.754
1797.789
1797.885
1798.045
1798.273
1798.569
1798.937
1799.38
1799.899
1800.496
1801.173
1801.933
1802.776
1803.704
1804.719
1805.822
1807.012
1808.292
1809.662
1811.123
1812.675
1814.316
1816.053
1817.855
1819.845
1821.512
1824.912
1817.798
1817.276
1816.687
1816.067
1815.438
1814.815
1814.205
1813.615
1813.049
1812.514
1812.012
1811.548
1811.124
1810.744
1810.411
1810.128
1809.898
1809.723
1809.606
1809.549
1809.555
1809.625
1809.763
1809.971
1810.25
1810.603
1811.032
1811.539
1812.126
1812.795
1813.547
1814.385
1815.31
1816.323
1817.427
1818.622
1819.91
1821.291
1822.766
1824.337
1826.003
1827.764
1829.622
1831.574
1833.622
1835.763
1837.998
1840.325
1842.741
1845.246
1847.837
1850.512
1853.268
1856.103
1859.012
1862
1865.022
1868.248
1870.933
1876.148
1820.673
1820.586
1820.49
1820.419
1820.394
1820.426
1820.517
1820.67
1820.888
1821.172
1821.524
1821.946
1822.439
1823.006
1823.647
1824.365
1825.162
1826.038
1826.997
1828.039
1829.167
1830.382
1831.686
1833.079
1834.565
1836.143
1837.815
1839.581
1841.442
1843.399
1845.452
1847.601
1849.845
1852.184
1854.617
1857.142
1859.759
1862.466
1865.26
1868.139
1871.1
1874.14
1877.257
1880.446
1883.702
1887.023
1890.404
1893.838
1897.322
1900.85
1904.416
1908.015
1911.64
1915.287
1918.946
1922.62
1926.261
1930.042
1933.17
1938.97
1835.719
1836.642
1837.558
1838.504
1839.505
1840.572
1841.709
1842.921
1844.214
1845.588
1847.048
1848.595
1850.232
1851.961
1853.783
1855.699
1857.711
1859.82
1862.026
1864.329
1866.728
1869.225
1871.816
1874.502
1877.281
1880.151
1883.109
1886.153
1889.28
1892.487
1895.769
1899.123
1902.544
1906.028
1909.57
1913.164
1916.805
1920.487
1924.205
1927.951
1931.72
1935.505
1939.3
1943.096
1946.888
1950.668
1954.429
1958.164
1961.865
1965.525
1969.136
1972.693
1976.187
1979.612
1982.96
1986.23
1989.386
1992.55
1995.143
1999.633
1866.19
1868.138
1870.113
1872.152
1874.283
1876.512
1878.839
1881.27
1883.804
1886.44
1889.179
1892.017
1894.952
1897.984
1901.107
1904.319
1907.616
1910.994
1914.448
1917.974
1921.565
1925.217
1928.924
1932.68
1936.477
1940.311
1944.173
1948.058
1951.957
1955.864
1959.771
1963.672
1967.557
1971.421
1975.254
1979.051
1982.803
1986.503
1990.144
1993.718
1997.219
2000.638
2003.971
2007.209
2010.346
2013.377
2016.294
2019.093
2021.768
2024.313
2026.723
2028.994
2031.122
2033.103
2034.933
2036.61
2038.125
2039.499
2040.596
2042.068
1912.199
1915.59
1918.999
1922.46
1925.995
1929.601
1933.275
1937.016
1940.817
1944.672
1948.575
1952.519
1956.497
1960.502
1964.525
1968.56
1972.597
1976.631
1980.651
1984.651
1988.622
1992.557
1996.447
2000.285
2004.064
2007.774
2011.41
2014.963
2018.427
2021.794
2025.059
2028.215
2031.255
2034.174
2036.966
2039.627
2042.15
2044.532
2046.769
2048.855
2050.789
2052.566
2054.183
2055.639
2056.931
2058.057
2059.016
2059.807
2060.428
2060.881
2061.163
2061.277
2061.224
2061.003
2060.618
2060.065
2059.368
2058.439
2057.631
2055.537
1976.978
1981.281
1985.52
1989.722
1993.902
1998.054
2002.171
2006.251
2010.285
2014.264
2018.182
2022.03
2025.801
2029.486
2033.079
2036.572
2039.959
2043.233
2046.387
2049.415
2052.312
2055.072
2057.691
2060.162
2062.483
2064.649
2066.656
2068.502
2070.183
2071.697
2073.042
2074.216
2075.218
2076.048
2076.704
2077.187
2077.497
2077.635
2077.602
2077.399
2077.028
2076.491
2075.791
2074.931
2073.913
2072.741
2071.418
2069.949
2068.337
2066.587
2064.704
2062.692
2060.557
2058.303
2055.939
2053.46
2050.911
2048.132
2045.81
2041.087
2047.59
2051.348
2054.93
2058.363
2061.658
2064.811
2067.822
2070.688
2073.405
2075.969
2078.375
2080.619
2082.698
2084.609
2086.349
2087.916
2089.307
2090.521
2091.557
2092.414
2093.091
2093.589
2093.908
2094.049
2094.012
2093.801
2093.416
2092.859
2092.135
2091.245
2090.193