/*--------------------------------*- C++ -*----------------------------------*\
| =========                 |                                                 |
| \\      /  F ield         | OpenFOAM: The Open Source CFD Toolbox           |
|  \\    /   O peration     | Version:  2312                                  |
|   \\  /    A nd           | Website:  www.openfoam.com                      |
|    \\/     M anipulation  |                                                 |
\*---------------------------------------------------------------------------*/
FoamFile
{
    version     2.0;
    format      ascii;
    arch        "LSB;label=32;scalar=64";
    class       volScalarField;
    location    "4200";
    object      ILambda_9_0;
}
// * * * * * * * * * * * * * * * * * * * * * * * * * * * * * * * * * * * * * //

dimensions      [1 0 -3 0 0 0 0];

internalField   nonuniform List<scalar> 
12000
(
706.099
696.239
691.0958
685.2687
680.1826
675.7518
672.1727
669.5307
667.8687
667.1633
667.3245
668.1967
669.5693
671.1936
672.8091
674.1738
675.0953
675.4573
675.2357
674.4998
673.3955
672.1136
670.8462
669.7408
668.8605
668.1599
667.4839
666.5904
665.1945
663.0253
659.8845
655.6934
650.5191
644.5723
638.179
631.7312
625.6292
620.2267
615.7909
612.4814
610.347
609.3326
609.2851
609.9551
610.9935
611.956
612.3327
611.6151
609.3981
605.4917
599.999
593.3254
586.1082
579.0956
573.0121
568.4332
565.6736
564.7141
565.2164
566.6378
723.5445
715.0246
709.5161
702.994
696.4954
690.0896
684.0473
678.5977
673.9579
670.3055
667.7622
666.3765
666.1097
666.83
668.3168
670.2785
672.3831
674.2986
675.7396
676.5095
676.5317
675.8612
674.6719
673.2197
671.7869
670.6179
669.8586
669.5153
669.4402
669.351
668.8803
667.6469
665.3335
661.7531
656.8926
650.9206
644.1616
637.0427
630.0265
623.5478
617.9676
613.5508
610.4638
608.7786
608.4674
609.378
611.1945
613.4096
615.3408
616.2195
615.3479
612.2812
606.9638
599.7664
591.4196
582.8793
575.156
569.1166
565.2945
563.7658
730.0073
723.71
719.1423
713.6143
707.7473
701.6042
695.3816
689.2758
683.5006
678.2724
673.7976
670.2551
667.7758
666.4219
666.1692
666.8968
668.3896
670.3546
672.4527
674.3433
675.7331
676.4227
676.3392
675.5476
674.2351
672.6701
671.1418
669.8925
669.0573
668.6248
668.429
668.1754
667.4978
666.0323
663.4945
659.7408
654.8006
648.8736
642.2929
635.4654
628.8053
622.6801
617.3802
613.1167
610.0355
608.2297
607.7266
608.4413
610.1099
612.2404
614.1279
614.9644
614.0237
610.8572
605.4274
598.1396
589.776
581.3383
573.8181
567.9455
736.2066
731.8434
728.2156
723.7076
718.6496
713.0939
707.1733
701.0306
694.8337
688.769
683.0393
677.8558
673.4257
669.9333
667.5173
666.2461
666.0966
666.9421
668.5533
670.6179
672.7768
674.6736
676.0102
676.5957
676.3801
675.4611
674.0614
672.4784
671.0154
669.9075
669.2612
669.0197
668.9649
668.7562
667.9994
666.3291
663.4882
659.3837
654.1086
647.9235
641.2048
634.3736
627.8262
621.8865
616.791
612.7073
609.766
608.0775
607.7072
608.6015
610.4923
612.8363
614.8464
615.6362
614.4368
610.8146
604.822
597.0233
588.3377
579.7117
740.0596
737.5567
735.0351
731.7112
727.7275
723.1197
717.9764
712.3944
706.4897
700.3941
694.2584
688.255
682.5771
677.4336
673.0364
669.5801
667.2151
666.0189
665.9704
666.9349
668.6664
670.8292
673.0401
674.9244
676.1782
676.6204
676.2267
675.1313
673.5964
671.9514
670.5152
669.5171
669.0357
668.9701
669.0522
668.8978
668.0867
666.2525
663.1633
658.7727
653.2311
646.8528
640.0497
633.2494
626.8224
621.0423
616.0893
612.0928
609.1837
607.5147
607.2161
608.2858
610.4573
613.1246
615.3844
616.2129
614.745
610.5871
604.0206
595.9058
741.9842
741.2
739.8506
737.7548
734.9329
731.4013
727.2249
722.4793
717.2549
711.649
705.7668
699.7242
693.6545
687.7148
682.0893
676.9858
672.6227
669.2064
666.8998
665.7887
665.8521
666.9455
668.803
671.0639
673.3206
675.1825
676.3432
676.6366
676.068
674.8104
673.1644
671.4872
670.1069
669.2395
668.9298
669.0303
669.2242
669.0882
668.1823
666.1458
662.7776
658.0824
652.2714
645.7154
638.8629
632.1447
625.8964
620.3259
615.5407
611.6216
608.7022
606.9951
606.7256
607.9755
610.5011
613.611
616.1937
616.971
614.9801
610.091
741.7914
742.6016
742.4795
741.7032
740.1668
737.8501
734.7833
731.0257
726.6598
721.7797
716.4817
710.8599
705.007
699.0219
693.0197
687.1428
681.568
676.5041
672.1779
668.8085
666.571
665.5575
665.7441
666.972
668.9526
671.2981
673.5779
675.3892
676.4293
676.5537
675.8027
674.3909
672.6556
670.977
669.685
668.975
668.8533
669.1238
669.4223
669.2895
668.2687
666.0063
662.3332
657.3078
651.2077
644.4685
637.5835
630.9889
624.9764
619.6681
615.073
611.2046
608.2
606.3632
606.0784
607.5881
610.6933
614.5117
617.5312
618.1795
739.6286
741.6752
742.683
743.2456
743.1099
742.1935
740.4524
737.8972
734.5824
730.596
726.0438
721.0349
715.6703
710.0385
704.2186
698.2911
692.3534
686.5353
681.0081
675.9844
671.7016
668.3918
666.241
665.3445
665.6704
667.0412
669.1415
671.556
673.8333
675.5635
676.4554
676.3927
675.4562
673.9024
672.1022
670.4521
669.2762
668.7439
668.8205
669.2627
669.662
669.525
668.3776
665.8706
661.8644
656.4733
650.0514
643.1157
636.2196
629.8094
624.1183
619.1479
614.7635
610.8753
607.6276
605.4907
605.151
607.139
611.2997
616.4961
736.2403
738.7903
740.5407
742.1917
743.3722
743.9314
743.7176
742.6476
740.6954
737.8959
734.3323
730.1205
725.3885
720.2586
714.8343
709.1964
703.4089
697.5342
691.6534
685.8859
680.4015
675.4194
671.1895
667.9571
665.916
665.16
665.6435
667.1643
669.3772
671.8394
674.0826
675.6974
676.4122
676.1466
675.0249
673.3446
671.5047
669.9103
668.8735
668.5346
668.819
669.4401
669.9476
669.8129
668.5379
665.7686
661.3902
655.5782
648.782
641.6278
634.7537
628.6226
623.3846
618.8623
614.6984
610.6419
606.8755
604.1938
603.801
606.6341
732.9229
735.0257
736.8552
738.9817
741.0191
742.7867
744.0414
744.5915
744.29
743.0586
740.8905
737.8461
734.0381
729.6089
724.7073
719.4662
713.9889
708.3462
702.5862
696.7539
690.9166
685.1875
679.7392
674.8014
670.6379
667.5062
665.6041
665.0172
665.6789
667.3566
669.6723
672.1572
674.3319
675.7962
676.3069
675.8254
674.5213
672.7291
670.8691
669.3482
668.463
668.3259
668.8281
669.6449
670.2848
670.1762
668.7827
665.7309
660.9247
654.6127
647.3693
639.9704
633.1738
627.467
622.877
618.9522
614.9917
610.5138
605.7683
601.867
730.9433
731.8845
733.0921
734.8834
736.9845
739.2677
741.4787
743.3671
744.6826
745.215
744.8163
743.4175
741.032
737.7472
733.7043
729.0714
724.0149
718.6749
713.1511
707.5023
701.7599
695.9535
690.1405
684.4331
679.0121
674.1217
670.0412
667.0379
665.3083
664.9218
665.7831
667.6233
670.0298
672.5111
674.5842
675.8671
676.1531
675.4492
673.968
672.0753
670.2051
668.7614
668.0268
668.0932
668.8264
669.8688
670.6832
670.6396
669.1413
665.7772
660.4666
653.5496
645.7666
638.0958
631.4605
626.3802
622.6985
619.5605
615.779
610.5228
730.7645
730.5451
730.7539
731.5854
732.9374
734.8276
737.1008
739.5542
741.9235
743.9252
745.2887
745.7914
745.2856
743.7143
741.1131
737.5967
733.3344
728.5172
723.3252
717.9015
712.3381
706.6795
700.9406
695.1382
689.3252
683.6191
678.2151
673.3759
669.3973
666.5528
665.0305
664.8755
665.9552
667.9599
670.4428
672.8947
674.838
675.9176
675.9689
675.0443
673.3938
671.406
669.5225
668.1446
667.5482
667.8172
668.8029
670.1163
671.1629
671.2313
669.639
665.9196
660.0084
652.3602
643.9273
635.951
629.5732
625.3592
622.9507
621.1581
731.6234
731.1009
730.5166
730.3286
730.5353
731.3436
732.7766
734.7865
737.2197
739.8405
742.3571
744.4582
745.8534
746.311
745.6865
743.9382
741.1255
737.391
732.9303
727.9537
722.6503
717.1605
711.5649
705.8908
700.1378
694.3135
688.4726
682.7454
677.348
672.5656
668.7096
666.0551
664.7738
664.877
666.1882
668.3537
670.8955
673.2945
675.0876
675.9541
675.7729
674.6368
672.8244
670.7383
668.8247
667.4887
667.0134
667.4898
668.7624
670.4054
671.7487
671.9745
670.2922
666.1679
659.555
651.0435
641.8401
633.5071
627.4547
624.344
731.8257
732.341
731.7114
731.1173
730.4755
730.1409
730.3058
731.12
732.6278
734.7637
737.3538
740.1342
742.7838
744.9656
746.3719
746.7652
746.0085
744.0785
741.0606
737.1255
732.4922
727.3861
721.9991
716.4632
710.8425
705.1457
699.3581
693.4835
687.5854
681.8153
676.4165
671.6992
667.9884
665.5547
664.5439
664.925
666.4718
668.7876
671.3687
673.6956
675.3284
675.9846
675.5835
674.2489
672.2765
670.0769
668.1047
666.7819
666.4163
667.1176
668.7235
670.7581
672.4554
672.874
671.1034
666.5358
659.1415
649.6541
639.5198
630.4531
729.6566
732.3128
732.567
732.5738
731.9797
731.1679
730.398
729.9571
730.0786
730.914
732.505
734.7714
737.5155
740.4449
743.2094
745.4484
746.8404
747.1469
746.2425
744.1263
740.9116
736.7963
732.0202
726.8178
721.3775
715.8162
710.1767
704.448
698.6036
692.6494
686.6662
680.8344
675.4302
670.7901
667.249
665.0645
664.3474
665.0169
666.7947
669.2443
671.8455
674.0882
675.5624
676.0227
675.4199
673.8961
671.7549
669.4146
667.3499
666.0176
665.7648
666.7225
668.7103
671.1855
673.2754
673.9097
672.0541
667.0234
658.7997
648.171
724.388
729.3899
731.1464
732.6196
733.116
732.9057
732.171
731.197
730.2948
729.7667
729.8611
730.7339
732.4201
734.822
737.7164
740.7815
743.6393
745.9083
747.2574
747.4518
746.3831
744.0764
740.6746
736.402
731.5152
726.2516
720.7886
715.2216
709.568
703.7962
697.8716
691.8094
685.7163
679.8092
674.4014
669.8548
666.5081
664.5974
664.1893
665.1479
667.144
669.7084
672.315
674.472
675.8008
676.0869
675.2991
673.5853
671.2529
668.7371
666.5508
665.2028
665.0835
666.3352
668.7437
671.6905
674.1913
675.0444
673.1248
667.8233
716.7629
723.2179
726.4425
729.6201
731.8328
733.1439
733.5517
733.195
732.3048
731.1831
730.1643
729.5693
729.6579
730.5873
732.3825
734.9255
737.966
741.1522
744.0795
746.3487
747.6237
747.6793
746.4289
743.9276
740.3497
735.9442
730.9796
725.6897
720.2332
714.6776
709.0116
703.1835
697.1557
690.9601
684.7376
678.7483
673.3444
668.9104
665.7815
664.1627
664.0697
665.3094
667.5065
670.1691
672.7749
674.8559
676.0616
676.1955
675.2302
673.3112
670.7549
668.0311
665.7093
664.3574
664.4026
665.9875
668.8578
672.3087
675.2536
676.5434
708.6694
714.9694
718.9783
723.3179
727.1057
730.1969
732.3958
733.6242
733.9144
733.4145
732.3749
731.1193
730.0034
729.3647
729.4715
730.4789
732.3985
735.0893
738.2714
741.5631
744.5348
746.7731
747.9421
747.8316
746.3826
743.684
739.942
735.4281
730.4178
725.134
719.7095
714.1784
708.4983
702.5997
696.4474
690.0979
683.7337
677.6623
672.2749
667.9733
665.0813
663.765
663.9847
665.4922
667.8733
670.6235
673.2327
675.2563
676.3626
676.3589
675.2099
673.0596
670.2473
667.2936
664.8337
663.4959
663.7498
665.7448
669.1732
673.2775
702.2244
706.7754
710.5658
715.0023
719.5181
723.8416
727.6717
730.751
732.8982
734.034
734.1992
733.5562
732.3748
731.0005
729.8088
729.1515
729.3026
730.4112
732.472
735.3176
738.637
742.018
745.0083
747.1843
748.2157
747.9134
746.2508
743.3537
739.4606
734.8625
729.836
724.5863
719.2139
713.7151
708.0162
702.0328
695.7385
689.2211
682.7104
676.5631
671.2072
667.0557
664.414
663.4039
663.9294
665.691
668.2441
671.0799
673.7034
675.6891
676.7129
676.5747
675.229
672.8249
669.732
666.525
663.916
662.6298
663.2073
665.7506
698.8279
700.704
703.4069
706.8528
710.9575
715.4361
720.0145
724.3752
728.2123
731.2619
733.3396
734.3695
734.402
733.6156
732.3004
730.8231
729.578
728.929
729.1518
730.386
732.605
735.6122
739.0635
742.517
745.5
747.5832
748.4474
747.9305
746.0429
742.949
738.9189
734.2592
729.242
724.0482
718.7411
713.2771
707.5524
701.472
695.0235
688.3316
681.6756
675.4614
670.1501
666.1618
663.7785
663.0759
663.9021
665.9104
668.6309
671.554
674.1996
676.157
677.1055
676.8379
675.2982
672.6288
669.2116
665.6907
662.9212
661.7282
698.7095
697.8965
699.0967
700.8895
703.6624
707.2018
711.365
715.9037
720.5247
724.9053
728.7304
731.7307
733.7209
734.6304
734.5216
733.591
732.1498
730.586
729.311
728.6979
729.0205
730.4043
732.7977
735.9717
739.5482
743.0564
746.0064
747.9682
748.6394
747.8898
745.77
742.4845
738.3322
733.631
728.6428
723.5196
718.2845
712.8542
707.0971
700.9119
694.3038
687.4361
680.6379
674.3626
669.1033
665.2856
663.1684
662.7801
663.9123
666.1692
669.0535
672.0545
674.7105
676.6363
677.5298
677.1759
675.4688
672.4843
668.6053
664.5812
701.1306
698.3044
698.0852
698.1555
699.2168
701.1516
703.9755
707.5848
711.8077
716.397
721.0499
725.4352
729.2301
732.1613
734.0449
734.8184
734.5591
733.4831
731.924
730.2909
729.0104
728.4613
728.9113
730.4675
733.0493
736.3927
740.0853
743.6292
746.5212
748.3356
748.7925
747.7977
745.4442
741.9751
737.7152
732.9888
728.0429
722.998
717.837
712.439
706.6479
700.3574
693.5904
686.5467
679.6036
673.2632
668.0541
664.4134
662.5794
662.5302
663.9901
666.4996
669.524
672.5571
675.1858
677.096
678.0197
677.6726
675.7858
672.3159
704.987
701.0495
699.8024
698.5324
698.0472
698.2975
699.4111
701.4239
704.3179
707.9962
712.2806
716.917
721.5934
725.9698
729.7167
732.5587
734.3159
734.9373
734.5176
733.2953
731.6272
729.9426
728.6812
728.224
728.828
730.5771
733.3583
736.8706
740.6674
744.2267
747.0365
748.6812
748.9078
747.6613
745.0771
741.4342
737.079
732.3375
727.44
722.4758
717.3907
712.0297
706.2128
699.826
692.9038
685.6771
678.5717
672.1459
666.9791
663.5324
662.0252
662.3694
664.1903
666.9327
670.018
672.9883
675.5642
677.5608
678.7089
678.5941
709.3746
705.0587
703.2236
701.1493
699.5868
698.5104
698.0831
698.4181
699.6096
701.7027
704.6767
708.4314
712.7819
717.465
722.1587
726.5139
730.1956
732.9283
734.5395
734.9923
734.4025
733.0331
731.265
729.5472
728.3297
727.9915
728.7744
730.7345
733.7227
737.3998
741.2866
744.8403
747.5459
749.0027
748.9891
747.4899
744.6808
740.8725
736.428
731.6732
726.8228
721.9397
716.9385
711.6321
705.8125
699.3471
692.2687
684.8336
677.5232
670.9757
665.8487
662.6447
661.5537
662.3767
664.578
667.4696
670.4647
673.2682
675.8577
678.2567
713.8081
709.5423
707.4419
705.0044
702.8501
700.9505
699.443
698.4485
698.0992
698.5169
699.7952
701.979
705.0448
708.8864
713.3102
718.0421
722.7488
727.0721
730.6725
733.2765
734.7219
734.9899
734.2205
732.7033
730.8446
729.1117
727.9623
727.7691
728.7534
730.9392
734.1384
737.9734
741.9344
745.4628
748.0458
749.3029
749.0455
747.2969
744.2687
740.2975
735.7597
730.9823
726.1713
721.3733
716.478
711.2642
705.4814
698.9567
691.7033
684.0017
676.4139
669.7008
664.6397
661.7845
661.2536
662.6516
665.2039
668.0881
670.8049
673.3433
718.0876
714.0946
711.9214
709.3869
706.9802
704.6708
702.5529
700.7163
699.2737
698.3512
698.0809
698.5858
699.9598
702.2461
705.4167
709.3575
713.8637
718.6483
723.3657
727.6481
731.1523
733.6094
734.8703
734.938
733.9797
732.3144
730.3743
728.6439
727.5851
727.5603
728.7652
731.1876
734.5983
738.5819
742.6016
746.0883
748.5371
749.5906
749.0928
747.1012
743.8557
739.7136
735.0641
730.2431
725.4617
720.7639
716.0194
710.9602
705.2654
698.6886
691.2058
683.1369
675.1741
668.2663
663.3523
661.019
661.2293
663.2903
666.1414
668.8556
722.0405
718.5016
716.3996
713.9271
711.467
709.0026
706.601
704.3223
702.2428
700.4549
699.0701
698.2154
698.0242
698.6207
700.0989
702.4994
705.7881
709.8409
714.4395
719.2822
724.0094
728.2435
731.6385
733.9322
734.9916
734.845
733.69
731.8771
729.8645
728.1526
727.2047
727.3676
728.8075
731.4722
735.0908
739.2121
743.277
746.7118
749.0238
749.8799
749.1524
746.9245
743.4558
739.1197
734.3241
729.4294
724.6735
720.1127
715.593
710.7723
705.2143
698.5608
690.7451
682.168
673.7284
666.6331
662.0011
660.4078
661.5961
664.565
725.3848
722.511
720.6481
718.3921
716.0351
713.5811
711.0927
708.6221
706.2257
703.9653
701.9154
700.1678
698.8341
698.0431
697.9304
698.622
700.2118
702.7372
706.1563
710.333
715.0337
719.9398
724.6765
728.8563
732.1314
734.2479
735.0921
734.7201
733.3632
731.4044
729.3285
727.6496
726.8287
727.1933
728.876
731.7826
735.6011
739.8481
743.9483
747.329
749.5126
750.1879
749.2469
746.7864
743.0762
738.5058
733.5154
728.516
723.7985
719.4425
715.2518
710.7623
705.3676
698.5675
690.2728
681.0311
672.0238
664.7627
660.5522
659.9151
727.8048
725.7725
724.3345
722.4821
720.4151
718.1448
715.7348
713.2432
710.7282
708.2452
705.8494
703.6013
701.5743
699.8601
698.5717
697.8405
697.8053
698.5945
700.3019
702.9607
706.5203
710.8307
715.6411
720.6146
725.3603
729.4808
732.6273
734.5562
735.1755
734.5719
733.0117
730.9118
728.7822
727.149
726.4671
727.0411
728.9668
732.108
736.1139
740.4746
744.6049
747.9385
750.0132
750.5325
749.3954
746.6976
742.7114
737.8494
732.6089
727.4854
722.8486
718.7988
715.0586
710.9824
705.7466
698.7028
689.7723
679.6938
669.9475
662.2379
729.1348
727.9693
727.0876
725.805
724.2297
722.3525
720.223
717.8961
715.4358
712.9056
710.3651
707.8695
705.4726
703.2336
701.2248
699.5388
698.291
697.6164
697.658
698.5467
700.3762
703.1748
706.8818
711.3322
716.2564
721.2983
726.0508
730.1067
733.1177
734.8523
735.2422
734.4063
732.6469
730.4143
728.2426
726.6662
726.1311
726.9156
729.0777
732.4402
736.6181
741.0816
745.243
748.5455
750.5392
750.9308
749.6091
746.6547
742.34
737.1182
731.578
726.335
721.8523
718.229
715.0581
711.4656
706.3833
698.9985
689.2155
677.8652
729.486
729.0074
728.6838
728.0281
727.0766
725.7782
724.1461
722.2088
720.0171
717.6339
715.127
712.5624
710
707.494
705.0964
702.8649
700.8716
699.2105
698.0004
697.381
697.4996
698.4901
700.4452
703.388
707.2461
711.8384
716.8759
721.9831
726.7368
730.7215
733.591
735.1278
735.2887
734.2256
732.2769
729.9244
727.7235
726.2142
725.8301
726.8212
729.2079
732.7752
737.11
741.67
745.8706
749.1652
751.1087
751.3958
749.8878
746.6394
741.9305
736.2819
730.4096
725.0737
720.8268
717.745
715.2678
712.2643
707.3788
699.6367
729.2115
729.0971
729.1906
729.0641
728.7221
728.0712
727.0797
725.7311
724.0382
722.0382
719.787
717.3523
714.8048
712.2115
709.6319
707.1183
704.721
702.4965
700.5172
698.8795
697.7064
697.1429
697.3408
698.4366
700.5215
703.6113
707.6215
712.3536
717.499
722.6631
727.4084
731.313
734.035
735.3729
735.3094
734.0296
731.9058
729.4491
727.2329
725.7993
725.5671
726.7578
729.3561
733.1138
737.5958
742.2537
746.5085
749.8211
751.7399
751.9324
750.2189
746.6275
741.4612
735.3339
729.1071
723.6911
719.7417
717.3429
715.8125
713.8475
728.732
728.6619
728.9509
729.1384
729.2393
729.1412
728.7803
728.0975
727.0578
725.6517
723.8972
721.8367
719.531
717.0511
714.4696
711.8535
709.2608
706.742
704.3455
702.1272
700.1609
698.5463
697.4118
696.9075
697.1901
698.3973
700.6173
703.8573
708.0187
712.8851
718.1284
723.3364
728.0597
731.8729
734.4411
735.5806
735.3004
733.8173
731.535
728.9902
726.7704
725.4177
725.3357
726.7188
729.5198
733.4619
738.0924
742.8588
747.1863
750.5359
752.44
752.5297
750.5846
746.6152
740.9553
734.3037
727.6611
722.1317
718.5822
717.225
728.3414
728.1339
728.4157
728.6836
728.9843
729.2197
729.3216
729.212
728.8215
728.0956
727.0024
725.5372
723.7229
721.6064
719.2524
716.7343
714.1252
711.4911
708.8882
706.3647
703.9678
701.7538
699.7991
698.2083
697.1154
696.6765
697.0521
698.3797
700.7424
704.1365
708.4477
713.4406
718.7686
724.0043
728.6893
732.3985
734.8071
735.7505
735.2637
733.5919
731.1664
728.5452
726.3275
725.0552
725.1193
726.6915
729.697
733.8331
738.6279
743.5194
747.9292
751.3123
753.186
753.1597
750.9893
746.6621
740.4935
733.2135
725.9743
720.1027
728.1066
727.7665
727.9358
728.1306
728.421
728.748
729.0654
729.3072
729.3991
729.265
728.8365
728.0619
726.913
725.3895
723.519
721.3525
718.9574
716.4081
713.7772
711.1288
708.5165
705.9867
703.5861
701.3727
699.4274
697.8608
696.8138
696.4486
696.928
698.3878
700.9028
704.4558
708.9148
714.0252
719.4231
724.6684
729.2986
732.8926
735.1387
735.8916
735.2099
733.3632
730.8045
728.1096
725.8894
724.6893
724.895
726.6632
729.8945
734.2556
739.2428
744.2675
748.7359
752.1057
753.9165
753.8022
751.4984
746.886
740.1307
731.8741
727.9057
727.5702
727.6355
727.7274
727.9079
728.1637
728.4812
728.828
729.1528
729.3893
729.4623
729.296
728.8237
727.9969
726.7917
725.2124
723.2908
721.0813
718.6528
716.0795
713.432
710.7716
708.1491
705.6093
703.1994
700.9813
699.0419
697.4997
696.5037
696.2215
696.8175
698.4224
701.1
704.8167
709.4207
714.6383
720.0901
725.3278
729.8891
733.3614
735.4478
736.0213
735.159
733.1477
730.4566
727.6768
725.435
724.2914
724.6398
726.6313
730.1397
734.7816
739.9891
745.1166
749.5556
752.8198
754.5591
754.4801
752.2525
747.5992
727.5557
727.3851
727.4279
727.4841
727.5747
727.72
727.9326
728.2156
728.5537
728.9122
729.2377
729.462
729.5092
729.3046
728.784
727.9026
726.6415
725.0098
723.0431
720.7983
718.3447
715.7546
713.0953
710.4243
707.7893
705.234
702.808
700.5785
698.641
697.1236
696.1842
695.9954
696.721
698.4841
701.3338
705.2169
709.9606
715.2728
720.7618
725.9764
730.4597
733.8117
735.7505
736.1628
735.1362
732.9652
730.1282
727.2336
724.9356
723.8293
724.3376
726.6145
730.4909
735.489
740.9188
746.0492
750.3009
753.3582
755.1074
755.4747
726.9413
727.023
727.1333
727.251
727.3406
727.435
727.5559
727.7286
727.968
728.2745
728.6302
728.9971
729.3187
729.5253
729.5408
729.2922
728.7189
727.781
726.465
724.7848
722.7797
720.5079
718.0376
715.4378
712.7709
710.0897
707.4388
704.8618
702.412
700.1645
698.2254
696.7343
695.8583
695.7743
696.6429
698.576
701.6045
705.6528
710.5265
715.9171
721.4257
726.6043
731.0075
734.2508
736.0651
736.3425
735.1683
732.8322
729.8168
726.7549
724.3513
723.268
723.9841
726.6575
731.0349
736.4683
742.0807
747.058
750.9325
753.6871
726.0735
726.3853
726.613
726.8569
727.0343
727.171
727.2819
727.3957
727.5405
727.7398
728.0064
728.3373
728.7103
729.0834
729.3974
729.5809
729.5586
729.2603
728.6301
727.6339
726.2643
724.5401
722.5038
720.2136
717.7349
715.1318
712.4606
709.7686
707.0973
704.4914
702.0101
699.7388
697.7963
696.3353
695.532
695.5659
696.5912
698.7046
701.9148
706.1218
711.1101
716.5586
722.0681
727.2015
731.5314
734.6897
736.4141
736.5891
735.28
732.7577
729.5065
726.2012
723.6334
722.5762
723.5905
726.8195
731.8596
737.8164
743.5905
748.3044
725.0617
725.5005
725.8421
726.2172
726.5238
726.7694
726.9545
727.0962
727.219
727.3515
727.5216
727.7507
728.0478
728.4052
728.7958
729.1734
729.4756
729.6304
729.5639
729.2101
728.5188
727.4631
726.0417
724.2787
722.2185
719.9184
717.4392
714.8383
712.1647
709.4595
706.762
704.1194
701.5992
699.2996
697.3546
695.9307
695.2126
695.3798
696.576
698.8779
702.2683
706.6216
711.703
717.1854
722.6776
727.7626
732.0364
735.1461
736.8256
736.9325
735.491
732.7393
729.1691
725.5271
722.7408
721.7372
723.1688
727.1381
733.0734
739.8965
724.041
724.483
724.8986
725.3615
725.7832
726.1509
726.4519
726.687
726.8666
727.0106
727.1452
727.2994
727.4993
727.7629
728.0944
728.4806
728.8889
729.2685
729.5545
729.6744
729.5573
729.1421
728.3862
727.2701
725.7997
724.0038
721.9278
719.6262
717.1537
714.5591
711.883
709.1603
706.4289
703.7409
701.1746
698.8441
696.9005
695.5245
694.9077
695.2258
696.6071
699.103
702.6672
707.148
712.2961
717.7861
723.2461
728.2883
732.536
735.6458
737.3309
737.3982
735.809
732.7624
728.7761
724.7092
721.6657
720.7456
722.7007
727.6288
723.1049
723.4586
723.9004
724.3911
724.8798
725.338
725.7468
726.0934
726.3737
726.5926
726.7644
726.9114
727.0609
727.2412
727.476
727.7789
728.1487
728.5656
728.9911
729.3697
729.6341
729.7127
729.5382
729.0563
728.2327
727.0566
725.5412
723.719
721.6357
719.3411
716.8816
714.2959
711.6151
708.8684
706.0938
703.3508
700.7321
698.3702
696.4353
695.1218
694.6256
695.1137
696.6928
699.3842
703.1095
707.6929
712.8773
718.3502
723.7703
728.7878
733.0527
736.2185
737.9552
737.9945
736.2225
732.81
728.3287
723.77
720.387
719.3218
722.2741
722.5057
722.94
723.4112
723.9156
724.4151
724.8923
725.3284
725.7096
726.0278
726.283
726.4839
726.6481
726.8002
726.9683
727.1796
727.4545
727.8015
728.2127
728.6615
729.1028
729.4766
729.7137
729.7441
729.5056
728.9521
728.0587
726.8242
725.2687
723.4282
721.3467
719.0672
716.6259
714.0499
711.3601
708.5809
705.7524
702.9448
700.2687
697.8781
695.9631
694.7309
694.3772
695.0544
696.841
699.723
703.5892
708.2443
713.4333
718.8697
724.2549
729.2808
733.616
736.8902
738.7051
738.7031
736.704
732.8725
727.8246
722.5445
721.5114
721.637
722.051
722.4828
722.9695
723.4691
723.9708
724.4565
724.9099
725.3162
725.6648
725.9513
726.1795
726.3621
726.52
726.6799
726.8707
727.1177
727.4375
727.8327
728.2879
728.769
729.224
729.5884
729.7918
729.767
729.4583
728.8289
727.8648
726.5746
724.9854
723.1354
721.0648
718.8081
716.3889
713.8211
711.1158
708.2934
705.3995
702.5186
699.7829
697.3705
695.4918
694.3636
694.1764
695.0601
697.0583
700.1177
704.0962
708.7871
713.9516
719.3437
724.7164
729.7993
734.2598
737.6759
739.5626
739.4819
737.2209
732.9669
720.762
720.8187
721.2145
721.6107
722.0699
722.5492
723.0454
723.5449
724.0346
724.4996
724.9251
725.2985
725.612
725.8649
726.0652
726.2296
726.3827
726.5534
726.7708
727.0581
727.4273
727.8742
728.3754
728.8882
729.3539
729.7037
729.8666
729.7796
729.3949
728.6865
727.6522
726.3106
724.6953
722.8451
720.7946
718.567
716.1716
713.6082
710.8781
708.0003
705.0292
702.068
699.2743
696.8523
695.0318
694.0348
694.0388
695.1428
697.3487
700.562
704.6151
709.3037
714.4226
719.7814
725.1864
730.3877
735.0202
738.5862
740.5331
740.4606
719.9981
720.0098
720.391
720.7644
721.2014
721.6594
722.139
722.632
723.1305
723.6238
724.0987
724.5409
724.9366
725.2753
725.5521
725.7702
725.942
726.0888
726.2388
726.4232
726.6712
727.0032
727.4259
727.9274
728.4754
729.0186
729.491
729.8201
729.9357
729.7798
729.3142
728.5251
727.4226
726.0357
724.4032
722.5628
720.541
718.3474
715.975
713.4089
710.6421
707.6951
704.6353
701.5894
698.7441
696.3311
694.5965
693.7613
693.9804
695.3124
697.711
701.0424
705.1247
709.7755
714.8444
720.2077
725.7152
731.1102
735.9793
739.8237
719.2457
719.1998
719.5585
719.913
720.3338
720.7765
721.2416
721.7229
722.2167
722.7173
723.2161
723.7021
724.1614
724.58
724.9449
725.2476
725.4864
725.6687
725.8118
725.9418
726.0907
726.292
726.5744
726.9553
727.435
727.9932
728.588
729.1589
729.6332
729.9351
729.9961
729.7651
729.2149
728.345
727.1785
725.7542
724.1148
722.2946
720.3095
718.1527
715.7996
713.2208
710.4028
707.3716
704.2127
701.0814
698.1969
695.8178
694.2024
693.5614
694.0157
695.5734
698.1363
701.538
705.6014
710.1915
715.2342
720.677
726.4052
732.1752
718.5881
718.4302
718.7396
719.0579
719.4542
719.8805
720.333
720.804
721.2902
721.7883
722.2941
722.8013
723.3004
723.7791
724.2228
724.6173
724.9505
725.216
725.4157
725.5616
725.6761
725.7903
725.9406
726.1622
726.4831
726.9167
727.4564
728.0725
728.7129
729.3079
729.778
730.0454
730.0447
729.7331
729.096
728.1471
726.9229
725.471
723.8362
722.0468
720.105
717.9858
715.6455
713.0409
710.1552
707.0245
703.7585
700.546
697.6411
695.3277
693.8687
693.4531
694.1549
695.9227
698.6078
702.0259
706.0309
710.5657
715.6543
721.3263
718.1442
717.7938
718.0099
718.2501
718.5914
718.9811
719.4099
719.8658
720.342
720.8339
721.3383
721.8518
722.3694
722.8836
723.3834
723.855
724.2831
724.653
724.9536
725.1809
725.3405
725.4495
725.5358
725.6361
725.7905
726.0362
726.3998
726.8898
727.4918
728.1661
728.8498
729.4639
729.923
730.148
730.0785
729.6816
728.9568
727.9328
726.6592
725.1913
723.5736
721.8253
719.9322
717.8485
715.5113
712.8653
709.8941
706.6498
703.2724
699.9891
697.0898
694.8791
693.6149
693.4504
694.4005
696.3493
699.1054
702.4903
706.4219
710.9402
718.0296
717.4102
717.4828
717.588
717.8239
718.1343
718.5072
718.9257
719.3783
719.8559
720.3522
720.8628
721.3845
721.9131
722.4428
722.9644
723.4654
723.9303
724.3425
724.687
724.9539
725.1419
725.2606
725.3326
725.3918
725.4803
725.6424
725.9164
726.3268
726.8768
727.543
728.2747
728.9982
729.6253
730.0654
730.24
730.0949
729.6093
728.7977
727.7048
726.3923
724.9214
723.3336
721.6358
719.7944
717.7413
715.3945
712.6893
709.6147
706.2454
702.7577
699.4208
696.5594
694.4918
693.4583
693.562
694.747
696.8336
699.6042
702.9046
718.3136
717.3862
717.2765
717.1932
717.2666
717.4408
717.7055
718.0431
718.4386
718.8783
719.3507
719.8473
720.3619
720.8903
721.4289
721.9728
722.5149
723.0445
723.5469
724.0049
724.4007
724.719
724.9511
725.0985
725.1758
725.2111
725.2448
725.3245
725.4981
725.805
726.2668
726.8799
727.6111
728.3985
729.1571
729.79
730.2027
730.3186
730.0921
729.5159
728.6209
727.4674
726.1285
724.6687
723.1233
721.4839
719.6944
717.6636
715.2915
712.5077
709.313
705.8113
702.2208
698.8552
696.0706
694.1888
693.4162
693.7888
695.1714
697.3158
718.9853
717.7734
717.4711
717.1713
717.0391
717.0231
717.1211
717.3195
717.605
717.9624
718.377
718.835
719.3254
719.8395
720.3715
720.9171
721.4724
722.0318
722.5866
723.1243
723.6282
724.079
724.4575
724.7484
724.9443
725.0503
725.0857
725.0852
725.0955
725.1698
725.3596
725.7043
726.2218
726.9007
727.6973
728.5375
729.3252
729.9557
730.3321
730.3816
730.0691
729.4024
728.4298
727.2266
725.8755
724.4415
722.9503
721.3743
719.6335
717.6129
715.197
712.3149
708.9857
705.3499
701.6738
698.3153
695.654
693.9973
693.4926
694.0694
719.9444
718.5388
718.0728
717.5703
717.2232
716.9882
716.8747
716.8786
716.9938
717.2098
717.513
717.8882
718.3202
718.7952
719.3022
719.8329
720.3815
720.944
721.5159
722.0908
722.6585
723.2044
723.7095
724.1524
724.5125
724.7744
724.9328
724.9964
724.99
724.955
724.9447
725.018
725.2292
725.6169
726.1943
726.9411
727.8021
728.691
729.5007
730.12
730.451
730.4273
730.026
729.2716
728.2298
726.9903
725.6426
724.2489
722.8216
721.3111
719.6112
717.5844
715.1033
712.1033
708.6307
704.871
701.1413
697.8376
695.3382
693.8738
721.0187
719.5607
718.9971
718.3519
717.8259
717.3849
717.0501
716.8292
716.7278
716.7451
716.8752
717.1074
717.4273
717.8194
718.2679
718.7591
719.2818
719.8281
720.3928
720.9717
721.5601
722.1505
722.7312
723.2851
723.7908
724.2247
724.5649
724.7964
724.9158
724.9362
724.8885
724.8209
724.7937
724.8709
725.1091
725.5453
726.1864
727.0025
727.926
728.858
729.6816
730.2801
730.5573
730.4548
729.9643
729.1279
728.0284
726.768
725.4402
724.1005
722.7437
721.2955
719.6231
717.5686
714.9994
711.8667
708.2542
704.3985
700.6595
697.4218
722.0053
720.6524
720.0809
719.3881
718.7613
718.174
717.655
717.2221
716.8931
716.6798
716.5883
716.6182
716.763
717.0111
717.3476
717.7561
718.2205
718.7269
719.2645
719.8257
720.4058
721.0008
721.6056
722.2116
722.8051
723.3666
723.872
724.2955
724.6141
724.8133
724.8924
724.8691
724.781