/*--------------------------------*- C++ -*----------------------------------*\
| =========                 |                                                 |
| \\      /  F ield         | OpenFOAM: The Open Source CFD Toolbox           |
|  \\    /   O peration     | Version:  2312                                  |
|   \\  /    A nd           | Website:  www.openfoam.com                      |
|    \\/     M anipulation  |                                                 |
\*---------------------------------------------------------------------------*/
FoamFile
{
    version     2.0;
    format      ascii;
    arch        "LSB;label=32;scalar=64";
    class       volScalarField;
    location    "4200";
    object      nut;
}
// * * * * * * * * * * * * * * * * * * * * * * * * * * * * * * * * * * * * * //

dimensions      [0 2 -1 0 0 0 0];

internalField   nonuniform List<scalar> 
12000
(
4.007633e-05
0.0001968418
0.0002021053
0.0002010657
0.0002110848
0.0002535259
0.0002826651
0.0002440122
0.0002016813
0.0002112765
0.0002640704
0.0002609841
0.0002172285
0.0002071099
0.00022905
0.0002373643
0.0002204282
0.0002185959
0.0002300092
0.0002187695
0.0002000772
0.0002085512
0.0002322531
0.0002212764
0.0001963193
0.0001983354
0.0002181272
0.0002183955
0.0002032885
0.0001989049
0.0002017462
0.000202544
0.0002060263
0.000207916
0.0001989338
0.0001872069
0.0001843798
0.0002051467
0.0002297647
0.0002098988
0.0001747733
0.0001583652
0.0001875243
0.0002769227
0.0002432151
0.000150989
0.0001328981
0.0001836223
0.0003330301
0.000207499
0.000121615
0.0001391528
0.0002187461
0.000195242
0.0001284105
0.0001204271
0.0001200242
0.0001006544
8.555517e-05
6.921791e-05
2.525034e-05
0.0002398839
0.0002849254
0.0003400412
0.0003899582
0.0004340623
0.0004842147
0.0005480338
0.0006338992
0.0007236454
0.0007912381
0.0008600975
0.0009602292
0.001068401
0.001153523
0.001229217
0.00132337
0.001420127
0.001502847
0.001596898
0.001712944
0.001804732
0.001856223
0.001930585
0.002047854
0.002140892
0.002177841
0.002221283
0.002300908
0.002377166
0.002426521
0.00246037
0.002482619
0.002501217
0.002525646
0.002547153
0.002545104
0.002506438
0.002455384
0.002436619
0.002429744
0.00240221
0.00230749
0.002172737
0.00176346
0.001566736
0.001960051
0.001792834
0.00161487
0.001148558
0.001266083
0.00121529
0.001029824
0.000887702
0.0007378988
0.000557881
0.0003849427
0.0002340899
0.0001278681
6.432174e-05
3.669387e-05
0.0003182456
0.0004254882
0.0005184924
0.000646973
0.0007905036
0.0009473544
0.001111759
0.001293701
0.001483968
0.001657685
0.001836462
0.00201742
0.002195643
0.002364369
0.002524413
0.002680227
0.002828321
0.002967573
0.003101022
0.003227069
0.003340276
0.003442675
0.003540627
0.003632615
0.003712793
0.003782222
0.003846353
0.003905307
0.003954187
0.003999416
0.004033832
0.004062812
0.00408612
0.004102833
0.004111639
0.004112592
0.004106086
0.004092402
0.004070296
0.004038691
0.003998306
0.003950273
0.003887592
0.00381395
0.003724014
0.003610932
0.003358336
0.003037191
0.002888203
0.002911456
0.002519093
0.002152459
0.001734983
0.001482122
0.001377642
0.0009844819
0.000549538
0.0002015829
6.387351e-05
3.648324e-05
0.000353367
0.000532252
0.0006870966
0.0008877767
0.001114513
0.001359144
0.001616226
0.001882984
0.002154099
0.002418641
0.002670312
0.002910336
0.003132213
0.003340068
0.003534459
0.003715451
0.003883287
0.004038294
0.00418116
0.004312621
0.004433077
0.004543247
0.004643906
0.004735271
0.00481756
0.004891266
0.004956694
0.005012808
0.005062872
0.005103036
0.005135044
0.005160134
0.005176797
0.00518382
0.005181141
0.005168384
0.005145648
0.005111701
0.005065623
0.005006601
0.00493375
0.004845756
0.004740939
0.004617578
0.004478246
0.004316974
0.004133074
0.003924891
0.003690727
0.003429672
0.00272075
0.002377536
0.002173778
0.002080869
0.001663261
0.00120279
0.0007292323
0.0002980488
6.442602e-05
3.655484e-05
0.0003904037
0.0006424072
0.0008627719
0.00113228
0.001430622
0.001744795
0.002065125
0.00238425
0.002696416
0.002998799
0.003286645
0.003559685
0.003810098
0.004036865
0.004244276
0.00443579
0.004613528
0.004778865
0.004932127
0.00507426
0.005206238
0.005328687
0.005440716
0.005542417
0.005634198
0.005716353
0.005786941
0.005852947
0.005907962
0.005953485
0.005990675
0.006018713
0.006036984
0.006045032
0.006043471
0.00603181
0.006008738
0.00597398
0.005927054
0.005867418
0.005794523
0.005707413
0.005604592
0.005485709
0.005348048
0.005188007
0.005006978
0.004800686
0.004389869
0.00369323
0.003560153
0.003527099
0.003169404
0.002687661
0.002151884
0.001561321
0.0009370896
0.0003685819
6.417242e-05
3.729664e-05
0.0004105521
0.0007338352
0.001008984
0.001328898
0.001677312
0.002039027
0.002402114
0.002757529
0.003098774
0.003421752
0.003725506
0.004013423
0.004285059
0.004537198
0.004768455
0.004978729
0.005171866
0.005350543
0.005516057
0.005669118
0.00581029
0.005939944
0.006059731
0.006170412
0.006272218
0.006365127
0.006447692
0.006522205
0.006585356
0.006637983
0.006679575
0.006710519
0.006730388
0.006738112
0.006733295
0.006715817
0.006685294
0.006641009
0.006582291
0.006508444
0.006418674
0.00631205
0.006187446
0.006043134
0.005876821
0.005686536
0.005470198
0.005228311
0.004951346
0.004632272
0.004267208
0.00385811
0.003404349
0.002899493
0.002336959
0.001718516
0.001061884
0.0004385014
6.432479e-05
3.819555e-05
0.0004248086
0.0008119432
0.001134532
0.001490661
0.001870677
0.002259039
0.002644963
0.003021324
0.003383955
0.003731412
0.004055213
0.004354967
0.004633781
0.004894442
0.005136779
0.005361408
0.005569137
0.005762091
0.005942052
0.006110246
0.006267513
0.006414445
0.006551475
0.00667874
0.006796116
0.006900323
0.006998031
0.007083811
0.007157564
0.007219133
0.007267922
0.00730413
0.007326961
0.007335995
0.007331139
0.00731167
0.007277178
0.007227256
0.00716145
0.00707923
0.006979948
0.006862786
0.006726676
0.006570263
0.006391815
0.006190236
0.005961086
0.005703783
0.00540997
0.00507625
0.004698547
0.004270613
0.003784553
0.003233669
0.002614206
0.0019277
0.001192632
0.0004915809
6.435946e-05
3.926416e-05
0.0004317823
0.0008708267
0.001232794
0.00161117
0.002008659
0.002416843
0.002823731
0.003217848
0.003593938
0.003946938
0.004279891
0.004591159
0.004881287
0.005152247
0.005407091
0.005647426
0.005873143
0.006085005
0.006284259
0.006471966
0.006648837
0.006815229
0.006971189
0.007116512
0.007250799
0.007372597
0.007484193
0.00758294
0.007668159
0.00773931
0.007795941
0.007838354
0.007865551
0.007876873
0.007871813
0.00784987
0.007810599
0.007753566
0.007678308
0.007584299
0.007470922
0.007337436
0.007182952
0.007006284
0.006806535
0.006582001
0.006327691
0.006043615
0.005722614
0.00536029
0.004952297
0.004494124
0.003979054
0.003401297
0.002756376
0.002044349
0.001280427
0.0005405011
6.438507e-05
4.154634e-05
0.0004390248
0.0009128816
0.001307792
0.001705343
0.002118213
0.002534812
0.002945714
0.003345451
0.003728336
0.004091525
0.004434683
0.004757871
0.005061903
0.00534813
0.005618381
0.00587511
0.006119754
0.006352452
0.006573496
0.006783322
0.006982324
0.007170426
0.007347243
0.007512243
0.007661376
0.007801083
0.007926145
0.008037736
0.008134855
0.008216572
0.008282058
0.008330955
0.008362358
0.008375561
0.008369992
0.008345155
0.008300612
0.008235955
0.008150783
0.008044673
0.007917138
0.007767587
0.007595385
0.007400267
0.007181664
0.006934929
0.006657695
0.006350509
0.00601062
0.005633485
0.005211191
0.004735668
0.00419913
0.003594917
0.002917547
0.002167015
0.00136014
0.0005772214
6.441766e-05
4.125528e-05
0.0004487103
0.0009426814
0.001365621
0.001777202
0.002194209
0.002613185
0.003026994
0.003430022
0.003818192
0.004189318
0.004542707
0.004878531
0.00519758
0.005501028
0.005790225
0.00606663
0.006331528
0.006585331
0.006827616
0.007057554
0.007273979
0.007480083
0.007675117
0.007858279
0.008026776
0.008184427
0.008327933
0.008454726
0.008564304
0.008655995
0.00872921
0.008783555
0.008818107
0.008832113
0.008824944
0.008796071
0.008745042
0.008671477
0.008575059
0.008455538
0.008312748
0.008145431
0.007952599
0.007734312
0.007489831
0.007220973
0.006923525
0.006595874
0.006233914
0.005833449
0.005389346
0.004893464
0.00433547
0.00371131
0.003014794
0.002245393
0.001418061
0.0006096085
6.437869e-05
4.131891e-05
0.0004385271
0.0009530681
0.001401651
0.001823722
0.002243635
0.00266302
0.0030776
0.003482805
0.003875318
0.004253277
0.004616059
0.004963918
0.005297593
0.005617956
0.005925645
0.00621903
0.006501069
0.006772528
0.007033908
0.007285516
0.007527863
0.007757327
0.007973679
0.008176349
0.008363459
0.008536394
0.008692792
0.008831453
0.008951347
0.009051557
0.009131373
0.009190171
0.009226891
0.009240725
0.009231004
0.009197169
0.009138745
0.009055319
0.008946526
0.008812038
0.008651551
0.008466039
0.008255966
0.00801995
0.007756764
0.007465298
0.007144873
0.006794733
0.00641284
0.005995607
0.005536068
0.005025232
0.004457321
0.003819244
0.003105056
0.00231456
0.001463888
0.0006324106
6.434801e-05
4.536178e-05
0.0004222406
0.0009509152
0.001426632
0.001861043
0.002283578
0.002701772
0.003114487
0.003519026
0.003913235
0.004295989
0.00466699
0.005026323
0.005373912
0.005709238
0.006030823
0.006342853
0.006643828
0.00693475
0.007215914
0.00748708
0.007747399
0.007995486
0.008230058
0.008450012
0.008653673
0.008840894
0.009009854
0.009159315
0.009288107
0.009395128
0.009479399
0.009540114
0.009576683
0.009588531
0.009575108
0.009535913
0.00947051
0.009378523
0.009259631
0.009113546
0.008939981
0.008738597
0.008509205
0.008251743
0.007965959
0.007650522
0.00730813
0.006826067
0.006451765
0.006103004
0.00563519
0.005117223
0.004537955
0.003889
0.003163414
0.002361392
0.001498215
0.0006517902
6.430261e-05
4.544284e-05
0.0004150415
0.0009461714
0.001431796
0.001873736
0.002297283
0.00271317
0.003123432
0.003527328
0.003923553
0.004310834
0.004687663
0.005051698
0.00532452
0.00547945
0.005676599
0.00594185
0.006297667
0.006677602
0.007063014
0.007405763
0.007777305
0.008173994
0.008454385
0.008688799
0.008905787
0.009104132
0.009282468
0.009439706
0.009574781
0.009686698
0.009774572
0.009837568
0.009874766
0.009885382
0.009868735
0.00982425
0.00975146
0.009650005
0.009519631
0.009360183
0.009171592
0.008953873
0.008707014
0.008431144
0.008056685
0.007503315
0.006994419
0.006599592
0.00628578
0.006025147
0.005699742
0.005180924
0.004598733
0.003943621
0.003210384
0.002397663
0.001522162
0.0006639214
6.423747e-05
4.610213e-05
0.0004032172
0.0009315942
0.001430872
0.001881777
0.002308021
0.002723042
0.003131462
0.003533752
0.003928809
0.004314801
0.004689266
0.004952902
0.005125716
0.005291354
0.00544931
0.005629807
0.005852337
0.006174494
0.006546762
0.006960061
0.007361395
0.007767692
0.008168733
0.008598988
0.009034831
0.009308859
0.009495088
0.009659494
0.009800699
0.009917538
0.0100089
0.01007374
0.0101111
0.01012011
0.01010004
0.01005033
0.009970526
0.00986037
0.009719722
0.009548556
0.009346932
0.00911532
0.008767344
0.008228736
0.007695078
0.007232787
0.00681503
0.006431838
0.006133715
0.005938677
0.005720938
0.005223903
0.004639766
0.003981206
0.003242047
0.002422768
0.001540154
0.0006739325
6.420495e-05
4.693756e-05
0.0003918046
0.0009139891
0.001420452
0.001880461
0.002310844
0.002726006
0.003132443
0.003531913
0.003923963
0.004307071
0.00467887
0.004899115
0.005046534
0.005178949
0.005338912
0.005563163
0.005817203
0.006088908
0.006395704
0.006746063
0.00715382
0.007569198
0.007982688
0.008390678
0.008792165
0.009182683
0.009548223
0.009820588
0.009967493
0.01008907
0.01018387
0.01025061
0.01028827
0.01029593
0.01027285
0.01021847
0.01013243
0.01001458
0.009865036
0.009665336
0.009301923
0.008894094
0.008465513
0.008012722
0.007535614
0.007046972
0.006602657
0.006255099
0.006001638
0.005810208
0.005624743
0.005251835
0.004668742
0.004008419
0.003265417
0.002440705
0.001551649
0.0006794289
6.413831e-05
4.776554e-05
0.0003819972
0.0008954569
0.001407974
0.001873831
0.0023074
0.002722461
0.003126538
0.003522555
0.00391087
0.004290331
0.004658164
0.00483685
0.004973549
0.005128477
0.005321583
0.005527428
0.005752885
0.005993891
0.006290058
0.006635126
0.007001153
0.007394312
0.007797467
0.008198105
0.00858162
0.008933746
0.009248105
0.00952633
0.009783093
0.01003656
0.01030397
0.01037274
0.01039911
0.01036559
0.01030257
0.01020057
0.01005576
0.009866487
0.009633868
0.009357238
0.00903344
0.00866198
0.008247111
0.007801542
0.007347465
0.006907941
0.006499909
0.006138959
0.005864637
0.005699206
0.005574566
0.00527083
0.004687829
0.004025774
0.003280291
0.002452213
0.001559171
0.0006825569
6.410278e-05
4.849548e-05
0.0003738213
0.0008773001
0.001390732
0.00186127
0.002298194
0.002713618
0.003115653
0.003508234
0.003892575
0.004268166
0.004633296
0.004854409
0.005010235
0.005155238
0.005312827
0.005495204
0.00571572
0.005993965
0.00629238
0.006618687
0.006961683
0.007328867
0.007703002
0.008072471
0.008426459
0.008754881
0.00904871
0.009303889
0.009531734
0.009769847
0.01009522
0.01025207
0.01017549
0.01011349
0.01004251
0.009949033
0.009819134
0.009646002
0.009426108
0.009155408
0.008833703
0.008467728
0.00806784
0.00764418
0.007209973
0.006783925
0.006390186
0.006053753
0.005795776
0.0056217
0.005501341
0.00528452
0.004702979
0.004040641
0.003293172
0.002462485
0.001566751
0.0006861563
6.402871e-05
4.911364e-05
0.0003663543
0.0008593533
0.001371814
0.00184641
0.002285669
0.002701265
0.003101441
0.003490827
0.003871348
0.004243086
0.004604826
0.004835374
0.004998169
0.005153438
0.005325563
0.005523426
0.005749821
0.006002018
0.006293228
0.006615788
0.006968569
0.00732655
0.007684531
0.00803322
0.008362832
0.008665144
0.008936177
0.009178568
0.009403464
0.009629908
0.0098797
0.01015672
0.01017346
0.010001
0.009906955
0.009813675
0.009686733
0.009513592
0.009290992
0.009018966
0.008699642
0.008338359
0.007943989
0.007528364
0.00710577
0.006692443
0.00630711
0.005971588
0.005712135
0.005545679
0.00544396
0.005270939
0.004708339
0.004045636
0.003297206
0.002465248
0.001567856
0.0006865074
6.398445e-05
4.960916e-05
0.0003604858
0.0008436324
0.001352848
0.001828716
0.002269685
0.002685723
0.003084565
0.003471285
0.003848469
0.004216871
0.004576032
0.004851758
0.005033559
0.005196607
0.005370195
0.005567733
0.005796155
0.006057624
0.006351153
0.006671907
0.007012348
0.00736147
0.007709157
0.008045323
0.008361176
0.008650008
0.008908769
0.009140467
0.009356733
0.009578021
0.009828556
0.01013088
0.01018486
0.01000907
0.009891232
0.009779184
0.009641707
0.009461453
0.009231325
0.00895088
0.008624247
0.008259061
0.007865323
0.007454467
0.007039256
0.006634429
0.006257753
0.005929466
0.005673716
0.005507118
0.005407164
0.00524556
0.004713176
0.004050863
0.003301948
0.002468938
0.001570375
0.0006879054
6.393367e-05
5.007417e-05
0.0003560406
0.0008290401
0.001333991
0.001810071
0.002252641
0.00266872
0.003066434
0.003451087
0.003825796
0.004192016
0.004550152
0.004889849
0.005092727
0.005270419
0.005455951
0.005662654
0.005896694
0.006159789
0.006451706
0.006770601
0.007107136
0.007448748
0.007786367
0.008110598
0.008413407
0.008689313
0.008936502
0.009158181
0.009364452
0.00957428
0.009816597
0.01013372
0.01022347
0.01005599
0.009915879
0.009779189
0.009622699
0.00942803
0.009185905
0.008895305
0.008561035
0.008191553
0.007797302
0.007389593
0.006980272
0.006582444
0.006212147
0.0058885
0.005636115
0.005473227
0.005379799
0.005229847
0.004714552
0.004052126
0.003302664
0.002469095
0.001570424
0.0006876525
6.386859e-05
5.040686e-05
0.0003531853
0.0008172648
0.001316717
0.001791564
0.002234357
0.002650644
0.00304768
0.003430927
0.003803941
0.004168731
0.004526272
0.004877408
0.005176654
0.005378449
0.005576671
0.005791972
0.006031442
0.006298443
0.006592195
0.006907336
0.007236351
0.007569777
0.007897017
0.00820892
0.00849836
0.008760919
0.008995574
0.009205353
0.009398561
0.009592073
0.009818941
0.01014067
0.01026546
0.01010756
0.009948203
0.009790957
0.009616393
0.009406633
0.00915199
0.008851258
0.008509655
0.008136241
0.007741705
0.00733696
0.006932889
0.006541374
0.006177273
0.005858567
0.005609204
0.005447574
0.0053555
0.005211764
0.004714925
0.004052499
0.003302483
0.002468672
0.00157023
0.0006876632
6.383348e-05
5.084333e-05
0.0003519495
0.0008076321
0.001300882
0.001773548
0.002216055
0.002632468
0.003029052
0.003411467
0.003783516
0.004147658
0.004505382
0.004857629
0.005206082
0.00551194
0.005727166
0.005949936
0.006197719
0.0064691
0.006761461
0.007071461
0.007392928
0.007716727
0.008032816
0.008332073
0.008607448
0.008855188
0.009075556
0.009273198
0.009457339
0.009641288
0.009840066
0.01006255
0.01028454
0.01023102
0.009984534
0.009797759
0.009609257
0.009388025
0.009122539
0.008812592
0.008464451
0.00808775
0.007693225
0.00729132
0.00689202
0.006506092
0.006147408
0.005833285
0.005587488
0.005428761
0.005340029
0.005201985
0.004714486
0.004051877
0.003301504
0.002467463
0.001568966
0.0006868846
6.376253e-05
5.112199e-05
0.0003519689
0.0008005015
0.001287285
0.001756932
0.002198478
0.002614629
0.00301105
0.003393105
0.003764811
0.00412897
0.004487477
0.004841672
0.005192638
0.005541182
0.00588916
0.006147435
0.006391066
0.006659582
0.006951944
0.007260529
0.00757604
0.007889183
0.008192038
0.0084772
0.008737936
0.00897036
0.009174815
0.009356322
0.009524515
0.009692715
0.009874017
0.01007243
0.01028694
0.01026323
0.01002805
0.009824916
0.009615766
0.009377681
0.009099669
0.008780667
0.008426566
0.008046985
0.007652537
0.007253197
0.006858161
0.006477254
0.006123252
0.005813413
0.005570898
0.005414384
0.005327454
0.005192764
0.004713289
0.004050319
0.003299636
0.002465386
0.001567288
0.0006862261
6.374372e-05
5.150198e-05
0.0003527165
0.000795038
0.001275534
0.001741719
0.002181958
0.002597746
0.002994122
0.003376185
0.003748039
0.004112717
0.0044724
0.004828682
0.005182782
0.005535675
0.005888186
0.006240622
0.006592362
0.006895824
0.007172307
0.007462942
0.007765331
0.008071239
0.008366323
0.008641316
0.008888158
0.009104067
0.009291038
0.009454546
0.009603271
0.00974843
0.009903235
0.01008351
0.01030044
0.0102931
0.01006307
0.009848612
0.009623575
0.009370538
0.009080485
0.008752729
0.008393091
0.008011036
0.007616875
0.007220035
0.006828965
0.006452657
0.006102969
0.005797278
0.005558333
0.00540479
0.005320535
0.005188727
0.004712381
0.004048883
0.003297709
0.002463277
0.001565485
0.000685137
6.368271e-05
5.19038e-05
0.0003550215
0.0007921684
0.001266289
0.001728709
0.002167042
0.002582203
0.002978606
0.003360988
0.003733419
0.004099067
0.004460298
0.004818864
0.005176062
0.005532819
0.005889713
0.006246909
0.006604132
0.006960792
0.007315446
0.007665722
0.007984978
0.008266623
0.008539447
0.008800456
0.009037367
0.009241875
0.009413368
0.009558509
0.00968759
0.009812153
0.009944761
0.0100996
0.01029681
0.01030278
0.01009223
0.00987194
0.009632655
0.009365607
0.009064347
0.008728537
0.008363902
0.007979726
0.00758597
0.007191495
0.006804039
0.00643191
0.006086393
0.005784582
0.005549034
0.005398261
0.005316108
0.005185936
0.004711341
0.004047187
0.00329534
0.002460688
0.001563407
0.000684275
6.367968e-05
5.210171e-05
0.0003578447
0.0007896564
0.001258144
0.001716858
0.002153697
0.002568498
0.002964982
0.003347947
0.003721366
0.004088463
0.004451713
0.004812964
0.005173543
0.005534321
0.00589573
0.006257752
0.006619886
0.006981107
0.007339803
0.007693804
0.008040534
0.008377125
0.008700394
0.008979181
0.00919598
0.009380953
0.009536827
0.00966568
0.009775677
0.009878322
0.009986004
0.01011544
0.01029388
0.01031082
0.01011421
0.009888958
0.009639783
0.009361826
0.009050883
0.008707755
0.00833857
0.007952562
0.00755932
0.00716711
0.006783004
0.006414717
0.006073084
0.00577501
0.005542948
0.005395292
0.005315635
0.005186711
0.004710994
0.004045989
0.003293448
0.00245849
0.001561441
0.0006830895
6.363177e-05
5.341228e-05
0.0003579237
0.0007839985
0.001252324
0.001707413
0.002142397
0.002556644
0.002953564
0.003337494
0.003712393
0.00408152
0.004447414
0.004811971
0.005176514
0.005541844
0.005908251
0.006275525
0.006642932
0.007009202
0.007372536
0.007730652
0.008080859
0.008420155
0.008745277
0.00905291
0.009339685
0.009541648
0.009679137
0.009786878
0.009877541
0.009962026
0.01005026
0.01014626
0.01024216
0.01030857
0.01017843
0.009905394
0.009642113
0.009357657
0.009040389
0.008691279
0.008317868
0.00793003
0.007537178
0.007146994
0.006765889
0.006401045
0.00606294
0.005768343
0.005539622
0.005394962
0.005317459
0.005188961
0.004711284
0.004045042
0.003291496
0.002456138
0.001559434
0.0006821495
6.364058e-05
5.530728e-05
0.0003618619
0.0007698483
0.001249219
0.001700121
0.002133139
0.002546954
0.002944567
0.003329968
0.003707
0.00407891
0.004448262
0.004816956
0.005186274
0.005556912
0.005929001
0.006302123
0.006675308
0.007047046
0.007415324
0.007777678
0.008131278
0.008473016
0.008799615
0.009107752
0.009394155
0.009656312
0.009840841
0.009935562
0.0100014
0.01006049
0.01012353
0.01019295
0.01025869
0.01030588
0.01018822
0.009926408
0.009656525
0.009361701
0.009035315
0.00867946
0.008301856
0.00791226
0.007519685
0.00713122
0.006752686
0.006390828
0.00605587
0.005764502
0.00553906
0.005397568
0.005322489
0.005194057
0.004711589
0.004044576
0.003290192
0.002454414
0.001557802
0.0006811807
6.36103e-05
5.62095e-05
0.0003665916
0.000757806
0.00124839
0.001695032
0.002126323
0.002539939
0.002938587
0.003326
0.003705886
0.004081436
0.004455182
0.004828971
0.005203991
0.005580792
0.005959304
0.006338876
0.006718285
0.007095768
0.007469085
0.007835588
0.008192311
0.008536079
0.008863447
0.00917131
0.009456695
0.009716184
0.009947173
0.01009886
0.01015365
0.01018446
0.01021534
0.01025148
0.01028934
0.01031986
0.01020392
0.009947227
0.00967232
0.009369319
0.009034762
0.008672328
0.008290443
0.007898942
0.007506482
0.007119554
0.006743346
0.006384145
0.006051975
0.005763492
0.005541043
0.005402463
0.005329464
0.0052006
0.004713215
0.004044673
0.003289506
0.002452782
0.001556132
0.0006802566
6.362724e-05
5.646634e-05
0.0003710834
0.0007467543
0.001232951
0.001692076
0.002121257
0.002535213
0.002935595
0.003325856
0.003709552
0.004089787
0.004469009
0.004848963
0.005230684
0.005614522
0.006000169
0.006386707
0.006772639
0.007155943
0.007534148
0.00790442
0.008263673
0.008608464
0.008935947
0.009242669
0.009525947
0.00978221
0.01000927
0.01020491
0.01030838
0.01032655
0.0103284
0.0103327
0.01033958
0.01034082
0.01021715
0.009967764
0.009690949
0.009381111
0.009038742
0.008669886
0.00828392
0.007890642
0.007498114
0.007112105
0.006737336
0.006380025
0.0060502
0.005764435
0.005545078
0.005409703
0.005339078
0.005209614
0.004715836
0.004045816
0.003289248
0.002452032
0.001555089
0.0006795149
6.360754e-05
5.684689e-05
0.0003755385
0.0007374608
0.001215807
0.001691988
0.002119488
0.002533856
0.002936452
0.00333033
0.003718807
0.004104812
0.004490635
0.004877835
0.00526723
0.005658912
0.00605229
0.006446155
0.006838724
0.007227725
0.007610486
0.007983987
0.008344786
0.008690236
0.009016834
0.00932154
0.0096013
0.009853481
0.01007575
0.01026614
0.01042305
0.01046993
0.01045513
0.01043056
0.01040538
0.01037359
0.01023773
0.009992338
0.009712868
0.009396793
0.009047314
0.008672239
0.008281765
0.007885828
0.00749272
0.007107994
0.006735464
0.006380572
0.00605296
0.005769245
0.005552205
0.005419222
0.005350479
0.005220001
0.004719301
0.004047596
0.003289636
0.00245143
0.001554007
0.0006787911
6.362776e-05
5.725834e-05
0.0003799141
0.0007292537
0.001200058
0.001693259
0.002119899
0.002535615
0.002941261
0.00333977
0.003734162
0.00412713
0.004520726
0.004916254
0.005314247
0.00571449
0.006116075
0.006517478
0.00691663
0.007310972
0.007697327
0.008073073
0.008435247
0.008780265
0.009105007
0.009406698
0.009682258
0.009929429
0.01014611
0.01033055
0.01048139
0.01059761
0.01058763
0.01054076
0.010485
0.01041827
0.01026651
0.01002234
0.009739375
0.009417028
0.009060713
0.008680181
0.008287139
0.007891074
0.007499014
0.00711367
0.006739601
0.006383995
0.006057659
0.005776278
0.005562426
0.005433559
0.005366727
0.005234339
0.004723816
0.004050323
0.00329089
0.002451582
0.001553641
0.0006784354
6.362256e-05
5.772437e-05
0.0003845705
0.0007228157
0.001185269
0.001697387
0.002123747
0.002541256
0.002950794
0.003354941
0.00375638
0.004157475
0.004559965
0.004964827
0.00537225
0.005781665
0.006191835
0.006600723
0.00700569
0.007404462
0.007794444
0.00817208
0.008534239
0.00887777
0.009199672
0.009497346
0.009767898
0.01000933
0.01021977
0.01039774
0.01054208
0.01065199
0.01070883
0.01065889
0.01057604
0.01047304
0.01030192
0.01005538
0.009767878
0.009440311
0.009079331
0.008694809
0.008296969
0.007895225
0.007497723
0.007113052
0.006743775
0.00639291
0.006068526
0.00578844
0.005575021
0.00544555
0.005379422
0.005246235
0.004728902
0.004053579
0.003292598
0.002452202
0.001553337
0.0006779466
6.364853e-05
5.816988e-05
0.0003889468
0.0007173347
0.001172886
0.001702039
0.002129409
0.002550211
0.002965411
0.003376246
0.003785823
0.00419633
0.004608987
0.005024276
0.005441819
0.005860412
0.00627807
0.006693676
0.007104822
0.007508205
0.007900682
0.008279125
0.008640428
0.008981587
0.009299845
0.009592534
0.009857411
0.01009253
0.0102963
0.01046746
0.01060507
0.01070853
0.01077751
0.01076456
0.01067048
0.01053653
0.01034536
0.01009411
0.009799292
0.009462701
0.009092482
0.008700523
0.008298507
0.007897522
0.007503775
0.007120432
0.006750997
0.00640051
0.006077205
0.005797441
0.005584438
0.005455935
0.005392187
0.005258691
0.004734867
0.004057605
0.003294877
0.002453001
0.001553496
0.0006777982
6.3667e-05
5.874059e-05
0.000393838
0.0007140157
0.001163542
0.00170952
0.002139022
0.002564003
0.002985083
0.003404835
0.003824759
0.004245585
0.004668271
0.0050933
0.005520424
0.00594833
0.006375354
0.006798303
0.007214562
0.007621191
0.008015132
0.00839332
0.008752761
0.009090624
0.009404349
0.009691512
0.009950133
0.01017852
0.01037531
0.01053946
0.01067027
0.01076728
0.0108303
0.01085936
0.01076539
0.01060683
0.0103948
0.01013332
0.009828065
0.009485054
0.009111049
0.008716254
0.008312906
0.00791049
0.007515691
0.007130625
0.006759647
0.006407613
0.006084832
0.005808363
0.005600021
0.005475255
0.005409916
0.005271578
0.004741725
0.004062418
0.003297897
0.002454555
0.001553926
0.0006777269
6.368286e-05
5.897118e-05
0.0003980189
0.0007109716
0.00115221
0.001717637
0.00215008
0.0025804
0.003009046
0.003437483
0.003867022
0.004299208
0.004734378
0.005171817
0.00561015
0.00604776
0.00648244
0.0069115
0.00733207
0.007741167
0.008135767
0.008512898
0.008869712
0.009203599
0.009512175
0.009793353
0.01004537
0.01026677
0.01045644
0.01061356
0.01073758
0.01082823
0.01088542
0.01090926
0.01085071
0.01068542
0.01045231
0.01017743
0.009864735
0.009516184
0.009137469
0.008738698
0.008331124
0.007925534
0.007528551
0.007143936
0.006773729
0.006422301
0.006099295
0.005821783
0.005612941
0.00549039
0.005429427
0.005291136
0.004749353
0.004067853
0.003301425
0.002456485
0.001554688
0.0006779206
6.369924e-05
6.02345e-05
0.0004026836
0.0007104359
0.001146908
0.001723324
0.002166024
0.002603282
0.003041004
0.003480146
0.003921655
0.004366043
0.004813052
0.005261658
0.005710218
0.006156613
0.006598363
0.007032704
0.007456708
0.007867386
0.008261779
0.00863704
0.008990481
0.009319768
0.009622733
0.009897552
0.01014271
0.01035701
0.01053954
0.01068968
0.01080706
0.01089151
0.01094307
0.0109619
0.01094179
0.01077308
0.01052142
0.01023306
0.009909555
0.009552139
0.009167041
0.008763766
0.00835362
0.0079462
0.007547756
0.007161506
0.006789805
0.006437256
0.006113844
0.005836871
0.005629244
0.005507324
0.005445852
0.005305762
0.004757377
0.004073678
0.003305298
0.002458761
0.001555814
0.0006781638
6.372576e-05
5.949618e-05
0.0004099859
0.000710685
0.001141418
0.001717841
0.002184241
0.002628993
0.003076647
0.003527435
0.003981574
0.004438811
0.00489825
0.005358375
0.005817144
0.006272128
0.006720637
0.007159802
0.007586667
0.007998282
0.008391804
0.00876457
0.009114131
0.00943837
0.009735397
0.01000364
0.01024185
0.01044903
0.01062451
0.01076782
0.01087873
0.01095719
0.0110033
0.01101727
0.01099941
0.0108532
0.01059055
0.01028879
0.009955078
0.009590668
0.009200072
0.008792392
0.008378629
0.007968376
0.007567874
0.007180192
0.006807499
0.006454121
0.00613002
0.005852721
0.005645535
0.005525013
0.005464879
0.005322766
0.00476631
0.004080285
0.003309765
0.002461311
0.001556827
0.0006785339
6.374975e-05
5.876694e-05
0.0004142108
0.0007111868
0.001135304
0.001712324
0.002205598
0.002659104
0.003117824
0.003581217
0.004048693
0.004519242
0.004991332
0.005462942
0.00593166
0.006394794
0.006849481
0.007292773
0.00772173
0.008133515
0.008525465
0.008894965
0.009240159
0.009558972
0.009849804
0.01011135
0.01034257
0.01054273
0.01071128
0.01084794
0.01095259
0.01102526
0.01106612
0.01107539
0.0110534
0.01092008
0.01065138
0.01034133
0.009999739
0.00962873
0.009232905
0.008821219
0.008404465
0.007991962
0.007589643
0.007200331
0.006826209
0.006471592
0.006146597
0.005868961
0.005662132
0.005542553
0.005483272
0.005339795
0.00477564
0.004087288
0.003314632
0.002464296
0.001558311
0.000678876
6.378074e-05
6.048059e-05
0.0004159635
0.0007130217
0.001130775
0.001707351
0.002230546
0.002693995
0.003164813
0.003641629
0.004123006
0.004607165
0.00509194
0.005574821
0.006053041
0.00652368
0.006983763
0.007430337
0.007860559
0.008271752
0.008661459
0.009027323
0.009367721
0.009680859
0.009965386
0.01022023
0.01044457
0.01063783
0.01079967
0.01092991
0.01102853
0.01109565
0.01113146
0.01113623
0.01111025
0.01098647
0.01071348
0.01039677
0.01004829
0.009671158
0.009270144
0.008854151
0.008433891
0.008018557
0.007613913
0.007222603
0.006846728
0.006490563
0.006164323
0.005885962
0.005679158
0.005560359
0.005501887
0.005357004
0.00478547
0.004094759
0.003319932
0.002467615
0.001559858
0.0006793988
6.380807e-05
6.153485e-05
0.0004204337
0.0007158765
0.001127935
0.001704526
0.00225874
0.002733198
0.003217007
0.003707909
0.00420359
0.004701496
0.005198834
0.005692629
0.006179805
0.006657278
0.007122034
0.007571181
0.008002008
0.008412033
0.008799023
0.009160925
0.009496286
0.009803618
0.01008181
0.01033
0.01054759
0.01073416
0.01088951
0.01101357
0.01110642
0.01116823
0.01119922
0.01119966
0.01116984
0.01105046
0.01077388
0.01045259
0.01009883
0.00971627
0.009310179
0.008889744
0.008465768
0.008047368