/*--------------------------------*- C++ -*----------------------------------*\
| =========                 |                                                 |
| \\      /  F ield         | OpenFOAM: The Open Source CFD Toolbox           |
|  \\    /   O peration     | Version:  2312                                  |
|   \\  /    A nd           | Website:  www.openfoam.com                      |
|    \\/     M anipulation  |                                                 |
\*---------------------------------------------------------------------------*/
FoamFile
{
    version     2.0;
    format      ascii;
    arch        "LSB;label=32;scalar=64";
    class       volScalarField;
    location    "4200";
    object      omega;
}
// * * * * * * * * * * * * * * * * * * * * * * * * * * * * * * * * * * * * * //

dimensions      [0 0 -1 0 0 0 0];

internalField   nonuniform List<scalar> 
12000
(
50.56739
19.01936
20.75479
22.37694
23.58132
24.60444
25.49873
26.32271
27.03089
27.62898
28.16487
28.67061
29.13575
29.52952
29.87801
30.19902
30.49559
30.75452
30.98429
31.19307
31.36901
31.50581
31.62418
31.73593
31.82437
31.8724
31.90265
31.92733
31.93358
31.9324
31.88824
31.84113
31.77413
31.68108
31.62843
31.54326
31.36083
31.04981
30.66618
30.4806
30.42467
30.29894
29.73947
28.96256
28.62373
28.51555
28.47165
27.56862
26.36911
25.84212
25.78487
25.25057
23.65975
22.87234
22.06414
21.05233
19.65842
18.45359
17.2072
39.84493
88.22543
21.91968
21.15256
22.19382
22.41074
22.392
21.85389
21.4872
21.0222
20.37673
19.78471
19.19607
18.55104
17.8792
17.36761
16.9015
16.38954
15.90294
15.50851
15.0758
14.57578
14.23088
14.0613
13.7898
13.36194
13.07331
13.0163
12.91568
12.67846
12.46705
12.37477
12.34148
12.33532
12.33246
12.31692
12.30978
12.39666
12.61474
12.88448
13.00874
13.02269
13.08807
13.5737
14.28503
14.76567
14.75934
14.84091
15.88227
17.22247
18.10515
18.13642
19.21356
21.46734
23.23278
24.87969
27.19702
32.00266
39.40052
52.58498
74.86116
91.97064
22.43881
20.31586
19.94308
19.28188
18.41425
17.44568
16.49045
15.59669
14.70959
13.88751
13.15027
12.5049
11.99087
11.5361
11.12567
10.75714
10.4403
10.16457
9.919361
9.713435
9.550758
9.409854
9.276337
9.167062
9.095747
9.045375
8.997324
8.959328
8.948265
8.947993
8.962317
8.991402
9.0363
9.086676
9.15551
9.246046
9.349775
9.451663
9.549522
9.664531
9.814318
9.99732
10.18447
10.36565
10.57569
10.83534
11.11929
11.45304
11.85538
12.36398
12.9865
13.72621
14.78337
16.14398
18.18208
21.79781
28.76694
46.24516
82.88984
94.3138
21.59731
18.40957
17.69037
16.69287
15.58209
14.49836
13.50363
12.61718
11.84674
11.1323
10.508
9.968909
9.519755
9.145486
8.817995
8.53949
8.301146
8.096263
7.924104
7.78203
7.664834
7.567446
7.48818
7.427484
7.3839
7.354124
7.336438
7.332846
7.338919
7.353063
7.380937
7.425788
7.480445
7.546186
7.62488
7.717412
7.823409
7.942972
8.077025
8.227473
8.397043
8.588507
8.804509
9.050967
9.326932
9.638976
9.998337
10.41835
10.9032
11.47695
12.15499
12.90444
13.80738
15.03866
16.96571
20.09031
26.05732
41.53789
88.63883
96.34748
20.76078
16.94916
16.0049
14.87159
13.70905
12.62261
11.64952
10.80516
10.08897
9.48321
8.978786
8.545721
8.146448
7.802333
7.515424
7.273469
7.068739
6.894449
6.748588
6.62829
6.529003
6.447936
6.383604
6.334787
6.300252
6.278812
6.272334
6.27319
6.283389
6.304454
6.34035
6.387387
6.445509
6.514456
6.595469
6.689024
6.795102
6.914053
7.046552
7.19361
7.356825
7.5363
7.732291
7.946658
8.183083
8.446697
8.737037
9.071226
9.459311
9.893049
10.36412
10.96039
11.80022
12.99878
14.74306
17.59712
23.24312
38.5964
92.60255
98.17692
20.49157
15.74585
14.62014
13.47124
12.34644
11.32433
10.4304
9.665368
9.012194
8.453604
7.975561
7.574432
7.234068
6.931118
6.663507
6.436369
6.244469
6.083478
5.948333
5.835448
5.742289
5.66702
5.608186
5.564564
5.535113
5.518965
5.51622
5.523905
5.543807
5.575532
5.619365
5.67551
5.744462
5.824003
5.915627
6.022266
6.142833
6.277625
6.427419
6.59313
6.77585
6.977012
7.197786
7.436348
7.69843
7.986265
8.310907
8.669101
9.052358
9.4898
10.02027
10.67823
11.50577
12.60205
14.19394
16.79874
21.91987
36.12127
95.6297
99.92049
20.42345
14.82581
13.52717
12.40476
11.34645
10.39784
9.572524
8.864426
8.257934
7.73807
7.291643
6.908007
6.580984
6.304225
6.060727
5.844476
5.659463
5.502544
5.370639
5.260913
5.171167
5.099681
5.045062
5.006155
4.982009
4.974008
4.976437
4.99244
5.021447
5.063285
5.116884
5.182556
5.261834
5.354312
5.459593
5.578667
5.712097
5.860289
6.023715
6.202866
6.398251
6.610379
6.839738
7.08723
7.353234
7.644145
7.957841
8.290589
8.658504
9.075664
9.560602
10.14641
10.8946
11.91566
13.42487
15.92069
20.87031
34.66198
97.76259
102.0086
20.57786
14.16122
12.66802
11.57759
10.59181
9.714585
8.950535
8.291466
7.723637
7.233704
6.810299
6.443364
6.125214
5.85093
5.617552
5.415127
5.23734
5.085134
4.956746
4.85031
4.76404
4.696412
4.646139
4.612142
4.593534
4.590192
4.599796
4.623156
4.659952
4.710002
4.773146
4.849126
4.938408
5.041289
5.158072
5.289198
5.435151
5.596418
5.773501
5.966902
6.177103
6.404568
6.649746
6.912729
7.196899
7.500787
7.820857
8.163612
8.538819
8.95891
9.44313
10.02237
10.75345
11.73649
13.17189
15.52607
20.17545
33.24103
99.33875
104.0737
20.65462
13.6928
12.00807
10.93395
10.00882
9.193038
8.481187
7.86391
7.3291
6.864997
6.461478
6.109999
5.803749
5.537159
5.306442
5.109971
4.941433
4.795464
4.671762
4.569188
4.486522
4.422539
4.376101
4.34619
4.333852
4.334248
4.349241
4.378336
4.421198
4.477636
4.548095
4.632249
4.729752
4.841102
4.966752
5.107176
5.262873
5.43434
5.622066
5.826505
6.048056
6.287182
6.543776
6.819162
7.111301
7.420232
7.746852
8.093785
8.463572
8.865767
9.321546
9.865304
10.5541
11.48818
12.8681
15.15505
19.6956
32.42373
100.4363
87.36219
20.47296
13.35319
11.49245
10.42026
9.549864
8.792389
8.129351
7.550492
7.045436
6.604358
6.218689
5.881231
5.586125
5.328443
5.104182
4.910582
4.745839
4.60631
4.488044
4.390081
4.31137
4.250996
4.20805
4.181675
4.172155
4.176438
4.195342
4.228446
4.275458
4.336213
4.411399
4.500823
4.603878
4.721062
4.852887
4.999891
5.16263
5.341661
5.537506
5.750606
5.981262
6.230417
6.499212
6.786216
7.090348
7.407499
7.739602
8.088423
8.458067
8.857681
9.304619
9.832975
10.50431
11.41114
12.74771
14.95569
19.32664
31.59705
101.2528
89.44903
21.09148
13.2435
11.14661
10.04142
9.200995
8.485812
7.863228
7.318436
6.841141
6.422521
6.054961
5.731984
5.448273
5.199512
4.98237
4.793847
4.632162
4.495384
4.381372
4.287406
4.212413
4.155468
4.115747
4.092387
4.085152
4.092252
4.113815
4.149484
4.199017
4.262292
4.339971
4.432038
4.538065
4.658543
4.794019
4.945093
5.112412
5.296651
5.498491
5.718579
5.957483
6.214673
6.489598
6.782222
7.092028
7.418197
7.758442
8.111929
8.480148
8.870596
9.302962
9.812871
10.45064
11.32405
12.62528
14.79116
19.0924
31.12737
101.7577
107.6869
22.1043
13.265
10.88348
9.729132
8.91067
8.234127
7.649133
7.136673
6.685741
6.287949
5.936564
5.626801
5.354769
5.117122
4.910352
4.731282
4.577165
4.446154
4.336536
4.246918
4.175744
4.121896
4.084494
4.062846
4.056612
4.064793
4.087266
4.123755
4.174115
4.238328
4.316998
4.410278
4.517831
4.640024
4.777359
4.930433
5.099914
5.286514
5.490956
5.713937
5.956069
6.217852
6.499399
6.800315
7.119151
7.454413
7.803386
8.164315
8.534537
8.916633
9.332345
9.8216
10.44474
11.29932
12.57578
14.69903
18.90947
30.67554
102.1486
93.00679
22.56593
13.31085
10.73771
9.517675
8.700687
8.049836
7.49365
7.007646
6.579715
6.202564
5.87102
5.581156
5.328149
5.104965
4.90656
4.73129
4.578141
4.447797
4.339097
4.250773
4.181424
4.129667
4.094094
4.073755
4.068163
4.076755
4.099322
4.135675
4.185689
4.249372
4.327098
4.419158
4.525678
4.6471
4.783978
4.936982
5.106851
5.294387
5.500422
5.725771
5.97113
6.236962
6.523231
6.829287
7.154743
7.500176
7.86183
8.230119
8.599392
8.973867
9.373759
9.842416
10.44446
11.27935
12.53146
14.62824
18.79768
30.42523
102.3549
93.93827
23.24341
13.47115
10.65599
9.363973
8.541408
7.908945
7.379052
6.919532
6.516125
6.160866
5.848876
5.574791
5.331021
5.114095
4.921777
4.752215
4.604611
4.477761
4.371713
4.285348
4.217209
4.166175
4.131206
4.111326
4.105844
4.114132
4.135982
4.171186
4.21973
4.281773
4.357637
4.447799
4.552704
4.672804
4.808678
4.96101
5.130566
5.318166
5.524659
5.75089
5.99765
6.265405
6.555098
6.869365
7.207928
7.564322
7.930507
8.299511
8.666136
9.032843
9.420225
9.873261
10.45902
11.27719
12.5143
14.58947
18.71597
30.20984
102.5664
94.82889
23.92074
13.67349
10.65203
9.270924
8.42695
7.803126
7.293031
6.855499
6.472461
6.134913
5.839529
5.579978
5.350557
5.14556
4.962264
4.799402
4.656825
4.533771
4.429421
4.343033
4.273986
4.221765
4.185497
4.164325
4.157534
4.164408
4.184782
4.21826
4.264949
4.32508
4.398929
4.487176
4.590409
4.709021
4.8437
4.995157
5.164176
5.351571
5.558128
5.784724
6.033537
6.30669
6.604306
6.92555
7.268345
7.628688
7.999034
8.368929
8.731509
9.091169
9.468343
9.905674
10.47356
11.27669
12.49959
14.55916
18.6634
30.08607
102.6516
95.49665
24.54368
13.90373
10.67045
9.212838
8.344566
7.722801
7.226026
6.805582
6.440213
6.120325
5.841867
5.598203
5.380765
5.185597
5.010929
4.855958
4.719689
4.601086
4.499142
4.413629
4.344347
4.290863
4.252743
4.229463
4.220507
4.225253
4.243663
4.275343
4.320167
4.378073
4.449084
4.534353
4.635099
4.751693
4.884811
5.035174
5.203712
5.391525
5.599827
5.829899
6.083031
6.360248
6.661933
6.987261
7.333356
7.694687
8.063438
8.431086
8.79082
9.14416
9.511018
9.93602
10.49184
11.28495
12.49719
14.54528
18.63493
30.03878
102.7174
95.95379
25.12439
14.15001
10.7381
9.196612
8.294775
7.666858
7.177037
6.769133
6.418197
6.112827
5.847937
5.616738
5.411543
5.228001
5.063595
4.916682
4.786055
4.671125
4.571842
4.487861
4.41898
4.364903
4.325436
4.300287
4.289126
4.291525
4.307424
4.336556
4.378798
4.434064
4.502203
4.584353
4.682519
4.797617
4.929942
5.080046
5.248794
5.437313
5.646881
5.878848
6.13448
6.41462
6.719243
7.047004
7.394675
7.756576
8.12443
8.488729
8.842847
9.189926
9.549824
9.964823
10.5081
11.28993
12.49259
14.52897
18.59425
29.93524
102.7145
96.29225
25.68153
14.41054
10.83036
9.202048
8.265805
7.627769
7.140651
6.741807
6.402717
6.109974
5.857291
5.637625
5.443374
5.269821
5.114163
4.97462
4.850046
4.739731
4.643288
4.560712
4.492083
4.437514
4.396917
4.370148
4.357017
4.357308
4.370372
4.396966
4.436551
4.489143
4.554904
4.634309
4.729401
4.842509
4.973981
5.123743
5.292558
5.481605
5.69223
5.925774
6.183382
6.465715
6.772534
7.102176
7.450976
7.812845
8.179364
8.541111
8.891228
9.232235
9.584453
9.991223
10.52652
11.30122
12.49752
14.52742
18.58994
29.92232
102.641
96.50477
26.18583
14.67424
10.94146
9.233132
8.257949
7.60401
7.11465
6.72101
6.39082
6.108343
5.865586
5.655568
5.471001
5.306583
5.159106
5.026465
4.907352
4.801081
4.707426
4.626488
4.558499
4.503688
4.462175
4.433979
4.419042
4.417269
4.427995
4.452202
4.489355
4.539525
4.602917
4.679933
4.772677
4.88384
5.01408
5.163347
5.332273
5.521941
5.733669
5.968778
6.228335
6.512807
6.821645
7.15279
7.502166
7.86332
8.227574
8.58545
8.930383
9.265447
9.611406
10.01192
10.54059
11.30856
12.49938
14.52361
18.57096
29.86729
102.5741
96.67985
26.65501
14.94165
11.06671
9.279151
8.261272
7.589605
7.095087
6.703645
6.379615
6.104859
5.869501
5.667683
5.491465
5.334728
5.194111
5.067401
4.953193
4.850759
4.75988
4.680711
4.613616
4.558953
4.516968
4.487811
4.471542
4.46817
4.477198
4.499554
4.534851
4.583222
4.644907
4.72026
4.811343
4.921038
5.05039
5.199521
5.368987
5.559759
5.773066
6.010144
6.27193
6.558683
6.869554
7.202117
7.551915
7.912194
8.274129
8.628269
8.968199
9.297287
9.636842
10.0312
10.5541
11.31699
12.50396
14.52466
18.56913
29.85375
102.4249
96.80532
27.0736
15.20266
11.19864
9.335623
8.276236
7.582997
7.079924
6.687653
6.367131
6.097906
5.868496
5.671209
5.501237
5.351373
5.216757
5.095155
4.985215
4.886237
4.79805
4.720858
4.655049
4.60104
4.559181
4.529724
4.512831
4.508606
4.516702
4.538027
4.572324
4.619793
4.680705
4.755352
4.845646
4.954598
5.083671
5.23319
5.403647
5.595907
5.811091
6.050318
6.314361
6.603247
6.915817
7.249288
7.598862
7.957529
8.316377
8.666093
9.000649
9.323988
9.658043
10.0476
10.56626
11.32551
12.51012
14.5285
18.56695
29.8317
102.3272
97.0717
27.47453
15.46373
11.33688
9.399638
8.297428
7.580546
7.066682
6.671099
6.351745
6.085986
5.860783
5.667868
5.500308
5.353448
5.223731
5.107041
5.001449
4.906041
4.820762
4.745882
4.681832
4.629083
4.588053
4.559075
4.542395
4.538203
4.54625
4.567479
4.601716
4.649228
4.710395
4.785787
4.876396
4.984883
5.114116
5.26474
5.436741
5.630847
5.848119
6.089579
6.355831
6.646664
6.960623
7.2946
7.643507
8.000144
8.355569
8.700638
9.029689
9.347211
9.675771
10.06065
10.57547
11.33176
12.51441
14.53107
18.56601
29.81724
102.1657
97.27758
27.85126
15.71605
11.47611
9.467601
8.322634
7.581132
7.054073
6.652873
6.332445
6.0681
5.845347
5.654947
5.490391
5.346857
5.219478
5.105198
5.001452
4.90891
4.826742
4.754823
4.693384
4.642795
4.6035
4.575925
4.560408
4.557223
4.566181
4.588333
4.623541
4.672114
4.73446
4.811164
4.90305
5.012569
5.14276
5.294631
5.468313
5.664448
5.883946
6.127659
6.396002
6.688527
7.003502
7.337531
7.685282
8.039417
8.391034
8.731222
9.054772
9.366812
9.690567
10.07176
10.58399
11.33882
12.52139
14.53895
18.57497
29.81607
102.0784
97.63839
28.27374
15.97855
11.61888
9.538107
8.34963
7.582261
7.0405
6.631843
6.308452
6.043734
5.821886
5.632828
5.469634
5.327225
5.201657
5.090147
4.991069
4.90188
4.822312
4.752448
4.69268
4.643872
4.6067
4.581288
4.567851
4.566622
4.577427
4.601462
4.638596
4.689179
4.753629
4.832462
4.926349
5.037632
5.169446
5.32303
5.498651
5.696929
5.91866
6.164537
6.434777
6.728699
7.044312
7.377968
7.724135
8.075391
8.422913
8.75805
9.076055
9.382685
9.701804
10.07953
10.58943
11.34291
12.52491
14.54196
18.57593
29.80944
101.9437
98.01075
28.67081
16.22907
11.76123
9.610623
8.378421
7.584021
7.025911
6.608005
6.279896
6.013205
5.790911
5.602156
5.439594
5.298005
5.173571
5.063523
4.965885
4.879228
4.80291
4.736862
4.681336
4.636273
4.601841
4.57869
4.567323
4.568253
4.581772
4.608356
4.648117
4.701406
4.768626
4.850258
4.946881
5.06062
5.194528
5.350085
5.527773
5.728214
5.952097
6.199956
6.47182
6.766788
7.082635
7.415495
7.759686
8.107751
8.450984
8.781041
9.093674
9.395298
9.710404
10.08548
10.59411
11.34766
12.53111
14.5509
18.5881
29.81716
101.8826
97.96148
29.07429
16.50843
11.91183
9.685148
8.40711
7.584205
7.009006
6.580698
6.246596
5.976711
5.752929
5.563689
5.401239
5.260178
5.136651
5.027907
4.932028
4.847744
4.774325
4.711458
4.659103
4.617403
4.586633
4.567215
4.559561
4.563797
4.580532
4.610138
4.65309
4.709641
4.780177
4.865133
4.964979
5.081586
5.217911
5.375669
5.55552
5.758078
5.983947
6.233534
6.506699
6.802341
7.118024
7.449704
7.791588
8.136223
8.475051
8.800046
9.107458
9.404324
9.715692
10.08839
10.59585
11.3494
12.53356
14.55439
18.59226
29.81847
101.7701
111.8533
29.81933
16.79947
12.06508
9.761691
8.436555
7.584223
6.990084
6.550024
6.208737
5.934623
5.708515
5.518182
5.355476
5.214782
5.09216
4.984835
4.890886
4.80904
4.738524
4.678937
4.630131
4.592173
4.565243
4.549618
4.545659
4.55349
4.574025
4.607437
4.654002
4.714232
4.788435
4.877072
4.980813
5.10075
5.239344
5.399264
5.581428
5.786081
6.013746
6.26477
6.538895
6.834853
7.150023
7.480209
7.81955
8.160633
8.495077
8.815187
9.117716
9.41036
9.718342
10.08889
10.5961
11.35111
12.53805
14.5627
18.60575
29.83529
101.7196
112.6818
30.34237
17.07037
12.21086
9.836496
8.464966
7.582544
6.968699
6.515886
6.16647
5.887317
5.658255
5.466402
5.303208
5.162824
5.041183
4.935443
4.843641
4.76446
4.697065
4.640975
4.595973
4.562009
4.539192
4.527713
4.527837
4.539601
4.563983
4.601193
4.651691
4.715763
4.793838
4.88631
4.993799
5.117225
5.258762
5.421055
5.605244
5.811705
6.040917
6.293124
6.567927
6.863896
7.178258
7.506707
7.843347
8.180837
8.510984
8.826416
9.124328
9.412772
9.718529
10.08863
10.59594
11.35109
12.53942
14.56575
18.61061
29.83863
101.6354
112.8473
30.7954
17.33082
12.35256
9.910742
8.492581
7.579141
6.944754
6.478372
6.1201
5.835316
5.602868
5.409233
5.245448
5.105412
4.984897
4.880955
4.791545
4.715278
4.651239
4.598893
4.557925
4.528212
4.509745
4.502645
4.506997
4.523263
4.551698
4.592729
4.646939
4.714841
4.796756
4.893069
5.004293
5.131185
5.275713
5.440437
5.626607
5.83471
6.06523
6.318343
6.593536
6.889241
7.202554
7.529087
7.862946
8.196883
8.522917
8.834008
9.12784
9.413113
9.716749
10.08566
10.59341
11.35064
12.54064
14.57231
18.62455
29.86306
101.6114
112.8352
31.26761
17.6096
12.49475
9.981461
8.518373
7.573823
6.918321
6.437745
6.070072
5.779242
5.543137
5.347592
5.183222
5.043644
4.924447
4.822554
4.735823
4.66278
4.602434
4.554117
4.517419
4.492119
4.478186
4.475667
4.484507
4.505251
4.537989
4.583056
4.640956
4.712373
4.79785
4.897743
5.012489
5.142746
5.290264
5.457379
5.645384
5.854907
6.086474
6.340218
6.615525
6.910707
7.222762
7.547255
7.878323
8.208832
8.530999
8.838104
9.128086
9.41064
9.712336
10.08069
10.58912
11.34808
12.54087
14.57414
18.62904
29.87027
101.5534
113.0422
31.74485
17.89637
12.63321
10.04549
8.539404
7.56492
6.888718
6.393998
6.016851
5.719904
5.480137
5.282763
5.117974
4.979093
4.861498
4.761955
4.678195
4.608626
4.552177
4.508053
4.475784
4.455069
4.445792
4.447883
4.461467
4.486676
4.523717
4.572874
4.634509
4.709248
4.797876
4.900931
5.018829
5.152165
5.302457
5.471786
5.661443
5.872171
6.104539
6.358653
6.633829
6.928288
7.238942
7.561312
7.889572
8.216728
8.535237
8.83852
9.125512
9.405594
9.705988
10.07422
10.58371
11.34482
12.54054
14.57765
18.64082
29.89606
101.5452
113.2397
32.23631
18.19921
12.77663
10.10905
8.558796
7.554047
6.856986
6.348015
5.961341
5.658291
5.414942
5.215885
5.050873
4.912923
4.797188
4.700259
4.619724
4.5539
4.501542
4.461816
4.434111
4.418095
4.413539
4.420267
4.438453
4.468104
4.509392
4.562563
4.627946
4.705956
4.79739
4.903126
5.023706
5.159712
5.312456
5.483737
5.674814
5.886516
6.11945
6.373698
6.648497
6.941985
7.251033
7.571224
7.896826
8.220957
8.536003
8.836281
9.120422
9.398453
9.697882
10.06619
10.57675
11.33979
12.5379
14.57846
18.64431
29.90551
101.5282
113.4813
32.70452
18.49604
12.91269
10.16371
8.571264
7.53822
6.821629
6.299233
5.903569
5.594809
5.348213
5.14779
4.982874
4.846176
4.732617
4.638612
4.561599
4.499714
4.45159
4.416288
4.393179
4.381837
4.381966
4.393313
4.416001
4.44998
4.495377
4.552402
4.621355
4.702628
4.796783
4.904752
5.027491
5.165694
5.320503
5.493437
5.685692
5.898148
6.131423
6.385585
6.659869
6.952426
7.260118
7.578379
7.901222
8.221994
8.534053
8.831434
9.113351
9.390069
9.689046
10.0577
10.56948
11.3346
12.53529
14.57887
18.65288
29.92909
101.5654
113.7456
33.18107
18.81128
13.06069
10.22415
8.585485
7.522206
6.785515
6.249733
5.845322
5.531174
5.281687
5.080255
4.915769
4.780603
4.669449
4.578556
4.505202
4.447332
4.403514
4.372694
4.354172
4.347413
4.352041
4.367892
4.39485
4.432912
4.482164
4.542786
4.615044
4.69931
4.796066
4.9061
5.03053
5.170401
5.326804
5.501015
5.694162
5.907171
6.140675
6.394711
6.668431
6.959858
7.265801
7.581642
7.902129
8.220608
8.530073
8.825003
9.104872
9.380219
9.678676
10.04772
10.56079
11.32792
12.53121
14.57857
18.65495
29.93939
101.5958
114.0621
33.61577
19.10557
13.19484
10.27431
8.592412
7.501579
6.746363
6.198229
5.785903
5.467049
5.215211
5.013208
4.849531
4.716261
4.607847
4.520296
4.450688
4.396906
4.357391
4.331044
4.317026
4.314749
4.323784
4.343909
4.37496
4.416897
4.469774
4.533741
4.609041
4.696023
4.795156
4.907038
5.032806
5.173884
5.331427
5.506563
5.700346
5.913663
6.147094
6.400665
6.67348
6.963523
7.267676
7.581804
7.900197
8.216371
8.523501
8.816145
9.094061
9.368216
9.666597
10.03651
10.55113
11.32038
12.52606
14.57661
18.65905
29.95637
101.618
114.4123
34.06198
19.42038
13.3434
10.33293
8.604495
7.483783
6.709395
6.14888
5.728739
5.405319
5.151331
4.949004
4.786384
4.655224
4.54964
4.46539
4.399415
4.349534
4.314141
4.292039
4.28232
4.284308
4.297532
4.321676
4.356547
4.402068
4.458264
4.525263
4.60329
4.692674
4.793866
4.907451
5.0344
5.176219
5.334414
5.510094
5.704176
5.917467
6.150515
6.403321
6.675103
6.963968
7.266678
7.578853
7.895072
8.209031
8.514146
8.805213
9.082101
9.355731
9.654048
10.02443
10.54032
11.31164
12.51969
14.573
18.65903
29.96144
101.6167
115.081
34.50355
19.70778
13.47766
10.38083
8.608936
7.461251
6.669326
6.097677
5.670845
5.343867
5.088559
4.886537
4.725405
4.596579
4.493952
4.413128
4.350927
4.305048
4.273796
4.255856
4.250277
4.256297
4.273415
4.301273
4.339651
4.388445
4.447645
4.517351
4.597769
4.689224
4.792165
4.907176
5.035017
5.177247
5.335719
5.511562
5.70563
5.918717
6.151345
6.403491
6.674272
6.961744
7.262799
7.573175
7.887545
8.1997
8.503149
8.792805
9.068721
9.342062
9.640841
10.01223
10.52959
11.30276
12.51291
14.5693
18.65925
29.97308
101.6233
105.4339
34.63184
19.97406
13.61653
10.43114
8.61337
7.439816
6.631076
6.048818
5.61568
5.285441
5.029054
4.827513
4.667969
4.541494
4.441792
4.364335
4.305847
4.263884
4.236609
4.222641
4.220957
4.230767
4.251523
4.282813
4.324376
4.376077
4.437909
4.509967
4.59245
4.68567
4.790062
4.906203
5.034824
5.177387
5.335873
5.511638
5.705503
5.91818
6.150151
6.401381
6.671009
6.957118
7.256635
7.565352
7.878023
8.18855
8.490569
8.779122
9.054367
9.327539
9.626678
9.998949
10.51779
11.29299
12.50529
14.5639
18.65825
29.97611
101.6261
105.9062
34.96138
20.26295
13.76376
10.48306
8.618432
7.42024
6.595866
6.00389
5.565089
5.232006
4.974748
4.773731
4.615711
4.491506
4.394644
4.320456
4.265492
4.227174
4.203567
4.19332
4.195177
4.208397
4.232367
4.266667
4.311021
4.365273
4.429393
4.503464
4.587683
4.682349
4.787889
4.90487
5.034023
5.176752
5.335087
5.510535
5.70393
5.915969
6.147115
6.397321
6.665731
6.950451
7.248454
7.555603
7.866741
8.175864
8.476709
8.764412
9.039229
9.312466
9.612145
9.985318
10.50547
11.28251
12.49719
14.55948
18.65874
29.98891
101.6477
115.7121
35.56585
20.55628
13.9122
10.53534
8.62393
7.402353
6.563416
5.962525
5.518598
5.183001
4.925072
4.724706
4.568307
4.446436
4.352388
4.281308
4.229621
4.194664
4.174446
4.167519
4.172594
4.188874
4.215718
4.252683
4.299476
4.355941
4.422027
4.497796
4.583426
4.679214
4.785587
4.903118
5.032542
5.175219
5.333209
5.508131
5.700843
5.912047
6.142202
6.391264
6.658393
6.941721
7.238268
7.543964
7.853731
8.161656
8.461561
8.748663
9.023279
9.296751
9.597067
9.971175
10.49258
11.27111
12.4872
14.55123
18.65508
29.99237
101.664
116.1634
35.92608
20.82025
14.05628
10.58734
8.630333
7.386443
6.533854
5.924765
5.476246
5.138519
4.880177
4.680615
4.52588
4.406273
4.314892
4.246734
4.198112
4.166272
4.149137
4.145178
4.153112
4.172098
4.201486
4.240796
4.289706
4.348034
4.415722
4.492831
4.579537
4.676138
4.783062
4.900886
5.03035
5.172791
5.330287
5.504523
5.696384
5.906595
6.135631
6.383467
6.649281
6.931236
7.226398
7.530761
7.839324
8.146251
8.445435
8.732149
9.006757
9.280614
9.581671
9.956786
10.47954
11.25983
12.47791
14.54439
18.65144
29.99787
101.7039
116.2338
36.20731
21.06608
14.19853
10.64053
8.639032
7.373835
6.50835
5.891634
5.438926
5.099324
4.840696
4.641954
4.488804
4.371301
4.282362
4.216848
4.170968
4.141894
4.127499
4.126159
4.136614
4.157969
4.189531
4.230806
4.281461
4.341302
4.410266
4.488406
4.575897
4.673039
4.780263
4.89815
5.02745
5.169493
5.326364
5.49978
5.690655
5.899747
6.127567
6.374115
6.638594
6.919204
7.213054
7.516199
7.823707
8.12981
8.42846
8.714973
8.989729
9.264078
9.565906
9.941961
10.46586
11.24751
12.46693
14.53503
18.64478
29.99624
101.7312
116.2248
36.47385
21.3043
14.34049
10.69509
8.650307
7.364905
6.487363
5.86359
5.407043
5.06574
4.806862
4.608862
4.457133
4.341502
4.254724
4.191537
4.148056
4.12137
4.109469
4.110364
4.122966
4.146313
4.179691
4.222586
4.274651
4.335683
4.405611
4.484488
4.572489
4.669917
4.777208
4.89495
5.023903
5.165408
5.321551
5.494045
5.683829
5.891709
6.11824
6.363459
6.626601
6.905899
7.19851
7.500543
7.80713
8.112565
8.410848
8.697318
8.972364
9.247316
9.550004
9.927086
10.45223
11.2354
12.45651
14.52681
18.64015
29.99954
101.7591
115.6744
36.72385
21.53137
14.4823
10.75259
8.665729
7.361151
6.471909
5.841329
5.381079
5.038092
4.778878
4.581452
4.43091
4.316873
4.231947
4.170758
4.129343
4.104731
4.094837
4.097649
4.112036
4.137017
4.17186
4.216035
4.269182
4.331092
4.401691
4.481029
4.569285
4.666765
4.773914
4.891327
5.019773
5.160618
5.315939
5.487423
5.676032
5.882626
6.107812
6.351673
6.613479
6.891499
7.182933
7.483945
7.789725
8.09462
8.392666
8.679215
8.954643
9.230244
9.533767
9.911763
10.43795
11.2223
12.44458
14.51631
18.6322
29.99844
101.7651
112.4294
36.88934
21.75043
14.62485
10.81223
8.685176
7.362202
6.462103
5.825095
5.361255
5.016547
4.756856
4.559787
4.410164
4.297414
4.214003
4.154459
4.11474
4.091827
4.083564
4.087939
4.103762
4.13003
4.165996
4.211118
4.26503
4.327518
4.398504
4.478042
4.566314
4.66363
4.770443
4.887358
5.015155
5.155231
5.309652
5.480052
5.667418
5.872668
6.096472
6.338959
6.599439
6.876216
7.166535
7.46661
7.771686
8.076157
8.374083
8.660823
8.936728
9.213046
9.517452
9.896404
10.42368
11.20934
12.43302
14.50653
18.62511
29.99796
101.7794
112.8746
37.12321
21.96847
14.76916
10.87805
8.709168
7.3682
6.458562
5.81529
5.34784
5.00125
4.740832
4.543822
4.394786
4.282976
4.200728
4.142472
4.104094
4.08251
4.075506
4.081071
4.097973
4.125187
4.16195
4.207708
4.262089
4.324876
4.395991
4.475491
4.56356
4.660519
4.766827
4.883099
5.010124
5.149338
5.302784
5.472037
5.658104
5.861968
6.084363
6.32547
6.584637
6.860206
7.149463
7.448673
7.75313
8.057267
8.355164
8.64217
8.918602
9.195652
9.500905
9.880724
10.40894
11.19566
12.42039
14.49512
18.61548
29.99126
101.792
113.9369
37.37422
22.18144
14.91565
10.95179
8.737696
7.377574
6.459629
5.811508
5.340445
4.991859
4.730536
4.533343
4.384605
4.273409
4.191977
4.134654
4.097252
4.076637
4.070539
4.076948
4.09459
4.122422
4.159665
4.205758
4.260324
4.323144
4.394142
4.47338
4.561047
4.657472
4.763121
4.87862
5.004768
5.143041
5.295455
5.463506
5.648232
5.85068
6.071653
6.311383
6.569257
6.843653
7.131898
7.430307
7.734219
8.0381
8.336044
8.62338
8.900387
9.178194
9.484306
9.864999
10.39417
11.18202
12.40799
14.48432
18.60715
29.98716
101.8184
114.7212
37.60574
22.38588
15.06417
11.03283
8.77216
7.392332
6.46678
5.81347
5.340161
4.989478
4.726739
4.528811
4.379872
4.268849
4.187829
4.131054
4.094266
4.074272
4.068742
4.075647
4.093682
4.121786
4.159174
4.20528
4.259728
4.322307
4.392948
4.47171
4.558789
4.654517
4.759371
4.873984
4.999172
5.136448
5.28778
5.45458
5.637922
5.838934
6.058482
6.296845
6.553446
6.826698
7.113973
7.411628
7.71505
8.018731
8.316768
8.604468
8.882061
9.16061
9.467535
9.849027
10.37904
11.16784
12.3948
14.47238
18.5974
29.98326
101.84
115.3762
37.81787
22.58279
15.21532
11.12057
8.812632
7.412689
6.47943
5.82096
5.343452
4.991037
4.727481
4.529213
4.380136
4.269063
4.188052
4.131326
4.094624
4.07477
4.069388
4.076414
4.09452
4.122626
4.159933
4.205865
4.260036
4.322224
4.392326
4.470441
4.556776
4.65167
4.75561
4.869234
4.993395
5.129649
5.279872
5.445378
5.627306
5.826868
6.044995
6.282007
6.537355
6.80949
7.095826
7.392769
7.695743
7.999265
8.297429
8.585514
8.863697
9.142979
9.450703
9.832986
10.36384
11.15364
12.38174
14.46094
18.58893
29.98182
101.8684
115.9404
38.01457
22.77304
15.36891
11.2155
8.860234
7.439489
6.498225
5.834674
5.353946
4.999005
4.733644
4.534033
4.384105
4.272611
4.191473
4.134795
4.098196
4.07836
4.072922
4.079818
4.097709
4.125509
4.162411
4.207839
4.261408
4.322899
4.392274
4.469568
4.555008
4.648941
4.751856
4.864399
4.987536
5.122824
5.271875
5.435971
5.616448
5.814577
6.031312
6.266992
6.521105
6.79214
7.077558
7.373812
7.676362
7.979744
8.278044
8.566506
8.845254
9.125221
9.433677
9.816667
10.34825
11.13886
12.36779
14.44807
18.57798
29.97624
101.8897
116.5799
38.20154
22.95766
15.52516
11.3162
8.913418
7.472762
6.523722
5.854694
5.370153
5.012463
4.745139
4.544176
4.393273
4.281038
4.199314
4.142143
4.105101
4.084866
4.079021
4.085459
4.102828
4.130034
4.166267
4.210952
4.26371
4.324331
4.392755
4.469082
4.553508
4.646389
4.748221
4.859657
4.981698
5.11587
5.263697
5.426454
5.605527
5.80224
6.017584
6.251936
6.504817
6.774761
7.059274
7.354854
7.656992
7.960241
8.258673
8.547495
8.826775
9.107383
9.416524
9.800213
10.33254
11.12397
12.35385
14.43544
18.56753
29.97377
101.9096
117.3214
38.38273
23.13728
15.68319
11.4242
8.977289
7.511889
6.55298
5.879493
5.39141
5.030954
4.761493
4.558881
4.406683
4.293398
4.210787
4.152829
4.115054
4.094103
4.087538
4.093207
4.109756
4.136086
4.171391
4.2151
4.266842
4.326416
4.393771
4.468995
4.552302
4.644056
4.744753
4.855045
4.975947
5.10896
5.255544
5.416967
5.594653
5.789966
6.003931
6.236958
6.488608
6.75746
7.041068
7.335972
7.637695
7.940797
8.239337
8.528482
8.808242
9.089422
9.39917
9.7835
10.3165
11.10857
12.33917
14.42179
18.55586
29.968
101.9274
118.1581
38.55889
23.31199
15.84277
11.5392
9.049817
7.557338
6.587156
5.909065
5.417411
5.054096
4.782322
4.577821
4.424055
4.309436
4.225652
4.166627
4.127837
4.105883
4.098309
4.102914
4.118352
4.143532
4.177656
4.220168
4.270708
4.329081
4.395239
4.46927
4.551407
4.641994
4.741536
4.850669
4.970399
5.102217
5.247544
5.407649
5.583971
5.777896
5.990484
6.222179
6.472588
6.740337
7.023028
7.317242
7.618531
7.921462
8.220077
8.509502
8.789692
9.071393
9.381711
9.76665
10.30028
11.09299
12.32432
14.40799
18.54418
29.96007
101.937
119.1069
38.73162
23.48174
16.00313
11.66058
9.130461
7.609559
6.626851
5.943523
5.447955
5.08155
4.807253
4.600646
4.445083
4.328894
4.243701
4.183357
4.143285
4.120041
4.111168
4.11442
4.128478
4.152261
4.184988
4.22612
4.275309
4.332365
4.397243
4.470029
4.55094
4.640334
4.738704
4.846652
4.965188
5.095792
5.239856
5.398643
5.5736
5.766134
5.977331
6.207676
6.45682
6.72344
7.005187
7.298683
7.599505
7.902226
8.200868
8.490517
8.771072
9.053227
9.364049
9.749535
10.28374
11.07701
12.30894
14.39336
18.53106
29.95042
101.9402
120.0811
38.89894
23.64595
16.16399
11.7877
9.217892
7.667671
6.672092
5.983174
5.483238
5.113361
4.836229
4.62725
4.469651
4.35166
4.264806
4.202879
4.161269
4.136476
4.126033
4.12767
4.14011
4.162282
4.193421
4.233008
4.280718
4.336365
4.399891
4.471376
4.55104
4.639232
4.7364