/*--------------------------------*- C++ -*----------------------------------*\
| =========                 |                                                 |
| \\      /  F ield         | OpenFOAM: The Open Source CFD Toolbox           |
|  \\    /   O peration     | Version:  2312                                  |
|   \\  /    A nd           | Website:  www.openfoam.com                      |
|    \\/     M anipulation  |                                                 |
\*---------------------------------------------------------------------------*/
FoamFile
{
    version     2.0;
    format      ascii;
    arch        "LSB;label=32;scalar=64";
    class       surfaceScalarField;
    location    "4200";
    object      phi;
}
// * * * * * * * * * * * * * * * * * * * * * * * * * * * * * * * * * * * * * //

dimensions      [1 0 -1 0 0 0 0];

oriented        oriented;

internalField   nonuniform List<scalar> 
23740
(
-0.0001169034
0.0001172656
-0.0002340816
0.0001171783
-0.0003641215
0.0001300398
-0.0005001236
0.000136002
-0.0006234894
0.0001233656
-0.0007328879
0.0001093981
-0.0008457134
0.0001128249
-0.0009711174
0.0001254034
-0.001088276
0.0001171577
-0.001177424
8.914788e-05
-0.001256186
7.876071e-05
-0.00134836
9.217358e-05
-0.001441557
9.319529e-05
-0.001514777
7.321916e-05
-0.001574307
5.95293e-05
-0.001636068
6.176023e-05
-0.001696578
6.050929e-05
-0.001747336
5.075664e-05
-0.001796199
4.88625e-05
-0.001848875
5.267498e-05
-0.001891597
4.272156e-05
-0.001917591
2.599393e-05
-0.001944558
2.696581e-05
-0.001982282
3.772345e-05
-0.002013667
3.138495e-05
-0.002027471
1.380342e-05
-0.002037872
1.040049e-05
-0.002056108
1.82359e-05
-0.002074249
1.814095e-05
-0.002084423
1.017439e-05
-0.00208856
4.13693e-06
-0.002089312
7.532241e-07
-0.002087451
-1.86089e-06
-0.002087701
2.502109e-07
-0.002087534
-1.659686e-07
-0.002077458
-1.007438e-05
-0.002051586
-2.587128e-05
-0.002016295
-3.52908e-05
-0.001995926
-2.036839e-05
-0.001991481
-4.44442e-06
-0.001981553
-9.926732e-06
-0.001938537
-4.301598e-05
-0.001864269
-7.426783e-05
-0.001812586
-5.16825e-05
-0.001802027
-1.056002e-05
-0.001789417
-1.261141e-05
-0.001714951
-7.446691e-05
-0.001600607
-0.0001143448
-0.001523958
-7.665081e-05
-0.001494256
-2.970461e-05
-0.001425845
-6.8412e-05
-0.001289581
-0.0001362667
-0.001166341
-0.0001232414
-0.00107292
-9.342329e-05
-0.0009553577
-0.0001175635
-0.0007927797
-0.0001625795
-0.0006184716
-0.0001743096
-0.0004267926
-0.0001916813
-0.0002135606
-0.0002132364
-0.0002135614
-0.0001312033
0.0002484694
-0.000254351
0.0002403265
-0.0003654941
0.0002411831
-0.000472098
0.0002426059
-0.0005838911
0.0002351584
-0.0006962974
0.000221804
-0.0007934283
0.0002099553
-0.0008710305
0.0002030049
-0.000946948
0.0001930744
-0.001033207
0.0001754063
-0.001114449
0.0001600011
-0.001174851
0.0001525743
-0.001225678
0.0001440217
-0.001284276
0.0001318157
-0.00134485
0.0001201023
-0.001394287
0.000111196
-0.001436556
0.000102777
-0.001479756
9.395516e-05
-0.001517167
8.627294e-05
-0.001543804
7.931041e-05
-0.001572112
7.102897e-05
-0.001608489
6.237023e-05
-0.001637488
5.596395e-05
-0.001650644
5.087831e-05
-0.00166357
4.431088e-05
-0.00168632
3.655268e-05
-0.001706243
3.032344e-05
-0.001713691
2.568372e-05
-0.001716377
2.082711e-05
-0.001721118
1.491554e-05
-0.001725494
8.512774e-06
-0.001727903
3.162971e-06
-0.001727092
-2.671003e-06
-0.001718488
-8.352616e-06
-0.001704078
-1.457545e-05
-0.001691995
-2.215685e-05
-0.001688346
-2.951971e-05
-0.001688158
-3.547692e-05
-0.001667992
-4.053345e-05
-0.001625904
-4.653139e-05
-0.001581346
-5.448449e-05
-0.001559723
-6.463869e-05
-0.001560998
-7.299323e-05
-0.001532847
-7.983379e-05
-0.001455412
-8.799598e-05
-0.00137076
-9.726522e-05
-0.001335738
-0.0001094908
-0.001328059
-0.000122026
-0.001271427
-0.0001332858
-0.001156537
-0.0001445974
-0.001065498
-0.0001594536
-0.001027841
-0.0001739261
-0.0009642725
-0.0001868121
-0.0008554833
-0.0002022149
-0.0007401272
-0.0002329217
-0.0006344144
-0.0002682944
-0.0005148726
-0.0002938539
-0.0003637359
-0.0003428206
-0.0001927549
-0.0003842211
-0.0004063168
-0.0001055741
0.0003540438
-0.0002077126
0.0003424652
-0.0003024276
0.0003358983
-0.0003882238
0.000328402
-0.000470106
0.0003170403
-0.0005506925
0.0003023902
-0.0006286061
0.0002878683
-0.0006998448
0.0002742429
-0.0007683871
0.000261616
-0.0008377257
0.0002447439
-0.0009035979
0.0002258722
-0.0009619247
0.0002109001
-0.001011345
0.0001934405
-0.001058374
0.0001788438
-0.001103542
0.0001652686
-0.001145185
0.0001528382
-0.001183399
0.0001409893
-0.001218985
0.0001295401
-0.001251372
0.0001186591
-0.001280292
0.0001082297
-0.001307209
9.79447e-05
-0.001332785
8.794609e-05
-0.001355478
7.865585e-05
-0.00137443
6.983012e-05
-0.00139103
6.090989e-05
-0.001406419
5.194146e-05
-0.001419493
4.33974e-05
-0.001429082
3.527181e-05
-0.00143543
2.717562e-05
-0.00143949
1.897576e-05
-0.001442543
1.156649e-05
-0.001442791
3.411229e-06
-0.001439387
-6.074201e-06
-0.001433037
-1.470175e-05
-0.001424208
-2.340331e-05
-0.001413838
-3.252602e-05
-0.001401422
-4.193477e-05
-0.001385555
-5.134317e-05
-0.001365443
-6.064374e-05
-0.001341672
-7.030221e-05
-0.001315347
-8.080919e-05
-0.001287709
-9.227658e-05
-0.001256394
-0.000104308
-0.001220076
-0.0001161523
-0.001179297
-0.0001287763
-0.001133893
-0.0001426702
-0.001085829
-0.0001575567
-0.001034341
-0.0001735159
-0.000977903
-0.0001897264
-0.0009170001
-0.0002055026
-0.0008572354
-0.0002192206
-0.0007918405
-0.0002393231
-0.0007145293
-0.0002641251
-0.0006262258
-0.0002905206
-0.0005319017
-0.0003272482
-0.0004423605
-0.0003578379
-0.0003404958
-0.0003957211
-0.0002411708
-0.0004421486
-0.0001266682
-0.000498727
-0.0005329854
-8.276707e-05
0.0004368113
-0.0001624556
0.0004221541
-0.0002384643
0.0004119071
-0.0003090719
0.0003990096
-0.000375355
0.0003833232
-0.0004384083
0.0003654432
-0.0004975444
0.0003470041
-0.0005521066
0.0003288047
-0.0006017494
0.0003112583
-0.0006522467
0.0002952406
-0.0007029843
0.0002766092
-0.0007532437
0.0002611588
-0.0008001935
0.0002403896
-0.000842967
0.0002216165
-0.0008829979
0.0002052987
-0.000920109
0.0001899486
-0.0009550378
0.0001759174
-0.0009878073
0.0001623089
-0.001017663
0.0001485136
-0.001044663
0.0001352294
-0.001069274
0.0001225547
-0.001091674
0.0001103457
-0.00111158
9.856201e-05
-0.001128875
8.712409e-05
-0.001143879
7.591332e-05
-0.001156814
6.487657e-05
-0.001167445
5.402816e-05
-0.001175513
4.333982e-05
-0.001181089
3.275102e-05
-0.001185414
2.330155e-05
-0.001187171
1.332388e-05
-0.001185641
1.880859e-06
-0.001182528
-9.186499e-06
-0.0011771
-2.012864e-05
-0.001169377
-3.112569e-05
-0.0011594
-4.250273e-05
-0.001147158
-5.417604e-05
-0.001132369
-6.613063e-05
-0.001114584
-7.842838e-05
-0.001093699
-9.118664e-05
-0.001069992
-0.0001045154
-0.001043788
-0.0001184802
-0.001014896
-0.0001332003
-0.0009841512
-0.0001468978
-0.0009493985
-0.0001635296
-0.0009112868
-0.0001807828
-0.0008701177
-0.000198727
-0.0008259925
-0.0002176425
-0.0007799195
-0.0002358007
-0.0007306749
-0.0002547485
-0.0006743634
-0.0002755336
-0.0006087384
-0.0003049499
-0.0005363186
-0.0003365468
-0.0004605395
-0.0003663014
-0.0003909033
-0.0003968861
-0.0003178131
-0.0004309298
-0.0002426197
-0.0004709166
-0.000165687
-0.0005190838
-8.667175e-05
-0.0005777453
-0.0006196575
-6.473465e-05
0.0005015462
-0.0001284402
0.0004858598
-0.0001889831
0.00047245
-0.0002464718
0.0004564983
-0.0003011888
0.00043804
-0.0003536205
0.0004178748
-0.0004035238
0.0003969072
-0.0004504148
0.0003756954
-0.0004934934
0.0003543366
-0.0005314745
0.0003332214
-0.0005683509
0.0003134851
-0.0006037147
0.0002965222
-0.0006420134
0.0002786878
-0.000679426
0.0002590286
-0.0007134648
0.0002393369
-0.000744676
0.0002211594
-0.000773445
0.0002046859
-0.0008001501
0.0001890135
-0.0008248224
0.0001731854
-0.0008473295
0.000157736
-0.0008676975
0.0001429223
-0.0008859997
0.0001286475
-0.00090223
0.0001147919
-0.0009163911
0.0001012849
-0.0009285381
8.806002e-05
-0.0009387277
7.506593e-05
-0.0009469655
6.226585e-05
-0.0009532467
4.962094e-05
-0.0009575573
3.706161e-05
-0.0009600043
2.574864e-05
-0.0009595327
1.285239e-05
-0.0009577776
1.260589e-07
-0.0009542203
-1.274341e-05
-0.0009486049
-2.574357e-05
-0.0009419447
-3.778537e-05
-0.0009329183
-5.152858e-05
-0.0009216976
-6.539613e-05
-0.0009083189
-7.950863e-05
-0.0008927522
-9.39945e-05
-0.0008749789
-0.0001089595
-0.0008549891
-0.0001245048
-0.0008327412
-0.000140728
-0.0008083484
-0.0001575931
-0.0007813924
-0.000173854
-0.0007517597
-0.0001931628
-0.0007196638
-0.0002128794
-0.0006849477
-0.0002334439
-0.00064902
-0.0002535711
-0.0006095462
-0.0002752755
-0.0005636118
-0.0003006841
-0.0005098262
-0.0003293205
-0.0004564333
-0.0003583442
-0.0004056114
-0.00038737
-0.0003540297
-0.0004178844
-0.0002995966
-0.0004513205
-0.0002421462
-0.0004883816
-0.0001829241
-0.0005301402
-0.0001233588
-0.0005786512
-6.360337e-05
-0.0006375033
-0.0006832612
-5.070239e-05
0.0005522484
-9.992837e-05
0.0005350855
-0.0001460718
0.0005185932
-0.0001898816
0.0005003078
-0.0002317086
0.0004798668
-0.0002718463
0.0004580122
-0.0003104264
0.000435487
-0.0003475213
0.0004127901
-0.0003833707
0.0003901857
-0.0004180296
0.0003678799
-0.0004506586
0.0003461138
-0.0004790018
0.0003248651
-0.000505661
0.0003053467
-0.0005334934
0.0002868606
-0.0005615015
0.0002673446
-0.0005876855
0.000247343
-0.0006115293
0.0002285294
-0.0006330352
0.000210519
-0.0006529196
0.0001930695
-0.0006712879
0.000176104
-0.0006879939
0.0001596281
-0.0007029634
0.0001436167
-0.0007161897
0.000128018
-0.0007276871
0.0001127821
-0.0007374858
9.785853e-05
-0.0007456199
8.319995e-05
-0.0007521164
6.876221e-05
-0.0007569965
5.4501e-05
-0.0007602965
4.036163e-05
-0.0007609058
2.635792e-05
-0.0007602694
1.221616e-05
-0.0007591077
-1.035463e-06
-0.0007561909
-1.565991e-05
-0.0007516114
-3.03228e-05
-0.0007453513
-4.40451e-05
-0.0007374068
-5.947253e-05
-0.0007278212
-7.498135e-05
-0.0007165595
-9.076983e-05
-0.0007035871
-0.0001069664
-0.0006888725
-0.0001236738
-0.0006723974
-0.0001409797
-0.000654163
-0.0001589622
-0.0006340785
-0.0001776777
-0.0006106731
-0.0001972595
-0.0005858745
-0.0002179618
-0.0005591328
-0.0002396216
-0.0005312216
-0.0002613556
-0.0005002304
-0.000284563
-0.0004645368
-0.0003109698
-0.0004267856
-0.0003384362
-0.0003891508
-0.0003669563
-0.0003510379
-0.000396458
-0.0003109943
-0.0004274145
-0.0002685812
-0.0004602985
-0.0002244373
-0.0004954655
-0.0001793455
-0.0005334745
-0.0001340465
-0.0005754406
-8.918593e-05
-0.0006235135
-4.547733e-05
-0.0006812142
-0.0007287387
-3.954234e-05
0.0005917902
-7.78065e-05
0.0005733492
-0.0001133215
0.0005541078
-0.0001469421
0.000533928
-0.0001791227
0.000512047
-0.0002101202
0.0004890094
-0.0002400426
0.0004654091
-0.0002689107
0.0004416579
-0.0002967471
0.0004180219
-0.000323546
0.0003946786
-0.0003491983
0.0003717658
-0.0003736352
0.0003493017
-0.0003956171
0.0003273284
-0.0004154941
0.0003067373
-0.0004356711
0.0002875214
-0.0004560872
0.0002677587
-0.000475056
0.0002474979
-0.0004925027
0.0002279655
-0.000508472
0.0002090386
-0.000523017
0.0001906488
-0.0005361494
0.0001727602
-0.0005478662
0.0001553334
-0.0005581734
0.000138325
-0.000567082
0.0001216905
-0.0005746076
0.0001053841
-0.0005807669
8.935906e-05
-0.0005855724
7.35677e-05
-0.0005890307
5.795926e-05
-0.0005911473
4.247818e-05
-0.0005918653
2.707604e-05
-0.0005912929
1.164383e-05
-0.0005902339
-2.094316e-06
-0.0005878632
-1.803045e-05
-0.0005842607
-3.392507e-05
-0.0005784265
-4.987896e-05
-0.0005717058
-6.619298e-05
-0.0005638614
-8.282542e-05
-0.0005547688
-9.986212e-05
-0.0005443529
-0.000117382
-0.0005325554
-0.000135471
-0.0005193199
-0.0001542151
-0.0005045822
-0.0001736999
-0.0004882542
-0.0001940056
-0.0004702964
-0.0002152175
-0.0004507798
-0.0002374785
-0.0004303236
-0.0002600781
-0.000407727
-0.0002839526
-0.000381952
-0.0003103385
-0.0003552296
-0.0003376927
-0.0003275381
-0.0003661284
-0.000298688
-0.000395807
-0.0002683731
-0.0004267736
-0.0002366564
-0.0004591319
-0.000203858
-0.0004930978
-0.0001702821
-0.0005290422
-0.0001361903
-0.0005675672
-0.0001019085
-0.0006097235
-6.78791e-05
-0.0006575445
-3.450709e-05
-0.0007145881
-0.000763246
-2.987211e-05
0.0006216616
-5.874157e-05
0.000602218
-8.5166e-05
0.0005805317
-0.0001100223
0.0005587839
-0.0001338141
0.0005358384
-0.0001568251
0.0005120201
-0.0001791955
0.0004877791
-0.0002009687
0.0004634308
-0.0002221414
0.0004391942
-0.0002426754
0.0004152123
-0.0002624924
0.0003915825
-0.0002815498
0.0003683589
-0.0002997903
0.0003455687
-0.0003163909
0.0003233377
-0.0003308274
0.0003019577
-0.0003449685
0.0002818996
-0.0003592088
0.000261738
-0.000372459
0.0002412155
-0.0003846769
0.0002212563
-0.0003958318
0.0002018035
-0.0004059063
0.0001828346
-0.0004148925
0.0001643195
-0.0004227929
0.0001462253
-0.0004296173
0.0001285147
-0.0004353802
0.0001111469
-0.000440099
9.407777e-05
-0.0004437919
7.726063e-05
-0.0004464781
6.06454e-05
-0.0004481781
4.417817e-05
-0.0004489054
2.780337e-05
-0.0004487214
1.14599e-05
-0.0004473349
-3.480647e-06
-0.0004451646
-2.020068e-05
-0.0004421061
-3.698337e-05
-0.000438072
-5.391287e-05
-0.0004331358
-7.112898e-05
-0.0004272707
-8.869035e-05
-0.0004204511
-0.0001066815
-0.0004126469
-0.000125186
-0.0004038269
-0.0001442909
-0.0003939573
-0.0001640845
-0.0003830009
-0.0001846562
-0.0003709231
-0.0002060834
-0.0003575969
-0.0002285436
-0.0003434742
-0.0002516014
-0.0003277297
-0.0002758227
-0.0003095625
-0.00030212
-0.0002904258
-0.0003294755
-0.0002701902
-0.0003579287
-0.0002487942
-0.0003875249
-0.0002263161
-0.0004182855
-0.0002028422
-0.000450248
-0.0001784661
-0.0004835086
-0.0001533156
-0.0005182489
-0.0001275776
-0.0005547809
-0.0001015017
-0.0005936438
-7.540783e-05
-0.0006358183
-4.973108e-05
-0.0006832226
-2.506357e-05
-0.0007392573
-0.0007883098
-2.231816e-05
0.000643979
-4.371934e-05
0.0006236186
-6.29593e-05
0.0005997711
-8.08703e-05
0.0005766944
-9.798909e-05
0.0005529568
-0.0001145717
0.0005286023
-0.0001307165
0.0005039237
-0.0001464613
0.0004791753
-0.0001618037
0.0004545364
-0.0001767201
0.0004301284
-0.0001911722
0.0004060343
-0.0002051244
0.0003823109
-0.0002185552
0.0003589992
-0.0002313618
0.0003361441
-0.0002431538
0.0003137495
-0.0002532636
0.0002920093
-0.0002629045
0.0002713788
-0.0002725591
0.0002508699
-0.0002815567
0.0002302538
-0.0002898529
0.0002100996
-0.0002973663
0.0001903478
-0.0003040715
0.0001710246
-0.0003099645
0.0001521182
-0.000315054
0.0001336041
-0.000319356
0.0001154489
-0.0003228897
9.761141e-05
-0.0003256754
8.004629e-05
-0.0003277342
6.270414e-05
-0.0003290866
4.553055e-05
-0.0003297509
2.84677e-05
-0.0003297464
1.145541e-05
-0.00032874
-4.486984e-06
-0.0003271856
-2.175494e-05
-0.0003250294
-3.913955e-05
-0.0003222234
-5.671871e-05
-0.0003187733
-7.457892e-05
-0.0003146626
-9.280099e-05
-0.0003098732
-0.0001114707
-0.0003043839
-0.0001306752
-0.0002981714
-0.0001505033
-0.0002912112
-0.0001710447
-0.00028348
-0.0001923873
-0.0002749286
-0.0002146348
-0.0002657
-0.0002377723
-0.0002553128
-0.0002619886
-0.0002431815
-0.0002879541
-0.000230245
-0.0003150567
-0.0002163945
-0.0003433263
-0.0002015439
-0.0003727795
-0.0001856764
-0.0004033927
-0.0001688419
-0.0004351204
-0.0001511457
-0.0004679447
-0.0001327376
-0.0005019171
-0.0001137988
-0.0005371882
-9.452903e-05
-0.0005740511
-7.514091e-05
-0.0006130325
-5.585975e-05
-0.0006551001
-3.693924e-05
-0.0007021441
-1.865927e-05
-0.0007575385
-0.0008069692
-1.629724e-05
0.0006602755
-3.138768e-05
0.0006387084
-4.442593e-05
0.0006128089
-5.631504e-05
0.0005885831
-6.752807e-05
0.0005641695
-7.837264e-05
0.0005394466
-8.906746e-05
0.0005146182
-9.966789e-05
0.0004897755
-0.0001101712
0.0004650394
-0.0001205432
0.0004405003
-0.0001307329
0.0004162238
-0.0001406814
0.0003922591
-0.0001503281
0.0003686458
-0.0001596015
0.0003454173
-0.0001684377
0.0003225855
-0.0001766234
0.0003001949
-0.0001835514
0.0002783066
-0.0001899848
0.0002573031
-0.0001962522
0.0002365212
-0.0002019844
0.0002158317
-0.0002071621
0.0001955255
-0.0002117888
0.0001756512
-0.0002158934
0.0001562227
-0.0002194881
0.0001371988
-0.000222583
0.0001185437
-0.0002251881
0.0001002165
-0.0002273139
8.217204e-05
-0.0002289709
6.436115e-05
-0.0002301695
4.672913e-05
-0.000230919
2.921722e-05
-0.0002312271
1.176346e-05
-0.0002307731
-4.940974e-06
-0.000229961
-2.256692e-05
-0.0002287669
-4.033364e-05
-0.0002271693
-5.831627e-05
-0.0002251534
-7.659479e-05
-0.0002227021
-9.525226e-05
-0.000219797
-0.0001143757
-0.0002164168
-0.0001340554
-0.0002125362
-0.0001543839
-0.0002081249
-0.000175456
-0.0002031459
-0.0001973663
-0.0001975676
-0.0002202132
-0.000191272
-0.000244068
-0.000183919
-0.0002693417
-0.0001759716
-0.0002959016
-0.0001672708
-0.0003237577
-0.000157681
-0.0003529163
-0.0001471312
-0.0003833295
-0.000135611
-0.000414913
-0.0001232187
-0.000447513
-0.0001101223
-0.0004810413
-9.649915e-05
-0.0005155406
-8.251836e-05
-0.0005511693
-6.834223e-05
-0.0005882276
-5.412452e-05
-0.0006272507
-4.00261e-05
-0.0006691991
-2.625536e-05
-0.0007159156
-1.313613e-05
-0.0007706588
-0.0008201054
-1.113422e-05
0.0006714092
-2.118367e-05
0.0006487574
-2.95311e-05
0.0006211559
-3.695546e-05
0.0005960071
-4.38822e-05
0.0005710959
-5.057192e-05
0.000546136
-5.719816e-05
0.0005212441
-6.379528e-05
0.0004963723
-7.037907e-05
0.000471623
-7.692609e-05
0.000447047
-8.34052e-05
0.0004227027
-8.978834e-05
0.0003986421
-9.607886e-05
0.0003749361
-0.0001022524
0.0003515907
-0.0001082343
0.0003285673
-0.0001139186
0.000305879
-0.0001191321
0.00028352
-0.0001234361
0.0002616071
-0.0001271909
0.0002402758
-0.0001306528
0.0002192934
-0.0001338211
0.0001986937
-0.0001366928
0.0001785228
-0.0001392797
0.0001588095
-0.0001415875
0.0001395065
-0.000143628
0.0001205842
-0.0001454141
0.0001020025
-0.0001469557
8.371368e-05
-0.0001482585
6.566391e-05
-0.000149326
4.779656e-05
-0.0001501627
3.005391e-05
-0.0001507703
1.237108e-05
-0.000150863
-4.848306e-06
-0.0001507627
-2.26672e-05
-0.0001504511
-4.064526e-05
-0.0001499117
-5.885564e-05
-0.0001491283
-7.737817e-05
-0.0001480826
-9.629798e-05
-0.0001467537
-0.0001157046
-0.0001451166
-0.0001356924
-0.0001431403
-0.0001563602
-0.0001407855
-0.0001778108
-0.0001380019
-0.0002001498
-0.0001347352
-0.00022348
-0.0001309199
-0.0002478833
-0.0001267307
-0.000273531
-0.0001220815
-0.0003005509
-0.0001167539
-0.0003290854
-0.0001106658
-0.0003590046
-0.0001036132
-0.0003903822
-9.553271e-05
-0.0004229937
-8.663783e-05
-0.000456408
-7.720734e-05
-0.000490472
-6.744434e-05
-0.0005253038
-5.750255e-05
-0.0005611114
-4.75074e-05
-0.0005982231
-3.756641e-05
-0.000637192
-2.778294e-05
-0.000678983
-1.827413e-05
-0.000725425
-9.196886e-06
-0.0007797368
-0.0008293023
-8.071971e-06
0.0006794808
-1.457184e-05
0.000655257
-1.906117e-05
0.000625645
-2.227816e-05
0.0005992239
-2.516748e-05
0.000573985
-2.805068e-05
0.0005490189
-3.083698e-05
0.0005240302
-3.367258e-05
0.0004992077
-3.659508e-05
0.0004745452
-3.964062e-05
0.0004500924
-4.282199e-05
0.0004258838
-4.610161e-05
0.0004019215
-4.942592e-05
0.0003782602
-5.272018e-05
0.0003548848
-5.582224e-05
0.0003316692
-5.858718e-05
0.0003086438
-6.101803e-05
0.0002859507
-6.312656e-05
0.0002637155
-6.500633e-05
0.0002421555
-6.694216e-05
0.0002212292
-6.89853e-05
0.0002007368
-7.1041e-05
0.0001805785
-7.300649e-05
0.0001607749
-7.488994e-05
0.0001413899
-7.667235e-05
0.0001223665
-7.83506e-05
0.0001036807
-7.99273e-05
8.529033e-05
-8.140191e-05
6.713848e-05
-8.277043e-05
4.916505e-05
-8.402577e-05
3.130921e-05
-8.516701e-05
1.351229e-05
-8.596379e-05
-4.051549e-06
-8.667461e-05
-2.195641e-05
-8.728608e-05
-4.003381e-05
-8.778744e-05
-5.83543e-05
-8.816873e-05
-7.69969e-05
-8.841777e-05
-9.604896e-05
-8.85209e-05
-0.0001156015
-8.846226e-05
-0.0001357511
-8.822247e-05
-0.0001566
-8.777603e-05
-0.0001782573
-8.70855e-05
-0.0002008404
-8.610121e-05
-0.0002244643
-8.470453e-05
-0.00024928
-8.279476e-05
-0.0002754408
-8.042857e-05
-0.0003029172
-7.767607e-05
-0.000331838
-7.413098e-05
-0.0003625498
-6.959186e-05
-0.0003949215
-6.41416e-05
-0.0004284441
-5.79662e-05
-0.0004625836
-5.143049e-05
-0.0004970079
-4.47886e-05
-0.0005319459
-3.810514e-05
-0.000567795
-3.142469e-05
-0.0006049038
-2.479324e-05
-0.0006438237
-1.826577e-05
-0.0006855107
-1.192418e-05
-0.000731767
-5.925033e-06
-0.0007857365
-0.0008352274
-4.013322e-06
0.0006834939
-5.800555e-06
0.000657044
-5.487027e-06
0.0006253312
-4.493542e-06
0.0005982302
-3.282335e-06
0.0005727736
-2.157677e-06
0.0005478941
-1.375207e-06
0.0005232475
-9.878868e-07
0.0004988201
-1.052882e-06
0.00047461
-1.596751e-06
0.000450636
-2.62554e-06
0.0004269124
-4.142474e-06
0.0004034382
-6.061391e-06
0.000380179
-8.144194e-06
0.0003569674
-1.028268e-05
0.0003338075
-1.23437e-05
0.0003107047
-1.422421e-05
0.0002878311
-1.587944e-05
0.0002653706
-1.720213e-05
0.0002434781
-1.822274e-05
0.0002222497
-1.908517e-05
0.0002015992
-1.997165e-05
0.0001814649
-2.099587e-05
0.0001617991
-2.213624e-05
0.0001425303
-2.338708e-05
0.0001236173
-2.476214e-05
0.0001050557
-2.625438e-05
8.678253e-05
-2.782237e-05
6.870643e-05
-2.94312e-05
5.077385e-05
-3.104761e-05
3.292558e-05
-3.264583e-05
1.511047e-05
-3.406224e-05
-2.635177e-06
-3.549635e-05
-2.052233e-05
-3.693433e-05
-3.859588e-05
-3.835501e-05
-5.693366e-05
-3.97471e-05
-7.560484e-05
-4.109893e-05
-9.469718e-05
-4.23993e-05
-0.0001143012
-4.363714e-05
-0.0001345133
-4.480103e-05
-0.0001554362
-4.587786e-05
-0.0001771806
-4.684899e-05
-0.0001998693
-4.769218e-05
-0.0002236212
-4.837962e-05
-0.0002485926
-4.882013e-05
-0.0002750004
-4.8718e-05
-0.0003030194
-4.771694e-05
-0.0003328391
-4.585761e-05
-0.0003644092
-4.333438e-05
-0.0003974448
-4.006009e-05
-0.0004317185
-3.611877e-05
-0.000466525
-3.190957e-05
-0.0005012173
-2.768019e-05
-0.0005361754
-2.347016e-05
-0.0005720052
-1.92945e-05
-0.0006090796
-1.518048e-05
-0.0006479379
-1.116431e-05
-0.0006895271
-7.29561e-06
-0.0007356361
-3.654789e-06
-0.0007893777
-0.0008388823
-2.216603e-06
0.0006857104
-1.887454e-06
0.0006567148
-2.522113e-07
0.0006236959
2.157725e-06
0.0005958201
4.971143e-06
0.00056996
7.944517e-06
0.0005449206
1.086178e-05
0.0005203301
1.366765e-05
0.0004960141
1.632279e-05
0.0004719547
1.878119e-05
0.0004481774
2.095927e-05
0.0004247342
2.260215e-05
0.0004017952
2.350866e-05
0.0003792723
2.366982e-05
0.0003568061
2.320374e-05
0.0003342735
2.219137e-05
0.0003117169
2.082785e-05
0.0002891944
1.933852e-05
0.0002668598
1.791935e-05
0.0002448972
1.673984e-05
0.0002234291
1.580922e-05
0.0002025297
1.505351e-05
0.0001822205
1.439271e-05
0.0001624598
1.375681e-05
0.0001431661
1.308286e-05
0.0001242912
1.232726e-05
0.0001058112
1.145862e-05
8.765112e-05
1.044736e-05
6.971765e-05
9.277501e-06
5.194367e-05
7.938219e-06
3.426482e-05
6.435352e-06
1.66133e-05
4.859389e-06
-1.059252e-06
3.096073e-06
-1.875905e-05
1.216521e-06
-3.671636e-05
-7.706278e-07
-5.494655e-05
-2.834539e-06
-7.354097e-05
-4.955551e-06
-9.257621e-05
-7.11632e-06
-0.0001121405
-9.305029e-06
-0.0001323247
-1.152026e-05
-0.000153221
-1.377227e-05
-0.0001749286
-1.603556e-05
-0.0001976061
-1.823587e-05
-0.000221421
-2.030177e-05
-0.0002465268
-2.212243e-05
-0.0002731798
-2.349645e-05
-0.0003016455
-2.431346e-05
-0.0003320222
-2.447337e-05
-0.0003642494
-2.377126e-05
-0.0003981471
-2.232938e-05
-0.0004331605
-2.038478e-05
-0.0004684697
-1.79861e-05
-0.0005036161
-1.543882e-05
-0.0005387228
-1.29706e-05
-0.0005744736
-1.057977e-05
-0.0006114706
-8.26495e-06
-0.0006502529
-6.031515e-06
-0.0006917607
-3.899487e-06
-0.0007377683
-1.921714e-06
-0.0007913558
-0.000840804
-1.006757e-06
0.0006867173
5.950646e-07
0.000655113
4.118064e-06
0.0006201729
8.580203e-06
0.000591358
1.341521e-05
0.0005651249
1.831037e-05
0.0005400253
2.309313e-05
0.0005155472
2.763685e-05
0.0004914702
3.184162e-05
0.0004677497
3.560699e-05
0.0004444119
3.879986e-05
0.0004215411
4.135949e-05
0.0003992354
4.348613e-05
0.0003771455
4.530629e-05
0.0003549857
4.687593e-05
0.0003327037
4.815844e-05
0.0003104343
4.897956e-05
0.0002883732
4.924664e-05
0.0002665926
4.905905e-05
0.0002450847
4.862769e-05
0.0002238604
4.808854e-05
0.0002030688
4.749276e-05
0.0001828162
4.68551e-05
0.0001630974
4.614005e-05
0.0001438811
4.531525e-05
0.000125116
4.437924e-05
0.0001067472
4.332243e-05
8.870788e-05
4.211435e-05
7.092569e-05
4.073749e-05
5.332049e-05
3.920052e-05
3.580176e-05
3.749404e-05
1.831974e-05
3.557542e-05
8.5933e-07
3.332769e-05
-1.651136e-05
3.087621e-05
-3.426492e-05
2.825701e-05
-5.232739e-05
2.548968e-05
-7.077369e-05
2.259499e-05
-8.968156e-05
1.958912e-05
-0.0001091347
1.648996e-05
-0.0001292255
1.332062e-05
-0.0001500517
1.01126e-05
-0.0001717206
6.914793e-06
-0.0001944084
3.81831e-06
-0.0002183245
9.398058e-07
-0.0002436484
-1.662457e-06
-0.0002705777
-3.996165e-06
-0.0002993118
-6.015008e-06
-0.0003300035
-7.572079e-06
-0.0003626924
-8.566082e-06
-0.0003971532
-8.894425e-06
-0.0004328323
-8.402035e-06
-0.0004689622
-7.29648e-06
-0.0005047217
-6.062974e-06
-0.0005399564
-4.929891e-06
-0.0005756067
-3.879024e-06
-0.0006125215
-2.899516e-06
-0.0006512325
-1.997816e-06
-0.0006926625
-1.197574e-06
-0.0007385687
-5.481817e-07
-0.0007920053
-0.0008413522
-4.231396e-08
0.0006867597
2.790055e-06
0.0006522807
7.831248e-06
0.0006151318
1.387105e-05
0.0005853182
2.027854e-05
0.0005587174
2.669901e-05
0.0005336047
3.292139e-05
0.0005093246
3.878299e-05
0.0004856084
4.416344e-05
0.0004623691
4.897831e-05
0.0004395968
5.320177e-05
0.0004173174
5.689457e-05
0.0003955424
6.007024e-05
0.0003739696
6.277738e-05
0.0003522784
6.502362e-05
0.0003304573
6.683044e-05
0.0003086273
6.831312e-05
0.0002868904
6.956702e-05
0.0002653386
7.059794e-05
0.0002440536
7.127424e-05
0.000223184
7.155679e-05
0.0002027861
7.15358e-05
0.0001828372
7.124004e-05
0.0001633931
7.06823e-05
0.0001444388
6.986468e-05
0.0001259336
6.879338e-05
0.0001078185
6.748283e-05
9.00184e-05
6.595885e-05
7.244962e-05
6.425053e-05
5.502878e-05
6.236817e-05
3.768408e-05
6.030321e-05
2.038467e-05
5.799646e-05
3.166048e-06
5.5314e-05
-1.382893e-05
5.231289e-05
-3.126385e-05
4.907005e-05
-4.908458e-05
4.563306e-05
-6.733673e-05
4.202583e-05
-8.607437e-05
3.826838e-05
-0.0001053772
3.438821e-05
-0.0001253454
3.043258e-05
-0.0001460961
2.647743e-05
-0.0001677655
2.258841e-05
-0.0001905194
1.88132e-05
-0.0002145494
1.52224e-05
-0.0002400576
1.189684e-05
-0.0002672522
8.903889e-06
-0.000296319
6.274737e-06
-0.0003273744
3.995132e-06
-0.0003604129
2.084153e-06
-0.0003952423
6.521836e-07
-0.0004314004
-2.403297e-07
-0.0004680698
-6.45846e-07
-0.0005043163
-7.66155e-07
-0.0005398362
-8.156151e-07
-0.0005755574
-7.971827e-07
-0.00061254
-7.243238e-07
-0.0006513054
-6.131957e-07
-0.0006927737
-4.765052e-07
-0.0007387055
-3.038789e-07
-0.0007921781
-0.0008416561
4.562886e-07
0.0006863037
4.345826e-06
0.0006483914
1.033871e-05
0.000609139
1.739097e-05
0.0005782659
2.486442e-05
0.0005512439
3.237826e-05
0.0005260908
3.969816e-05
0.0005020046
4.666275e-05
0.0004786437
5.316406e-05
0.0004558676
5.913607e-05
0.0004336246
6.455198e-05
0.0004119013
6.940301e-05
0.0003906912
7.364843e-05
0.000369724
7.725611e-05
0.0003486706
8.025056e-05
0.0003274626
8.271355e-05
0.0003061642
8.472641e-05
0.0002848774
8.633495e-05
0.0002637299
8.753029e-05
0.0002428582
8.834243e-05
0.0002223717
8.880574e-05
0.0002023227
8.887433e-05
0.0001827685
8.856457e-05
0.0001637028
8.78971e-05
0.0001451062
8.68964e-05
0.0001269342
8.558874e-05
0.0001091261
8.399834e-05
9.160876e-05
8.214537e-05
7.430256e-05
8.004575e-05
5.712836e-05
7.770898e-05
4.002081e-05
7.514163e-05
2.295199e-05
7.234822e-05
5.959424e-06
6.935229e-05
-1.083302e-05
6.587934e-05
-2.779094e-05
6.21225e-05
-4.532778e-05
5.816384e-05
-6.33781e-05
5.404264e-05
-8.195321e-05
4.978912e-05
-0.0001011238
4.543978e-05
-0.0001209961
4.104341e-05
-0.0001416998
3.666356e-05
-0.0001633857
3.237334e-05
-0.0001862292
2.824769e-05
-0.0002104238
2.435818e-05
-0.0002361682
2.076213e-05
-0.0002636562
1.750038e-05
-0.0002930573
1.460619e-05
-0.0003244803
1.210839e-05
-0.0003579152
1.00194e-05
-0.0003931534
8.32499e-06
-0.0004297061
7.030252e-06
-0.0004667752
6.149506e-06
-0.0005034356
5.504922e-06
-0.0005391917
4.884273e-06
-0.0005749368
4.234493e-06
-0.0006118903
3.535872e-06
-0.0006506069
2.767885e-06
-0.0006920058
1.908792e-06
-0.0007378464
9.382748e-07
-0.0007912077
-0.0008407178
7.565216e-07
0.0006855474
5.17397e-06
0.0006439741
1.180816e-05
0.000602505
1.954608e-05
0.0005705281
2.773819e-05
0.0005430518
3.599196e-05
0.0005178369
4.405896e-05
0.0004939375
5.177331e-05
0.0004709292
5.902789e-05
0.0004486128
6.576074e-05
0.0004268916
7.194707e-05
0.0004057148
7.759056e-05
0.0003850475
8.265449e-05
0.0003646599
8.708404e-05
0.0003442408
9.087161e-05
0.0003236749
9.402486e-05
0.0003030108
9.65512e-05
0.0002823509
9.846718e-05
0.0002618138
9.981425e-05
0.000241511
0.0001006505
0.0002215354
0.0001009989
0.0002019743
0.0001008824
0.0001828849
0.0001003203
0.0001642648
9.93417e-05
0.0001460847
9.797855e-05
0.0001282973
9.62647e-05
0.0001108399
9.42342e-05
9.363923e-05
9.191862e-05
7.661811e-05
8.934274e-05
5.970421e-05
8.652112e-05
4.28424e-05
8.346358e-05
2.600952e-05
8.019875e-05
9.22423e-06
7.682694e-05
-7.461239e-06
7.301695e-05
-2.398096e-05
6.892378e-05
-4.123464e-05
6.463398e-05
-5.908832e-05
6.020311e-05
-7.752237e-05
5.567586e-05
-9.659653e-05
5.109726e-05
-0.0001164176
4.651937e-05
-0.0001371219
4.200202e-05
-0.0001588684
3.760704e-05
-0.0001818343
3.339364e-05
-0.0002062104
2.941709e-05
-0.0002321917
2.572449e-05
-0.0002599636
2.234894e-05
-0.0002896818
1.930734e-05
-0.0003214388
1.660559e-05
-0.0003552135
1.42513e-05
-0.0003907992
1.225865e-05
-0.0004277135
1.062791e-05
-0.0004651445
9.307942e-06
-0.0005021157
8.172246e-06
-0.000538056
7.068349e-06
-0.0005738329
5.919969e-06
-0.0006107419
4.734796e-06
-0.0006494217
3.525406e-06
-0.0006907964
2.305794e-06
-0.0007366268
1.104786e-06
-0.0007900066
-0.000839613
7.766114e-07
0.0006847711
5.438965e-06
0.000639312
1.238726e-05
0.0005955568
2.049339e-05
0.000562422
2.909911e-05
0.000534446
3.779916e-05
0.0005091368
4.633188e-05
0.0004854047
5.452573e-05
0.0004627352
6.227227e-05
0.0004408661
6.951158e-05
0.0004196521
7.622377e-05
0.0003990024