/*--------------------------------*- C++ -*----------------------------------*\
| =========                 |                                                 |
| \\      /  F ield         | OpenFOAM: The Open Source CFD Toolbox           |
|  \\    /   O peration     | Version:  2312                                  |
|   \\  /    A nd           | Website:  www.openfoam.com                      |
|    \\/     M anipulation  |                                                 |
\*---------------------------------------------------------------------------*/
FoamFile
{
    version     2.0;
    format      ascii;
    arch        "LSB;label=32;scalar=64";
    class       volScalarField;
    location    "4200";
    object      T;
}
// * * * * * * * * * * * * * * * * * * * * * * * * * * * * * * * * * * * * * //

dimensions      [0 0 0 1 0 0 0];

internalField   nonuniform List<scalar> 
12000
(
448.0993
435.2776
433.7435
433.5258
433.4858
433.4673
433.452
433.4367
433.4202
433.4024
433.3833
433.3624
433.3392
433.3137
433.2861
433.2562
433.2237
433.1887
433.1512
433.1109
433.0677
433.0218
432.973
432.9211
432.866
432.8079
432.7468
432.6823
432.6144
432.5436
432.4699
432.3932
432.3136
432.2256
432.1241
432.0111
431.8935
431.7727
431.6371
431.4745
431.2851
431.0949
430.9183
430.7328
430.4935
430.2055
429.9283
429.6782
429.3899
429.0148
428.5743
428.1516
427.6725
427.0637
426.3372
425.4918
424.3905
422.9183
420.6533
416.6489
447.9566
435.8076
434.5265
434.5346
434.7492
435.0026
435.265
435.5204
435.7647
435.9997
436.2331
436.4488
436.6448
436.83
437.0072
437.1691
437.3141
437.4475
437.5698
437.6765
437.7705
437.8592
437.9396
438.0041
438.0561
438.1043
438.1465
438.1758
438.193
438.2023
438.2038
438.1961
438.1796
438.1522
438.112
438.0593
437.9944
437.9163
437.8241
437.7169
437.5941
437.4534
437.2918
437.1069
436.8981
436.6637
436.3954
436.0923
435.7503
435.3648
434.9276
434.4155
433.8244
433.1355
432.3309
431.3007
429.8857
427.9099
424.8014
419.1938
448.5146
436.5964
435.2663
435.3777
435.7667
436.2045
436.6453
437.0735
437.4827
437.8694
438.2296
438.5639
438.8726
439.1575
439.4201
439.661
439.8809
440.081
440.2628
440.427
440.5748
440.7077
440.8264
440.9315
441.0234
441.1033
441.1717
441.2286
441.2741
441.3085
441.3321
441.3451
441.3484
441.3379
441.3139
441.2767
441.2258
441.1606
441.0805
440.9843
440.8711
440.7392
440.5864
440.4111
440.2116
439.9859
439.7275
439.4321
439.0951
438.7109
438.2787
437.7898
437.2266
436.5551
435.7303
434.6923
433.3206
431.2522
427.7437
420.5138
449.3689
437.3365
435.9233
436.0781
436.5742
437.1322
437.6859
438.2158
438.717
439.1932
439.6398
440.0541
440.4381
440.79
441.113
441.4096
441.6815
441.9306
442.1581
442.3653
442.5536
442.724
442.8777
443.0153
443.1375
443.2451
443.3383
443.4174
443.4827
443.5341
443.5717
443.5962
443.607
443.6016
443.5806
443.544
443.4915
443.4223
443.3356
443.2302
443.1049
442.9585
442.7892
442.5951
442.3756
442.1275
441.8474
441.5314
441.1746
440.7723
440.3212
439.8063
439.1964
438.4842
437.6421
436.6018
435.2055
433.1437
429.546
421.4258
450.3299
438.0708
436.5445
436.6951
437.247
437.8798
438.5085
439.1084
439.6735
440.2038
440.702
441.1666
441.601
442.0023
442.3719
442.7118
443.0243
443.3117
443.5755
443.8169
444.0368
444.2364
444.4168
444.5787
444.7231
444.8502
444.9607
445.0546
445.1322
445.1933
445.2386
445.2682
445.2806
445.275
445.2517
445.2113
445.1531
445.0761
444.9796
444.8623
444.7229
444.56
444.3718
444.1565
443.9126
443.6374
443.328
442.9817
442.5966
442.1648
441.6631
441.0853
440.443
439.711
438.8396
437.7679
436.3668
434.3278
430.7389
422.1251
451.3737
438.8004
437.1324
437.2377
437.8016
438.4718
439.1458
439.7926
440.4038
440.9777
441.5146
442.0156
442.4836
442.9198
443.3244
443.6978
444.0417
444.3583
444.6491
444.9155
445.1584
445.3789
445.5779
445.7564
445.915
446.0544
446.175
446.2772
446.3611
446.4268
446.4749
446.5048
446.5156
446.5076
446.4808
446.4357
446.3714
446.2872
446.1819
446.0545
445.9034
445.7269
445.5233
445.2905
445.0259
444.727
444.3906
444.014
443.5935
443.1233
442.5947
441.996
441.3178
440.5431
439.6383
438.5418
437.1294
435.1035
431.5501
422.6596
452.457
439.519
437.697
437.7308
438.2757
438.9564
439.6541
440.3298
440.9714
441.5753
442.1409
442.6694
443.1622
443.6216
444.0494
444.4464
444.8132
445.1512
445.4615
445.7454
446.0041
446.2384
446.4494
446.638
446.8049
446.9509
447.0767
447.1825
447.2688
447.3358
447.3836
447.412
447.4207
447.4101
447.3805
447.3315
447.2627
447.1733
447.0622
446.9279
446.769
446.5834
446.369
446.1233
445.8436
445.5269
445.1702
444.7699
444.3217
443.8204
443.26
442.6324
441.9265
441.1239
440.1935
439.0772
437.6562
435.6408
432.12
423.0479
453.5536
440.2278
438.2416
438.1854
438.6881
439.3585
440.0624
440.7521
441.4109
442.0335
442.6187
443.167
443.6793
444.1568
444.6011
445.0138
445.396
445.7484
446.0719
446.3676
446.6364
446.8795
447.0976
447.2919
447.4631
447.6121
447.7397
447.8464
447.9327
447.999
448.0454
448.0719
448.0785
448.0658
448.0338
447.9823
447.9107
447.8182
447.7036
447.5654
447.4018
447.2107
446.9896
446.7358
446.4461
446.1173
445.7461
445.3282
444.8596
444.3357
443.7512
443.099
442.3683
441.5421
440.5906
439.458
438.0294
436.0227
432.5378
423.3493
454.6548
440.9299
438.7708
438.6132
439.0575
439.7003
440.3951
441.0862
441.7523
442.3854
442.9828
443.5441
444.0698
444.5606
445.0174
445.4414
445.8339
446.1958
446.5278
446.8309
447.106
447.354
447.576
447.7729
447.9458
448.0955
448.223
448.329
448.4141
448.4788
448.5235
448.5481
448.5531
448.5388
448.5053
448.4523
448.3793
448.2854
448.1693
448.0295
447.8639
447.6704
447.446
447.1877
446.8921
446.5554
446.1736
445.7424
445.2576
444.7152
444.1106
443.4379
442.6874
441.843
440.876
439.7324
438.3
436.3027
432.8503
423.5962
455.721
441.6258
439.2865
439.0206
439.3943
439.9962
440.6701
441.3527
442.0179
442.6546
443.2585
443.8279
444.3626
444.8627
445.3287
445.7613
446.1612
446.5295
446.867
447.1746
447.4532
447.7038
447.9275
448.1253
448.2982
448.4474
448.5738
448.6782
448.7615
448.8243
448.867
448.89
448.8936
448.8781
448.8437
448.79
448.7166
448.6224
448.5063
448.3665
448.2009
448.007
447.7818
447.5219
447.2232
446.8814
446.4919
446.0502
445.5522
444.9943
444.373
443.6835
442.9173
442.059
441.0806
439.9293
438.4951
436.5074
433.089
423.8166
456.978
442.3215
439.7915
439.4132
439.7094
440.2614
440.9056
441.5718
442.2292
442.8636
443.4688
444.0418
444.5815
445.0874
445.5596
445.9983
446.404
446.7773
447.119
447.4299
447.7109
447.963
448.1872
448.3847
448.5568
448.7045
448.829
448.9312
449.0123
449.0728
449.1135
449.1347
449.137
449.1206
449.0856
449.0317
448.9584
448.8648
448.7494
448.6106
448.4462
448.2535
448.0292
447.7694
447.4696
447.1249
446.7299
446.2794
445.7688
445.1954
444.5586
443.8553
443.0773
442.2095
441.2243
440.0695
438.6365
436.659
433.2721
424.0171
458.3609
443.0233
440.289
439.7944
440.0078
440.5027
441.1096
441.7525
442.396
443.023
443.6249
444.1974
444.7384
445.247
445.7232
446.1671
446.5785
446.9575
447.3041
447.6188
447.9026
448.1562
448.3809
448.5778
448.7485
448.8943
449.0165
449.1163
449.1947
449.2528
449.2912
449.3106
449.3114
449.294
449.2584
449.2045
449.1315
449.0386
448.9244
448.7872
448.6246
448.4339
448.2115
447.9532
447.6541
447.3083
446.9092
446.4511
445.9266
445.334
444.6816
443.9686
443.1839
442.3113
441.3229
440.167
438.7365
436.7691
433.4126
424.205
459.6903
443.7384
440.7845
440.1676
440.2937
440.7257
441.2892
441.9032
442.5277
443.1423
443.7361
444.3025
444.8378
445.3433
445.8236
446.2781
446.7024
447.0927
447.4475
447.7675
448.0543
448.3092
448.5328
448.7273
448.8955
449.0386
449.1579
449.2546
449.33
449.3852
449.421
449.4382
449.4373
449.4187
449.3823
449.3281
449.2554
449.1633
449.0504
448.9149
448.7545
448.5663
448.3465
448.0908
447.7937
447.4486
447.0452
446.5741
446.0331
445.4249
444.7572
444.0358
443.2498
442.3763
441.3878
440.2331
438.8066
436.8489
433.5192
424.3797
461.0911
444.4568
441.2763
440.5392
440.581
440.95
441.4674
442.0482
442.6489
443.2458
443.8255
444.3795
444.9074
445.4131
445.8962
446.3543
446.7845
447.1837
447.5484
447.8768
448.1692
448.4272
448.6527
448.8478
449.0142
449.1534
449.2683
449.361
449.4328
449.4847
449.5176
449.5323
449.5294
449.5093
449.4719
449.4172
449.3446
449.253
449.1413
449.0074
448.8492
448.6635
448.4467
448.1939
447.8967
447.5456
447.1335
446.6549
446.1055
445.4862
444.8061
444.0764
443.2881
442.4156
441.4287
440.2765
438.854
436.9051
433.599
424.538
462.4823
445.1762
441.7671
440.9134
440.8715
441.1765
441.6456
442.1906
442.765
443.3424
443.9073
444.4497
444.9704
445.4736
445.9581
446.4198
446.8534
447.255
447.6226
447.9553
448.2525
448.5142
448.7418
448.9374
449.1034
449.2418
449.3549
449.4445
449.5127
449.5612
449.5911
449.6032
449.598
449.5761
449.5376
449.4821
449.4093
449.3181
449.2072
449.0748
448.9187
448.7349
448.518
448.2626
447.962
447.6086
447.1938
446.7101
446.1536
445.5267
444.8379
444.0983
443.3065
442.4371
441.4529
440.3037
438.8856
436.9445
433.6573
424.6709
463.8558
445.8946
442.2651
441.2928
441.1673
441.4081
441.828
442.3361
442.883
443.4401
443.9899
444.521
445.0348
445.5357
446.0197
446.4806
446.9137
447.3157
447.6849
448.0196
448.3184
448.5817
448.8105
449.0068
449.1724
449.3099
449.4215
449.5094
449.5754
449.6214
449.6485
449.6578
449.6504
449.6267
449.5868
449.5305
449.4572
449.366
449.2551
449.1227
448.9657
448.7805
448.5623
448.3053
448.0026
447.6466
447.2294
446.7439
446.1849
445.5524
444.8552
444.1079
443.314
442.4468
441.4651
440.3189
438.9048
436.9699
433.6964
424.7727
465.1905
446.6248
442.7703
441.6778
441.4695
441.6475
442.019
442.4903
443.0098
443.5469
444.0825
444.6041
445.1109
445.6055
446.0845
446.5426
446.9747
447.377
447.7458
448.0795
448.3774
448.6401
448.8685
449.0641
449.229
449.3654
449.4755
449.5616
449.6256
449.6692
449.694
449.701
449.6915
449.666
449.6244
449.5666
449.4919
449.3995
449.2877
449.1543
448.9962
448.8097
448.5899
448.331
448.0263
447.6682
447.2488
446.7609
446.1996
445.5649
444.8642
444.1113
443.3149
442.45
441.4714
440.329
438.9192
436.9903
433.7281
424.8455
466.4908
447.3616
443.2804
442.068
441.7792
441.8966
442.2215
442.6574
443.1505
443.6684
444.1903
444.7025
445.2021
445.6904
446.1642
446.618
447.0463
447.4449
447.8109
448.1422
448.4378
448.698
448.9239
449.1171
449.2798
449.4139
449.5219
449.6057
449.6674
449.7087
449.731
449.7357
449.7239
449.6966
449.6533
449.5937
449.5174
449.4235
449.3103
449.1755
449.0161
448.8281
448.6066
448.3458
448.0391
447.679
447.2578
446.7682
446.2051
445.5681
444.8644
444.1082
443.3099
442.4463
441.4711
440.3322
438.9263
437.0021
433.7473
424.8856
467.7559
448.0972
443.7937
442.4634
442.0968
442.1566
442.4376
442.84
443.3084
443.8084
444.3179
444.8223
445.3151
445.796
446.2628
446.7101
447.1327
447.5261
447.887
448.2132
448.5041
448.7596
448.9811
449.1703
449.3291
449.4597
449.5643
449.6451
449.7038
449.7422
449.7618
449.7639
449.7499
449.7205
449.6755
449.6142
449.5363
449.4408
449.3261
449.1899
449.029
448.8395
448.6163
448.3537
448.045
447.6829
447.2599
446.7687
446.2042
445.5659
444.8607
444.1028
443.303
442.4404
441.4686
440.3332
438.9314
437.0122
433.7647
424.9147
468.9833
448.8276
444.3082
442.8633
442.4225
442.4283
442.6683
443.0398
443.4851
443.9688
444.4674
444.9651
445.4516
445.9246
446.3834
446.8227
447.2375
447.6232
447.9764
448.2953
448.579
448.8278
449.0429
449.226
449.3794
449.505
449.6051
449.6817
449.7366
449.7716
449.7881
449.7874
449.7709
449.7393
449.6925
449.6297
449.5503
449.4533
449.3373
449.1996
449.0373
448.8462
448.6213
448.3569
448.0463
447.6824
447.2576
446.7648
446.1991
445.5598
444.8536
444.0948
443.2948
442.4337
441.4651
440.3332
438.9353
437.0211
433.7808
424.9395
470.1696
449.5483
444.8229
443.2676
442.7562
442.7117
442.9139
443.2569
443.681
444.1494
444.6375
445.1286
445.6108
446.0773
446.5266
446.9561
447.3609
447.7365
448.0799
448.389
448.6633
448.9032
449.1099
449.2854
449.4317
449.551
449.6453
449.7168
449.7672
449.7982
449.8111
449.8073
449.7881
449.7543
449.7057
449.6413
449.5605
449.4623
449.3449
449.2059
449.0422
448.8495
448.623
448.3568
448.0444
447.6786
447.2521
446.758
446.1912
445.5512
444.8446
444.0855
443.2856
442.4262
441.4608
440.3324
438.9386
437.0296
433.797
424.9685
471.3116
450.2603
445.3374
443.676
443.0979
443.0066
443.174
443.4907
443.8951
444.3488
444.8264
445.3101
445.7875
446.2495
446.6903
447.1082
447.501
447.8646
448.1959
448.4932
448.756
448.9852
449.1819
449.3482
449.4861
449.5979
449.6856
449.7511
449.7963
449.8227
449.8317
449.8246
449.8024
449.766
449.7156
449.6499
449.5678
449.4682
449.3496
449.2095
449.0444
448.8504
448.6223
448.3544
448.0402
447.6727
447.2446
446.7492
446.1815
445.5409
444.8342
444.0754
443.2764
442.419
441.4567
440.3318
438.9422
437.0385
433.8142
425.003
472.4002
450.9699
445.8527
444.0888
443.4475
443.3125
443.4479
443.7403
444.1261
444.5654
445.0319
445.5068
445.977
446.4329
446.8676
447.2757
447.6549
448.0043
448.3218
448.6056
448.8556
449.0725
449.2579
449.4138
449.5423
449.6456
449.7258
449.7848
449.8243
449.8457
449.8505
449.8397
449.8144
449.7755
449.723
449.6557
449.5723
449.4716
449.3519
449.2107
449.0445
448.8492
448.6197
448.3503
448.0345
447.6654
447.2358
446.7392
446.1708
445.53
444.8235
444.0654
443.2676
442.4123
441.453
440.3315
438.946
437.0477
433.8319
425.0411
473.4347
451.6755
446.3692
444.5062
443.8047
443.629
443.7347
444.0045
444.3725
444.7976
445.2521
445.7168
446.1776
446.6244
447.0498
447.4486
447.8171
448.1529
448.455
448.7236
448.9595
449.1632
449.3364
449.481
449.5994
449.6936
449.7657
449.8177
449.8511
449.8674
449.8678
449.8532
449.8247
449.7831
449.7285
449.6595
449.5747
449.4729
449.3522
449.2099
449.0427
448.8462
448.6155
448.3448
448.0276
447.6571
447.2263
446.7288
446.1597
445.5188
444.8128
444.0557
443.2596
442.4066
441.4502
440.3321
438.9506
437.0578
433.8508
425.0819
474.4111
452.3747
446.8871
444.9284
444.1693
443.9553
444.0334
444.282
444.633
445.0438
445.4859
445.9391
446.3887
446.8241
447.2378
447.6241
447.9796
448.302
448.5905
448.845
449.0664
449.256
449.416
449.5488
449.6564
449.7411
449.8049
449.8496
449.8768
449.8878
449.8837
449.8653
449.8336
449.7893
449.7324
449.6617
449.5755
449.4726
449.3508
449.2075
449.0393
448.8419
448.6101
448.3382
448.0198
447.6482
447.2164
446.7182
446.1487
445.508
444.8027
444.0469
443.2526
442.402
441.4484
440.3335
438.956
437.0685
433.8706
425.1247
475.3274
453.066
447.4061
445.355
444.541
444.2908
444.3429
444.5715
444.9061
445.3027
445.7318
446.1724
446.6094
447.0319
447.4318
447.8038
448.1444
448.4517
448.725
448.9646
449.1716
449.3478
449.4951
449.616
449.7126
449.7876
449.8429
449.8803
449.9012
449.9069
449.8984
449.8763
449.8414
449.7944
449.7352
449.6627
449.5752
449.471
449.3482
449.204
449.0348
448.8364
448.6036
448.3307
448.0113
447.6388
447.2063
446.7076
446.138
445.4976
444.7933
444.0392
443.2469
442.3987
441.4478
440.336
438.9624
437.0804
433.8921
425.1709
476.2645
453.753
447.9231
445.7835
444.9184
444.6343
444.662
444.8717
445.1903
445.5726
445.9881
446.4152
446.8383
447.2462
447.6309
447.9869
448.3111
448.6019
448.8588
449.0825
449.2745
449.4367
449.5711
449.6803
449.7665
449.832
449.879
449.9092
449.924
449.9246
449.9118
449.8862
449.8484
449.7987
449.7372
449.663
449.5742
449.4689
449.3449
449.1997
449.0296
448.8303
448.5965
448.3227
448.0025
447.6292
447.1962
446.6972
446.1277
445.4879
444.7848
444.0324
443.2424
442.3966
441.4483
440.3395
438.9697
437.0932
433.9149
425.2223
477.1072
454.4366
448.4392
446.2119
445.3001
444.9844
444.9893
445.1807
445.4837
445.8515
446.2527
446.6652
447.0731
447.465
447.8329
448.1716
448.478
448.7511
448.9907
449.1979
449.3743
449.5221
449.6436
449.7411
449.817
449.8735
449.9126
449.936
449.9451
449.9409
449.9241
449.8952
449.8546
449.8025
449.7389
449.663
449.5728
449.4663
449.3414
449.1952
449.0242
448.8239
448.5892
448.3145
447.9935
447.6197
447.1862
446.6871
446.1179
445.4789
444.7771
444.0268
443.2393
442.3959
441.45
440.3441
438.9779
437.1068
433.9392
425.281
477.915
455.1129
448.9543
446.6411
445.6854
445.34
445.323
445.4968
445.7842
446.1371
446.5231
446.9198
447.3111
447.6856
448.0353
448.3553
448.6429
448.8974
449.119
449.3092
449.4699
449.6033
449.7119
449.798
449.8639
449.9118
449.9435
449.9606
449.9643
449.9557
449.9352
449.9032
449.8601
449.8058
449.7403
449.6627
449.5712
449.4636
449.3377
449.1906
449.0187
448.8175
448.582
448.3065
447.9849
447.6105
447.1767
446.6776
446.1088
445.4707
444.7705
444.0223
443.2372
442.3963
441.4528
440.3496
438.9869
437.1211
433.9641
425.3465
478.6903
455.7801
449.4708
447.0696
446.0715
445.699
445.6613
445.8179
446.0896
446.4268
446.7968
447.1765
447.5497
447.9053
448.2355
448.5357
448.8037
449.039
449.2423
449.4154
449.5604
449.6797
449.7757
449.8509
449.9073
449.947
449.9717
449.9829
449.9817
449.969
449.9451
449.9105
449.865
449.8087
449.7415
449.6624
449.5696
449.4609
449.3342
449.1863
449.0136
448.8117
448.5754
448.2992
447.9769
447.6021
447.1681
446.669
446.1007
445.4636
444.7649
444.0189
443.2364
442.398
441.4566
440.356
438.9965
437.1355
433.9891
425.4174
479.4351
456.437
449.9856
447.4992
446.4585
446.0603
446.0027
446.1421
446.3975
446.7184
447.071
447.4324
447.7863
448.1217
448.4313
448.7109
448.9587
449.1746
449.3596
449.5158
449.6454
449.751
449.835
449.8997
449.9471
449.9792
449.9974
450.0032
449.9974
449.9809
449.9541
449.9169
449.8694
449.8114
449.7426
449.6621
449.5681
449.4586
449.3311
449.1825
449.0091
448.8065
448.5696
448.2928
447.97
447.5948
447.1606
446.6617
446.0939
445.4577
444.7606
444.0168
443.2368
442.4006
441.4613
440.363
439.0064
437.1497
434.013
425.4889
480.1531
457.082
450.4968
447.9277
446.8464
446.4229
446.3454
446.4674
446.7059
447.0093
447.3435
447.6852
448.0184
448.3325
448.6207
448.8791
449.1065
449.3029
449.47
449.6097
449.7246
449.8171
449.8897
449.9445
449.9836
450.0086
450.0209
450.0216
450.0117
449.9917
449.962
449.9227
449.8734
449.8139
449.7437
449.6619
449.5669
449.4565
449.3283
449.1792
449.0053
448.8021
448.5647
448.2875
447.9643
447.5889
447.1547
446.6559
446.0886
445.4534
444.7578
444.016
443.2385
442.4044
441.4668
440.3706
439.0166
437.1637
434.0353
425.5565
480.8437
457.7143
451.0044
448.3536
447.2345
446.7858
446.6881
446.792
447.0126
447.2974
447.6118
447.9325
448.244
448.5359
448.802
449.039
449.246
449.4234
449.573
449.697
449.7978
449.878
449.9399
449.9856
450.0169
450.0354
450.0422
450.0384
450.0247
450.0016
449.9693
449.9279
449.877
449.8162
449.7448
449.662
449.566
449.4549
449.3262
449.1765
449.0022
448.7988
448.561
448.2834
447.9599
447.5842
447.1501
446.6517
446.0851
445.4509
444.7567
444.0166
443.2412
442.409
441.4731
440.3788
439.027
437.1773
434.0554
425.6145
481.5108
458.3336
451.5068
448.7767
447.6208
447.1481
447.0294
447.1142
447.3158
447.5806
447.8739
448.1726
448.4613
448.7303
448.9741
449.1897
449.3767
449.5357
449.6686
449.7776
449.8653
449.934
449.986
450.0232
450.0474
450.0599
450.0618
450.0538
450.0367
450.0107
449.976
449.9326
449.8803
449.8183
449.746
449.6622
449.5655
449.4538
449.3246
449.1746
448.9999
448.7961
448.558
448.2802
447.9567
447.581
447.1471
446.6489
446.0829
445.4497
444.7568
444.0185
443.245
442.4147
441.4803
440.3877
439.0379
437.1906
434.0736
425.6605
482.1511
458.9377
452.0025
449.1961
448.0044
447.508
447.3681
447.4325
447.6136
447.8572
448.1282
448.4037
448.669
448.915
449.1364
449.331
449.4985
449.6398
449.7569
449.8519
449.9273
449.9854
450.0283
450.0578
450.0754
450.0824
450.0797
450.068
450.0477
450.0191
449.9823
449.9372
449.8834
449.8204
449.7472
449.6627
449.5653
449.4531
449.3234
449.1731
448.9982
448.7942
448.5561
448.2782
447.9547
447.5793
447.1455
446.6477
446.0822
445.4498
444.7584
444.022
443.2505
442.4217
441.4887
440.3976
439.0495
437.2043
434.0904
425.6939
482.7711
459.5285
452.4924
449.6107
448.3836
447.8639
447.7025
447.7457
447.905
448.1259
448.3734
448.625
448.8665
449.0891
449.2885
449.4625
449.6113
449.7359
449.8381
449.9201
449.9842
450.0325
450.0671
450.0895
450.1011
450.1031
450.0963
450.0811
450.058
450.027
449.9883
449.9415
449.8864
449.8224
449.7485
449.6634
449.5655
449.4528
449.3228
449.1723
448.9972
448.7932
448.555
448.2772
447.9538
447.5786
447.1453
446.6482
446.0835
445.452
444.7617
444.0268
443.2573
442.4302
441.4983
440.4085
439.062
437.2185
434.1069
425.7178
483.3667
460.1039
452.9735
450.02
448.7574
448.2142
448.031
448.0523
448.1889
448.386
448.6091
448.8361
449.0534
449.2529
449.4306
449.5848
449.7156
449.8244
449.9128
449.9828
450.0365
450.0759
450.1027
450.1186
450.1248
450.1223
450.1116
450.0933
450.0676
450.0345
449.994
449.9457
449.8894
449.8244
449.7499
449.6643
449.566
449.453
449.3228
449.1721
448.997
448.7929
448.5548
448.2772
447.9541
447.5793
447.1465
446.6499
446.086
445.4556
444.7666
444.0333
443.2654
442.4396
441.5089
440.4204
439.0753
437.2335
434.1235
425.7356
483.9091
460.6664
453.448
450.4257
449.1246
448.557
448.3516
448.35
448.4627
448.6352
448.8333
449.0356
449.2289
449.4059
449.5626
449.6979
449.8119
449.9059
449.9814
450.0403
450.0845
450.1158
450.1357
450.1457
450.1469
450.1401
450.1259
450.1047
450.0766
450.0416
449.9994
449.9499
449.8924
449.8266
449.7514
449.6654
449.5668
449.4536
449.3233
449.1725
448.9974
448.7935
448.5555
448.2781
447.9554
447.581
447.1488
446.6529
446.0898
445.4603
444.7725
444.0408
443.2746
442.4503
441.5206
440.4333
439.0897
437.2495
434.1411
425.7523
484.4932
461.2168
453.9145
450.8245
449.4835
448.891
448.663
448.6378
448.7259
448.8733
449.0462
449.2238
449.3936
449.5486
449.6853
449.8027
449.9009
449.9811
450.0447
450.0934
450.1289
450.1527
450.1662
450.1708
450.1674
450.1568
450.1394
450.1155
450.0852
450.0484
450.0048
449.954
449.8956
449.8289
449.7532
449.6668
449.568
449.4547
449.3242
449.1735
448.9985
448.7947
448.5571
448.28
447.9577
447.5838
447.1522
446.6571
446.0948
445.4663
444.7797
444.0494
443.2847
442.4618
441.5332
440.4472
439.1051
437.2665
434.1597
425.7699
485.1543
461.7554
454.3711
451.2153
449.8333
449.2152
448.9641
448.9147
448.9778
449.0997
449.2474
449.4007
449.5477
449.6816
449.7993
449.8998
449.9832
450.0505
450.1031
450.1424
450.1699
450.1869
450.1947
450.1943
450.1867
450.1725
450.1521
450.1257
450.0934
450.0549
450.0099
449.958
449.8987
449.8313
449.7551
449.6684
449.5694
449.456
449.3257
449.1751
449.0003
448.7968
448.5594
448.2828
447.961
447.5877
447.1568
446.6625
446.101
445.4735
444.788
444.059
443.2958
442.4741
441.5466
440.4618
439.1211
437.2843
434.1795
425.7909
485.7415
462.2758
454.8164
451.5971
450.1735
449.529
449.2542
449.18
449.2177
449.3142
449.437
449.5667
449.6916
449.8055
449.9053
449.9899
450.0595
450.1149
450.1573
450.1879
450.208
450.2188
450.2212
450.2163
450.2048
450.1873
450.1641
450.1355
450.1012
450.0611
450.0149
449.962
449.9018
449.8339
449.7572
449.6703
449.5711
449.4578
449.3275
449.1771
449.0026
448.7994
448.5625
448.2864
447.9651
447.5926
447.1624
446.6689
446.1083
445.4817
444.7972
444.0695
443.3077
442.4872
441.5606
440.477
439.1377
437.3026
434.2003
425.8153
486.2942
462.775
455.2492
451.9689
450.5029
449.8314
449.5325
449.4333
449.4456
449.5168
449.6154
449.7222
449.8261
449.921
450.0039
450.0737
450.1304
450.1748
450.2077
450.2303
450.2435
450.2485
450.246
450.237
450.2219
450.2013
450.1756
450.1447
450.1087
450.0671
450.0197
449.9658
449.905
449.8364
449.7594
449.6723
449.5731
449.4598
449.3297
449.1796
449.0054
448.8027
448.5663
448.2907
447.9702
447.5984
447.169
446.6762
446.1165
445.4908
444.8074
444.0808
443.3203
442.5009
441.5753
440.4929
439.1549
437.3217
434.222
425.8413
486.8157
463.2533
455.6689
452.3301
450.8211
450.1221
449.7988
449.6745
449.6615
449.708
449.783
449.868
449.9519
450.0289
450.096
450.1519
450.1966
450.2307
450.2548
450.2699
450.2768
450.2763
450.2693
450.2564
450.238
450.2146
450.1865
450.1536
450.1159
450.0729
450.0244
449.9697
449.9081
449.8391
449.7618
449.6745
449.5753
449.4621
449.3323
449.1825
449.0088
448.8065
448.5706
448.2957
447.9759
447.6049
447.1763
446.6845
446.1256
445.5008
444.8183
444.0928
443.3335
442.5152
441.5905
440.5091
439.1726
437.3411
434.244
425.8676
487.3173
463.7126
456.0755
452.68
451.1277
450.4007
450.0529
449.9036
449.8657
449.8883
449.9407
450.0047
450.0697
450.1299
450.1821
450.2251
450.2586
450.283
450.2989
450.3069
450.3079
450.3024
450.2912
450.2746
450.2532
450.2272
450.1969
450.1621
450.1228
450.0785
450.029
449.9734
449.9113
449.8419
449.7643
449.6769
449.5778
449.4648
449.3353
449.1858
449.0125
448.8108
448.5756
448.3013
447.9823
447.6121
447.1844
446.6935
446.1355
445.5115
444.8299
444.1054
443.3473
442.53
441.6061
440.5258
439.1907
437.361
434.2664
425.8937
487.7537
464.1527
456.4687
453.0186
451.4224
450.6672
450.295
450.121
450.0589
450.0583
450.089
450.1332
450.1804
450.2248
450.263
450.2939
450.3169
450.3323
450.3403
450.3418
450.3371
450.3269
450.3117
450.2918
450.2675
450.2391
450.2067
450.1702
450.1294
450.084
450.0334
449.9772
449.9145
449.8447
449.7669
449.6795
449.5804
449.4677
449.3385
449.1895
449.0167
448.8156
448.581
448.3075
447.9893
447.62
447.1932
446.7031
446.146
445.5228
444.8421
444.1186
443.3615
442.5451
441.6221
440.5429
439.2091
437.3812
434.2889
425.9194
488.1672
464.5742
456.8486
453.3459
451.7062
450.9214
450.5251
450.3272
450.2417
450.2188
450.2289
450.2544
450.2847
450.3141
450.3393
450.3588
450.3719
450.3787
450.3794
450.3745
450.3646
450.3499
450.3309
450.3078
450.2809
450.2503
450.216
450.1779
450.1358
450.0892
450.0378
449.9809
449.9177
449.8477
449.7697
449.6822
449.5833
449.4708
449.342
449.1935
449.0213
448.8207
448.5869
448.3142
447.9968
447.6284
447.2026
446.7134
446.1572
445.5348
444.8549
444.1322
443.3762
442.5607
441.6385
440.5604
439.2279
437.4017
434.3118
425.9452
488.5643
464.9784
457.2153
453.6625
451.9799
451.1636
450.7432
450.5226
450.4147
450.3706
450.3611
450.3688
450.3833
450.3986
450.4115
450.4201
450.4238
450.4225
450.4163
450.4055
450.3904
450.3714
450.3489
450.3228
450.2935
450.2608
450.2248
450.1852
450.1419
450.0943
450.0421
449.9845
449.921
449.8506
449.7726
449.6852
449.5864
449.4742
449.3458
449.1978
449.0261
448.8263
448.5932
448.3213
448.0048
447.6374
447.2126
446.7243
446.1689
445.5473
444.8681
444.1463
443.3912
442.5766
441.6552
440.5781
439.2469
437.4224
434.3349
425.9715
488.9388
465.3658
457.5691
453.9687
452.2432
451.3946
450.9502
450.7079
450.5786
450.5144
450.4863
450.4772
450.4767
450.4787
450.4798
450.4782
450.4731
450.464
450.4511
450.4346
450.4147
450.3917
450.3657
450.3369
450.3052
450.2707
450.233
450.1922
450.1477
450.0992
450.0463
449.9881
449.9242
449.8537
449.7756
449.6882
449.5896
449.4778
449.3498
449.2023
449.0313
448.8321
448.5998
448.3288
448.0133
447.6469
447.223
446.7357
446.1811
445.5602
444.8818
444.1607
443.4065
442.5927
441.6721
440.596
439.2662
437.4435
434.3584
425.9987
489.2934
465.7374
457.9102
454.2646
452.4965
451.6151
451.1471
450.8838
450.7342
450.6508
450.6052
450.5801
450.5654
450.5548
450.5448
450.5334
450.5198
450.5033
450.484
450.4621
450.4375
450.4106
450.3814
450.35
450.3161
450.2798
450.2408
450.1987
450.1532
450.104
450.0503
449.9917
449.9275
449.8568
449.7787
449.6913
449.593
449.4815
449.354
449.2071
449.0367
448.8383
448.6068
448.3367
448.0222
447.6567
447.2338
446.7474
446.1937
445.5736
444.8958
444.1754
443.422
442.6091
441.6893
440.6142
439.2857
437.4646
434.382
426.0266
489.6297
466.0938
458.2391
454.5505
452.7403
451.8257
451.3345
451.0512
450.8823
450.7807
450.7183
450.6782
450.6499
450.6273
450.6066
450.5859
450.5641
450.5405
450.5151
450.4879
450.459
450.4284
450.3961
450.3621
450.3263
450.2883
450.248
450.2048
450.1585
450.1085
450.0543
449.9953
449.9308
449.86
449.7818
449.6946
449.5965
449.4855
449.3585
449.2121
449.0424
448.8447
448.6141
448.3449
448.0314
447.667
447.245
446.7596
446.2066
445.5872
444.9101
444.1904
443.4378
442.6256
441.7066
440.6325
439.3053
437.4859
434.4058
426.0551
489.9514
466.4357
458.5564
454.8268
452.9749
452.0273
451.5134
451.2109
451.0234
450.9045
450.8263
450.7718
450.7306
450.6964
450.6656
450.6359
450.6062
450.5758
450.5445
450.5122
450.479
450.4449
450.4097
450.3734
450.3357
450.2962
450.2547
450.2106
450.1635
450.1129
450.0582
449.9989
449.9341
449.8632
449.785
449.6979
449.6002
449.4895
449.363
449.2173
449.0483
448.8514
448.6216
448.3534
448.0409
447.6775
447.2566
446.772
446.2198
445.6011
444.9245
444.2055
443.4537
442.6423
441.724
440.6509
439.3249
437.5072
434.4297
426.0837
490.2607
466.7641
458.8624
455.094
453.2018
452.2219
451.6841
451.3628
451.1581
451.0229
450.9295
450.8613
450.8077
450.7625
450.7218
450.6835
450.6461
450.6091
450.5721
450.535
450.4978
450.4602
450.4223
450.3838
450.3443
450.3035
450.2609
450.2159
450.1682
450.1171
450.062
450.0024
449.9375
449.8665
449.7884
449.7014
449.604
449.4937
449.3678
449.2227
449.0544
448.8583
448.6294
448.3622
448.0507
447.6883
447.2684
446.7847
446.2333
445.6152
444.9392
444.2208
443.4697
442.659
441.7415
440.6694
439.3446
437.5287
434.4536
426.1121
490.5582
467.0796
459.1577
455.3528
453.4216
452.4098
451.8478
451.5081
451.287
451.1362
451.0285
450.947
450.8815
450.8257
450.7756
450.7288
450.6841
450.6407
450.5981
450.5564
450.5152
450.4745
450.434
450.3934
450.3523
450.3102
450.2666
450.2209
450.1726
450.121
450.0657
450.0059
449.9408
449.8699
449.7918
449.7051
449.6079
449.4981
449.3727
449.2282
449.0606
448.8654
448.6374
448.3712
448.0607
447.6994
447.2805
446.7976
446.2469
445.6294
444.954
444.2362
443.4858
442.6758
441.7591
440.6879
439.3645
437.5503
434.4776
426.1402
490.8438
467.3826
459.443
455.604
453.6352
452.5917
452.0053
451.6474
451.4107
451.245
451.1234
451.0293
450.9524
450.8862
450.8269
450.772
450.7201
450.6704
450.6226
450.5763
450.5313
450.4876
450.4447
450.4022
450.3596
450.3163
450.2718
450.2255
450.1767
450.1248
450.0693
450.0093
449.9443
449.8733
449.7954
449.7088
449.612
449.5026
449.3777
449.2339
449.067
448.8727
448.6457
448.3805
448.071
447.7107
447.2927
446.8107
446.2607
445.6438
444.9688
444.2516
443.5019
442.6927
441.7767
440.7065
439.3844
437.572
434.5017
426.1679
491.1154
467.6737
459.7189
455.8482
453.8431
452.7681
452.1573
451.7816
451.5297
451.3497
451.2148
451.1084
451.0204
450.9442
450.8759
450.813
450.7542
450.6985
450.6454
450.5947
450.5462
450.4996
450.4544
450.4102
450.3662
450.3219
450.2766
450.2297
450.1805
450.1284
450.0727
450.0127
449.9477