/*--------------------------------*- C++ -*----------------------------------*\
| =========                 |                                                 |
| \\      /  F ield         | OpenFOAM: The Open Source CFD Toolbox           |
|  \\    /   O peration     | Version:  2312                                  |
|   \\  /    A nd           | Website:  www.openfoam.com                      |
|    \\/     M anipulation  |                                                 |
\*---------------------------------------------------------------------------*/
FoamFile
{
    version     2.0;
    format      ascii;
    arch        "LSB;label=32;scalar=64";
    class       volVectorField;
    location    "4200";
    object      U;
}
// * * * * * * * * * * * * * * * * * * * * * * * * * * * * * * * * * * * * * //

dimensions      [0 1 -1 0 0 0 0];

internalField   nonuniform List<vector> 
12000
(
(-0.02598965 0.0562018 0)
(-0.06368997 0.06656998 0)
(-0.1073037 0.08527541 0)
(-0.1591127 0.08873737 0)
(-0.2070593 0.06819768 0)
(-0.248822 0.05354902 0)
(-0.2864031 0.07285549 0)
(-0.3312595 0.1020324 0)
(-0.377907 0.0908291 0)
(-0.4168027 0.04349717 0)
(-0.4432136 0.0366132 0)
(-0.4736858 0.06747179 0)
(-0.5107185 0.07375524 0)
(-0.5417597 0.04310748 0)
(-0.564098 0.02578977 0)
(-0.5851338 0.03749336 0)
(-0.6089933 0.04097878 0)
(-0.6293148 0.02779953 0)
(-0.6459208 0.02985119 0)
(-0.6648359 0.04269057 0)
(-0.6842349 0.02879517 0)
(-0.6958822 0.002035023 0)
(-0.7030492 0.009531757 0)
(-0.7153706 0.03520233 0)
(-0.7303881 0.02687269 0)
(-0.7380751 -0.002631239 0)
(-0.7402505 -0.004050088 0)
(-0.7454399 0.01546736 0)
(-0.7533287 0.01810771 0)
(-0.7583615 0.00610324 0)
(-0.7607301 -0.0004977646 0)
(-0.7609356 -0.002543694 0)
(-0.7607753 -0.00512071 0)
(-0.7598673 0.003419525 0)
(-0.7604525 0.007085958 0)
(-0.7590344 -0.00578009 0)
(-0.7524409 -0.03237978 0)
(-0.7396651 -0.04859318 0)
(-0.7258362 -0.01447283 0)
(-0.7241721 0.02178152 0)
(-0.7247498 0.01568786 0)
(-0.7160819 -0.04046566 0)
(-0.6919216 -0.09858815 0)
(-0.6607913 -0.04553283 0)
(-0.6546169 0.04755133 0)
(-0.6528329 0.04900663 0)
(-0.6415126 -0.07066073 0)
(-0.6009355 -0.1422635 0)
(-0.5578462 -0.05218861 0)
(-0.54466 0.05498469 0)
(-0.5357458 -0.01311668 0)
(-0.4919071 -0.1401912 0)
(-0.4375625 -0.100387 0)
(-0.4038702 -0.02366343 0)
(-0.3674241 -0.05680692 0)
(-0.316252 -0.1069643 0)
(-0.2519284 -0.1160613 0)
(-0.18991 -0.09930565 0)
(-0.1078236 -0.1159735 0)
(-0.04349832 -0.1120393 0)
(-0.03413253 0.1916223 0)
(-0.06726049 0.179785 0)
(-0.1170413 0.1872749 0)
(-0.1520317 0.1954643 0)
(-0.1935088 0.1897688 0)
(-0.2347065 0.1754197 0)
(-0.2756574 0.1633336 0)
(-0.3060691 0.1605619 0)
(-0.3340155 0.1539296 0)
(-0.3622556 0.1425773 0)
(-0.3957901 0.1283933 0)
(-0.4229155 0.1256758 0)
(-0.4417391 0.1212687 0)
(-0.4608212 0.1099907 0)
(-0.4842683 0.09881168 0)
(-0.5055504 0.09186519 0)
(-0.5217627 0.08562989 0)
(-0.5372565 0.07831885 0)
(-0.5532351 0.07235375 0)
(-0.5651295 0.06743797 0)
(-0.5739598 0.06030071 0)
(-0.5860304 0.0520402 0)
(-0.5999323 0.04679106 0)
(-0.6079008 0.04364589 0)
(-0.6110673 0.03843775 0)
(-0.6173732 0.03103924 0)
(-0.6267318 0.02552416 0)
(-0.6322988 0.02248614 0)
(-0.6333438 0.01946954 0)
(-0.634326 0.01470429 0)
(-0.6361623 0.008818667 0)
(-0.6377087 0.003202728 0)
(-0.6380871 0.0007032339 0)
(-0.636679 -0.003576912 0)
(-0.6320135 -0.008745248 0)
(-0.6259999 -0.01624279 0)
(-0.6229212 -0.02281345 0)
(-0.6231617 -0.02666106 0)
(-0.6217419 -0.02984434 0)
(-0.6097289 -0.0342909 0)
(-0.5905611 -0.04127161 0)
(-0.5750763 -0.05161953 0)
(-0.5735228 -0.05767039 0)
(-0.5733641 -0.06281339 0)
(-0.5548022 -0.07006792 0)
(-0.5179605 -0.07620789 0)
(-0.4922503 -0.08618686 0)
(-0.4889611 -0.09698062 0)
(-0.482596 -0.1079573 0)
(-0.4497716 -0.1178417 0)
(-0.4020774 -0.1308862 0)
(-0.3798051 -0.1448375 0)
(-0.3683945 -0.1570242 0)
(-0.3341249 -0.1711022 0)
(-0.2946329 -0.1885308 0)
(-0.2414702 -0.2312812 0)
(-0.2171904 -0.2454208 0)
(-0.1587802 -0.2989853 0)
(-0.09580714 -0.3256033 0)
(-0.04527558 -0.3365991 0)
(-0.02789294 0.3345997 0)
(-0.05395999 0.3163938 0)
(-0.09668706 0.3103593 0)
(-0.1262677 0.3063421 0)
(-0.1582726 0.2974421 0)
(-0.1874392 0.284557 0)
(-0.2172265 0.2723363 0)
(-0.2465013 0.2607074 0)
(-0.2690587 0.248021 0)
(-0.2958922 0.2239589 0)
(-0.3220488 0.2057444 0)
(-0.3459783 0.1925598 0)
(-0.3653348 0.1793388 0)
(-0.382997 0.165702 0)
(-0.4004094 0.1525536 0)
(-0.416819 0.1408703 0)
(-0.4317384 0.1297428 0)
(-0.4455586 0.1189191 0)
(-0.4584332 0.1088361 0)
(-0.4699499 0.09918134 0)
(-0.4803053 0.08930378 0)
(-0.4902097 0.07965106 0)
(-0.4994902 0.07119103 0)
(-0.5073528 0.06341957 0)
(-0.5138829 0.05513797 0)
(-0.5198761 0.04654905 0)
(-0.5253981 0.03875546 0)
(-0.5297664 0.03172938 0)
(-0.5327155 0.02461274 0)
(-0.5344799 0.0171812 0)
(-0.5359908 0.009393904 0)
(-0.5366067 0.003753909 0)
(-0.5361284 -0.005802482 0)
(-0.5342509 -0.01357088 0)
(-0.5313195 -0.02142178 0)
(-0.5276536 -0.029856 0)
(-0.5234547 -0.03864312 0)
(-0.5183467 -0.04715113 0)
(-0.5116128 -0.05489456 0)
(-0.5032278 -0.06295561 0)
(-0.4935599 -0.07240578 0)
(-0.4832784 -0.0833888 0)
(-0.4723185 -0.09506015 0)
(-0.4597967 -0.1055254 0)
(-0.4452728 -0.1162985 0)
(-0.4288837 -0.1291398 0)
(-0.4114031 -0.1432574 0)
(-0.3927937 -0.1583109 0)
(-0.3725694 -0.1724181 0)
(-0.3503972 -0.1870591 0)
(-0.3272167 -0.2033591 0)
(-0.305401 -0.2175947 0)
(-0.2768038 -0.2327797 0)
(-0.2511508 -0.2527098 0)
(-0.2090012 -0.298157 0)
(-0.1802729 -0.3278216 0)
(-0.1421698 -0.3658508 0)
(-0.1078959 -0.4103192 0)
(-0.06419731 -0.4640873 0)
(-0.02684762 -0.4864368 0)
(-0.01996492 0.4288429 0)
(-0.0438077 0.4026356 0)
(-0.07502994 0.3925078 0)
(-0.1006085 0.3810996 0)
(-0.1265099 0.3669273 0)
(-0.1498257 0.3500651 0)
(-0.17271 0.3328415 0)
(-0.1940032 0.3166538 0)
(-0.2143426 0.3026966 0)
(-0.2308897 0.2909468 0)
(-0.2524411 0.2699343 0)
(-0.2690538 0.2522846 0)
(-0.2892659 0.2292857 0)
(-0.3049731 0.2122343 0)
(-0.320945 0.1969369 0)
(-0.335444 0.1825263 0)
(-0.3490567 0.1686883 0)
(-0.3618344 0.1552718 0)
(-0.3737598 0.142341 0)
(-0.3845508 0.1299525 0)
(-0.394266 0.1180143 0)
(-0.4031824 0.1064118 0)
(-0.4112486 0.09522197 0)
(-0.41832 0.0843869 0)
(-0.4244236 0.07374172 0)
(-0.4297276 0.06322471 0)
(-0.4342529 0.05290588 0)
(-0.4378555 0.04278376 0)
(-0.4403239 0.03276834 0)
(-0.442361 0.02269878 0)
(-0.4435087 0.01488476 0)
(-0.4436049 0.003256137 0)
(-0.4426598 -0.007478961 0)
(-0.4411357 -0.01798746 0)
(-0.4386422 -0.02857543 0)
(-0.4352936 -0.03950288 0)
(-0.4310936 -0.05070697 0)
(-0.4260216 -0.06214461 0)
(-0.419895 -0.07389852 0)
(-0.4125683 -0.086107 0)
(-0.4040702 -0.09886933 0)
(-0.3945986 -0.1122494 0)
(-0.3840559 -0.12629 0)
(-0.372922 -0.1406936 0)
(-0.3606258 -0.1562095 0)
(-0.3467771 -0.1727668 0)
(-0.3317496 -0.1902374 0)
(-0.3158622 -0.2090122 0)
(-0.298834 -0.2285197 0)
(-0.2791946 -0.2454948 0)
(-0.2632782 -0.2580036 0)
(-0.2382472 -0.28713 0)
(-0.2118533 -0.3235367 0)
(-0.1837332 -0.3562869 0)
(-0.1568425 -0.3862812 0)
(-0.130692 -0.4187419 0)
(-0.1027384 -0.4574584 0)
(-0.07508267 -0.5050442 0)
(-0.04476218 -0.5600023 0)
(-0.01766999 -0.5886669 0)
(-0.01463156 0.5108793 0)
(-0.03515323 0.4812971 0)
(-0.05909154 0.4672757 0)
(-0.08017183 0.4520829 0)
(-0.101254 0.4344822 0)
(-0.1209226 0.4149356 0)
(-0.1402355 0.3943807 0)
(-0.1584416 0.3733977 0)
(-0.1752867 0.3518152 0)
(-0.1903565 0.3306535 0)
(-0.2050667 0.3126076 0)
(-0.2165156 0.2984775 0)
(-0.231192 0.2785539 0)
(-0.2466919 0.2564449 0)
(-0.2598117 0.2373781 0)
(-0.2723757 0.2195187 0)
(-0.2834601 0.2038495 0)
(-0.2938242 0.1887719 0)
(-0.3039335 0.1727081 0)
(-0.3128789 0.157065 0)
(-0.3209456 0.1422533 0)
(-0.3283383 0.1280616 0)
(-0.3349371 0.1143213 0)
(-0.3407504 0.1009355 0)
(-0.3457818 0.0878169 0)
(-0.3500616 0.07490843 0)
(-0.3536071 0.0621786 0)
(-0.3563733 0.04958148 0)
(-0.3584959 0.03704199 0)
(-0.3597608 0.02703183 0)
(-0.3602226 0.0136427 0)
(-0.3597175 0.0008403029 0)
(-0.3588147 -0.011962 0)
(-0.3570149 -0.02475961 0)
(-0.3547303 -0.03763701 0)
(-0.3518176 -0.05092553 0)
(-0.3479426 -0.06457697 0)
(-0.3432758 -0.07856968 0)
(-0.3377779 -0.09297138 0)
(-0.3314375 -0.1078837 0)
(-0.3242361 -0.1234241 0)
(-0.3163906 -0.139693 0)
(-0.3069563 -0.156755 0)
(-0.2980854 -0.1713067 0)
(-0.286665 -0.1910704 0)
(-0.2752012 -0.2108634 0)
(-0.2627667 -0.2312682 0)
(-0.2482468 -0.2520079 0)
(-0.235621 -0.2705637 0)
(-0.2195187 -0.2943968 0)
(-0.1997555 -0.3252164 0)
(-0.1791779 -0.356453 0)
(-0.159797 -0.3855255 0)
(-0.1409437 -0.4149907 0)
(-0.1210742 -0.4477961 0)
(-0.1000951 -0.4846676 0)
(-0.0781361 -0.5264517 0)
(-0.05631296 -0.574517 0)
(-0.03343347 -0.6314842 0)
(-0.01249885 -0.6643188 0)
(-0.01113344 0.5731589 0)
(-0.02780618 0.5400418 0)
(-0.04577079 0.5222195 0)
(-0.06196716 0.5042618 0)
(-0.07799752 0.4843478 0)
(-0.09313432 0.4628929 0)
(-0.1078665 0.440637 0)
(-0.1220033 0.4181248 0)
(-0.135639 0.3955919 0)
(-0.1489718 0.3731983 0)
(-0.161362 0.3510099 0)
(-0.1739385 0.3297593 0)
(-0.1837834 0.3117534 0)
(-0.1933339 0.2927274 0)
(-0.2048498 0.2706837 0)
(-0.214894 0.2503452 0)
(-0.2244881 0.2314686 0)
(-0.2331302 0.2134407 0)
(-0.241022 0.1959713 0)
(-0.2483104 0.1789259 0)
(-0.2550325 0.1623345 0)
(-0.2611032 0.1462111 0)
(-0.2665121 0.1304972 0)
(-0.2712596 0.1151411 0)
(-0.2753531 0.1000899 0)
(-0.2788055 0.08529654 0)
(-0.2816287 0.07072031 0)
(-0.2838207 0.05632422 0)
(-0.2854852 0.04205655 0)
(-0.2862458 0.0279283 0)
(-0.2861289 0.0136862 0)
(-0.2858592 -0.0006912965 0)
(-0.2851978 -0.01540233 0)
(-0.2836579 -0.0303694 0)
(-0.281758 -0.04319466 0)
(-0.2789427 -0.05929194 0)
(-0.2756476 -0.07524627 0)
(-0.2716706 -0.09137262 0)
(-0.2670565 -0.1078647 0)
(-0.2617795 -0.1248467 0)
(-0.2558298 -0.1424135 0)
(-0.2492075 -0.1606456 0)
(-0.2419938 -0.1795269 0)
(-0.2336843 -0.1994309 0)
(-0.2243906 -0.2205151 0)
(-0.2148916 -0.2425398 0)
(-0.2035593 -0.265369 0)
(-0.1940748 -0.2872064 0)
(-0.1801918 -0.3144203 0)
(-0.1664896 -0.3431666 0)
(-0.1520845 -0.3723154 0)
(-0.1379151 -0.4019632 0)
(-0.1232599 -0.4331105 0)
(-0.1077252 -0.4664663 0)
(-0.0913982 -0.5022342 0)
(-0.0746172 -0.5407727 0)
(-0.05764387 -0.5830266 0)
(-0.04095897 -0.630693 0)
(-0.0241729 -0.6852844 0)
(-0.008746434 -0.7181879 0)
(-0.00849081 0.6227498 0)
(-0.02189096 0.5861339 0)
(-0.0355932 0.5649084 0)
(-0.04807465 0.5447078 0)
(-0.06036362 0.5230556 0)
(-0.07206904 0.5001389 0)
(-0.08347286 0.4764967 0)
(-0.09449571 0.4525557 0)
(-0.1051585 0.4286166 0)
(-0.1154842 0.4049089 0)
(-0.1254488 0.3816562 0)
(-0.1348131 0.3587412 0)
(-0.1439661 0.3363776 0)
(-0.1519986 0.3165261 0)
(-0.1585252 0.2976211 0)
(-0.1673143 0.2760481 0)
(-0.1745449 0.2551538 0)
(-0.1815699 0.2351541 0)
(-0.1879527 0.2157571 0)
(-0.193799 0.196885 0)
(-0.1991104 0.1785192 0)
(-0.2038853 0.1606214 0)
(-0.2081226 0.1431457 0)
(-0.2118245 0.1260443 0)
(-0.2149951 0.1092684 0)
(-0.2176401 0.09276928 0)
(-0.2197655 0.07649828 0)
(-0.2213722 0.06040351 0)
(-0.2224697 0.04442466 0)
(-0.2230473 0.02853477 0)
(-0.2230177 0.01253211 0)
(-0.2227548 -0.001476432 0)
(-0.2221427 -0.01808969 0)
(-0.2210614 -0.03455906 0)
(-0.2192507 -0.05109648 0)
(-0.2167877 -0.06801791 0)
(-0.2140466 -0.08526146 0)
(-0.2108175 -0.1029096 0)
(-0.2070978 -0.1210422 0)
(-0.2028582 -0.1397476 0)
(-0.1980798 -0.1591113 0)
(-0.1927422 -0.1792165 0)
(-0.1868149 -0.2001373 0)
(-0.1802453 -0.2219121 0)
(-0.1732843 -0.2448346 0)
(-0.1649376 -0.2685415 0)
(-0.1580029 -0.2918031 0)
(-0.1478351 -0.3189462 0)
(-0.1380864 -0.3471865 0)
(-0.127718 -0.3763144 0)
(-0.1170367 -0.4067705 0)
(-0.105851 -0.4385025 0)
(-0.09411306 -0.471536 0)
(-0.0819223 -0.5060505 0)
(-0.06941507 -0.542413 0)
(-0.05670144 -0.5811817 0)
(-0.04385884 -0.6232805 0)
(-0.03119249 -0.6703768 0)
(-0.01848142 -0.7246482 0)
(-0.006558656 -0.7587368 0)
(-0.006314033 0.6620033 0)
(-0.01670901 0.6226315 0)
(-0.02684399 0.598219 0)
(-0.03610281 0.5760218 0)
(-0.04517063 0.5530193 0)
(-0.05385369 0.5290891 0)
(-0.06235189 0.504599 0)
(-0.07063938 0.4798879 0)
(-0.07873119 0.455199 0)
(-0.08661328 0.4306943 0)
(-0.09426166 0.4064915 0)
(-0.1016382 0.3826572 0)
(-0.1087324 0.359174 0)
(-0.1153699 0.3362329 0)
(-0.1217359 0.314737 0)
(-0.1261608 0.2946679 0)
(-0.1323999 0.2729557 0)
(-0.1374297 0.2515896 0)
(-0.1423644 0.2309021 0)
(-0.1468482 0.2107366 0)
(-0.1509331 0.1910677 0)
(-0.1546027 0.1718558 0)
(-0.1578577 0.153063 0)
(-0.1606992 0.1346491 0)
(-0.1631315 0.1165717 0)
(-0.1651602 0.09878583 0)
(-0.1667918 0.08124365 0)
(-0.1680328 0.06389347 0)
(-0.168891 0.04667935 0)
(-0.1693716 0.02954533 0)
(-0.1694949 0.01242654 0)
(-0.1692174 -0.003024024 0)
(-0.1685181 -0.02061879 0)
(-0.1675457 -0.03824513 0)
(-0.1661929 -0.05597456 0)
(-0.1644763 -0.0740358 0)
(-0.1624165 -0.09244846 0)
(-0.1599921 -0.1113025 0)
(-0.1571961 -0.1306811 0)
(-0.1540161 -0.1506734 0)
(-0.1504412 -0.1713689 0)
(-0.1464552 -0.1928589 0)
(-0.1420366 -0.2152259 0)
(-0.1373379 -0.23863 0)
(-0.1315236 -0.2628952 0)
(-0.1267769 -0.2872203 0)
(-0.1195924 -0.3144932 0)
(-0.1126657 -0.3429577 0)
(-0.1051446 -0.3723695 0)
(-0.09723349 -0.4028896 0)
(-0.08889443 -0.4345228 0)
(-0.08017858 -0.4673181 0)
(-0.07111935 -0.501386 0)
(-0.06176018 -0.5369088 0)
(-0.05216158 -0.5741688 0)
(-0.04241036 -0.613627 0)
(-0.03260758 -0.6560759 0)
(-0.02295422 -0.7029296 0)
(-0.01350484 -0.7557523 0)
(-0.004701974 -0.7890093 0)
(-0.004640152 0.690879 0)
(-0.01257191 0.6490775 0)
(-0.01992642 0.6219269 0)
(-0.02663545 0.5981314 0)
(-0.03315378 0.574133 0)
(-0.03941538 0.5495702 0)
(-0.04554642 0.5246308 0)
(-0.05153855 0.4995073 0)
(-0.05740202 0.4743813 0)
(-0.06312512 0.4493875 0)
(-0.06869457 0.4246253 0)
(-0.07408761 0.4001663 0)
(-0.07931167 0.376066 0)
(-0.08428962 0.3523816 0)
(-0.08898094 0.3291028 0)
(-0.09365575 0.3068594 0)
(-0.09648997 0.2859399 0)
(-0.1008692 0.264015 0)
(-0.104252 0.2423376 0)
(-0.1076212 0.2211949 0)
(-0.1106646 0.2005025 0)
(-0.1134068 0.1802574 0)
(-0.1158375 0.1604348 0)
(-0.1179586 0.1410028 0)
(-0.1197743 0.1219242 0)
(-0.1212913 0.103156 0)
(-0.122517 0.08465223 0)
(-0.1234587 0.06636284 0)
(-0.1241246 0.04823312 0)
(-0.1245199 0.03020537 0)
(-0.1246732 0.01221856 0)
(-0.1244895 -0.004441196 0)
(-0.123976 -0.02276559 0)
(-0.1232834 -0.04119831 0)
(-0.122337 -0.05982266 0)
(-0.1211408 -0.0787346 0)
(-0.1196949 -0.09801651 0)
(-0.1179908 -0.1177577 0)
(-0.1160218 -0.1380472 0)
(-0.1137792 -0.1589753 0)
(-0.1112557 -0.1806324 0)
(-0.1084182 -0.2031073 0)
(-0.1054414 -0.2264897 0)
(-0.10159 -0.2508502 0)
(-0.09856208 -0.2757372 0)
(-0.09371638 -0.3028432 0)
(-0.08907336 -0.3311957 0)
(-0.083941 -0.3605822 0)
(-0.07847564 -0.3911017 0)
(-0.07262299 -0.4227277 0)
(-0.06639901 -0.4554374 0)
(-0.0598361 -0.4892125 0)
(-0.05298665 -0.5240846 0)
(-0.04591635 -0.5601651 0)
(-0.03870037 -0.5976873 0)
(-0.03141968 -0.6370801 0)
(-0.02415297 -0.6791255 0)
(-0.01702903 -0.7252662 0)
(-0.01007895 -0.7772873 0)
(-0.003495184 -0.810911 0)
(-0.003171357 0.7138914 0)
(-0.009008753 0.6698461 0)
(-0.0142039 0.6401438 0)
(-0.0187019 0.6147773 0)
(-0.02297992 0.5899236 0)
(-0.02706902 0.5647865 0)
(-0.031094 0.5393417 0)
(-0.03509953 0.5137798 0)
(-0.03908229 0.4882423 0)
(-0.04303455 0.462843 0)
(-0.04693728 0.4376644 0)
(-0.05076687 0.4127696 0)
(-0.05450232 0.388208 0)
(-0.05811201 0.3640256 0)
(-0.06160207 0.3402306 0)
(-0.06475202 0.3168347 0)
(-0.06809025 0.2941897 0)
(-0.06995813 0.2726359 0)
(-0.07287857 0.2506902 0)
(-0.07503807 0.2289625 0)
(-0.07716962 0.2075905 0)
(-0.07905584 0.186611 0)
(-0.08074115 0.1660378 0)
(-0.08222901 0.1458592 0)
(-0.08352286 0.1260499 0)
(-0.08462629 0.1065724 0)
(-0.08554294 0.08738235 0)
(-0.08627663 0.06843008 0)
(-0.08683171 0.04965925 0)
(-0.08720807 0.03100883 0)
(-0.08743654 0.01241476 0)
(-0.08741017 -0.005211464 0)
(-0.08714572 -0.02402427 0)
(-0.08677063 -0.04297731 0)
(-0.08623695 -0.06214913 0)
(-0.08554503 -0.08162471 0)
(-0.08468826 -0.1014896 0)
(-0.08366008 -0.1218332 0)
(-0.08245312 -0.1427464 0)
(-0.08105875 -0.1643215 0)
(-0.07946596 -0.1866509 0)
(-0.07766756 -0.209824 0)
(-0.07561063 -0.2339399 0)
(-0.07342137 -0.2589987 0)
(-0.07072756 -0.2856281 0)
(-0.06780618 -0.3136413 0)
(-0.06462732 -0.3427649 0)
(-0.06113851 -0.3731197 0)
(-0.05729408 -0.4046636 0)
(-0.05308165 -0.4373225 0)
(-0.04851762 -0.470978 0)
(-0.04366129 -0.5055585 0)
(-0.03858445 -0.5410776 0)
(-0.03335423 -0.5776513 0)
(-0.02803373 -0.6155244 0)
(-0.02268434 -0.6551337 0)
(-0.01736419 -0.6972478 0)
(-0.01215238 -0.7432204 0)
(-0.007134239 -0.7945575 0)
(-0.002427584 -0.8276424 0)
(-0.002100142 0.7305669 0)
(-0.006154031 0.6832066 0)
(-0.009544246 0.6508635 0)
(-0.01234084 0.6242964 0)
(-0.01505046 0.5986414 0)
(-0.01751404 0.5731635 0)
(-0.02003077 0.5478794 0)
(-0.0225059 0.5225484 0)
(-0.02499795 0.4972349 0)
(-0.02748484 0.4719891 0)
(-0.02995868 0.4468684 0)
(-0.03240356 0.4219226 0)
(-0.03481672 0.3971971 0)
(-0.03719641 0.3727347 0)
(-0.03953361 0.3485634 0)
(-0.04175363 0.3247264 0)
(-0.04383459 0.301184 0)
(-0.04587618 0.2782413 0)
(-0.04713138 0.2559495 0)
(-0.04864113 0.2336958 0)
(-0.04990042 0.2117873 0)
(-0.0510715 0.1903507 0)
(-0.05212532 0.1694061 0)
(-0.05307235 0.1488738 0)
(-0.0539129 0.1287129 0)
(-0.05465275 0.1088807 0)
(-0.05529626 0.08933233 0)
(-0.05584624 0.07001865 0)
(-0.05630461 0.05088469 0)
(-0.05666843 0.03187083 0)
(-0.05696683 0.01291291 0)
(-0.05709868 -0.005407183 0)
(-0.0570781 -0.02452476 0)
(-0.0570033 -0.04380284 0)
(-0.05683883 -0.06331895 0)
(-0.05658352 -0.08315553 0)
(-0.05623022 -0.1034 0)
(-0.05577176 -0.1241444 0)
(-0.05519959 -0.1454844 0)
(-0.05450356 -0.1675194 0)
(-0.05366924 -0.1903509 0)
(-0.05269068 -0.2140816 0)
(-0.05148674 -0.2388135 0)
(-0.05022636 -0.2646347 0)
(-0.04846198 -0.2917948 0)
(-0.04699343 -0.3202236 0)
(-0.04499136 -0.3502034 0)
(-0.04283816 -0.3815278 0)
(-0.04032436 -0.4140957 0)
(-0.03743058 -0.4477718 0)
(-0.03417571 -0.4823126 0)
(-0.03066808 -0.5175498 0)
(-0.02701607 -0.5534962 0)
(-0.02328024 -0.5902869 0)
(-0.01951221 -0.6281719 0)
(-0.01575576 -0.6676015 0)
(-0.01205078 -0.7093469 0)
(-0.008442977 -0.7547619 0)
(-0.004988958 -0.8053963 0)
(-0.001714025 -0.8385487 0)
(-0.00185347 0.7425465 0)
(-0.00456087 0.6933556 0)
(-0.006298919 0.6592463 0)
(-0.007899354 0.6314727 0)
(-0.008650718 0.6053457 0)
(-0.01002705 0.5795898 0)
(-0.0108775 0.5538473 0)
(-0.01200328 0.52815 0)
(-0.01307912 0.5025164 0)
(-0.01421318 0.4769883 0)
(-0.01539698 0.4516251 0)
(-0.01663143 0.4264894 0)
(-0.01789451 0.4017188 0)
(-0.01916942 0.377291 0)
(-0.0204034 0.3530928 0)
(-0.02153495 0.329129 0)
(-0.02251204 0.3054111 0)
(-0.02347356 0.2819781 0)
(-0.02407468 0.2590804 0)
(-0.02489536 0.2367226 0)
(-0.02558876 0.2147569 0)
(-0.02648716 0.1931173 0)
(-0.02720503 0.1718613 0)
(-0.02795458 0.1510301 0)
(-0.02865792 0.1305994 0)
(-0.02932157 0.1105355 0)
(-0.02994491 0.09078639 0)
(-0.03052898 0.07129089 0)
(-0.0310731 0.05198771 0)
(-0.03157094 0.03281934 0)
(-0.03204425 0.01371438 0)
(-0.03240864 -0.005036683 0)
(-0.03267893 -0.02428275 0)
(-0.03293183 -0.04370769 0)
(-0.03314024 -0.06338571 0)
(-0.03330425 -0.08340193 0)
(-0.03341915 -0.1038465 0)
(-0.03347999 -0.1248139 0)
(-0.03348112 -0.1464036 0)
(-0.03341597 -0.1687199 0)
(-0.03327553 -0.191871 0)
(-0.03305729 -0.2159678 0)
(-0.03268477 -0.2411129 0)
(-0.03231326 -0.2674123 0)
(-0.03172712 -0.2950188 0)
(-0.03069326 -0.3240854 0)
(-0.02978335 -0.3545397 0)
(-0.02867789 -0.3864697 0)
(-0.02707375 -0.4200732 0)
(-0.02516118 -0.4549 0)
(-0.02291945 -0.4902469 0)
(-0.02048185 -0.5259301 0)
(-0.01796245 -0.5621215 0)
(-0.01544352 -0.5990348 0)
(-0.01292005 -0.6369785 0)
(-0.01041345 -0.6764281 0)
(-0.007942818 -0.7181651 0)
(-0.005533115 -0.7635214 0)
(-0.003238586 -0.8139435 0)
(-0.001085544 -0.8470171 0)
(-0.0006754828 0.7519013 0)
(-0.002220778 0.6988384 0)
(-0.002142188 0.6614278 0)
(-0.001813315 0.6319819 0)
(-0.001490494 0.6054078 0)
(-0.0009086204 0.5797475 0)
(-0.0006639287 0.5542581 0)
(-0.0004064331 0.5289978 0)
(-0.0003435057 0.5038924 0)
(-0.0004507594 0.4789499 0)
(-0.0007650822 0.4541735 0)
(-0.00114428 0.4295128 0)
(-0.001969929 0.4048698 0)
(-0.002638427 0.3802676 0)
(-0.003464168 0.3556441 0)
(-0.004263937 0.3310461 0)
(-0.005033267 0.3067888 0)
(-0.005644288 0.2831183 0)
(-0.006319163 0.2601869 0)
(-0.006674327 0.2379494 0)
(-0.007097976 0.2161664 0)
(-0.007314863 0.1947449 0)
(-0.007739074 0.1736822 0)
(-0.008140849 0.1530073 0)
(-0.008596666 0.1326505 0)
(-0.00909701 0.1126011 0)
(-0.009643054 0.09283193 0)
(-0.01022873 0.07329249 0)
(-0.01082843 0.05392297 0)
(-0.0114538 0.03464772 0)
(-0.0120676 0.01541963 0)
(-0.01263959 -0.003662333 0)
(-0.01315992 -0.02298032 0)
(-0.01371405 -0.04248859 0)
(-0.01425331 -0.06226121 0)
(-0.01478445 -0.08237466 0)
(-0.0153025 -0.1029227 0)
(-0.01580206 -0.1240008 0)
(-0.01627916 -0.1457103 0)
(-0.01672938 -0.168159 0)
(-0.01714841 -0.1914633 0)
(-0.01753027 -0.2157535 0)
(-0.01786616 -0.2411649 0)
(-0.0181635 -0.2678641 0)
(-0.01832562 -0.2959501 0)
(-0.01847526 -0.3253403 0)
(-0.01832968 -0.3563878 0)
(-0.01758179 -0.3894625 0)
(-0.01680015 -0.424046 0)
(-0.01575477 -0.4596219 0)
(-0.01429855 -0.4957059 0)
(-0.01274574 -0.5316951 0)
(-0.01112144 -0.5678517 0)
(-0.00952654 -0.6047157 0)
(-0.007945042 -0.64258 0)
(-0.006383726 -0.6818942 0)
(-0.004857349 -0.7234145 0)
(-0.003380869 -0.7684493 0)
(-0.001988448 -0.8184236 0)
(-0.0006863278 -0.8514446 0)
(-0.0005758626 0.7567943 0)
(-0.0007017394 0.7000106 0)
(-0.0005743725 0.6608414 0)
(0.000361678 0.6308691 0)
(0.001257614 0.6038814 0)
(0.002432695 0.5780278 0)
(0.003490208 0.5527217 0)
(0.004583939 0.5276802 0)
(0.005604166 0.502833 0)
(0.006583803 0.4781629 0)
(0.00743539 0.4536662 0)
(0.008175578 0.4293992 0)
(0.008780586 0.4055072 0)
(0.008903046 0.3815978 0)
(0.008846385 0.3576299 0)
(0.008631016 0.3336156 0)
(0.008063388 0.3095573 0)
(0.007598963 0.2856014 0)
(0.006985792 0.2620312 0)
(0.006512051 0.2391029 0)
(0.006126724 0.2168672 0)
(0.005815086 0.1952612 0)
(0.005561439 0.1741982 0)
(0.005323523 0.1535598 0)
(0.005082281 0.1333214 0)
(0.004816729 0.1134937 0)
(0.004513446 0.09397471 0)
(0.004162362 0.07462267 0)
(0.003738308 0.05538575 0)
(0.003289812 0.03623359 0)
(0.002728482 0.01710489 0)
(0.002153302 -0.002033484 0)
(0.001512807 -0.02124857 0)
(0.0008374888 -0.04066747 0)
(8.868207e-05 -0.06038027 0)
(-0.0006750515 -0.08046255 0)
(-0.001469594 -0.1009992 0)
(-0.002280873 -0.1220845 0)
(-0.003103899 -0.1438179 0)
(-0.003934975 -0.1663043 0)
(-0.004780404 -0.1896565 0)
(-0.005635194 -0.2139935 0)
(-0.006483289 -0.2394141 0)
(-0.007292653 -0.2660771 0)
(-0.00803342 -0.2943422 0)
(-0.008653229 -0.3245638 0)
(-0.009018684 -0.3567241 0)
(-0.009277029 -0.3904751 0)
(-0.009215042 -0.4256875 0)
(-0.008631521 -0.4621313 0)
(-0.008030452 -0.4987835 0)
(-0.007236913 -0.5349817 0)
(-0.006242321 -0.5712056 0)
(-0.005282395 -0.6080667 0)
(-0.004372046 -0.6459244 0)
(-0.003486836 -0.6852287 0)
(-0.002634593 -0.7267441 0)
(-0.001818007 -0.7717809 0)
(-0.001055695 -0.821754 0)
(-0.0003547933 -0.8549791 0)
(-0.0003452586 0.7609435 0)
(-0.0002070345 0.6999658 0)
(0.0007785486 0.6588623 0)
(0.002314835 0.6276397 0)
(0.0040605 0.6000263 0)
(0.005905223 0.5738886 0)
(0.007715936 0.5484745 0)
(0.009476087 0.5234301 0)
(0.01112939 0.4986638 0)
(0.01263023 0.474189 0)
(0.01402248 0.4501093 0)
(0.01500959 0.4266679 0)
(0.01594472 0.4034808 0)
(0.0166874 0.3802327 0)
(0.01733548 0.3567785 0)
(0.01785635 0.333176 0)
(0.01839784 0.3096333 0)
(0.01853211 0.2863242 0)
(0.01859918 0.2632891 0)
(0.01841577 0.2405354 0)
(0.01827443 0.2181803 0)
(0.01806068 0.196395 0)
(0.01783911 0.1751749 0)
(0.01759434 0.1544637 0)
(0.01731091 0.1342002 0)
(0.01698511 0.1143332 0)
(0.01661308 0.09481116 0)
(0.01618865 0.07558139 0)
(0.01570767 0.05656046 0)
(0.01514715 0.0376323 0)
(0.0145432 0.01872072 0)
(0.01386287 -0.0002255069 0)
(0.01308139 -0.01914821 0)
(0.012166 -0.03842388 0)
(0.01121739 -0.05798825 0)
(0.01018805 -0.07794782 0)
(0.009113915 -0.09838575 0)
(0.007993653 -0.1193902 0)
(0.006834726 -0.1410507 0)
(0.005643758 -0.1634521 0)
(0.004432811 -0.1866839 0)
(0.003214128 -0.2109565 0)
(0.002013215 -0.2365161 0)
(0.0008772362 -0.2635138 0)
(-0.0001624243 -0.2921145 0)
(-0.001093752 -0.3225127 0)
(-0.001919776 -0.3548997 0)
(-0.00261194 -0.3893636 0)
(-0.003052353 -0.4255813 0)
(-0.003373766 -0.4627174 0)
(-0.003362737 -0.5000209 0)
(-0.002904187 -0.5369946 0)
(-0.002515655 -0.5734205 0)
(-0.002033465 -0.6101067 0)
(-0.001632818 -0.6478011 0)
(-0.001250928 -0.6869564 0)
(-0.0008984956 -0.7283178 0)
(-0.0005816143 -0.7731733 0)
(-0.000308353 -0.8229118 0)
(-0.0001186543 -0.8560947 0)
(-0.0001047138 0.763721 0)
(0.0002882343 0.6989928 0)
(0.001897933 0.655004 0)
(0.003974089 0.6225709 0)
(0.006333606 0.5944815 0)
(0.008745052 0.5682583 0)
(0.01112211 0.5429884 0)
(0.01339971 0.5182853 0)
(0.0155236 0.4940144 0)
(0.01745058 0.4701507 0)
(0.01916708 0.4467275 0)
(0.02066066 0.4237436 0)
(0.02197125 0.4008599 0)
(0.02309283 0.3777572 0)
(0.024071 0.3544674 0)
(0.02482678 0.3312076 0)
(0.02545373 0.3081232 0)
(0.02601437 0.2852333 0)
(0.02639906 0.262534 0)
(0.02688693 0.2401013 0)
(0.02697071 0.2181309 0)
(0.02707012 0.196625 0)
(0.02701589 0.1756298 0)
(0.02686641 0.1551411 0)
(0.02661564 0.1351212 0)
(0.02626536 0.1155118 0)
(0.02581901 0.09623192 0)
(0.02528519 0.07718976 0)
(0.02467558 0.05830101 0)
(0.02399657 0.03949648 0)
(0.02325486 0.02074785 0)
(0.02243346 0.002070912 0)
(0.02149441 -0.01644338 0)
(0.02041312 -0.03541647 0)
(0.01921809 -0.05475808 0)
(0.01794958 -0.07452482 0)
(0.01661081 -0.09478866 0)
(0.01521136 -0.1156373 0)
(0.01375899 -0.1371736 0)
(0.01226622 -0.1595142 0)
(0.01076095 -0.1827908 0)
(0.009266631 -0.2071609 0)
(0.007808875 -0.2328141 0)
(0.006406319 -0.2599619 0)
(0.005089836 -0.2888295 0)
(0.003889804 -0.3196102 0)
(0.00282591 -0.3524004 0)
(0.001899303 -0.3871639 0)
(0.001104257 -0.4236953 0)
(0.0004600203 -0.4615313 0)
(5.264305e-05 -0.4997467 0)
(-0.0002252833 -0.5372156 0)
(-0.0002801852 -0.5737767 0)
(-0.0002977859 -0.6104585 0)
(-0.0003060549 -0.6481733 0)
(-0.0002863198 -0.6873554 0)
(-0.000249557 -0.7287389 0)
(-0.0002042383 -0.7736103 0)
(-0.0001479813 -0.8233714 0)
(-9.269721e-05 -0.8566973 0)
(-8.845458e-05 0.7655052 0)
(0.0007122369 0.6961872 0)
(0.002655573 0.6496972 0)
(0.005089142 0.6159921 0)
(0.007842997 0.587344 0)
(0.0106572 0.5609832 0)
(0.01344656 0.5358379 0)
(0.01613555 0.5114482 0)
(0.01867554 0.4876238 0)
(0.02103205 0.4642947 0)
(0.02319048 0.4414464 0)
(0.02514266 0.4190742 0)
(0.02687615 0.3968859 0)
(0.02838238 0.3745369 0)
(0.02964942 0.3519634 0)
(0.03069801 0.3292208 0)
(0.03156393 0.3064075 0)
(0.03226924 0.2836788 0)
(0.03285507 0.2612158 0)
(0.03318422 0.2392082 0)
(0.03351831 0.2176311 0)
(0.03360933 0.1965067 0)
(0.0335839 0.1758725 0)
(0.0334111 0.1557219 0)
(0.03310535 0.1360163 0)
(0.03267608 0.1166971 0)
(0.03213329 0.09769173 0)
(0.03148568 0.07891763 0)
(0.03074045 0.06028687 0)
(0.02990267 0.04172114 0)
(0.02897558 0.0231886 0)
(0.0279541 0.004756958 0)
(0.02687686 -0.01334881 0)
(0.02564868 -0.03195232 0)
(0.02426689 -0.05100799 0)
(0.02279495 -0.07055193 0)
(0.02125868 -0.09062903 0)
(0.01966596 -0.1113173 0)
(0.01802901 -0.1327228 0)
(0.0163637 -0.1549735 0)
(0.01469173 -0.1782213 0)
(0.01303964 -0.2026496 0)
(0.01143615 -0.228461 0)
(0.009909768 -0.2558579 0)
(0.008485736 -0.2850358 0)
(0.007182338 -0.3161658 0)
(0.00601297 -0.349354 0)
(0.004989767 -0.3845698 0)
(0.004121011 -0.4215523 0)
(0.003405756 -0.4597426 0)
(0.002837355 -0.4982952 0)
(0.002437635 -0.5362904 0)
(0.002158485 -0.5732504 0)
(0.001938658 -0.6100628 0)
(0.001699039 -0.6478796 0)
(0.001445571 -0.6871311 0)
(0.001172206 -0.7285514 0)
(0.0008644584 -0.7734291 0)
(0.000540183 -0.8231889 0)
(0.0001250194 -0.856723 0)
(-8.068819e-05 0.766977 0)
(0.0009345027 0.6929008 0)
(0.003081099 0.6437157 0)
(0.005766793 0.6086718 0)
(0.008782079 0.5794353 0)
(0.01186962 0.5529281 0)
(0.01493807 0.5279123 0)
(0.01790755 0.5038403 0)
(0.02072951 0.4804589 0)
(0.0233711 0.4576494 0)
(0.02581782 0.4353566 0)
(0.02806549 0.4135503 0)
(0.03010429 0.3919504 0)
(0.03192553 0.3702087 0)
(0.03350354 0.3482385 0)
(0.03484247 0.3261097 0)
(0.03594455 0.3039386 0)
(0.03681007 0.281854 0)
(0.03745341 0.2599714 0)
(0.03788606 0.2383811 0)
(0.03813591 0.217204 0)
(0.03819805 0.1965263 0)
(0.03808742 0.1763389 0)
(0.03780926 0.156613 0)
(0.03737668 0.1373032 0)
(0.03680214 0.1183472 0)
(0.03609892 0.09966982 0)
(0.03527998 0.08119007 0)
(0.03435658 0.06283193 0)
(0.03333636 0.04453782 0)
(0.03222243 0.0262841 0)
(0.03101827 0.00808973 0)
(0.02976746 -0.009999775 0)
(0.02842369 -0.02794359 0)
(0.02690615 -0.04667412 0)
(0.02530837 -0.06601287 0)
(0.02364863 -0.08593189 0)
(0.02194376 -0.1064998 0)
(0.02021036 -0.1278329 0)
(0.01846663 -0.1500737 0)
(0.0167341 -0.1733844 0)
(0.01503647 -0.1979466 0)
(0.01339699 -0.2239567 0)
(0.01183769 -0.2516165 0)
(0.01037846 -0.2811171 0)
(0.009034897 -0.3126145 0)
(0.007816383 -0.3461922 0)
(0.00672636 -0.3818079 0)
(0.00576645 -0.4192185 0)
(0.004941266 -0.4578846 0)
(0.004256037 -0.4969164 0)
(0.00370477 -0.5352696 0)
(0.003253395 -0.5723643 0)
(0.002839903 -0.6091226 0)
(0.002419551 -0.6468095 0)
(0.001977663 -0.6859276 0)
(0.001525618 -0.7272164 0)
(0.001074317 -0.7719709 0)
(0.000604824 -0.8216389 0)
(0.0001829672 -0.8552945 0)
(-0.0001176211 0.7680768 0)
(0.0009952616 0.6890418 0)
(0.003236536 0.6371241 0)
(0.006053641 0.6007093 0)
(0.009215216 0.570848 0)
(0.01246477 0.5441649 0)
(0.01570466 0.5192641 0)
(0.01885141 0.4955033 0)
(0.02185558 0.4725615 0)
(0.02468513 0.4502681 0)
(0.02732399 0.4285244 0)
(0.0297805 0.4072623 0)
(0.03202984 0.3862671 0)
(0.03405621 0.3652295 0)
(0.03581708 0.3439905 0)
(0.03731026 0.3225802 0)
(0.03853685 0.3011001 0)
(0.03950191 0.2796768 0)
(0.04021261 0.2584383 0)
(0.04067668 0.2374953 0)
(0.04090318 0.2169335 0)
(0.04090942 0.1968064 0)
(0.04071307 0.177124 0)
(0.04033093 0.1578649 0)
(0.03977913 0.1389832 0)
(0.03907409 0.1204159 0)
(0.03823194 0.1020893 0)
(0.03726781 0.08392536 0)
(0.03619539 0.06585113 0)
(0.03502696 0.04781147 0)
(0.03377416 0.02978538 0)