/*--------------------------------*- C++ -*----------------------------------*\
| =========                 |                                                 |
| \\      /  F ield         | OpenFOAM: The Open Source CFD Toolbox           |
|  \\    /   O peration     | Version:  2312                                  |
|   \\  /    A nd           | Website:  www.openfoam.com                      |
|    \\/     M anipulation  |                                                 |
\*---------------------------------------------------------------------------*/
FoamFile
{
    version     2.0;
    format      ascii;
    arch        "LSB;label=32;scalar=64";
    class       volScalarField;
    location    "3300";
    object      alphat;
}
// * * * * * * * * * * * * * * * * * * * * * * * * * * * * * * * * * * * * * //

dimensions      [1 -1 -1 0 0 0 0];

internalField   nonuniform List<scalar> 
12000
(
4.262247e-05
0.0001597357
0.0001765558
0.0001870192
0.000183515
0.0001795619
0.0001891201
0.0002081882
0.0002127143
0.0001904168
0.0001731703
0.0001808158
0.0002039196
0.0002053242
0.0001801631
0.0001679319
0.0001788383
0.0001950302
0.0001880954
0.0001715326
0.0001679114
0.0001770035
0.0001825363
0.0001748878
0.0001661225
0.0001671398
0.0001740028
0.000173836
0.0001660181
0.000162895
0.0001669308
0.0001690964
0.0001666493
0.0001630858
0.0001586773
0.0001576486
0.0001672881
0.0001764376
0.000164373
0.0001452351
0.0001414139
0.0001715109
0.0002087109
0.0001625389
0.0001224979
0.0001302287
0.0002042154
0.0002365737
0.0001256745
0.0001090188
0.0001688805
0.0002334955
0.0001282141
0.0001046204
0.0001324656
0.0001462313
0.0001062499
8.265886e-05
7.748316e-05
6.399487e-05
2.607758e-05
0.0001929548
0.000220434
0.0002833997
0.0003246353
0.0003687067
0.0004211873
0.0004726601
0.0005267863
0.0005887819
0.0006660634
0.0007358782
0.0007942885
0.0008527177
0.0009317542
0.001017352
0.001086118
0.001137514
0.001200383
0.00128096
0.001358583
0.001415385
0.001464553
0.001525842
0.001595793
0.001653285
0.001691879
0.001730213
0.001780621
0.001827616
0.001854287
0.001871114
0.001892113
0.001913296
0.001929224
0.001933553
0.00192232
0.00190442
0.001902618
0.00190316
0.001885238
0.001830267
0.001763121
0.00146793
0.001677323
0.001646647
0.001529099
0.001324113
0.00103578
0.001285083
0.001139127
0.001008289
0.0008183229
0.0007545475
0.0006246501
0.0004951081
0.0003556652
0.0002198864
0.0001148521
5.748784e-05
3.017846e-05
0.0002864128
0.0003666486
0.0004485075
0.0005455861
0.0006609246
0.0007884228
0.0009170282
0.001048642
0.001186388
0.001326359
0.001464129
0.001595026
0.001721991
0.001848403
0.001969644
0.002080896
0.002183831
0.002282494
0.00237668
0.002463459
0.002541765
0.002613854
0.002681183
0.002742915
0.002797696
0.002846064
0.002889683
0.00292893
0.002962921
0.002991656
0.003014945
0.003033916
0.003051716
0.003064597
0.003072985
0.003076679
0.003076399
0.003072075
0.003062822
0.003048373
0.003028594
0.002990002
0.002970495
0.002924828
0.002873622
0.002785803
0.002647711
0.002558277
0.002425586
0.002228781
0.002066121
0.001962069
0.001507624
0.001197108
0.001083837
0.0008781711
0.0005091517
0.0001913021
5.754177e-05
2.933868e-05
0.0003076349
0.0004450621
0.0005720061
0.0007270316
0.000902855
0.001090628
0.001283836
0.001478833
0.001678088
0.00187007
0.002051197
0.002220094
0.002378236
0.002525407
0.00266182
0.002787651
0.002904068
0.003011972
0.003111508
0.003202783
0.003286476
0.003362786
0.003432147
0.003494731
0.003550769
0.003600496
0.003644049
0.003681437
0.003712629
0.003737969
0.00375708
0.003770425
0.003778556
0.00378086
0.003776844
0.003766512
0.003749667
0.003725998
0.003695313
0.003657408
0.003611579
0.003555337
0.003489649
0.003413268
0.003325073
0.003223085
0.003106475
0.002974649
0.00282365
0.002654514
0.002453035
0.00192202
0.001733951
0.001688972
0.001376396
0.001017058
0.0006365245
0.0002709258
5.685502e-05
2.920237e-05
0.0003314811
0.0005225379
0.0006944142
0.0008981453
0.001121181
0.001353366
0.001587666
0.00181652
0.002037958
0.002250069
0.002451118
0.002641016
0.002817281
0.002980584
0.003134579
0.003276996
0.003405167
0.003522254
0.003629612
0.003727738
0.003817831
0.003899996
0.003974587
0.004041819
0.004101982
0.004155314
0.004202013
0.004242309
0.004273758
0.004301344
0.004321995
0.004337032
0.0043458
0.004347998
0.00434337
0.004332199
0.004314279
0.004289328
0.004257284
0.00421863
0.00417203
0.004116304
0.004051815
0.003977417
0.003892147
0.003794532
0.003682619
0.003553615
0.003404003
0.003234663
0.002922678
0.002784305
0.002493305
0.002157453
0.001767645
0.001316587
0.0008134426
0.0003305679
5.646284e-05
2.946622e-05
0.0003435099
0.0005831931
0.0007917208
0.001029253
0.001283618
0.001543953
0.001802353
0.002053038
0.002293344
0.002524936
0.002743559
0.002947392
0.003135869
0.003307084
0.003460539
0.003600807
0.003732544
0.003855349
0.003969896
0.004076433
0.004175676
0.00426764
0.004352464
0.004430236
0.004500997
0.004564718
0.004621299
0.004669156
0.004711707
0.004746671
0.004773788
0.004793128
0.00480479
0.004808568
0.004803734
0.004790336
0.004769333
0.00473992
0.004700932
0.00465133
0.004591832
0.004522097
0.004441269
0.004347954
0.004241255
0.004119855
0.003982351
0.003827996
0.003650945
0.003449444
0.003214489
0.00294283
0.002631864
0.002274893
0.001866761
0.001406185
0.0008985296
0.0003879973
5.600023e-05
3.003999e-05
0.0003481426
0.0006306648
0.0008683003
0.001125372
0.001397112
0.00167513
0.001953586
0.002221877
0.002475427
0.00271087
0.002930315
0.003134599
0.003325166
0.003502308
0.003665525
0.003816482
0.003957404
0.004089645
0.004214226
0.004331798
0.004442735
0.004547149
0.004644995
0.004736119
0.004820293
0.00489723
0.004966593
0.005027457
0.005081199
0.005126288
0.005162478
0.005189458
0.005207202
0.005215868
0.005215143
0.005204774
0.00518296
0.005150218
0.005106945
0.005052813
0.004987401
0.004910213
0.004820629
0.004717936
0.004601288
0.004469644
0.004322117
0.004156134
0.003964772
0.00374761
0.003498697
0.003214075
0.002886607
0.00250853
0.002070196
0.001563393
0.0009959055
0.0004265652
5.590109e-05
3.064366e-05
0.0003479151
0.0006631359
0.000924493
0.001199039
0.001485176
0.001774063
0.002055854
0.002327375
0.002584449
0.002824887
0.003048902
0.003257187
0.00345093
0.003632567
0.003803805
0.0039651
0.004117298
0.004261482
0.004398694
0.00452964
0.004654668
0.004773811
0.004886873
0.004993497
0.005093221
0.005185519
0.005267775
0.005343914
0.005410654
0.005467585
0.00551424
0.005550533
0.005576183
0.005590199
0.005592267
0.005582266
0.005560042
0.00552524
0.00547754
0.005416575
0.005341915
0.005253058
0.005149411
0.005030283
0.004894822
0.004742397
0.004571805
0.004380529
0.00416492
0.003924604
0.00365452
0.003349506
0.003000215
0.002600624
0.002144443
0.0016266
0.001050759
0.0004635449
5.569015e-05
3.16354e-05
0.0003411632
0.0006824496
0.0009673032
0.001250382
0.001540949
0.001831941
0.002116094
0.00238912
0.002648041
0.002891464
0.003119435
0.003332754
0.003532726
0.003721004
0.003899835
0.00407107
0.004235412
0.004393348
0.00454532
0.004691735
0.004832762
0.004968287
0.005097931
0.005221106
0.00533708
0.005445038
0.005543477
0.00563337
0.005712907
0.005781269
0.005837853
0.005882513
0.005914571
0.00593344
0.005938639
0.005929783
0.005906529
0.005868547
0.005815508
0.005747068
0.005662851
0.005562439
0.00544537
0.005311085
0.005159103
0.004988566
0.004797888
0.004585248
0.004346979
0.004086759
0.003800017
0.003481666
0.003126149
0.002719457
0.002248796
0.001708447
0.00110387
0.0004878679
5.555573e-05
3.271057e-05
0.0003339208
0.0006944548
0.0009976789
0.001287654
0.001578568
0.00186797
0.002150913
0.002423554
0.002683323
0.00292909
0.003160953
0.003379787
0.003586914
0.003783811
0.003972065
0.004153373
0.004329356
0.00450079
0.004667862
0.004830526
0.004988594
0.005141554
0.005288583
0.005428745
0.005561038
0.00568288
0.005796077
0.005898004
0.005988829
0.00606763
0.00613345
0.006185531
0.006223067
0.006245448
0.006252158
0.006242763
0.006216887
0.00617419
0.00611435
0.006037052
0.005941978
0.005828806
0.005697209
0.005546916
0.005377532
0.005188022
0.004976677
0.004743618
0.004488508
0.00417217
0.003844973
0.003569518
0.003198343
0.00277701
0.002294295
0.001745865
0.00113497
0.0005088247
5.547808e-05
3.378484e-05
0.0003228153
0.000694088
0.001013298
0.0013095
0.001601006
0.001888885
0.002169883
0.002440959
0.002700365
0.002947514
0.003182746
0.003407004
0.003621633
0.003828115
0.004027842
0.004222125
0.004411568
0.004596647
0.004777515
0.004953674
0.005123934
0.005289603
0.005450218
0.00560446
0.005751043
0.005887665
0.006015283
0.006131688
0.006234688
0.006323348
0.006396972
0.006454962
0.006496519
0.006520972
0.006527789
0.006516538
0.006486862
0.006438446
0.006371006
0.006284271
0.006177976
0.006051862
0.005905673
0.005739165
0.005551983
0.005344213
0.005116091
0.00478135
0.004347911
0.003997064
0.003740628
0.00353323
0.003250941
0.002828016
0.002343269
0.001786797
0.001162683
0.0005225461
5.536161e-05
3.481735e-05
0.00031082
0.0006872067
0.001018544
0.001319589
0.001609573
0.001893458
0.002170727
0.002439752
0.002699369
0.002949072
0.003189029
0.003419981
0.003642812
0.003858416
0.004067687
0.004270108
0.004468543
0.004663857
0.004856515
0.005046663
0.005234376
0.005417101
0.00559347
0.00576249
0.005922868
0.006072795
0.006211621
0.00633748
0.006448929
0.006544715
0.006623768
0.006685138
0.006728174
0.006752401
0.006757386
0.006742756
0.006708193
0.006653433
0.006578252
0.006482464
0.006365908
0.006228436
0.006069902
0.005890101
0.005688807
0.005466066
0.005029326
0.00458234
0.004202939
0.003902988
0.003675917
0.00349238
0.00328103
0.002861097
0.002369851
0.001807271
0.00117871
0.0005332107
5.517392e-05
3.566511e-05
0.000299415
0.0006757384
0.001017149
0.001323315
0.001613164
0.001894445
0.002168532
0.002434904
0.002692816
0.00294204
0.003182795
0.003415125
0.003585575
0.003737947
0.003926456
0.004140273
0.004352052
0.004577837
0.004838674
0.005131337
0.005335289
0.005530822
0.005720056
0.005901299
0.00607293
0.006233325
0.006380975
0.006514349
0.006632071
0.006732916
0.006815839
0.006879991
0.006924605
0.006949027
0.006952736
0.00693532
0.006896459
0.006835902
0.006753456
0.006648978
0.006522364
0.006373549
0.006202497
0.006009201
0.005703404
0.005271075
0.004859623
0.004470893
0.004122869
0.003838351
0.003617117
0.003447505
0.003262416
0.002884257
0.002391952
0.001826664
0.001192417
0.0005403244
5.52167e-05
3.635046e-05
0.000289768
0.0006627917
0.001011488
0.001321932
0.001611756
0.00189036
0.00216085
0.002423788
0.002679121
0.002926852
0.003166852
0.003374923
0.003533571
0.003699672
0.003855653
0.004018552
0.004217324
0.004430596
0.004658269
0.004900983
0.005161907
0.005463432
0.005785442
0.006009202
0.006190125
0.00635923
0.006514779
0.006654983
0.006778502
0.006884035
0.006970448
0.007036773
0.007082207
0.007106092
0.007107893
0.007087218
0.007043779
0.006977381
0.00688791
0.006775322
0.006639642
0.006480959
0.006299409
0.005971849
0.005545079
0.005114402
0.004720938
0.004367787
0.004057806
0.003789349
0.003577024
0.003414341
0.003240559
0.002899275
0.002405913
0.001837338
0.00119967
0.0005445502
5.509476e-05
3.691426e-05
0.0002801319
0.0006471246
0.0009991731
0.001314151
0.001604704
0.001881199
0.00214835
0.002407919
0.002660525
0.002906346
0.003145435
0.00335496
0.003530822
0.00367406
0.003821781
0.003984035
0.00414808
0.004333774
0.004531371
0.00474281
0.004972196
0.005228204
0.005516199
0.005833701
0.006167441
0.006457161
0.006619123
0.006764999
0.00689323
0.007002435
0.007091425
0.007159188
0.007204908
0.007227913
0.007227671
0.007203823
0.007156138
0.007084489
0.006988846
0.00686926
0.006725859
0.006558957
0.006216663
0.00582711
0.005426386
0.00502959
0.004646931
0.004296241
0.003993275
0.003743817
0.003544042
0.003383116
0.003222875
0.002910226
0.002415784
0.001845437
0.001205891
0.0005481287
5.509686e-05
3.735376e-05
0.0002716412
0.0006315309
0.0009861063
0.001303231
0.001594133
0.001868794
0.002132832
0.00238895
0.002638415
0.00288186
0.003119659
0.00334709
0.003508836
0.003671322
0.003833413
0.004002009
0.004166053
0.004326931
0.004495253
0.004674063
0.004871571
0.005097905
0.005356415
0.005642533
0.005948042
0.006260896
0.00656305
0.006826278
0.006979256
0.007091498
0.007182573
0.007251404
0.007297179
0.007319235
0.007317062
0.007290351
0.007238934
0.007162766
0.007061896
0.006936508
0.00673874
0.006444696
0.006101235
0.005724119
0.005332642
0.004949741
0.004591248
0.004262164
0.003961813
0.003702257
0.003499264
0.003353406
0.003210488
0.002916195
0.002421675
0.001850482
0.001208794
0.0005489669
5.502858e-05
3.767868e-05
0.0002641079
0.0006159542
0.0009701159
0.001289236
0.001580548
0.001853722
0.002115023
0.002367942
0.002614385
0.002855477
0.003091992
0.003324612
0.003539329
0.003700082
0.003867338
0.004034557
0.004204788
0.00436048
0.004512513
0.004665995
0.004834253
0.005031961
0.005268844
0.005544809
0.005848262
0.006157623
0.006450126
0.006709323
0.006927578
0.00710569
0.007243279
0.007318071
0.007363847
0.00738501
0.007381112
0.00735192
0.00729736
0.007217499
0.007083484
0.006896813
0.006659001
0.006365831
0.006021979
0.005645884
0.005261791
0.004888949
0.004539475
0.004219002
0.003931916
0.003684349
0.003482631
0.003329552
0.003187824
0.002921142
0.00242663
0.001854383
0.001211838
0.0005506423
5.497845e-05
3.79063e-05
0.0002579583
0.000601649
0.0009535634
0.001273258
0.001564738
0.00183667
0.002095625
0.002345732
0.002589528
0.002828685
0.003064473
0.00329803
0.003529186
0.003759941
0.003930299
0.00409943
0.004267203
0.004426407
0.004564823
0.00469497
0.004835038
0.005004969
0.005218468
0.00547826
0.005774976
0.006088583
0.00639255
0.006660426
0.006876275
0.007043111
0.007185755
0.007357686
0.00741005
0.007378108
0.007351784
0.007319991
0.007265835
0.007177122
0.007044269
0.006858388
0.006613231
0.006310316
0.005961669
0.00558713
0.00520831
0.004842994
0.00450154
0.004186979
0.003901948
0.003654223
0.0034556
0.003308762
0.003175873
0.00292198
0.002427374
0.001855024
0.001211938
0.0005504544
5.494052e-05
3.806428e-05
0.000252967
0.0005883764
0.0009368091
0.001256178
0.001547373
0.001818169
0.002075144
0.00232286
0.002564362
0.002801751
0.003036568
0.003269971
0.003504095
0.003737683
0.003972228
0.00419479
0.004365539
0.00451713
0.004646224
0.004757171
0.004869762
0.005011681
0.005202991
0.005449288
0.005740864
0.006055703
0.006365353
0.006642703
0.006869887
0.007043944
0.007177798
0.007299127
0.007430474
0.007431811
0.007343795
0.007301417
0.007252806
0.007169266
0.007035526
0.006843264
0.006589916
0.006280061
0.005927085
0.005551349
0.005174402
0.004813036
0.004476452
0.004167061
0.003886988
0.003642722
0.003444821
0.003297082
0.003166251
0.002923508
0.002428777
0.001855797
0.001212555
0.0005508419
5.490569e-05
3.816093e-05
0.0002495982
0.0005771198
0.0009208258
0.001238637
0.0015291
0.001798756
0.002054019
0.002299725
0.002539312
0.002775258
0.003009412
0.0032432
0.003477742
0.003714829
0.003954368
0.004195003
0.004436609
0.004638808
0.00476106
0.004847383
0.00492924
0.005040512
0.005207952
0.005440318
0.005727919
0.006046678
0.006364774
0.006651338
0.006885656
0.007063729
0.007199119
0.00731729
0.007447856
0.00745891
0.007371607
0.007321292
0.007266902
0.007180114
0.007042869
0.006844824
0.006583261
0.006264669
0.005904874
0.005525544
0.005148159
0.0047886
0.004454879
0.004148416
0.003870819
0.003628651
0.003433028
0.003288164
0.003161093
0.002923224
0.002428424
0.00185538
0.001211998
0.0005503353
5.486709e-05
3.823666e-05
0.0002469386
0.0005671579
0.0009056956
0.00122119
0.001510458
0.00177893
0.002032727
0.002276824
0.002514964
0.002749951
0.002983926
0.003218547
0.00345508
0.003694429
0.003936676
0.004182532
0.004430527
0.004678093
0.004892939
0.004970248
0.005015538
0.005089252
0.005229015
0.005446491
0.005730499
0.006053682
0.006380632
0.006677182
0.006919573
0.007100982
0.007233519
0.007345414
0.007475616
0.007493883
0.007408389
0.007353319
0.007293687
0.007202345
0.007060113
0.00685558
0.006586129
0.006259465
0.005892962
0.005509365
0.005130366
0.004771317
0.004439417
0.004135379
0.00386023
0.003620003
0.003425548
0.003281398
0.003155957
0.002923053
0.002428061
0.001854747
0.001211333
0.000550086
5.484843e-05
3.829766e-05
0.0002454214
0.0005593299
0.0008917888
0.001204172
0.001491782
0.001758998
0.002011558
0.00225447
0.002491696
0.002726309
0.002960689
0.003196659
0.003435536
0.003678112
0.003924573
0.004174557
0.004426796
0.004680555
0.004933313
0.005104126
0.005132468
0.005164132
0.005268826
0.005467169
0.005746125
0.006073408
0.006408618
0.006713742
0.006962576
0.007146716
0.007276998
0.00738144
0.007500418
0.007516527
0.007443334
0.007387985
0.007323261
0.007226471
0.007079133
0.006868907
0.006592609
0.006258566
0.005885517
0.005497378
0.005116219
0.004757012
0.004426224
0.004123915
0.00385067
0.00361231
0.003419667
0.003277319
0.003153712
0.002922529
0.002427359
0.001853859
0.001210446
0.0005494384
5.481268e-05
3.835831e-05
0.0002449083
0.0005524343
0.0008793556
0.001188262
0.001473853
0.001739714
0.00199122
0.002233352
0.002470229
0.002705129
0.002940621
0.003178648
0.00342055
0.003667052
0.003918216
0.004173438
0.004431441
0.004690469
0.004948052
0.005202435
0.005264142
0.0052612
0.005327234
0.0055032
0.00577559
0.006106131
0.006448384
0.006760103
0.007013008
0.007198018
0.007325116
0.007419643
0.007515663
0.007529779
0.007476296
0.007421785
0.007352807
0.007251308
0.007099665
0.006884654
0.006602408
0.006261653
0.005882344
0.005489575
0.00510592
0.004746127
0.004416063
0.004115197
0.003843641
0.003606907
0.003415655
0.003274442
0.0031519
0.002922033
0.002426591
0.001852856
0.001209504
0.0005489909
5.480291e-05
3.843267e-05
0.0002451508
0.0005468794
0.0008678828
0.001173056
0.001456468
0.001721033
0.001971792
0.002213674
0.002450898
0.002686896
0.002924372
0.003165336
0.003411108
0.003662301
0.003918795
0.004179741
0.004443627
0.004708413
0.004971603
0.005230471
0.005379768
0.005363464
0.005396296
0.00554994
0.00581516
0.006148594
0.006497144
0.006813805
0.007068464
0.007251961
0.007373619
0.007456076
0.007531092
0.007542786
0.007508913
0.007450735
0.007379246
0.00727509
0.007120619
0.006901847
0.006614317
0.006267193
0.005881704
0.005484206
0.005097857
0.004737237
0.004407636
0.00410795
0.003837866
0.003602706
0.003413028
0.00327326
0.003151715
0.002921734
0.002425929
0.001851947
0.001208552
0.0005483167
5.477341e-05
3.852223e-05
0.0002462288
0.0005431436
0.0008583825
0.001159572
0.001440637
0.001703959
0.001954274
0.002196442
0.002434746
0.002672721
0.002913142
0.003158024
0.003408603
0.003665315
0.003927802
0.004194941
0.004464949
0.004735537
0.005004015
0.005267556
0.005488873
0.005466039
0.005474232
0.005610582
0.005870621
0.006206812
0.006559861
0.00687818
0.007130401
0.007309425
0.007427007
0.007501417
0.007545468
0.007556148
0.007538211
0.007478106
0.007404069
0.007298073
0.007142135
0.006920706
0.006628431
0.006275095
0.005883397
0.005481072
0.005091902
0.00473031
0.004401026
0.004102387
0.003833639
0.003599897
0.003411604
0.003273023
0.00315212
0.002921691
0.002425381
0.001851045
0.001207614
0.0005477695
5.476979e-05
3.864048e-05
0.000247388
0.0005397678
0.0008495359
0.001146954
0.001425762
0.001688089
0.00193845
0.002181617
0.00242189
0.00266285
0.00290728
0.003157127
0.003413474
0.003676526
0.003945629
0.00421934
0.004495583
0.004771827
0.005045379
0.00531314
0.005572189
0.005556759
0.005550611
0.005677649
0.005936858
0.006276784
0.006632966
0.006950183
0.007196241
0.007366154
0.007472512
0.007531852
0.007564402
0.007570176
0.007549417
0.007502518
0.007428625
0.007320761
0.007164035
0.00694074
0.006644021
0.006284501
0.005886549
0.005479368
0.005087385
0.004724862
0.004395917
0.004098251
0.00383058
0.003597981
0.003411027
0.003273776
0.003153506
0.002922041
0.002425229
0.001850448
0.001206849
0.0005472053
5.474833e-05
3.87719e-05
0.0002492477
0.0005380028
0.0008426707
0.001136276
0.001413074
0.001674738
0.001925645
0.002170526
0.002413674
0.002658653
0.002908178
0.003164045
0.003427101
0.00369724
0.003973456
0.004253984
0.004536482
0.004818013
0.005095806
0.005366753
0.005627886
0.005632183
0.005623542
0.005750075
0.006014118
0.00635988
0.006718119
0.007030665
0.007265583
0.007416461
0.007498311
0.007553774
0.007582694
0.007585145
0.007561408
0.007511905
0.007437166
0.00733781
0.007186997
0.006962934
0.006661678
0.006295608
0.005891172
0.005479069
0.005084246
0.004720647
0.004391686
0.004094823
0.003828438
0.003597276
0.003411686
0.0032756
0.003155595
0.002922499
0.002425109
0.001849847
0.001206087
0.0005467206
5.47495e-05
3.894055e-05
0.0002510078
0.0005361309
0.000836259
0.001126439
0.001401498
0.001663054
0.001915299
0.002162869
0.002410006
0.002660193
0.002915988
0.003178942
0.003449573
0.003727395
0.004011012
0.004298299
0.004586501
0.004873078
0.005154603
0.005428038
0.005690512
0.005692614
0.005689851
0.005826865
0.006101931
0.00645488
0.006812965
0.007117191
0.007335412
0.007448384
0.007525863
0.007577198
0.007602301
0.007601295
0.00757449
0.007522328
0.007445345
0.007344156
0.007209056
0.006986012
0.006680578
0.006308015
0.005897002
0.005479787
0.005081991
0.004717657
0.004389599
0.004094266
0.003828113
0.003596818
0.003412503
0.003278352
0.003159132
0.002923229
0.002425385
0.001849707
0.001205601
0.0005462759
5.47357e-05
3.91087e-05
0.0002533407
0.000529489
0.0008320334
0.001119072
0.001392867
0.001654877
0.001909205
0.00216041
0.002412624
0.002669158
0.002932316
0.003203305
0.003482218
0.003768107
0.004059177
0.004352863
0.004646678
0.004937308
0.005221617
0.0054966
0.005759498
0.005741209
0.005751029
0.005908796
0.006201879
0.006564554
0.006920076
0.007206886
0.007383779
0.007482236
0.00755511
0.007602148
0.007623318
0.007618782
0.00758887
0.007534031
0.007454799
0.007351772
0.007225573
0.00701019
0.006702524
0.0063232
0.005905204
0.005483124
0.005083522
0.004718624
0.004388664
0.004090713
0.003826576
0.003599446
0.003417663
0.00328375
0.00316307
0.002924193
0.002425675
0.001849541
0.001205081
0.0005458531
5.473984e-05
3.931122e-05
0.0002552923
0.0005224584
0.0008276526
0.001112122
0.001385283
0.001648626
0.001906112
0.002162157
0.00242071
0.002684831
0.002956469
0.003236373
0.003524124
0.003818323
0.004116554
0.004416608
0.004715188
0.005009115
0.005295273
0.005570753
0.00580568
0.005782775
0.005816335
0.005999486
0.006312111
0.006682213
0.007031432
0.007296814
0.007424204
0.007517773
0.007585938
0.0076286
0.007645792
0.007637708
0.007604691
0.007547188
0.007465726
0.007360881
0.007233246
0.007032007
0.00672277
0.00633697
0.005912735
0.005485964
0.005082275
0.004713819
0.004384601
0.004091649
0.00382959
0.003602348
0.003419974
0.003286318
0.003166452
0.002925717
0.002426408
0.001849735
0.001204901
0.000545527
5.474097e-05
3.951935e-05
0.000257632
0.000516933
0.0008253894
0.00110797
0.001381277
0.001646822
0.001908454
0.002170435
0.002436474
0.002709255
0.002990208
0.003279527
0.003576312
0.003878182
0.004183549
0.004489081
0.004791577
0.005087842
0.005374834
0.00564979
0.005834689
0.005811837
0.005874129
0.006099549
0.006443132
0.006822995
0.007151329
0.007353333
0.007466339
0.0075547
0.007618147
0.007656465
0.007669707
0.007658105
0.007622012
0.007561875
0.007478203
0.007371549
0.007242471
0.007055279
0.006744901
0.006352665
0.005920704
0.005486851
0.005078805
0.004711446
0.004385148
0.004093543
0.00383185
0.003605216
0.00342381
0.003290765
0.00317004
0.002927533
0.002427443
0.001849942
0.001204616
0.0005451779
5.474169e-05
3.974212e-05
0.00025951
0.0005104513
0.0008233336
0.001104347
0.001378367
0.001647038
0.001914084
0.002183456
0.002458406
0.002741048
0.003032237
0.003331508
0.003636567
0.00394675
0.004258587
0.004568908
0.004874483
0.005172174
0.005459082
0.005732633
0.00584882
0.005839097
0.005944332
0.00620697
0.006575813
0.006958806
0.007265404
0.007402248
0.007509908
0.007593195
0.007651851
0.007685793
0.007695115
0.007680033
0.007640904
0.007578174
0.007492321
0.007383872
0.007253348
0.007079747
0.006766679
0.006366623
0.005927922
0.005491085
0.005082923
0.004715458
0.004389409
0.004097226
0.003835833
0.003609369
0.00342786
0.003294701
0.003174191
0.002929839
0.002428892
0.001850615
0.001204727
0.0005449888
5.474856e-05
3.996308e-05
0.0002617121
0.0005067071
0.0008228142
0.001103517
0.001379772
0.001653053
0.001926867
0.002204769
0.00248951
0.002782613
0.003083931
0.003391776
0.003706291
0.004023839
0.004341348
0.004655551
0.004963235
0.005261378
0.005547259
0.005818526
0.005845063
0.005863014
0.006022467
0.006323527
0.006705832
0.007075607
0.007326441
0.007452402
0.007554684
0.007632903
0.007686855
0.007716504
0.007721966
0.007703486
0.007661405
0.007596117
0.007508107
0.007397872
0.007265915
0.00709878
0.006783544
0.006378382
0.00593459
0.005494367
0.005085113
0.004717758
0.00439175
0.004100464
0.003839591
0.003613466
0.003432441
0.003299933
0.003179258
0.002932481
0.002430692
0.001851621
0.001205048
0.0005448085
5.475381e-05
4.018349e-05
0.0002637722
0.0005026494
0.0008231174
0.001104604
0.001383257
0.001662054
0.001943873
0.00223168
0.002527112
0.002830191
0.003141387
0.00346024
0.003783334
0.004107715
0.004430133
0.004747296
0.005056073
0.005353604
0.005637385
0.005858328
0.00583962
0.005896413
0.006108128
0.006452966
0.006849881
0.00719848
0.007382876
0.007503332
0.007600344
0.007673606
0.007722968
0.007748433
0.007750136
0.00772833
0.007683352
0.007615605
0.007525516
0.007413518
0.007280022
0.007117569
0.006799958
0.006390166
0.005941592
0.005498017
0.005087357
0.00472058
0.004395492
0.004104665
0.003843934
0.003617774
0.00343668
0.003304162
0.003183331
0.002935331
0.002432679
0.001852748
0.001205376
0.0005447849
5.476246e-05
4.041682e-05
0.0002657315
0.0004997338
0.0008241688
0.001106694
0.00139065
0.001676513
0.001967366
0.002264963
0.002570464
0.002885561
0.003208439
0.003536805
0.003867759
0.00419805
0.004524322
0.004843326
0.005152067
0.00544788
0.005728475
0.00583181
0.005828201
0.005937221
0.00620735
0.006589258
0.006990605
0.007302045
0.007439863
0.007554898
0.007646753
0.007715182
0.007760079
0.007781474
0.007779516
0.007754458
0.007706626
0.007636397
0.007544183
0.007430409
0.007295488
0.007138217
0.006817889
0.006403243
0.005950104
0.005503652
0.005092096
0.004725386
0.004400646
0.004110026
0.003849208
0.003622798
0.003441563
0.00330914
0.003188217
0.002938516
0.002434976
0.001854188
0.001206025
0.0005448834
5.476993e-05
4.064423e-05
0.0002676357
0.0004972977
0.0008188604
0.001111355
0.001399792
0.001693665
0.001993851
0.002303121
0.002622003
0.002949151
0.003282776
0.003620196
0.003958217
0.00429345
0.004622545
0.004942379
0.005250165
0.005543508
0.005819128
0.005796329
0.005821559
0.005998525
0.006325092
0.006734613
0.007123295
0.007364933
0.007497209
0.007606931
0.007693762
0.007757502
0.007798078
0.007815541
0.007810047
0.007781845
0.007731249
0.007658611
0.007564316
0.00744875
0.00731228
0.007155235
0.006835087
0.006416005
0.005958253
0.005509095
0.005096774
0.004730391
0.004406156
0.004115724
0.003854697
0.003627868
0.00344628
0.003313732
0.003192672
0.00294182
0.002437394
0.001855735
0.001206766
0.0005450326
5.477945e-05
4.086828e-05
0.0002694763
0.0004956183
0.0008141113
0.001118172
0.001412638
0.001715103
0.002027277
0.002349246
0.00268057
0.003019495
0.003363427
0.003709202
0.004053379
0.004392501
0.004723288
0.005042775
0.00534837
0.00563788
0.005777985
0.005761038
0.005839112
0.006081628
0.00645797
0.006886354
0.007255628
0.007427679
0.007554624
0.007659233
0.00774123
0.007800461
0.007836887
0.007850571
0.007841677
0.007810448
0.007757184
0.007682214
0.007585894
0.007468577
0.007330597
0.007172245
0.006851474
0.006427858
0.005966038
0.005514799
0.005102106
0.00473615
0.004412349
0.004121961
0.00386055
0.003633133
0.003451066
0.003318352
0.003197217
0.002945345
0.002440008
0.001857434
0.001207602
0.0005452175
5.478835e-05
4.108634e-05
0.000271264
0.0004944642
0.0008100969
0.001127289
0.001429121
0.001742058
0.002066369
0.002401372
0.002745393
0.003095833
0.003449469
0.003802761
0.004152117
0.004494107
0.0048256
0.005143866
0.005446595
0.005731906
0.005723297
0.005723861
0.005873625
0.006184415
0.006602954
0.007032414
0.007346791
0.007490321
0.007612091
0.007711765
0.007789114
0.007844019
0.007876463
0.007886522
0.007874358
0.00784021
0.00778436
0.007707116
0.007608805
0.007489749
0.007350246
0.007190552
0.006867757
0.006439484
0.005973902
0.005520908
0.00510803
0.004742538
0.004419095
0.004128604
0.003866638
0.003638463
0.003455763
0.003322766
0.003201565
0.002948961
0.002442722
0.001859238
0.001208529
0.0005454647
5.479655e-05
4.130025e-05
0.0002730239
0.0004938123
0.000806974
0.001138784
0.00144914
0.001773439
0.00211072
0.002459079
0.002815721
0.003177211
0.003539783
0.003899615
0.004253052
0.004596741
0.004927726
0.005243486
0.005541917
0.005688038
0.005654856
0.005712041
0.00593385
0.006303924
0.006752855
0.007171112
0.007414356
0.007552711
0.007669506
0.007764447
0.007837346
0.007888111
0.007916741
0.007923322
0.007908013
0.007871045
0.007812685
0.007733216
0.00763294
0.007512147
0.007371103
0.00721003
0.006883764
0.006450708
0.005981768
0.005527436
0.005114598
0.004749598
0.004426413
0.004135658
0.003872962
0.003643866
0.003460404
0.003327054
0.003205824
0.002952705
0.002445553
0.001861139
0.001209534
0.0005457524
5.480548e-05
4.151035e-05
0.0002747722
0.0004936616
0.0008048348
0.001152675
0.001472621
0.001809131
0.00215991
0.002521727
0.00289069
0.0032626
0.003633248
0.003998642
0.004355152
0.004699592
0.005029252
0.005341908
0.005635779
0.005611021
0.00559781
0.005727062
0.006020476
0.006440553
0.006906925
0.007304308
0.007481247
0.007614692
0.007726753
0.00781719
0.007885849
0.007932663
0.007957648
0.007960895
0.00794256
0.007902867
0.007842065
0.007760416
0.007658197
0.007535668
0.007393065
0.007230577
0.006899583
0.00646166
0.005989719
0.005534393
0.005121759
0.004757238
0.004434188
0.004143002
0.003879405
0.00364924
0.003464894
0.003331116
0.003209892
0.002956501
0.002448442
0.001863098
0.001210588
0.0005460895
5.481167e-05
4.171881e-05
0.0002765215
0.0004939904
0.0008037508
0.001169026
0.001499525
0.001848917
0.002213463
0.002588578
0.002969328
0.003350842
0.003728564
0.004098412
0.004456829
0.004800798
0.00512782
0.00543586
0.005565157
0.005526177
0.00556899
0.005771399