/*--------------------------------*- C++ -*----------------------------------*\
| =========                 |                                                 |
| \\      /  F ield         | OpenFOAM: The Open Source CFD Toolbox           |
|  \\    /   O peration     | Version:  2312                                  |
|   \\  /    A nd           | Website:  www.openfoam.com                      |
|    \\/     M anipulation  |                                                 |
\*---------------------------------------------------------------------------*/
FoamFile
{
    version     2.0;
    format      ascii;
    arch        "LSB;label=32;scalar=64";
    class       volScalarField;
    location    "3300";
    object      G;
}
// * * * * * * * * * * * * * * * * * * * * * * * * * * * * * * * * * * * * * //

dimensions      [1 0 -3 0 0 0 0];

internalField   nonuniform List<scalar> 
12000
(
14245.36
13176.2
12714.98
12445.06
12267.25
12141.96
12047.86
11971.19
11906.03
11850.93
11805.15
11767.05
11734.43
11705.39
11678.71
11653.81
11630.38
11608.24
11587.28
11567.47
11548.77
11531.1
11514.28
11498.1
11482.38
11467.02
11451.92
11436.99
11422.12
11407.19
11392.17
11377.08
11362.07
11347.3
11332.86
11318.8
11304.86
11290.51
11274.99
11257.79
11238.84
11218.39
11196.79
11174.54
11152.54
11131.26
11110.02
11087.15
11060.64
11029.36
10992.08
10948.25
10899.96
10850.93
10801.79
10747.59
10680.4
10592.8
10483.08
10307.72
14986.72
14340.99
13866.85
13531.41
13269.38
13048.78
12867.13
12721.16
12603.71
12507.06
12424.88
12352.65
12287.54
12228.06
12173.37
12122.72
12075.31
12030.34
11987.22
11945.56
11905.08
11865.59
11826.95
11789.15
11752.25
11716.38
11681.57
11647.78
11614.87
11582.65
11550.97
11519.7
11488.76
11458.15
11427.89
11398.05
11368.62
11339.42
11310.1
11280.19
11249.26
11217.25
11184.53
11151.81
11119.86
11089.13
11059.57
11030.58
11000.85
10968.33
10930.46
10885.23
10832.49
10774.5
10714.6
10654.23
10590.39
10513.8
10422.07
10301.49
15077.31
14688.56
14297.95
14017.97
13803.72
13594.2
13388.46
13206.68
13058.79
12940.69
12842.62
12755.99
12675.83
12600.34
12529.49
12463.84
12403.85
12349.63
12300.9
12257
12216.95
12179.69
12144.2
12109.72
12075.67
12041.65
12007.37
11972.53
11936.94
11900.46
11863.02
11824.64
11785.32
11745.15
11704.23
11662.72
11620.77
11578.49
11535.81
11492.42
11447.92
11402.1
11355.21
11307.95
11261.19
11215.66
11171.81
11129.66
11088.51
11046.65
11001.64
10950.83
10892.58
10827.84
10760.98
10697.08
10636.18
10567.78
10489.07
10389.89
15034.57
14799.1
14458.08
14188.2
14022.96
13881.72
13717.98
13540.29
13373.96
13233.02
13117.22
13019.49
12932.16
12849.74
12769.36
12690.48
12614.16
12542.23
12476.48
12418.12
12367.53
12324.4
12287.96
12257.18
12230.92
12208
12187.24
12167.55
12148
12127.83
12106.48
12083.46
12058.4
12031.01
12001.07
11968.51
11933.34
11895.68
11855.59
11812.95
11767.47
11719.03
11667.99
11615.22
11561.84
11508.97
11457.51
11407.83
11359.38
11310.63
11259.51
11203.87
11142.35
11076.08
11009.33
10946.06
10884.6
10815.69
10746
10658.25
14931.74
14819.42
14543.64
14249.33
14069.49
13977.43
13892.77
13773.8
13627.21
13476.82
13340.69
13225.77
13130.79
13050.26
12977.56
12907.14
12835.69
12762.33
12688
12614.62
12544.38
12479.22
12420.6
12369.34
12325.62
12289.04
12258.8
12233.89
12213.23
12195.76
12180.46
12166.36
12152.5
12138
12122.09
12104.15
12083.8
12060.87
12035.3
12006.92
11975.49
11940.87
11903.22
11863.06
11821.18
11778.48
11735.76
11693.33
11650.85
11607.5
11562.57
11515.64
11466.55
11415.73
11363.86
11309.97
11251.84
11188.94
11140.78
11080.81
14838.63
14810.81
14625.79
14330.34
14093.92
13984.76
13950.65
13911.43
13828.22
13705.61
13566.14
13430.98
13313.05
13217
13141.22
13080.31
13027.48
12976.46
12922.69
12863.78
12799.38
12730.69
12659.82
12589.08
12520.55
12455.84
12396.01
12341.72
12293.27
12250.65
12213.64
12181.75
12154.34
12130.64
12109.84
12091.17
12074.03
12057.94
12042.49
12027.18
12011.38
11994.29
11975.16
11953.37
11928.7
11901.43
11872.25
11841.93
11811.17
11780.73
11751.61
11724.74
11699.96
11674.82
11644.45
11603.96
11555.31
11509.83
11491.72
11469.77
14798.35
14809.03
14713.87
14464.81
14186.62
14011.07
13959.55
13964.45
13953.46
13894.65
13791.75
13663.41
13529.15
13404.23
13298.47
13215.97
13155.5
13111.79
13077.54
13045.44
13009.63
12966.45
12914.39
12853.67
12785.66
12712.38
12636.1
12559.09
12483.42
12410.86
12342.79
12280.21
12223.74
12173.69
12130.09
12092.81
12061.55
12035.89
12015.2
11998.58
11984.81
11972.26
11959.1
11943.63
11924.88
11902.93
11878.91
11854.63
11832.12
11813.3
11799.73
11791.88
11787.71
11781.23
11763.97
11731.59
11692.82
11666.43
11670.87
11674.72
14744.11
14787.08
14767.35
14600.24
14331.48
14093.18
13974.24
13961.3
13986.25
13990.93
13951.56
13869.67
13757.17
13628.59
13498.52
13379.8
13281.46
13207.23
13155.68
13121.56
13097.73
13076.94
13053.06
13021.73
12980.53
12928.85
12867.47
12798.17
12723.22
12645.02
12565.88
12487.83
12412.63
12341.68
12276.08
12216.63
12163.75
12117.48
12077.47
12042.99
12012.89
11985.59
11959.29
11932.42
11904.25
11875.26
11847.07
11821.95
11802.17
11789.36
11783.99
11784.68
11787.03
11783.28
11765.68
11734.32
11702.77
11688.84
11700.2
11707.72
14852.07
14854.4
14852.8
14753.53
14528.11
14258.67
14059.66
13978.2
13982.11
14011.08
14021.53
13996.17
13933.81
13839.71
13722.3
13592.75
13463.57
13346.17
13248.59
13174.38
13122.68
13089.27
13067.94
13052.06
13035.7
13014.39
12985.45
12947.78
12901.54
12847.7
12787.68
12723.07
12655.44
12586.3
12516.97
12448.55
12381.88
12317.51
12255.76
12196.79
12140.62
12087.07
12035.86
11986.87
11940.39
11897.33
11859.14
11827.47
11803.69
11788.29
11780.19
11776.06
11770.08
11755.5
11729.17
11696.75
11671.77
11663.63
11670.06
11667.37
14897.63
14885.29
14889.74
14846.05
14688.18
14434.65
14183.61
14022.72
13968.45
13980.22
14007.75
14019.99
14005.47
13961.71
13888.85
13789.25
13669.04
13538.01
13407.78
13289.17
13190.06
13114.31
13061.68
13028.78
13010.32
13000.45
12993.77
12985.96
12973.94
12955.81
12930.62
12898.11
12858.43
12811.97
12759.25
12700.81
12637.2
12569.1
12497.38
12423.25
12348.18
12273.83
12201.79
12133.51
12070.14
12012.54
11961.42
11917.47
11881.22
11852.47
11829.24
11807.17
11780.69
11746.57
11708.1
11674.83
11655.39
11647.61
11643.25
11627.04
14932.87
14907.84
14905.79
14894.27
14801.86
14595.33
14330.82
14105.97
13980.28
13946.51
13960.81
13983.25
13994.02
13987.14
13959.93
13908.8
13831.14
13728.28
13606.5
13475.8
13347.47
13231.64
13135.57
13062.85
13013.54
12984.86
12972.27
12970.45
12974.18
12978.9
12980.94
12977.63
12967.11
12948.16
12920.1
12882.6
12835.74
12780.07
12716.67
12647.2
12573.79
12498.83
12424.6
12352.86
12284.59
12220.03
12159.1
12101.95
12048.96
11999.98
11952.96
11903.92
11849.51
11791.63
11739.23
11702.42
11682.38
11667.28
11648.05
11615.88
14942.28
14909.68
14897.86
14898.15
14855.39
14709.23
14467.85
14210.34
14020.75
13929.53
13912.34
13926.97
13944.27
13953.76
13953.64
13941.29
13911.17
13857.65
13778.46
13676.15
13557.59
13432.38
13310.74
13201.75
13111.93
13044.59
12999.82
12975.04
12965.84
12967.03
12973.36
12980.23
12983.9
12981.68
12971.84
12953.49
12926.5
12891.4
12849.26
12801.51
12749.78
12695.67
12640.47
12584.83
12528.59
12471.05
12411.52
12349.9
12286.52
12221.21
12152.3
12077.5
11997.43
11919.13
11854.21
11809.72
11780.08
11749.15
11712.19
11658.39
14922.92
14888.92
14870.72
14870.35
14857.49
14769.71
14577.39
14323.09
14091.1
13942.89
13883.97
13880.78
13896.36
13911.04
13920.93
13926.98
13927.24
13915.84
13885.87
13832.42
13754.48
13655.22
13541.41
13421.96
13306.29
13202.57
13116.54
13050.87
13005.23
12976.9
12961.68
12954.81
12951.84
12949.14
12944.18
12935.6
12923.04
12906.86
12887.77
12866.51
12843.61
12819.2
12792.97
12764.07
12731.23
12693.01
12648.3
12596.49
12537.13
12469.26
12391.6
12304.55
12213.24
12127.95
12058.89
12007.6
11964.66
11915.41
11863.05
11784.66
14879.22
14850.17
14832.01
14827.2
14828.05
14787.1
14655.39
14435.42
14190.04
13995.5
13889.41
13859.15
13867.84
13884.88
13898.12
13908.26
13918.29
13927.33
13930.06
13919.21
13888.28
13833.5
13754.78
13655.8
13543.22
13425.37
13310.67
13206.25
13116.94
13044.95
12990.08
12950.32
12922.66
12903.91
12891.24
12882.59
12876.66
12872.79
12870.58
12869.6
12869.2
12868.4
12865.94
12860.36
12850.16
12833.96
12810.47
12778.22
12735.17
12679.1
12609.3
12529.22
12447.47
12374.47
12315.55
12266.27
12216.8
12157.47
12100.13
12005.33
14829.24
14809.15
14796.19
14788.48
14792.95
14783.35
14709.52
14542.88
14312.9
14090.71
13937.86
13870.22
13862.81
13879.12
13895.32
13905.5
13913.66
13924.13
13936.8
13947.16
13948.39
13933.53
13897.24
13836.89
13753.09
13649.66
13532.89
13410.49
13290.27
13179.07
13081.9
13001.67
12939.27
12893.91
12863.71
12846.24
12838.9
12839.19
12844.8
12853.66
12863.93
12873.99
12882.49
12888.44
12891.12
12889.88
12883.58
12869.85
12845.22
12806.7
12754.85
12695.89
12639.84
12594.25
12558.17
12522.71
12480.08
12426.31
12378.99
12287.06
14795.01
14784.53
14778.45
14770.74
14773.98
14780.53
14751.36
14642.17
14449.01
14221.79
14030.41
13917.82
13881.15
13888.19
13906.01
13917.85
13922.8
13926.64
13933.98
13945.14
13956.6
13962.64
13956.82
13933.15
13887.21
13817.08
13723.9
13611.87
13487.66
13359.4
13235.37
13122.86
13027.32
12951.8
12897.03
12861.64
12842.78
12836.75
12839.57
12847.59
12857.77
12867.89
12876.65
12883.61
12888.95
12892.74
12893.94
12889.67
12876.03
12850.81
12816.7
12781.83
12755.3
12740.11
12730.1
12714.83
12689.81
12655.43
12629.69
12561.29
14792.98
14789.23
14788.09
14781.91
14781.98
14792.35
14789.91
14729.84
14583.95
14373.15
14158.83
14001.11
13923.1
13907.84
13921.06
13935.58
13941.05
13939.65
13937.54
13938.87
13944.25
13951.35
13955.97
13952.75
13936.01
13900.64
13843.3
13763.27
13662.94
13547.59
13424.55
13302.05
13187.9
13088.38
13007.47
12946.62
12904.91
12879.62
12867.01
12863.03
12864.02
12867.13
12870.6
12873.77
12876.69
12879.15
12879.68
12875.29
12863
12842.88
12820.12
12803.3
12798.64
12804.67
12812.84
12814.44
12808.55
12797.78
12795.34
12760.43
14826.83
14824.52
14824.14
14818.9
14815.1
14821.11
14828.5
14802.47
14703.7
14525.49
14308.08
14114.34
13989.38
13938.67
13936.54
13950.41
13959.25
13957.52
13949
13939.4
13932.37
13928.91
13928.01
13927.2
13922.84
13910.4
13885.21
13843.4
13782.84
13703.82
13609.16
13503.82
13394.12
13286.71
13187.57
13101.19
13030.17
12975.12
12934.99
12907.54
12889.95
12879.44
12873.69
12871.04
12870.15
12869.22
12865.56
12856.23
12840.1
12820.07
12802.99
12795.96
12801.2
12814.11
12827.03
12835.55
12841.8
12848.53
12861.31
12854.35
14886.61
14880.26
14876.38
14870.15
14862.39
14860.36
14865.68
14857.86
14798.6
14661.56
14460.68
14247.6
14079.26
13984.39
13954.45
13959.4
13970.18
13971.48
13961.41
13944.7
13926.63
13910.56
13898.04
13889.39
13883.96
13879.89
13874.08
13862.45
13840.63
13804.85
13752.77
13684.02
13600.46
13505.86
13405.41
13304.81
13209.51
13123.94
13051.08
12992.28
12947.42
12915.3
12894.03
12881.18
12873.62
12867.39
12858.31
12843.63
12824.13
12804.73
12791.97
12789.58
12795.56
12804.12
12810.94
12816.77
12825.72
12838.97
12855
12860.5
14952.34
14939.39
14929.86
14920.97
14909.85
14900.06
14897.83
14895.96
14865.13
14770.1
14600.79
14388.32
14188.65
14048.2
13979.76
13964.34
13970.76
13974.86
13966.87
13948.08
13923.98
13899.52
13877.86
13860.91
13849.88
13845.25
13846.25
13850.52
13854.12
13852.02
13838.95
13810.39
13763.52
13697.77
13615.06
13519.49
13416.69
13312.94
13214.22
13125.5
13050.26
12990.33
12945.73
12914.56
12892.98
12875.74
12858.02
12837.77
12817.18
12801.38
12794.35
12795.2
12798.44
12798.79
12796.08
12795.18
12800.66
12811.26
12821.39
12824.28
15005.44
14986.96
14972.3
14960.16
14946.78
14931.97
14922.16
14919.19
14905.6
14847.07
14717.13
14523.47
14309.8
14130.13
14017.31
13969.88
13962.32
13965.51
13961.34
13945.35
13921.36
13895.06
13870.71
13850.76
13836.77
13829.84
13830.53
13838.27
13850.92
13864.73
13874.67
13875.16
13861.02
13828.39
13775.46
13702.84
13613.55
13512.55
13406
13300.45
13202
13115.47
13043.65
12986.53
12941.37
12903.87
12870.54
12841.08
12818.58
12806.64
12805.18
12808.75
12809.75
12804.34
12795.52
12789.85
12790.73
12794.72
12795.97
12788.96
15039.06
15017.54
14999.7
14984.59
14969.9
14953.21
14938.67
14932.07
14926.49
14895.02
14804.39
14642.16
14432.84
14226.83
14070.68
13982.85
13950.9
13947.02
13946.55
13937.58
13919.74
13897.96
13877.07
13859.85
13847.39
13840.18
13838.62
13842.9
13852.58
13866.15
13880.84
13892.81
13897.48
13890.22
13867.06
13825.42
13764.59
13686.02
13593.25
13491.46
13386.79
13285.23
13191.35
13107.33
13032.99
12967.22
12910.22
12864.69
12834.46
12820.91
12820.01
12823.24
12822.63
12815.87
12806.89
12800.99
12799.32
12797.35
12791.89
12776.24
15051.05
15030.94
15012.95
14996.04
14980.66
14964.33
14948.42
14938.45
14934.46
14919.47
14862
14736.69
14547.58
14332.17
14141.34
14010.88
13946.22
13927.83
13928.62
13929.09
13922.17
13909.67
13896.05
13884.46
13875.86
13869.98
13866.42
13865.24
13866.77
13871.27
13878.48
13887.23
13895.35
13899.68
13896.42
13881.68
13852.13
13805.73
13742.25
13663.47
13572.86
13474.74
13373.14
13271.15
13171.23
13076.57
12992.26
12924.66
12878.48
12853.44
12843.36
12839.3
12834.69
12828.29
12822.58
12819.36
12817.11
12811.75
12803.75
12785.3
15057.37
15038.61
15021.29
15002.93
14986.4
14970.63
14955
14942.48
14936.03
14927.96
14894.16
14804.75
14646.81
14439.89
14229.29
14061.38
13959.9
13919.32
13915.88
13924.59
13930.41
13929.48
13924.26
13918.12
13912.64
13907.63
13902.28
13896.2
13889.76
13883.98
13880.02
13878.8
13880.5
13884.23
13887.93
13888.49
13882.16
13865.18
13834.56
13788.5
13726.52
13649.14
13557.53
13453.69
13341.51
13227.68
13121.4
13031.86
12964.51
12918.67
12888.71
12868.16
12853.41
12843.86
12839.21
12837
12833.63
12826.46
12818.93
12803.19
15060.88
15044.35
15028.37
15009.19
14991.12
14974.99
14959.51
14944.87
14934.12
14926.25
14906.63
14847.92
14726.67
14544.01
14332.01
14138.47
14001.42
13932.09
13915.95
13927.02
13943.14
13953.16
13955.56
13953.15
13948.57
13942.73
13935.26
13925.67
13914.06
13901.32
13888.91
13878.45
13871.39
13868.52
13869.68
13873.58
13877.8
13879.06
13873.63
13857.64
13827.3
13779.07
13710.41
13621.07
13514.67
13399.22
13285.38
13182.85
13096.8
13027.14
12971.07
12926.68
12894.16
12873.59
12862.15
12854.33
12845.71
12835.39
12828.07
12816.78
15068.8
15053.28
15037.9
15017.99
14997.94
14979.94
14963.13
14946.1
14930.75
14919.73
14907
14872
14787.7
14640.33
14444.78
14241.37
14075.14
13972.98
13934.11
13937.42
13957
13974.48
13982.73
13982.49
13977.12
13969.13
13959.37
13947.75
13934.15
13918.99
13903.22
13888.19
13875.37
13866.09
13861.31
13861.31
13865.5
13872.29
13878.95
13881.46
13874.54
13852.29
13809.63
13744.41
13659.11
13560.62
13457.79
13357.78
13263.95
13176.81
13097.12
13027.84
12972.73
12932.81
12904.44
12881.6
12860.71
12842.4
12831.1
12820.61
15083.01
15066.08
15049.76
15028.73
15006.52
14985.53
14965.91
14946.16
14927.17
14912.68
14902.63
14884.39
14833.09
14725.74
14560.31
14363.26
14178.16
14043
13972.48
13955.96
13969.03
13988.27
14000.19
14001.67
13995.47
13985.41
13973.88
13961.6
13948.49
13934.47
13919.78
13905.02
13891.04
13878.85
13869.5
13863.97
13862.97
13866.5
13873.35
13880.55
13883.3
13875.69
13852.59
13811.63
13754.34
13685.13
13608.6
13527.16
13440.97
13350.41
13258.73
13172.05
13096.24
13033.31
12980.8
12934.9
12894.4
12861.04
12838.71
12819.99
15099.44
15079.11
15060.63
15038.21
15014.19
14990.26
14967.49
14945.5
14924.74
14908.49
14899.56
14892.14
14866.91
14797.92
14669.84
14492.74
14301.3
14137.78
14030.71
13983.66
13979.4
13993.4
14006.52
14010.24
14004.8
13994.17
13982.02
13970.17
13958.89
13947.81
13936.53
13924.95
13913.17
13901.55
13890.71
13881.55
13875.11
13872.14
13872.4
13874.15
13874.07
13868.24
13853.74
13829.93
13798.28
13760.57
13716.61
13663.73
13598.67
13520.81
13433.8
13344.06
13257.21
13175.67
13099.36
13028.22
12964.12
12909.57
12869.12
12829.98
15114.34
15088.72
15067.48
15043.69
15018.77
14993.16
14968.47
14945.65
14925.36
14909.66
14901.72
14900.29
14892.73
14855.28
14765.02
14616.82
14431.8
14249.21
14106.71
14022.73
13991.85
13993.26
14004.48
14011.07
14008.74
13999.85
13988.56
13977.8
13968.55
13960.49
13952.85
13944.98
13936.46
13927.11
13917.09
13906.88
13897.2
13888.58
13880.88
13872.98
13863.24
13850.49
13835.15
13819.24
13804.89
13791.96
13776.73
13753
13715.3
13661.78
13594.61
13517.73
13434.3
13346.14
13255.24
13165.01
13079.99
13002.9
12941.07
12870.61
15120.3
15089.97
15067.06
15042.98
15018.81
14993.87
14969.69
14948.17
14930.26
14916.85
14910.03
14910.79
14912.6
14897.14
14839.76
14724.25
14556.9
14367.84
14197.29
14075.95
14012.41
13994.29
13999.46
14008.49
14011.25
14006.51
13997.6
13988.22
13980.35
13974.15
13968.85
13963.51
13957.4
13950.13
13941.6
13931.95
13921.29
13909.43
13895.63
13878.87
13858.81
13836.81
13816.28
13801.51
13795.18
13796.14
13799.12
13797.05
13784.26
13758.24
13718.85
13666.22
13599.94
13520.26
13429.93
13333.96
13238.05
13144.35
13064.71
12958.86
15114.51
15081.96
15059.68
15037.13
15015.69
14993.92
14972.89
14954.55
14940.02
14929.34
14923.23
14923.3
14927.57
14924.36
14891.94
14808.43
14667.02
14485.09
14298.68
14145.47
14047.44
14003.94
13997.61
14006.6
14014.91
14016.09
14010.98
14003.19
13995.71
13989.65
13984.67
13979.87
13974.47
13968.06
13960.52
13951.75
13941.32
13928.18
13910.88
13888.39
13861.32
13832.79
13807.95
13791.95
13787.24
13792.16
13801.74
13810.38
13814.05
13810.49
13797.62
13772.23
13730.82
13671.86
13597.32
13511.5
13419.39
13321.54
13234.75
13100.12
15098.45
15067.65
15048.71
15029.69
15012.56
14995.74
14979.6
14965.4
14954.03
14945.2
14938.78
14936.18
14938.24
14939.4
14923.51
14868.08
14757.12
14594.43
14406.51
14231.56
14101.51
14028.67
14004.45
14008.46
14020.42
14027.97
14027.76
14021.99
14014.22
14006.74
14000.15
13993.99
13987.66
13980.84
13973.42
13965.1
13954.95
13941.3
13922.32
13897.25
13867.57
13837.36
13812.01
13795.93
13790.4
13793.43
13801.4
13811.32
13821.63
13830.95
13836.34
13832.98
13815.96
13782.62
13733.38
13670.18
13596.01
13509.03
13429.51
13283.06
15078.69
15053.45
15039.77
15025.56
15013.31
15001.74
14990.65
14980.23
14970.85
14962.29
14954.3
14948.02
14945.62
14946.06
14939.48
14906.48
14826.52
14691.69
14515.95
14331.92
14176.18
14072.66
14024.28
14016.34
14027.38
14039.82
14044.95
14041.98
14034.01
14024.4
14015.01
14006.28
13998.02
13990.03
13982.07
13973.51
13962.98
13948.52
13928.52
13902.95
13874.21
13846.64
13824.73
13810.99
13805.08
13804.73
13807.88
13814.04
13823.71
13836.43
13849.45
13858.25
13858.51
13847.6
13824.57
13788.81
13741.04
13677.05
13617.66
13481.39
15064.41
15046.68
15038.44
15029.01
15020.85
15013.29
15005.83
14997.71
14988.72
14978.9
14968.44
14958.41
14951.31
14948.74
14946.24
14929.49
14877.65
14774.71
14621.88
14441.7
14269.52
14137.3
14060
14032.31
14035.59
14049.22
14059
14059.72
14052.61
14041.37
14029.16
14017.63
14007.25
13997.9
13989.03
13979.52
13967.64
13951.55
13930.4
13905.33
13879.55
13857.12
13840.93
13831.33
13826.43
13823.93
13823.05
13824.83
13830.7
13840.62
13852.57
13863.64
13871.45
13874.39
13871.05
13859.25
13838.2
13802.21
13769.39
13662.51
15061.53
15051.26
15047.08
15041.17
15035.44
15029.75
15023.63
15015.89
15005.92
14994.02
14980.96
14967.92
14957.16
14951.33
14949.72
14943.4
14914.41
14842.84
14719.29
14554.2
14376.42
14220.89
14112.89
14058.52
14046.04
14055.12
14067.32
14072.24
14067.71
14056.55
14042.72
14029.13
14017.08
14006.53
13996.51
13985.34
13971.13
13952.58
13930.02
13905.84
13883.76
13867.06
13856.85
13851.66
13848.72
13846.06
13843.7
13843.06
13845.29
13850.18
13856.52
13863.31
13870.37
13877.55
13883.89
13887.12
13886.15
13875.1
13867.05
13799.3
15073.34
15067.94
15065.14
15060.64
15055.3
15049.26
15042.24
15033.22
15021.54
15007.61
14992.56
14977.7
14964.83
14956.55
14954.19
14953.42
14940.81
14896.46
14803.96
14662.05
14489.58
14319.1
14182.44
14097.07
14061.18
14058.65
14069.33
14077.92
14077.68
14069.01
14055.68
14041.5
14028.57
14017.03
14005.53
13992.02
13974.76
13953.34
13929.43
13906.43
13888.03
13876.36
13870.94
13869.18
13868.28
13866.87
13865.32
13864.57
13864.8
13865.28
13865.39
13865.64
13867.41
13871.77
13878.74
13887.08
13896.3
13901.5
13909.91
13879.19
15097.13
15092.88
15088.74
15083.5
15076.95
15069.08
15059.84
15048.71
15035.33
15020.12
15004.18
14988.76
14975.2
14965.51
14961.74
14962.8
14960.1
14936.62
14872.97
14758.58
14600.95
14425.74
14266.42
14149.58
14084.64
14063.26
14066.92
14077.06
14081.94
14078.1
14067.72
14054.67
14041.68
14029.19
14015.78
13999.38
13978.8
13954.77
13930.12
13908.72
13893.69
13885.82
13883.42
13883.62
13884.19
13884.46
13884.78
13885.21
13884.85
13882.57
13878.13
13872.77
13868.53
13867.11
13869.46
13875.71
13886.15
13897.37
13911.61
13906.68
15126.29
15119.93
15112.69
15105.31
15096.84
15086.82
15075.24
15062.19
15047.75
15032.29
15016.61
15001.65
14988.33
14977.99
14972.58
14972.89
14974.54
14964.92
14925.19
14839
14703.3
14534
14361.26
14216.79
14120.48
14074.07
14064.28
14071.96
14081.09
14083.45
14078.09
14067.79
14055.38
14041.76
14025.92
14006.36
13982.81
13957.12
13932.85
13913.68
13901.67
13896.34
13895.36
13896.21
13897.52
13899.14
13901.11
13902.61
13902.12
13898.4
13891.52
13882.87
13874.36
13867.74
13864.49
13865.68
13871.94
13881.12
13892.41
13898.65
15153.45
15143.3
15132.7
15122.85
15112.65
15101.17
15088.19
15074.19
15059.65
15044.9
15030.29
15016.34
15003.6
14992.89
14985.72
14983.68
14985.54
14983.34
14961.33
14901.04
14791.35
14637.49
14462.35
14297.96
14171.88
14096.52
14066.83
14066.38
14076.77
14085.01
14085.78
14079.38
14067.98
14052.97
14034.31
14011.71
13986.12
13960.25
13937.75
13921.49
13912.23
13908.49
13907.88
13908.58
13910.02
13912.25
13914.83
13916.4
13915.31
13910.67
13902.84
13893.05
13882.75
13873.39
13866.46
13863.16
13863.78
13866.89
13870.78
13875.94
15173.38
15159.71
15146.83
15135.16
15124.04
15112.25
15099.3
15085.65
15071.95
15058.49
15045.28
15032.42
15020.13
15008.91
14999.83
14994.64
14994.06
14994.22
14983.71
14945.05
14862.27
14731
14564.46
14390.4
14239.98
14134.85
14079.92
14064.76
14071.4
14083.16
14089.78
14087.77
14077.7
14061.22
14039.72
14014.64
13988.3
13963.89
13944.51
13931.72
13924.99
13922.29
13921.59
13921.86
13923.04
13925.03
13926.95
13927.28
13924.76
13919.1
13910.95
13901.34
13891.29
13881.85
13874.07
13868.53
13864.75
13861.49
13857.89
13855.41
15184.72
15169.26
15155.9
15143.58
15132.47
15121.42
15109.72
15097.5
15085.27
15073.26
15061.32
15049.23
15037
15024.94
15013.83
15005.26
15000.97
15000.11
14995.72
14973.41
14915.68
14810.92
14662.21
14489.57
14323.16
14190.89
14107.61
14071.39
14067.91
14078.89
14089.49
14091.61
14083.17
14065.61
14041.83
14015.26
13989.55
13968.01
13952.66
13943.57
13939.15
13937.25
13936.43
13936.32
13936.96
13937.94
13938.12
13936.19
13931.56
13924.58
13916.18
13907.28
13898.64
13890.91
13884.42
13878.76
13872.7
13865.02
13856.56
13845.68
15189.83
15174.82
15162.66
15150.85
15140.38
15130.57
15120.69
15110.4
15099.79
15089
15077.85
15066.04
15053.45
15040.27
15027.13
15015.41
15007.15
15003.44
15001.06
14989.71
14953.05
14875.28
14750.61
14589.52
14417.12
14263.57
14151.89
14089.82
14069.53
14073.96
14085.12
14090.24
14083.75
14066.11
14041.31
14014.61
13990.78
13972.91
13961.8
13956.17
13953.74
13952.57
13951.81
13951.42
13951.3
13950.7
13948.45
13943.78
13936.79
13928.38
13919.66
13911.54
13904.66
13899.23
13894.81
13890.04
13883.35
13873.69
13863.66
13847.25
15193.25
15180.4
15170.38
15159.8
15150.14
15141.37
15133.03
15124.41
15115.11
15105.05
15094.12
15082.11
15068.86
15054.5
15039.56
15025.22
15013.43
15006.2
15003.06
14997.76
14976.91
14923.62
14825.64
14683.93
14515.72
14349.24
14212.52
14122.4
14079.51
14070.94
14077.92
14083.91
14079.55
14063.35
14039.48
14014.29
13993.26
13979.15
13971.75
13968.84
13967.91
13967.39
13966.82
13966.18
13965.08
13962.56
13957.72
13950.38
13941.28
13931.64
13922.67
13915.27
13909.91
13906.39
13903.54
13899.49
13892.86
13883.04
13873.79
13855.65
15199.52
15189.43
15181.51
15172.22
15163.07
15154.64
15146.9
15139.06
15130.37
15120.48
15109.31
15096.79
15082.8
15067.45
15051.16
15034.89
15020.33
15009.69
15004.16
15000.89
14990.29
14956.83
14884.84
14767.28
14612.28
14442.56
14287.26
14170.13
14100.78
14072.99
14070.12
14073.82
14071.26
14058.19
14037.58
14015.71
13998.13
13987.31
13982.49
13981.2
13981.12
13981.02
13980.6
13979.61
13977.33
13972.84
13965.66
13956.2
13945.6
13935.23
13926.26
13919.51
13915.17
13912.57
13910.08
13905.87
13899.21
13890.02
13882.44
13865.24
15211.42
15203.49
15196.76
15188.24
15179.03
15170.03
15161.7
15153.5
15144.57
15134.33
15122.65
15109.54
15094.96
15078.98
15061.91
15044.46
15027.97
15014.42
15005.77
15001.63
14996.2
14976.97
14927.71
14835.91
14700.95
14537.72
14372.48
14232.57
14135.54
14083.45
14064.78
14061.98
14059.99
14051.3
14036.22
14019.47
14005.86
13997.59
13994.03
13993.16
13993.17
13993.13
13992.62
13991.03
13987.45
13981.17
13972.21
13961.43
13950.16
13939.72
13931.15
13924.98
13921.04
13918.21
13914.8
13909.49
13902.35
13893.75
13887.52
13872.08
15229.1
15221.9
15215.06
15206.45
15196.56
15186.25
15176.34
15166.76
15156.83
15145.9
15133.64
15120.05
15105.14
15088.95
15071.64
15053.69
15036.03
15020.24
15008.42
15001.68
14997.45
14986.96
14955.69
14888.51
14777.71
14629.41
14463.77
14307.86
14184.85
14105.32
14065.31
14051.07
14047.18
14043.04
14035.12
14025.01
14015.85
14009.57
14006.2
14004.76
14004.19
14003.77
14002.79
14000.3
13995.38
13987.66
13977.6
13966.35
13955.24
13945.43
13937.63
13931.98
13927.82
13923.82
13918.61
13911.62
13903.61
13895.11
13889.3
13874.99
15250.4
15242.28
15234.1
15224.52
15213.49
15201.54
15189.58
15178.05
15166.68
15154.87
15142.13
15128.28
15113.32
15097.24
15080.12
15062.17
15043.96
15026.64
15012.06
15002.07
14996.47
14990.15
14971.75
14926.07
14840.69
14713.47
14556.46
14392.85
14248.22
14140.65
14075.05
14044.2
14034.66
14033.67
14033.27
14030.75
14026.61
14022.25
14018.62
14016.07
14014.47
14013.23
14011.37
14007.72
14001.51
13992.74
13982.24
13971.27
13961.03
13952.37
13945.6
13940.33
13935.51
13929.83
13922.52
13913.8
13904.8
13895.88
13889.56
13875.08
15271.8
15261.49
15251.26
15240.1
15227.76
15214.3
15200.46
15186.99
15174.12
15161.42
15148.31
15134.4
15119.59
15103.84
15087.13
15069.5
15051.23
15033.05
15016.43
15003.39
14995.21
14989.86
14979.62
14951.2
14889.95
14787.09
14645.98
14483.25
14323.5
14190.06
14096.74
14044.65
14024.77
14023.75
14029.6
14034.71
14036.16
14034.24
14030.66
14027.07
14024.25
14021.86
14018.78
14013.81
14006.43
13997.01
13986.6
13976.45
13967.54
13960.35
13954.65
13949.56
13943.82
13936.43
13927.32
13917.27
13907.43
13897.75
13890.37
13874.55
15289.89
15276.87
15264.5
15251.61
15238.08
15223.59
15208.51
15193.64
15179.51
15166.03
15152.62
15138.78
15124.22
15108.87
15092.66
15075.52
15057.53
15039.1
15021.3
15005.96
14995.08
14988.84
14982.98
14967.16
14926.77
14848.63
14728.16
14574.06
14406.99
14252.58
14132.1
14055.6
14020.39
14014.67
14023.72
14035.32
14042.64
14044.16
14041.61
14037.58
14033.66
14029.91
14025.36
14019.04
14010.71
14001
13991.08
13982.07
13974.68
13968.93
13964.11
13958.96
13952.27
13943.54
13933.3
13922.57
13912.23
13901.76
13893.19
13875.48
15302.45
15286.97
15272.98
15258.62
15244.26
15229.34
15213.85
15198.34
15183.43
15169.32
15155.65
15141.86
15127.59
15112.65
15096.94
15080.38
15062.92
15044.75
15026.58
15009.91
14996.86
14988.98
14984.75
14977.08
14953.03
14897.37
14799.47
14660.08
14493.89
14325.67
14181.56
14079.69
14024.8
14008.83
14016.45
14032.05
14044.92
14050.89
14050.75
14047.26
14042.6
14037.43
14031.3
14023.68
14014.67
14005.03
13995.88
13988.15
13982.19
13977.6
13973.24
13967.77
13960.26
13950.78
13940.2
13929.46
13918.99
13907.93
13898.45
13878.98
15308.98
15291.86
15277.06
15261.8
15247.02
15232.21
15217.02
15201.59
15186.41
15171.87
15157.92
15144.15
15130.13
15115.6
15100.43
15084.51
15067.76
15050.21
15032.32
15015.21
15000.8
14991.2
14986.76
14983.33
14970.54
14933.29
14857.28
14736.57
14578.94
14405.55
14244.08
14118.59
14041.22
14009.5
14010.05
14025.82
14042.89
14053.89
14057.49
14055.65
14050.77
14044.28
14036.58
14027.82
14018.42
14009.18
14001.03
13994.57
13989.78
13985.84
13981.45
13975.4
13967.29
13957.62
13947.34
13937.07
13926.8
13915.48
13905.54
13884.94
15310.52
15292.79
15278.01
15262.49
15247.68
15233.25
15218.75
15203.88
15188.85
15174.12
15159.91
15146.1
15132.32
15118.25
15103.68
15088.48
15072.53
15055.84
15038.63
15021.71
15006.64
14995.54
14989.76
14987.38
14980.89
14956.96
14900.15
14799.87
14657.26
14487.78
14317.24
14172.6
14072.2
14020.25
14007.83
14018.89
14037.59
14053.23
14061.39
14062.22
14057.79
14050.26
14041.15
14031.44
14021.94
14013.39
14006.39
14001.11
13997.09
13993.25
13988.34
13981.56
13973.04
13963.57
13953.95
13944.34
13934.44
13923.18
13913.19
13892.31
15309.02
15291.56
15277.39
15262.15
15247.56
15233.56
15219.76
15205.62
15191.01
15176.31
15161.97
15148.14
15134.63
15121.07
15107.17
15092.75
15077.67
15061.87
15045.5
15029.11
15013.85
15001.5
14993.66
14989.9
14985.37
14969.53
14928.01
14847.94
14724.97
14567.83
14397.49
14240.4
14119
14044.24
14013.56
14014.45
14030.95
14049.55
14062.23
14066.43
14063.22
14055.2
14044.99
14034.59
14025.22
14017.55
14011.74
14007.45
14003.79
13999.57
13993.81
13986.26
13977.49
13968.38
13959.42
13950.38
13940.83
13929.83
13920.06
13899.64
15306.49
15289.83
15276.5
15261.89
15247.64
15233.94
15220.63
15207.11
15193.05
15178.64
15164.37
15150.63
15137.41
15124.4
15111.22
15097.58
15083.32
15068.35
15052.78
15036.98
15021.71
15008.25
14997.94
14991.11
14985.13
14972.71
14942.14
14880.54
14779.73
14641.68
14480.54
14319.09
14181.15
14083.43
14030.67
14016.02
14025.5
14044.02
14060.08
14067.86
14066.65
14058.96
14048.25
14037.48
14028.41
14021.63
14016.89
14013.29
14009.61
14004.69
13997.99
13989.76
13980.86
13972.06
13963.52
13954.79
13945.43
13934.7
13925.18
13905.71
15304.34
15288.64
15276.13
15262.26
15248.42
15234.89
15221.76
15208.65
15195.15
15181.23
15167.3
15153.8
15140.89
15128.37
15115.84
15102.9
15089.33
15075.05
15060.13
15044.81
15029.54
15014.96
15001.94
14991.04
14981.31
14968.7
14945.01
14899.12
14820.85
14706.3
14561.92
14404.46
14256.33
14138.07
14061.54
14026.83
14024.03