/*--------------------------------*- C++ -*----------------------------------*\
| =========                 |                                                 |
| \\      /  F ield         | OpenFOAM: The Open Source CFD Toolbox           |
|  \\    /   O peration     | Version:  2312                                  |
|   \\  /    A nd           | Website:  www.openfoam.com                      |
|    \\/     M anipulation  |                                                 |
\*---------------------------------------------------------------------------*/
FoamFile
{
    version     2.0;
    format      ascii;
    arch        "LSB;label=32;scalar=64";
    class       volScalarField;
    location    "3300";
    object      ILambda_1_0;
}
// * * * * * * * * * * * * * * * * * * * * * * * * * * * * * * * * * * * * * //

dimensions      [1 0 -3 0 0 0 0];

internalField   nonuniform List<scalar> 
12000
(
1435.761
1010.392
783.7976
687.6967
660.6742
662.9134
673.1267
682.1392
687.4223
689.4119
689.4032
688.5594
687.6028
686.845
686.3346
686.0022
685.7548
685.5198
685.2557
684.9478
684.5983
684.2156
683.8068
683.375
682.9205
682.4425
681.9401
681.4128
680.8597
680.2809
679.677
679.0502
678.4064
677.7519
677.0743
676.3733
675.6492
674.8863
674.0409
673.0792
672.0273
670.9321
669.7751
668.4605
666.9935
665.4913
664.0175
662.4675
660.6192
658.5182
656.2894
653.7902
650.7934
647.3711
643.6458
639.4237
634.2504
627.5442
619.548
600.133
1774.123
1602.87
1319.714
1047.945
848.0241
728.878
673.4158
657.8197
661.7501
671.7508
680.8401
686.5921
689.0933
689.3989
688.6272
687.5742
686.6551
685.9968
685.565
685.267
685.0141
684.7475
684.4396
684.0848
683.688
683.2567
682.797
682.3127
681.805
681.2737
680.7182
680.1378
679.5331
678.9086
678.2674
677.6073
676.927
676.2265
675.4967
674.7097
673.836
672.8737
671.8451
670.7462
669.5333
668.1905
666.7644
665.3132
663.802
662.1232
660.2471
658.199
655.9131
653.2683
650.2416
646.857
643.1147
638.3353
634.4988
620.5942
1774.878
1790.98
1699.371
1507.607
1270.018
1044.071
866.4322
748.917
685.2199
660.3515
658.2516
666.1189
675.8073
683.3492
687.6711
689.2511
689.101
688.1703
687.1021
686.2144
685.5867
685.1694
684.8703
684.6062
684.323
683.9953
683.618
683.1965
682.7389
682.2521
681.7401
681.2046
680.6451
680.0618
679.4578
678.8346
678.1923
677.5318
676.8552
676.1565
675.4147
674.6048
673.7196
672.7677
671.7412
670.6114
669.364
668.0274
666.6434
665.1936
663.6228
661.9096
660.0462
657.9703
655.6045
652.8958
649.9692
646.2624
643.7552
634.7697
1746.208
1778.475
1797.362
1755.735
1634.312
1449.114
1236.937
1036.155
873.6113
760.3223
693.8697
663.8439
657.3386
662.8408
672.116
680.4626
686.0092
688.6761
689.2256
688.5954
687.5415
686.5233
685.7335
685.1874
684.8146
684.5259
684.2491
683.9408
683.5832
683.1754
682.7244
682.2385
681.7238
681.1837
680.6203
680.0356
679.4308
678.8067
678.1654
677.5093
676.8348
676.1274
675.3688
674.5491
673.6661
672.7093
671.6587
670.5025
669.2565
667.9429
666.5573
665.078
663.4904
661.7719
659.8793
657.7273
655.3899
652.4536
650.2911
644.153
1731.872
1743.111
1770.071
1794.655
1785.067
1716.505
1584.766
1406.645
1210.907
1026.815
875.5975
766.9665
700.1048
667.2082
657.5921
660.9918
669.4818
678.0739
684.3942
687.9139
689.1218
688.8627
687.9259
686.8613
685.9555
685.2919
684.8351
684.5033
684.2163
683.9169
683.5749
683.1813
682.7392
682.2564
681.7405
681.1972
680.6307
680.0433
679.4365
678.8126
678.174
677.5193
676.8392
676.1206
675.3531
674.5291
673.6375
672.6616
671.5901
670.4282
669.1875
667.8703
666.4707
664.9784
663.3802
661.6178
659.7193
657.3893
655.4894
650.7868
1724.37
1725.712
1735.359
1757.897
1784.66
1794.55
1764.315
1680.201
1544.098
1372.223
1188.565
1016.932
874.8453
770.7821
704.6276
670.1878
658.3808
660.0205
667.6229
676.151
682.9311
687.0955
688.8804
689.0057
688.2447
687.1968
686.2194
685.4583
684.9176
684.5324
684.2223
683.9213
683.5887
683.2068
682.7736
682.2949
681.7791
681.2337
680.6638
680.0731
679.4647
678.8413
678.203
677.5445
676.8566
676.1298
675.3552
674.5211
673.6126
672.6176
671.5344
670.3671
669.1195
667.7907
666.3812
664.8646
663.2612
661.3613
659.7642
655.907
1722.633
1722.027
1722.152
1728.612
1746.021
1771.269
1791.204
1786.824
1741.287
1647.093
1509.107
1342.704
1168.61
1006.932
872.5231
772.7867
707.9044
672.738
659.3958
659.5976
666.3267
674.6229
681.6481
686.2871
688.5593
689.0528
688.4967
687.51
686.4996
685.6639
685.0466
684.6044
684.2625
683.951
683.6211
683.247
682.8211
682.3466
681.8316
681.284
680.7106
680.1167
679.5066
678.8819
678.2402
677.5755
676.88
676.1452
675.3598
674.5099
673.5827
672.5717
671.4761
670.2965
669.0374
667.6893
666.2787
664.654
663.3064
660.0614
1710.95
1713.611
1714.924
1716.004
1720.948
1734.309
1756.433
1780.197
1791.727
1774.974
1717.8
1616.668
1478.073
1316.543
1150.396
997.0264
869.2601
773.5789
710.2608
674.8924
660.4894
659.5293
665.4463
673.4227
680.5449
685.5224
688.1955
689.0256
688.6839
687.7876
686.7755
685.8881
685.2054
684.7074
684.3294
684.0011
683.668
683.2977
682.8771
682.4062
681.8916
681.3418
680.7649
680.1678
679.5546
678.9258
678.278
677.6058
676.9018
676.1558
675.355
674.4863
673.5403
672.5114
671.3998
670.1989
668.9368
667.4969
666.3143
663.5237
1723.028
1716.125
1712.792
1711.183
1710.792
1713.664
1723.284
1741.463
1765.111
1785.083
1788.061
1760.747
1694.49
1588.415
1449.957
1292.849
1133.533
987.3162
865.4181
773.5312
711.9267
676.7058
661.5926
659.7011
664.8844
672.4991
679.6158
684.8232
687.8176
688.9452
688.8133
688.0237
687.033
686.1139
685.3782
684.8292
684.4139
684.0648
683.7243
683.3544
682.9371
682.4687
681.9541
681.4021
680.8218
680.2206
679.6021
678.9664
678.3104
677.6289
676.9132
676.1516
675.3315
674.4416
673.475
672.4205
671.3
670.014
668.9502
666.4877
1730.116
1724.465
1718.557
1713.712
1710.049
1707.698
1708.093
1713.97
1727.69
1748.7
1771.686
1786.7
1781.479
1745.117
1671.605
1561.936
1424.085
1271.051
1117.757
977.8374
861.2072
772.877
713.0573
678.2243
662.6667
660.037
664.5703
671.8109
678.8522
684.2044
687.4497
688.8329
688.8969
688.22
687.2659
686.3308
685.5536
684.959
684.5071
684.1351
683.7841
683.4121
682.9961
682.5291
682.0143
681.4602
680.8762
680.2692
679.6429
678.998
678.3315
677.637
676.9047
676.1228
675.2808
674.3628
673.3817
672.2444
671.2932
669.0859
1733.98
1730.608
1725.916
1720.542
1715.245
1710.423
1706.475
1704.569
1706.945
1716.1
1733.01
1755.255
1776.174
1785.708
1772.823
1728.656
1649.252
1536.947
1400.013
1250.773
1102.881
968.6002
856.7559
771.7675
713.7566
679.4798
663.6831
660.4779
664.4452
671.3189
678.2403
683.6726
687.1092
688.7075
688.9489
688.3834
687.4745
686.5346
685.7249
685.0898
684.6027
684.2065
683.8425
683.4657
683.0491
682.5826
682.0674
681.5109
680.9218
680.3069
679.6707
679.0138
678.3327
677.6202
676.8675
676.0581
675.1989
674.2006
673.364
671.3848
1735.599
1733.659
1730.832
1726.934
1722.181
1716.973
1711.661
1706.67
1702.948
1702.325
1707.202
1719.393
1738.524
1760.778
1778.738
1782.628
1762.663
1711.722
1627.472
1513.241
1377.437
1231.759
1088.782
959.6114
852.1538
770.3107
714.1019
680.4979
664.6209
660.9767
664.4581
670.9844
677.7605
683.2257
686.8053
688.5824
688.9815
688.5222
687.6622
686.7248
685.8894
685.2179
684.6965
684.2747
683.8952
683.5108
683.0917
682.6244
682.1077
681.5471
680.9508
680.3259
679.6769
679.0042
678.305
677.5676
676.7978
675.9127
675.1779
673.4117
1735.026
1734.232
1732.822
1730.618
1727.473
1723.413
1718.611
1713.298
1707.806
1702.858
1699.903
1701.087
1708.579
1723.334
1743.791
1765.128
1779.576
1777.857
1751.386
1694.537
1606.273
1490.66
1356.14
1213.83
1075.371
950.8792
847.4708
768.592
714.1577
681.3043
665.4687
661.4984
664.5671
670.7718
677.3903
682.855
686.5398
688.465
689.003
688.6427
687.8326
686.9026
686.0464
685.3415
684.7861
684.3369
683.9388
683.5438
683.1192
682.6483
682.1272
681.56
680.9542
680.3167
679.6527
678.9584
678.244
677.4373
676.7759
675.1935
1732.207
1732.491
1732.251
1731.419
1729.872
1727.473
1724.154
1719.953
1714.982
1709.448
1703.852
1699.282
1697.536
1700.798
1710.776
1727.544
1748.548
1768.275
1778.878
1771.695
1739.265
1677.239
1585.637
1469.075
1335.953
1196.85
1062.582
942.4098
842.7614
766.6812
713.98
681.9266
666.2245
662.0198
664.7402
670.6511
677.1081
682.5489
686.3096
688.3572
689.0174
688.7488
687.9882
687.0687
686.1953
685.459
684.8694
684.3904
683.9701
683.5602
683.1255
682.6468
682.1179
681.5412
680.924
680.2691
679.5929
678.8368
678.2191
676.7756
1728.44
1729.112
1729.606
1729.771
1729.469
1728.559
1726.886
1724.331
1720.845
1716.446
1711.225
1705.485
1699.983
1696.131
1695.908
1701.329
1713.53
1731.753
1752.645
1770.246
1776.821
1764.378
1726.492
1659.919
1565.538
1448.376
1316.741
1180.708
1050.36
934.2045
838.0669
764.634
713.6173
682.3928
666.893
662.5279
664.9549
670.5988
676.8951
682.2957
686.109
688.2579
689.0256
688.8415
688.1294
687.2224
686.3344
685.5678
684.9429
684.4312
683.9842
683.554
683.1041
682.6131
682.0732
681.4819
680.8556
680.1462
679.5595
678.2126
1725.659
1725.682
1726.043
1726.538
1726.937
1727.05
1726.7
1725.704
1723.899
1721.181
1717.493
1712.837
1707.351
1701.511
1696.347
1693.509
1694.999
1702.529
1716.623
1735.772
1756.002
1771.1
1773.565
1756.094
1713.215
1642.637
1545.945
1428.47
1298.393
1165.313
1038.656
926.2598
833.4168
762.4943
713.11
682.7287
667.4825
663.016
665.1963
670.5977
676.7362
682.0844
685.9318
688.1638
689.0259
688.9195
688.2538
687.3604
686.4591
685.6627
685.0013
684.4536
683.9752
683.5195
683.05
682.5402
681.99
681.3481
680.8068
679.5408
1725.47
1724.02
1723.301
1723.202
1723.492
1723.927
1724.291
1724.374
1723.961
1722.854
1720.902
1717.994
1714.059
1709.115
1703.41
1697.632
1693.051
1691.454
1694.745
1704.247
1719.875
1739.471
1758.589
1770.909
1769.251
1746.998
1699.548
1625.436
1526.829
1409.281
1280.817
1150.59
1027.427
918.5688
828.8315
760.2955
712.4907
682.957
668.0025
663.482
665.4543
670.635
676.6195
681.906
685.7717
688.071
689.0151
688.9789
688.3569
687.4768
686.563
685.7369
685.0376
684.4508
683.9376
683.4501
682.9604
682.3963
681.9228
680.756
1728.472
1725.303
1722.944
1721.464
1720.766
1720.659
1720.926
1721.349
1721.699
1721.737
1721.236
1720.001
1717.879
1714.744
1710.525
1705.3
1699.47
1693.936
1690.158
1689.963
1695.062
1706.343
1723.145
1742.758
1760.398
1769.746
1764.003
1737.218
1685.581
1608.347
1508.166
1390.745
1263.937
1136.473
1016.634
911.1221
824.3242
758.0623
711.7851
683.0968
668.4619
663.9253
665.7224
670.701
676.5353
681.7523
685.6224
687.974
688.9881
689.0144
688.4322
687.5644
686.6383
685.7824
685.0446
684.4152
683.8678
683.3151
682.8848
681.8268
1734.133
1729.635
1725.695
1722.542
1720.277
1718.872
1718.208
1718.115
1718.396
1718.824
1719.15
1719.122
1718.514
1717.132
1714.809
1711.41
1706.891
1701.429
1695.598
1690.495
1687.702
1689.005
1695.856
1708.693
1726.322
1745.576
1761.44
1767.687
1757.929
1726.859
1671.387
1591.395
1489.932
1372.808
1247.69
1122.909
1006.245
903.9095
819.9032
755.8132
711.0131
683.1632
668.8683
664.3462
665.995
670.7877
676.475
681.6154
685.477
687.8669
688.939
689.0194
688.4725
687.6153
686.6774
685.7905
685.0174
684.3161
683.8091
682.7746
1740.74
1735.88
1731.068
1726.62
1722.803
1719.785
1717.624
1716.284
1715.665
1715.611
1715.919
1716.345
1716.629
1716.518
1715.786
1714.232
1711.674
1707.983
1703.173
1697.548
1691.857
1687.356
1685.69
1688.535
1697.037
1711.188
1729.316
1747.883
1761.736
1764.802
1751.125
1716.011
1657.026
1574.599
1472.109
1355.427
1232.023
1109.852
996.2299
896.9203
815.5729
753.5614
710.1897
683.1678
669.2272
664.7441
666.2672
670.8874
676.4302
681.4874
685.3284
687.7429
688.8611
688.9871
688.4712
687.6215
686.6747
685.73
685.0011
683.7772
1746.364
1742.118
1737.445
1732.604
1727.892
1723.592
1719.929
1717.039
1714.975
1713.712
1713.16
1713.158
1713.489
1713.899
1714.124
1713.915
1713.039
1711.283
1708.46
1704.465
1699.398
1693.704
1688.296
1684.55
1684.114
1688.497
1698.517
1713.738
1732.061
1749.659
1761.313
1761.156
1743.672
1704.749
1642.546
1557.973
1454.679
1338.562
1216.892
1097.263
986.5626
890.1438
811.3354
751.3161
709.3257
683.1186
669.542
665.1171
666.5329
670.9919
676.3921
681.3597
685.1687
687.5953
688.7488
688.9109
688.4247
687.5503
686.6932
685.1305
1750.389
1747.13
1743.258
1738.876
1734.168
1729.38
1724.78
1720.617
1717.085
1714.309
1712.347
1711.177
1710.702
1710.751
1711.094
1711.474
1711.627
1711.303
1710.26
1708.272
1705.159
1700.867
1695.597
1689.941
1684.955
1682.092
1682.95
1688.833
1700.219
1716.264
1734.505
1750.89
1760.202
1756.811
1735.644
1693.138
1627.989
1541.528
1437.627
1322.181
1202.257
1085.108
977.2203
883.5695
807.1903
749.083
708.4283
683.0208
669.8135
665.4618
666.7855
671.0925
676.3515
681.2237
684.9912
687.4168
688.5999
688.7548
688.4142
686.884
1752.09
1749.96
1747.234
1743.89
1739.964
1735.571
1730.905
1726.205
1721.721
1717.68
1714.266
1711.607
1709.757
1708.688
1708.291
1708.382
1708.724
1709.061
1709.129
1708.671
1707.434
1705.187
1701.773
1697.206
1691.804
1686.299
1681.864
1679.986
1682.169
1689.484
1702.069
1718.703
1736.61
1751.576
1758.435
1751.824
1727.105
1681.231
1613.388
1525.272
1420.939
1306.255
1188.086
1073.358
968.1817
877.1865
803.1354
746.8649
707.5014
682.8765
670.0404
665.7733
667.0172
671.1803
676.3
681.0704
684.7929
687.1729
688.4686
688.2375
1753.417
1751.53
1749.445
1747.018
1744.112
1740.66
1736.684
1732.3
1727.689
1723.077
1718.698
1714.771
1711.478
1708.943
1707.212
1706.246
1705.919
1706.04
1706.37
1706.652
1706.62
1706.007
1704.55
1702.023
1698.309
1693.505
1688.053
1682.812
1679.041
1678.225
1681.736
1690.396
1704.005
1721.002
1738.346
1751.72
1756.045
1746.247
1718.112
1669.075
1598.77
1509.212
1404.6
1290.759
1174.349
1061.984
959.4271
870.9835
799.1664
744.6619
706.5462
682.6853
670.2199
666.046
667.2212
671.2462
676.2302
680.8842
684.4995
687.3087
1754.415
1752.611
1750.731
1748.751
1746.555
1744.005
1740.988
1737.458
1733.451
1729.08
1724.521
1719.987
1715.706
1711.894
1708.728
1706.322
1704.712
1703.842
1703.576
1703.716
1704.024
1704.24
1704.091
1703.299
1701.598
1698.779
1694.778
1689.79
1684.376
1679.507
1676.499
1676.796
1681.616
1691.514
1705.971
1723.117
1739.696
1751.329
1753.066
1740.126
1708.712
1656.712
1584.159
1493.35
1388.598
1275.668
1161.017
1050.961
950.9373
864.9484
795.2775
742.4717
705.5618
682.4458
670.3488
666.2753
667.3828
671.3193
675.8424
682.1496
1755.556
1753.635
1751.717
1749.826
1747.917
1745.891
1743.621
1740.979
1737.879
1734.292
1730.263
1725.906
1721.391
1716.93
1712.747
1709.053
1706.018
1703.744
1702.25
1701.468
1701.253
1701.403
1701.678
1701.814
1701.53
1700.538
1698.574
1695.459
1691.198
1686.087
1680.802
1676.406
1674.242
1675.684
1681.77
1692.789
1707.917
1725.012
1740.644
1750.415
1749.528
1733.506
1698.951
1644.175
1569.574
1477.689
1372.92
1260.96
1148.064
1040.266
942.6932
859.0685
791.4614
740.291
704.546
682.1591
670.4044
666.5418
667.0267
673.3424
1757.188
1755.02
1752.894
1750.858
1748.913
1747.018
1745.091
1743.021
1740.682
1737.966
1734.798
1731.164
1727.114
1722.766
1718.293
1713.904
1709.821
1706.251
1703.35
1701.206
1699.822
1699.119
1698.944
1699.094
1699.326
1699.367
1698.928
1697.713
1695.473
1692.07
1687.586
1682.421
1677.355
1673.524
1672.269
1674.866
1682.16
1694.175
1709.802
1726.658
1741.182
1748.992
1745.462
1726.425
1688.867
1631.493
1555.029
1462.228
1357.551
1246.613
1135.467
1029.875
934.6763
853.3315
787.7099
738.1213
703.4729
681.9028
670.097
667.1088
1758.993
1756.719
1754.42
1752.182
1750.05
1748.034
1746.109
1744.217
1742.27
1740.156
1737.757
1734.973
1731.744
1728.065
1723.994
1719.654
1715.222
1710.908
1706.932
1703.489
1700.722
1698.704
1697.422
1696.788
1696.645
1696.786
1696.962
1696.892
1696.276
1694.821
1692.297
1688.622
1683.961
1678.814
1674.057
1670.87
1670.572
1674.319
1682.75
1695.63
1711.588
1728.033
1741.307
1747.073
1740.898
1718.919
1678.494
1618.69
1540.536
1446.962
1342.478
1232.605
1123.2
1019.767
926.8686
847.7283
784.0127
735.8929
702.9713
676.5821
1760.932
1758.642
1756.256
1753.868
1751.54
1749.316
1747.214
1745.227
1743.32
1741.43
1739.461
1737.304
1734.847
1732
1728.711
1724.986
1720.893
1716.563
1712.176
1707.944
1704.079
1700.765
1698.131
1696.232
1695.044
1694.471
1694.352
1694.473
1694.58
1694.38
1693.568
1691.858
1689.052
1685.129
1680.342
1675.289
1670.922
1668.45
1669.141
1674.015
1683.502
1697.115
1713.242
1729.116
1741.015
1744.674
1735.861
1711.02
1667.859
1605.788
1526.101
1431.889
1327.686
1218.915
1111.243
1009.913
919.3148
841.8282
782.8613
719.037
1762.354
1760.366
1758.131
1755.764
1753.353
1750.97
1748.667
1746.475
1744.405
1742.445
1740.553
1738.66
1736.668
1734.468
1731.953
1729.041
1725.691
1721.92
1717.807
1713.49
1709.156
1705.012
1701.262
1698.079
1695.573
1693.786
1692.685
1692.165
1692.061
1692.152
1692.174
1691.827
1690.801
1688.826
1685.744
1681.605
1676.749
1671.864
1667.964
1666.264
1667.962
1673.929
1684.382
1698.594
1714.735
1729.892
1740.308
1741.809
1730.377
1702.754
1656.988
1592.801
1511.731
1417.002
1313.165
1205.495
1099.749
999.318
917.1417
808.9809
1762.881
1761.397
1759.567
1757.476
1755.206
1752.837
1750.444
1748.09
1745.819
1743.661
1741.623
1739.687
1737.808
1735.909
1733.89
1731.644
1729.068
1726.089
1722.678
1718.863
1714.733
1710.437
1706.161
1702.111
1698.48
1695.425
1693.043
1691.364
1690.342
1689.869
1689.771
1689.82
1689.741
1689.227
1687.971
1685.726
1682.383
1678.064
1673.199
1668.555
1665.19
1664.308
1667.017
1674.032
1685.355
1700.033
1716.041
1730.348
1739.185
1738.49
1724.466
1694.147
1645.902
1579.742
1497.442
1402.233
1299.226
1190.695
1096.633
949.9856
1762.438
1761.468
1760.161
1758.546
1756.656
1754.544
1752.276
1749.927
1747.562
1745.238
1743
1740.875
1738.867
1736.953
1735.083
1733.173
1731.123
1728.826
1726.186
1723.139
1719.667
1715.811
1711.672
1707.403
1703.193
1699.241
1695.73
1692.801
1690.539
1688.96
1688.012
1687.578
1687.477
1687.471
1687.275
1686.576
1685.078
1682.563
1678.979
1674.523
1669.71
1665.375
1662.606
1662.575
1666.289
1674.295
1686.387
1701.4
1717.136
1730.47
1737.647
1734.731
1718.148
1685.216
1634.639
1566.524
1483.702
1385.382
1295.835
1129.836
1761.388
1760.702
1759.808
1758.684
1757.298
1755.64
1753.733
1751.622
1749.37
1747.045
1744.707
1742.413
1740.207
1738.113
1736.133
1734.24
1732.374
1730.449
1728.364
1726.011
1723.304
1720.188
1716.657
1712.765
1708.623
1704.39
1700.252
1696.402
1693.009
1690.204
1688.056
1686.572
1685.692
1685.291
1685.177
1685.102
1684.771
1683.872
1682.122
1679.343
1675.543
1670.997
1666.296
1662.335
1660.213
1661.056
1665.756
1674.688
1687.446
1702.666
1717.998
1730.249
1735.697
1730.537
1711.47
1675.855
1623.775
1550.691
1481.031
1322.433
1760.51
1759.703
1758.888
1758.024
1757.036
1755.851
1754.424
1752.743
1750.829
1748.727
1746.493
1744.189
1741.876
1739.61
1737.435
1735.372
1733.42
1731.543
1729.677
1727.733
1725.606
1723.195
1720.419
1717.234
1713.648
1709.727
1705.59
1701.399
1697.338
1693.591
1690.316
1687.63
1685.591
1684.198
1683.381
1683.003
1682.865
1682.706
1682.224
1681.111
1679.106
1676.073
1672.087
1667.499
1662.971
1659.441
1658.009
1659.738
1665.395
1675.184
1688.501
1703.801
1718.609
1729.667
1733.369
1725.785
1705.014
1663.747
1622.604
1496.304
1760.255
1759.068
1758.006
1757.067
1756.188
1755.277
1754.245
1753.021
1751.565
1749.869
1747.954
1745.859
1743.639
1741.354
1739.064
1736.826
1734.681
1732.65
1730.722
1728.859
1726.99
1725.02
1722.847
1720.374
1717.527
1714.277
1710.642
1706.698
1702.574
1698.431
1694.451
1690.807
1687.648
1685.077
1683.144
1681.836
1681.074
1680.712
1680.537
1680.279
1679.63
1678.292
1676.03
1672.761
1668.623
1664.042
1659.743
1656.698
1655.989
1658.605
1665.183
1675.75
1689.522
1704.774
1718.982
1728.597
1731.147
1718.652
1705.439
1625.798
1761.045
1759.29
1757.738
1756.424
1755.322
1754.366
1753.466
1752.526
1751.46
1750.205
1748.728
1747.021
1745.104
1743.014
1740.805
1738.535
1736.268
1734.058
1731.945
1729.944
1728.04
1726.186
1724.307
1722.307
1720.084
1717.546
1714.631
1711.318
1707.639
1703.682
1699.577
1695.488
1691.59
1688.049
1685.002
1682.543
1680.711
1679.483
1678.77
1678.413
1678.188
1677.815
1676.985
1675.413
1672.9
1669.413
1665.159
1660.635
1656.62
1654.105
1654.145
1657.64
1665.095
1676.353
1690.508
1705.469
1719.431
1725.911
1732.494
1699.55
1762.845
1760.569
1758.457
1756.6
1755.026
1753.719
1752.625
1751.666
1750.75
1749.783
1748.688
1747.408
1745.912
1744.194
1742.273
1740.186
1737.985
1735.731
1733.487
1731.306
1729.224
1727.252
1725.368
1723.52
1721.627
1719.592
1717.315
1714.711
1711.729
1708.358
1704.644
1700.679
1696.6
1692.569
1688.755
1685.315
1682.378
1680.026
1678.29
1677.136
1676.464
1676.102
1675.813
1675.309
1674.285
1672.475
1669.717
1666.035
1661.705
1657.287
1653.606
1651.66
1652.466
1656.819
1665.124
1676.911
1691.59
1705.449
1720.613
1722.439
1765.221
1762.676
1760.158
1757.799
1755.681
1753.847
1752.304
1751.021
1749.939
1748.976
1748.043
1747.052
1745.932
1744.629
1743.115
1741.385
1739.457
1737.369
1735.176
1732.938
1730.718
1728.567
1726.518
1724.573
1722.707
1720.859
1718.946
1716.871
1714.538
1711.869
1708.822
1705.4
1701.656
1697.691
1693.643
1689.673
1685.943
1682.603
1679.772
1677.524
1675.879
1674.793
1674.153
1673.774
1673.406
1672.756
1671.527
1669.476
1666.483
1662.633
1658.267
1654.002
1650.702
1649.355
1650.949
1656.106
1665.261
1677.501
1691.657
1710.939
1767.584
1765.093
1762.463
1759.83
1757.303
1754.97
1752.893
1751.103
1749.597
1748.338
1747.264
1746.296
1745.346
1744.333
1743.189
1741.864
1740.331
1738.587
1736.651
1734.563
1732.378
1730.157
1727.963
1725.843
1723.824
1721.906
1720.052
1718.2
1716.264
1714.145
1711.754
1709.021
1705.914
1702.446
1698.679
1694.72
1690.707
1686.799
1683.153
1679.911
1677.184
1675.036
1673.477
1672.451
1671.833
1671.422
1670.959
1670.149
1668.706
1666.414
1663.202
1659.212
1654.85
1650.784
1647.909
1647.193
1649.512
1655.83
1663.818
1684.974
1769.445
1767.258
1764.812
1762.21
1759.55
1756.928
1754.436
1752.15
1750.123
1748.378
1746.907
1745.668
1744.599
1743.623
1742.657
1741.624
1740.457
1739.111
1737.559
1735.799
1733.855
1731.766
1729.589
1727.388
1725.22
1723.132
1721.143
1719.247
1717.403
1715.542
1713.577
1711.412
1708.962
1706.167
1703.004
1699.496
1695.712
1691.764
1687.79
1683.946
1680.383
1677.237
1674.61
1672.558
1671.079
1670.105
1669.496
1669.039
1668.466
1667.483
1665.818
1663.289
1659.874
1655.776
1651.455
1647.654
1645.135
1645.516
1646.784
1660.49
1770.591
1768.799
1766.714
1764.39
1761.886
1759.27
1756.624
1754.034
1751.587
1749.352
1747.374
1745.672
1744.23
1743.007
1741.942
1740.958
1739.977
1738.923
1737.735
1736.366
1734.794
1733.019
1731.065
1728.976
1726.81
1724.629
1722.49
1720.433
1718.473
1716.597
1714.757
1712.883
1710.885
1708.671
1706.163
1703.308
1700.094
1696.551
1692.757
1688.824
1684.891
1681.111
1677.631
1674.579
1672.049
1670.087
1668.681
1667.75
1667.137
1666.619
1665.92
1664.75
1662.858
1660.1
1656.497
1652.346
1648.018
1644.827
1641.726
1645.664
1771.13
1769.653
1767.934
1765.987
1763.823
1761.461
1758.944
1756.335
1753.712
1751.161
1748.761
1746.575
1744.644
1742.978
1741.562
1740.353
1739.29
1738.3
1737.304
1736.231
1735.02
1733.628
1732.035
1730.244
1728.282
1726.195
1724.041
1721.883
1719.772
1717.746
1715.813
1713.952
1712.113
1710.221
1708.187
1705.923
1703.357
1700.446
1697.185
1693.614
1689.813
1685.898
1682.009
1678.294
1674.895
1671.933
1669.496
1667.619
1666.279
1665.378
1664.747
1664.151
1663.31
1661.945
1659.82
1656.857
1653.043
1648.975
1644.548
1641.254
1771.397
1770.041
1768.546
1766.909
1765.103
1763.106
1760.909
1758.53
1756.011
1753.416
1750.822
1748.31
1745.956
1743.816
1741.926
1740.295
1738.902
1737.706
1736.645
1735.648
1734.638
1733.545
1732.311
1730.896
1729.282
1727.475
1725.506
1723.422
1721.283
1719.147
1717.066
1715.069
1713.16
1711.311
1709.469
1707.555
1705.482
1703.167
1700.545
1697.581
1694.278
1690.682
1686.879
1682.986
1679.141
1675.49
1672.17
1669.296
1666.947
1665.149
1663.864
1662.982
1662.317
1661.628
1660.629
1659.064
1656.703
1653.491
1649.895
1643.591
1771.781
1770.336
1768.858
1767.35
1765.777
1764.09
1762.247
1760.219
1758
1755.61
1753.094
1750.515
1747.951
1745.479
1743.168
1741.071
1739.22
1737.62
1736.249
1735.064
1734.006
1733.001
1731.977
1730.865
1729.607
1728.168
1726.533
1724.711
1722.737
1720.658
1718.535
1716.424
1714.371
1712.402
1710.513
1708.673
1706.822
1704.883
1702.769
1700.404
1697.728
1694.713
1691.372
1687.756
1683.954
1680.084
1676.284
1672.696
1669.452
1666.663
1664.397
1662.67
1661.429
1660.552
1659.839
1659.038
1657.891
1655.988
1653.962
1648.052
1772.564
1770.89
1769.247
1767.665
1766.125
1764.581
1762.979
1761.263
1759.391
1757.338
1755.1
1752.703
1750.192
1747.633
1745.099
1742.664
1740.394
1738.338
1736.523
1734.952
1733.602
1732.429
1731.372
1730.36
1729.321
1728.188
1726.907
1725.444
1723.788
1721.953
1719.974
1717.903
1715.797
1713.711
1711.687
1709.743
1707.872
1706.035
1704.172
1702.204
1700.049
1697.633
1694.904
1691.843
1688.468
1684.834
1681.035
1677.189
1673.433
1669.906
1666.736
1664.027
1661.838
1660.173
1658.968
1658.074
1657.326
1656.268
1655.428
1651.419
1773.826
1771.895
1770.001
1768.204
1766.516
1764.916
1763.363
1761.804
1760.18
1758.439
1756.541
1754.464
1752.211
1749.809
1747.306
1744.766
1742.262
1739.863
1737.632
1735.615
1733.834
1732.291
1730.961
1729.799
1728.743
1727.724
1726.67
1725.515
1724.21
1722.723
1721.047
1719.201
1717.22
1715.157
1713.07
1711.009
1709.011
1707.091
1705.233
1703.396
1701.517
1699.518
1697.319
1694.853
1692.074
1688.969
1685.562
1681.913
1678.117
1674.295
1670.582
1667.114
1664.015
1661.381
1659.265
1657.647
1656.487
1655.472
1654.956
1652.63
1775.44
1773.336
1771.219
1769.175
1767.245
1765.443
1763.759
1762.16
1760.602
1759.029
1757.385
1755.619
1753.695
1751.597
1749.332
1746.927
1744.434
1741.914
1739.438
1737.074
1734.881
1732.9
1731.153
1729.637
1728.326
1727.174
1726.12
1725.092
1724.022
1722.845
1721.515
1720.005
1718.311
1716.454
1714.473
1712.421
1710.352
1708.316
1706.344
1704.443
1702.595
1700.754
1698.856
1696.823
1694.58
1692.064
1689.236
1686.088
1682.65
1678.987
1675.196
1671.397
1667.725
1664.314
1661.284
1658.717
1656.679
1655.044
1654.07
1652.309
1777.137
1775.013
1772.794
1770.577
1768.425
1766.38
1764.463
1762.677
1761.003
1759.409
1757.846
1756.259
1754.593
1752.803
1750.856
1748.739
1746.462
1744.058
1741.574
1739.075
1736.627
1734.297
1732.139
1730.194
1728.479
1726.99
1725.698
1724.555
1723.501
1722.464
1721.377
1720.178
1718.823
1717.29
1715.579
1713.713
1711.734
1709.693
1707.644
1705.632
1703.682
1701.798
1699.955
1698.106
1696.185
1694.116
1691.828
1689.262
1686.385
1683.196
1679.729
1676.052
1672.264
1668.487
1664.856
1661.497
1658.541
1655.995
1654.161
1651.795
1778.624
1776.636
1774.474
1772.228
1769.966
1767.744
1765.605
1763.58
1761.685
1759.917
1758.255
1756.663
1755.093
1753.491
1751.805
1749.991
1748.022
1745.888
1743.603
1741.198
1738.726
1736.246
1733.826
1731.529
1729.407
1727.497
1725.813
1724.35
1723.076
1721.942
1720.886
1719.839
1718.734
1717.512
1716.132
1714.577
1712.85
1710.977
1709.001
1706.973
1704.944
1702.954
1701.024
1699.153
1697.312
1695.451
1693.503
1691.396
1689.061
1686.444
1683.519
1680.289
1676.792
1673.1
1669.317
1665.559
1661.975
1658.616
1655.936
1652.277
1779.686
1777.941
1775.972
1773.85
1771.632
1769.37
1767.113
1764.906
1762.789
1760.789
1758.916
1757.165
1755.513
1753.922
1752.344
1750.726
1749.019
1747.182
1745.193
1743.044
1740.751
1738.349
1735.888
1733.429
1731.036
1728.771
1726.684
1724.808
1723.155
1721.717
1720.46
1719.334
1718.276
1717.217
1716.092
1714.847
1713.443
1711.867
1710.126
1708.247
1706.276
1704.261
1702.251
1700.281
1698.368
1696.505
1694.661
1692.784
1690.806
1688.658
1686.274
1683.606
1680.631
1677.359
1673.833
1670.124
1666.356
1662.542
1659.329
1654.321
1780.249
1778.776
1777.07
1775.179
1773.141
1770.989
1768.762
1766.504
1764.261
1762.076
1759.983
1758.007
1756.156
1754.421
1752.777
1751.185
1749.597
1747.963
1746.235
1744.378
1742.37
1740.208
1737.909
1735.509
1733.06
1730.621
1728.255
1726.022
1723.969
1722.127
1720.505
1719.091
1717.85
1716.73
1715.668
1714.596
1713.451
1712.182
1710.755
1709.158
1707.404
1705.522
1703.556
1701.554
1699.561
1697.609
1695.709
1693.851
1691.999
1690.101
1688.089
1685.896
1683.461
1680.74
1677.717
1674.398
1670.862
1667.033
1663.712
1657.8
1780.372
1779.128
1777.678
1776.053
1774.268
1772.337
1770.278
1768.117
1765.892
1763.645
1761.419
1759.255
1757.187
1755.235
1753.404
1751.683
1750.045
1748.45
1746.852
1745.202
1743.455
1741.578
1739.552
1737.378
1735.074
1732.678
1730.241
1727.822
1725.484
1723.283
1721.264
1719.456
1717.863
1716.472
1715.245
1714.13
1713.062
1711.976
1710.81
1709.517
1708.066
1706.451
1704.685
1702.8
1700.839
1698.849
1696.872
1694.934
1693.043
1691.184
1689.32
1687.395
1685.346
1683.105
1680.618
1677.837
1674.789
1671.303
1668.246
1662.099
1780.207
1779.106
1777.844
1776.447
1774.916
1773.246
1771.432
1769.482
1767.412
1765.249
1763.029
1760.793
1758.586
1756.445
1754.401
1752.471
1750.659
1748.95
1747.316
1745.718
1744.11
1742.444
1740.678
1738.782
1736.74
1734.555
1732.247
1729.855
1727.431
1725.033
1722.722
1720.553
1718.568
1716.792
1715.229
1713.859
1712.645
1711.533
1710.458
1709.356
1708.168
1706.85
1705.377
1703.743
1701.966
1700.078
1698.123
1696.144
1694.179
1692.251
1690.364
1688.499
1686.617
1684.661
1682.572
1680.274
1677.761
1674.792
1672.207
1666.442
1779.926
1778.875
1777.71
1776.459
1775.12
1773.679
1772.118
1770.424
1768.592
1766.628
1764.551
1762.387
1760.173
1757.951
1755.763
1753.644
1751.623
1749.715
1747.92
1746.222
1744.591
1742.989
1741.37
1739.688
1737.905
1735.991
1733.934
1731.738
1729.428
1727.041
1724.629
1722.252
1719.969
1717.832
1715.881
1714.137
1712.601
1711.252
1710.049
1708.937
1707.853
1706.734
1705.523
1704.181
1702.685
1701.033
1699.246
1697.355
1695.403
1693.432
1691.476
1689.554
1687.666
1685.789
1683.885
1681.888
1679.781
1677.307
1675.205
1670.187
1779.664
1778.595
1777.443
1776.248
1775.012
1773.722
1772.357
1770.894
1769.312
1767.6
1765.752
1763.777
1761.694
1759.531
1757.325
1755.118
1752.949
1750.853
1748.854
1746.967
1745.187
1743.498
1741.87
1740.263
1738.633
1736.936
1735.135
1733.204
1731.133
1728.928
1726.615
1724.233
1721.836