/*--------------------------------*- C++ -*----------------------------------*\
| =========                 |                                                 |
| \\      /  F ield         | OpenFOAM: The Open Source CFD Toolbox           |
|  \\    /   O peration     | Version:  2312                                  |
|   \\  /    A nd           | Website:  www.openfoam.com                      |
|    \\/     M anipulation  |                                                 |
\*---------------------------------------------------------------------------*/
FoamFile
{
    version     2.0;
    format      ascii;
    arch        "LSB;label=32;scalar=64";
    class       volScalarField;
    location    "3300";
    object      k;
}
// * * * * * * * * * * * * * * * * * * * * * * * * * * * * * * * * * * * * * //

dimensions      [0 2 -2 0 0 0 0];

internalField   nonuniform List<scalar> 
12000
(
0.002522717
0.005149059
0.006132504
0.007173024
0.008004333
0.008743207
0.009373924
0.009950987
0.01047893
0.01096873
0.01139964
0.01178009
0.01213379
0.01246475
0.01277126
0.01302966
0.01326033
0.0134688
0.01366807
0.01383721
0.01397756
0.01409275
0.01419643
0.01428286
0.01434874
0.01438887
0.01441709
0.01443313
0.01443659
0.01442053
0.01439313
0.01435695
0.01431363
0.01425805
0.01419011
0.01407432
0.01388701
0.01369447
0.01360168
0.01354345
0.01333586
0.01293671
0.0125234
0.01242862
0.01243064
0.01213356
0.01134197
0.01087211
0.01081929
0.01073246
0.009804517
0.009012521
0.008782778
0.008274473
0.007483059
0.006638944
0.005950628
0.005285272
0.004423989
0.004250855
0.002613642
0.006173241
0.007177151
0.008200181
0.00924616
0.01051075
0.01180121
0.01296829
0.01406923
0.01529191
0.01677266
0.01797727
0.01888779
0.01974343
0.02091086
0.022099
0.02303055
0.023676
0.0244257
0.02533512
0.0261842
0.02682034
0.02734349
0.02793924
0.02857934
0.02912218
0.02952021
0.02988599
0.03031289
0.03072022
0.03102677
0.03126345
0.03146934
0.03170671
0.03195638
0.03214911
0.03226793
0.03232225
0.03240297
0.03243863
0.03245281
0.03243535
0.03233392
0.03220594
0.03166861
0.03127452
0.0309553
0.03063925
0.02955651
0.0281207
0.02719786
0.02632166
0.0245212
0.02191775
0.02018392
0.01792684
0.01487089
0.0110636
0.007743488
0.007660478
0.003805801
0.008124934
0.009801859
0.01140953
0.01334932
0.01541607
0.01750527
0.0192857
0.02085821
0.02220708
0.02363035
0.0249498
0.02607305
0.0270746
0.02805865
0.02900385
0.02984473
0.03055472
0.03118489
0.03179301
0.03238325
0.0329192
0.03338798
0.03381425
0.03422853
0.03463034
0.03499656
0.03532003
0.03562431
0.03593269
0.03624743
0.03650536
0.03672138
0.03699511
0.03728482
0.03756389
0.03783432
0.03806701
0.03825289
0.03844575
0.03871048
0.03900056
0.03922036
0.03932785
0.03938838
0.03952188
0.03958357
0.0394866
0.03921837
0.03877605
0.03815736
0.03720693
0.03592392
0.03430747
0.03169883
0.02808654
0.02386518
0.01813233
0.0110759
0.01019222
0.004664541
0.008472085
0.01068407
0.0129574
0.01550127
0.01798959
0.02028377
0.0222071
0.02390571
0.0255632
0.02699188
0.02813697
0.02907259
0.02990517
0.03063741
0.03129639
0.03187748
0.03239911
0.03286924
0.03330309
0.03371975
0.0341035
0.03446344
0.03480277
0.03512758
0.03543877
0.03573362
0.03601147
0.0362746
0.03652435
0.03677024
0.03698341
0.03720189
0.03745459
0.03770229
0.0379496
0.03820216
0.03845949
0.0387182
0.03898304
0.03926058
0.03954593
0.03980587
0.04005886
0.04027442
0.04045188
0.04055289
0.04056171
0.04045426
0.04016382
0.03975846
0.03917856
0.037919
0.03581286
0.03320378
0.03012117
0.0262059
0.02097255
0.01400257
0.01185151
0.005402347
0.008751904
0.01146361
0.01423458
0.01708029
0.01966741
0.02188842
0.0237307
0.0252565
0.02662592
0.02780468
0.02877964
0.02955944
0.03017812
0.03073215
0.03124975
0.03171716
0.03210815
0.03244249
0.03274553
0.03303687
0.03331481
0.03358713
0.03384727
0.03409866
0.03434514
0.03458919
0.03483373
0.03508271
0.03530645
0.03553413
0.03580259
0.03608571
0.036389
0.03671312
0.03705588
0.03742739
0.037829
0.0382582
0.03871692
0.03921402
0.03973421
0.04024548
0.04076117
0.04128204
0.04178121
0.04223176
0.04259426
0.04278173
0.04284231
0.04271749
0.04202401
0.04076023
0.03906293
0.03683737
0.03382226
0.02964355
0.02384143
0.01587689
0.01305808
0.006083842
0.008866726
0.01186882
0.01487184
0.01779541
0.02035672
0.02249414
0.02423637
0.02564393
0.02678976
0.02775336
0.02855199
0.0292267
0.02973506
0.03008405
0.03033985
0.03054395
0.03073677
0.03092101
0.03110907
0.03129932
0.03149854
0.0317041
0.03191792
0.0321425
0.03238022
0.03263292
0.03290216
0.03318915
0.03349492
0.03382563
0.0341858
0.0345779
0.0350088
0.03548265
0.0359789
0.03651023
0.03710592
0.03774928
0.03842992
0.03913958
0.03988284
0.04065209
0.04141641
0.04216842
0.04289069
0.04354401
0.04410073
0.04455205
0.04470407
0.04443562
0.04370825
0.04251798
0.04078598
0.03836172
0.03509912
0.03080539
0.02510034
0.01734793
0.01394461
0.006655863
0.008926828
0.01208322
0.0151365
0.01798694
0.02045135
0.02250907
0.0242099
0.02554055
0.02655319
0.02729644
0.02784313
0.02825699
0.02860643
0.02885711
0.02899837
0.02909531
0.02917697
0.02926242
0.02936267
0.02948344
0.02962843
0.02979999
0.03000014
0.03023081
0.03049382
0.03079087
0.03112364
0.03149398
0.03190359
0.0323556
0.03285328
0.03338905
0.03397064
0.03461298
0.0353118
0.0360629
0.03685988
0.03770697
0.03860531
0.03954925
0.04052994
0.04153451
0.04254533
0.04353981
0.04448777
0.04535459
0.04611025
0.04663785
0.04679059
0.04659179
0.04594654
0.04476682
0.04296547
0.04044912
0.03708064
0.03262233
0.02663256
0.01841313
0.01452919
0.007167877
0.008950089
0.01213664
0.01515063
0.01797119
0.02038988
0.02236945
0.02391337
0.02510316
0.02598775
0.02662118
0.02705636
0.02734431
0.02752606
0.02766081
0.02775434
0.02779629
0.02782336
0.02785768
0.02791596
0.0280067
0.02813554
0.02830632
0.02852186
0.02878434
0.02909549
0.02945684
0.02986989
0.03033627
0.03085742
0.03143509
0.03206772
0.03275713
0.03350751
0.03431714
0.03518642
0.0361158
0.03710518
0.03815163
0.03925052
0.04039462
0.04157332
0.04277168
0.04396908
0.04513833
0.04624238
0.04725258
0.04808874
0.04864007
0.04882623
0.0486061
0.04786677
0.04652801
0.04451816
0.04176212
0.03815142
0.03349125
0.02739503
0.01920841
0.01503006
0.007662864
0.008940073
0.01211968
0.01509152
0.01778929
0.02011012
0.02200136
0.02347589
0.02458823
0.02539718
0.0259612
0.02633383
0.02656368
0.02669019
0.02675122
0.02679056
0.02682948
0.02685663
0.02688886
0.0269451
0.02703968
0.02718167
0.02737684
0.0276289
0.0279402
0.02831232
0.02874646
0.02924359
0.0298047
0.03043028
0.03112047
0.03187765
0.03270286
0.03359387
0.03455041
0.03557186
0.03665683
0.03780281
0.03900572
0.04025934
0.04155474
0.0428795
0.04421676
0.04554474
0.04683246
0.04805213
0.04913974
0.05001012
0.05058642
0.05077124
0.05049158
0.04963817
0.04813978
0.04594928
0.04301854
0.03925158
0.03444754
0.02819416
0.0197981
0.01528256
0.008130557
0.008938566
0.01209136
0.01497214
0.01756475
0.01977516
0.02157582
0.0229913
0.02407079
0.02486355
0.02542107
0.02579158
0.02601967
0.02614573
0.02620259
0.02622516
0.02624329
0.02628549
0.02635387
0.02644995
0.02658538
0.0267704
0.02701297
0.02731819
0.02768885
0.02812655
0.028632
0.02920535
0.02984606
0.03055994
0.03134666
0.03220869
0.03314422
0.0341477
0.03521818
0.03635411
0.03755303
0.03881128
0.04012362
0.04148263
0.04287813
0.04429641
0.04571942
0.04712327
0.04848165
0.04974526
0.05085507
0.05173494
0.0523015
0.05244695
0.05207044
0.05106038
0.04937504
0.0469962
0.04388992
0.03996536
0.03502381
0.02866374
0.02021933
0.01555438
0.008542299
0.008910231
0.01200422
0.01479284
0.01727573
0.01940814
0.02116337
0.02255511
0.02362278
0.02441482
0.02498052
0.02537057
0.02563065
0.02580009
0.02590966
0.025985
0.02605025
0.02612648
0.0262317
0.02637735
0.02656441
0.02679596
0.02708784
0.02744622
0.02787408
0.02837458
0.02894955
0.02960014
0.03032696
0.03112453
0.03199257
0.03293459
0.03394972
0.03503251
0.03618112
0.03739315
0.0386653
0.03999312
0.04137055
0.04278944
0.04423881
0.04570406
0.04716584
0.04859885
0.04997023
0.05123513
0.05233335
0.05319396
0.05372562
0.0538073
0.05331299
0.05214262
0.05028628
0.04777281
0.04456068
0.04054085
0.03550997
0.02905946
0.02051877
0.01564334
0.008884251
0.008877955
0.01190773
0.01458676
0.01697321
0.01902908
0.02073381
0.02210843
0.02318676
0.02401576
0.02463985
0.02509791
0.02542512
0.02565811
0.02583102
0.02597012
0.02608785
0.02621298
0.0263645
0.02655829
0.02680777
0.02712162
0.02749545
0.02793101
0.02843256
0.02900276
0.0296437
0.03035642
0.0311409
0.03199605
0.03292083
0.03391653
0.03498207
0.0361131
0.03730707
0.03856073
0.03987016
0.04123027
0.04263453
0.04407443
0.04553881
0.04701301
0.04847753
0.04990659
0.05126361
0.05250435
0.05357141
0.05439714
0.05488216
0.05490101
0.05431072
0.05302385
0.05103602
0.04840434
0.04509216
0.04097918
0.03586009
0.02933057
0.02072999
0.01573877
0.009148861
0.008825416
0.01180583
0.01441493
0.01671114
0.0186969
0.02036998
0.02174264
0.02284511
0.02371235
0.02438064
0.02488877
0.02528042
0.02558564
0.02583234
0.02604284
0.02624984
0.02646499
0.02670599
0.02698483
0.02730898
0.02768499
0.02812064
0.02861933
0.02918314
0.02981328
0.03051073
0.03127597
0.03210918
0.03300993
0.03397719
0.03501008
0.03610707
0.0372655
0.03848232
0.03975358
0.04107482
0.04244059
0.04384407
0.0452766
0.04672704
0.0481809
0.04961927
0.05101694
0.05234041
0.05354923
0.05459327
0.05539532
0.05583437
0.05578747
0.05511662
0.05373335
0.05163015
0.04887519
0.04546277
0.0412739
0.03609056
0.02950619
0.02086283
0.01579017
0.00935548
0.008784145
0.01170823
0.01424505
0.0164611
0.0183883
0.02003064
0.02139924
0.02251725
0.02341351
0.02412653
0.02469418
0.02515044
0.0255264
0.02585001
0.0261473
0.02643854
0.02673961
0.02706583
0.02742955
0.02783962
0.02830202
0.02881816
0.02938686
0.03001052
0.03069535
0.03144246
0.0322516
0.03312329
0.03405748
0.03505356
0.0361102
0.03722516
0.03839667
0.03962144
0.04089444
0.042211
0.04356557
0.04495134
0.04635979
0.04778005
0.04919809
0.0505954
0.05194789
0.05323241
0.05442089
0.05545337
0.05623032
0.05662673
0.05651444
0.05576706
0.05429793
0.05210109
0.0492502
0.04576282
0.04151953
0.03628693
0.0296523
0.02095862
0.01581944
0.009505829
0.008739544
0.01160335
0.0140762
0.01622115
0.01809131
0.01970024
0.02106068
0.02219323
0.02312521
0.02388651
0.0245086
0.02502211
0.02546337
0.02586232
0.02624035
0.02661479
0.02700146
0.02741362
0.02786243
0.02835632
0.02890049
0.02949685
0.03014504
0.03084377
0.03159052
0.03238436
0.03323097
0.03413544
0.03509582
0.03611107
0.0371799
0.03830032
0.03947209
0.04069189
0.0419533
0.04325186
0.04458218
0.04593776
0.04731055
0.04869038
0.05006411
0.05141491
0.05273072
0.05399707
0.05516798
0.05617256
0.05691461
0.05727221
0.05710879
0.05629601
0.0547514
0.05247103
0.04953138
0.04597156
0.04167294
0.03639493
0.0297282
0.02101639
0.0158285
0.009610239
0.008698707
0.01150621
0.0139188
0.01599713
0.01781276
0.01938707
0.02073484
0.02187507
0.02283178
0.02363205
0.02430471
0.02487987
0.02538811
0.02585763
0.02630895
0.02675939
0.02722471
0.0277182
0.0282497
0.02882608
0.02945111
0.03012543
0.03084738
0.03161445
0.0324242
0.03327505
0.03416653
0.03509863
0.03607546
0.03710149
0.03817499
0.03929323
0.04045698
0.04166345
0.0429056
0.04417883
0.04547795
0.04679691
0.04812844
0.04946359
0.05079409
0.05211433
0.05341246
0.0546595
0.0558069
0.0567813
0.05748351
0.05779416
0.05758335
0.05672124
0.05511524
0.05275952
0.04974691
0.04613378
0.04179696
0.03648582
0.02978501
0.02103429
0.01582191
0.009676149
0.008660338
0.01141677
0.01376996
0.01578457
0.01754573
0.01908277
0.02041318
0.02155552
0.02253178
0.02336662
0.0240863
0.0247177
0.02528723
0.02582082
0.02634019
0.02686256
0.02740166
0.02797043
0.02857874
0.02923283
0.0299352
0.03068462
0.03147714
0.0323078
0.03317243
0.03406894
0.03499758
0.03596019
0.03695916
0.03799555
0.03906885
0.04017903
0.04132932
0.04251757
0.04373664
0.04498176
0.04624766
0.04752878
0.0488208
0.05012089
0.05142428
0.0527225
0.05399954
0.05522519
0.05634838
0.05729335
0.05795981
0.05822765
0.05796723
0.05705137
0.05539402
0.05298676
0.04991642
0.04625578
0.04188446
0.03654476
0.02982119
0.02104845
0.01580296
0.009712828
0.008629073
0.01133792
0.01362996
0.01558106
0.01728696
0.01878367
0.0200917
0.02123001
0.02221952
0.02308313
0.02384493
0.02452904
0.02515819
0.02575314
0.0263343
0.02692162
0.02752829
0.02816602
0.02884488
0.02957123
0.0303465
0.03116739
0.03202721
0.03291829
0.03383438
0.03477217
0.03573168
0.03671566
0.03772805
0.03877203
0.03984771
0.04094925
0.04207876
0.04324448
0.04444189
0.04566296
0.04690153
0.04815375
0.04941721
0.05068977
0.0519679
0.05324368
0.05449989
0.05570413
0.05680314
0.05771957
0.05835246
0.05858235
0.0582811
0.05731956
0.05561006
0.05314676
0.05002429
0.04632595
0.04192737
0.03656621
0.02982472
0.02104176
0.01577633
0.009731435
0.008614918
0.01127147
0.01349917
0.01538543
0.0170341
0.01848706
0.01976773
0.02089586
0.02189174
0.02277686
0.02357337
0.02430315
0.02498679
0.02564258
0.02628676
0.02693369
0.02760219
0.02830394
0.02904832
0.02984164
0.03068514
0.03157389
0.03249818
0.03344702
0.03441165
0.03538761
0.036375
0.03737725
0.03839927
0.03944543
0.04051769
0.04161427
0.04273074
0.04387219
0.04504682
0.0462475
0.04746343
0.04869081
0.04992877
0.05117674
0.05243207
0.05368672
0.05492266
0.05610614
0.05718226
0.05807218
0.05867402
0.05886819
0.0585279
0.05752535
0.05577552
0.05327297
0.05011249
0.0463847
0.04196393
0.03658224
0.02982793
0.02103538
0.01575317
0.009736337
0.008620481
0.0112239
0.01337943
0.01519699
0.01678562
0.01819128
0.01943983
0.02055189
0.02154743
0.02244686
0.02327074
0.02403917
0.02477098
0.02548316
0.02619038
0.02690522
0.02763557
0.02839586
0.02919744
0.03005087
0.03095742
0.03191034
0.03289658
0.03390127
0.03491261
0.0359247
0.03693766
0.03795597
0.03898598
0.04003353
0.04110186
0.04219034
0.04329452
0.04441934
0.04557435
0.04675415
0.0479486
0.04915391
0.05036965
0.05159599
0.05283094
0.05406671
0.05528479
0.05645028
0.05750681
0.05837414
0.05894951
0.05911313
0.05873881
0.05769886
0.0559096
0.05336798
0.05017265
0.04641838
0.04197827
0.03658257
0.02981404
0.02101159
0.01572031
0.0097416
0.008639068
0.0111878
0.0132696
0.01501561
0.0165411
0.01789585
0.01910793
0.02019887
0.02118851
0.02209644
0.02294193
0.02374351
0.02451835
0.02528177
0.0260469
0.02682456
0.02762307
0.02844861
0.02930797
0.03021316
0.0311752
0.03218727
0.03323244
0.03429096
0.03534727
0.03639381
0.03743077
0.03846378
0.03950071
0.04054904
0.04161356
0.04269484
0.04378866
0.04489955
0.0460375
0.04719847
0.04837337
0.04955883
0.0507548
0.05196194
0.05317872
0.05439746
0.05559928
0.05674833
0.05778696
0.05863359
0.05918451
0.05931969
0.05891367
0.05784006
0.05601724
0.05344393
0.05022046
0.04644499
0.04198884
0.03658046
0.02980406
0.02099789
0.015699
0.009745874
0.008689374
0.01118089
0.013171
0.01483943
0.0162988
0.01760002
0.01877256
0.01983865
0.0208182
0.02173019
0.0225929
0.02342354
0.02423776
0.02504924
0.0258694
0.02670716
0.02756952
0.0284608
0.02938432
0.03034432
0.03135402
0.03241772
0.03351703
0.03462658
0.03572596
0.0368053
0.03786488
0.03891159
0.03995498
0.04100411
0.04206521
0.0431401
0.04422555
0.04532585
0.04644984
0.04759401
0.04875122
0.04991887
0.05109719
0.05228713
0.05348748
0.05469072
0.05587772
0.05701185
0.05803427
0.05886215
0.05939087
0.05950008
0.05906475
0.0579597
0.0561052
0.0535025
0.05025439
0.0464602
0.04198973
0.03656915
0.02978298
0.02097068
0.01566812
0.009757566
0.008769065
0.01118598
0.01308931
0.014675
0.01606336
0.01730708
0.01843657
0.01947453
0.02044079
0.02135384
0.02223107
0.02308845
0.02394023
0.02479847
0.02567286
0.02657061
0.02749632
0.02845237
0.02943875
0.03045453
0.03150933
0.03261719
0.03376431
0.03492057
0.03605991
0.03716968
0.03825008
0.03930934
0.04035871
0.04140875
0.04246695
0.04353638
0.04461544
0.04570801
0.04682046
0.04794975
0.04909114
0.05024275
0.05140506
0.05257927
0.05376445
0.05495331
0.05612653
0.05724681
0.05825421
0.0590647
0.0595728
0.05965787
0.05919535
0.05806168
0.05617906
0.05355103
0.05028218
0.04647265
0.04199101
0.03656165
0.02976944
0.02095515
0.01565055
0.009776713
0.008869063
0.01120735
0.01301459
0.01451548
0.0158316
0.01701675
0.0181022
0.01911107
0.02006321
0.02097662
0.02186782
0.02275155
0.02364049
0.02454493
0.02547259
0.02642874
0.02741552
0.02843327
0.02948024
0.03055346
0.03165627
0.03280279
0.03399049
0.0351872
0.03636164
0.03749807
0.03859646
0.03966641
0.04072081
0.04177163
0.0428275
0.04389262
0.04496666
0.04605267
0.04715504
0.04827141
0.04939899
0.05053623
0.05168392
0.05284359
0.0540147
0.05519022
0.05635072
0.05745828
0.05845192
0.05924646
0.05973555
0.05979831
0.0593105
0.05815025
0.0562416
0.05359056
0.05030348
0.04647997
0.04198685
0.03654856
0.02974884
0.02092988
0.01562495
0.009808222
0.00900579
0.01126135
0.01296118
0.01436965
0.01560926
0.01673362
0.01777403
0.01875362
0.01969196
0.02060649
0.0215127
0.02242398
0.02335127
0.02430281
0.02528402
0.02629772
0.027344
0.02842139
0.02952634
0.03065427
0.03180202
0.03298348
0.03420609
0.03543682
0.03664034
0.03779844
0.0389111
0.03998928
0.04104748
0.04209884
0.04315261
0.04421373
0.04528395
0.04636429
0.04745726
0.04856275
0.0496783
0.05080274
0.05193714
0.05308341
0.05424149
0.05540468
0.05655353
0.05764951
0.05863062
0.05941054
0.05988211
0.05992427
0.05941309
0.05822857
0.05629654
0.05362535
0.0503229
0.0464882
0.04198639
0.03654136
0.02973675
0.02091621
0.01561217
0.009850703
0.009158352
0.01132289
0.01291637
0.01423175
0.01539439
0.01645834
0.01745485
0.01840686
0.01933346
0.02025126
0.02117456
0.02211512
0.02308196
0.02408108
0.02511609
0.02618688
0.02729134
0.02842534
0.02958511
0.03076347
0.03195319
0.03316792
0.03442079
0.03567906
0.0369048
0.0380785
0.03920066
0.04028368
0.0413435
0.0423942
0.04344569
0.04450351
0.04556974
0.04664487
0.04773084
0.04882737
0.04993212
0.05104504
0.0521674
0.05330138
0.05444749
0.05559947
0.05673781
0.05782343
0.05879328
0.05955991
0.06001541
0.06003858
0.05950581
0.05829896
0.05634545
0.05365596
0.05033998
0.04649523
0.04198573
0.03653242
0.02972098
0.02089625
0.01559327
0.009905322
0.009339604
0.01141449
0.01288962
0.01410787
0.01519255
0.01619672
0.01715117
0.0180783
0.01899644
0.01992105
0.02086487
0.02183776
0.02284654
0.02389496
0.02498349
0.02610972
0.02726976
0.02845708
0.02966622
0.03088905
0.03211741
0.03336407
0.03464242
0.03592128
0.03716162
0.03834393
0.03946999
0.04055377
0.04161247
0.04266119
0.04371066
0.04476582
0.04582773
0.04689723
0.0479763
0.04906504
0.05016155
0.05126534
0.0523771
0.05349973
0.05463485
0.0557767
0.05690574
0.05798225
0.05894212
0.05969684
0.06013775
0.06014348
0.05959064
0.05836315
0.05639008
0.05368444
0.05035695
0.04650345
0.04198631
0.03652796
0.02971273
0.02088632
0.01558579
0.009972444
0.009529597
0.01151347
0.01288044
0.01399694
0.01500321
0.01594972
0.01686585
0.0177727
0.01868726
0.01962338
0.02059192
0.02160052
0.02265338
0.02375181
0.02489303
0.02607277
0.02728366
0.02852145
0.02977569
0.03103789
0.03229946
0.03357365
0.03487352
0.03616651
0.03741389
0.03859787
0.03972235
0.04080303
0.04185822
0.04290452
0.04395213
0.04500377
0.04606099
0.04712495
0.04819757
0.04927917
0.05036839
0.05146472
0.05256793
0.05368047
0.05480573
0.05593858
0.05705948
0.05812807
0.0590792
0.05982315
0.06025059
0.06024026
0.05966919
0.0584232
0.05643225
0.05371201
0.05037473
0.04651358
0.04198982
0.03652636
0.02970405
0.02087288
0.01557386
0.01004889
0.00973928
0.01162991
0.01288281
0.01390301
0.01483394
0.01572598
0.01660764
0.01749883
0.01841484
0.01936744
0.02036494
0.02141208
0.02251067
0.02365848
0.02485096
0.02608001
0.02734053
0.02862223
0.0299158
0.03121179
0.03250093
0.03379806
0.03511528
0.036416
0.03766298
0.03884175
0.03995923
0.04103326
0.04208414
0.04312811
0.04417257
0.04521991
0.04627206
0.0473305
0.04839707
0.04947224
0.05055508
0.05164506
0.05274136
0.05384569
0.0549622
0.0560871
0.057201
0.05826283
0.05920627
0.05994078
0.06035678
0.06033251
0.05974358
0.05847881
0.05647172
0.05373995
0.05039503
0.04652715
0.04199652
0.03652643
0.02970074
0.02086732
0.01557136
0.0101381
0.009947915
0.01174627
0.01289484
0.01381908
0.01467776
0.01552089
0.01637492
0.01725741
0.01818125
0.01915557
0.02018634
0.02127574
0.0224219
0.02361893
0.0248581
0.0261345
0.02743774
0.02875775
0.03008434
0.03140747
0.03272034
0.03403817
0.03536697
0.03666832
0.03790805
0.03907604
0.04018265
0.0412477
0.04229334
0.04333429
0.0443746
0.04541707
0.04646398
0.04751708
0.04857806
0.04964748
0.05072473
0.05180922
0.05289999
0.05399798
0.0551071
0.05622535
0.05733348
0.0583898
0.05932712
0.06005372
0.0604583
0.0604189
0.0598139
0.05853443
0.05651406
0.05377067
0.0504167
0.04654153
0.04200524
0.03653031
0.02969992
0.02086076
0.01556794
0.01023397
0.01016465
0.01186463
0.01291757
0.01375458
0.01454779
0.01534743
0.01617899
0.01705814
0.01799527
0.01899671
0.02006466
0.02119744
0.02238938
0.02362972
0.02491507
0.02623386
0.02757499
0.02892754
0.03028078
0.03162452
0.03295669
0.03429243
0.03562856
0.03692408
0.03814906
0.03929973
0.0403913
0.04144735
0.04248875
0.04352534
0.04456072
0.04559795
0.04663956
0.04768749
0.0487433
0.04980758
0.05088
0.05195987
0.05304611
0.05413882
0.05524154
0.05635403
0.05745734
0.05850918
0.05944101
0.06015931
0.06055232
0.06049954
0.05988025
0.05858649
0.05655319
0.05379997
0.0504396
0.04655928
0.04201737
0.03653638
0.02969991
0.02085894
0.01556746
0.0103416
0.01037321
0.01199129
0.01295548
0.01370313
0.01443551
0.01519957
0.01601764
0.01690236
0.01786072
0.01889533
0.02000396
0.02118014
0.0224105
0.02369613
0.02502265
0.02637833
0.02775142
0.02913035
0.03050407
0.03186242
0.03320929
0.03455886
0.03589554
0.03717883
0.03838496
0.03951623
0.04059183
0.0416384
0.0426747
0.04370567
0.04473518
0.04576655
0.04680249
0.04784515
0.04889594
0.04995547
0.0510236
0.05209954
0.05318204
0.05427035
0.05536769
0.05647547
0.05757461
0.0586218
0.05954738
0.06025751
0.06064038
0.06057638
0.05994499
0.05863929
0.05659518
0.05383277
0.05046515
0.04657851
0.04203094
0.03654521
0.02970431
0.02085877
0.01556968
0.0104513
0.01058281
0.01212143
0.01300211
0.01367472
0.01435638
0.01509299
0.01590563
0.01680315
0.01778802
0.01885783
0.02000412
0.02121405
0.02249108
0.0238173
0.02518057
0.02656827
0.02796804
0.02936787
0.03075648
0.03212326
0.0334801
0.03483913
0.03616933
0.03743362
0.03861684
0.03972748
0.04078906
0.04182724
0.04285605
0.04387983
0.04490248
0.04592737
0.04695728
0.04799453
0.04904052
0.05009567
0.05115983
0.05223213
0.05331115
0.05439564
0.05548861
0.05659238
0.05768782
0.05873096
0.0596512
0.06035407
0.06072761
0.06065272
0.06000964
0.05869232
0.05663753
0.05386652
0.05049304
0.04660142
0.04204907
0.03655866
0.02971311
0.02086134
0.01557277
0.0105715
0.01078535
0.01225511
0.01305708
0.01366424
0.01429717
0.01501611
0.01583317
0.01675141
0.01776526
0.01886332
0.02004353
0.02130187
0.02261954
0.02398324
0.02537938
0.02679449
0.02821564
0.02963057
0.03102804
0.03240232
0.03376954
0.03513156
0.03644877
0.03768904
0.03884575
0.03993409
0.04098155
0.04201117
0.04303165
0.04404749
0.04506273
0.04608079
0.04710447
0.04813627
0.04917756
0.05022854
0.051289
0.05235797
0.05343386
0.05451498
0.05560415
0.05670433
0.05779634
0.05883564
0.05975076
0.06044652
0.06081093
0.06072595
0.06007244
0.05874507
0.05668115
0.05390238
0.05052267
0.04662553
0.04206784
0.03657222
0.02972173
0.02086716
0.01557869
0.0106953
0.01098142
0.01239201
0.01312593
0.01367134
0.01428466
0.01499523
0.01581968
0.01675337
0.01778939
0.01892913
0.02015511
0.02145257
0.02280653
0.02420218
0.02562492
0.02706072
0.02849632
0.02991948
0.03131864
0.03269964
0.0340778
0.0354357
0.03673244
0.03794368
0.03907189
0.04013834
0.04117197
0.04219189
0.04320318
0.04421045
0.04521778
0.04622861
0.04724574
0.04827181
0.04930818
0.05035486
0.05141158
0.05247729
0.05355029
0.05462839
0.05571413
0.05681106
0.05789987
0.05893545
0.05984555
0.06053462
0.06089071
0.06079656
0.06013363
0.05879712
0.05672477
0.05393875
0.0505534
0.04665119
0.04208869
0.03658866
0.02973396
0.02087453
0.01558353
0.01082354
0.01116936
0.01253165
0.01320595
0.01370613
0.01428973
0.01500022
0.01583444
0.01679768
0.01787854
0.01905882
0.0203237
0.02165712
0.02304287
0.02446517
0.02590889
0.02735979
0.02880476
0.03023153
0.03162936
0.03301504
0.03440028
0.03574656
0.03701593
0.0381945
0.03929346
0.04033997
0.04136105
0.04236975
0.04337095
0.04436909
0.04536817
0.0463716
0.04738213
0.04840246
0.04943392
0.0504763
0.05152928
0.05259174
0.05366185
0.05473727
0.05582026
0.0569143
0.05800029
0.05903249
0.0599379
0.06062058
0.06096877
0.06086602
0.0601944
0.05884959
0.05676955
0.05397669
0.0505856
0.04667822
0.04211077
0.03660592
0.02974647
0.02088251
0.01558982
0.01095533
0.01134793
0.01267305
0.01329747
0.01376394
0.01433257
0.01504585
0.01590898
0.0169067
0.018024
0.01924243
0.02054355
0.02190926
0.02332216
0.02476582
0.02622478
0.02768473
0.02913239
0.0305555
0.03195665
0.03335366
0.03473622
0.03606122
0.03729755
0.03844147
0.03951136
0.04053844
0.04154685
0.04254394
0.04353458
0.04452325
0.04551389
0.04650985
0.04751382
0.04852855
0.04955528
0.0505936
0.05164309
0.05270251
0.05376993
0.05484286
0.05592338
0.05701488
0.05809824
0.05912707
0.06002772
0.06070404
0.06104456
0.06093366
0.06025398
0.05890155
0.05681435
0.05401494
0.0506182
0.04670573
0.04213347
0.03662407
0.02976032
0.0208922
0.01559635
0.01109022
0.01151646
0.01281669
0.01340319
0.01384841
0.01441389
0.01514471
0.01603547
0.01706863
0.01822334
0.01947806
0.02081202
0.0222057
0.02364094
0.02510096
0.02657027
0.02803468
0.02948105
0.03089741
0.03230083
0.03370731
0.03508005
0.03637597
0.03757474
0.03868317
0.03972672
0.04073645
0.04173111
0.04271589
0.04369559
0.04467457
0.04565668
0.04664518
0.04764266
0.04865186
0.04967392
0.05070824
0.05175428
0.0528107
0.05387543
0.0549459
0.05602401
0.05711311
0.05819386
0.05921926
0.06011508
0.06078505
0.06111815
0.06099954
0.06031243
0.05895302
0.05685922
0.05405355
0.05065115
0.04673354
0.04215648
0.03664248
0.02977429
0.02090178
0.01560282
0.01122829
0.01167651
0.01296418
0.01352569
0.01396192
0.01453412
0.01528864
0.01621231
0.01728236
0.01847371
0.01976207
0.02112491
0.02254173
0.02399389
0.02546442
0.02693786
0.02840014
0.02983841
0.03125513
0.03267096
0.03407761
0.03542917
0.03668901
0.03784789
0.03892142
0.03994066
0.04093425
0.04191467
0.04288684
0.04385539
0.04482455
0.04579807
0.04677909
0.04777009
0.04877376
0.04979111
0.05082138
0.0518639
0.05291722
0.05397918
0.05504705
0.0561227
0.0572094
0.05828748
0.05930927
0.06020005
0.06086361
0.06118946
0.0610635
0.06036948
0.05900366
0.05690371
0.05409198
0.05068392
0.0467612
0.04217946
0.03666106
0.02978886
0.0209128
0.0156102
0.01136934
0.01182899
0.01311702
0.01366719
0.01410648
0.01469444
0.01547854
0.01643818
0.01754534
0.01877143
0.02009
0.02147738
0.02291258
0.02437688
0.02585351
0.02732731
0.02878457
0.03021255
0.03163111
0.03305876
0.03445682
0.03577847
0.03699775
0.03811646
0.03915696
0.04015342
0.04113124
0.0420975
0.04305707
0.04401449
0.04497389
0.04593888
0.04691248
0.04789704
0.04889517
0.04990777
0.05093389
0.05197276
0.05302282
0.05408179
0.05514686
0.05621988
0.05730408
0.05837928
0.05939718
0.06028269
0.06093974
0.06125846
0.06112549
0.06042503
0.0590533
0.05694758
0.05412996
0.05071617
0.0467883
0.04220188
0.03667907
0.02980277
0.02092305
0.01561671
0.01151348
0.01197576
0.01327726
0.01382986
0.01428379
0.0148955
0.01571381
0.01671097
0.01785427
0.01911225
0.02045696
0.02186405
0.02331236
0.02478325
0.02626017
0.02772824
0.0291738
0.03060183
0.03203523
0.03346438
0.03484143
0.03612509
0.03730069
0.03837978
0.03939081
0.04036719
0.04132888
0.04228085
0.04322782
0.04417416
0.04512385
0.04608034
0.04704653
0.04802462
0.04901713
0.05002484
0.05104662
0.05208161
0.05312813
0.05418382
0.05524578
0.05631588
0.05739736
0.05846939
0.05948304
0.06036296
0.06101334
0.06132501
0.06118531
0.06047881
0.05910161
0.05699044
0.05416707
0.05074755
0.04681457
0.04222366
0.03669674
0.02981682
0.02093406
0.01562398
0.01166019
0.01211771
0.01344678
0.01401588
0.01449526
0.01513745
0.01599333
0.01702842
0.01820601
0.01949257
0.02085926
0.02228152
0.02373837
0.02521155
0.02668497
0.02814421
0.0295791
0.03101184
0.03245911
0.03388084
0.03522749
0.036468
0.03759913
0.03864026
0.0396245
0.04058245
0.04152795
0.04246564
0.04340004
0.04433532
0.0452753
0.0462233
0.04718203
0.04815357
0.04914032
0.05014292
0.05116012
0.05219092
0.05323357
0.0542856
0.05534405
0.05641088
0.05748931
0.05855779
0.05956677
0.06044074
0.06108429
0.06138897
0.0612428
0.06053064
0.05914833
0.05703201
0.054203
0.0507777
0.04683961
0.04224425
0.03671326
0.02982972
0.02094396
0.01562986
0.01180962
0.01225727
0.0136277
0.01422683
0.01474171
0.01542001
0.01631551
0.01738778
0.01859699
0.0199083
0.02129249
0.02272516
0.02418566
0.02565612
0.02712086
0.02856578
0.03000096
0.03145143
0.03290239
0.03430413
0.03561205
0.03680649
0.03789409
0.03889979
0.039859
0.04079906
0.04172865
0.04265225
0.04357419
0.0444985
0.04542883
0.04636831
0.04731954
0.04828442
0.04926524
0.0502625
0.0512748
0.05230106
0.05333943
0.05438736
0.05544184
0.05650496
0.05757994
0.0586444
0.05964825
0.0605159
0.06115242
0.06145016
0.06129774
0.06058025
0.05919317
0.05707194
0.0542374
0.05080632
0.04686322
0.04226363
0.03672891
0.02984225
0.02095405
0.01563619
0.01196158
0.0123961
0.01382203
0.01446491
0.01502396
0.01574183
0.0166774
0.01778499
0.01902248
0.02035435
0.02175152
0.02319005
0.0246499
0.02611389
0.02756681
0.02900371
0.03044883
0.03191362
0.03335742
0.03472873
0.03599239
0.03713999
0.03818611
0.03915921
0.04009513
0.04101774
0.0419317
0.04284141
0.04375104
0.04466447
0.04558515
0.04651608
0.04745968
0.04841773
0.04939238
0.05038398
0.05139102
0.0524123
0.0534459
0.05448923
0.05553922
0.05659811
0.05766915
0.05872907
0.05972727
0.06058821
0.06121752
0.06150837
0.0613499
0.06062739
0.05923584
0.05710993
0.05426996
0.05083311
0.04688504
0.04228134
0.03674301
0.02985336
0.02096299
0.01564093
0.0121162
0.01253663
0.01403172
0.01473017
0.01533943
0.01610177
0.01707689
0.01821742
0.01947959
0.02082789
0.02223377
0.02367405
0.02512937
0.02658317
0.02802076
0.02945905
0.03092487
0.03239524
0.03381965
0.03515179
0.03636745
0.03746804
0.03847443
0.03941891