/*--------------------------------*- C++ -*----------------------------------*\
| =========                 |                                                 |
| \\      /  F ield         | OpenFOAM: The Open Source CFD Toolbox           |
|  \\    /   O peration     | Version:  2312                                  |
|   \\  /    A nd           | Website:  www.openfoam.com                      |
|    \\/     M anipulation  |                                                 |
\*---------------------------------------------------------------------------*/
FoamFile
{
    version     2.0;
    format      ascii;
    arch        "LSB;label=32;scalar=64";
    class       volScalarField;
    location    "3300";
    object      omega;
}
// * * * * * * * * * * * * * * * * * * * * * * * * * * * * * * * * * * * * * //

dimensions      [0 0 -1 0 0 0 0];

internalField   nonuniform List<scalar> 
12000
(
46.97021
20.12997
21.77628
23.39994
24.6251
25.6675
26.52244
27.27797
27.95066
28.56412
29.09552
29.55445
29.97237
30.35771
30.71355
31.01169
31.27299
31.50581
31.72691
31.91614
32.07209
32.19826
32.31056
32.40439
32.47709
32.52056
32.54996
32.56562
32.56892
32.55162
32.52078
32.48079
32.43408
32.37536
32.30425
32.18723
31.98439
31.75582
31.62174
31.56946
31.37269
30.93447
30.42149
30.27111
30.25413
30.00815
29.08512
28.40143
28.3011
28.2348
27.18801
26.00144
25.6567
24.97963
23.86866
22.55163
21.41132
20.28895
18.79431
42.24894
79.45676
23.32079
22.69737
23.07856
23.20477
23.21058
22.79808
22.30969
21.70284
21.09305
20.4399
19.81907
19.282
18.766
18.18242
17.59236
17.16727
16.84576
16.46453
15.99961
15.58778
15.3228
15.09475
14.80215
14.47598
14.23664
14.10093
13.95862
13.7568
13.58298
13.52123
13.50217
13.44089
13.39326
13.38852
13.44075
13.57129
13.72435
13.77453
13.78908
13.93007
14.34521
14.85026
15.04026
15.04051
15.40138
16.42613
17.37599
17.65027
17.79918
19.44222
21.28511
22.41066
23.76322
26.49107
29.76673
34.50057
41.73595
56.38546
79.55227
83.4722
23.02849
21.74207
20.69276
19.88209
18.93202
18.00109
17.03237
16.09282
15.12993
14.38796
13.7507
13.1806
12.66906
12.22398
11.85125
11.53693
11.24943
10.98056
10.74703
10.55742
10.39842
10.25294
10.12076
10.01219
9.929679
9.862722
9.802466
9.753521
9.724421
9.714939
9.70828
9.704666
9.720212
9.75571
9.802752
9.86261
9.925616
9.989896
10.07272
10.19267
10.33909
10.48794
10.63734
10.82477
11.06056
11.32481
11.61986
11.96935
12.39758
12.87165
13.49447
14.31248
15.37392
16.70058
18.60232
22.06461
29.28857
48.06151
88.20323
86.36206
22.31683
19.50637
18.39539
17.29145
16.13604
15.04021
13.9696
13.03891
12.27287
11.61567
11.02809
10.51817
10.0914
9.728514
9.421877
9.157808
8.929394
8.729865
8.558102
8.414646
8.290512
8.185101
8.09619
8.02326
7.964725
7.918477
7.883327
7.859183
7.845952
7.844606
7.849552
7.867798
7.904289
7.952091
8.013417
8.08981
8.18212
8.291039
8.418982
8.569111
8.74369
8.943685
9.173823
9.434155
9.732472
10.07191
10.45987
10.90349
11.41495
12.03283
12.77351
13.61832
14.55425
15.79136
17.74982
20.97641
26.97088
42.71346
93.52177
88.7149
21.35999
17.80117
16.62229
15.39822
14.18035
13.0534
12.0454
11.18898
10.50012
9.919158
9.414174
8.964632
8.571426
8.24334
7.964036
7.726267
7.522153
7.343434
7.188883
7.058446
6.94677
6.85327
6.774329
6.70901
6.656557
6.616236
6.587628
6.570593
6.562973
6.562285
6.579843
6.608682
6.650847
6.707018
6.777432
6.863876
6.967472
7.088954
7.229741
7.391849
7.576203
7.78073
8.009593
8.26812
8.556695
8.877706
9.233422
9.619524
10.067
10.57566
11.12248
11.75821
12.6075
13.77132
15.47614
18.27885
23.92349
39.57863
97.23599
90.84527
20.84918
16.49235
15.21358
13.98167
12.80249
11.7413
10.8194
10.03463
9.371256
8.806289
8.327654
7.926004
7.571349
7.256723
6.987823
6.755437
6.553422
6.378529
6.228455
6.099483
5.989506
5.896114
5.817941
5.754056
5.703775
5.666583
5.642152
5.632023
5.631785
5.644909
5.672233
5.713987
5.77123
5.845063
5.933327
6.03859
6.165213
6.312405
6.481239
6.673428
6.890834
7.135146
7.405301
7.706016
8.040501
8.409863
8.819068
9.277652
9.77164
10.29345
10.88091
11.58126
12.44665
13.57566
15.1804
17.75367
22.76113
36.77624
99.92111
92.61966
20.67965
15.5079
14.10372
12.91163
11.80436
10.81662
9.958799
9.222851
8.593639
8.055817
7.592107
7.194332
6.85841
6.561989
6.294692
6.060817
5.856906
5.680163
5.527645
5.396664
5.285082
5.191255
5.113966
5.052343
5.005758
4.973797
4.956238
4.953601
4.964256
4.989807
5.030733
5.086089
5.157153
5.246252
5.353448
5.478981
5.624664
5.791828
5.981713
6.195662
6.435058
6.701242
6.99554
7.319282
7.673524
8.059817
8.481445
8.930286
9.403031
9.918986
10.49369
11.14939
11.93914
12.9652
14.44438
16.89066
21.76334
35.46012
101.6187
94.08386
20.71637
14.79713
13.24626
12.09712
11.0614
10.141
9.338817
8.645612
8.047679
7.531446
7.082794
6.692252
6.351348
6.056999
5.798338
5.566
5.361193
5.182437
5.027993
4.895632
4.783533
4.690269
4.614745
4.556132
4.513813
4.487352
4.478247
4.48258
4.502742
4.538851
4.590777
4.658751
4.74368
4.846439
4.967892
5.108993
5.270927
5.454991
5.662583
5.895208
6.15445
6.441914
6.759142
7.107574
7.488215
7.904144
8.351931
8.825967
9.329808
9.870298
10.45529
11.10871
11.89137
12.901
14.33526
16.65351
21.20066
34.01064
103.032
95.71938
21.07214
14.34288
12.59961
11.47417
10.50719
9.652141
8.900558
8.243294
7.670028
7.169879
6.732177
6.348305
6.010507
5.713328
5.454004
5.227499
5.025636
4.847193
4.691791
4.558604
4.446448
4.354167
4.280745
4.225341
4.187302
4.166147
4.162059
4.173534
4.201286
4.245413
4.306366
4.384282
4.479474
4.5927
4.724861
4.876976
5.050212
5.245877
5.465411
5.710372
5.982415
6.283242
6.614622
6.977924
7.375826
7.807032
8.268905
8.761644
9.28735
9.838567
10.41946
11.04986
11.77197
12.70113
14.05653
16.29958
20.75758
33.28591
103.7207
97.12208
21.4947
14.04736
12.10934
10.99377
10.07968
9.277421
8.570764
7.950535
7.405732
6.926278
6.502827
6.12774
5.795013
5.499415
5.23805
5.00828
4.808435
4.633836
4.481248
4.349898
4.239122
4.148336
4.076916
4.024137
3.989322
3.972964
3.972583
3.988953
4.021961
4.07162
4.138546
4.222907
4.324688
4.444617
4.583571
4.742579
4.922835
5.125697
5.352689
5.605479
5.885865
6.195739
6.536971
6.911889
7.320643
7.763741
8.241339
8.750621
9.285638
9.84513
10.42885
11.04951
11.76357
12.68491
14.02304
16.21102
20.51699
32.57902
104.4507
98.34371
22.1318
13.93926
11.77057
10.62567
9.748602
8.994823
8.330708
7.743317
7.222795
6.760462
6.349744
5.984851
5.660598
5.372073
5.115343
4.887686
4.687553
4.513522
4.36381
4.235931
4.128691
4.041079
3.972298
3.921863
3.889416
3.875239
3.877536
3.896766
3.932771
3.985518
4.055542
4.143026
4.248007
4.371187
4.513424
4.67575
4.859384
5.065741
5.296434
5.553261
5.838179
6.153253
6.500577
6.882143
7.29942
7.75211
8.238786
8.760903
9.3172
9.894614
10.47806
11.08049
11.76147
12.64333
13.92424
16.05547
20.29887
32.18248
104.6805
99.34061
22.8696
13.95156
11.53783
10.35336
9.502452
8.787067
8.159261
7.60125
7.104701
6.662243
6.266728
5.912002
5.594444
5.311484
5.06016
4.837612
4.641031
4.468978
4.320312
4.194075
4.08887
4.003588
3.937242
3.889108
3.858629
3.84568
3.849453
3.869997
3.907195
3.961072
4.032098
4.120662
4.226894
4.351342
4.494778
4.658212
4.842871
5.05021
5.28191
5.539867
5.826167
6.143016
6.492665
6.876949
7.297735
7.755781
8.256128
8.79934
9.369905
9.948095
10.5253
11.11864
11.78481
12.64414
13.91461
16.02732
20.20579
31.85557
105.0638
100.0936
23.5663
14.05266
11.40847
10.15834
9.310947
8.624565
8.029243
7.501458
7.029611
6.605722
6.224652
5.884835
5.58127
5.307568
5.060354
4.83883
4.642942
4.471331
4.32303
4.197507
4.093437
4.009068
3.943686
3.896636
3.867265
3.85509
3.859714
3.880947
3.918682
3.972919
4.043849
4.131765
4.237086
4.360444
4.502631
4.664685
4.847878
5.053732
5.284024
5.540789
5.826307
6.143061
6.493622
6.880471
7.307676
7.78103
8.29948
8.852422
9.425208
10.00156
10.5737
11.15685
11.8073
12.64441
13.88371
15.95724
20.09043
31.63177
105.1027
100.6652
24.20155
14.19388
11.32787
10.01028
9.160395
8.495428
7.92746
7.425133
6.974258
6.56879
6.205263
5.87974
5.584407
5.316693
5.07567
4.860189
4.668585
4.500388
4.354833
4.231115
4.127858
4.044368
3.980175
3.934172
3.905371
3.893282
3.89754
3.91813
3.954951
4.008079
4.077705
4.164114
4.267867
4.389601
4.530042
4.690255
4.871553
5.075515
5.30399
5.559107
5.843258
6.159039
6.509221
6.899367
7.336735
7.823162
8.352053
8.911027
9.484299
10.05726
10.62318
11.19783
11.83786
12.66119
13.88439
15.9497
20.06612
31.52646
105.2836
101.0726
24.86926
14.39183
11.32205
9.916086
9.04708
8.392141
7.844346
7.36395
6.934323
6.547388
6.19882
5.884127
5.600897
5.344521
5.112492
4.90381
4.71771
4.553405
4.410491
4.288209
4.185713
4.102287
4.037385
3.99049
3.96103
3.948395
3.951936
3.971582
4.007124
4.05864
4.126356
4.210624
4.31219
4.431721
4.569826
4.727613
4.906436
5.107924
5.334009
5.586923
5.869205
6.183604
6.536184
6.934014
7.379343
7.870737
8.40255
8.963709
9.537993
10.1087
10.66883
11.23496
11.86287
12.67067
13.87821
15.92624
20.01252
31.40399
105.3338
101.3579
25.48766
14.60774
11.33406
9.854229
8.961725
8.309572
7.775973
7.313361
6.901447
6.530697
6.196271
5.89536
5.623482
5.376321
5.152595
4.951376
4.772015
4.613544
4.475108
4.355971
4.255386
4.172764
4.107712
4.059913
4.029031
4.014712
4.016529
4.034256
4.067757
4.117166
4.182634
4.264469
4.363534
4.480559
4.616103
4.77126
4.947402
5.146204
5.369681
5.620175
5.9011
6.217701
6.575461
6.978363
7.428281
7.923289
8.456405
9.015988
9.58766
10.15645
10.71367
11.27294
11.89154
12.68923
13.88545
15.92215
20.00198
31.38103
105.3767
101.55
26.05893
14.84429
11.3877
9.821786
8.897928
8.241475
7.71643
7.267663
6.870972
6.514916
6.193665
5.90391
5.642597
5.405755
5.190694
4.997093
4.824502
4.672274
4.539276
4.424525
4.327086
4.246278
4.181746
4.133387
4.101188
4.085093
4.084973
4.100121
4.131494
4.178555
4.241446
4.320588
4.416987
4.531419
4.664416
4.817028
4.990588
5.186775
5.408011
5.657622
5.939538
6.258299
6.618689
7.024596
7.477402
7.974528
8.50858
9.067503
9.635907
10.19862
10.74886
11.30183
11.91352
12.70124
13.88603
15.91412
19.97553
31.30532
105.3638
101.677
26.54316
15.07545
11.45737
9.809572
8.849763
8.183246
7.661636
7.222689
6.838218
6.49458
6.184649
5.904248
5.652529
5.425328
5.220108
5.034954
4.869697
4.724026
4.59709
4.48759
4.394319
4.316376
4.25332
4.20513
4.172032
4.154283
4.152048
4.164884
4.19384
4.238531
4.299095
4.375527
4.468825
4.580583
4.711513
4.862298
5.034131
5.22887
5.449099
5.698169
5.980216
6.29995
6.662029
7.06994
7.524553
8.022775
8.556781
9.11444
9.680693
10.24043
10.7859
11.332
11.93606
12.71701
13.89608
15.91796
19.97608
31.30539
105.3098
101.7663
26.9815
15.30803
11.53995
9.810678
8.812464
8.131397
7.608709
7.175797
6.800686
6.467575
6.168225
5.898109
5.652432
5.432569
5.235219
5.058782
4.902046
4.763961
4.643773
4.540279
4.452078
4.377986
4.317374
4.27023
4.236976
4.218169
4.214273
4.225164
4.251922
4.294351
4.352707
4.42724
4.518271
4.627276
4.756189
4.90564
5.076243
5.269799
5.489042
5.737524
6.019523
6.339777
6.702842
7.111965
7.567634
8.066279
8.599616
9.155144
9.717621
10.27221
10.812
11.35261
11.95135
12.72668
13.9003
15.91836
19.96795
31.2733
105.2477
101.8179
27.32257
15.52341
11.62553
9.820146
8.781789
8.082868
7.55545
7.125251
6.756773
6.432075
6.141626
5.880077
5.644157
5.430272
5.238012
5.068064
4.918496
4.788291
4.675856
4.579382
4.497254
4.428055
4.370927
4.325802
4.293256
4.274145
4.269252
4.278789
4.303899
4.344583
4.401182
4.474016
4.56337
4.670684
4.797995
4.946069
5.115539
5.308151
5.526646
5.774657
6.056576
6.377224
6.741127
7.151341
7.608011
8.107148
8.640081
9.194066
9.753781
10.30439
10.83908
11.37384
11.96687
12.73737
13.90723
15.92216
19.96773
31.26613
105.1507
101.8643
27.63571
15.72775
11.71196
9.833799
8.754596
8.03524
7.500039
7.069663
6.705358
6.387094
6.10402
5.849959
5.621179
5.415256
5.231071
5.066455
4.9217
4.797529
4.692216
4.603299
4.528145
4.464874
4.412305
4.370236
4.339363
4.320828
4.315744
4.324645
4.348793
4.388377
4.443845
4.515584
4.603871
4.710083
4.836271
4.983306
5.15189
5.343773
5.561706
5.809372
6.091238
6.412175
6.776682
7.187656
7.644933
8.144123
8.676157
9.228004
9.784271
10.33036
10.85998
11.38982
11.97861
12.74564
13.91298
15.92675
19.97192
31.2593
105.0856
101.8972
27.92792
15.92031
11.79532
9.847866
8.728113
7.986804
7.44155
7.008611
6.646308
6.332681
6.055629
5.808209
5.586281
5.387303
5.209707
5.052382
4.914945
4.795871
4.695365
4.612877
4.544779
4.488069
4.440969
4.402958
4.374747
4.357727
4.353333
4.362402
4.386361
4.425565
4.48057
4.551844
4.639718
4.745511
4.871127
5.017478
5.185447
5.376838
5.594404
5.841847
6.123689
6.444855
6.809842
7.221423
7.679168
8.178329
8.709481
9.259344
9.812451
10.35433
10.87908
11.40397
11.98847
12.75231
13.91744
15.92951
19.97229
31.25488
104.9991
101.9377
28.20302
16.10859
11.87688
9.861112
8.700309
7.935619
7.378454
6.941034
6.578988
6.268559
5.996463
5.755006
5.539598
5.347426
5.176721
5.026321
4.895381
4.783122
4.689016
4.611695
4.549328
4.49905
4.457795
4.424511
4.399761
4.385097
4.38223
4.392255
4.416791
4.456332
4.51154
4.58297
4.67106
4.777043
4.902562
5.048583
5.216219
5.407328
5.624663
5.871942
6.153734
6.475026
6.840323
7.252296
7.710271
8.209157
8.739188
9.286852
9.836653
10.37435
10.89452
11.41514
11.99632
12.75808
13.92241
15.93489
19.9786
31.25642
104.9533
102.0024
28.45676
16.28541
11.95407
9.872218
8.670647
7.881758
7.311323
6.867913
6.504716
6.196316
5.928305
5.692239
5.48303
5.297538
5.133752
4.99035
4.866229
4.760505
4.672363
4.601012
4.544752
4.499921
4.464471
4.436259
4.415504
4.403827
4.403162
4.414828
4.440614
4.481138
4.537157
4.609315
4.698132
4.804722
4.930512
5.076562
5.244169
5.435191
5.652398
5.899539
6.181247
6.502584
6.868081
7.280324
7.738413
8.236934
8.765803
9.311302
9.857914
10.3916
10.90737
11.42386
12.0018
12.76157
13.92493
15.93702
19.98028
31.25623
104.8875
102.0984
28.729
16.4584
12.02554
9.878466
8.636243
7.822748
7.238332
6.788093
6.422932
6.115887
5.851493
5.620578
5.417545
5.23887
5.082233
4.946035
4.828996
4.730097
4.64837
4.582855
4.532296
4.493824
4.46354
4.439931
4.423267
4.414898
4.416825
4.430906
4.458458
4.500482
4.557796
4.631107
4.721103
4.828648
4.954976
5.101385
5.269201
5.460303
5.677466
5.924476
6.206054
6.527356
6.892953
7.305354
7.763443
8.261491
8.789114
9.332415
9.875901
10.40578
10.91753
11.4304
12.00572
12.76415
13.92799
15.9416
19.98744
31.26605
104.8559
102.226
29.03873
16.63369
12.09745
9.883002
8.599568
7.76078
7.161506
6.703552
6.335636
6.029311
5.768077
5.542029
5.345036
5.173161
5.023862
4.895155
4.785527
4.69365
4.618485
4.558922
4.513866
4.480635
4.455787
4.437158
4.424411
4.419581
4.424472
4.44114
4.470909
4.514861
4.573872
4.648709
4.740095
4.848842
4.976127
5.123184
5.291354
5.482637
5.699807
5.946679
6.22808
6.549283
6.914913
7.327406
7.78543
8.28295
8.809299
9.350432
9.890911
10.41719
10.92517
11.43469
12.00761
12.76465
13.92868
15.94278
19.98921
31.26734
104.8058
102.3898
29.3525
16.80498
12.15936
9.880699
8.55633
7.692655
7.078786
6.613195
6.242525
5.936928
5.678916
5.457872
5.267136
5.102378
4.960587
4.839483
4.737359
4.652773
4.584417
4.531051
4.491538
4.46341
4.443411
4.429252
4.420726
4.419223
4.427088
4.446499
4.478716
4.524864
4.585876
4.662494
4.755399
4.865433
4.993776
5.141687
5.310547
5.50225
5.719464
5.966123
6.247263
6.568298
6.933903
7.346436
7.804348
8.301312
8.826408
9.365447
9.903044
10.42594
10.93049
11.43719
12.00823
12.76497
13.92957
15.94591
19.99594
31.27901
104.7857
102.5876
29.69982
16.99152
12.2324
9.880222
8.512765
7.62289
6.993708
6.520085
6.146426
5.841427
5.586614
5.370653
5.186294
5.028811
4.894662
4.781381
4.686878
4.60959
4.548
4.500774
4.466704
4.44341
4.427771
4.417559
4.412623
4.41458
4.425658
4.447786
4.482569
4.5311
4.594274
4.672747
4.767248
4.878653
5.008134
5.156972
5.326597
5.518897
5.736321
5.982772
6.263613
6.584428
6.949961
7.362499
7.820275
8.316656
8.840454
9.377378
9.912241
10.43208
10.9335
11.43736
12.00761
12.76459
13.92912
15.94628
19.99778
31.28304
104.7547
102.812
30.03454
17.15633
12.28532
9.870125
8.462159
7.547437
6.90372
6.422619
6.046462
5.742538
5.491344
5.280768
5.103117
4.953054
4.826813
4.721409
4.634692
4.564754
4.509969
4.468883
4.440191
4.421501
4.409812
4.403089
4.401397
4.406453
4.420583
4.445641
4.483033
4.534042
4.599392
4.679742
4.775863
4.888668
5.019326
5.169135
5.339569
5.532518
5.750302
5.996678
6.277188
6.597732
6.963164
7.375679
7.833254
8.329002
8.851681
9.386984
9.919309
10.43587
10.93426
11.43703
12.0067
12.76411
13.92962
15.94757
20.00376
31.2976
104.7546
103.0672
30.40448
17.34535
12.35037
9.863439
8.412196
7.471631
6.813176
6.324663
5.946114
5.643319
5.395898
5.191097
5.020468
4.877971
4.75941
4.66173
4.582537
4.519743
4.471563
4.436441
4.412848
4.398356
4.39015
4.386485
4.387698
4.395709
4.41272
4.440569
4.480709
4.534123
4.601606
4.683813
4.78155
4.895761
5.027607
5.178402
5.349655
5.543253
5.761505
6.007955
6.288176
6.608483
6.973835
7.386353
7.843867
8.339266
8.860794
9.393748
9.923275
10.437
10.93382
11.4352
12.00398
12.76139
13.92823
15.94742
20.00577
31.30514
104.755
103.3351
30.74644
17.50342
12.39451
9.845788
8.35522
7.39066
6.718627
6.223654
5.843616
5.542946
5.300167
5.101633
4.938072
4.80322
4.692533
4.602741
4.531067
4.475272
4.433468
4.404054
4.385304
4.374679
4.369492
4.368344
4.372035
4.382694
4.402474
4.43312
4.475938
4.531796
4.601325
4.685319
4.784629
4.900217
5.033235
5.18501
5.357083
5.551341
5.770084
6.016634
6.29658
6.616644
6.981928
7.394522
7.85202
8.346816
8.866896
9.397836
9.925018
10.43719
10.9321
11.43199
12.00039
12.75829
13.92621
15.94808
20.01008
31.32116
104.7762
103.6294
31.11238
17.68314
12.45042
9.832763
8.301626
7.313011
6.627393
6.126021
5.744715
5.446435
5.208343
5.015769
4.859003
4.7315
4.628468
4.546154
4.481606
4.432423
4.39662
4.372554
4.358216
4.350939
4.348258
4.349294
4.355262
4.368385
4.390755
4.42404
4.469378
4.527447
4.59895
4.684666
4.785466
4.902363
5.036504
5.189218
5.362083
5.556983
5.776212
6.022879
6.302606
6.622515
6.98777
7.400277
7.857352
8.351289
8.870147
9.399444
9.925027
10.43528
10.92864
11.42755
11.99544
12.75345
13.92227
15.94591
20.01077
31.33057
104.8103
103.9262
31.43701
17.83885
12.49169
9.811429
8.241162
7.229913
6.532838
6.02731
5.646531
5.3516
5.118678
4.932506
4.783038
4.663164
4.567701
4.492686
4.435
4.392119
4.361969
4.342804
4.33234
4.327813
4.327103
4.329989
4.338054
4.353525
4.378379
4.414116
4.461705
4.521791
4.595088
4.682386
4.784574
4.90268
5.03787
5.191484
5.365096
5.560588
5.780231
6.027055
6.306701
6.626522
6.991747
7.404205
7.861009
8.354131
8.871608
9.399566
9.923484
10.43208
10.92409
11.42213
11.98976
12.74814
13.91782
15.94289
20.01095
31.34372
104.8488
104.253
31.75193
17.99549
12.52854
9.786012
8.180045
7.148858
6.441768
5.932567
5.552239
5.260503
5.032715
4.853048
4.710831
4.598467
4.510415
4.442473
4.391357
4.35444
4.32961
4.314868
4.3077
4.30537
4.306185
4.31057
4.320478
4.33812
4.365321
4.403357
4.453009
4.514942
4.589883
4.678636
4.782102
4.901334
5.037504
5.191926
5.366197
5.562222
5.782314
6.029319
6.308916
6.628641
6.99377
7.406046
7.862411
8.354932
8.871439
9.397824
9.92016
10.42743
10.91852
11.41609
11.98363
12.74223
13.9125
15.93885
20.01088
31.35285
104.892
104.5921
32.05484
18.1465
12.56732
9.764493
8.123115
7.072221
6.355178
5.842518
5.463029
5.175062
4.952882
4.779839
4.644653
4.539391
4.458247
4.396826
4.351714
4.320232
4.300187
4.289293
4.28473
4.283923
4.285777
4.291385
4.302945
4.322579
4.351922
4.39204
4.443567
4.507177
4.58361
4.673683
4.778304
4.898555
5.035617
5.190803
5.365707
5.562223
5.782629
6.029756
6.309291
6.628939
6.994019
7.406212
7.862288
8.353936
8.869157
9.394126
9.915132
10.42134
10.91174
11.40895
11.97644
12.73528
13.90607
15.93336
20.00792
31.35736
104.9268
104.9483
32.33622
18.29504
12.60247
9.740329
8.066775
6.997983
6.272545
5.757544
5.379681
5.095836
4.87928
4.712658
4.584208
4.485653
4.410954
4.355562
4.315987
4.289453
4.273698
4.266005
4.263342
4.263374
4.265871
4.272512
4.2856
4.307093
4.338381
4.380316
4.433508
4.498626
4.576407
4.667674
4.77334
4.894508
5.032364
5.188217
5.363669
5.560622
5.781364
6.028696
6.308258
6.627822
6.992809
7.404801
7.860384
8.351212
8.865316
9.389057
9.908966
10.41439
10.90438
11.40149
11.96909
12.72818
13.89934
15.92729
20.0036
31.3599
104.9556
105.3178
32.59423
18.43819
12.63403
9.714025
8.011422
6.926776
6.19429
5.677953
5.30233
5.022903
4.812006
4.651641
4.529617
4.437366
4.36866
4.318842
4.284337
4.262355
4.250231
4.244866
4.243244
4.243566
4.246433
4.253965
4.268436
4.291621
4.324668
4.368222
4.422892
4.489349
4.568334
4.660669
4.767275
4.889266
5.027836
5.184283
5.360213
5.557531
5.778523
6.025989
6.305556
6.625049
6.989953
7.401747
7.856866
8.346887
8.85992
9.382537
9.901512
10.40635
10.89611
11.39324
11.96096
12.72023
13.89168
15.92028
19.99858
31.36292
104.978
105.6968
32.82651
18.574
12.66276
9.687066
7.958205
6.859861
6.121754
5.604914
5.23194
4.95702
4.751634
4.59722
4.48121
4.394794
4.331587
4.286829
4.256875
4.238885
4.229715
4.22589
4.224484
4.22459
4.227625
4.235962
4.251724
4.276421
4.310975
4.355936
4.411905
4.479547
4.559602
4.652892
4.760337
4.883062
5.02226
5.179225
5.355564
5.553182
5.774369
6.021923
6.301479
6.620917
6.985741
7.397322
7.851955
8.34117
8.853187
9.374804
9.893036
10.39752
10.88728
11.38461
11.95254
12.71197
13.88355
15.91246
19.99208
31.36212
104.9942
106.0821
33.03523
18.70225
12.68928
9.6606
7.908204
6.798182
6.055752
5.539117
5.169064
4.898611
4.698478
4.54961
4.439125
4.358012
4.299772
4.259595
4.233856
4.219241
4.212107
4.208793
4.206882
4.206465
4.209562
4.218623
4.235557
4.261597
4.297448
4.343632
4.400736
4.46942
4.550416
4.644547
4.75273
4.876096
5.015838
5.173244
5.349921
5.547775
5.769097
6.016687
6.29621
6.615598
6.980333
7.391663
7.845764
8.334153
8.845187
9.365905
9.883548
10.38786
10.87778
11.3754
11.94358
12.7031
13.87472
15.90387
19.98469
31.3611
105.0111
106.4709
33.22163
18.82266
12.71437
9.635974
7.862661
6.74272
5.997014
5.48107
5.114014
4.847822
4.652558
4.508755
4.403276
4.326956
4.273199
4.23714
4.215064
4.203066
4.196981
4.193212
4.190232
4.189107
4.192232
4.201958
4.219941
4.247163
4.284142
4.33139
4.389487
4.459084
4.540908
4.635778
4.744607
4.868528
5.008734
5.166504
5.343449
5.541473
5.762869
6.010439
6.289896
6.609225
6.973848
7.384884
7.838409
8.32596
8.836057
9.355986
9.873204
10.37753
10.86778
11.36582
11.93428
12.69386
13.86538
15.89453
19.97602
31.35603
105.026
106.8626
33.38992
18.93657
12.73875
9.613866
7.822194
6.694005
5.945954
5.431067
5.066973
4.804749
4.613906
4.474646
4.373636
4.3016
4.251907
4.219673
4.200565
4.190105
4.183924
4.178877
4.174477
4.172595
4.17577
4.186131
4.205034
4.233242
4.271183
4.319349
4.378307
4.448698
4.531243
4.626752
4.736136
4.860526
5.001112
5.15917
5.336307
5.534431
5.755834
6.00332
6.282672
6.601922
6.966397
7.377086
7.829984
8.316678
8.825876
9.345113
9.862044
10.36653
10.85726
11.35579
11.92454
12.68413
13.85549
15.88462
19.96687
31.35121
105.0448
107.2568
33.54072
19.04449
12.76354
9.59604
7.788357
6.653193
5.903344
5.389577
5.028199
4.769515
4.582583
4.447337
4.350291
4.282086
4.236038
4.207071
4.190117
4.180138
4.172783
4.165787
4.159748
4.157094
4.160306
4.171225
4.190914
4.219938
4.258685
4.30763
4.367323
4.438392
4.521551
4.617602
4.72745
4.852222
4.993106
5.151371
5.328626
5.526776
5.748116
5.995451
6.274649
6.593787
6.958069
7.36835
7.820569
8.306395
8.814738
9.333383
9.850166
10.35497
10.84628
11.3454
11.91445
12.67399
13.84505
15.8739
19.95634
31.34336
105.0615
107.6558
33.67723
19.1479
12.78955
9.582123
7.760835
6.620016
5.868948
5.356372
4.997474
4.741924
4.558416
4.426679
4.333118
4.268345
4.225682
4.199225
4.183282
4.172569
4.163117
4.15376
4.14603
4.142649
4.14588
4.157262
4.177602
4.207298
4.246715
4.296311
4.356621
4.428262
4.511935
4.608435
4.71866
4.843732
4.984832
5.143227
5.320522
5.518623
5.739827
5.986941
6.265929
6.584913
6.948946
7.358755
7.810244
8.295189
8.802718
9.320863
9.837621
10.34286
10.83487
11.33462
11.90399
12.66345
13.83418
15.8628
19.94561
31.3359
105.0805
108.0612
33.80118
19.24736
12.8171
9.575819
7.741804
6.595962
5.843711
5.331991
4.975034
4.721998
4.541306
4.412556
4.322114
4.260572
4.220726
4.195816
4.179633
4.166966
4.154684
4.142756
4.133382
4.129333
4.132562
4.144307
4.165163
4.195396
4.235358
4.285487
4.346305
4.418415
4.502506
4.599363
4.709878
4.835166
4.9764
5.134844
5.3121
5.510075
5.731066
5.977885
6.256601
6.575377
6.939096
7.348361
7.799068
8.283121
8.789879
9.307613
9.824459
10.33025
10.82305
11.32347
11.89314
12.65246
13.82273
15.85085
19.93341
31.32506
105.0953
108.4744
33.9165
19.34472
12.84978
9.574653
7.729301
6.579526
5.8263
5.31527
4.95994
4.709099
4.530998
4.405151
4.31788
4.259422
4.221225
4.196472
4.178786
4.163099
4.147455
4.132858
4.12191
4.117253
4.120453
4.132451
4.153662
4.184301
4.224689
4.275242
4.336463
4.408941
4.493354
4.590477
4.701195
4.826616
4.967902
5.126312
5.303448
5.501214
5.721914
5.968367
6.246747
6.56525
6.92858
7.337229
7.787102
8.270256
8.776287
9.293693
9.810732
10.31718
10.81084
11.31198
11.88196
12.64113
13.81096
15.83868
19.92123
31.31464
105.1095
108.8953
34.02635
19.44173
12.89085
9.577225
7.724128
6.572922
5.818919
5.308191
4.954039
4.704965
4.528936
4.405167
4.319616
4.262738
4.225575
4.199987
4.179609
4.160329
4.141203
4.124045
4.111647
4.106413
4.109527
4.121677
4.143127
4.174055
4.214758
4.265629
4.327155
4.399906
4.484548
4.581843
4.692682
4.818157
4.959411
5.1177
5.294626
5.492095
5.712413
5.958456
6.236464
6.554601
6.917451
7.325403
7.774392
8.256638
8.761981
9.279135
9.796458
10.30364
10.79822
11.3001
11.87039
12.62935
13.79861
15.82572
19.90769
31.30077
105.119
109.3219
34.13009
19.53884
12.94066
9.588308
7.724616
6.573143
5.819157
5.308455
4.954498
4.705995
4.531159
4.409506
4.327208
4.271856
4.234104
4.206255
4.18218
4.158705
4.135996
4.116392
4.102645
4.096839
4.099802
4.112003
4.133582
4.164693
4.205607
4.256699
4.318434
4.391367
4.476147
4.57352
4.684397
4.809854
4.950988
5.109067
5.285695
5.482783
5.702641
5.948214
6.225791
6.543476
6.905753
7.312931
7.760986
8.242322
8.747018
9.263993
9.781684
10.28968
10.78525
11.2879
11.85849
12.61725
13.78601
15.81269
19.89445
31.28696
105.1266
109.7533
34.2295
19.63719
12.99797
9.605688
7.72967
6.578567
5.824729
5.314476
4.961467
4.714408
4.541483
4.422348
4.341211
4.28561
4.246056
4.214716
4.186131
4.158222
4.131962
4.110027
4.094995
4.088594
4.091323
4.10347
4.125073
4.156262
4.197286
4.248499
4.310347
4.38337
4.468201
4.565577
4.676436
4.80178
4.942673
5.10045
5.276702
5.473333
5.692659
5.937694
6.214771
6.531914
6.893518
7.299838
7.746914
8.227337
8.731425
9.248285
9.766414
10.27529
10.77187
11.27531
11.84618
12.60467
13.77283
15.79905
19.8808
31.27369
105.1301
110.1881
34.32638
19.73695
13.06317
9.631843
7.74405
6.592232
5.83823
5.328137
4.975716
4.729901
4.559114
4.441499
4.360323
4.303245
4.26063
4.22482
4.191187
4.158692
4.129057
4.104972
4.088737
4.081719
4.084126
4.096108
4.11763
4.148797
4.189835
4.241076
4.302947
4.375972
4.460771
4.558067
4.668789
4.793922
4.934521
5.091923
5.267717
5.463812
5.682525
5.926947
6.203443
6.519945
6.880772
7.286152
7.732207
8.211719
8.715237
9.232042
9.750672
10.26047
10.7581
11.26233
11.83347
12.59165
13.75919
15.78502
19.86733
31.26455
105.1335
110.6253
34.42242
19.83934
13.13548
9.665281
7.766403
6.613846
5.859174
5.348895
4.99699
4.752594
4.58365
4.466388
4.383896
4.324157
4.277377
4.236324
4.197344
4.160332
4.127434
4.101304
4.083906
4.076221
4.078213
4.089918
4.111259
4.142309
4.183268
4.234447
4.296253
4.369193
4.453874
4.551005
4.661503
4.786341
4.926565
5.083512
5.258771
5.454251
5.672274
5.916007
6.191838
6.507599
6.867546
7.271904
7.716896
8.1955
8.698486
9.215288
9.734468
10.24523
10.74391
11.24891
11.82027
12.57808
13.74485
15.77
19.85217
31.25235
105.1378
111.0641
34.51811
19.94412
13.21528
9.70986
7.795848
6.640908
5.886362
5.376203
5.02514
4.782852
4.614517
4.496015
4.411225
4.347754
4.295836
4.248985
4.204541
4.163144
4.127191
4.099078
4.0805
4.072081
4.073564
4.084895
4.105959
4.136799
4.177589
4.228616
4.29027
4.363041
4.447518
4.544401
4.654591
4.779051
4.918824
5.075242
5.249893
5.444684
5.661943
5.904911
6.179993
6.494913
6.853877
7.257136
7.701027
8.178729
8.681218
9.198067
9.71784
10.22958
10.72932
11.23508
11.80666
12.5641
13.73015
15.7547
19.83691
31.24038
105.1393
111.5052
34.61463
20.05116
13.30254
9.765271
7.832431
6.673326
5.919378
5.410091
5.061107
4.819686
4.65031
4.52969
4.441582
4.373367
4.315604
4.262629
4.212698
4.16702
4.128073
4.098168
4.078439
4.069245
4.070147
4.081021
4.10172
4.132262
4.172795
4.223584
4.285001
4.357517
4.441709
4.538262
4.648065
4.772072
4.911319
5.067136
5.241107
5.435139
5.651565
5.893692
6.167938
6.481917
6.839801
7.241884
7.684641
8.161444
8.663469
9.1804
9.700788
10.2135
10.71426
11.22072
11.79245
12.54948
13.71481
15.73883
19.8212
31.2283
105.14
111.9487
34.71224
20.15997
13.39685
9.830353
7.876746
6.712019
5.958678
5.451205
5.103833
4.861896
4.690455
4.566837
4.474469
4.400676
4.336529
4.277254
4.221928
4.172168
4.130424
4.098646
4.07776
4.067713
4.067949
4.07828
4.098529
4.128686
4.168876
4.219344
4.28044
4.352621
4.436448
4.532594
4.641935
4.765414
4.904066
5.059213
5.232436
5.425645
5.641171
5.882386
6.155708
6.468649
6.825359
7.226198
7.667788
8.143701
8.645292
9.16234
9.683361
10.19704
10.69879
11.20589
11.77772
12.53429
13.69884
15.72218
19.80418
31.21315
105.1397
112.3955
34.81141
20.27027
13.49727
9.903454
7.928335
6.757666
6.005143
5.499826
5.152545
4.908595
4.734348
4.606919
4.509421
4.429327
4.358403
4.292775
4.232195
4.178531
4.134098
4.100528
4.078382
4.067415
4.066916
4.076628
4.09635
4.126043
4.165811
4.215876
4.276573
4.348341
4.431728
4.527393
4.6362
4.759084
4.897075
5.051488
5.223903
5.416228
5.630794
5.871027
6.143341
6.455152
6.810603
7.210136
7.650535
8.12557
8.626759
9.143957
9.665626
10.18026
10.68296
11.19067
11.76257
12.51865
13.68235
15.70485
19.7865
31.19489
105.1331
112.8452
34.9116
20.38103
13.60267
9.984272
7.988581
6.810144
6.058868
5.554593
5.205814
4.959281
4.78153
4.64942
4.545969
4.459016
4.381097
4.30916
4.243496
4.186094
4.139072
4.103731
4.080321
4.068262
4.067001
4.076036
4.09515
4.124302
4.163569
4.213156
4.273379
4.344661
4.427536
4.522652
4.63086