/*--------------------------------*- C++ -*----------------------------------*\
| =========                 |                                                 |
| \\      /  F ield         | OpenFOAM: The Open Source CFD Toolbox           |
|  \\    /   O peration     | Version:  2312                                  |
|   \\  /    A nd           | Website:  www.openfoam.com                      |
|    \\/     M anipulation  |                                                 |
\*---------------------------------------------------------------------------*/
FoamFile
{
    version     2.0;
    format      ascii;
    arch        "LSB;label=32;scalar=64";
    class       volScalarField;
    location    "3300";
    object      qr;
}
// * * * * * * * * * * * * * * * * * * * * * * * * * * * * * * * * * * * * * //

dimensions      [1 0 -3 0 0 0 0];

internalField   uniform 0;

boundaryField
{
    plate
    {
        type            calculated;
        value           nonuniform List<scalar> 
200
(
-3455.114
-3456.539
-3461.891
-3468.229
-3475.099
-3481.94
-3488.028
-3439.894
-3484.449
-3478.033
-3477.365
-3478.704
-3483.033
-3488.711
-3495.58
-3502.566
-3508.399
-3512.545
-3515.73
-3517.929
-3519.3
-3522.09
-3523.788
-3529.722
-3534.37
-3537.787
-3540
-3540.569
-3541.691
-3542.824
-3544.403
-3546.091
-3547.655
-3549.267
-3549.908
-3550.108
-3550.02
-3549.85
-3549.799
-3549.925
-3550.167
-3550.403
-3550.506
-3550.401
-3550.07
-3549.561
-3548.947
-3548.286
-3547.635
-3547.034
-3546.502
-3546.031
-3545.598
-3545.173
-3544.732
-3544.262
-3543.768
-3543.252
-3542.732
-3542.223
-3541.741
-3541.279
-3540.824
-3540.363
-3539.901
-3539.432
-3538.96
-3538.485
-3538.015
-3537.545
-3537.071
-3536.58
-3536.065
-3535.524
-3534.963
-3534.38
-3533.782
-3533.172
-3532.547
-3531.897
-3531.231
-3530.543
-3529.848
-3529.141
-3528.448
-3527.774
-3527.145
-3526.552
-3526.007
-3525.49
-3525.004
-3524.518
-3524.033
-3523.519
-3522.989
-3522.424
-3521.857
-3521.286
-3520.753
-3520.251
-3519.813
-3519.42
-3519.091
-3518.79
-3518.533
-3518.285
-3518.077
-3517.876
-3517.72
-3517.569
-3517.453
-3517.315
-3517.173
-3516.967
-3516.719
-3516.393
-3516.03
-3515.629
-3515.259
-3514.92
-3514.708
-3514.592
-3514.645
-3514.779
-3515.049
-3515.134
-3515.301
-3515.246
-3515.041
-3514.742
-3514.443
-3514.235
-3514.13
-3514.051
-3513.821
-3513.268
-3512.309
-3511.095
-3509.984
-3509.499
-3510.078
-3511.92
-3514.77
-3518.032
-3520.856
-3522.536
-3522.651
-3521.293
-3518.839
-3515.897
-3512.938
-3510.391
-3508.519
-3507.708
-3508.277
-3510.51
-3514.173
-3518.57
-3522.353
-3524.234
-3523.284
-3519.852
-3515.302
-3511.908
-3511.438
-3514.509
-3519.557
-3523.625
-3523.207
-3516.9
-3506.369
-3496.813
-3493.892
-3501.054
-3516.595
-3534.318
-3545.007
-3541.758
-3523.613
-3498.896
-3480.443
-3477.642
-3489.441
-3507.593
-3522.763
-3532.454
-3534.23
-3528.086
-3507.905
-3483.369
-3467.181
-3473.825
-3500.525
-3537.807
-3578.126
-3652.545
-2450.96
-886.3443
-6380.51
-6514.371
)
;
    }
    riser
    {
        type            calculated;
        value           nonuniform List<scalar> 
200
(
2034.438
2051.263
2077.113
2174.293
2336.073
2485.009
2560.279
2567.588
2547.987
2529.821
2523.357
2536.287
2579.195
2655.394
2753.116
2848.001
2916.241
2947.419
2947.996
2934.268
2921.461
2917.022
2920.416
2927.054
2932.383
2934.425
2934.49
2936.688
2946.445
2968.402
3004.128
3050.804
3101.65
3148.18
3183.308
3203.749
3210.674
3208.499
3202.676
3197.617
3195.545
3196.521
3199.263
3202.199
3204.237
3205.07
3205.058
3204.882
3205.178
3206.285
3208.172
3210.497
3212.802
3214.693
3215.981
3216.722
3217.139
3217.524
3218.094
3218.931
3219.97
3221.055
3222.024
3222.774
3223.3
3223.673
3223.994
3224.342
3224.737
3225.133
3225.449
3225.605
3225.563
3225.348
3225.042
3224.759
3224.615
3224.695
3225.04
3225.645
3226.469
3227.449
3228.508
3229.555
3230.487
3231.176
3231.473
3231.214
3230.24
3228.422
3225.693
3222.07
3217.668
3212.7
3207.463
3202.309
3197.608
3193.711
3190.92
3189.451
3189.425
3190.854
3193.646
3197.614
3202.5
3207.998
3213.783
3219.544
3225.005
3229.952
3234.241
3237.798
3240.615
3242.735
3244.23
3245.187
3245.696
3245.845
3245.717
3245.398
3244.983
3244.573
3244.265
3244.133
3244.21
3244.477
3244.869
3245.294
3245.667
3245.949
3246.166
3246.393
3246.725
3247.223
3247.879
3248.608
3249.285
3249.807
3250.16
3250.44
3250.816
3251.434
3252.298
3253.202
3253.748
3253.488
3252.141
3249.813
3247.1
3244.998
3244.603
3246.672
3251.189
3257.157
3262.753
3265.923
3265.264
3260.854
3254.605
3249.779
3249.713
3256.18
3268.209
3282.002
3292.118
3293.382
3282.61
3259.461
3226.336
3187.66
3148.929
3115.639
3091.996
3079.658
3076.989
3079.232
3080.02
3074.163
3061.342
3048.88
3050.185
3076.412
3123.479
3165.388
3165.165
3101.634
2991.349
2881.637
2811.769
2776.162
2738.813
2701.945
2731.467
2857.295
2963.865
2873.932
2614.18
2428.944
2362.297
2300.235
)
;
    }
    topAndBottom
    {
        type            calculated;
        value           nonuniform List<scalar> 
120
(
1745.242
1458.096
1264.334
1170.64
1093.707
1026.629
978.2992
951.8401
939.7516
934.468
932.0917
930.8844
928.9527
925.847
923.4252
922.7304
922.6373
922.6211
923.5957
925.7668
928.614
931.4225
933.8152
935.4255
935.7106
934.3365
931.3461
927.2398
922.3956
917.1603
911.8368
906.679
901.9087
897.7127
894.2165
891.445
889.2826
887.4603
885.6133
883.416
880.7282
877.6514
874.4682
871.5275
869.1551
867.609
866.998
867.1072
867.1609
865.7967
861.4873
853.4622
842.5802
831.378
822.5816
816.6339
810.5916
801.6339
804.4869
930.9414
1340.309
1529.243
1540.219
1533.405
1527.72
1523.841
1519.714
1514.367
1508.616
1503.876
1500.86
1499.279
1498.336
1497.372
1496.113
1494.575
1492.859
1491.054
1489.235
1487.467
1485.791
1484.187
1482.58
1480.871
1478.983
1476.878
1474.55
1471.991
1469.185
1466.12
1462.815
1459.346
1455.841
1452.493
1449.569
1447.075
1444.934
1442.979
1440.998
1438.588
1435.302
1431.26
1427.354
1424.571
1422.798
1421.601
1421.045
1421.422
1422.261
1420.959
1416.607
1411.236
1407.239
1405.756
1408.092
1414.543
1423.363
1433.502
1454.103
1502.639
)
;
    }
    frontAndBack
    {
        type            empty;
    }
}


// ************************************************************************* //
