/*--------------------------------*- C++ -*----------------------------------*\
| =========                 |                                                 |
| \\      /  F ield         | OpenFOAM: The Open Source CFD Toolbox           |
|  \\    /   O peration     | Version:  2312                                  |
|   \\  /    A nd           | Website:  www.openfoam.com                      |
|    \\/     M anipulation  |                                                 |
\*---------------------------------------------------------------------------*/
FoamFile
{
    version     2.0;
    format      ascii;
    arch        "LSB;label=32;scalar=64";
    class       volScalarField;
    location    "3300";
    object      T;
}
// * * * * * * * * * * * * * * * * * * * * * * * * * * * * * * * * * * * * * //

dimensions      [0 0 0 1 0 0 0];

internalField   nonuniform List<scalar> 
12000
(
446.0697
434.5778
433.2731
433.0969
433.0593
433.0373
433.0177
432.9983
432.9783
432.9564
432.9325
432.9063
432.8778
432.8465
432.8119
432.774
432.733
432.6885
432.6405
432.5887
432.5333
432.4742
432.4114
432.3449
432.2749
432.2017
432.1255
432.0464
431.9643
431.8795
431.7919
431.7021
431.6106
431.5162
431.4123
431.3023
431.1854
431.0554
430.9022
430.7295
430.5567
430.3874
430.1942
429.9491
429.6847
429.4364
429.1872
428.8809
428.4843
428.0875
427.7014
427.2237
426.6156
425.9509
425.2146
424.2848
423.0504
421.4332
419.0463
414.8486
446.5211
435.2395
434.1586
434.2406
434.4926
434.7709
435.0575
435.3454
435.6253
435.8747
436.1153
436.3429
436.5604
436.7562
436.9305
437.0895
437.2395
437.3755
437.4929
437.594
437.6856
437.7689
437.8403
437.8983
437.9461
437.9874
438.0214
438.045
438.058
438.0637
438.0628
438.0524
438.0317
438.0015
437.9607
437.9075
437.8421
437.7641
437.6727
437.5675
437.4477
437.3111
437.155
436.9772
436.7738
436.5399
436.2721
435.964
435.6107
435.1997
434.7206
434.156
433.4934
432.7111
431.7806
430.5925
429.006
426.7581
423.2772
417.162
447.067
436.0685
434.9705
435.1834
435.6386
436.1313
436.6198
437.0893
437.5324
437.9458
438.331
438.6874
439.0166
439.3178
439.5921
439.8412
440.0674
440.2718
440.4556
440.6202
440.7672
440.8981
441.0139
441.1152
441.2032
441.2787
441.3425
441.3949
441.4361
441.4665
441.4864
441.496
441.4959
441.4855
441.4603
441.422
441.3709
441.3066
441.2284
441.1353
441.026
440.8994
440.7532
440.5859
440.394
440.1725
439.9184
439.6274
439.2959
438.907
438.4519
437.9209
437.2944
436.5403
435.5984
434.3897
432.7861
430.4283
426.4368
418.3147
448.0263
436.8312
435.6434
435.9125
436.4896
437.1171
437.7329
438.3183
438.8664
439.3852
439.8677
440.3122
440.7205
441.0938
441.4334
441.7423
442.023
442.2779
442.5089
442.7179
442.9063
443.0756
443.2269
443.3615
443.4803
443.5842
443.6738
443.7494
443.8114
443.8599
443.8951
443.9176
443.9276
443.9224
443.9014
443.8652
443.814
443.7473
443.6641
443.5633
443.4436
443.3031
443.1398
442.9527
442.7379
442.4919
442.2103
441.8887
441.5236
441.1044
440.6238
440.0735
439.4174
438.6124
437.6461
436.441
434.8241
432.4464
428.3354
419.144
449.0274
437.5553
436.2596
436.5413
437.1881
437.8996
438.597
439.2585
439.8783
440.4584
440.9986
441.4981
441.9597
442.3833
442.77
443.1226
443.4436
443.7356
444.001
444.2425
444.4615
444.6592
444.8366
444.9948
445.1348
445.2577
445.364
445.4543
445.5287
445.5876
445.6316
445.6606
445.6741
445.6695
445.648
445.6097
445.555
445.4829
445.3923
445.2819
445.1501
444.9951
444.8146
444.6069
444.3681
444.0946
443.7822
443.4263
443.0209
442.5606
442.0373
441.4316
440.7259
439.8964
438.8961
437.6579
436.0353
433.6814
429.5701
419.7697
450.1016
438.2521
436.8192
437.0692
437.7397
438.4968
439.2461
439.9601
440.6309
441.256
441.8359
442.3725
442.8699
443.3292
443.7507
444.1363
444.4885
444.8091
445.1003
445.3651
445.605
445.8215
446.0157
446.1886
446.3413
446.4749
446.5901
446.6876
446.7677
446.8306
446.8772
446.9068
446.9189
446.9128
446.8888
446.8472
446.788
446.7102
446.6128
446.4943
446.353
446.1869
445.9936
445.7703
445.5135
445.2193
444.8833
444.5003
444.0653
443.5708
443.0063
442.3591
441.6115
440.7411
439.7084
438.4427
436.8023
434.4523
430.3683
420.2282
451.1918
438.9192
437.3395
437.5317
438.195
438.971
439.7495
440.4951
441.197
441.8522
442.4611
443.0257
443.5484
444.032
444.4782
444.8877
445.2623
445.6038
445.914
446.1952
446.4491
446.6772
446.881
447.0617
447.2205
447.3586
447.4769
447.5762
447.657
447.7199
447.7649
447.7922
447.8012
447.7922
447.7654
447.7207
447.6578
447.5759
447.4738
447.3501
447.2028
447.0299
446.8284
446.5954
446.3272
446.0193
445.667
445.2649
444.8065
444.2831
443.6853
443.002
442.2184
441.3127
440.2486
438.9593
437.3082
434.9675
430.9128
420.5566
452.3271
439.5689
437.8295
437.9457
438.5793
439.3525
440.1412
440.9031
441.624
442.2994
442.9291
443.5143
444.0565
444.5578
445.0205
445.4464
445.8365
446.1923
446.5154
446.8074
447.0702
447.3052
447.514
447.6982
447.859
447.9976
448.1154
448.2131
448.2917
448.3518
448.3936
448.4172
448.4228
448.4107
448.3809
448.3335
448.2678
448.1833
448.0785
447.952
447.8017
447.6253
447.4199
447.1821
446.9078
446.5922
446.2302
445.8153
445.3399
444.7951
444.1717
443.4594
442.6458
441.712
440.6239
439.316
437.6542
435.3171
431.2918
420.7971
453.5246
440.2055
438.298
438.3273
438.9141
439.6681
440.4531
441.2199
441.9504
442.6384
443.2822
443.8821
444.4392
444.9546
445.4298
445.8668
446.2671
446.6321
446.9631
447.2616
447.5292
447.7674
447.978
448.1624
448.3222
448.4589
448.5738
448.668
448.7428
448.7987
448.8364
448.8562
448.8584
448.8433
448.811
448.7615
448.6941
448.6081
448.5022
448.3748
448.2237
448.0465
447.84
447.6008
447.3243
447.0055
446.6385
446.2157
445.7287
445.1675
444.5219
443.7824
442.9406
441.9824
440.8758
439.556
437.8903
435.5616
431.5646
420.9916
454.7494
440.8359
438.7535
438.6889
439.2179
439.9405
440.7112
441.4739
442.2066
442.9006
443.5527
444.1624
444.7298
445.2556
445.7407
446.1863
446.5937
446.9645
447.3001
447.6019
447.8713
448.1101
448.3199
448.5023
448.6592
448.7922
448.9029
448.9926
449.0627
449.114
449.1473
449.1633
449.1622
449.1444
449.1101
449.0591
448.9907
448.9042
448.7981
448.6709
448.5203
448.3438
448.1382
447.8996
447.6236
447.3046
446.9359
446.5094
446.015
445.4411
444.775
444.0065
443.1379
442.163
441.0461
439.7199
438.0526
435.7311
431.762
421.1555
456.0153
441.4699
439.2003
439.0353
439.4986
440.1813
440.9299
441.6821
442.4116
443.1071
443.7641
444.3804
444.9555
445.4894
445.9824
446.4352
446.8485
447.2234
447.5613
447.8639
448.1328
448.3697
448.5766
448.7554
448.9079
449.0359
449.1414
449.2258
449.2905
449.3369
449.3658
449.3779
449.3736
449.3534
449.3172
449.265
449.1961
449.1094
449.0038
448.8774
448.7281
448.5532
448.3494
448.1128
447.8389
447.5217
447.1545
446.7284
446.2305
445.6418
444.949
444.1532
443.2624
442.2753
441.1551
439.8273
438.1623
435.8501
431.9067
421.3062
457.2964
442.1068
439.6435
439.3765
439.7703
440.4059
441.1245
441.8589
442.5793
443.2717
443.9295
444.5493
445.1296
445.6692
446.1679
446.626
447.0438
447.4223
447.7626
448.066
448.3342
448.5689
448.7724
448.9468
449.0942
449.2167
449.3164
449.3951
449.4543
449.4956
449.5199
449.5281
449.5207
449.4981
449.4604
449.4071
449.3378
449.2513
449.1464
449.0212
448.8734
448.7004
448.499
448.2651
447.994
447.68
447.3159
446.8881
446.3778
445.7723
445.0645
444.2544
443.348
442.3493
441.2258
439.8989
438.2367
435.9323
432.0129
421.4431
458.5649
442.7422
440.0885
439.7247
440.0486
440.6339
441.3185
442.0309
442.7376
443.4221
444.0756
444.693
445.2706
445.8087
446.3097
446.7723
447.1944
447.5762
447.9193
448.2243
448.4915
448.7236
448.9239
449.0941
449.2365
449.3535
449.4473
449.5202
449.5739
449.6101
449.6299
449.6343
449.6238
449.5988
449.5594
449.5052
449.4355
449.3493
449.2451
449.1211
448.9751
448.8043
448.6056
448.375
448.1081
447.7974
447.4302
446.9926
446.4727
445.8588
445.1431
444.3236
443.406
442.3968
441.2693
439.9448
438.2861
435.9898
432.0915
421.5729
459.8005
443.3895
440.5474
440.0829
440.3348
440.8671
441.514
442.2005
442.8901
443.5635
444.2098
444.822
445.3955
445.9308
446.4287
446.8887
447.3104
447.6933
448.037
448.3426
448.6116
448.8452
449.0445
449.2109
449.3479
449.4593
449.5474
449.6146
449.6629
449.6941
449.7096
449.7102
449.6968
449.6695
449.6285
449.5733
449.5032
449.4171
449.3135
449.1907
449.0462
448.8776
448.6816
448.4547
448.1904
447.8781
447.5053
447.0607
446.5335
445.9136
445.1927
444.3674
443.4425
442.4251
441.2942
439.9723
438.3168
436.0263
432.1446
421.6875
460.9958
444.06
441.0196
440.4511
440.6303
441.1082
441.7152
442.3735
443.0433
443.7032
444.3403
444.9458
445.5143
446.0449
446.538
446.9936
447.411
447.7902
448.1317
448.436
448.7042
448.9369
449.1354
449.3011
449.4361
449.5434
449.626
449.6876
449.7308
449.7573
449.7686
449.7657
449.7494
449.7199
449.6771
449.6208
449.5501
449.4639
449.3607
449.2387
449.0957
448.9291
448.7361
448.5109
448.2451
447.9293
447.5529
447.1047
446.5735
445.9491
445.2236
444.3938
443.4634
442.4401
441.3073
439.9879
438.3355
436.0509
432.1844
421.7857
462.1594
444.7401
441.5012
440.8287
440.9359
441.3596
441.926
442.5545
443.2029
443.8475
444.4738
445.072
445.6346
446.1598
446.6476
447.0968
447.5074
447.8801
448.2161
448.5163
448.7814
449.012
449.2085
449.372
449.5044
449.6086
449.6877
449.7451
449.7836
449.8057
449.8132
449.8071
449.7881
449.7564
449.712
449.6545
449.5831
449.4965
449.3934
449.2719
449.13
448.9651
448.7727
448.5464
448.2786
447.9601
447.5806
447.1295
446.5963
445.9703
445.2424
444.4082
443.4723
442.4446
441.3108
439.9934
438.3436
436.0635
432.2068
421.8574
463.2996
445.4233
441.9893
441.2141
441.2513
441.6221
442.1483
442.7466
443.3727
444.001
444.6154
445.2052
445.7625
446.2818
446.7622
447.2041
447.6068
447.9713
448.2992
448.5926
448.8523
449.0785
449.2715
449.4318
449.5609
449.6614
449.7367
449.7902
449.8249
449.8434
449.8476
449.8386
449.8172
449.7836
449.7376
449.6789
449.6065
449.5194
449.4162
449.295
449.1536
448.9885
448.7953
448.5679
448.2983
447.9775
447.5955
447.1418
446.606
445.9778
445.2486
444.4134
443.4756
442.4442
441.3095
439.9948
438.3481
436.0722
432.2237
421.9074
464.4206
446.105
442.4816
441.6062
441.576
441.8962
442.3834
442.9519
443.5555
444.1669
444.7685
445.3487
445.899
446.4133
446.8875
447.3206
447.7137
448.0682
448.3864
448.6706
448.9223
449.1421
449.3297
449.4853
449.61
449.7064
449.7776
449.8271
449.8582
449.8734
449.8746
449.863
449.8395
449.8042
449.7569
449.6969
449.6235
449.5357
449.4319
449.3104
449.1685
449.003
448.809
448.5803
448.309
447.9862
447.6019
447.146
446.6082
445.9783
445.2473
444.4102
443.4704
442.4376
441.3032
439.9909
438.3468
436.0745
432.2317
421.9307
465.5238
446.7815
442.9756
442.0037
441.9094
442.1816
442.6316
443.1713
443.7527
444.347
444.9353
445.5047
446.0462
446.5531
447.0211
447.4474
447.831
448.1741
448.4804
448.7531
448.9947
449.2058
449.3863
449.5357
449.655
449.7463
449.8129
449.8583
449.8857
449.8978
449.8963
449.8825
449.8569
449.82
449.7715
449.7105
449.636
449.5471
449.4426
449.3204
449.1779
449.0116
448.8166
448.5867
448.3138
447.9891
447.6028
447.1448
446.6052
445.9737
445.2415
444.4035
443.4628
442.4291
441.2953
439.9854
438.3443
436.0758
432.2386
421.9458
466.6036
447.4466
443.4692
442.4053
442.2505
442.4777
442.8926
443.4049
443.9648
444.5422
445.1168
445.6747
446.2061
446.7037
447.1628
447.5805
447.9556
448.2887
448.5823
448.8414
449.0706
449.2713
449.4429
449.5849
449.6977
449.7833
449.8447
449.8856
449.9092
449.9181
449.914
449.8981
449.8707
449.8323
449.7826
449.7205
449.645
449.5552
449.4498
449.3268
449.1835
449.0164
448.8204
448.5892
448.3149
447.9885
447.6004
447.1406
446.5991
445.9662
445.2328
444.394
443.4529
442.4193
441.2868
439.9793
438.3412
436.0767
432.2453
421.959
467.6541
448.1043
443.9621
442.8103
442.5984
442.7836
443.166
443.6524
444.1919
444.7526
445.3133
445.8591
446.3792
446.866
447.3143
447.7211
448.0854
448.4077
448.69
448.9357
449.1507
449.339
449.5003
449.6337
449.7391
449.8182
449.8741
449.9102
449.9298
449.9355
449.9287
449.9107
449.8816
449.8418
449.7908
449.7277
449.6513
449.5607
449.4544
449.3306
449.1865
449.0185
448.8216
448.5893
448.3137
447.9857
447.5958
447.1343
446.5913
445.957
445.2226
444.3834
443.4422
442.409
441.2779
439.9729
438.3379
436.0776
432.2525
421.9767
468.6675
448.7538
444.4543
443.2183
442.9525
443.0987
443.4508
443.9132
444.4331
444.9776
445.5242
446.0572
446.5649
447.0394
447.4751
447.8692
448.2206
448.5301
448.7999
449.033
449.2341
449.4086
449.5584
449.6822
449.7795
449.8516
449.9015
449.9326
449.9482
449.9505
449.9412
449.921
449.8902
449.849
449.7968
449.7327
449.6555
449.5641
449.4571
449.3324
449.1876
449.0188
448.821
448.5877
448.3109
447.9815
447.5901
447.127
446.5825
445.947
445.2117
444.3721
443.4311
442.3989
441.2696
439.9671
438.3353
436.0794
432.2612
422.0001
469.6372
449.3903
444.9442
443.6284
443.312
443.4219
443.7461
444.1862
444.6875
445.2161
445.7484
446.2677
446.7619
447.2224
447.6439
448.0233
448.36
448.6551
448.911
449.1309
449.3184
449.4791
449.6166
449.7302
449.8188
449.8835
449.9272
449.9533
449.9647
449.9638
449.9518
449.9295
449.8971
449.8544
449.801
449.7359
449.6579
449.5657
449.458
449.3326
449.187
449.0176
448.8191
448.5849
448.3071
447.9765
447.5837
447.1192
446.5734
445.9367
445.2008
444.3609
443.4203
442.3892
441.2618
439.9618
438.3332
436.0817
432.2707
422.0276
470.5581
450.0153
445.4316
444.04
443.6761
443.7524
444.0509
444.4701
444.9539
445.4667
445.9842
446.4889
446.9681
447.4131
447.8185
448.1816
448.502
448.7812
449.0219
449.2275
449.4017
449.5492
449.6742
449.7771
449.8567
449.9139
449.9514
449.9724
449.9798
449.9755
449.961
449.9366
449.9025
449.8584
449.8038
449.7377
449.6589
449.566
449.4575
449.3314
449.1852
449.0152
448.8161
448.5812
448.3025
447.9709
447.577
447.1112
446.5643
445.9267
445.1902
444.3502
443.4102
442.3804
441.2549
439.9574
438.332
436.0851
432.2818
422.0583
471.4176
450.6401
445.9183
444.4534
444.0443
444.0893
444.3639
444.7636
445.2303
445.7274
446.2295
446.7184
447.1812
447.609
447.9967
448.3418
448.6445
448.9067
449.1313
449.322
449.4826
449.6173
449.7301
449.8223
449.8929
449.9426
449.9739
449.9899
449.9934
449.9861
449.9691
449.9427
449.907
449.8615
449.8057
449.7385
449.6588
449.5651
449.4559
449.3291
449.1823
449.0117
448.8122
448.5768
448.2974
447.965
447.5701
447.1033
446.5554
445.9171
445.1802
444.3402
443.4009
442.3726
441.2491
439.954
438.3318
436.0893
432.2941
422.0914
472.2216
451.2604
446.4037
444.8678
444.4158
444.4314
444.6839
445.0651
445.5151
445.9961
446.4819
446.9537
447.3985
447.8076
448.176
448.5018
448.7856
449.0299
449.2378
449.4134
449.5603
449.6824
449.7836
449.8654
449.9271
449.9693
449.9947
450.006
450.0058
449.9956
449.9762
449.948
449.9107
449.8639
449.8069
449.7387
449.6581
449.5636
449.4535
449.3261
449.1787
449.0076
448.8076
448.5718
448.2918
447.9587
447.5631
447.0955
446.547
445.9081
445.1709
444.3312
443.3928
442.366
441.2445
439.9517
438.3325
436.0947
432.308
422.128
472.9725
451.8739
446.8882
445.2834
444.7902
444.7781
445.0094
445.3728
445.8063
446.2706
446.7389
447.1923
447.6175
448.0063
448.354
448.6594
448.9236
449.1494
449.3404
449.5007
449.634
449.7439
449.834
449.9059
449.959
449.9941
450.0137
450.0206
450.017
450.0041
449.9826
449.9526
449.9138
449.8657
449.8077
449.7386
449.6571
449.5617
449.4508
449.3225
449.1745
449.0029
448.8025
448.5663
448.2859
447.9523
447.556
447.0879
446.5388
445.8997
445.1625
444.3233
443.3859
442.3607
441.2412
439.9505
438.3343
436.1011
432.3232
422.1693
473.6778
452.4778
447.3703
445.6992
445.1666
445.1281
445.3392
445.6851
446.1017
446.5485
446.9982
447.4315
447.8356
448.2025
448.5285
448.8127
449.0568
449.2639
449.4381
449.5833
449.7033
449.8014
449.881
449.9435
449.9883
450.0167
450.0311
450.0339
450.0271
450.0118
449.9883
449.9567
449.9165
449.8673
449.8083
449.7382
449.6559
449.5597
449.4479
449.3188
449.1702
448.9981
448.7974
448.5608
448.28
447.9459
447.5491
447.0806
446.5312
445.892
445.155
444.3164
443.3802
442.3568
441.239
439.9503
438.3369
436.1084
432.3399
422.2165
474.3373
453.0682
447.8518
446.1144
445.5445
445.4805
445.6719
446.0002
446.3992
446.8274
447.2568
447.6685
448.05
448.394
448.6973
448.9599
449.1837
449.3725
449.5301
449.6606
449.7678
449.8547
449.9245
449.9781
450.0153
450.0374
450.0469
450.0461
450.0364
450.0189
449.9935
449.9604
449.9189
449.8687
449.8087
449.7378
449.6547
449.5577
449.4452
449.3153
449.166
448.9935
448.7924
448.5554
448.2743
447.9397
447.5426
447.0737
446.524
445.8847
445.1482
444.3106
443.3757
442.3539
441.2378
439.9509
438.3403
436.1162
432.3572
422.2692
474.9578
453.6474
448.3305
446.5291
445.9232
445.8344
446.0061
446.3163
446.6968
447.1049
447.5126
447.9011
448.2587
448.5788
448.859
449.0998
449.3037
449.4744
449.6161
449.7327
449.8276
449.9041
449.9646
450.0099
450.0399
450.0563
450.0614
450.0572
450.045
450.0254
449.9983
449.9637
449.9212
449.8699
449.809
449.7374
449.6535
449.5559
449.4426
449.3121
449.1621
448.9892
448.7878
448.5505
448.269
447.934
447.5364
447.067
446.5173
445.8785
445.1427
444.3059
443.3721
442.3517
441.2372
439.9523
438.3442
436.1243
432.3746
422.3258
475.5408
454.212
448.8022
446.944
446.3024
446.1889
446.3406
446.6318
446.9924
447.3789
447.7633
448.1273
448.4599
448.7556
449.0125
449.2318
449.4163
449.5697
449.6962
449.7995
449.883
449.9496
450.0015
450.039
450.0624
450.0736
450.0747
450.0675
450.053
450.0314
450.0028
449.9669
449.9232
449.8711
449.8094
449.737
449.6525
449.5542
449.4404
449.3092
449.1587
448.9855
448.7837
448.5462
448.2643
447.9288
447.5308
447.0613
446.5117
445.8734
445.1381
444.3021
443.3694
442.3505
441.2376
439.9543
438.3486
436.1325
432.3912
422.383
476.0935
454.7632
449.2658
447.3561
446.6817
446.5433
446.6743
446.9453
447.2844
447.6477
448.0072
448.3455
448.6525
448.9234
449.1573
449.3556
449.5213
449.6582
449.7704
449.8614
449.9342
449.9917
450.0355
450.0657
450.083
450.0895
450.0871
450.0772
450.0604
450.0371
450.007
449.9699
449.9252
449.8722
449.8097
449.7367
449.6516
449.5528
449.4384
449.3067
449.1558
448.9823
448.7804
448.5426
448.2603
447.9245
447.5262
447.0567
446.5073
445.8693
445.1347
444.2995
443.3679
442.3502
441.2388
439.9571
438.3535
436.1406
432.4066
422.4366
476.6111
455.2968
449.7213
447.7643
447.0598
446.8972
447.0064
447.2557
447.5715
447.9098
448.243
448.5546
448.8355
449.0818
449.293
449.4709
449.6188
449.7403
449.8392
449.9187
449.9817
450.0307
450.0668
450.0902
450.1021
450.1043
450.0986
450.0862
450.0674
450.0424
450.011
449.9728
449.9271
449.8733
449.8102
449.7365
449.6509
449.5516
449.4368
449.3047
449.1535
448.9798
448.7777
448.5398
448.2573
447.9212
447.5227
447.0531
446.5039
445.8664
445.1325
444.2981
443.3674
442.3509
441.2408
439.9604
438.3587
436.1487
432.4204
422.4825
477.1079
455.819
450.1697
448.1683
447.4351
447.2484
447.335
447.5608
447.8515
448.1632
448.469
448.7534
449.0081
449.2301
449.4194
449.578
449.7092
449.8163
449.9028
449.9717
450.0257
450.0669
450.0958
450.1129
450.1197
450.118
450.1095
450.0948
450.0741
450.0475
450.0148
449.9756
449.929
449.8744
449.8107
449.7365
449.6503
449.5506
449.4355
449.3031
449.1517
448.9779
448.7757
448.5377
448.255
447.9187
447.52
447.0506
446.5018
445.8648
445.1315
444.2979
443.3681
442.3527
441.2436
439.9645
438.3643
436.1566
432.4328
422.5188
477.5876
456.3287
450.6108
448.5672
447.8061
447.5952
447.658
447.8588
448.1229
448.4067
448.6844
448.9414
449.1703
449.3687
449.537
449.6774
449.7929
449.8867
449.9619
450.021
450.0667
450.1005
450.1225
450.1338
450.1361
450.131
450.1198
450.1029
450.0805
450.0525
450.0185
449.9783
449.9309
449.8756
449.8112
449.7365
449.65
449.5499
449.4346
449.302
449.1503
448.9765
448.7744
448.5363
448.2535
447.9171
447.5185
447.0492
446.5008
445.8645
445.132
444.2991
443.3701
442.3556
441.2475
439.9694
438.3707
436.1648
432.4439
422.5451
478.0529
456.8253
451.0444
448.9587
448.1707
447.9356
447.9736
448.148
448.3842
448.6393
448.8886
449.1183
449.3221
449.4979
449.6464
449.7697
449.8706
449.952
450.0167
450.0669
450.105
450.1317
450.1473
450.1533
450.1515
450.1433
450.1296
450.1107
450.0866
450.0572
450.0221
449.9809
449.9328
449.8768
449.8119
449.7367
449.6498
449.5495
449.4339
449.3012
449.1495
448.9757
448.7736
448.5355
448.2527
447.9163
447.5178
447.0489
446.5011
445.8655
445.1338
444.3017
443.3733
442.3596
441.2524
439.9753
438.3778
436.1735
432.4547
422.5633
478.506
457.3085
451.4699
449.342
448.5273
448.2678
448.28
448.4269
448.6343
448.8603
449.0812
449.2844
449.464
449.6184
449.7483
449.8556
449.9429
450.0129
450.0678
450.1099
450.1408
450.1607
450.1704
450.1716
450.166
450.1549
450.1389
450.1181
450.0924
450.0617
450.0256
449.9835
449.9346
449.878
449.8126
449.7371
449.6499
449.5493
449.4336
449.3008
449.1492
448.9754
448.7735
448.5354
448.2526
447.9163
447.518
447.0496
446.5024
445.8677
445.1368
444.3055
443.3779
442.3649
441.2584
439.9822
438.3859
436.183
432.4659
422.5766
478.9474
457.778
451.8862
449.7161
448.8748
448.5905
448.5759
448.6944
448.8725
449.0694
449.2625
449.4401
449.5967
449.7309
449.8433
449.9357
450.0105
450.0698
450.1157
450.1502
450.1741
450.1876
450.1919
450.1888
450.1798
450.1661
450.1478
450.1251
450.098
450.066
450.0289
449.986
449.9364
449.8793
449.8135
449.7376
449.6501
449.5494
449.4336
449.3008
449.1493
448.9757
448.7739
448.536
448.2533
447.9171
447.5191
447.0512
446.5049
445.871
445.1411
444.3106
443.3836
442.3712
441.2653
439.99
438.3948
436.1934
432.4779
422.5883
479.3759
458.2334
452.2924
450.0801
449.2121
448.9026
448.8606
448.95
449.0987
449.2669
449.4331
449.5861
449.7209
449.8361
449.9321
450.0107
450.0738
450.1231
450.1608
450.1881
450.2052
450.2126
450.212
450.2049
450.1929
450.1767
450.1563
450.1319
450.1033
450.0702
450.0321
449.9884
449.9382
449.8806
449.8143
449.7382
449.6505
449.5497
449.4339
449.3013
449.1499
448.9765
448.775
448.5372
448.2546
447.9186
447.5211
447.0538
446.5084
445.8755
445.1465
444.3168
443.3904
442.3785
441.2732
439.9987
438.4046
436.2046
432.4908
422.6012
479.7899
458.6744
452.6876
450.4334
449.5384
449.2033
449.1334
449.1936
449.3131
449.4532
449.5935
449.7231
449.8374
449.9347
450.0156
450.0813
450.1333
450.1734
450.2033
450.2235
450.234
450.2359
450.2308
450.2203
450.2055
450.1868
450.1645
450.1384
450.1084
450.0742
450.0352
449.9907
449.94
449.8819
449.8153
449.7389
449.6511
449.5502
449.4345
449.302
449.1509
448.9779
448.7765
448.539
448.2566
447.9209
447.5239
447.0574
446.5129
445.8811
445.1531
444.3241
443.3982
442.3867
441.2819
440.0081
438.415
436.2165
432.5046
422.6161
480.1881
459.1009
453.0716
450.7755
449.8533
449.4923
449.3942
449.4253
449.5161
449.6292
449.7446
449.8521
449.947
450.0277
450.0943
450.1479
450.1896
450.2211
450.2434
450.2565
450.2608
450.2576
450.2485
450.2348
450.2174
450.1965
450.1722
450.1445
450.1133
450.078
450.0381
449.993
449.9417
449.8831
449.8163
449.7397
449.6518
449.551
449.4354
449.3032
449.1524
448.9797
448.7787
448.5413
448.2592
447.9239
447.5275
447.0618
446.5183
445.8876
445.1606
444.3324
443.4069
442.3957
441.2914
440.0182
438.4261
436.2289
432.519
422.633
480.5704
459.5133
453.4442
451.1062
450.1565
449.7694
449.6431
449.6455
449.7084
449.7954
449.8873
449.9739
450.0506
450.1157
450.1689
450.211
450.243
450.2662
450.281
450.2872
450.2857
450.2779
450.2651
450.2486
450.2287
450.2057
450.1796
450.1504
450.1179
450.0815
450.0409
449.9951
449.9433
449.8844
449.8173
449.7406
449.6527
449.552
449.4366
449.3047
449.1543
448.982
448.7813
448.5443
448.2625
447.9276
447.5319
447.0671
446.5247
445.8952
445.1692
444.3416
443.4165
442.4054
441.3013
440.0288
438.4375
436.2417
432.5339
422.6512
480.9381
459.9125
453.8054
451.4254
450.448
450.0348
449.8805
449.8548
449.8907
449.9528
450.0223
450.0893
450.1489
450.1992
450.2398
450.271
450.2938
450.3089
450.3162
450.3158
450.3089
450.2968
450.2807
450.2615
450.2395
450.2145
450.1867
450.156
450.1223
450.0849
450.0435
449.9971
449.9448
449.8857
449.8184
449.7416
449.6538
449.5532
449.4381
449.3065
449.1566
448.9847
448.7844
448.5477
448.2663
447.932
447.537
447.0733
446.532
445.9036
445.1786
444.3517
443.4268
442.4157
441.3118
440.0398
438.4494
436.2549
432.5492
422.6698
481.2931
460.2992
454.1556
451.7335
450.7282
450.2889
450.107
450.0539
450.0639
450.1023
450.1506
450.199
450.2424
450.2788
450.3073
450.3282
450.3422
450.3491
450.349
450.3424
450.3304
450.3144
450.2954
450.2737
450.2495
450.2227
450.1933
450.1613
450.1264
450.0882
450.046
449.999
449.9463
449.8869
449.8195
449.7427
449.655
449.5547
449.4398
449.3086
449.1592
448.9878
448.788
448.5517
448.2707
447.9371
447.5429
447.0802
446.5401
445.9129
445.1888
444.3624
443.4376
442.4265
441.3227
440.0511
438.4616
436.2684
432.5647
422.6883
481.6379
460.6746
454.4952
452.0312
450.9969
450.5318
450.3231
450.2436
450.2288
450.2447
450.2729
450.3037
450.3318
450.3548
450.3719
450.3829
450.388
450.3868
450.3795
450.3671
450.3505
450.331
450.3091
450.2852
450.259
450.2304
450.1995
450.1662
450.1303
450.0912
450.0483
450.0008
449.9478
449.8882
449.8207
449.7439
449.6564
449.5563
449.4418
449.3111
449.1622
448.9914
448.792
448.5561
448.2757
447.9427
447.5494
447.0878
446.549
445.9229
445.1996
444.3738
443.449
442.4377
441.334
440.0628
438.474
436.2822
432.5804
422.7065
481.9749
461.0397
454.8256
452.3205
451.2544
450.7635
450.5293
450.4245
450.3861
450.3806
450.3898
450.4039
450.4174
450.4277
450.4337
450.435
450.4311
450.422
450.408
450.39
450.3692
450.3464
450.3219
450.2958
450.2677
450.2375
450.2053
450.1709
450.1339
450.094
450.0505
450.0026
449.9493
449.8895
449.822
449.7453
449.658
449.5582
449.4441
449.3139
449.1655
448.9953
448.7963
448.561
448.2811
447.9489
447.5566
447.0961
446.5585
445.9335
445.2111
444.3857
443.4609
442.4493
441.3455
440.0748
438.4867
436.2962
432.5965
422.7247
482.3058
461.3955
455.1476
452.6013
451.5015
450.9849
450.7262
450.5974
450.5366
450.5108
450.5019
450.5
450.4995
450.4976
450.4927
450.4842
450.4715
450.4547
450.4344
450.4114
450.3867
450.3607
450.3339
450.3057
450.2758
450.2441
450.2106
450.1751
450.1373
450.0967
450.0526
450.0043
449.9507
449.8908
449.8233
449.7468
449.6597
449.5602
449.4466
449.3169
449.1692
448.9995
448.8011
448.5662
448.287
447.9556
447.5643
447.105
446.5686
445.9447
445.2232
444.3981
443.4732
442.4612
441.3574
440.0869
438.4997
436.3104
432.6129
422.7432
482.6318
461.7431
455.4619
452.8741
451.7393
451.197
450.9149
450.7631
450.6809
450.6358
450.6097
450.5925
450.5784
450.5645
450.5488
450.5306
450.5093
450.4853
450.459
450.4313
450.4029
450.3741
450.3449
450.3147
450.2832
450.2501
450.2155
450.1791
450.1405
450.0992
450.0547
450.006
449.9522
449.8922
449.8248
449.7484
449.6616
449.5625
449.4493
449.3202
449.1731
449.004
448.8061
448.5718
448.2933
447.9628
447.5725
447.1145
446.5793
445.9565
445.2357
444.4108
443.4858
442.4734
441.3694
440.0993
438.5128
436.325
432.6296
422.7623
482.953
462.0831
455.769
453.1394
451.9687
451.4009
451.0961
450.9224
450.8198
450.7562
450.7135
450.6814
450.6542
450.6282
450.6018
450.574
450.5446
450.5137
450.4819
450.4498
450.418
450.3865
450.3551
450.323
450.2899
450.2556
450.22
450.1827
450.1434
450.1016
450.0566
450.0076
449.9537
449.8937
449.8263
449.7502
449.6637
449.565
449.4523
449.3237
449.1772
449.0088
448.8115
448.5778
448.3
447.9704
447.5813
447.1244
446.5905
445.9687
445.2486
444.424
443.4986
442.4857
441.3815
440.1118
438.5261
436.3397
432.6464
422.7821
483.2692
462.416
456.0693
453.3977
452.1907
451.5975
451.2707
451.0758
450.9537
450.8723
450.8135
450.767
450.7265
450.6886
450.6516
450.6147
450.5774
450.5401
450.5031
450.467
450.432
450.398
450.3645
450.3306
450.296
450.2606
450.224
450.186
450.1461
450.1038
450.0585
450.0093
449.9552
449.8952
449.828
449.7521
449.6659
449.5676
449.4554
449.3275
449.1817
449.0138
448.8172
448.5842
448.3071
447.9785
447.5905
447.1349
446.6021
445.9813
445.2618
444.4374
443.5117
442.4983
441.3938
440.1245
438.5396
436.3545
432.6631
422.8025
483.5795
462.7421
456.3634
453.6502
452.407
451.7872
451.4388
451.2239
451.083
450.9844
450.91
450.849
450.7953
450.7457
450.6984
450.6526
450.608
450.5646
450.5229
450.483
450.445
450.4086
450.3731
450.3375
450.3015
450.265
450.2276
450.189
450.1486
450.106
450.0603
450.011
449.9568
449.8969
449.8298
449.7541
449.6683
449.5704
449.4588
449.3314
449.1863
449.0191
448.8231
448.5908
448.3146
447.987
447.6001
447.1458
446.6142
445.9943
445.2754
444.451
443.525
442.5109
441.4063
440.1372
438.5531
436.3693
432.6799
422.8233
483.883
463.0614
456.6516
453.8979
452.6187
451.9711
451.6012
451.3671
451.2081
451.0928
451.0027
450.9271
450.8604
450.7994
450.7423
450.6881
450.6365
450.5875
450.5412
450.4978
450.457
450.4184
450.3809
450.3437
450.3065
450.2689
450.2308
450.1916
450.1509
450.1079
450.0621
450.0127
449.9585
449.8986
449.8317
449.7563
449.6708
449.5734
449.4623
449.3356
449.1911
449.0247
448.8293
448.5977
448.3224
447.9958
447.6102
447.1571
446.6266
446.0077
445.2893
444.4649
443.5384
442.5237
441.4188
440.15
438.5667
436.3841
432.697
422.8445
484.1784
463.3735
456.9342
454.1412
452.8261
452.1502
451.7589
451.5061
451.3295
451.1973
451.0913
451.0013
450.9219
450.8499
450.7833
450.7212
450.663
450.6087
450.5582
450.5115
450.4681
450.4273
450.388
450.3493
450.3109
450.2724
450.2336
450.194
450.1529
450.1098
450.0639
450.0144
449.9603
449.9005
449.8338
449.7587
449.6735
449.5766
449.4661
449.34
449.1962
449.0304
448.8357
448.605
448.3306
448.0051
447.6207
447.1688
446.6394
446.0213
445.3034
444.479
443.552
442.5366
441.4313
440.1629
438.5802
436.399
432.7143
422.8662
484.4648
463.6783
457.2116
454.3806
453.0299
452.3254
451.9126
451.6412
451.4469
451.2976
451.1758
451.0718
450.9802
450.8975
450.8218
450.7521
450.6877
450.6284
450.574
450.5241
450.4782
450.4354
450.3944
450.3543
450.3147
450.2755
450.2361
450.196
450.1547
450.1115
450.0656
450.0161
449.9621
449.9025
449.836
449.7612
449.6764
449.58
449.47
449.3446
449.2015
449.0364
448.8424
448.6125
448.3391
448.0148
447.6315
447.1808
446.6525
446.0352
445.3177
444.4932
443.5657
442.5496
441.444
440.1758
438.5939
436.4143
432.7322
422.8885
484.7415
463.9756
457.4839
454.6167
453.2309
452.498
452.0626
451.7724
451.5601
451.3938
451.2565
451.1388
451.0352
450.9422
450.8579
450.7809
450.7107
450.6467
450.5886
450.5358
450.4876
450.4429
450.4002
450.3587
450.3182
450.2781
450.2382
450.1978
450.1564
450.1131
450.0673