/*--------------------------------*- C++ -*----------------------------------*\
| =========                 |                                                 |
| \\      /  F ield         | OpenFOAM: The Open Source CFD Toolbox           |
|  \\    /   O peration     | Version:  2312                                  |
|   \\  /    A nd           | Website:  www.openfoam.com                      |
|    \\/     M anipulation  |                                                 |
\*---------------------------------------------------------------------------*/
FoamFile
{
    version     2.0;
    format      ascii;
    arch        "LSB;label=32;scalar=64";
    class       volVectorField;
    location    "3300";
    object      U;
}
// * * * * * * * * * * * * * * * * * * * * * * * * * * * * * * * * * * * * * //

dimensions      [0 1 -1 0 0 0 0];

internalField   nonuniform List<vector> 
12000
(
(-0.03089862 0.07234486 0)
(-0.07377649 0.0674231 0)
(-0.1207359 0.07266047 0)
(-0.1714373 0.08533153 0)
(-0.2238563 0.09314971 0)
(-0.2767697 0.08583721 0)
(-0.3243143 0.06808429 0)
(-0.3650698 0.06427932 0)
(-0.4040636 0.07469703 0)
(-0.4455371 0.08689939 0)
(-0.487495 0.06745639 0)
(-0.5194226 0.03927632 0)
(-0.5455732 0.03354455 0)
(-0.5719656 0.05642872 0)
(-0.6037836 0.06450518 0)
(-0.6314293 0.0413075 0)
(-0.6512998 0.01719205 0)
(-0.6667605 0.02393153 0)
(-0.6862721 0.04270066 0)
(-0.7069476 0.04110545 0)
(-0.7238858 0.02095317 0)
(-0.7349939 0.01062552 0)
(-0.7457759 0.01914731 0)
(-0.7582539 0.02776451 0)
(-0.7706284 0.02003124 0)
(-0.7787371 0.005686839 0)
(-0.7840802 0.003755873 0)
(-0.7898881 0.01291585 0)
(-0.7972122 0.01393143 0)
(-0.8021247 0.002745162 0)
(-0.803699 -0.003683239 0)
(-0.8046468 0.000308628 0)
(-0.806458 0.002813505 0)
(-0.8074545 0.001549566 0)
(-0.8073907 -0.005307287 0)
(-0.8037683 -0.01949909 0)
(-0.796499 -0.02689386 0)
(-0.7882419 -0.005820722 0)
(-0.7876349 0.0147225 0)
(-0.7876291 0.001244644 0)
(-0.7784885 -0.04596209 0)
(-0.7572299 -0.06900898 0)
(-0.7382743 -0.00675633 0)
(-0.7366191 0.04951851 0)
(-0.7342705 0.002303036 0)
(-0.7139023 -0.1015771 0)
(-0.672628 -0.09786853 0)
(-0.6513425 0.02055241 0)
(-0.6470125 0.04885131 0)
(-0.6261014 -0.09457791 0)
(-0.5724362 -0.1435927 0)
(-0.5299087 -0.02495468 0)
(-0.5070745 0.002220776 0)
(-0.4664888 -0.1058163 0)
(-0.4030263 -0.143202 0)
(-0.3466472 -0.09262789 0)
(-0.2904309 -0.07707966 0)
(-0.2184069 -0.1376582 0)
(-0.1208267 -0.1375482 0)
(-0.05088886 -0.121058 0)
(-0.03333922 0.2145493 0)
(-0.06852917 0.2035169 0)
(-0.1254099 0.2056917 0)
(-0.1679733 0.2086366 0)
(-0.2108592 0.2077555 0)
(-0.2485343 0.2007114 0)
(-0.2883151 0.1848073 0)
(-0.32194 0.1695131 0)
(-0.3609947 0.1533462 0)
(-0.3868786 0.1545967 0)
(-0.4127769 0.1431883 0)
(-0.4391556 0.128988 0)
(-0.4682009 0.1173776 0)
(-0.4918239 0.1116467 0)
(-0.5085611 0.1058272 0)
(-0.5238057 0.0954007 0)
(-0.542784 0.08428876 0)
(-0.562026 0.07718823 0)
(-0.5759097 0.07279994 0)
(-0.585238 0.06722229 0)
(-0.5953171 0.05960192 0)
(-0.6076108 0.05269916 0)
(-0.6186399 0.04802696 0)
(-0.6257767 0.04409513 0)
(-0.6309891 0.03907362 0)
(-0.6374286 0.03336109 0)
(-0.6447703 0.02874089 0)
(-0.6499648 0.02531676 0)
(-0.6522903 0.02152786 0)
(-0.6543935 0.01654552 0)
(-0.6574573 0.01157561 0)
(-0.6597673 0.007723391 0)
(-0.6601097 0.006204643 0)
(-0.6590624 0.001116976 0)
(-0.6566762 -0.005087688 0)
(-0.6554807 -0.01108072 0)
(-0.6552142 -0.01628508 0)
(-0.6530731 -0.01928384 0)
(-0.6443498 -0.02264088 0)
(-0.6305844 -0.03000304 0)
(-0.6229747 -0.0382826 0)
(-0.6221719 -0.0465215 0)
(-0.6176435 -0.0522114 0)
(-0.5966289 -0.05643576 0)
(-0.5676334 -0.0649648 0)
(-0.5569559 -0.07536544 0)
(-0.5544108 -0.08674773 0)
(-0.5397671 -0.09603881 0)
(-0.4970663 -0.1052011 0)
(-0.4624193 -0.1205129 0)
(-0.4554521 -0.1371721 0)
(-0.4369434 -0.1585302 0)
(-0.3874968 -0.1810269 0)
(-0.3490925 -0.1920974 0)
(-0.3324013 -0.1992911 0)
(-0.279583 -0.2404107 0)
(-0.2418523 -0.2730532 0)
(-0.1727698 -0.3428093 0)
(-0.1077241 -0.3706616 0)
(-0.05453566 -0.3853316 0)
(-0.02926907 0.3577773 0)
(-0.05764862 0.3456507 0)
(-0.1041858 0.3400708 0)
(-0.1378362 0.3307102 0)
(-0.172944 0.3172647 0)
(-0.2029091 0.3007772 0)
(-0.2313339 0.2805324 0)
(-0.2625483 0.2601564 0)
(-0.2880339 0.2525094 0)
(-0.3160534 0.2307078 0)
(-0.3361066 0.2134077 0)
(-0.3574842 0.1959379 0)
(-0.3771221 0.1801633 0)
(-0.3949945 0.1665448 0)
(-0.4104229 0.1532186 0)
(-0.4247282 0.1396403 0)
(-0.4387363 0.1270566 0)
(-0.4521077 0.1162635 0)
(-0.4640396 0.1064966 0)
(-0.4745284 0.09666053 0)
(-0.4842246 0.08693877 0)
(-0.4934167 0.07799087 0)
(-0.5017472 0.07001474 0)
(-0.5089086 0.06241236 0)
(-0.515088 0.05471979 0)
(-0.5206402 0.04717383 0)
(-0.5255519 0.04022892 0)
(-0.5295148 0.0337622 0)
(-0.5324506 0.0271623 0)
(-0.5346143 0.02014827 0)
(-0.5363214 0.01275713 0)
(-0.5372213 0.007993895 0)
(-0.537228 0.001742512 0)
(-0.5355909 -0.006566937 0)
(-0.5334817 -0.01414421 0)
(-0.5308092 -0.02197925 0)
(-0.5274123 -0.0298146 0)
(-0.5228534 -0.03729711 0)
(-0.5167236 -0.04503003 0)
(-0.5093045 -0.05421897 0)
(-0.5013483 -0.06502904 0)
(-0.4927886 -0.07616234 0)
(-0.4828608 -0.08628525 0)
(-0.4708076 -0.09729827 0)
(-0.4568901 -0.1107731 0)
(-0.4420786 -0.1262122 0)
(-0.4259306 -0.1421041 0)
(-0.408523 -0.1567119 0)
(-0.3883774 -0.1741096 0)
(-0.3667015 -0.1942783 0)
(-0.342915 -0.2141958 0)
(-0.3186648 -0.2289917 0)
(-0.2930841 -0.2420725 0)
(-0.2678718 -0.265009 0)
(-0.2249949 -0.3192773 0)
(-0.1906375 -0.3606233 0)
(-0.1493265 -0.4035171 0)
(-0.1141855 -0.4542378 0)
(-0.06956233 -0.5178986 0)
(-0.02723679 -0.5469694 0)
(-0.02027436 0.4623268 0)
(-0.04444137 0.4406942 0)
(-0.07572667 0.4293958 0)
(-0.1011369 0.4133379 0)
(-0.1271184 0.3942762 0)
(-0.1505212 0.3739929 0)
(-0.1730098 0.3534476 0)
(-0.1957409 0.3330696 0)
(-0.213467 0.3165497 0)
(-0.2318543 0.294618 0)
(-0.2502993 0.2706925 0)
(-0.2704307 0.2472257 0)
(-0.2855737 0.2294724 0)
(-0.3025521 0.2095182 0)
(-0.316914 0.1931659 0)
(-0.3304419 0.1779474 0)
(-0.3429615 0.1636178 0)
(-0.3544955 0.1502261 0)
(-0.3652982 0.1374177 0)
(-0.3751895 0.1251349 0)
(-0.3841 0.1135051 0)
(-0.3922291 0.102405 0)
(-0.3994068 0.09189917 0)
(-0.405693 0.08182586 0)
(-0.4111458 0.07206287 0)
(-0.4158636 0.06255431 0)
(-0.4198459 0.05331088 0)
(-0.4230233 0.04432514 0)
(-0.4252786 0.03557509 0)
(-0.4270934 0.02693973 0)
(-0.4284792 0.01781613 0)
(-0.4288185 0.01053216 0)
(-0.4281207 3.319983e-05 0)
(-0.4266382 -0.009639157 0)
(-0.4246441 -0.0193636 0)
(-0.4219084 -0.02935023 0)
(-0.4184332 -0.03978533 0)
(-0.4140604 -0.05061414 0)
(-0.4086521 -0.06195147 0)
(-0.4022089 -0.07397888 0)
(-0.3949278 -0.08679104 0)
(-0.3866885 -0.1004196 0)
(-0.3778749 -0.1146109 0)
(-0.3678847 -0.1300124 0)
(-0.3563609 -0.1467497 0)
(-0.3441782 -0.1648116 0)
(-0.3294061 -0.1843724 0)
(-0.316404 -0.2006254 0)
(-0.2988534 -0.2259898 0)
(-0.2810788 -0.2503876 0)
(-0.2633913 -0.2720216 0)
(-0.2447116 -0.2972244 0)
(-0.2170481 -0.3365737 0)
(-0.1879315 -0.3770923 0)
(-0.1595212 -0.4153923 0)
(-0.1330489 -0.4537816 0)
(-0.1052378 -0.4985966 0)
(-0.07664089 -0.5545154 0)
(-0.04582452 -0.6185873 0)
(-0.01855083 -0.6551821 0)
(-0.0149554 0.5415091 0)
(-0.03546213 0.5152007 0)
(-0.05919108 0.4988827 0)
(-0.07962062 0.4791226 0)
(-0.1001842 0.4564675 0)
(-0.1191837 0.4321392 0)
(-0.1373867 0.4068667 0)
(-0.1538003 0.3806133 0)
(-0.1703669 0.3538215 0)
(-0.1831147 0.3324734 0)
(-0.1978047 0.3128876 0)
(-0.2092234 0.2955641 0)
(-0.2239157 0.2723903 0)
(-0.2358874 0.2507941 0)
(-0.2478212 0.2310403 0)
(-0.2586289 0.2123552 0)
(-0.268753 0.1943492 0)
(-0.2777273 0.1791194 0)
(-0.2862367 0.1648542 0)
(-0.2945019 0.1490925 0)
(-0.3007925 0.136046 0)
(-0.3075006 0.1215463 0)
(-0.3130883 0.1084479 0)
(-0.3180327 0.09600069 0)
(-0.3222767 0.08401499 0)
(-0.3258714 0.07238119 0)
(-0.3288334 0.06102416 0)
(-0.3311398 0.04987029 0)
(-0.332879 0.03883531 0)
(-0.3338609 0.03009811 0)
(-0.3344017 0.01829396 0)
(-0.3340117 0.007076771 0)
(-0.3330633 -0.004133485 0)
(-0.3316649 -0.01557535 0)
(-0.3295395 -0.02725148 0)
(-0.3270222 -0.03920446 0)
(-0.3239832 -0.0517367 0)
(-0.3201023 -0.06483978 0)
(-0.3155107 -0.07856354 0)
(-0.3101729 -0.09305046 0)
(-0.3042765 -0.1084326 0)
(-0.297039 -0.124809 0)
(-0.2902107 -0.138925 0)
(-0.2812245 -0.1586898 0)
(-0.2720728 -0.1788083 0)
(-0.261776 -0.1999051 0)
(-0.2509122 -0.2222165 0)
(-0.2381681 -0.2462918 0)
(-0.2241599 -0.2702909 0)
(-0.2120069 -0.2930254 0)
(-0.195654 -0.3231458 0)
(-0.1759272 -0.3608499 0)
(-0.1572376 -0.3977136 0)
(-0.1385031 -0.4342944 0)
(-0.1193852 -0.4736577 0)
(-0.09921786 -0.5172751 0)
(-0.07769732 -0.5660821 0)
(-0.05608512 -0.6215561 0)
(-0.03370852 -0.6875152 0)
(-0.01244785 -0.7299111 0)
(-0.01069573 0.6059199 0)
(-0.02633248 0.5747823 0)
(-0.04344308 0.5538343 0)
(-0.05840445 0.5311288 0)
(-0.07329979 0.5061636 0)
(-0.08719501 0.4797334 0)
(-0.1006058 0.4525772 0)
(-0.1133287 0.4251916 0)
(-0.1260405 0.3979448 0)
(-0.1380284 0.3719621 0)
(-0.1490583 0.3473925 0)
(-0.1586091 0.3254405 0)
(-0.1670225 0.3043938 0)
(-0.1779446 0.2805113 0)
(-0.1867653 0.2584275 0)
(-0.1954869 0.2381139 0)
(-0.2035429 0.2189477 0)
(-0.2111165 0.2008428 0)
(-0.2177334 0.1838922 0)
(-0.2236472 0.1675486 0)
(-0.2290767 0.1517634 0)
(-0.2339756 0.1365625 0)
(-0.2383926 0.1219331 0)
(-0.2422555 0.1078553 0)
(-0.2455706 0.09424702 0)
(-0.2483513 0.08103369 0)
(-0.2506113 0.06814604 0)
(-0.2523552 0.05552065 0)
(-0.2536778 0.04309008 0)
(-0.2542401 0.03082461 0)
(-0.2541699 0.01842813 0)
(-0.2537449 0.005947544 0)
(-0.2530296 -0.006752863 0)
(-0.2520082 -0.01982605 0)
(-0.2502536 -0.03328698 0)
(-0.2482829 -0.04502725 0)
(-0.2455345 -0.05992729 0)
(-0.2424295 -0.07495744 0)
(-0.2387734 -0.09044264 0)
(-0.2346093 -0.1066 0)
(-0.2299244 -0.1235829 0)
(-0.2248027 -0.1414445 0)
(-0.2187334 -0.1605482 0)
(-0.2118455 -0.1811279 0)
(-0.204629 -0.2029245 0)
(-0.1969217 -0.2261502 0)
(-0.1879797 -0.2509078 0)
(-0.1788802 -0.2758217 0)
(-0.1698337 -0.3024706 0)
(-0.156667 -0.3355833 0)
(-0.1435292 -0.3707198 0)
(-0.1297673 -0.4068304 0)
(-0.1160678 -0.4444038 0)
(-0.1016498 -0.4843684 0)
(-0.08641229 -0.5269464 0)
(-0.07061493 -0.5725841 0)
(-0.05454875 -0.6224214 0)
(-0.03871635 -0.6784837 0)
(-0.02282396 -0.7428236 0)
(-0.008291267 -0.7851911 0)
(-0.007767828 0.6502872 0)
(-0.01976866 0.6159063 0)
(-0.0321551 0.5914746 0)
(-0.04303474 0.5664929 0)
(-0.05371469 0.5396025 0)
(-0.06372957 0.5113987 0)
(-0.07343442 0.4826508 0)
(-0.08277876 0.4539816 0)
(-0.09193222 0.4258782 0)
(-0.1008622 0.3988711 0)
(-0.1091473 0.3729128 0)
(-0.1177226 0.3474892 0)
(-0.124989 0.3249615 0)
(-0.1299653 0.3045755 0)
(-0.1380204 0.281665 0)
(-0.1442605 0.2595829 0)
(-0.1504978 0.2387901 0)
(-0.1561503 0.2190067 0)
(-0.1612931 0.2002036 0)
(-0.1659259 0.1821377 0)
(-0.170103 0.1647909 0)
(-0.1738407 0.1480846 0)
(-0.1771547 0.1319961 0)
(-0.180044 0.1164683 0)
(-0.1825119 0.1014332 0)
(-0.1845629 0.08681861 0)
(-0.1862013 0.07255039 0)
(-0.1874274 0.05855383 0)
(-0.1882477 0.04475147 0)
(-0.1886418 0.03109781 0)
(-0.1885819 0.01739204 0)
(-0.1882906 0.003648611 0)
(-0.1878366 -0.008699391 0)
(-0.1869288 -0.02323701 0)
(-0.1857746 -0.03781381 0)
(-0.1840258 -0.05265144 0)
(-0.1817666 -0.06806701 0)
(-0.1793324 -0.08403741 0)
(-0.1765344 -0.1006788 0)
(-0.1733696 -0.1181091 0)
(-0.1698111 -0.1364567 0)
(-0.165835 -0.1558473 0)
(-0.1614016 -0.1763747 0)
(-0.156529 -0.1983286 0)
(-0.151213 -0.2216947 0)
(-0.1454153 -0.2466376 0)
(-0.1387435 -0.2727339 0)
(-0.1325588 -0.3002797 0)
(-0.123319 -0.3325759 0)
(-0.1146173 -0.3663544 0)
(-0.1052812 -0.4016456 0)
(-0.09558743 -0.4389483 0)
(-0.08532098 -0.478147 0)
(-0.07451712 -0.519299 0)
(-0.06330691 -0.5626257 0)
(-0.05179793 -0.6085843 0)
(-0.04011156 -0.6580675 0)
(-0.02847818 -0.7128653 0)
(-0.01701094 -0.7757092 0)
(-0.006002415 -0.8195209 0)
(-0.005508683 0.6862967 0)
(-0.01406131 0.6482054 0)
(-0.02262435 0.6201487 0)
(-0.03003965 0.5929309 0)
(-0.0373617 0.5646059 0)
(-0.04432435 0.5355196 0)
(-0.0511659 0.5062497 0)
(-0.05784504 0.4772088 0)
(-0.06439804 0.4486991 0)
(-0.0707876 0.4209481 0)
(-0.07690175 0.3940348 0)
(-0.08286505 0.3678439 0)
(-0.08812941 0.3425246 0)
(-0.09402359 0.3186575 0)
(-0.09693225 0.2973336 0)
(-0.1024366 0.2747665 0)
(-0.106592 0.2526884 0)
(-0.1108494 0.2317063 0)
(-0.1146634 0.2117756 0)
(-0.1181319 0.1926668 0)
(-0.1212607 0.1743036 0)
(-0.1240653 0.1566179 0)
(-0.1265553 0.1395546 0)
(-0.1287352 0.1230526 0)
(-0.1306087 0.1070438 0)
(-0.1321791 0.09145565 0)
(-0.1334501 0.0762113 0)
(-0.1344253 0.06123121 0)
(-0.1351091 0.04643583 0)
(-0.1355089 0.03176083 0)
(-0.1355807 0.01715434 0)
(-0.1355701 0.003902071 0)
(-0.1352116 -0.01086006 0)
(-0.1344084 -0.02590022 0)
(-0.1334713 -0.04127163 0)
(-0.1322519 -0.05698496 0)
(-0.130773 -0.07323076 0)
(-0.1290506 -0.09005272 0)
(-0.1270662 -0.1075737 0)
(-0.1248142 -0.1259167 0)
(-0.1222843 -0.1452154 0)
(-0.1194672 -0.1656104 0)
(-0.1163407 -0.1872538 0)
(-0.1128867 -0.2103043 0)
(-0.1092869 -0.2349863 0)
(-0.1046065 -0.2612185 0)
(-0.1010709 -0.2885627 0)
(-0.09502489 -0.3196809 0)
(-0.08951756 -0.35277 0)
(-0.08343004 -0.3876902 0)
(-0.07690123 -0.4246474 0)
(-0.06982042 -0.4635667 0)
(-0.06221937 -0.5043372 0)
(-0.05417179 -0.5469216 0)
(-0.04580231 -0.5914843 0)
(-0.03724334 -0.6384776 0)
(-0.02861423 -0.6888026 0)
(-0.02011912 -0.7441103 0)
(-0.01183311 -0.8065554 0)
(-0.004141237 -0.8497644 0)
(-0.003586994 0.7100519 0)
(-0.009697085 0.6690862 0)
(-0.01514447 0.6384725 0)
(-0.01991135 0.6100801 0)
(-0.02450016 0.5811629 0)
(-0.02884677 0.5516562 0)
(-0.03311361 0.5219115 0)
(-0.03734807 0.4923468 0)
(-0.04157481 0.4633081 0)
(-0.04575358 0.4349907 0)
(-0.04983353 0.4074963 0)
(-0.05381322 0.3808639 0)
(-0.05768059 0.3551987 0)
(-0.06114298 0.3303712 0)
(-0.06516064 0.3067911 0)
(-0.06710437 0.2852932 0)
(-0.07029001 0.2636499 0)
(-0.07352958 0.2419875 0)
(-0.07634343 0.2210338 0)
(-0.07909201 0.2010078 0)
(-0.08156282 0.1817627 0)
(-0.08377851 0.1632395 0)
(-0.08574462 0.1453687 0)
(-0.08747763 0.1280822 0)
(-0.08898768 0.1113086 0)
(-0.0902795 0.09497565 0)
(-0.09135809 0.07900995 0)
(-0.09222935 0.06333758 0)
(-0.09290087 0.04788411 0)
(-0.09337909 0.03257665 0)
(-0.09368626 0.01734628 0)
(-0.0937336 0.003077487 0)
(-0.09350182 -0.01234211 0)
(-0.09309887 -0.02799982 0)
(-0.09252743 -0.04395289 0)
(-0.09177586 -0.06029432 0)
(-0.09084713 -0.0771295 0)
(-0.08974093 -0.09456298 0)
(-0.08845057 -0.1127129 0)
(-0.08697172 -0.1317037 0)
(-0.08529902 -0.1516676 0)
(-0.08342956 -0.1727446 0)
(-0.08133539 -0.1950822 0)
(-0.07919073 -0.2188432 0)
(-0.07629077 -0.24418 0)
(-0.07430126 -0.2708935 0)
(-0.07062068 -0.3005508 0)
(-0.06728697 -0.3323843 0)
(-0.06354596 -0.3662505 0)
(-0.05949028 -0.4023538 0)
(-0.0549814 -0.4406589 0)
(-0.04994236 -0.480974 0)
(-0.04440796 -0.522955 0)
(-0.03850758 -0.5663223 0)
(-0.03243831 -0.6111631 0)
(-0.02630145 -0.6579228 0)
(-0.0201901 -0.7074742 0)
(-0.01419026 -0.7614738 0)
(-0.00843485 -0.8222213 0)
(-0.002922888 -0.8657091 0)
(-0.002620835 0.7278862 0)
(-0.006395339 0.683831 0)
(-0.00999633 0.6503232 0)
(-0.01264543 0.6202613 0)
(-0.01516502 0.5902693 0)
(-0.01755411 0.5601166 0)
(-0.01989815 0.5303933 0)
(-0.02231221 0.5012596 0)
(-0.02473812 0.4725828 0)
(-0.02718765 0.4444664 0)
(-0.02962799 0.4169803 0)
(-0.03206231 0.3901903 0)
(-0.03449722 0.3641828 0)
(-0.03691975 0.3390187 0)
(-0.0391762 0.3146246 0)
(-0.04152903 0.2913271 0)
(-0.04340377 0.2696182 0)
(-0.04448794 0.2487643 0)
(-0.04668435 0.2278877 0)
(-0.04832629 0.2074252 0)
(-0.05011165 0.1876046 0)
(-0.05179649 0.168462 0)
(-0.05336662 0.1500193 0)
(-0.05478603 0.1322262 0)
(-0.05604906 0.1149693 0)
(-0.05715899 0.09815913 0)
(-0.05811996 0.08172116 0)
(-0.05893674 0.06558348 0)
(-0.05961501 0.04967323 0)
(-0.06015608 0.03391562 0)
(-0.0605906 0.01823442 0)
(-0.06082025 0.003203122 0)
(-0.06085806 -0.01265933 0)
(-0.06079559 -0.02872503 0)
(-0.06061411 -0.04508542 0)
(-0.06031414 -0.06183933 0)
(-0.05989443 -0.07909174 0)
(-0.05935279 -0.09695234 0)
(-0.0586864 -0.115539 0)
(-0.05789237 -0.1349766 0)
(-0.05696738 -0.1553975 0)
(-0.05590641 -0.1769417 0)
(-0.05471101 -0.1997538 0)
(-0.0533305 -0.2240001 0)
(-0.05193247 -0.249729 0)
(-0.05008853 -0.2776874 0)
(-0.0482608 -0.3079057 0)
(-0.04625016 -0.3402669 0)
(-0.04408108 -0.3749819 0)
(-0.04158437 -0.412155 0)
(-0.03861513 -0.4517975 0)
(-0.03506733 -0.4936482 0)
(-0.03105407 -0.5368326 0)
(-0.02679774 -0.5808566 0)
(-0.02246276 -0.626105 0)
(-0.01816294 -0.6732045 0)
(-0.01389122 -0.7231337 0)
(-0.009708177 -0.7775211 0)
(-0.00569672 -0.8384032 0)
(-0.001933202 -0.881592 0)
(-0.001097978 0.7396944 0)
(-0.003690445 0.6926872 0)
(-0.004365269 0.6571359 0)
(-0.005236684 0.6259376 0)
(-0.006041017 0.5958798 0)
(-0.006747389 0.566089 0)
(-0.008277927 0.5362699 0)
(-0.009230681 0.5066887 0)
(-0.01051559 0.4776329 0)
(-0.01180525 0.4492231 0)
(-0.01318134 0.4215627 0)
(-0.01459302 0.3948373 0)
(-0.01603115 0.3690394 0)
(-0.01747731 0.3440231 0)
(-0.01892707 0.3197598 0)
(-0.02040859 0.2961966 0)
(-0.02166385 0.273413 0)
(-0.02308344 0.2517861 0)
(-0.02369578 0.2313069 0)
(-0.02483834 0.2112906 0)
(-0.02586851 0.1917856 0)
(-0.02695588 0.1727565 0)
(-0.02806236 0.1541302 0)
(-0.0292781 0.1359201 0)
(-0.0303399 0.1182212 0)
(-0.03133534 0.1009862 0)
(-0.03225167 0.08415284 0)
(-0.03308615 0.06764984 0)
(-0.03383697 0.05140123 0)
(-0.03449634 0.0353325 0)
(-0.03508604 0.01935442 0)
(-0.03552243 0.003759028 0)
(-0.03582375 -0.01236663 0)
(-0.03606339 -0.02869722 0)
(-0.03622287 -0.0453252 0)
(-0.03630488 -0.06235061 0)
(-0.03630966 -0.07987845 0)
(-0.03623732 -0.09802007 0)
(-0.03608766 -0.1168944 0)
(-0.03586001 -0.1366287 0)
(-0.03555307 -0.1573588 0)
(-0.03516168 -0.1792301 0)
(-0.03469687 -0.2023964 0)
(-0.03403175 -0.2270161 0)
(-0.03354299 -0.2532698 0)
(-0.03244457 -0.2815028 0)
(-0.0315933 -0.3117474 0)
(-0.03076007 -0.3443351 0)
(-0.02956575 -0.3796468 0)
(-0.02806886 -0.4180045 0)
(-0.02608854 -0.4593197 0)
(-0.02367497 -0.5026106 0)
(-0.02089923 -0.5466618 0)
(-0.01796937 -0.590886 0)
(-0.01498189 -0.6358586 0)
(-0.01206821 -0.6825667 0)
(-0.009213511 -0.7318782 0)
(-0.006435537 -0.7853491 0)
(-0.003809897 -0.8449979 0)
(-0.001323375 -0.8880582 0)
(-0.0007614821 0.7461905 0)
(-0.001233403 0.6957226 0)
(-0.001199656 0.6571125 0)
(-0.0006046743 0.6257244 0)
(0.0001691837 0.595672 0)
(0.0007806102 0.5660468 0)
(0.001738588 0.536868 0)
(0.00190495 0.5081042 0)
(0.0019693 0.4799357 0)
(0.001670353 0.4523665 0)
(0.00124891 0.4253454 0)
(0.0002824286 0.3987612 0)
(-0.0005463637 0.3727831 0)
(-0.001621616 0.3476352 0)
(-0.00273806 0.3233333 0)
(-0.003883382 0.2997843 0)
(-0.005008364 0.2769727 0)
(-0.006152928 0.2548462 0)
(-0.007196736 0.2336077 0)
(-0.007971565 0.2133292 0)
(-0.008661037 0.1937479 0)
(-0.009337703 0.174781 0)
(-0.009901502 0.1563568 0)
(-0.01047635 0.1383696 0)
(-0.01115908 0.1207714 0)
(-0.01187858 0.1035615 0)
(-0.01262198 0.08669423 0)
(-0.01337656 0.070106 0)
(-0.01411857 0.05371967 0)
(-0.01486412 0.03745121 0)
(-0.01556366 0.0212498 0)
(-0.01618531 0.005226789 0)
(-0.01671425 -0.01108482 0)
(-0.01722508 -0.02759864 0)
(-0.01768492 -0.04440967 0)
(-0.01810195 -0.06161022 0)
(-0.018475 -0.07930785 0)
(-0.01880546 -0.09761393 0)
(-0.01909546 -0.116648 0)
(-0.01934739 -0.1365391 0)
(-0.01956378 -0.157427 0)
(-0.01974636 -0.1794651 0)
(-0.01989586 -0.2028228 0)
(-0.02001466 -0.2276808 0)
(-0.0200337 -0.2542928 0)
(-0.02013389 -0.2827415 0)
(-0.02008759 -0.3131762 0)
(-0.0195466 -0.3462638 0)
(-0.01902877 -0.3825608 0)
(-0.01815242 -0.4220893 0)
(-0.01691069 -0.4643458 0)
(-0.01546723 -0.508378 0)
(-0.01376429 -0.5531045 0)
(-0.01187817 -0.5977062 0)
(-0.009905795 -0.6427659 0)
(-0.007947134 -0.6895775 0)
(-0.006050959 -0.7391081 0)
(-0.004197207 -0.7929249 0)
(-0.002441397 -0.8529463 0)
(-0.000803135 -0.8961582 0)
(-0.0003369319 0.7499313 0)
(-0.0002079125 0.6956398 0)
(0.0006511577 0.65589 0)
(0.00209351 0.6230398 0)
(0.003600237 0.5925676 0)
(0.004945335 0.5631938 0)
(0.006256355 0.5345003 0)
(0.007373957 0.5063615 0)
(0.008406089 0.478758 0)
(0.009217876 0.451705 0)
(0.009957419 0.4252223 0)
(0.01047938 0.3996479 0)
(0.01052597 0.3747418 0)
(0.01033472 0.3503396 0)
(0.009763937 0.3262453 0)
(0.009128332 0.3027261 0)
(0.008381012 0.2799663 0)
(0.007553915 0.2579004 0)
(0.006674027 0.2364636 0)
(0.005794972 0.2157129 0)
(0.004958042 0.1957529 0)
(0.004211784 0.1765011 0)
(0.00343012 0.1578839 0)
(0.002792023 0.1398942 0)
(0.002144567 0.1223789 0)
(0.001507426 0.1052555 0)
(0.0008790169 0.08846168 0)
(0.0002507381 0.07192987 0)
(-0.0003681394 0.05559729 0)
(-0.000987675 0.03937514 0)
(-0.00165201 0.0231717 0)
(-0.002289456 0.006958291 0)
(-0.002916824 -0.009409388 0)
(-0.003530369 -0.02597329 0)
(-0.004171324 -0.04285526 0)
(-0.004784786 -0.0601365 0)
(-0.005390967 -0.07791508 0)
(-0.005983575 -0.09629851 0)
(-0.006564404 -0.1154029 0)
(-0.007135512 -0.1353545 0)
(-0.007700264 -0.1562911 0)
(-0.008262827 -0.1783643 0)
(-0.008827329 -0.2017417 0)
(-0.009408362 -0.226616 0)
(-0.01000182 -0.253193 0)
(-0.01058168 -0.2818407 0)
(-0.01094058 -0.3130845 0)
(-0.01123849 -0.3471219 0)
(-0.0109611 -0.3840952 0)
(-0.01051957 -0.4241818 0)
(-0.009994338 -0.4669419 0)
(-0.009238986 -0.5115895 0)
(-0.008268633 -0.5569572 0)
(-0.00712407 -0.6020035 0)
(-0.005888855 -0.6471157 0)
(-0.004645678 -0.6936526 0)
(-0.003480976 -0.7427817 0)
(-0.002363777 -0.7959807 0)
(-0.001337937 -0.8551234 0)
(-0.0004651497 -0.8979235 0)
(-3.251678e-05 0.7521266 0)
(0.0005570689 0.6943877 0)
(0.002303348 0.6520088 0)
(0.004396981 0.6184009 0)
(0.006588112 0.5879193 0)
(0.008700172 0.5587039 0)
(0.01068853 0.5302168 0)
(0.01249419 0.5023413 0)
(0.01408439 0.4750723 0)
(0.01554065 0.4484919 0)
(0.01651933 0.4228244 0)
(0.01753663 0.3979139 0)
(0.01816031 0.3737215 0)
(0.01873722 0.3499721 0)
(0.0190687 0.3268028 0)
(0.01892394 0.3040666 0)
(0.01867786 0.2817341 0)
(0.0182054 0.2599834 0)
(0.01760378 0.2388447 0)
(0.01689045 0.2183151 0)
(0.01611637 0.1983798 0)
(0.01532756 0.1790176 0)
(0.0145575 0.1602292 0)
(0.01382769 0.1420625 0)
(0.01313563 0.1244381 0)
(0.0124613 0.1072131 0)
(0.0117767 0.09033043 0)
(0.01107545 0.07373585 0)
(0.01033331 0.05736373 0)
(0.009597237 0.04115275 0)
(0.008844851 0.02500252 0)
(0.008082833 0.008812527 0)
(0.00731995 -0.007521074 0)
(0.006518625 -0.02400369 0)
(0.00571186 -0.04086638 0)
(0.004893405 -0.05813699 0)
(0.004071697 -0.07591065 0)
(0.003243275 -0.09429102 0)
(0.002406992 -0.1133902 0)
(0.001560008 -0.1333303 0)
(0.000698089 -0.1542451 0)
(-0.0001819004 -0.1762828 0)
(-0.001098684 -0.199608 0)
(-0.002042905 -0.224391 0)
(-0.002975782 -0.2509747 0)
(-0.003821592 -0.2799055 0)
(-0.004542418 -0.3116253 0)
(-0.005042625 -0.346414 0)
(-0.005439722 -0.3842568 0)
(-0.005544982 -0.4249396 0)
(-0.005319867 -0.4681709 0)
(-0.005024174 -0.5132513 0)
(-0.004605996 -0.5590269 0)
(-0.004018893 -0.6044644 0)
(-0.003324795 -0.6497621 0)
(-0.002640787 -0.6963057 0)
(-0.002013566 -0.7455393 0)
(-0.001402975 -0.7989748 0)
(-0.0008454949 -0.8583493 0)
(-0.0002991951 -0.9013878 0)
(0.0002060403 0.7526979 0)
(0.001266833 0.690961 0)
(0.003533444 0.6463079 0)
(0.006144137 0.6118469 0)
(0.008893123 0.5812281 0)
(0.01157304 0.5522957 0)
(0.01409279 0.5243358 0)
(0.01639209 0.4971242 0)
(0.01843439 0.4706015 0)
(0.02021414 0.4447792 0)
(0.02172509 0.4196212 0)
(0.02300364 0.3951605 0)
(0.02407118 0.3714543 0)
(0.02478071 0.3485138 0)
(0.02527988 0.3260652 0)
(0.02578676 0.3039716 0)
(0.02573433 0.2823443 0)
(0.02562237 0.261125 0)
(0.02525329 0.2403921 0)
(0.02473136 0.2201518 0)
(0.02409426 0.2003985 0)
(0.023383 0.1811244 0)
(0.02263181 0.1623397 0)
(0.02187723 0.1440763 0)
(0.02113839 0.1263525 0)
(0.02041575 0.1091635 0)
(0.01968903 0.09244877 0)
(0.01893781 0.07603339 0)
(0.01814135 0.05977258 0)
(0.0172996 0.04360869 0)
(0.0164194 0.02747561 0)
(0.01551573 0.01129748 0)
(0.01459358 -0.005012929 0)
(0.01364902 -0.02139948 0)
(0.0126644 -0.03825306 0)
(0.01167751 -0.05550524 0)
(0.0106758 -0.07325493 0)
(0.009661738 -0.09160408 0)
(0.008632031 -0.1106619 0)
(0.007582501 -0.130548 0)
(0.006505039 -0.1513946 0)
(0.005389802 -0.173345 0)
(0.004244805 -0.1965395 0)
(0.003109198 -0.2213318 0)
(0.00203587 -0.2482093 0)
(0.001077538 -0.277526 0)
(0.0002500679 -0.3096084 0)
(-0.0004482904 -0.3447197 0)
(-0.001034185 -0.3830211 0)
(-0.001448614 -0.4243977 0)
(-0.001807806 -0.4682689 0)
(-0.001904735 -0.513799 0)
(-0.00173305 -0.5599936 0)
(-0.001467983 -0.6058033 0)
(-0.001141517 -0.6511418 0)
(-0.0008133572 -0.6974861 0)
(-0.0005425995 -0.7464734 0)
(-0.0003146641 -0.7995842 0)
(-0.0001443011 -0.8586426 0)
(-5.600941e-05 -0.9016796 0)
(0.00021582 0.7523564 0)
(0.001622037 0.6864226 0)
(0.00425228 0.6394228 0)
(0.007197117 0.6040661 0)
(0.01031675 0.5732866 0)
(0.01336737 0.5446027 0)
(0.01625948 0.5171357 0)
(0.01892755 0.4905607 0)
(0.02133687 0.4647588 0)
(0.02347164 0.4396944 0)
(0.02532267 0.4153526 0)
(0.02688717 0.3917377 0)
(0.02817126 0.3688633 0)
(0.02918008 0.3465231 0)
(0.02998862 0.3245786 0)
(0.03038267 0.3031679 0)
(0.03078758 0.2822115 0)
(0.03071228 0.2617084 0)
(0.030511 0.2415691 0)
(0.03007432 0.2217889 0)
(0.02948203 0.2023615 0)
(0.02877544 0.1832932 0)
(0.0279981 0.16462 0)
(0.02718604 0.1463949 0)
(0.02636399 0.1286509 0)
(0.02554513 0.1113902 0)
(0.02473534 0.09458647 0)
(0.02392162 0.07817722 0)
(0.0230873 0.06206573 0)
(0.02221082 0.04608878 0)
(0.02128667 0.03009788 0)
(0.02031747 0.01401934 0)
(0.0193073 -0.002215518 0)
(0.0182566 -0.01849556 0)
(0.01716899 -0.03528196 0)
(0.01605981 -0.05248545 0)
(0.01493258 -0.07019261 0)
(0.01378768 -0.08849627 0)
(0.01261995 -0.1074978 0)
(0.01142255 -0.1273091 0)
(0.01019209 -0.1480467 0)
(0.008933953 -0.1698859 0)
(0.007680365 -0.193128 0)
(0.006462115 -0.2181275 0)
(0.005320346 -0.2452479 0)
(0.00427031 -0.2748685 0)
(0.003332844 -0.3073119 0)
(0.002518095 -0.3427783 0)
(0.001818266 -0.3813186 0)
(0.001212496 -0.4228476 0)
(0.0006900078 -0.4670809 0)
(0.0003074303 -0.5132616 0)
(-1.378046e-05 -0.5600492 0)
(-0.000102124 -0.6061447 0)
(-0.00013092 -0.6515775 0)
(-0.0001127733 -0.6979358 0)
(-0.0001045453 -0.7469608 0)
(-8.33784e-05 -0.8001288 0)
(-6.610437e-05 -0.8592361 0)
(-5.528293e-05 -0.9022574 0)
(0.0002489518 0.7514042 0)
(0.001827222 0.6812296 0)
(0.004629797 0.6318024 0)
(0.007779091 0.5954958 0)
(0.01111711 0.5645323 0)
(0.0143942 0.5361026 0)
(0.01751524 0.5091491 0)
(0.02040936 0.4832402 0)
(0.02303946 0.4581891 0)
(0.02538586 0.4339109 0)
(0.02744175 0.4103617 0)
(0.02920746 0.3875184 0)
(0.03070462 0.365365 0)
(0.03193002 0.3438373 0)
(0.03286796 0.3227706 0)
(0.03352515 0.3020685 0)
(0.03382798 0.2818114 0)
(0.0339737 0.2619781 0)
(0.0338035 0.2424776 0)
(0.03342414 0.223251 0)
(0.03284769 0.2042548 0)
(0.03212621 0.1854827 0)
(0.03130985 0.166979 0)
(0.03044311 0.1488252 0)
(0.02955702 0.1311047 0)
(0.02866561 0.1138665 0)
(0.0277699 0.09710037 0)
(0.02686332 0.08073224 0)
(0.02594131 0.06465031 0)
(0.0249946 0.04873009 0)
(0.0240176 0.03285245 0)
(0.02301039 0.01691892 0)
(0.02195847 0.0008226259 0)
(0.02086606 -0.01532892 0)
(0.0197143 -0.03203286 0)
(0.01853429 -0.04917292 0)
(0.01733523 -0.06682411 0)
(0.01611745 -0.08506388 0)
(0.01487674 -0.1039765 0)
(0.01360894 -0.1236849 0)
(0.01231786 -0.1443666 0)
(0.01101997 -0.1662364 0)
(0.009738188 -0.1895662 0)
(0.008498086 -0.2147052 0)
(0.00732231 -0.2420425 0)
(0.006234132 -0.2719429 0)
(0.00524997 -0.3047007 0)
(0.004378262 -0.3405021 0)
(0.003622517 -0.3793933 0)
(0.002982641 -0.4212527 0)
(0.002451075 -0.4656972 0)
(0.002010359 -0.511988 0)
(0.001659149 -0.5590154 0)
(0.001411172 -0.6055254 0)
(0.001229146 -0.6511954 0)
(0.001061827 -0.6975735 0)
(0.0008621651 -0.746596 0)
(0.0006486712 -0.7997392 0)
(0.0004033518 -0.8588199 0)
(0.0001203406 -0.9019544 0)
(0.0002067661 0.7503952 0)
(0.001854521 0.6756128 0)
(0.00471483 0.6237753 0)
(0.007957377 0.5864904 0)
(0.01139844 0.5553171 0)
(0.014794 0.5271234 0)
(0.01804076 0.5006759 0)
(0.02106431 0.475436 0)
(0.02382371 0.4511481 0)
(0.02629562 0.4276793 0)
(0.02847016 0.404952 0)
(0.03034663 0.3829131 0)
(0.03193479 0.3615198 0)
(0.03325201 0.3407202 0)
(0.03428997 0.3204819 0)
(0.03504393 0.3006889 0)
(0.03549043 0.2812269 0)
(0.03564957 0.2621173 0)
(0.0355284 0.2433206 0)
(0.0351602 0.2247195 0)
(0.03457589 0.2062258 0)
(0.03382346 0.1878123 0)
(0.03295631 0.1695268 0)
(0.03202426 0.1514757 0)
(0.03106439 0.1337813 0)
(0.03009761 0.1165348 0)
(0.0291302 0.09976476 0)
(0.02815766 0.08342618 0)
(0.02717041 0.06741141 0)
(0.02615929 0.05157299 0)
(0.02511926 0.03576166 0)
(0.02405467 0.01986867 0)
(0.02295468 0.003872399 0)
(0.02185992 -0.01209926 0)
(0.02070685 -0.02866 0)
(0.01948668 -0.045733 0)
(0.01825347 -0.06333688 0)
(0.01700887 -0.08152376 0)
(0.01574983 -0.1003855 0)
(0.01447533 -0.1200533 0)
(0.01319023 -0.1407061 0)
(0.0119045 -0.1625828 0)
(0.01063563 -0.185989 0)
(0.009406109 -0.2112815 0)
(0.008237639 -0.2388353 0)
(0.007148583 -0.2690005 0)
(0.006152312 -0.3020545 0)
(0.005256158 -0.3381624 0)
(0.004460999 -0.3773562 0)
(0.00376452 -0.4195252 0)
(0.003165274 -0.4643123 0)
(0.002664057 -0.5109644 0)
(0.002256098 -0.5582715 0)
(0.001927828 -0.6049169 0)
(0.001638053 -0.6505804 0)
(0.001354897 -0.6968797 0)
(0.001055716 -0.7458383 0)
(0.0007566407 -0.7989282 0)
(0.0004497284 -0.857956 0)
(0.0001206899 -0.9010097 0)
(0.0001461152 0.7494194 0)
(0.001755153 0.6700529 0)
(0.004613857 0.6157116 0)
(0.007847689 0.5773721 0)
(0.01130262 0.5459388 0)
(0.01472348 0.5179488 0)
(0.01800654 0.4919874 0)
(0.02107274 0.4674079 0)
(0.02387773 0.4438839 0)
(0.02639473 0.4212347 0)
(0.02861061 0.3993483 0)
(0.03052169 0.378146 0)
(0.03213225 0.3575645 0)
(0.03344981 0.3375489 0)
(0.03449072 0.3180444 0)
(0.03525562 0.2990078 0)
(0.03575244 0.2804097 0)
(0.03594972 0.2621389 0)
(0.03589347 0.2440912 0)
(0.03555194 0.226156 0)
(0.03497557 0.2082229 0)
(0.03420788 0.1902281 0)
(0.03330691 0.1722092 0)
(0.03232767 0.1542955 0)
(0.03131239 0.1366528 0)
(0.03028564 0.1194174 0)
(0.02925643 0.102651 0)
(0.02822367 0.08632783 0)
(0.02718144 0.0703494 0)
(0.02612254 0.05457369 0)
(0.02504058 0.03884934 0)