# Region type : patch riser
# Faces        : 200
# Area         : 6.7000000e-01
# Scale factor : 1.0000000e+00
# Time         	areaAverage(T)
2100           	3.6870871e+02
2200           	3.6872566e+02
2300           	3.6874132e+02
2400           	3.6875549e+02
2500           	3.6876780e+02
2600           	3.6877845e+02
2700           	3.6878738e+02
2800           	3.6879463e+02
