/*--------------------------------*- C++ -*----------------------------------*\
| =========                 |                                                 |
| \\      /  F ield         | OpenFOAM: The Open Source CFD Toolbox           |
|  \\    /   O peration     | Version:  2312                                  |
|   \\  /    A nd           | Website:  www.openfoam.com                      |
|    \\/     M anipulation  |                                                 |
\*---------------------------------------------------------------------------*/
FoamFile
{
    version     2.0;
    format      ascii;
    arch        "LSB;label=32;scalar=64";
    class       volScalarField;
    location    "3600";
    object      G;
}
// * * * * * * * * * * * * * * * * * * * * * * * * * * * * * * * * * * * * * //

dimensions      [1 0 -3 0 0 0 0];

internalField   nonuniform List<scalar> 
12000
(
14303.22
13454.74
13109.02
12927.7
12807.15
12681.01
12547.52
12435.78
12363.73
12328.43
12317.76
12319.01
12320.43
12311.93
12287.26
12245.69
12191.48
12131.97
12075.22
12028.16
11995.16
11977.46
11973.27
11978.72
11989.11
12000.08
12008.37
12012.03
12010.31
12003.26
11991.36
11975.3
11955.75
11933.35
11908.57
11881.79
11853.02
11821.99
11788.41
11752.25
11713.97
11674.47
11634.77
11596.3
11560.45
11528.03
11497.97
11468.12
11436.27
11400.73
11360.46
11315.09
11265.62
11215.02
11164.33
11108.96
11040.77
10951.55
10840.09
10663.32
16327.37
15527.32
14976.68
14594.57
14239.86
13894.51
13618.95
13438.9
13330.58
13256.76
13190.42
13116.66
13029.21
12929.24
12824.1
12723.89
12637.53
12570.28
12523.2
12493.8
12477.04
12466.54
12455.89
12439.83
12415.02
12380.24
12336.05
12284.13
12226.62
12165.57
12102.74
12039.44
11976.67
11915.21
11855.71
11798.67
11744.45
11693.12
11644.43
11597.91
11553.14
11510.02
11468.99
11430.9
11396.58
11366.36
11339.82
11315.62
11291.62
11264.99
11232.76
11192.81
11144.92
11091.16
11034.56
10976.6
10914.67
10839.95
10749.11
10629.17
17153.63
16392.29
15797.38
15342.91
14931.43
14566.93
14290.78
14097.68
13951.13
13819.14
13685.77
13547.77
13410.3
13283.11
13175.54
13092.36
13032.43
12990.26
12958.44
12929.64
12897.71
12858.24
12808.77
12748.89
12679.91
12604.27
12524.88
12444.49
12365.3
12288.82
12215.97
12147.16
12082.54
12022.09
11965.72
11913.33
11864.76
11819.71
11777.59
11737.5
11698.46
11659.71
11621.12
11583.18
11546.67
11512.3
11480.41
11450.7
11421.93
11391.89
11357.73
11316.8
11267.8
11211.93
11153.35
11096.97
11043.14
10982.7
10911.64
10825.14
16841.99
16373.23
15859.28
15411.81
15099.02
14886.35
14706.24
14517.89
14319.81
14127.36
13953.05
13802.38
13676.53
13573.78
13489.35
13416.1
13346.82
13276.35
13202.39
13124.93
13045.25
12965.11
12886.41
12811.07
12740.87
12677.25
12621.04
12572.41
12530.84
12495.35
12464.66
12437.37
12412.18
12387.92
12363.67
12338.74
12312.74
12285.4
12256.4
12225.22
12191.21
12153.9
12113.42
12070.47
12026.19
11981.83
11938.46
11896.43
11855.01
11812.38
11766.12
11714.03
11655.25
11591.29
11526.34
11464.22
11403.83
11337.15
11271.89
11189.5
15844.22
15821.62
15506.77
15147.02
14975.16
14931.64
14865.86
14715.48
14510.32
14303.15
14127.58
13993.25
13894.22
13816.77
13745.27
13667.14
13576.01
13472.16
13360.52
13247.83
13140.49
13043.42
12959.83
12891.42
12838.64
12800.86
12776.54
12763.48
12759.08
12760.6
12765.4
12771.1
12775.66
12777.48
12775.37
12768.67
12757.12
12740.81
12719.92
12694.49
12664.4
12629.56
12590.12
12546.59
12499.78
12450.81
12400.72
12350.03
12298.41
12244.93
12188.66
12129.21
12066.93
12002.8
11937.69
11870.59
11799.83
11725.25
11669.75
11593.75
15041.69
15392.3
15317.8
15081.84
14949.23
14923.11
14902.08
14824.42
14692.05
14534.65
14379.79
14242.84
14127.77
14030.72
13944.38
13861.92
13779.28
13695.48
13611.47
13528.96
13449.66
13375.11
13306.67
13245.43
13192.08
13146.71
13108.8
13077.37
13051.11
13028.62
13008.57
12989.77
12971.27
12952.32
12932.41
12911.3
12888.92
12865.37
12840.67
12814.66
12786.88
12756.63
12723.12
12685.72
12644.26
12599.29
12551.82
12502.94
12453.48
12404.09
12355.64
12309.03
12264.36
12219.78
12170.97
12113.28
12048.82
11988.21
11958.27
11913.2
14828.75
15374.68
15452.23
15266.92
15022.05
14860.66
14811.41
14813.62
14797.1
14729.49
14614.85
14473.15
14324.98
14185.75
14065.19
13967.95
13894.05
13839.39
13797.12
13759.36
13719.23
13672.03
13615.68
13550.27
13477.27
13398.79
13317.01
13233.94
13151.37
13070.84
12993.69
12921.08
12853.95
12793.06
12738.9
12691.72
12651.47
12617.75
12589.84
12566.61
12546.52
12527.58
12507.63
12484.77
12458
12427.68
12395.36
12363.24
12333.53
12308.09
12288.22
12274.08
12263.42
12250.51
12227.73
12191.62
12150.92
12123.14
12125.97
12124.94
18433.74
17514.64
16993.33
16465.09
15878.01
15413.76
15178.55
15116.15
15106.73
15065.4
14965.7
14816.92
14639.32
14453
14275.44
14120.32
13995.64
13902.4
13835.29
13785.14
13741.81
13696.56
13643.27
13578.63
13501.73
13413.42
13315.72
13211.33
13103.22
12994.42
12887.81
12785.99
12691.22
12605.32
12529.6
12464.79
12411
12367.7
12333.82
12307.82
12287.77
12271.32
12256.03
12239.89
12222.03
12203.06
12184.97
12170.47
12162.08
12161.46
12168.77
12182.05
12196.25
12203.45
12196.69
12177.37
12159.29
12159.13
12181.05
12204.87
17913.32
17165.31
16783.25
16414.13
15921.76
15436.74
15118.1
14994.65
14987.58
15002.13
14982.27
14911.72
14794.85
14643.51
14472.84
14299.59
14139.27
14002.95
13895.57
13816.24
13759.84
13718.98
13685.68
13652.68
13614.3
13566.79
13508.42
13439.16
13360.3
13273.93
13182.57
13088.81
12995.09
12903.58
12816
12733.61
12657.09
12586.65
12522.12
12463.14
12409.15
12359.42
12313.21
12269.99
12229.85
12193.66
12163.03
12139.88
12125.87
12121.54
12125.6
12134.16
12140.75
12138.23
12123.72
12103.53
12091.36
12096
12111.64
12123.71
14276.88
14925.87
15226.79
15363.68
15294.05
15043.38
14768.35
14607.82
14587.34
14648.8
14721.84
14762.86
14755.72
14699.75
14601.68
14472.79
14327.48
14181.09
14047.38
13936.55
13854.06
13800.48
13772.18
13762.64
13764.1
13768.99
13770.96
13765.44
13749.64
13722.33
13683.41
13633.53
13573.74
13505.25
13429.23
13346.81
13259.02
13166.95
13071.87
12975.3
12879.04
12784.93
12694.75
12609.98
12531.71
12460.73
12397.7
12343.39
12298.51
12262.98
12234.73
12209.21
12180.55
12145.23
12106.1
12072.14
12051.57
12042.03
12034.62
12012.9
14854.63
15109.97
15256.17
15362.21
15386.66
15238.83
14963.81
14704.84
14564.54
14547.04
14597.44
14659.69
14701.43
14709.62
14679.41
14609.12
14500.97
14362.63
14206.93
14049.45
13905.27
13786.23
13699.22
13645.96
13623.68
13626.56
13647.19
13677.87
13711.6
13742.53
13766.21
13779.45
13780.12
13766.95
13739.31
13697.13
13640.93
13571.83
13491.68
13402.96
13308.65
13211.96
13115.84
13022.58
12933.44
12848.75
12768.43
12692.71
12622.2
12556.99
12495.24
12433.09
12367.35
12299.82
12238.75
12192.96
12162.77
12136.28
12107.34
12058.36
15308.46
15324.07
15346.13
15354.67
15357.6
15274.03
15059.65
14786.5
14568.25
14461.09
14447.57
14481.7
14528.68
14572.19
14603.12
14610.69
14582.92
14511.75
14397.2
14247.73
14077.83
13904.47
13743.69
13608.16
13505.79
13439.44
13407.45
13404.76
13424.32
13458.3
13499.2
13540.47
13576.84
13604.39
13620.5
13623.71
13613.6
13590.71
13556.3
13512.18
13460.5
13403.44
13342.9
13280.08
13215.24
13147.96
13077.77
13004.87
12930.04
12853.63
12774.49
12690.84
12603.68
12520.07
12450.97
12402.28
12367.4
12330.26
12289.68
12230.63
15450.49
15404.99
15412.84
15397.96
15363.16
15286.51
15121.36
14880.71
14643.99
14482.69
14410.14
14397.15
14412.5
14442.57
14484.73
14533.82
14576.78
14596.32
14577.65
14513.29
14404.38
14259.66
14092.93
13920.11
13756.32
13613.62
13499.68
13417.39
13365.46
13339.55
13333.56
13340.92
13355.56
13372.5
13388.16
13400.34
13408.02
13411.03
13409.63
13404.15
13394.79
13381.48
13363.81
13340.95
13311.69
13274.72
13229.13
13174.65
13111.39
13039.19
12957.72
12868.26
12776.51
12692.74
12626.51
12578.48
12538.46
12492.27
12444.33
12376.86
15421.36
15358.36
15376.22
15393.65
15366.47
15289.39
15147.29
14937.84
14708.02
14525.17
14422.26
14383.97
14376.2
14377.78
14387.71
14413.22
14456.35
14509.07
14556.26
14581.45
14571.81
14520.87
14429.32
14304.12
14156.6
13999.9
13846.58
13706.7
13586.84
13489.86
13415.49
13361.23
13323.48
13298.46
13282.91
13274.44
13271.52
13273.2
13278.73
13287.17
13297.23
13307.26
13315.3
13319.25
13317.04
13306.82
13287.01
13256.04
13212.17
13153.91
13081.67
13000.02
12918.22
12846.44
12789.21
12741.37
12693.03
12635.59
12580.35
12492.92
15284.21
15241.19
15265.24
15318.69
15338.4
15296
15183.5
14998.55
14771.31
14566.1
14437.23
14390.79
14391.64
14399.3
14395.15
14384.37
14381.94
14398.5
14434.32
14480.44
14522.91
14547.37
14542.36
14501.51
14424.25
14315.41
14183.74
14040.01
13895.02
13757.99
13635.61
13531.73
13447.64
13382.66
13334.94
13302.1
13281.75
13271.61
13269.64
13273.91
13282.55
13293.72
13305.64
13316.63
13325.23
13329.93
13328.73
13318.6
13295.72
13257.34
13204.71
13144.75
13087.66
13040.38
13001.01
12960.26
12911.18
12850.72
12796.65
12693.2
15148.33
15137.77
15161.28
15223.98
15285.89
15300.48
15241.6
15095.16
14874.83
14638.33
14460.14
14380.51
14383.3
14418.97
14443.53
14440.49
14418.23
14395.01
14385.84
14396.71
14424.66
14460.35
14491.26
14504.7
14490.52
14443.08
14362.13
14252.55
14123.01
13984.19
13846.8
13719.95
13610.15
13520.88
13452.83
13404.41
13372.59
13353.66
13343.94
13340.25
13340.15
13342.03
13345
13348.81
13353.54
13358.88
13363.2
13362.93
13353.54
13332.47
13302.27
13270.86
13246.68
13231.77
13219.23
13198.67
13166.57
13123.12
13087.86
12997.81
15069.43
15088.2
15111.26
15161.12
15235.67
15296.16
15299.52
15211.54
15023.13
14772.54
14537.43
14388.75
14347.39
14381.29
14437.26
14475.16
14481.65
14464.19
14438.08
14416.86
14408.18
14413.33
14428.06
14444.04
14450.95
14438.87
14400.71
14333.73
14240.09
14126.22
14001.33
13875.62
13758.44
13656.89
13575.09
13514
13471.89
13445.2
13429.54
13420.64
13415
13410.31
13405.56
13400.95
13397.29
13395.02
13393.03
13388.43
13378.15
13361.93
13344.39
13333.29
13333.88
13343.89
13354.61
13357.66
13352.17
13339.27
13333.6
13285.77
15086.97
15113.01
15131.76
15159.82
15219.99
15296.26
15344.13
15315.7
15181.41
14952.43
14687.99
14468.15
14347.8
14330.1
14377.07
14440.75
14488.2
14508.08
14504.02
14485.41
14461.59
14439.65
14423.64
14414.09
14407.96
14399.35
14381.06
14346.57
14291.81
14216.19
14122.74
14017.48
13908.11
13802.6
13707.78
13628.36
13566.46
13521.75
13491.93
13473.54
13462.81
13456.31
13451.59
13447.24
13442.53
13436.54
13427.55
13413.54
13394.07
13372.35
13355.03
13348.72
13355.29
13370.26
13386.54
13400
13411.86
13423.06
13439.46
13434.27
15189.84
15198.39
15205.63
15213.78
15249.16
15314.75
15377.58
15389.94
15312.31
15132.41
14880.21
14622.15
14427.99
14333.85
14330.1
14378.56
14439.21
14486.85
14512.52
14517.07
14504.98
14481.73
14453.05
14424.49
14400.09
14381.19
14365.9
14349.55
14326.14
14289.96
14237.16
14166.67
14080.55
13983.52
13882.04
13783.1
13693.02
13616.54
13556.27
13512.63
13484.2
13468.27
13461.54
13460.41
13461.06
13459.35
13451.4
13435.2
13412.38
13388.46
13370.33
13361.95
13362
13365.85
13370.38
13376.57
13387.66
13403.95
13423.51
13435.26
15288.94
15285.61
15284.91
15284.63
15301.43
15345.1
15399.71
15430.31
15398.33
15276.51
15066.96
14811.13
14574.64
14412.6
14342.74
14345.44
14384.72
14429.97
14464.99
14485.16
14490.91
14483.83
14466.25
14442.01
14416.29
14394.24
14379.13
14371.01
14366.53
14359.72
14343.56
14311.68
14259.92
14187.28
14096.19
13992.03
13882.1
13774.39
13676.2
13593.18
13528.72
13483.78
13456.96
13444.63
13441.15
13439.86
13434.95
13423.96
13408.99
13395.13
13386.37
13382.2
13378.18
13370.6
13360.63
13353.66
13354.31
13361.72
13370.37
13372.36
15371.38
15361.45
15354.93
15353.08
15358.98
15379.4
15414.27
15447.2
15446.96
15378.54
15222.82
14995.67
14747.94
14540.15
14410.11
14358.33
14358.64
14380.17
14402.91
14419.98
14431.52
14438.45
14440.35
14436.66
14428.37
14418.49
14410.87
14408.46
14411.84
14418.55
14423.48
14419.91
14401.04
14361.51
14298.6
14212.94
14108.41
13991.57
13870.55
13753.84
13649.06
13561.91
13495.26
13448.5
13417.73
13397.21
13382.03
13370.48
13364.31
13365.78
13373.73
13382.24
13384.13
13376.56
13363.51
13352.26
13347.25
13345.94
13343.25
13328.37
15481.48
15449.22
15430.26
15422.69
15417.85
15416.92
15430.3
15457.78
15477.28
15451.3
15346.89
15158.59
14918.9
14684.54
14506.12
14403.5
14363.82
14358.63
14363.79
14368.73
14373.67
14381.95
14394.53
14409.18
14422.6
14432.71
14439.63
14445.14
14451.3
14459.2
14467.99
14474.7
14474.6
14462.1
14431.94
14380.33
14305.9
14210.15
14097.46
13974.49
13849.26
13729.72
13622.17
13530.06
13453.95
13392.84
13346.42
13316.21
13304.26
13309.86
13326.97
13345.68
13357.32
13359.44
13356.15
13353.4
13353.36
13352.1
13346.92
13326.83
15529.91
15496.6
15475.06
15463.13
15450.29
15436.54
15436.46
15458.86
15490.05
15495.25
15435.15
15288.58
15069.21
14823.64
14608.37
14460.92
14385.27
14359.41
14355.14
14354.26
14352.63
14354.49
14364.45
14383.07
14406.87
14430.84
14450.93
14465.36
14474.55
14480.26
14484.44
14488.18
14490.92
14490.28
14482.27
14462.09
14425.14
14368.15
14290.07
14192.56
14079.76
13957.37
13831.37
13707.06
13589.12
13482.51
13393.34
13327.96
13290.15
13278.04
13283.78
13296.9
13309.51
13319.28
13328.11
13337.84
13347.26
13352.24
13352.3
13341.71
15592.58
15546.82
15519.48
15498.57
15476.95
15456.46
15449.65
15466.41
15499.92
15522.95
15497.2
15391.65
15202.21
14960.12
14719.95
14532.48
14420.83
14375.51
14368.36
14372.38
14373.81
14372.32
14373.89
14383.44
14401.45
14424.47
14447.53
14466.39
14478.84
14484.86
14486.08
14484.92
14483.55
14482.93
14482.32
14479.07
14469.08
14447.64
14410.42
14354.43
14278.41
14182.79
14069.49
13942.05
13806.36
13671.26
13547.7
13445.94
13371.8
13324.52
13298.18
13285.75
13282.6
13286.9
13297.35
13311
13323.66
13332.31
13337.69
13341.02
15539.37
15527.04
15514.61
15495.87
15475.17
15458.25
15452.74
15465.48
15495.27
15525.78
15525.87
15460.93
15311.92
15091.44
14843.78
14625.11
14475.99
14404.7
14390.77
14402.67
14415.71
14419.95
14417.58
14415.41
14418.65
14428.45
14442.58
14457.47
14469.85
14477.75
14480.82
14480.08
14477.45
14474.96
14474.05
14474.89
14476.04
14474.57
14466.42
14446.85
14410.99
14354.38
14273.94
14169.51
14045.38
13910.55
13776.84
13655.05
13551.47
13467.23
13400.69
13350.69
13317.37
13300.22
13295.66
13297.54
13300.51
13303.37
13307.27
13317.14
15522.27
15528.82
15524.57
15505.93
15485.98
15472.31
15467.16
15473.08
15492.78
15520.83
15536.63
15507.71
15404.93
15222.25
14987
14750.93
14565.55
14458.04
14422.96
14432.45
14455.01
14469.97
14471.35
14463.4
14453.46
14447
14446.04
14449.89
14456.5
14463.62
14469.48
14473.1
14474.47
14474.4
14474.2
14475.18
14478.09
14482.59
14486.82
14487.1
14478
14453.05
14406.46
14335.4
14241.75
14132.02
14014.88
13897.75
13784.83
13678.1
13579.98
13494.89
13427.47
13379.06
13345.96
13321.85
13302.52
13288.64
13281.7
13285.22
15545.73
15558.64
15554.97
15533.93
15511.99
15496.99
15488.25
15485.42
15492.9
15513.16
15536.16
15535.79
15479.04
15344.74
15140.53
14905.1
14691.62
14542.21
14470.12
14459.38
14479.23
14501.5
14510.85
14505.24
14490.34
14473.37
14459.49
14451.04
14448.22
14450.03
14454.91
14461.15
14467.28
14472.35
14476.18
14479.33
14482.82
14487.55
14493.41
14498.53
14498.92
14489.2
14464.28
14421.48
14361.56
14287.9
14204.1
14111.97
14011.75
13904.58
13794.82
13689.81
13596.54
13517.93
13452.08
13395.33
13346.42
13307.57
13281.48
13265.68
15641.68
15634.82
15618.61
15589.87
15560.55
15536.97
15518.98
15505.86
15501.84
15512.81
15536.56
15555.17
15537.51
15453.29
15292.13
15074.69
14846.76
14658.1
14539.41
14491.79
14492.84
14512.68
14528.4
14530.12
14518.77
14500.35
14480.99
14464.76
14453.56
14447.9
14447.38
14451.04
14457.45
14465.04
14472.45
14478.95
14484.52
14489.46
14493.79
14496.45
14495.14
14487.02
14470.03
14443.97
14410.19
14369.84
14321.9
14262.98
14189.47
14100.73
14000.6
13895.92
13793
13695.11
13602.77
13516.24
13437.73
13370.52
13320.08
13273.79
15777.95
15733.57
15696.97
15658.55
15620.41
15585.24
15555.33
15532.1
15519.1
15522.03
15542.76
15571.08
15581.64
15541.58
15427.28
15240.89
15014.46
14797.04
14631.84
14537.92
14506.76
14512.87
14529.38
14538.98
14536.22
14523.68
14506.62
14489.44
14474.72
14463.66
14456.81
14454.27
14455.71
14460.27
14466.77
14473.96
14480.78
14486.24
14489.22
14488.27
14481.98
14469.9
14453.29
14434.92
14417.33
14400.5
14380.62
14351.43
14307.34
14246.33
14170.28
14082.97
13987.64
13886.36
13781.28
13675.84
13574.91
13481.96
13406.84
13322.18
15848.08
15787.86
15741.95
15701.72
15662.27
15621.74
15584.4
15554.83
15536.7
15534.22
15550.55
15581.48
15609.2
15603.57
15533.98
15386.89
15177.7
14947.44
14744.71
14603.87
14532.7
14515.28
14525.23
14539.62
14546.16
14542.66
14532.35
14519.29
14506.13
14494.08
14483.72
14475.59
14470.27
14468.13
14469.1
14472.53
14477.19
14481.26
14482.43
14478.49
14468.35
14453.11
14436.25
14422.26
14414.12
14411.07
14408.39
14399.63
14379.62
14346.11
14298.89
14237.95
14162.66
14073.01
13971.33
13862.28
13751.63
13641.9
13548.16
13423.97
15869.24
15804.4
15756.96
15719.27
15684.63
15646.92
15609.33
15577.91
15557.02
15549.94
15560.06
15587.38
15621.69
15639.03
15607.67
15503.18
15324.45
15099.23
14873.87
14692.57
14578.98
14530.37
14525.54
14538.9
14551.89
14556.67
14553.5
14545.76
14536.35
14526.49
14516.38
14506.12
14496.36
14488.11
14482.39
14479.57
14479
14478.82
14476.4
14469.39
14457.16
14441.75
14427.38
14418.48
14417.13
14421.72
14427.81
14430.6
14426.92
14415.22
14393.91
14360.03
14310.01
14241.93
14157.23
14059.73
13954.42
13841.74
13741.51
13586.67
15826.24
15776.38
15738.83
15708.37
15683.05
15655.64
15625.85
15598.07
15576.81
15565.53
15568.02
15587.22
15619.54
15648.86
15647.05
15584.31
15445.62
15242.78
15013.04
14803.47
14650.34
14565.76
14538.06
14543.08
14557.63
14567.8
14569.73
14565.52
14558.54
14550.71
14542.27
14532.78
14522.19
14511.26
14501.2
14492.94
14486.4
14480.23
14472.41
14461.5
14447.91
14434.4
14424.88
14422.35
14427.03
14436.38
14446.75
14455.59
14461.97
14465.24
14463.19
14451.52
14425.52
14382.42
14322.45
14247.49
14160.78
14060.09
13968.32
13801.27
15758.6
15731.7
15709.78
15688.04
15671.58
15655.93
15637.56
15616.88
15597.13
15582.18
15576.53
15585.06
15609.28
15640.93
15658.52
15632.24
15537.6
15370.69
15154.83
14932.71
14747.8
14626.17
14568.96
14557.9
14568.24
14580.47
14585.38
14582.46
14575.12
14566.59
14558.12
14549.42
14539.83
14529.24
14518.12
14506.98
14495.73
14483.58
14469.68
14454.2
14439.15
14427.85
14423.42
14426.85
14436.45
14448.98
14461.82
14474.25
14486.81
14499.31
14509.39
14512.9
14505.74
14485.44
14451.4
14403.55
14343.37
14266.32
14195.81
14039.15
15705.38
15697.9
15690.66
15676.61
15665.29
15657.19
15648.04
15634.42
15617.13
15599.75
15587.19
15585.28
15598.67
15625.62
15652.49
15653.67
15600.55
15476.51
15289.16
15070.82
14865.53
14709.93
14619.12
14584.9
14585.02
14596.18
14603.22
14601.22
14592.28
14580.63
14569.31
14559.23
14549.86
14540.32
14529.87
14517.86
14503.6
14486.58
14467.17
14447.39
14430.72
14420.86
14419.85
14426.95
14439.15
14453.2
14467.48
14482.35
14498.7
14516.11
14532.31
14544.22
14549.35
14546.28
14534.18
14511.79
14479.46
14431.38
14388.71
14261.77
15683.74
15688.06
15690.84
15682.8
15672.92
15666.04
15660.15
15650.46
15635.35
15617.13
15600.31
15590.61
15593.94
15612.86
15640.94
15659.19
15639.87
15558.5
15408.25
15207.6
14994.87
14811.9
14686.47
14623.16
14606.65
14613.1
14622.05
14622.77
14613.95
14599.52
14584.12
14570.57
14559.38
14549.52
14539.23
14526.61
14510.13
14489.42
14465.91
14442.99
14425.06
14415.61
14415.6
14423.13
14434.9
14448.34
14462.76
14478.8
14496.8
14515.71
14533.48
14548.37
14559.64
14567.08
14570.15
14567.36
14558.73
14538.29
14522.7
14436.08
15699.98
15705.91
15711.62
15707.09
15696.35
15685.61
15676.59
15666.23
15651.78
15633.76
15615.37
15601.36
15597.43
15608.22
15632.66
15658.83
15663.42
15619.18
15508.47
15335.32
15127.55
14926.27
14768.25
14671.5
14631.37
14627.71
14637.09
14642.64
14637.77
14623.99
14606.31
14589.26
14574.94
14562.9
14551
14536.57
14517.67
14494.16
14468.25
14444.02
14425.8
14416.22
14415.17
14420.3
14428.94
14439.64
14452.48
14467.81
14485.06
14502.52
14518.52
14532.47
14544.95
14556.69
14567.73
14577.12
14585
14586.1
14591.14
14545.3
15741.24
15741.83
15744.53
15741.06
15729.14
15713.01
15697.37
15682.74
15667.11
15649.5
15631.28
15615.72
15607.52
15611.76
15630.63
15658.32
15677.56
15662.55
15589.37
15449.41
15257.5
15048.5
14863.1
14730.93
14660.23
14638.88
14644.15
14654.49
14657
14648.65
14632.83
14614.71
14597.77
14582.61
14567.49
14549.86
14528.03
14502.48
14475.97
14452.48
14435.4
14425.95
14423.03
14424.42
14428.54
14435.16
14444.78
14457.26
14471.22
14484.71
14496.51
14506.89
14517.1
14528.37
14541.39
14556.07
14572.72
14587.04
14603.7
14591.05
15790.91
15783.16
15779.5
15774.91
15762.62
15742.91
15721.09
15701.08
15682.99
15665.36
15647.83
15632.04
15621.42
15620.64
15633.55
15658.85
15685.43
15691.64
15651.57
15547.25
15380.31
15175.25
14971.05
14805.13
14698.64
14650.82
14644.11
14655.26
14665.65
14666.3
14656.85
14641.33
14623.78
14605.91
14587.01
14565.5
14540.74
14514.09
14488.65
14467.75
14453.26
14444.82
14440.56
14438.7
14438.72
14441.23
14446.78
14454.73
14463.37
14471.01
14477.1
14482.36
14488.23
14496.08
14507.11
14521.95
14540.71
14560.06
14579.73
14588.26
15833.1
15818.3
15808.18
15801.14
15789.5
15769.74
15745.24
15721.42
15700.74
15682.47
15665.32
15649.43
15636.96
15631.86
15638.65
15659.09
15687.52
15707.66
15695.06
15626.27
15491.35
15302.28
15091.13
14897.89
14754.25
14672.38
14643.95
14648.09
14662.71
14672.71
14672.34
14662.59
14646.81
14627.48
14605.32
14580.37
14553.47
14526.99
14504.04
14486.91
14475.9
14469.35
14465.06
14461.71
14459.48
14459.15
14460.9
14463.76
14466.2
14467.24
14467.06
14466.71
14467.53
14470.88
14478.12
14490.08
14506.33
14524.21
14540.63
14557.82
15859.45
15841.41
15827.18
15817.43
15807.01
15790.4
15767.65
15743.19
15720.96
15701.73
15684.31
15667.89
15653.42
15644.03
15644.31
15658.04
15683.91
15711.35
15719.7
15683.82
15585.17
15423.08
15218.92
15009.56
14832.9
14713.23
14654.1
14641.35
14652.85
14668.73
14677.17
14674.55
14662.16
14642.68
14618.4
14591.29
14563.8
14538.98
14519.52
14506.51
14498.97
14494.62
14491.38
14488.44
14486.1
14484.71
14483.83
14482.26
14479.02
14474.03
14468.19
14462.79
14459.11
14458.42
14461.87
14469.85
14481.19
14493.7
14503.84
14519.7
15871.78
15854.12
15838.71
15826.77
15817.36
15805.27
15787.48
15765.64
15743.54
15723.43
15705.17
15687.69
15671.03
15657.31
15650.81
15656.4
15676.13
15704.71
15726.67
15718.44
15656.58
15529.48
15345.95
15134.87
14934.88
14779.24
14683.96
14644.96
14644.07
14659.3
14673.3
14676.97
14668.36
14649.64
14624.48
14596.83
14570.54
14548.81
14533.44
14524.25
14519.46
14516.83
14514.88
14513.27
14512.07
14510.88
14508.57
14503.94
14496.6
14487.27
14477.36
14468.41
14461.73
14458.46
14459.18
14463.44
14469.42
14475.38
14479.11
14488.11
15877.47
15862.19
15847.78
15834.56
15825.36
15817.08
15805.12
15787.92
15767.6
15747.11
15727.66
15708.78
15689.96
15672.32
15659.36
15656.24
15667.24
15691.62
15719.57
15731.48
15702.76
15614.02
15461.84
15263.86
15054.06
14869.93
14738.22
14666.56
14644.37
14650.92
14665.15
14672.56
14667.12
14649.65
14624.74
14598.02
14574.33
14556.63
14545.48
14539.51
14536.52
14534.75
14533.54
14532.92
14532.65
14531.65
14528.42
14521.93
14512.29
14500.71
14488.85
14478.36
14470.62
14466.45
14465.73
14467.12
14468.53
14468.82
14467.95
14469.06
15884.55
15871.78
15859.2
15845.61
15835.74
15829.15
15821.62
15809.27
15791.8
15771.62
15750.98
15730.52
15709.82
15689.14
15670.84
15659.56
15660.73
15677.02
15704.01
15727.43
15724.75
15672.59
15557.56
15384.99
15179.99
14979
14815.84
14709.43
14659.21
14649.22
14657.45
14665.11
14661.82
14646.12
14622.58
14597.86
14577.44
14563.79
14556.37
14552.86
14550.91
14549.34
14548.11
14547.41
14546.77
14544.86
14540.26
14532.36
14521.68
14509.56
14497.65
14487.52
14480.37
14476.58
14475.25
14474.48
14472.52
14468.98
14465.74
14460.99
15897.4
15886.23
15875.21
15861.91
15850.82
15843.59
15837.79
15828.91
15814.45
15795.26
15773.8
15751.82
15729.59
15706.94
15684.96
15667.17
15659
15665.27
15686.05
15712.77
15727.18
15705.6
15628.06
15488.68
15301.4
15096.89
14911.3
14772.49
14690.66
14657.59
14653.63
14657.76
14655.63
14642.59
14621.87
14600.07
14582.81
14572.29
14567.36
14565.34
14563.96
14562.34
14560.62
14558.88
14556.47
14552.27
14545.4
14535.87
14524.54
14512.76
14501.93
14493.32
14487.65
14484.62
14482.73
14480.07
14475.69
14470
14465.93
14458.05
15915.97
15905.37
15895.05
15882.33
15869.97
15860.5
15853.72
15846.11
15833.95
15816.2
15794.55
15771.41
15747.99
15724.27
15700.36
15678.28
15662.59
15658.9
15670.51
15694.04
15716.65
15717.25
15673.06
15569.59
15409.4
15214.03
15017.19
14851.88
14738.11
14677.28
14655.41
14652.08
14650.09
14640.97
14625.01
14607.28
14592.88
14584.02
14579.84
14578.05
14576.74
14575.06
14572.8
14569.61
14564.74
14557.5
14547.79
14536.31
14524.27
14512.95
14503.47
14496.58
14492.27
14489.48
14486.45
14481.76
14475.42
14468.45
14463.9
14454.48
15937.24
15926.46
15916
15903.71
15890.38
15878.2
15868.68
15860.2
15849.13
15832.91
15811.84
15788.16
15763.94
15739.73
15715.22
15691.05
15670.3
15658.27
15660.02
15676.31
15699.8
15713.84
15696.16
15627.04
15499.1
15323.22
15126.61
14943.01
14799.77
14708.48
14663.56
14648.42
14644.92
14640.7
14631.66
14619.62
14608.25
14599.91
14594.82
14591.92
14589.98
14588.04
14585.28
14580.73
14573.55
14563.52
14551.26
14538.04
14525.31
14514.35
14505.95
14500.23
14496.39
14492.8
14487.84
14480.84
14472.65
14464.49
14458.93
14447.8
15957.32
15946.02
15934.85
15922.59
15908.65
15894.24
15881.55
15870.81
15859.55
15844.61
15824.79
15801.43
15776.87
15752.46
15728.07
15703.43
15680.04
15662.05
15654.98
15662.41
15681.81
15701.78
15702.98
15663.81
15569.5
15420.35
15234.37
15041.82
14873.93
14751.53
14679.2
14647.29
14639.2
14639.55
14638.95
14634.47
14627.18
14619.31
14612.54
14607.55
14604.14
14601.39
14597.87
14592.13
14583.25
14571.38
14557.6
14543.49
14530.61
14520.13
14512.46
14507.11
14502.64
14497.26
14489.81
14480.47
14470.52
14460.87
14453.54
14439.37
15973.34
15961.32
15949.28
15936.58
15922.28
15906.58
15891.3
15877.9
15865.53
15851.42
15833.28
15811.13
15786.86
15762.4
15738.28
15713.99
15689.78
15668.26
15654.4
15653.22
15665.93
15686.3
15699.34
15684.35
15622.08
15503.72
15336.88
15144.94
14959.17
14807.37
14704.66
14650.64
14633.09
14635.36
14643.02
14647.46
14645.99
14639.91
14632.05
14624.89
14619.44
14615.11
14610.26
14603.22
14593.17
14580.48
14566.41
14552.58
14540.45
14530.87
14523.81
14518.21
14512.34
14504.68
14494.8
14483.5
14472.04
14460.68
14451.2
14432.79
15984.19
15971.24
15958.45
15945
15930.45
15914.32
15897.56
15881.94
15868.05
15854.24
15837.9
15817.68
15794.44
15770.18
15746.2
15722.4
15698.37
15675.26
15656.85
15648.44
15653.75
15670.99
15690.06
15693.09
15659.2
15572.71
15431.16
15248.91
15053.67
14876.96
14743.17
14662.27
14629.01
14627.97
14641.15
14654.39
14660.41
14658.39
14651.37
14643.04
14635.62
14629.15
14622.31
14613.66
14602.62
14589.73
14576.26
14563.67
14553.07
14544.84
14538.39
14532.26
14524.8
14515.1
14503.47
14490.96
14478.49
14465.56
14454.16
14431.34
15990.41
15976.27
15962.97
15948.74
15933.97
15917.95
15900.74
15883.76
15868.45
15854.51
15839.71
15821.79
15800.3
15776.7
15752.81
15729.28
15705.72
15682.25
15661.26
15647.45
15645.83
15658.01
15678.59
15693.62
15682.97
15626.75
15514
15349.41
15154.22
14959.98
14797.64
14687.05
14631.62
14620.06
14633.37
14653.08
14667.17
14671.54
14667.98
14660.38
14651.78
14643.16
14633.99
14623.46
14611.42
14598.55
14586.04
14575.06
14566.25
14559.42
14553.45
14546.71
14537.97
14527.01
14514.64
14501.83
14488.95
14474.95
14462.31
14436.18
15993.35
15977.85
15964.31
15949.54
15934.58
15918.84
15901.87
15884.4
15868.09
15853.71
15839.95
15824.27
15805.05
15782.76
15759.21
15735.79
15712.61
15689.37
15667.22
15649.77
15642.26
15648.53
15667.15
15688.5
15694.93
15665.08
15581.91
15441.13
15255.79
15053.9
14869.18
14729.27
14646.7
14616.84
14622.86
14644.39
14665.29
14677.37
14679.65
14674.95
14666.52
14656.34
14645.02
14632.71
14619.78
14607.05
14595.53
14586.02
14578.66
14572.72
14566.75
14559.31
14549.71
14538.36
14526.21
14513.8
14501.06
14486.66
14473.56
14446.05
15994.42
15977.66
15964.09
15949.17
15934.13
15918.63
15902.15
15884.84
15868.04
15853.11
15839.76
15825.87
15809.11
15788.8
15766.16
15742.97
15720.06
15697.24
15674.8
15655.14
15642.93
15643.08
15657.13
15679.61
15696.46
15687.29
15631.81
15518.6
15352.09
15153.79
14956.1
14791.04
14679.29
14624.51
14615.2
14632.04
14656.34
14675.69
14685.14
14685.11
14678.33
14667.57
14654.79
14641.25
14627.91
14615.62
14605.13
14596.78
14590.2
14584.29
14577.61
14569.2
14559.02
14547.82
14536.35
14524.66
14512.31
14498.04
14485.08
14458.1
15994.63
15977.07
15963.62
15948.89
15933.93
15918.59
15902.59
15885.78
15868.95
15853.52
15840.05
15827.27
15812.77
15794.88
15773.89
15751.4
15728.81
15706.4
15684.12
15663.29
15647.5
15641.73
15649.38
15668.52
15689.21
15693.95
15662.07
15577.53
15436.84
15253.22
15053.92
14871.41
14732.18
14648.51
14616.68
14621.49
14643.95
14668.07
14684.4
14689.95
14686.06
14675.87
14662.59
14648.66
14635.64
14624.39
14615.21
14607.84
14601.44
14594.77
14586.75
14577.09
14566.34
14555.33
14544.43
14533.23
14521.17
14507.26
14494.61
14469.44
15994.63
15976.91
15963.67
15949.31
15934.58
15919.39
15903.79
15887.59
15871.08
15855.33
15841.42
15829.04
15816.27
15800.9
15782.15
15760.97
15738.95
15716.93
15694.99
15673.62
15655.23
15644.05
15644.27
15656.64
15675.39
15687.15
15673.33
15615.95
15505.27
15345.62
15156.33
14966.41
14805.03
14692.01
14632.66
14618.46
14632.64
14657.21
14678.48
14689.46
14689.23
14680.69
14667.93
14654.5
14642.58
14632.99
14625.5
14619.18
14612.72
14604.97
14595.42
14584.48
14573.07
14561.93
14551.05
14539.77
14527.59
14513.87
14501.35
14478.32
15994.77
15977.53
15964.51
15950.51
15936.09
15921.13
15905.92
15890.36
15874.38
15858.61
15844.21
15831.69
15819.92
15806.71
15790.4
15771.03
15749.93
15728.36
15706.75
15685.23
15665.01
15649.17
15641.74
15645.23
15657.62
15670.31
15668.49
15634.71
15555.07
15425.69
15256.52
15070.02
14894.58
14755.36
14666.44