/*--------------------------------*- C++ -*----------------------------------*\
| =========                 |                                                 |
| \\      /  F ield         | OpenFOAM: The Open Source CFD Toolbox           |
|  \\    /   O peration     | Version:  2312                                  |
|   \\  /    A nd           | Website:  www.openfoam.com                      |
|    \\/     M anipulation  |                                                 |
\*---------------------------------------------------------------------------*/
FoamFile
{
    version     2.0;
    format      ascii;
    arch        "LSB;label=32;scalar=64";
    class       volScalarField;
    location    "3600";
    object      omega;
}
// * * * * * * * * * * * * * * * * * * * * * * * * * * * * * * * * * * * * * //

dimensions      [0 0 -1 0 0 0 0];

internalField   nonuniform List<scalar> 
12000
(
46.50624
19.94721
21.62864
23.27327
24.51634
25.56792
26.44095
27.22403
27.92423
28.54823
29.07887
29.54953
29.99286
30.40505
30.763
31.05794
31.33333
31.59287
31.83124
32.0107
32.16495
32.30165
32.43201
32.52691
32.59308
32.64075
32.67999
32.69878
32.70124
32.68211
32.64809
32.60792
32.55277
32.48791
32.4008
32.21908
31.97687
31.82475
31.78418
31.67434
31.38199
30.86128
30.36104
30.30871
30.25864
29.82735
28.69762
28.10107
27.96045
27.87286
27.12579
25.58636
24.80269
24.42591
23.58264
22.17057
20.76625
19.67097
18.45976
41.7547
81.09973
23.10683
22.40319
23.02161
23.09111
23.1371
22.73081
22.24766
21.68376
21.06264
20.41932
19.83216
19.28879
18.68891
17.99553
17.48405
17.16695
16.76237
16.1774
15.64424
15.39917
15.1926
14.83562
14.41752
14.15712
14.02251
13.84992
13.60694
13.39109
13.2813
13.23447
13.16439
13.06761
13.05211
13.0631
13.16254
13.33256
13.42029
13.44136
13.47129
13.72613
14.18933
14.62147
14.69532
14.75204
15.32089
16.42609
17.34249
17.5542
17.57077
18.94835
21.02905
22.65752
23.64196
25.58172
29.08907
34.24066
41.32324
55.00337
78.02305
86.31705
22.93155
21.46602
20.60553
19.88119
18.96383
18.02351
17.0234
16.1022
15.14245
14.36911
13.69695
13.0578
12.5248
12.06461
11.68801
11.34347
11.01269
10.72363
10.49707
10.31307
10.13685
9.972089
9.83978
9.741945
9.660309
9.585421
9.524638
9.485856
9.466571
9.459883
9.456766
9.467341
9.504921
9.55373
9.616567
9.682572
9.744636
9.817436
9.920491
10.05685
10.20371
10.34304
10.49441
10.69966
10.94217
11.20966
11.5045
11.85128
12.2796
12.76034
13.36673
14.19194
15.2221
16.60302
18.52917
21.95736
29.295
47.73753
86.63261
88.5097
22.20895
19.32176
18.3345
17.2724
16.12324
15.01349
13.94269
13.00558
12.24312
11.55547
10.94384
10.39871
9.951164
9.580191
9.261177
8.984733
8.745761
8.540161
8.366948
8.21978
8.094846
7.990398
7.905972
7.838766
7.785559
7.745152
7.717835
7.704106
7.702671
7.705105
7.721727
7.756913
7.803024
7.860915
7.930919
8.01427
8.112001
8.225742
8.358247
8.51111
8.685117
8.881487
9.106252
9.360569
9.649711
9.981533
10.36451
10.79697
11.2995
11.89947
12.60941
13.41534
14.34085
15.60613
17.57087
20.80308
26.76115
42.47811
92.03091
89.56607
21.28775
17.68666
16.58631
15.38767
14.17421
13.04418
12.03118
11.15893
10.45151
9.851505
9.335494
8.881396
8.474127
8.137288
7.851918
7.608583
7.399885
7.218936
7.064915
6.936559
6.830218
6.741407
6.668357
6.610004
6.565161
6.533089
6.51347
6.506163
6.505789
6.516063
6.542792
6.581443
6.632281
6.695654
6.772002
6.862895
6.969084
7.091196
7.230482
7.388542
7.565682
7.760283
7.97561
8.216144
8.482926
8.77794
9.105138
9.476143
9.902455
10.36153
10.86069
11.4901
12.34777
13.50674
15.24585
18.09784
23.83607
39.54164
96.02132
90.58496
20.75181
16.40524
15.16961
13.95098
12.77556
11.71507
10.7904
9.997474
9.322838
8.74917
8.257974
7.851282
7.497361
7.180648
6.910279
6.676826
6.475926
6.305201
6.160806
6.038843
5.935858
5.849895
5.779747
5.72443
5.68309
5.65508
5.639945
5.63788
5.647045
5.66903
5.704552
5.753944
5.817937
5.896632
5.988064
6.095376
6.221856
6.366603
6.530446
6.714746
6.920989
7.150481
7.401733
7.679254
7.986332
8.323388
8.699855
9.117688
9.560868
10.04427
10.61165
11.29401
12.14466
13.26279
14.85973
17.4546
22.52976
36.74803
98.78913
91.75509
20.54781
15.41384
14.04624
12.86796
11.76433
10.77668
9.916602
9.177178
8.54471
8.004057
7.540596
7.141028
6.803199
6.508636
6.244423
6.014976
5.817074
5.647764
5.503493
5.381231
5.278601
5.193912
5.125956
5.073784
5.036651
5.013999
5.007231
5.011956
5.030946
5.064204
5.11203
5.173436
5.249475
5.342144
5.451192
5.576756
5.720408
5.883161
6.065883
6.269498
6.494906
6.74292
7.014315
7.310294
7.630551
7.979704
8.353951
8.745474
9.166688
9.632646
10.16202
10.78603
11.55443
12.58108
14.08945
16.57869
21.52498
35.35364
100.7691
99.30494
20.75766
14.74746
13.19082
12.0406
11.00568
10.08684
9.285444
8.592363
7.994685
7.479377
7.03389
6.647108
6.310235
6.021101
5.770263
5.546115
5.349165
5.179296
5.034247
4.911607
4.809396
4.726097
4.660543
4.611816
4.579203
4.562338
4.560747
4.57359
4.601381
4.644224
4.70201
4.7749
4.863572
4.968725
5.091045
5.231283
5.390373
5.5693
5.769081
5.990762
6.235389
6.503946
6.797358
7.116027
7.461923
7.832238
8.224756
8.642401
9.090016
9.575406
10.11238
10.7322
11.49469
12.49432
13.93061
16.27197
20.88895
33.92051
102.1633
100.1911
21.11782
14.24329
12.50934
11.39178
10.42771
9.574277
8.82541
8.172569
7.604999
7.111629
6.681814
6.306112
5.976471
5.687662
5.436727
5.219291
5.028
4.860229
4.715649
4.593138
4.491493
4.409495
4.34607
4.300299
4.271424
4.26042
4.263527
4.282398
4.316838
4.366826
4.432786
4.514737
4.612837
4.727759
4.86027
5.011199
5.181472
5.372097
5.584132
5.818658
6.076738
6.359334
6.667282
7.000852
7.360244
7.745311
8.15533
8.591517
9.050907
9.533531
10.05174
10.631
11.32818
12.26003
13.63434
15.91042
20.43132
33.12154
103.136
95.62546
21.48475
13.99355
12.03429
10.90747
9.991197
9.191164
8.4888
7.873718
7.335488
6.863598
6.448564
6.082512
5.759304
5.473775
5.222585
5.003748
4.81454
4.650744
4.509285
4.389304
4.289957
4.210423
4.149761
4.107126
4.081791
4.073927
4.081392
4.104817
4.144041
4.199041
4.27047
4.358416
4.462735
4.584118
4.723356
4.881333
5.059032
5.257523
5.477938
5.721434
5.989141
6.282104
6.601148
6.947365
7.321596
7.722216
8.145069
8.587633
9.049953
9.533592
10.04745
10.62089
11.31009
12.22909
13.57004
15.7732
20.12769
32.3586
103.7804
98.34537
21.98748
13.82417
11.65625
10.51337
9.638986
8.88943
8.23115
7.65032
7.136894
6.683525
6.283339
5.930088
5.617728
5.341467
5.097345
4.882552
4.695417
4.53386
4.395856
4.27931
4.182948
4.105885
4.047425
4.006897
3.983676
3.977592
3.987481
4.013438
4.055285
4.112984
4.187125
4.277857
4.385163
4.509716
4.652309
4.813855
4.995394
5.198082
5.42318
5.672016
5.945937
6.246231
6.574013
6.930093
7.312499
7.720623
8.154595
8.610821
9.086604
9.577375
10.08135
10.62827
11.28834
12.16383
13.45841
15.61803
19.91284
31.93775
104.248
100.278
22.76723
13.83942
11.42361
10.23022
9.37474
8.661083
8.03825
7.488776
7.002984
6.572302
6.189415
5.848697
5.545865
5.277685
5.040851
4.832086
4.649125
4.490468
4.354936
4.241044
4.147393
4.072681
4.016087
3.976989
3.95488
3.949395
3.959891
3.986309
4.028611
4.086874
4.16164
4.25329
4.361803
4.487697
4.631686
4.794666
4.977687
5.181943
5.408755
5.659535
5.935728
6.238735
6.569807
6.929595
7.318881
7.736365
8.183606
8.658321
9.147279
9.637751
10.13272
10.66263
11.29835
12.15685
13.43534
15.55917
19.76878
31.53569
104.5044
101.3877
23.54161
13.95557
11.28809
10.0263
9.175305
8.490879
7.90243
7.384207
6.923115
6.511319
6.145054
5.82122
5.534718
5.276688
5.042787
4.834917
4.652407
4.493808
4.357955
4.244327
4.151788
4.078652
4.023421
3.985388
3.964035
3.958991
3.969901
3.996541
4.038851
4.096903
4.171011
4.261533
4.368863
4.493584
4.636447
4.798395
4.980549
5.184201
5.410791
5.661885
5.939123
6.244116
6.578295
6.942657
7.340527
7.77409
8.237439
8.719325
9.207672
9.693765
10.18152
10.69933
11.31568
12.14912
13.39753
15.49354
19.66913
31.32774
104.7176
102.0899
24.21066
14.10341
11.20768
9.87809
9.02429
8.361064
7.798948
7.305087
6.866196
6.475522
6.129185
5.821476
5.542175
5.29033
5.065514
4.86425
4.685414
4.528536
4.393758
4.280752
4.188273
4.114975
4.06007
4.022568
4.001426
3.996095
4.006183
4.031892
4.073049
4.129759
4.202283
4.291126
4.396816
4.519909
4.661206
4.821684
5.002518
5.205064
5.430843
5.681492
5.958713
6.264235
6.600326
6.971836
7.381865
7.826951
8.298703
8.785473
9.274563
9.756782
10.23554
10.74102
11.34166
12.15723
13.39148
15.46912
19.60314
31.1296
104.8222
102.5065
24.86167
14.30725
11.20673
9.786334
8.911984
8.257923
7.715673
7.244671
6.827782
6.456995
6.127299
5.830857
5.56422
5.32371
5.107406
4.913031
4.739368
4.586033
4.452846
4.340003
4.24697
4.1729
4.116921
4.078221
4.056062
4.049801
4.058696
4.083018
4.122491
4.177225
4.247515
4.334053
4.437603
4.55866
4.697936
4.856462
5.035449
5.236305
5.460638
5.710189
5.986752
6.294481
6.637954
7.018331
7.434743
7.883574
8.357731
8.845916
9.333895
9.811592
10.28356
10.77985
11.36601
12.16439
13.38446
15.4431
19.55925
31.03427
104.9008
102.7626
25.49918
14.53963
11.22961
9.731364
8.831952
8.179902
7.651506
7.198254
6.799232
6.44463
6.12965
5.848942
5.595543
5.365492
5.156854
4.96885
4.800572
4.651776
4.522058
4.411079
4.318565
4.244064
4.187018
4.146834
4.122934
4.114809
4.121798
4.1441
4.181307
4.233619
4.301484
4.38536
4.486254
4.604948
4.741952
4.898274
5.075101
5.273818
5.49651
5.746247
6.026139
6.338942
6.687103
7.071949
7.492433
7.943996
8.418246
8.90383
9.388695
9.863374
10.32984
10.81632
11.39051
12.17675
13.38495
15.4338
19.53641
30.98067
104.934
102.9731
26.10059
14.79372
11.29675
9.711473
8.778604
8.121102
7.600788
7.161233
6.777485
6.437854
6.136758
5.868388
5.626333
5.406507
5.206634
5.025584
4.86312
4.718782
4.592461
4.483838
4.392696
4.318615
4.261134
4.219812
4.194257
4.184142
4.188982
4.209021
4.243996
4.294009
4.359237
4.439905
4.537325
4.653188
4.788117
4.942734
5.118272
5.316501
5.539697
5.790585
6.072189
6.387501
6.738823
7.126871
7.549878
8.00283
8.477089
8.960827
9.440973
9.908285
10.36698
10.84649
11.41315
12.18916
13.38557
15.4248
19.50632
30.90976
104.9186
103.1968
26.6597
15.05727
11.38677
9.713765
8.744125
8.075815
7.558426
7.128412
6.756802
6.429585
6.139505
5.882526
5.65169
5.441816
5.25066
5.077011
4.920285
4.780489
4.657792
4.552134
4.463051
4.390115
4.332904
4.291055
4.264298
4.252448
4.255263
4.272973
4.305507
4.353009
4.41566
4.49355
4.588087
4.701554
4.83483
4.98827
5.162979
5.360741
5.583951
5.83547
6.118363
6.435475
6.788835
7.178814
7.603206
8.0565
8.529704
9.011046
9.487829
9.95074
10.40309
10.87453
11.43303
12.20183
13.39183
15.42426
19.50501
30.90401
104.8369
103.4633
27.16933
15.32497
11.49401
9.735844
8.724744
8.040573
7.521451
7.097171
6.73483
6.418044
6.138081
5.889006
5.667529
5.467147
5.284153
5.117413
4.966668
4.832031
4.71356
4.61119
4.524609
4.453397
4.397113
4.355414
4.328099
4.315107
4.316409
4.332107
4.362562
4.407877
4.468288
4.54389
4.636101
4.747403
4.879022
5.03138
5.205429
5.402876
5.62612
5.878075
6.161852
6.480281
6.835211
7.226655
7.651933
8.105065
8.576681
9.054762
9.526607
9.983382
10.42935
10.89486
11.44796
12.21108
13.39505
15.42241
19.49134
30.85981
104.7679
103.6573
27.62145
15.58673
11.60962
9.769196
8.715122
8.011449
7.486698
7.064654
6.708641
6.399848
6.12789
5.886336
5.669743
5.476906
5.302689
5.143583
4.999138
4.869703
4.755633
4.656961
4.573445
4.50461
4.449996
4.409244
4.382183
4.368833
4.369336
4.383557
4.412564
4.456299
4.515157
4.589588
4.680286
4.789413
4.919482
5.071183
5.244929
5.442314
5.66579
5.918347
6.203133
6.522915
6.879354
7.272137
7.698173
8.15107
8.621168
9.096357
9.564037
10.01555
10.45542
10.91457
11.46183
12.21999
13.40006
15.42473
19.49015
30.84876
104.6341
103.8113
28.03239
15.84399
11.73145
9.81072
8.711925
7.986038
7.452413
7.029494
6.677089
6.374084
6.108626
5.873487
5.663819
5.474606
5.303598
5.15083
5.013649
4.890561
4.781732
4.687442
4.607602
4.541848
4.489714
4.450805
4.424938
4.412168
4.412724
4.426645
4.455042
4.498022
4.556086
4.629776
4.719717
4.82795
4.957143
5.108283
5.281887
5.479484
5.703459
5.956784
6.242598
6.5636
6.921271
7.314992
7.741282
8.193368
8.661316
9.132928
9.59577
10.04165
10.47577
10.92977
11.47291
12.22772
13.40503
15.42769
19.48966
30.83522
104.5586
104.0247
28.41691
16.09203
11.85321
9.855388
8.712138
7.961915
7.416871
6.990459
6.639236
6.339918
6.079224
5.84904
5.644003
5.460286
5.295527
5.146487
5.012556
4.893688
4.790318
4.701378
4.626139
4.564352
4.515632
4.479583
4.45598
4.444866
4.446468
4.461376
4.490109
4.533242
4.591377
4.665117
4.755045
4.863116
4.992068
5.143097
5.31685
5.514852
5.739455
5.993605
6.280409
6.602486
6.961145
7.355492
7.781706
8.232699
8.698328
9.166365
9.624537
10.065
10.49352
10.94236
11.48131
12.23301
13.40815
15.42922
19.48878
30.82625
104.4296
104.17
28.77804
16.3359
11.97638
9.902622
8.714136
7.937974
7.379348
6.94718
6.595012
6.29753
6.040115
5.813824
5.612866
5.43331
5.272443
5.128289
4.999814
4.886255
4.786535
4.700877
4.629855
4.572738
4.528438
4.496303
4.47607
4.46775
4.471501
4.488159
4.51823
4.562416
4.621431
4.695958
4.786604
4.895207
5.024431
5.175679
5.349797
5.548336
5.773615
6.028548
6.316207
6.639135
6.998476
7.393088
7.818845
8.268382
8.731387
9.195633
9.64906
10.08428
10.50768
10.95223
11.48817
12.23814
13.41276
15.43445
19.49313
30.8253
104.3713
104.3841
29.14087
16.57381
12.09719
9.949233
8.715455
7.912518
7.338803
6.899115
6.544251
6.247046
5.99165
5.768344
5.570891
5.39515
5.238313
5.098476
4.974416
4.865343
4.770755
4.690445
4.623742
4.570419
4.529977
4.502195
4.486174
4.481591
4.488426
4.507729
4.539985
4.586006
4.646616
4.722586
4.814549
4.924186
5.054086
5.205861
5.380539
5.57969
5.805626
6.061253
6.349616
6.673186
7.032959
7.427562
7.8526
8.300472
8.760737
9.221196
9.670004
10.10017
10.51867
10.95905
11.49198
12.24023
13.41393
15.43543
19.4956
30.82134
104.2641
104.4373
29.50635
16.80963
12.21697
9.994919
8.715426
7.884599
7.294487
6.845855
6.48691
6.188761
5.934415
5.713412
5.519069
5.346987
5.194218
5.058779
4.939339
4.835004
4.745106
4.669254
4.607106
4.558483
4.523086
4.499668
4.487781
4.487463
4.498098
4.520777
4.555906
4.604377
4.667118
4.745041
4.839061
4.95027
5.080831
5.233215
5.408708
5.608588
5.835151
6.09135
6.380248
6.704259
7.064238
7.4586
7.882705
8.328747
8.786192
9.242907
9.687285
10.11277
10.5269
10.96379
11.49431
12.24129
13.41631
15.43993
19.5025
30.82511
104.2203
104.5699
29.90354
17.04828
12.33609
10.03969
8.714073
7.854351
7.246615
6.787796
6.423624
6.123564
5.869529
5.650338
5.458837
5.290325
5.141649
5.010671
4.895928
4.796455
4.711535
4.64065
4.583339
4.539262
4.508162
4.489501
4.482637
4.486608
4.501682
4.528175
4.566674
4.618086
4.683413
4.763652
4.859789
4.972842
5.104789
5.258099
5.434271
5.634737
5.861829
6.118505
6.407813
6.732107
7.092116
7.486058
7.909075
8.353188
8.807802
9.260871
9.701035
10.12215
10.53234
10.96621
11.49494
12.24156
13.41688
15.44103
19.50387
30.82566
104.1316
104.7723
30.28818
17.28513
12.45263
10.08076
8.708621
7.819822
7.193987
6.724327
6.354239
6.051656
5.797457
5.579768
5.390966
5.226029
5.081585
4.95533
4.845672
4.751449
4.6718
4.606048
4.553746
4.514477
4.487896
4.473696
4.471347
4.480041
4.499833
4.530515
4.572803
4.627549
4.69581
4.778658
4.877123
4.992191
5.12571
5.280106
5.457021
5.658033
5.88555
6.142571
6.432144
6.756572
7.116461
7.509848
7.931676
8.373821
8.825656
9.275242
9.711473
10.1286
10.5352
10.96638
11.49439
12.24131
13.41705
15.444
19.51172
30.83944
104.0989
105.1053
30.71633
17.52788
12.57132
10.12322
8.702405
7.782932
7.137925
6.656652
6.280067
5.97454
5.719912
5.503604
5.317508
5.156259
5.01623
4.894906
4.790559
4.701798
4.627665
4.567369
4.52036
4.486149
4.464348
4.454654
4.456638
4.469951
4.494177
4.529185
4.575346
4.633565
4.704901
4.790469
4.891332
5.008495
5.143714
5.299286
5.476925
5.678388
5.906202
6.163428
6.453128
6.777556
7.137201
7.529928
7.9505
8.390669
8.839802
9.286086
9.718672
10.1322
10.53551
10.96527
11.49236
12.23961
13.41681
15.44425
19.51266
30.83965
104.0327
105.5244
31.12902
17.7503
12.67339
10.15707
8.690776
7.74159
7.077562
6.584583
6.201384
5.892851
5.637819
5.423009
5.239817
5.08251
4.947178
4.831089
4.732238
4.649168
4.580722
4.526086
4.484543
4.455543
4.438652
4.433536
4.439791
4.457354
4.485814
4.524933
4.574966
4.636666
4.711095
4.799392
4.902654
5.021921
5.158843
5.315567
5.493874
5.695698
5.923693
6.180999
6.470702
6.795015
7.154319
7.546324
7.965636
8.403904
8.850477
9.293662
9.722867
10.13279
10.53396
10.96173
11.4881
12.23583
13.4146
15.4444
19.51845
30.85537
104.0209
105.8827
31.56977
17.993
12.78147
10.19093
8.677412
7.69792
7.014619
6.509814
6.11996
5.808446
5.553091
5.339905
5.159771
5.006575
4.876134
4.76553
4.672453
4.595248
4.532635
4.483692
4.447638
4.423861
4.411874
4.411311
4.421771
4.443357
4.475756
4.518721
4.572389
4.637419
4.714855
4.805808
4.911394
5.032683
5.171228
5.329029
5.507921
5.710004
5.938065
6.195335
6.484934
6.809049
7.167962
7.559218
7.977255
8.41363
8.857734
9.298041
9.723866
10.13144
10.53017
10.95655
11.48256
12.23097
13.41149
15.44426
19.51972
30.85893
103.9899
106.2103
31.97498
18.21165
12.87653
10.21694
8.658306
7.649595
6.947692
6.431553
6.035465
5.721368
5.46608
5.254905
5.078206
4.929485
4.804255
4.699237
4.612016
4.54073
4.484051
4.440865
4.410321
4.391747
4.384616
4.388502
4.403224
4.428627
4.464648
4.511152
4.568207
4.636385
4.716623
4.810064
4.917823
5.040991
5.181027
5.339785
5.519152
5.721387
5.94941
6.206545
6.495952
6.819774
7.178186
7.568614
7.985442
8.420164
8.862073
9.299401
9.722825
10.12776
10.52471
10.95018
11.47608
12.22528
13.40748
15.44268
19.52297
30.87603
104.0076
106.4901
32.40619
18.45128
12.97812
10.24469
8.639838
7.601343
6.880663
6.353229
5.951034
5.634506
5.379447
5.170444
4.997401
4.853439
4.733643
4.634305
4.552858
4.487401
4.436474
4.398884
4.373691
4.36016
4.35773
4.36594
4.384641
4.413659
4.453021
4.502725
4.56283
4.633844
4.716669
4.812422
4.922183
5.047057
5.188418
5.347991
5.527713
5.729995
5.957883
6.214793
6.503931
6.827459
7.185536
7.575467
7.991294
8.424057
8.863436
9.298758
9.71987
10.12279
10.51813
10.94277
11.46877
12.21879
13.40241
15.43972
19.52375
30.8803
104.012
106.7512
32.77749
18.6658
13.06213
10.25718
8.611818
7.546549
6.808964
6.271556
5.86429
5.546207
5.292159
5.086075
4.91726
4.778333
4.663979
4.570435
4.49493
4.43544
4.390308
4.358262
4.338299
4.329642
4.331697
4.344061
4.366478
4.398835
4.44123
4.493788
4.556608
4.630175
4.715344
4.813131
4.924653
5.051013
5.193509
5.353746
5.533707
5.735944
5.96363
6.220285
6.509178
6.832452
7.190083
7.579075
7.993463
8.424946
8.862905
9.296142
9.715113
10.11619
10.51036
10.93454
11.46066
12.2115
13.39681
15.43654
19.5241
30.89479
104.0416
107.057
33.17767
18.90885
13.15728
10.27598
8.587908
7.495512
6.740882
6.193428
5.781117
5.461635
5.208825
5.005807
4.841161
4.707033
4.597898
4.509892
4.440091
4.386247
4.346598
4.319773
4.304706
4.300589
4.306816
4.32298
4.348822
4.384248
4.429384
4.484446
4.549634
4.625432
4.712652
4.812285
4.925381
5.053067
5.196567
5.35737
5.537487
5.739617
5.967025
6.223323
6.51181
6.834574
7.191555
7.579887
7.993471
8.423523
8.859638
9.29098
9.708248
10.10797
10.50113
10.92475
11.4509
12.20253
13.38933
15.43095
19.52263
30.89653
104.0637
107.3961
33.52354
19.12352
13.23554
10.28251
8.554918
7.437777
6.66835
6.113
5.697555
5.378122
5.127428
4.927819
4.767508
4.638384
4.534772
4.452465
4.388319
4.339932
4.305473
4.283535
4.273054
4.273143
4.283196
4.302793
4.331715
4.369908
4.417471
4.474679
4.541902
4.619645
4.708712
4.810032
4.92455
5.053362
5.197708
5.359012
5.539227
5.741121
5.968192
6.224139
6.512297
6.834747
7.19132
7.578873
7.991247
8.419779
8.854199
9.283845
9.699606
10.09823
10.49091
10.91472
11.4415
12.19409
13.38222
15.42571
19.52058
30.90443
104.0876
107.7941
33.85777
19.34016
13.3158
10.2875
8.522035
7.381891
6.599045
6.036509
5.618069
5.298569
5.04985
4.853619
4.697676
4.573587
4.475343
4.398508
4.339768
4.296608
4.267122
4.249818
4.243587
4.247505
4.261007
4.283702
4.315396
4.356067
4.405855
4.465045
4.534084
4.613568
4.704236
4.806926
4.922576
5.052297
5.197324
5.359064
5.539353
5.740984
5.967631
6.223097
6.510755
6.832652
7.18854
7.575227
7.986518
8.413785
8.846852
9.275201
9.689868
10.08769
10.47988
10.90352
11.43049
12.18376
13.37314
15.41815
19.51517
30.90446
104.1001
108.2172
34.17428
19.55277
13.39534
10.29321
8.490729
7.328524
6.532922
5.963847
5.543053
5.224003
4.977643
4.785106
4.63368
4.514562
4.421458
4.349776
4.296076
4.257749
4.232789
4.219655
4.217192
4.224518
4.241068
4.266488
4.300606
4.343432
4.395145
4.456076
4.526697
4.60761
4.699532
4.803279
4.919776
5.050148
5.19563
5.357612
5.537862
5.739152
5.965289
6.220187
6.507288
6.828625
7.183876
7.569759
7.980034
8.406104
8.837912
9.265099
9.678856
10.07613
10.46822
10.89217
11.41973
12.17389
13.36452
15.41143
19.512
30.90632
104.1154
108.6532
34.46661
19.75657
13.47183
10.29782
8.459733
7.276907
6.4699
5.895309
5.472873
5.154757
4.911041
4.722244
4.575231
4.460875
4.372652
4.305793
4.256736
4.222794
4.20189
4.192549
4.193427
4.203772
4.222995
4.250752
4.286914
4.331539
4.38485
4.447213
4.519118
4.601169
4.694071
4.79863
4.915765
5.046609
5.192399
5.354509
5.534688
5.735628
5.961195
6.215492
6.502022
6.822783
7.177377
7.56245
7.971742
8.396712
8.827424
9.253665
9.666746
10.06367
10.45571
10.87984
11.40776
12.16245
13.35381
15.40143
19.50364
30.90687
104.1185
109.0857
34.73226
19.94976
13.54552
10.30223
8.430112
7.227935
6.4106
5.831356
5.407903
5.091123
4.850249
4.665221
4.522504
4.412682
4.329029
4.266626
4.22181
4.191803
4.17452
4.168439
4.172248
4.18516
4.206615
4.236305
4.274146
4.32024
4.374846
4.43836
4.511285
4.594227
4.687886
4.793062
4.910667
5.041843
5.187821
5.349966
5.530021
5.730592
5.955573
6.209257
6.4952
6.815372
7.169303
7.553583
7.961944
8.385909
8.815667
9.241147
9.653768
10.05057
10.44282
10.86741
11.39595
12.15147
13.34394
15.39286
19.49673
30.90207
104.1286
109.5084
34.9739
20.13231
13.61612
10.30713
8.40318
7.183129
6.356472
5.773248
5.349186
5.033921
4.795876
4.614452
4.475747
4.370094
4.29059
4.232192
4.191163
4.164669
4.150574
4.147298
4.153582
4.16863
4.191905
4.223141
4.262301
4.309536
4.365144
4.429541
4.503244
4.586857
4.681076
4.786696
4.904625
5.036006
5.182068
5.344166
5.524039
5.724208
5.94859
6.201655
6.487
6.806563
7.159816
7.543305
7.950767
8.373806
8.802735
9.227614
9.639948
10.03679
10.42933
10.85438
11.38344
12.13956
13.33276
15.38237
19.48686
30.89195
104.1306
109.9255
35.19273
20.3043
13.68443
10.31315
8.379367
7.142823
6.307883
5.721354
5.297035
4.983382
4.748072
4.57002
4.435003
4.333133
4.257354
4.202521
4.164804
4.141343
4.130002
4.129104
4.137447
4.154206
4.178877
4.211252
4.251365
4.299422
4.355755
4.420797
4.495066
4.579163
4.673778
4.779697
4.897822
5.029299
5.175354
5.337329
5.516961
5.716701
5.940488
6.192934
6.477672
6.796609
7.14917
7.53187
7.938472
8.360661
8.78888
9.213311
9.625526
10.02257
10.41557
10.84123
11.371
12.12795
13.32228
15.37361
19.48117
30.89226
104.1376
110.3434
35.39201
20.46659
13.75039
10.32121
8.360197
7.108672
6.266072
5.676519
5.252008
4.939859
4.707042
4.532024
4.400291
4.301762
4.22925
4.177517
4.142675
4.121802
4.112833
4.113865
4.123811
4.141835
4.167466
4.200573
4.241285
4.289874
4.346693
4.412175
4.486832
4.571252
4.666118
4.772208
4.890418
5.021893
5.167854
5.329636
5.50897
5.708252
5.931438
6.183258
6.467368
6.785648
7.137485
7.519377
7.925125
8.346508
8.774092
9.198171
9.610366
10.00769
10.40115
10.82735
11.35761
12.11503
13.30992
15.36211
19.47203
30.89186
104.1443
110.7685
35.57301
20.62003
13.8195
10.32991
8.342486
7.079618
6.230958
5.638978
5.214375
4.90357
4.672939
4.500564
4.371677
4.276025
4.206303
4.157193
4.124761
4.106047
4.098932
4.101495
4.112623
4.131502
4.157688
4.191112
4.23207
4.280934
4.33803
4.403771
4.478651
4.563248
4.658233
4.764376
4.882568
5.01395
5.159738
5.32126
5.500243
5.699038
5.921617
6.172801
6.45626
6.773852
7.124933
7.506002
7.910908
8.331533
8.75857
9.182414
9.594721
9.99245
10.38651
10.81337
11.34424
12.1023
13.298
15.35139
19.46391
30.89293
104.1614
111.2016
35.73681
20.76536
13.89178
10.34212
8.328969
7.056481
6.202801
5.608832
5.184168
4.874487
4.645681
4.475514
4.349003
4.255751
4.188354
4.14142
4.110959
4.093969
4.088276
4.091942
4.103792
4.123001
4.149232
4.182635
4.223624
4.27257
4.32977
4.395613
4.470575
4.555222
4.650212
4.756308
4.874391
5.0056
5.151144
5.312347
5.490928
5.689206
5.911167
6.161699
6.44448
6.761345
7.111631
7.491849
7.895914
8.315814
8.742365
9.166051
9.578546
9.97674
10.3714
10.79885
11.33019
12.0886
13.28463
15.3384
19.45185
30.88452
104.1736
111.6404
35.8866
20.90408
13.96617
10.35694
8.319025
7.03917
6.181682
5.586132
5.161362
4.852528
4.625152
4.456739
4.332131
4.240806
4.175272
4.130077
4.101182
4.085551
4.080866
4.085109
4.097065
4.116033
4.141923
4.175067
4.215916
4.264785
4.321942
4.387752
4.462676
4.547261
4.642157
4.748115
4.866011
4.996975
5.142212
5.303039
5.48117
5.678901
5.900229
6.150089
6.432159
6.748256
7.097707
7.477048
7.880271
8.299478
8.725604
9.149213
9.561986
9.960731
10.35608
10.78418
11.31605
12.0749
13.27142
15.32577
19.44004
30.87307
104.1861
112.08
36.02451
21.0371
14.04427
10.37818
8.317552
7.028623
6.16741
5.570557
5.145719
4.837506
4.611167
4.444043
4.320858
4.231002
4.166916
4.123102
4.095476
4.0808
4.076552
4.080691
4.092118
4.110401
4.135674
4.168383
4.20895
4.257606
4.314591
4.380251
4.455027
4.539453
4.634165
4.739905
4.857543
4.988197
5.133068
5.293465
5.471098
5.668248
5.888922
6.138083
6.419403
6.734686
7.083255
7.461689
7.864064
8.282603
8.708353
9.131952
9.54507
9.944428
10.3405
10.76929
11.3017
12.06099
13.25802
15.31306
19.42859
30.8637
104.1911
112.5172
36.15301
21.16649
14.1254
10.40357
8.319493
7.027107
6.162007
5.562856
5.137075
4.828914
4.603228
4.437113
4.315123
4.226545
4.163749
4.121151
4.094391
4.079928
4.075243
4.07846
4.088783
4.106033
4.130483
4.16261
4.202765
4.251084
4.307784
4.373187
4.447717
4.531894
4.62634
4.731788
4.8491
4.979385
5.123832
5.283748
5.460834
5.657366
5.877359
6.125786
6.406313
6.72073
7.068372
7.445868
7.847392
8.265286
8.690709
9.114354
9.527877
9.927891
10.32472
10.75422
11.28718
12.04689
13.24432
15.30001
19.4172
30.85797
104.1989
112.9511
36.27274
21.29238
14.21071
10.43565
8.32942
7.029462
6.162593
5.562926
5.136928
4.828819
4.603184
4.437166
4.315332
4.227016
4.164735
4.122702
4.096096
4.081253
4.075725
4.077729
4.086699
4.102771
4.126311
4.157765
4.197395
4.245271
4.301583
4.366635
4.440832
4.524677
4.61878
4.723866
4.84079
4.970649
5.114616
5.273994
5.450482
5.646353
5.865627
6.113278
6.392961
6.706457
7.053121
7.429642
7.8303
8.247559
8.672679
9.096402
9.510352
9.911033
10.3086
10.73876
11.27221
12.03224
13.22994
15.28598
19.40409
30.85026
104.2013
113.3842
36.38569
21.41618
14.2992
10.47298
8.346528
7.041016
6.170212
5.568037
5.140663
4.831622
4.605824
4.440205
4.319216
4.232023
4.170778
4.129015
4.101767
4.085609
4.078338
4.078462
4.085853
4.100621
4.123175
4.153874
4.192872
4.240206
4.296041
4.360656
4.434438
4.517875
4.611561
4.716204
4.832683
4.962076
5.105508
5.264293
5.440127
5.635291
5.853806
6.100634
6.379418
6.691934
7.037566
7.413075
7.812851
8.229481
8.654321
9.078152
9.492556
9.893919
10.29223
10.72304
11.25696
12.01732
13.2154
15.2721
19.39161
30.84263
104.2068
113.8195
36.49518
21.53855
14.39255
10.52159
8.369731
7.056781
6.184119
5.580252
5.151607
4.841881
4.615725
4.450068
4.329344
4.24276
4.181548
4.13894
4.110239
4.092129
4.082555
4.08063
4.086202
4.099584
4.121074
4.150932
4.18921
4.235915
4.291186
4.355283
4.428574
4.511531
4.604734
4.70888
4.824887
4.953757
5.096566
5.254698
5.429833
5.624246
5.841957
6.087916
6.365746
6.677227
7.021774
7.396235
7.795114
8.21112
8.635699
9.05966
9.474536
9.876585
10.27562
10.70705
11.24135
12.0019
13.20008
15.25699
19.37704
30.83026
104.2098
114.2589
36.60275
21.65972
14.49097
10.57971
8.400186
7.078384
6.203926
5.598438
5.168446
4.857768
4.63109
4.465374
4.345115
4.258464
4.196244
4.151981
4.121085
4.100427
4.088279
4.084101
4.0878
4.099697
4.120042
4.14897
4.186441
4.232432
4.287061
4.350565
4.423296
4.50571
4.598374
4.701973
4.817418
4.94569
5.087852
5.24529
5.419678
5.613295
5.830158
6.075192
6.352005
6.662384
7.005792
7.379165
7.777131
8.192516
8.616848
9.040955
9.456313
9.859051
10.25881
10.69084
11.22553
11.98624
13.18454
15.24174
19.36321
30.82004
104.2107
114.7025
36.7084
21.77991
14.59435
10.64607
8.437856
7.106162
6.229457
5.622169
5.190738
4.879072
4.651958
4.486459
4.366135
4.278389
4.214302
4.167642
4.133922
4.110285
4.095333
4.088788
4.090551
4.100927
4.120083
4.148
4.184584
4.229785
4.283698
4.346542
4.418648
4.500458
4.592525
4.695521
4.810345
4.937962
5.079429
5.236123
5.409714
5.602486
5.818451
6.062501
6.338232
6.647446
6.98966
7.36191
7.758945
8.173708
8.597802
9.022063
9.437903
9.841316
10.24178
10.67437
11.20939
11.97023
13.1685
15.22567
19.34754
30.80527
104.211
115.15
36.81314
21.89901
14.70217
10.72039
8.483158
7.140486
6.260736
5.65127
5.218312
4.905786
4.678572
4.513077
4.391657
4.301852
4.2352
4.185507
4.148465
4.121542
4.103641
4.094634
4.094433
4.103243
4.121109
4.148001
4.183634
4.227983
4.281119
4.34324
4.414661
4.495808
4.587221
4.689559
4.803705
4.930613
5.071333
5.227236
5.399981
5.591861
5.806876
6.049881
6.324466
6.632451
6.973419
7.344509
7.740598
8.154737
8.578596
9.003012
9.419322
9.823384
10.2245
10.65761
11.19294
11.95388
13.1522
15.20945
19.33182
30.79048
104.2029
115.5992
36.9168
22.01699
14.81403
10.80121
8.535111
7.181127
6.297843
5.685938
5.251401
4.93823
4.711066
4.544512
4.420849
4.328347
4.258518
4.20524
4.164491
4.134081
4.113164
4.101602
4.099459
4.106684
4.123236
4.148945
4.183605
4.227038
4.279336
4.340675
4.411354
4.491782
4.582485
4.68411
4.797525
4.923673
5.063597
5.218659
5.39051
5.581447
5.795456
6.037357
6.310728
6.617422
6.957093
7.32699
7.722115
8.135627
8.559253
8.983819
9.400583
9.805261
10.20699
10.64057
11.17615
11.93713
13.13542
15.19281
19.31545
30.77606
104.1946
116.0494
37.0207
22.13414
14.92915
10.88918
8.596481
7.227495
6.338937
5.725293
5.289793
4.97683
4.748709
4.579738
4.453207
4.357402
4.283827
4.22653
4.181802
4.147776
4.123795
4.109742
4.105638
4.111248
4.126435
4.150941
4.184473
4.226957
4.278353
4.338853
4.408732
4.488385
4.578325
4.679184