/*--------------------------------*- C++ -*----------------------------------*\
| =========                 |                                                 |
| \\      /  F ield         | OpenFOAM: The Open Source CFD Toolbox           |
|  \\    /   O peration     | Version:  2312                                  |
|   \\  /    A nd           | Website:  www.openfoam.com                      |
|    \\/     M anipulation  |                                                 |
\*---------------------------------------------------------------------------*/
FoamFile
{
    version     2.0;
    format      ascii;
    arch        "LSB;label=32;scalar=64";
    class       volVectorField;
    location    "3600";
    object      U;
}
// * * * * * * * * * * * * * * * * * * * * * * * * * * * * * * * * * * * * * //

dimensions      [0 1 -1 0 0 0 0];

internalField   nonuniform List<vector> 
12000
(
(-0.02933155 0.0677979 0)
(-0.07103375 0.06612234 0)
(-0.1168208 0.07453187 0)
(-0.1674082 0.08872083 0)
(-0.219643 0.09285485 0)
(-0.2708501 0.0795265 0)
(-0.3152845 0.06416393 0)
(-0.3555697 0.07436319 0)
(-0.397582 0.09102497 0)
(-0.4419786 0.08624319 0)
(-0.481033 0.0475789 0)
(-0.5072184 0.02826955 0)
(-0.5337457 0.05260696 0)
(-0.5669122 0.07901097 0)
(-0.601466 0.05419449 0)
(-0.6229398 0.01219593 0)
(-0.6376301 0.01660171 0)
(-0.6578779 0.05474848 0)
(-0.6848606 0.05695896 0)
(-0.7043914 0.019014 0)
(-0.7146268 0.0008271785 0)
(-0.7247512 0.02245809 0)
(-0.7408576 0.03880445 0)
(-0.7556027 0.02380445 0)
(-0.764454 0.0040286 0)
(-0.7699808 0.005418704 0)
(-0.7774642 0.01720535 0)
(-0.7859097 0.01830754 0)
(-0.7924423 0.007675599 0)
(-0.795491 -0.0004242961 0)
(-0.7971746 0.00137523 0)
(-0.7993789 0.005693221 0)
(-0.80151 0.004509044 0)
(-0.8019048 -0.00125784 0)
(-0.799715 -0.01751379 0)
(-0.7924382 -0.03578827 0)
(-0.7828994 -0.02171165 0)
(-0.7800802 0.01128273 0)
(-0.7792756 0.0168732 0)
(-0.7754167 -0.01558297 0)
(-0.7618046 -0.0626999 0)
(-0.7375542 -0.05721272 0)
(-0.7275415 0.01319427 0)
(-0.7279717 0.03298317 0)
(-0.7191065 -0.02427602 0)
(-0.6928364 -0.1301688 0)
(-0.6480229 -0.09585476 0)
(-0.6296617 0.02620425 0)
(-0.6237842 0.0724625 0)
(-0.6108425 -0.0511402 0)
(-0.5644986 -0.1767876 0)
(-0.5051295 -0.09880385 0)
(-0.4762914 0.03208555 0)
(-0.4540698 -0.03247235 0)
(-0.3963628 -0.1499822 0)
(-0.3304087 -0.1434916 0)
(-0.2722735 -0.07740582 0)
(-0.2064575 -0.09427213 0)
(-0.12309 -0.1339056 0)
(-0.04532429 -0.1353624 0)
(-0.03432346 0.2091401 0)
(-0.0694659 0.1982516 0)
(-0.1256493 0.2009394 0)
(-0.1666011 0.2042709 0)
(-0.2082867 0.202945 0)
(-0.2461901 0.1940082 0)
(-0.2871471 0.1781957 0)
(-0.3202448 0.1669644 0)
(-0.3573724 0.1535269 0)
(-0.3808027 0.1547087 0)
(-0.4087099 0.1384416 0)
(-0.4394608 0.1248994 0)
(-0.4685272 0.1187041 0)
(-0.4870617 0.1157495 0)
(-0.5018382 0.1059285 0)
(-0.5221988 0.09206893 0)
(-0.5462514 0.0841411 0)
(-0.5626525 0.08133038 0)
(-0.570839 0.07640614 0)
(-0.5811271 0.0664922 0)
(-0.5971959 0.05788109 0)
(-0.6113213 0.05346385 0)
(-0.6184272 0.0500309 0)
(-0.6234142 0.04422458 0)
(-0.631385 0.0374486 0)
(-0.6403386 0.03244283 0)
(-0.6461333 0.0289986 0)
(-0.6487333 0.0251689 0)
(-0.6510273 0.01998272 0)
(-0.6542144 0.01439824 0)
(-0.6570012 0.009868211 0)
(-0.6575557 0.007976529 0)
(-0.6566933 0.002293638 0)
(-0.6539725 -0.004564171 0)
(-0.6523765 -0.009023232 0)
(-0.6527293 -0.01323515 0)
(-0.6535333 -0.01541069 0)
(-0.6480761 -0.01833552 0)
(-0.6356781 -0.02454014 0)
(-0.6237322 -0.03479375 0)
(-0.6198799 -0.04129055 0)
(-0.6198544 -0.04555846 0)
(-0.6106477 -0.05177728 0)
(-0.5839763 -0.05857286 0)
(-0.556529 -0.06915254 0)
(-0.5510697 -0.07779028 0)
(-0.5514004 -0.0872041 0)
(-0.5352271 -0.09940348 0)
(-0.4906961 -0.1078348 0)
(-0.4468316 -0.1200902 0)
(-0.4376237 -0.1310899 0)
(-0.4289479 -0.1531943 0)
(-0.3919867 -0.1779625 0)
(-0.3394378 -0.1913428 0)
(-0.3104425 -0.1986246 0)
(-0.2734781 -0.2298445 0)
(-0.2376548 -0.2644552 0)
(-0.1702751 -0.3235212 0)
(-0.1009495 -0.3523369 0)
(-0.04724437 -0.3643721 0)
(-0.02887516 0.3560933 0)
(-0.0564742 0.3410724 0)
(-0.1016997 0.3341644 0)
(-0.1344831 0.3254585 0)
(-0.1688835 0.3135559 0)
(-0.1988971 0.2980552 0)
(-0.2276452 0.2791969 0)
(-0.2599507 0.2613571 0)
(-0.2817011 0.2579136 0)
(-0.3128099 0.2305993 0)
(-0.3330475 0.2133085 0)
(-0.3570806 0.1966833 0)
(-0.3774686 0.1825671 0)
(-0.3951519 0.1694491 0)
(-0.4109009 0.155178 0)
(-0.426602 0.1414079 0)
(-0.4420582 0.1299253 0)
(-0.4557434 0.1199188 0)
(-0.4674372 0.1093988 0)
(-0.4783883 0.09841497 0)
(-0.4892036 0.08845679 0)
(-0.499088 0.08002264 0)
(-0.5074309 0.07189669 0)
(-0.5146712 0.06336423 0)
(-0.5214007 0.05497926 0)
(-0.5274921 0.04737944 0)
(-0.5324877 0.04030579 0)
(-0.5363202 0.03313282 0)
(-0.5392759 0.02568314 0)
(-0.5414914 0.01829222 0)
(-0.5434752 0.01095032 0)
(-0.5440708 0.005833166 0)
(-0.5434338 -0.003352427 0)
(-0.542173 -0.01127227 0)
(-0.5403937 -0.0192165 0)
(-0.5376052 -0.02712415 0)
(-0.5335357 -0.03434325 0)
(-0.5278782 -0.04155286 0)
(-0.5208456 -0.05008452 0)
(-0.5132915 -0.05991951 0)
(-0.5052928 -0.07046983 0)
(-0.4959356 -0.08092895 0)
(-0.4847585 -0.09083305 0)
(-0.471916 -0.1027177 0)
(-0.4579549 -0.1161513 0)
(-0.442809 -0.131352 0)
(-0.4262975 -0.1459815 0)
(-0.4078366 -0.1598798 0)
(-0.3864663 -0.1765874 0)
(-0.3650647 -0.1948301 0)
(-0.3410344 -0.2145458 0)
(-0.3169949 -0.2284718 0)
(-0.2895262 -0.2399025 0)
(-0.2644307 -0.2619188 0)
(-0.2231851 -0.3137742 0)
(-0.1889264 -0.3529469 0)
(-0.1477086 -0.3931667 0)
(-0.1129332 -0.4406487 0)
(-0.06717089 -0.5024882 0)
(-0.0282825 -0.5291094 0)
(-0.02039952 0.4550849 0)
(-0.04481304 0.4314964 0)
(-0.07624679 0.4202453 0)
(-0.1021909 0.4055624 0)
(-0.1285162 0.3883874 0)
(-0.152377 0.3694246 0)
(-0.175524 0.3496167 0)
(-0.1981176 0.3300577 0)
(-0.2183433 0.3136668 0)
(-0.2339282 0.2972722 0)
(-0.2553629 0.2731085 0)
(-0.2723775 0.2542437 0)
(-0.2923769 0.2310588 0)
(-0.3079068 0.2136293 0)
(-0.3231555 0.197551 0)
(-0.3371606 0.1823834 0)
(-0.3502058 0.1681994 0)
(-0.3624061 0.1546341 0)
(-0.3737865 0.1413983 0)
(-0.3843435 0.1286298 0)
(-0.3939817 0.1164957 0)
(-0.4024697 0.1051263 0)
(-0.4099409 0.09422976 0)
(-0.4165001 0.08364495 0)
(-0.4223078 0.07332678 0)
(-0.4273405 0.06330136 0)
(-0.4315082 0.05352303 0)
(-0.4347984 0.04388152 0)
(-0.4371471 0.03429789 0)
(-0.4392194 0.02469105 0)
(-0.4404632 0.01732105 0)
(-0.440722 0.006310961 0)
(-0.4399189 -0.003891356 0)
(-0.4386851 -0.01395415 0)
(-0.4366058 -0.02406155 0)
(-0.4337634 -0.03432636 0)
(-0.43 -0.04496447 0)
(-0.425123 -0.05599834 0)
(-0.419135 -0.06763761 0)
(-0.4122098 -0.0799494 0)
(-0.404465 -0.09287315 0)
(-0.3956222 -0.1064911 0)
(-0.3860617 -0.1206264 0)
(-0.375378 -0.1359621 0)
(-0.3633235 -0.1524612 0)
(-0.3502135 -0.1700489 0)
(-0.3359779 -0.1889912 0)
(-0.3209069 -0.20947 0)
(-0.3025626 -0.2309917 0)
(-0.2860421 -0.2469474 0)
(-0.2673791 -0.2680798 0)
(-0.2457286 -0.2981206 0)
(-0.2182103 -0.3368739 0)
(-0.1886762 -0.3741718 0)
(-0.1602697 -0.4089928 0)
(-0.1336603 -0.4445071 0)
(-0.1056451 -0.4866765 0)
(-0.07673788 -0.5389261 0)
(-0.0461356 -0.5981971 0)
(-0.01774606 -0.6310285 0)
(-0.01513831 0.5391529 0)
(-0.03590702 0.5100091 0)
(-0.05990667 0.4935687 0)
(-0.08086227 0.4749741 0)
(-0.1019006 0.4539891 0)
(-0.1214406 0.4312759 0)
(-0.140341 0.4073461 0)
(-0.1576106 0.3822844 0)
(-0.1751196 0.356346 0)
(-0.1885611 0.3361336 0)
(-0.2038568 0.3176925 0)
(-0.2147232 0.3020204 0)
(-0.2305987 0.2784338 0)
(-0.2434639 0.2565263 0)
(-0.2561082 0.2365752 0)
(-0.2674778 0.2177444 0)
(-0.2786445 0.2002155 0)
(-0.2879194 0.1863433 0)
(-0.2971157 0.171561 0)
(-0.3056197 0.1558735 0)
(-0.3133577 0.1400181 0)
(-0.3201368 0.1255214 0)
(-0.3262685 0.1119378 0)
(-0.3316012 0.0989043 0)
(-0.3362189 0.08626794 0)
(-0.3401303 0.07394733 0)
(-0.3433445 0.06186554 0)
(-0.34584 0.04993845 0)
(-0.3477554 0.03808869 0)
(-0.3489201 0.02866556 0)
(-0.3493661 0.01603622 0)
(-0.348898 0.003929168 0)
(-0.348089 -0.008116212 0)
(-0.3465601 -0.02027076 0)
(-0.3442784 -0.03260368 0)
(-0.3415772 -0.04516733 0)
(-0.3382252 -0.05826877 0)
(-0.3339216 -0.07189841 0)
(-0.3288283 -0.08611886 0)
(-0.3229339 -0.1010504 0)
(-0.316433 -0.1167889 0)
(-0.3084582 -0.1334295 0)
(-0.3009108 -0.1477005 0)
(-0.2910344 -0.1675034 0)
(-0.281028 -0.1875433 0)
(-0.2697969 -0.2084016 0)
(-0.2579262 -0.2304746 0)
(-0.2445548 -0.2534257 0)
(-0.2313572 -0.2750088 0)
(-0.2175737 -0.2984786 0)
(-0.1976302 -0.3313189 0)
(-0.1785222 -0.3648765 0)
(-0.1593288 -0.3979532 0)
(-0.1406341 -0.4316721 0)
(-0.1211822 -0.4685582 0)
(-0.1006033 -0.5097309 0)
(-0.07869119 -0.5559895 0)
(-0.05693836 -0.6087562 0)
(-0.03385947 -0.6716795 0)
(-0.01293902 -0.7097481 0)
(-0.01110527 0.6024143 0)
(-0.02747789 0.5687506 0)
(-0.04532384 0.5483943 0)
(-0.06113717 0.5272996 0)
(-0.07681369 0.5041344 0)
(-0.0914763 0.4794283 0)
(-0.1056499 0.4538778 0)
(-0.1191748 0.4279911 0)
(-0.1327664 0.4020495 0)
(-0.145749 0.3771654 0)
(-0.1573092 0.353193 0)
(-0.1693058 0.3307178 0)
(-0.1766127 0.3118281 0)
(-0.1883954 0.2885575 0)
(-0.1977577 0.2666305 0)
(-0.2071587 0.2462379 0)
(-0.2159417 0.2269053 0)
(-0.223809 0.2087738 0)
(-0.2307629 0.191383 0)
(-0.2370188 0.1744949 0)
(-0.2428362 0.1579886 0)
(-0.2482599 0.1420288 0)
(-0.2530917 0.1266708 0)
(-0.2573215 0.1118206 0)
(-0.2609567 0.0974022 0)
(-0.2640099 0.08334452 0)
(-0.2664943 0.06958355 0)
(-0.2684168 0.05605969 0)
(-0.2698847 0.04270828 0)
(-0.2705402 0.02951703 0)
(-0.2704978 0.01621355 0)
(-0.2700692 0.00273219 0)
(-0.269352 -0.01094256 0)
(-0.268251 -0.02505992 0)
(-0.2664108 -0.03884128 0)
(-0.2642496 -0.05146122 0)
(-0.2612583 -0.06723572 0)
(-0.2578578 -0.08301243 0)
(-0.2538432 -0.09916564 0)
(-0.249268 -0.1159136 0)
(-0.2441204 -0.1333957 0)
(-0.2384816 -0.1516425 0)
(-0.2318436 -0.1710199 0)
(-0.2243333 -0.1917288 0)
(-0.2164695 -0.2134533 0)
(-0.208168 -0.2364798 0)
(-0.1980451 -0.2603879 0)
(-0.1895018 -0.2834165 0)
(-0.1778541 -0.310873 0)
(-0.1639761 -0.3433236 0)
(-0.1503006 -0.3764363 0)
(-0.1362092 -0.4100672 0)
(-0.1216898 -0.4455246 0)
(-0.1063835 -0.4832166 0)
(-0.09029728 -0.523315 0)
(-0.07372575 -0.5662131 0)
(-0.05696574 -0.6129825 0)
(-0.04042133 -0.6655369 0)
(-0.0239554 -0.7255045 0)
(-0.008558242 -0.7636171 0)
(-0.00817065 0.6514678 0)
(-0.0207794 0.6141247 0)
(-0.03389661 0.5899541 0)
(-0.04553878 0.5661596 0)
(-0.05701096 0.5407842 0)
(-0.0678458 0.5141974 0)
(-0.07837502 0.4870545 0)
(-0.08854194 0.4598923 0)
(-0.09849751 0.4331231 0)
(-0.1081617 0.4072306 0)
(-0.1174277 0.3821947 0)
(-0.1258892 0.3577114 0)
(-0.13504 0.3342268 0)
(-0.1404375 0.3139945 0)
(-0.149162 0.2910516 0)
(-0.1560174 0.2688744 0)
(-0.1628459 0.2479422 0)
(-0.1689714 0.2280258 0)
(-0.1745294 0.2088206 0)
(-0.1795514 0.1902279 0)
(-0.1840946 0.1721649 0)
(-0.1881916 0.1546854 0)
(-0.1918277 0.1377629 0)
(-0.1950002 0.1213479 0)
(-0.197711 0.1053808 0)
(-0.1999651 0.0897977 0)
(-0.2017678 0.07453294 0)
(-0.203122 0.05951976 0)
(-0.2040386 0.04468523 0)
(-0.2045003 0.02998806 0)
(-0.2044632 0.01521234 0)
(-0.2041738 0.0004059847 0)
(-0.2036863 -0.0128667 0)
(-0.2027053 -0.02848365 0)
(-0.2014025 -0.04404994 0)
(-0.1994096 -0.05985324 0)
(-0.1969028 -0.07619362 0)
(-0.1941872 -0.0930406 0)
(-0.1910581 -0.1105069 0)
(-0.187509 -0.1286982 0)
(-0.1835077 -0.1477271 0)
(-0.1790253 -0.1677005 0)
(-0.1740181 -0.1886914 0)
(-0.1684801 -0.2109638 0)
(-0.1626897 -0.2345023 0)
(-0.1553389 -0.2592699 0)
(-0.149459 -0.2843215 0)
(-0.1400934 -0.3136221 0)
(-0.1309391 -0.3448246 0)
(-0.1210518 -0.3771167 0)
(-0.1110693 -0.410712 0)
(-0.1005821 -0.4458483 0)
(-0.08955391 -0.4825733 0)
(-0.07807598 -0.5210361 0)
(-0.06625773 -0.5615491 0)
(-0.05418851 -0.6046555 0)
(-0.04194648 -0.6512947 0)
(-0.0298164 -0.7032145 0)
(-0.01769695 -0.76296 0)
(-0.006284184 -0.8026441 0)
(-0.005846127 0.6877857 0)
(-0.01527411 0.6470782 0)
(-0.02461212 0.6197265 0)
(-0.03296332 0.5942141 0)
(-0.04113871 0.5677709 0)
(-0.04891341 0.5404517 0)
(-0.05650439 0.5127387 0)
(-0.06389574 0.4850362 0)
(-0.0711206 0.457651 0)
(-0.07812964 0.4308181 0)
(-0.08486229 0.4046271 0)
(-0.09130911 0.3791027 0)
(-0.0971811 0.3541265 0)
(-0.1036734 0.3302311 0)
(-0.1072525 0.3089268 0)
(-0.1126696 0.2863734 0)
(-0.1180167 0.2636606 0)
(-0.1227218 0.2421126 0)
(-0.1270287 0.2215438 0)
(-0.1309244 0.2017113 0)
(-0.134429 0.1825377 0)
(-0.1375624 0.1639721 0)
(-0.1403293 0.1459665 0)
(-0.1427361 0.1284694 0)
(-0.1447896 0.1114246 0)
(-0.1464974 0.09477107 0)
(-0.1478675 0.0784439 0)
(-0.1489072 0.06237416 0)
(-0.1496242 0.04648728 0)
(-0.1500291 0.0307075 0)
(-0.1500717 0.01494483 0)
(-0.15003 0.0006210648 0)
(-0.1496046 -0.01542552 0)
(-0.1486887 -0.03163835 0)
(-0.147619 -0.04805897 0)
(-0.1462335 -0.06478621 0)
(-0.1445609 -0.08202944 0)
(-0.1426133 -0.09982553 0)
(-0.1403691 -0.1182845 0)
(-0.1378198 -0.1375144 0)
(-0.1349507 -0.1576323 0)
(-0.1317465 -0.1787582 0)
(-0.1281727 -0.2010161 0)
(-0.1242608 -0.2245223 0)
(-0.1196676 -0.2494364 0)
(-0.115352 -0.2755225 0)
(-0.1092115 -0.3043534 0)
(-0.1032704 -0.3347437 0)
(-0.09681999 -0.3665082 0)
(-0.09003078 -0.3999645 0)
(-0.0827623 -0.4350265 0)
(-0.07498942 -0.4716697 0)
(-0.06674721 -0.5098962 0)
(-0.05810215 -0.5497834 0)
(-0.04914535 -0.5915488 0)
(-0.03998946 -0.6356308 0)
(-0.03075652 -0.6828486 0)
(-0.02164732 -0.7347058 0)
(-0.01276583 -0.7929853 0)
(-0.004466388 -0.8314897 0)
(-0.004176063 0.7148458 0)
(-0.01097964 0.6719372 0)
(-0.01734243 0.6418453 0)
(-0.02285409 0.614455 0)
(-0.02821688 0.5867107 0)
(-0.03334151 0.5584578 0)
(-0.0384084 0.5300402 0)
(-0.04341053 0.5017689 0)
(-0.04835748 0.4738676 0)
(-0.05321434 0.4464817 0)
(-0.0579404 0.4196903 0)
(-0.06250957 0.3935334 0)
(-0.06692631 0.3680506 0)
(-0.07096074 0.3431916 0)
(-0.07541949 0.3194133 0)
(-0.07840608 0.2975526 0)
(-0.08136676 0.2758349 0)
(-0.08497805 0.253763 0)
(-0.08800449 0.2322323 0)
(-0.09093788 0.2113668 0)
(-0.09354863 0.1911503 0)
(-0.09588457 0.1715636 0)
(-0.09795341 0.1525681 0)
(-0.09976365 0.1341167 0)
(-0.1013227 0.1161545 0)
(-0.1026377 0.09862094 0)
(-0.1037154 0.08145045 0)
(-0.1045626 0.06457334 0)
(-0.1051863 0.04791572 0)
(-0.1055925 0.03140034 0)
(-0.1058073 0.01495064 0)
(-0.1057517 -0.0004115426 0)
(-0.105414 -0.01708108 0)
(-0.1049094 -0.03394934 0)
(-0.1042112 -0.0510664 0)
(-0.1033021 -0.06853912 0)
(-0.1021825 -0.08647806 0)
(-0.1008537 -0.1049864 0)
(-0.09930718 -0.1241777 0)
(-0.09753529 -0.1441702 0)
(-0.09552817 -0.1650896 0)
(-0.09327727 -0.1870709 0)
(-0.0907493 -0.2102612 0)
(-0.08809493 -0.2348352 0)
(-0.08476742 -0.2609573 0)
(-0.08175115 -0.2885968 0)
(-0.07797551 -0.3180964 0)
(-0.0741057 -0.3492822 0)
(-0.06981833 -0.3822732 0)
(-0.06508982 -0.4170392 0)
(-0.05987866 -0.45348 0)
(-0.05418603 -0.4914043 0)
(-0.04808861 -0.5306449 0)
(-0.04170646 -0.5711855 0)
(-0.03515311 -0.6132123 0)
(-0.02852612 -0.6571662 0)
(-0.02191563 -0.7038886 0)
(-0.01543181 -0.7549523 0)
(-0.009155363 -0.8124642 0)
(-0.003176742 -0.8519781 0)
(-0.002633587 0.7346192 0)
(-0.007329846 0.6881403 0)
(-0.01125427 0.6550047 0)
(-0.01470746 0.6263062 0)
(-0.01801115 0.5981614 0)
(-0.02123388 0.5699554 0)
(-0.02444621 0.5417403 0)
(-0.02764396 0.5136543 0)
(-0.03082024 0.485825 0)
(-0.03395608 0.4583552 0)
(-0.03705566 0.4313278 0)
(-0.04013718 0.4048275 0)
(-0.04319671 0.3789247 0)
(-0.04621466 0.353662 0)
(-0.04901734 0.3289654 0)
(-0.05188946 0.3050631 0)
(-0.05403577 0.282581 0)
(-0.05572416 0.2606387 0)
(-0.05771792 0.2387158 0)
(-0.05947978 0.2172693 0)
(-0.06117129 0.1964848 0)
(-0.06273035 0.1763953 0)
(-0.0641503 0.1569101 0)
(-0.06542111 0.1379758 0)
(-0.066543 0.1195321 0)
(-0.0675176 0.1015158 0)
(-0.06834975 0.08386189 0)
(-0.06904647 0.06650293 0)
(-0.06961204 0.04936713 0)
(-0.07004352 0.03237941 0)
(-0.07036952 0.0154623 0)
(-0.07048706 -0.0006937108 0)
(-0.07040798 -0.01780785 0)
(-0.0702358 -0.03510583 0)
(-0.06993918 -0.05267754 0)
(-0.0695155 -0.07062269 0)
(-0.06896062 -0.08904767 0)
(-0.06827085 -0.1080607 0)
(-0.06744116 -0.1277758 0)
(-0.06646614 -0.1483111 0)
(-0.06533967 -0.1697882 0)
(-0.06405428 -0.1923304 0)
(-0.06261003 -0.216057 0)
(-0.06096262 -0.2410951 0)
(-0.05925688 -0.267431 0)
(-0.05720546 -0.2956887 0)
(-0.05500262 -0.3260533 0)
(-0.0525342 -0.358292 0)
(-0.04976904 -0.392437 0)
(-0.04660511 -0.4284836 0)
(-0.04296186 -0.4662508 0)
(-0.03882909 -0.5053807 0)
(-0.03434756 -0.5455424 0)
(-0.02968833 -0.5867066 0)
(-0.02495499 -0.6291578 0)
(-0.02019118 -0.6733966 0)
(-0.01545555 -0.720268 0)
(-0.01080993 -0.7712487 0)
(-0.006349661 -0.8280696 0)
(-0.002157552 -0.8665326 0)
(-0.002054168 0.7484273 0)
(-0.005109875 0.6994812 0)
(-0.007653517 0.6645713 0)
(-0.009401065 0.6347798 0)
(-0.01098479 0.6059328 0)
(-0.01243291 0.5771842 0)
(-0.01388239 0.548501 0)
(-0.01536242 0.5199994 0)
(-0.01689628 0.4918273 0)
(-0.01848698 0.4641278 0)
(-0.02008855 0.4371443 0)
(-0.02169304 0.4108743 0)
(-0.02326266 0.3851506 0)
(-0.02478068 0.3599412 0)
(-0.02622994 0.335232 0)
(-0.02762398 0.3109953 0)
(-0.02899945 0.2873704 0)
(-0.029922 0.2647426 0)
(-0.03109827 0.2429037 0)
(-0.0321323 0.2216125 0)
(-0.03344765 0.2007112 0)
(-0.03455797 0.1802785 0)
(-0.03570876 0.1604027 0)
(-0.03678834 0.1410616 0)
(-0.03779966 0.122221 0)
(-0.0387363 0.1038321 0)
(-0.03958855 0.08585231 0)
(-0.040347 0.06820597 0)
(-0.04101376 0.05079233 0)
(-0.04158497 0.03352975 0)
(-0.04209094 0.01633619 0)
(-0.04244074 -0.0003985621 0)
(-0.0426556 -0.01775015 0)
(-0.04281886 -0.03529783 0)
(-0.04290561 -0.05313128 0)
(-0.0429177 -0.07134833 0)
(-0.04285339 -0.09005285 0)
(-0.04271117 -0.1093544 0)
(-0.04248895 -0.1293689 0)
(-0.0421837 -0.1502192 0)
(-0.04179106 -0.1720344 0)
(-0.04130148 -0.1949503 0)
(-0.04072266 -0.2191076 0)
(-0.03990032 -0.244647 0)
(-0.03928116 -0.2717233 0)
(-0.03784776 -0.3007116 0)
(-0.0367508 -0.3314024 0)
(-0.03551679 -0.364151 0)
(-0.03386524 -0.399119 0)
(-0.03186219 -0.436327 0)
(-0.02935159 -0.4755955 0)
(-0.0264096 -0.515907 0)
(-0.02322464 -0.5566027 0)
(-0.0199426 -0.597888 0)
(-0.01668917 -0.6402752 0)
(-0.01346396 -0.6842786 0)
(-0.01029328 -0.7307543 0)
(-0.007207337 -0.7812005 0)
(-0.004269549 -0.8374463 0)
(-0.001480217 -0.8765086 0)
(-0.000861588 0.7591636 0)
(-0.002614495 0.7063492 0)
(-0.002546463 0.6679861 0)
(-0.00252605 0.6365818 0)
(-0.002274444 0.6072695 0)
(-0.002136656 0.5787069 0)
(-0.002175606 0.5505607 0)
(-0.002427775 0.5227667 0)
(-0.002938558 0.4953152 0)
(-0.003472453 0.4681488 0)
(-0.004558275 0.4411397 0)
(-0.005345762 0.4144374 0)
(-0.006366738 0.388227 0)
(-0.007426389 0.3625588 0)
(-0.008519112 0.3375598 0)
(-0.009607152 0.3132626 0)
(-0.01055302 0.289645 0)
(-0.01165915 0.2668252 0)
(-0.01229916 0.2449013 0)
(-0.01299402 0.2236607 0)
(-0.01324426 0.2030373 0)
(-0.01387885 0.182862 0)
(-0.01445529 0.1631586 0)
(-0.01512243 0.1439169 0)
(-0.01583965 0.1251044 0)
(-0.01656499 0.1066609 0)
(-0.01736407 0.08849446 0)
(-0.0180864 0.07058784 0)
(-0.01880414 0.05291364 0)
(-0.01947798 0.03540547 0)
(-0.02013069 0.01798738 0)
(-0.02068979 0.0008103279 0)
(-0.02116359 -0.01670463 0)
(-0.02162731 -0.03441861 0)
(-0.0220499 -0.052418 0)
(-0.02243696 -0.07079683 0)
(-0.02278645 -0.08966334 0)
(-0.02309785 -0.1091282 0)
(-0.023371 -0.1293093 0)
(-0.02360541 -0.1503322 0)
(-0.02379986 -0.1723317 0)
(-0.02395155 -0.1954521 0)
(-0.02405543 -0.2198503 0)
(-0.02410624 -0.2456877 0)
(-0.02402548 -0.2731969 0)
(-0.02400628 -0.3023827 0)
(-0.02378914 -0.3333742 0)
(-0.02294671 -0.3667775 0)
(-0.02221611 -0.4028479 0)
(-0.02093633 -0.4414747 0)
(-0.01934202 -0.4818663 0)
(-0.01746385 -0.5229839 0)
(-0.0153756 -0.5640336 0)
(-0.01318133 -0.6053094 0)
(-0.01099576 -0.6476765 0)
(-0.008864739 -0.6916906 0)
(-0.006759303 -0.7381982 0)
(-0.004702007 -0.7886356 0)
(-0.002745357 -0.8446466 0)
(-0.000916596 -0.88322 0)
(-0.0007339216 0.7639768 0)
(-0.0008931336 0.7074535 0)
(-0.0006072396 0.6671969 0)
(0.000341542 0.6353107 0)
(0.001313424 0.6059577 0)
(0.002360902 0.5775748 0)
(0.003386694 0.549707 0)
(0.004380084 0.5222019 0)
(0.005298348 0.4949677 0)
(0.006090107 0.4680778 0)
(0.006882387 0.4418271 0)
(0.007055904 0.416064 0)
(0.006985869 0.3908905 0)
(0.006666142 0.3661027 0)
(0.00590207 0.3414171 0)
(0.005232766 0.31693 0)
(0.004416335 0.2930031 0)
(0.003596536 0.2696653 0)
(0.002820438 0.2469018 0)
(0.002161193 0.2248952 0)
(0.001449894 0.2038645 0)
(0.000972235 0.1837437 0)
(0.0005012387 0.1641877 0)
(6.796151e-05 0.1450773 0)
(-0.0003656863 0.1263864 0)
(-0.000830393 0.1080804 0)
(-0.001252592 0.090096 0)
(-0.001810961 0.07233018 0)
(-0.002381711 0.05474115 0)
(-0.002995988 0.03727066 0)
(-0.003646817 0.01985328 0)
(-0.00428519 0.002471603 0)
(-0.004913833 -0.01506337 0)
(-0.00555521 -0.03279814 0)
(-0.006220783 -0.05084208 0)
(-0.006869958 -0.06927884 0)
(-0.007520328 -0.08820676 0)
(-0.008163347 -0.1077342 0)
(-0.008799115 -0.1279773 0)
(-0.009427084 -0.1490617 0)
(-0.01004637 -0.1711232 0)
(-0.01065625 -0.1943088 0)
(-0.01125688 -0.2187844 0)
(-0.01185581 -0.2447254 0)
(-0.01242625 -0.2722893 0)
(-0.01293079 -0.301887 0)
(-0.0131375 -0.3339479 0)
(-0.01332526 -0.3683868 0)
(-0.01279335 -0.4052759 0)
(-0.01222881 -0.4444512 0)
(-0.0115388 -0.4853529 0)
(-0.01047899 -0.5271783 0)
(-0.00924805 -0.5688462 0)
(-0.007905333 -0.610318 0)
(-0.006541967 -0.6525403 0)
(-0.005244913 -0.6963955 0)
(-0.003975436 -0.742685 0)
(-0.002754892 -0.7928219 0)
(-0.001619894 -0.8484624 0)
(-0.0005679561 -0.887317 0)
(-0.0004267272 0.7680875 0)
(-0.000253957 0.7073291 0)
(0.001015908 0.6650549 0)
(0.002627401 0.6319061 0)
(0.004455996 0.6019851 0)
(0.006300936 0.5733486 0)
(0.008079345 0.5453975 0)
(0.009736936 0.5179664 0)
(0.01127178 0.4911106 0)
(0.01243819 0.4649615 0)
(0.01356527 0.4393839 0)
(0.01443932 0.4144639 0)
(0.0151746 0.3899869 0)
(0.01565753 0.3657049 0)
(0.01624748 0.3416161 0)
(0.01631785 0.3179131 0)
(0.01613505 0.2945408 0)
(0.01591784 0.2715288 0)
(0.01551159 0.2491167 0)
(0.01501828 0.2273594 0)
(0.01446336 0.2062177 0)
(0.01390992 0.1856777 0)
(0.0133731 0.1657686 0)
(0.01284799 0.1464844 0)
(0.01232275 0.1277594 0)
(0.01177774 0.1094475 0)
(0.01119252 0.09148158 0)
(0.01060148 0.073819 0)
(0.009960106 0.05635343 0)
(0.00928663 0.03900763 0)
(0.008576724 0.02170015 0)
(0.007850423 0.00435451 0)
(0.007085011 -0.01304871 0)
(0.006257791 -0.03073035 0)
(0.005421318 -0.04871846 0)
(0.004548771 -0.06711547 0)
(0.003659959 -0.0860148 0)
(0.002751252 -0.1055207 0)
(0.00182438 -0.1257466 0)
(0.0008792834 -0.1468179 0)
(-8.28307e-05 -0.1688716 0)
(-0.001073957 -0.1920518 0)
(-0.002086197 -0.2165047 0)
(-0.003095714 -0.242408 0)
(-0.004031595 -0.2701604 0)
(-0.004850928 -0.3001931 0)
(-0.00553211 -0.3327193 0)
(-0.005993826 -0.3679001 0)
(-0.006362016 -0.4055708 0)
(-0.006432894 -0.4454208 0)
(-0.006035469 -0.4870554 0)
(-0.005670067 -0.5294049 0)
(-0.005060851 -0.5714402 0)
(-0.004331186 -0.6130327 0)
(-0.003546736 -0.6552072 0)
(-0.002826486 -0.6990506 0)
(-0.002123538 -0.7453468 0)
(-0.0014547 -0.7954901 0)
(-0.0008376441 -0.8510888 0)
(-0.0002838995 -0.889842 0)
(-0.0001448964 0.7705972 0)
(0.0004806301 0.7057106 0)
(0.002405559 0.6607009 0)
(0.004664698 0.6265037 0)
(0.007159016 0.5962967 0)
(0.009631827 0.567813 0)
(0.01199777 0.5402785 0)
(0.01418438 0.5134233 0)
(0.01616819 0.4871629 0)
(0.01793573 0.4614268 0)
(0.01950503 0.4362386 0)
(0.02083942 0.4116694 0)
(0.02196764 0.3875228 0)
(0.02286882 0.3636834 0)
(0.02351864 0.340262 0)
(0.02398652 0.3171552 0)
(0.02456585 0.2942744 0)
(0.02458651 0.2717899 0)
(0.02463278 0.2497017 0)
(0.02446055 0.2281829 0)
(0.0241732 0.2072887 0)
(0.02378109 0.1870112 0)
(0.02330403 0.167308 0)
(0.02276475 0.148135 0)
(0.02218583 0.1294556 0)
(0.021573 0.1112286 0)
(0.02092556 0.09340766 0)
(0.02023877 0.07587301 0)
(0.01950797 0.05849725 0)
(0.01872483 0.04121999 0)
(0.0178881 0.02397831 0)
(0.01699329 0.006697635 0)
(0.01607101 -0.01054091 0)
(0.01508246 -0.0280649 0)
(0.0140246 -0.04597947 0)
(0.01294307 -0.0642974 0)
(0.01182839 -0.08312014 0)
(0.01068337 -0.1025505 0)
(0.009503171 -0.1227003 0)
(0.008282459 -0.1436918 0)
(0.007020859 -0.1656493 0)
(0.00573495 -0.1886879 0)
(0.00445052 -0.2130981 0)
(0.003213255 -0.2392507 0)
(0.002066082 -0.2673874 0)
(0.001041947 -0.2977703 0)
(0.0001413416 -0.3306463 0)
(-0.0006269315 -0.3661792 0)
(-0.001271613 -0.4044213 0)
(-0.001716678 -0.4450752 0)
(-0.002091951 -0.4873089 0)
(-0.002171666 -0.5301787 0)
(-0.001899446 -0.5728186 0)
(-0.00159831 -0.614713 0)
(-0.001236515 -0.65681 0)
(-0.0009199518 -0.7005309 0)
(-0.000634456 -0.7466703 0)
(-0.0003889002 -0.7966224 0)
(-0.000195543 -0.8520092 0)
(-7.80464e-05 -0.8909187 0)
(-6.993619e-05 0.7714924 0)
(0.0009739975 0.7021913 0)
(0.00330775 0.6546476 0)
(0.005996188 0.6193226 0)
(0.008944625 0.5887486 0)
(0.01188319 0.5603314 0)
(0.01472704 0.5331231 0)
(0.01740299 0.5067515 0)
(0.01987666 0.4810702 0)
(0.02212055 0.4560176 0)
(0.02411738 0.4315877 0)
(0.02585194 0.4078157 0)
(0.0273185 0.3845077 0)
(0.02852455 0.3613864 0)
(0.02947688 0.3383687 0)
(0.03028104 0.3155653 0)
(0.03070165 0.2932089 0)
(0.03123833 0.2712565 0)
(0.03128671 0.2498015 0)
(0.03128055 0.2287958 0)
(0.03106607 0.2082842 0)
(0.03071679 0.1882865 0)
(0.03025314 0.1687977 0)
(0.02969933 0.1497986 0)
(0.02907488 0.1312569 0)
(0.02839348 0.1131274 0)
(0.02766863 0.09536095 0)
(0.02690075 0.07790138 0)
(0.02608671 0.06068277 0)
(0.02521723 0.04363439 0)
(0.02429003 0.02662985 0)
(0.02329862 0.009551119 0)
(0.02225676 -0.00765912 0)
(0.02114581 -0.02488392 0)
(0.01992446 -0.042674 0)
(0.01866304 -0.06088984 0)
(0.0173591 -0.0796159 0)
(0.01601594 -0.09894075 0)
(0.01463257 -0.1189543 0)
(0.01321075 -0.1397907 0)
(0.01175491 -0.1616581 0)
(0.01029607 -0.1847743 0)
(0.008862736 -0.2093586 0)
(0.007488827 -0.2356832 0)
(0.00619213 -0.2640557 0)
(0.00500021 -0.294765 0)
(0.003933794 -0.3280201 0)
(0.003001611 -0.3639158 0)
(0.002195405 -0.4024012 0)
(0.001498207 -0.4432596 0)
(0.000910908 -0.4860156 0)
(0.0005077767 -0.5296888 0)
(0.0001901193 -0.5729136 0)
(0.0001005015 -0.6149738 0)
(5.247003e-05 -0.6570739 0)
(3.039609e-05 -0.7007969 0)
(8.824828e-06 -0.7469377 0)
(-5.735711e-06 -0.7968919 0)
(-2.168277e-05 -0.8522737 0)
(-3.841398e-05 -0.8911392 0)
(-9.969043e-06 0.7721356 0)
(0.001261353 0.6980174 0)
(0.003827131 0.6478093 0)
(0.00680843 0.6112983 0)
(0.01004725 0.5803345 0)
(0.01328786 0.5519854 0)
(0.01643297 0.5251174 0)
(0.01940676 0.4992504 0)
(0.02216852 0.4741707 0)
(0.02469228 0.4497813 0)
(0.02696403 0.4260463 0)
(0.02899273 0.4029575 0)
(0.03076498 0.3803418 0)
(0.03227722 0.3579645 0)
(0.03349693 0.3357384 0)
(0.03443467 0.3136951 0)
(0.03513603 0.2919133 0)
(0.03552103 0.2705451 0)
(0.03582737 0.2495967 0)
(0.03584668 0.2290882 0)
(0.03569329 0.2090496 0)
(0.03535777 0.1894678 0)
(0.03487447 0.1703189 0)
(0.03427294 0.1515831 0)
(0.03358004 0.1332469 0)
(0.03281527 0.1152947 0)
(0.03199019 0.09769568 0)
(0.03110996 0.08039074 0)
(0.03017639 0.06330072 0)
(0.02919572 0.04634137 0)
(0.02817005 0.02942867 0)
(0.02710241 0.01249473 0)
(0.02596971 -0.004485228 0)
(0.02475584 -0.02139835 0)
(0.02343961 -0.03895671 0)
(0.02205653 -0.05702373 0)
(0.02062873 -0.07562329 0)
(0.01915879 -0.09483109 0)
(0.01765286 -0.1147595 0)
(0.01612119 -0.1355541 0)
(0.01457704 -0.1573997 0)
(0.01303726 -0.1805238 0)
(0.01152472 -0.2051987 0)
(0.0100695 -0.2317212 0)
(0.008700055 -0.260377 0)
(0.007438343 -0.2914189 0)
(0.006298218 -0.3250376 0)
(0.005287536 -0.3613249 0)
(0.004410933 -0.4002253 0)
(0.003669241 -0.4414728 0)
(0.003054631 -0.4844841 0)
(0.002549685 -0.5283243 0)
(0.002155075 -0.5718723 0)
(0.00186632 -0.6143438 0)
(0.001635323 -0.6566508 0)
(0.001404521 -0.7004103 0)
(0.001138291 -0.7465627 0)
(0.0008502294 -0.7965096 0)
(0.0005253129 -0.8518931 0)
(0.0001602219 -0.8909419 0)
(-4.072559e-05 0.7721391 0)
(0.001382932 0.6931453 0)
(0.004078938 0.640264 0)
(0.007213255 0.6025434 0)
(0.01061801 0.571173 0)
(0.01403774 0.5428832 0)
(0.01736808 0.5163596 0)
(0.02052921 0.4910154 0)
(0.02347642 0.4665669 0)
(0.02618349 0.4428673 0)
(0.02863721 0.4198349 0)
(0.0308515 0.3974177 0)
(0.03281952 0.3755473 0)
(0.03452215 0.3539921 0)
(0.03593571 0.3325741 0)
(0.03704256 0.3113212 0)
(0.03786706 0.2902938 0)
(0.03840486 0.2695543 0)
(0.03871362 0.2492087 0)
(0.03873743 0.2293415 0)
(0.03856304 0.2098767 0)
(0.0381815 0.1907792 0)
(0.03763263 0.1720245 0)
(0.03694635 0.1535986 0)
(0.03615309 0.1354991 0)
(0.03527834 0.1177279 0)
(0.03434033 0.1002769 0)
(0.03334898 0.08311296 0)
(0.03230728 0.06617239 0)
(0.03121597 0.04936622 0)
(0.03007667 0.03259715 0)
(0.02889395 0.01579913 0)
(0.02765652 -0.001008756 0)
(0.02636942 -0.01767112 0)
(0.02498837 -0.03500848 0)
(0.02354091 -0.05292067 0)
(0.02204816 -0.07140117 0)
(0.02052159 -0.09050688 0)
(0.01896941 -0.1103488 0)
(0.01740077 -0.1310885 0)
(0.01582926 -0.1529349 0)
(0.01427359 -0.1761335 0)
(0.01275623 -0.2009561 0)
(0.01130008 -0.2276899 0)
(0.00992629 -0.2566152 0)
(0.008652535 -0.2879743 0)
(0.007490898 -0.3219385 0)
(0.006446568 -0.3585768 0)
(0.005518538 -0.3978236 0)
(0.004703576 -0.4394307 0)
(0.004000794 -0.4828418 0)
(0.003410934 -0.527088 0)
(0.002923938 -0.5709232 0)
(0.002518839 -0.6135038 0)
(0.002144938 -0.6557686 0)
(0.001769536 -0.6994083 0)
(0.001373994 -0.7454543 0)
(0.0009751451 -0.7953047 0)
(0.0005701407 -0.8505966 0)
(0.0001569917 -0.8895818 0)
(-8.891555e-05 0.7721406 0)
(0.001359211 0.6881779 0)
(0.004103 0.6325494 0)
(0.007281788 0.5935614 0)
(0.01074758 0.5617422 0)
(0.01423884 0.5334833 0)
(0.0176486 0.507287 0)
(0.02089375 0.4824551 0)
(0.02392737 0.4586297 0)
(0.02672166 0.4356109 0)
(0.02926407 0.4132748 0)
(0.03155441 0.3915359 0)
(0.03360892 0.3703219 0)
(0.0354129 0.3495334 0)
(0.03693831 0.328982 0)
(0.03815447 0.3085696 0)
(0.03905024 0.288366 0)
(0.03965258 0.2684544 0)
(0.03994241 0.2488977 0)
(0.04000421 0.2296939 0)
(0.0398037 0.2108279 0)
(0.03939337 0.1922628 0)
(0.03879286 0.1739587 0)
(0.03803647 0.155894 0)
(0.03715772 0.1380722 0)
(0.03618663 0.120512 0)
(0.03514616 0.1032263 0)
(0.03405107 0.08620125 0)
(0.03290904 0.06938619 0)
(0.03172312 0.05269879 0)
(0.03049365 0.03604559 0)
(0.02921961 0.01936278 0)
(0.02789497 0.002681816 0)
(0.02658473 -0.01381032 0)