# Region type : patch plate
# Faces        : 200
# Area         : 6.7000000e-01
# Scale factor : 1.0000000e+00
# Time         	areaAverage(T)
2600           	5.5795602e+02
2700           	5.4831993e+02
2800           	5.5886470e+02
2900           	5.5955872e+02
3000           	5.5021050e+02
3100           	5.5866963e+02
3200           	5.5858893e+02
