/*--------------------------------*- C++ -*----------------------------------*\
| =========                 |                                                 |
| \\      /  F ield         | OpenFOAM: The Open Source CFD Toolbox           |
|  \\    /   O peration     | Version:  2312                                  |
|   \\  /    A nd           | Website:  www.openfoam.com                      |
|    \\/     M anipulation  |                                                 |
\*---------------------------------------------------------------------------*/
FoamFile
{
    version     2.0;
    format      ascii;
    arch        "LSB;label=32;scalar=64";
    class       volScalarField;
    location    "4350";
    object      alphat;
}
// * * * * * * * * * * * * * * * * * * * * * * * * * * * * * * * * * * * * * //

dimensions      [1 -1 -1 0 0 0 0];

internalField   nonuniform List<scalar> 
12000
(
3.215005e-05
0.0001517711
0.0001676209
0.0001877678
0.0001996136
0.0001951419
0.000184374
0.0001804635
0.0001920518
0.0002010048
0.0001962462
0.00019366
0.0001838635
0.0001718881
0.0001805474
0.0002049608
0.0001947345
0.0001632941
0.0001600858
0.0001906771
0.0002042433
0.0001698074
0.0001521758
0.0001680461
0.0001895257
0.0001769301
0.0001606341
0.000162591
0.0001697566
0.0001696342
0.0001685847
0.0001669236
0.0001625642
0.0001583016
0.0001589503
0.0001700613
0.0001803666
0.0001640916
0.0001424754
0.0001397528
0.0001672511
0.000213832
0.0001796978
0.0001246649
0.0001160661
0.0001609901
0.0002723711
0.000174808
0.0001033202
0.0001131056
0.0001930991
0.0002057354
0.0001093576
0.0001047125
0.0001354965
0.0001250881
9.295572e-05
7.716481e-05
7.037458e-05
5.746274e-05
1.933686e-05
0.0001943458
0.0002170285
0.0002618186
0.000304487
0.0003414358
0.0003922879
0.0004507308
0.0005123217
0.0005680382
0.0006313216
0.0006996758
0.0007730708
0.0008542039
0.0009275831
0.0009833674
0.001050586
0.001149459
0.001244494
0.001293572
0.001335638
0.001429373
0.001545206
0.001609475
0.001632195
0.001687652
0.001773961
0.001837373
0.001870194
0.001903034
0.001936794
0.001966725
0.002004282
0.002027268
0.002038871
0.002030262
0.002016889
0.002022173
0.002028727
0.002009835
0.001947383
0.001871604
0.001566431
0.001563697
0.001759436
0.001636963
0.001506535
0.001052411
0.001161483
0.001245624
0.001084545
0.0009585767
0.0008106783
0.0007139729
0.0005865746
0.0004548736
0.0003163837
0.0001939027
0.0001006695
5.35994e-05
2.776894e-05
0.0002514036
0.0003446768
0.0004221559
0.0005218274
0.000633486
0.0007616266
0.0008978413
0.001040826
0.001182269
0.001329222
0.001473035
0.001617459
0.001758896
0.001895131
0.00202316
0.002149155
0.002273125
0.002387617
0.002489623
0.002587054
0.002683508
0.002772676
0.002848633
0.002916571
0.002981663
0.003041555
0.003093088
0.003137596
0.003175791
0.003211137
0.003239601
0.003264809
0.003283904
0.003297086
0.003303628
0.003304497
0.003299796
0.003288878
0.003271081
0.003246559
0.003214841
0.003172508
0.003119057
0.003054855
0.00298753
0.002777423
0.002597341
0.002513625
0.002332386
0.002229587
0.001917073
0.001723704
0.001418479
0.001203006
0.001115755
0.0007889218
0.0004408942
0.0001637626
5.29403e-05
2.834586e-05
0.0002784845
0.0004263133
0.0005527848
0.0007157344
0.0008984844
0.001096391
0.00130274
0.001513007
0.001727787
0.00193939
0.00214158
0.002321729
0.00251345
0.002679664
0.002835191
0.002980162
0.003114544
0.003238078
0.003351449
0.003455945
0.003552161
0.003640135
0.003720166
0.003792963
0.003858852
0.003917904
0.003969846
0.004015899
0.004055954
0.004088647
0.004114837
0.004135578
0.004149662
0.004156265
0.00415503
0.004146169
0.004129027
0.004103079
0.004067781
0.004022368
0.003965788
0.003896854
0.003814326
0.003717558
0.003606662
0.003478549
0.003331361
0.003163446
0.002974022
0.002650214
0.002136464
0.0019841
0.001781922
0.001676623
0.001338028
0.00097302
0.0005922228
0.0002424326
5.35768e-05
2.843238e-05
0.0003098449
0.0005151551
0.0006941645
0.0009127783
0.001151784
0.0014033
0.001659697
0.001914964
0.002164402
0.002406726
0.002637381
0.002856344
0.00305746
0.003239094
0.003404576
0.003557085
0.003697836
0.003828213
0.003948858
0.004060341
0.004163307
0.004258368
0.004346007
0.004426468
0.004499823
0.00456614
0.004623993
0.004677579
0.004722336
0.004759448
0.004789644
0.004812578
0.004827886
0.004835364
0.004835156
0.00482632
0.004808622
0.004781677
0.00474506
0.004698266
0.004640728
0.004571542
0.004489487
0.004394301
0.00428305
0.004155666
0.004009393
0.003843008
0.003544992
0.003048433
0.00297962
0.002810222
0.002500141
0.002138574
0.001722681
0.001248333
0.0007492084
0.0002966078
5.327077e-05
2.898302e-05
0.0003254997
0.0005905759
0.0008142726
0.001073491
0.00135302
0.00164284
0.00193414
0.002219087
0.002491944
0.002749479
0.002990766
0.003217728
0.003432872
0.003633887
0.003818757
0.00398587
0.004138969
0.004280413
0.004411348
0.004532514
0.004644618
0.004748276
0.004843925
0.004931812
0.005012046
0.005084609
0.005149258
0.005206938
0.005256297
0.005297735
0.005330907
0.005355875
0.005372172
0.005378777
0.00537582
0.005362895
0.005339644
0.0053055
0.005259904
0.005202262
0.005131889
0.005047991
0.004949618
0.004835364
0.004703333
0.004551683
0.004380584
0.004187957
0.003967408
0.003713544
0.003423517
0.003098293
0.002735605
0.002330852
0.001880347
0.00138576
0.0008591681
0.0003562547
5.339632e-05
2.976299e-05
0.0003368666
0.0006537701
0.0009163795
0.001204872
0.001510437
0.001821943
0.002131139
0.002432308
0.002721535
0.002997213
0.003256967
0.003497384
0.003719405
0.003925292
0.004115663
0.004292981
0.004457216
0.00460979
0.004751997
0.004884775
0.005008798
0.00512452
0.005232201
0.005331926
0.005423643
0.005505311
0.005581257
0.005647981
0.005705469
0.005753594
0.00579188
0.005820464
0.005838741
0.005846389
0.005843169
0.005828505
0.005802061
0.005763497
0.005712426
0.005648394
0.005570848
0.005479096
0.005372247
0.005249172
0.005108538
0.004949446
0.004768945
0.004564437
0.0043304
0.004064067
0.00376217
0.003419696
0.003030825
0.002590318
0.002094731
0.001544973
0.0009564516
0.0003957786
5.337843e-05
3.048603e-05
0.0003431112
0.0007030203
0.0009976676
0.001304234
0.001623653
0.00195024
0.002276237
0.002591639
0.002892474
0.003175403
0.003439843
0.003687576
0.003918266
0.00413304
0.004334388
0.004524111
0.004702232
0.00486932
0.005026293
0.005173936
0.005312783
0.005443113
0.005564989
0.005678308
0.005782742
0.005877957
0.005964452
0.006040878
0.006106784
0.006161805
0.006205747
0.006238754
0.006260011
0.006268983
0.006265249
0.006248403
0.006218086
0.006173941
0.006115586
0.006042583
0.005954418
0.005850479
0.005730034
0.005592082
0.005435791
0.005259638
0.00506016
0.004835639
0.004581344
0.004293859
0.003970292
0.003605627
0.003194812
0.002733249
0.00221738
0.001647173
0.001034249
0.0004385716
5.341474e-05
3.230883e-05
0.0003493871
0.0007367457
0.001058434
0.001379188
0.001711771
0.002046246
0.002375164
0.002695038
0.003001211
0.003291341
0.003564833
0.003822137
0.004063931
0.004291314
0.004505598
0.004708696
0.004901892
0.005085351
0.005259337
0.00542427
0.005580239
0.005727111
0.005864643
0.005992454
0.006107817
0.00621481
0.006311927
0.006398406
0.006473567
0.006536739
0.006587218
0.006624859
0.006648967
0.006658999
0.006654514
0.006635128
0.006600498
0.006550302
0.006484209
0.006401852
0.006302772
0.006186506
0.006052646
0.00590093
0.005730459
0.005537765
0.00532151
0.005080337
0.004812398
0.00451353
0.004176397
0.003796764
0.003368025
0.002884749
0.002342455
0.001741061
0.001094096
0.0004659377
5.339299e-05
3.193947e-05
0.0003603975
0.0007625706
0.001106486
0.001440224
0.001775766
0.002111972
0.002443305
0.00276567
0.003075902
0.003372254
0.003654147
0.003921777
0.004175785
0.004417113
0.004646836
0.004865969
0.005075004
0.005274358
0.005463582
0.005641675
0.005811588
0.00597281
0.006124909
0.006267465
0.006398884
0.006521573
0.006631711
0.006729032
0.006813076
0.006883293
0.00693923
0.006980605
0.007006699
0.007016931
0.007010821
0.006987971
0.006948049
0.006890787
0.006815982
0.006723508
0.006612532
0.006482011
0.006332207
0.006162684
0.00597284
0.005762241
0.005530392
0.005273625
0.004989006
0.004672993
0.004321654
0.003927453
0.003482535
0.002983891
0.002426494
0.001809758
0.001145356
0.0004944528
5.3381e-05
3.138985e-05
0.0003532115
0.0007718927
0.001134506
0.001475854
0.001814296
0.0021514
0.002483948
0.00280858
0.003122768
0.003425049
0.003714894
0.003992446
0.004258213
0.00451282
0.004756352
0.004988403
0.005211182
0.005425353
0.005631527
0.005830382
0.006018987
0.006197443
0.006365485
0.006522626
0.006667659
0.006801135
0.006921475
0.007027897
0.007119691
0.007196197
0.007256911
0.007301374
0.007328777
0.007338504
0.007330045
0.00730297
0.007256909
0.007191532
0.007106539
0.007001641
0.006877394
0.00673448
0.006571843
0.006388707
0.006184247
0.005956562
0.005707406
0.005434391
0.005135268
0.004806141
0.004441278
0.004034417
0.003580904
0.003070197
0.002497814
0.001863567
0.001180416
0.0005118464
5.330315e-05
3.510574e-05
0.0003355558
0.00076928
0.001155896
0.001507797
0.001848701
0.002185072
0.002516429
0.002840794
0.003156497
0.003462608
0.003758829
0.004045212
0.004321824
0.004588248
0.004844952
0.005092914
0.005331484
0.005561167
0.005782322
0.005994854
0.006197875
0.006390643
0.006572482
0.006742646
0.006900039
0.007044263
0.007174126
0.007288733
0.007387237
0.007468835
0.00753282
0.007578621
0.007605787
0.007613888
0.0076025
0.007571236
0.00751975
0.007447735
0.007354918
0.007241038
0.007105825
0.006949058
0.00677068
0.006570564
0.006348508
0.00610357
0.005837063
0.00554392
0.005235971
0.00489734
0.004525795
0.00411279
0.003649737
0.003129869
0.002548339
0.001904559
0.001210659
0.0005288053
5.327752e-05
3.497159e-05
0.0003312495
0.0007626891
0.001159009
0.00151784
0.001860027
0.002194911
0.002524609
0.002848736
0.003166407
0.003476777
0.003778965
0.004071724
0.004353314
0.004528067
0.00468881
0.004881021
0.005100933
0.005373785
0.005663827
0.005994227
0.006310366
0.006554775
0.006749742
0.00693204
0.007100362
0.007253724
0.007391158
0.007511938
0.007615334
0.00770065
0.007767275
0.007814614
0.007841988
0.007848816
0.007834589
0.007798873
0.007741308
0.007661614
0.007559587
0.007435096
0.007288078
0.007118525
0.006926389
0.006711832
0.00643973
0.006018728
0.005644521
0.005337311
0.005099349
0.004911736
0.004580508
0.004165852
0.003699749
0.003174883
0.002586147
0.001933251
0.001229296
0.0005381752
5.31781e-05
3.527104e-05
0.0003224863
0.0007515938
0.001158468
0.001524338
0.001869071
0.002203729
0.002532354
0.002855624
0.003172893
0.003482941
0.003784093
0.004031167
0.004172963
0.004296307
0.004406553
0.004531168
0.00470066
0.004954986
0.005264283
0.005590002
0.005880103
0.006167098
0.006470981
0.006805019
0.007154911
0.0074183
0.007561629
0.00768781
0.007795776
0.007884711
0.007953822
0.008002356
0.008029606
0.00803494
0.008017817
0.007977808
0.007914591
0.007827956
0.007717791
0.00758406
0.007426821
0.007246433
0.006955652
0.006542951
0.006161948
0.005813442
0.005483537
0.005197567
0.004995321
0.004843983
0.004617651
0.004202784
0.003734861
0.003206727
0.002613453
0.001955235
0.001245192
0.0005469751
5.314701e-05
3.575012e-05
0.0003127665
0.0007361787
0.001148752
0.001522547
0.001871179
0.002206528
0.002534125
0.00285567
0.003171013
0.003479085
0.003778059
0.003975736
0.004092099
0.004187623
0.004303362
0.00446911
0.004657351
0.004859162
0.005092912
0.005357458
0.005673308
0.005992528
0.006310623
0.006628132
0.006942894
0.007250295
0.00754853
0.007815122
0.007928703
0.008021182
0.008092843
0.008142707
0.008170008
0.008174103
0.008154466
0.008110682
0.008042484
0.007949769
0.007832627
0.007661161
0.007382902
0.007071946
0.006740296
0.006383612
0.005999869
0.005626861
0.005310911
0.005066418
0.004886985
0.004740724
0.004588599
0.004227234
0.00375933
0.003229243
0.002632561
0.00196971
0.001254389
0.0005513383
5.307934e-05
3.625433e-05
0.0003047211
0.0007209082
0.001137657
0.001516779
0.001868481
0.00220423
0.002530399
0.002849567
0.003162162
0.003467307
0.003763031
0.003914527
0.004020945
0.004139537
0.004280818
0.004430615
0.00460101
0.004786501
0.005015747
0.005280881
0.005557763
0.00585443
0.006161446
0.006471306
0.006773038
0.007052818
0.007300523
0.007518392
0.007717318
0.007922966
0.008164304
0.008238918
0.00820134
0.008163545
0.0081193
0.008046775
0.007939919
0.007797923
0.007621818
0.00741085
0.007162936
0.00687762
0.006558395
0.00621663
0.005868854
0.005529578
0.005210642
0.004945313
0.004764177
0.004667091
0.004565488
0.004243545
0.003775744
0.003244419
0.002645728
0.001980066
0.001261321
0.000554535
5.303428e-05
3.671113e-05
0.000297209
0.0007048096
0.00112249
0.001505464
0.001860504
0.002197178
0.002522245
0.002839067
0.003148744
0.003450926
0.003744252
0.003929874
0.004051121
0.004156188
0.004270022
0.004404472
0.004572481
0.004785622
0.005012649
0.005261005
0.005523029
0.005804201
0.006092113
0.006378884
0.006656307
0.006915897
0.007149367
0.007351093
0.007530092
0.00772076
0.007979988
0.008093561
0.008022955
0.007971074
0.007915271
0.007844051
0.007745962
0.007615203
0.007448248
0.007242053
0.006996829
0.006717236
0.00640998
0.006082691
0.005747286
0.005421529
0.00512663
0.004881881
0.00470071
0.004589336
0.004497264
0.004254963
0.003788729
0.003257129
0.002656662
0.001988758
0.00126749
0.000556914
5.29642e-05
3.706351e-05
0.0002907931
0.000689536
0.001106339
0.001492901
0.001850136
0.002187319
0.002511244
0.002825787
0.0031326
0.0034318
0.003722418
0.003912626
0.004038043
0.004152761
0.004279539
0.004427406
0.004599229
0.004791688
0.005013762
0.005261339
0.005533204
0.005811243
0.006089365
0.006361862
0.006621292
0.006860347
0.007073067
0.007256123
0.007416235
0.007588718
0.007860715
0.008070303
0.00799807
0.007866596
0.007803168
0.007735642
0.007639176
0.007507105
0.007337669
0.007130542
0.006887028
0.006610845
0.006308323
0.005988285
0.005661937
0.005343046
0.005049262
0.004802215
0.004624892
0.004524455
0.004455251
0.00426022
0.003794432
0.003262119
0.00266052
0.001991291
0.001268654
0.0005576844
5.292084e-05
3.734339e-05
0.000285439
0.0006757596
0.001089787
0.001477438
0.001836264
0.002174327
0.002497627
0.002810377
0.00311476
0.003411425
0.00369998
0.003922412
0.00406157
0.004182162
0.004310083
0.004457361
0.00462961
0.004828269
0.00505367
0.005303783
0.005570069
0.005839146
0.006110042
0.006374436
0.006624176
0.006852622
0.007056064
0.00723558
0.007400212
0.00756999
0.007771895
0.008013591
0.008040127
0.007886633
0.007789904
0.007703295
0.007598458
0.007461177
0.00728608
0.007072794
0.006824185
0.006545529
0.00624386
0.005927742
0.005607603
0.005296342
0.005009828
0.004767188
0.004589099
0.004486036
0.004424366
0.004264522
0.003799384
0.003266949
0.002664725
0.001994512
0.001270851
0.0005588214
5.287229e-05
3.757166e-05
0.0002813215
0.0006632071
0.001073556
0.001461409
0.001821872
0.002160093
0.002482753
0.002794087
0.003096623
0.00339152
0.003679038
0.003947202
0.004102702
0.004235071
0.004372721
0.004527119
0.004703793
0.004905175
0.005132472
0.005377388
0.005636544
0.005903373
0.006169993
0.006427029
0.006667363
0.006885409
0.007078263
0.007247735
0.007403855
0.007567745
0.007766574
0.008018337
0.008067868
0.00791607
0.007801805
0.007696178
0.007576731
0.007428489
0.007244377
0.007023587
0.006769512
0.006488078
0.00618667
0.005873657
0.005558528
0.005252708
0.004970662
0.004731244
0.004555618
0.004456015
0.004403472
0.004266001
0.003801104
0.003268286
0.002665437
0.00199474
0.0012709
0.0005586633
5.281512e-05
3.77532e-05
0.000278274
0.0006525414
0.001058311
0.001445166
0.001806031
0.002144859
0.002467184
0.002777607
0.003078947
0.003372821
0.003660005
0.003940365
0.00416456
0.004316559
0.004464456
0.004625303
0.004806203
0.005009939
0.005234695
0.00547905
0.005736028
0.005999215
0.006258124
0.006506144
0.006736735
0.006944729
0.007127541
0.007286988
0.007432069
0.007581955
0.007765915
0.008019306
0.008094605
0.007952525
0.007823692
0.007700129
0.007565471
0.007405258
0.007211614
0.006983356
0.006724107
0.006440205
0.00613918
0.005829073
0.005518623
0.005218254
0.00494125
0.00470542
0.004531254
0.004431689
0.004382584
0.004264049
0.003801734
0.003268721
0.002665409
0.001994406
0.00127084
0.0005586835
5.277659e-05
3.79188e-05
0.0002769258
0.0006441708
0.001044613
0.001429655
0.001790321
0.002129314
0.002451583
0.002761504
0.003062147
0.003355451
0.003642517
0.003924444
0.004202031
0.004414813
0.004575905
0.004744992
0.004931632
0.005137502
0.005362453
0.005603812
0.005855873
0.00611126
0.006362
0.006600862
0.0068215
0.007019237
0.007191856
0.007340646
0.007472283
0.007602392
0.007761972
0.008007739
0.008135641
0.008006515
0.007838889
0.007699343
0.007554285
0.007384752
0.007182718
0.006947717
0.006683987
0.006398181
0.006097799
0.00579047
0.005484197
0.005188537
0.004915933
0.004683749
0.004512457
0.004415498
0.004369897
0.004256647
0.003801358
0.003268225
0.002664591
0.001993416
0.001269755
0.0005580246
5.271162e-05
3.810155e-05
0.0002760014
0.0006370522
0.001032165
0.001414784
0.001774876
0.002113935
0.00243628
0.002746092
0.00304657
0.003339928
0.003627631
0.003910686
0.004189698
0.004466287
0.004712643
0.00488938
0.005075204
0.005283134
0.00550894
0.00574711
0.005991974
0.006238354
0.006479954
0.006709456
0.006920025
0.00710699
0.007268773
0.007407962
0.007532322
0.007654926
0.00779173
0.007953304
0.008121647
0.008077942
0.007874707
0.007711868
0.00755104
0.007370138
0.007159518
0.00691819
0.006650399
0.006362891
0.006063064
0.005758161
0.005455572
0.005164156
0.004895641
0.004666908
0.00449817
0.004403022
0.0043593
0.004249167
0.003800277
0.003266715
0.002662852
0.001991605
0.001268326
0.0005574475
5.268583e-05
3.824266e-05
0.0002763618
0.0006322058
0.001022125
0.001401933
0.001760812
0.002099565
0.002421939
0.002731867
0.003032567
0.003326427
0.003615148
0.003899962
0.004181815
0.004461574
0.00473975
0.00501639
0.005252548
0.005453162
0.005668122
0.005902287
0.006143074
0.006383677
0.006614007
0.006832541
0.007032016
0.00720793
0.00735834
0.007485373
0.007596472
0.007704669
0.007824962
0.007964601
0.00812214
0.008096069
0.007901696
0.007728976
0.007554012
0.007360752
0.007140787
0.006892957
0.006621242
0.00633219
0.006032928
0.005730262
0.005431014
0.005143448
0.004878745
0.004653455
0.004487665
0.004395061
0.004353752
0.004246147
0.003799449
0.003265494
0.002661208
0.001989781
0.001266766
0.0005564975
5.262731e-05
3.837584e-05
0.0002769159
0.0006285711
0.001013287
0.00138991
0.001747615
0.002086128
0.002408698
0.002719029
0.003020319
0.003315059
0.003605113
0.003891859
0.004176329
0.004459295
0.004741254
0.005022449
0.005302947
0.005582264
0.005859069
0.006086749
0.006304757
0.006528406
0.006755864
0.006969072
0.007160488
0.007325529
0.00746345
0.007577297
0.007673449
0.007762159
0.007857439
0.00797637
0.008128582
0.008114919
0.007927632
0.007745698
0.007558219
0.00735387
0.007125283
0.006871343
0.006595939
0.006305469
0.006006766
0.005706188
0.005410022
0.005126012
0.004864884
0.004642913
0.00448002
0.004389797
0.004350298
0.004243977
0.003798411
0.003263891
0.002659051
0.001987485
0.001264958
0.0005557904
5.261563e-05
3.842207e-05
0.0002797768
0.0006265968
0.001006435
0.001379992
0.001736185
0.002074283
0.00239706
0.002707969
0.003010138
0.003306105
0.003597825
0.003886762
0.004173984
0.00446022
0.004745874
0.005031026
0.005315402
0.005598295
0.005878548
0.006154656
0.006424754
0.006686579
0.006909279
0.00710268
0.007280412
0.007436942
0.007566573
0.007669347
0.007751709
0.007824075
0.0079001
0.00799575
0.008128545
0.008120317
0.007944343
0.007758581
0.007562327
0.007348559
0.007112006
0.006852327
0.006573554
0.006281925
0.005983923
0.005685433
0.005392221
0.005111568
0.004853842
0.004635119
0.004475202
0.004387571
0.004350062
0.004244602
0.003797941
0.003262723
0.002657314
0.001985513
0.00126321
0.0005547022
5.256727e-05
3.95327e-05
0.0002774525
0.0006243443
0.001000459
0.00137135
0.001726195
0.00206401
0.002387182
0.002698953
0.003002378
0.003300011
0.003593859
0.003885427
0.004175785
0.004465606
0.004755186
0.005044446
0.005332916
0.005619718
0.005903575
0.006182841
0.006455544
0.006719435
0.006972085
0.007210928
0.007409794
0.007554332
0.007670787
0.00776289
0.007833365
0.007889341
0.007941715
0.008007556
0.008117201
0.008143164
0.007978635
0.007761889
0.00755828
0.007340687
0.007099593
0.006835565
0.006553916
0.006261348
0.005964159
0.005667749
0.005377353
0.005099819
0.004845244
0.004629572
0.004472522
0.004387394
0.004351589
0.00424631
0.003797896
0.003261661
0.002655455
0.001983347
0.001261379
0.0005538356
5.256613e-05
4.107416e-05
0.0002800458
0.0006122542
0.0009972955
0.001364935
0.00171838
0.002055794
0.00237946
0.002692387
0.002997506
0.003297335
0.003593882
0.003888652
0.004182686
0.004476582
0.00477052
0.005064266
0.005357173
0.005648188
0.005935869
0.006218427
0.006493778
0.006759615
0.007013483
0.007252875
0.007475376
0.007678416
0.007801907
0.007877832
0.007931616
0.007973485
0.0080121
0.008053784
0.008096833
0.00812242
0.0080063
0.007782383
0.007565483
0.007337517
0.007089567
0.006821268
0.006537374
0.006244317
0.005948079
0.005653631
0.005365761
0.005090977
0.004839227
0.004626403
0.004472192
0.004389734
0.004355871
0.004250481
0.003798198
0.00326114
0.002654176
0.001981713
0.001259862
0.0005529448
5.253281e-05
4.164776e-05
0.0002836476
0.0006019874
0.000996081
0.001360191
0.001712039
0.002049637
0.00237415
0.002688671
0.002996015
0.003298653
0.003598564
0.003897214
0.004195577
0.004494146
0.00479296
0.005091614
0.005389271
0.005684689
0.005976255
0.006262039
0.006539856
0.00680734
0.007061903
0.007301155
0.00752287
0.007724242
0.007903351
0.008002264
0.008043991
0.008067007
0.008085167
0.008104234
0.008121185
0.008126493
0.00801274
0.007794867
0.007573642
0.007338502
0.007084141
0.006811356
0.006525012
0.006231295
0.005935818
0.00564311
0.005357499
0.005085136
0.004835871
0.004625592
0.004474018
0.00439412
0.00436204
0.004256119
0.003799118
0.003260956
0.0026531
0.001980085
0.001258295
0.0005520934
5.253896e-05
4.197737e-05
0.0002869091
0.0005923965
0.0009851973
0.001357287
0.001707656
0.002045277
0.002371234
0.002688006
0.002998305
0.003304534
0.003608613
0.003911937
0.004215373
0.004519276
0.00482351
0.005127474
0.005430128
0.005730032
0.0060254
0.00631416
0.006594027
0.006862438
0.007117181
0.007355641
0.007575812
0.007774802
0.007950955
0.00810252
0.008164221
0.008175961
0.008172863
0.008165301
0.008156333
0.008140841
0.008023441
0.00781011
0.007585323
0.007343658
0.007083099
0.006805871
0.006517126
0.00622276
0.005927847
0.005636378
0.00535226
0.005081604
0.004834413
0.004626578
0.004477804
0.004400723
0.004370543
0.004263823
0.003801019
0.003261516
0.002652751
0.0019792
0.001257241
0.0005513819
5.251255e-05
4.201489e-05
0.00029022
0.0005842298
0.0009709115
0.001357006
0.001705985
0.002044005
0.002371582
0.002691084
0.003005006
0.003315606
0.003624678
0.003933483
0.004242731
0.00455259
0.004862717
0.005172294
0.005480069
0.005784405
0.006083352
0.006374692
0.006655869
0.006924836
0.007178977
0.007416012
0.007633505
0.007829436
0.008001977
0.008149565
0.008270917
0.008296534
0.008278301
0.00824799
0.008211312
0.00816683
0.008038494
0.007827621
0.007599775
0.007352497
0.007086294
0.006804675
0.0065131
0.006217284
0.005922299
0.005632238
0.005350239
0.005081901
0.004836763
0.004630817
0.004484209
0.004409267
0.004380531
0.00427252
0.003803572
0.003262707
0.002652909
0.001978353
0.001256134
0.000550682
5.252016e-05
4.222314e-05
0.0002932608
0.0005770216
0.0009574026
0.001357784
0.001705874
0.002044685
0.002374761
0.002697896
0.003016372
0.003332279
0.003647252
0.003962373
0.004278147
0.004594517
0.004910905
0.005226261
0.005539119
0.005847618
0.006149459
0.006442593
0.006724874
0.006993617
0.007246444
0.007481254
0.007695593
0.007887727
0.008056001
0.008199031
0.008315716
0.008405041
0.008387686
0.00833826
0.008276323
0.008202795
0.008060612
0.007849487
0.007617742
0.007364938
0.007093321
0.006807764
0.006514771
0.006219526
0.005926226
0.00563652
0.005353699
0.005084379
0.004840348
0.004636911
0.004493717
0.004422553
0.00439456
0.004279928
0.003806823
0.003264473
0.00265345
0.001978362
0.001255697
0.0005503176
5.251596e-05
4.253465e-05
0.0002967381
0.0005712117
0.0009451063
0.001361023
0.001708824
0.002049121
0.002382206
0.002709399
0.003033143
0.003355215
0.00367697
0.00399922
0.0043222
0.004645589
0.004968533
0.005289582
0.005606846
0.005918827
0.006223469
0.00651822
0.006800648
0.007068386
0.007319171
0.00755082
0.007761381
0.007949136
0.008112625
0.008250655
0.008362308
0.008446929
0.008487938
0.008436319
0.008351246
0.008246692
0.008087441
0.007873196
0.007636535
0.007379125
0.007104104
0.006816538
0.006520788
0.006221964
0.005924922
0.005635432
0.005356338
0.005091566
0.004849747
0.004647777
0.004504977
0.0044338
0.004405879
0.004285367
0.003810671
0.003266874
0.002654619
0.001978567
0.001255287
0.0005498478
5.252879e-05
4.273239e-05
0.0002997969
0.0005662363
0.0009342795
0.001364738
0.001713175
0.002055831
0.002392812
0.002725902
0.003056083
0.0033853
0.003714698
0.00404474
0.004375226
0.004705325
0.005034096
0.005360443
0.005682652
0.005998187
0.006304836
0.006600262
0.006882116
0.007148112
0.007396151
0.00762413
0.007830334
0.008013233
0.008171557
0.008304301
0.008410721
0.00849032
0.008542823
0.008522619
0.00842798
0.008296728
0.008119549
0.007900281
0.007657908
0.007394002
0.007112106
0.006817983
0.006519463
0.006222181
0.005928872
0.005641478
0.005362868
0.005098545
0.004857412
0.004655546
0.004514104
0.004445174
0.004417439
0.00429163
0.003815254
0.00326988
0.002656261
0.001979166
0.001255294
0.0005496666
5.25417e-05
4.324216e-05
0.000303545
0.0005629956
0.0009258962
0.001370715
0.001720653
0.002066444
0.002408067
0.002746713
0.00308417
0.003421343
0.003758691
0.004096643
0.004434878
0.004772657
0.005108514
0.005440492
0.005766662
0.006084834
0.006392739
0.006688085
0.006968616
0.007232167
0.007476779
0.007700549
0.007901944
0.008079631
0.008232532
0.008359825
0.008460929
0.00853549
0.008583353
0.008601104
0.008505111
0.008352924
0.008158054
0.007929913
0.00767809
0.00740718
0.007122224
0.006828
0.00652994
0.006232251
0.00593838
0.005649375
0.005369381
0.005103976
0.004863999
0.004666016
0.004529046
0.004462065
0.004431953
0.004298795
0.0038206
0.003273564
0.002658497
0.001980256
0.001255531
0.0005495965
5.254666e-05
4.309592e-05
0.0003061178
0.0005598286
0.0009159775
0.001375196
0.001729386
0.002079206
0.002426643
0.002772577
0.003118081
0.003463862
0.003810402
0.00415729
0.004503825
0.004848822
0.005190666
0.005527427
0.005857001
0.006177176
0.006485701
0.006780343
0.007058947
0.007319502
0.007560178
0.007779349
0.007975636
0.008147905
0.008295266
0.008417067
0.00851288
0.008582475
0.008625793
0.008642921
0.008575619
0.008415244
0.00820132
0.007961518
0.007702672
0.007428264
0.00714068
0.006844275
0.006543236
0.006243396
0.005948123
0.005659772
0.005380566
0.005115708
0.004875712
0.004677537
0.004541561
0.004477867
0.004449125
0.004306577
0.003826515
0.003277788
0.002661222
0.001981675
0.001256156
0.0005497547
5.256062e-05
4.429193e-05
0.0003099169
0.0005591506
0.0009110943
0.001374875
0.001742361
0.002097334
0.002451658
0.002805754
0.003160214
0.003515354
0.003871053
0.004226664
0.004581095
0.00493286
0.005280172
0.00562102
0.005953265
0.0062747
0.006583116
0.006876369
0.007152417
0.007409456
0.007645817
0.007860079
0.008051056
0.008217804
0.008359608
0.008475975
0.008566607
0.008631385
0.008670334
0.008683597
0.00864802
0.008484716
0.008254361
0.0080028
0.0077359
0.007454838
0.007162275
0.006862307
0.006560036
0.00625952
0.005963599
0.005674155
0.005393864
0.005128323
0.004888485
0.004691462
0.004557073
0.004493774
0.004462989
0.004314986
0.003832988
0.00328246
0.002664298
0.001983461
0.001257024
0.0005499177
5.258257e-05
4.3394e-05
0.0003159562
0.0005588
0.0009062666
0.00137068
0.001756883
0.002117613
0.002479542
0.002842545
0.003206652
0.003571645
0.003936909
0.004301403
0.004663707
0.005022098
0.005374634
0.005719228
0.006053716
0.006375924
0.006683729
0.006975072
0.007248181
0.007501365
0.007733165
0.007942359
0.008127956
0.00828919
0.00842551
0.008536566
0.008622178
0.008682316
0.008717069
0.008726618
0.008711218
0.00855113
0.008308134
0.008045309
0.007770153
0.007483773
0.007187571
0.006884896
0.006580255
0.006277806
0.00598042
0.005689906
0.005408819
0.005142682
0.004902622
0.004706073
0.004573054
0.004511404
0.004479952
0.004324202
0.003840196
0.003287795
0.002667918
0.001985544
0.001257834
0.0005502356
5.2603e-05
4.306135e-05
0.0003200899
0.0005588739
0.0009008499
0.001365499
0.001773834
0.002141274
0.002511655
0.00288427
0.003258547
0.003633709
0.004008659
0.004381973
0.004751938
0.005116631
0.005473983
0.00582185
0.006158068
0.006480525
0.00678722
0.007076176
0.007345972
0.007595013
0.007822056
0.008026075
0.008206269
0.008362042
0.008492991
0.008598884
0.008679639
0.008735297
0.008765997
0.008771945
0.008753392
0.008605492
0.008355535
0.008084776
0.007803243
0.007512196
0.007212568
0.006907388
0.006600927
0.006297085
0.005998464
0.005706741
0.005424522
0.00515752
0.004917138
0.004721023
0.004589091
0.004528435
0.004495984
0.004333832
0.003847822
0.003293539
0.002671916
0.001987991
0.001259068
0.0005504487
5.262834e-05
4.377547e-05
0.0003188472
0.0005599736
0.0008965928
0.001360461
0.001793516
0.00216864
0.002548294
0.00293117
0.003316069
0.003701649
0.004086336
0.004468332
0.004845653
0.005216201
0.005577817
0.005928337
0.006265653
0.006587766
0.006892829
0.007179062
0.007445208
0.007689894
0.007912072
0.008110905
0.00828576
0.008436191
0.008561925
0.008662835
0.008738921
0.008790285
0.008817099
0.008819586
0.008797996
0.008656515
0.008401757
0.008125285
0.007838643
0.007543519
0.007240702
0.006932944
0.006624322
0.006318618
0.006018338
0.005725096
0.005441511
0.005173416
0.004932448
0.004736486
0.004605437
0.00454572
0.004512313
0.004343949
0.003855893
0.003299691
0.002676286
0.001990711
0.00126028
0.0005508595
5.265625e-05
4.480749e-05
0.0003219956
0.0005618758
0.0008937015
0.001357648
0.001815746
0.002199356
0.002588973
0.002982632
0.003378487
0.003774617
0.004168977
0.004559415
0.004943706
0.005319618
0.005684947
0.006037564
0.006375459
0.006696773
0.006999826
0.00728307
0.007545372
0.007785599