/*--------------------------------*- C++ -*----------------------------------*\
| =========                 |                                                 |
| \\      /  F ield         | OpenFOAM: The Open Source CFD Toolbox           |
|  \\    /   O peration     | Version:  2312                                  |
|   \\  /    A nd           | Website:  www.openfoam.com                      |
|    \\/     M anipulation  |                                                 |
\*---------------------------------------------------------------------------*/
FoamFile
{
    version     2.0;
    format      ascii;
    arch        "LSB;label=32;scalar=64";
    class       volScalarField;
    location    "4350";
    object      ILambda_3_0;
}
// * * * * * * * * * * * * * * * * * * * * * * * * * * * * * * * * * * * * * //

dimensions      [1 0 -3 0 0 0 0];

internalField   nonuniform List<scalar> 
12000
(
3272.61
3021.293
2787.123
2571.232
2372.62
2190.091
2022.633
1869.486
1729.921
1603.095
1488.175
1384.469
1291.413
1208.448
1134.905
1069.971
1012.76
962.4034
918.0998
879.1144
844.7593
814.3973
787.4813
763.6029
742.5085
724.0626
708.1734
694.7201
683.5169
674.3245
666.8887
660.9784
656.3987
652.9781
650.5545
648.961
648.0274
647.5925
647.5283
647.755
648.2359
648.9589
649.905
651.0536
652.4026
653.9568
655.6982
657.5818
659.5541
661.5948
663.6734
665.7077
667.6004
669.2934
670.7337
671.826
672.4587
672.303
671.8089
667.2246
3474.054
3526.977
3554.747
3558.631
3541.191
3505.211
3453.274
3387.645
3310.444
3223.66
3129.098
3028.37
2922.928
2814.11
2703.175
2591.293
2479.518
2368.768
2259.816
2153.314
2049.806
1949.731
1853.417
1761.08
1672.831
1588.717
1508.752
1432.95
1361.332
1293.914
1230.691
1171.62
1116.622
1065.593
1018.407
974.9326
935.0279
898.5441
865.3189
835.1759
807.9301
783.3963
761.3991
741.77
724.3416
708.9526
695.4562
683.7195
673.6156
665.0123
657.787
651.8364
647.0618
643.3515
640.5981
638.7168
637.6029
637.2323
637.3536
638.9553
3456.941
3464.949
3479.357
3498.076
3518.714
3539.16
3557.7
3572.887
3583.541
3588.746
3587.816
3580.264
3565.778
3544.196
3515.499
3479.792
3437.297
3388.329
3333.283
3272.613
3206.818
3136.432
3062.005
2984.096
2903.255
2820.014
2734.88
2648.338
2560.85
2472.858
2384.786
2297.035
2209.98
2123.969
2039.318
1956.316
1875.22
1796.26
1719.635
1645.518
1574.053
1505.354
1439.512
1376.593
1316.642
1259.682
1205.719
1154.743
1106.73
1061.642
1019.43
980.0348
943.3914
909.422
878.0593
849.1771
822.8325
798.244
778.5968
748.4938
3446.784
3445.398
3444.418
3444.665
3446.728
3450.895
3457.258
3465.733
3476.081
3487.947
3500.892
3514.42
3527.997
3541.073
3553.096
3563.524
3571.842
3577.567
3580.262
3579.54
3575.068
3566.571
3553.831
3536.693
3515.056
3488.875
3458.158
3422.957
3383.367
3339.52
3291.582
3239.749
3184.245
3125.317
3063.235
2998.282
2930.754
2860.957
2789.202
2715.802
2641.071
2565.318
2488.847
2411.953
2334.923
2258.031
2181.539
2105.693
2030.725
1956.852
1884.275
1813.176
1743.723
1676.059
1610.354
1546.584
1485.432
1424.483
1374.695
1288.432
3417.506
3417.582
3417.345
3416.802
3416.073
3415.317
3414.733
3414.543
3414.965
3416.194
3418.4
3421.707
3426.2
3431.913
3438.832
3446.895
3455.994
3465.977
3476.653
3487.798
3499.161
3510.466
3521.422
3531.73
3541.084
3549.181
3555.724
3560.428
3563.022
3563.255
3560.895
3555.734
3547.59
3536.307
3521.756
3503.838
3482.481
3457.644
3429.313
3397.501
3362.249
3323.621
3281.708
3236.62
3188.49
3137.468
3083.72
3027.427
2968.783
2907.991
2845.265
2780.822
2714.888
2647.677
2579.464
2510.279
2441.187
2368.781
2308.741
2195.509
3393.105
3392.36
3391.686
3391.047
3390.402
3389.71
3388.941
3388.084
3387.151
3386.174
3385.209
3384.329
3383.62
3383.178
3383.106
3383.506
3384.478
3386.112
3388.487
3391.667
3395.697
3400.603
3406.385
3413.024
3420.476
3428.674
3437.525
3446.921
3456.727
3466.797
3476.964
3487.05
3496.866
3506.214
3514.891
3522.69
3529.405
3534.83
3538.764
3541.014
3541.395
3539.733
3535.867
3529.648
3520.945
3509.644
3495.646
3478.872
3459.261
3436.771
3411.379
3383.08
3351.89
3317.832
3280.994
3241.281
3199.456
3152.712
3113.295
3031.044
3389.553
3386.979
3384.552
3382.294
3380.211
3378.304
3376.558
3374.954
3373.467
3372.073
3370.747
3369.469
3368.223
3367
3365.801
3364.635
3363.521
3362.486
3361.568
3360.812
3360.268
3359.992
3360.043
3360.482
3361.368
3362.757
3364.702
3367.248
3370.431
3374.279
3378.807
3384.02
3389.908
3396.449
3403.605
3411.325
3419.546
3428.188
3437.161
3446.361
3455.673
3464.972
3474.125
3482.99
3491.419
3499.261
3506.361
3512.562
3517.707
3521.642
3524.216
3525.28
3524.695
3522.32
3518.053
3511.701
3503.454
3492.017
3482.048
3454.989
3412.962
3407.862
3402.259
3396.247
3389.97
3383.529
3377.011
3370.505
3364.084
3357.81
3351.731
3345.889
3340.312
3335.02
3330.029
3325.343
3320.967
3316.898
3313.134
3309.67
3306.504
3303.632
3301.056
3298.78
3296.809
3295.155
3293.833
3292.86
3292.258
3292.052
3292.268
3292.934
3294.079
3295.731
3297.917
3300.661
3303.984
3307.904
3312.433
3317.576
3323.332
3329.692
3336.639
3344.149
3352.187
3360.71
3369.665
3378.991
3388.618
3398.466
3408.448
3418.47
3428.43
3438.217
3447.723
3456.828
3465.39
3473.402
3480.02
3489.065
3468.334
3505.304
3537.16
3564.065
3586.206
3603.9
3617.538
3627.428
3633.876
3637.2
3637.703
3635.674
3631.394
3625.128
3617.128
3607.63
3596.858
3585.019
3572.303
3558.889
3544.938
3530.598
3516.005
3501.28
3486.534
3471.866
3457.365
3443.112
3429.18
3415.633
3402.532
3389.928
3377.872
3366.408
3355.577
3345.417
3335.964
3327.25
3319.304
3312.155
3305.827
3300.342
3295.721
3291.978
3289.128
3287.178
3286.133
3285.994
3286.755
3288.406
3290.932
3294.311
3298.514
3303.506
3309.247
3315.707
3322.716
3330.715
3337.538
3351.755
848.9195
1031.938
1209.638
1381.527
1547.214
1706.168
1858.105
2002.887
2140.337
2270.335
2392.836
2507.84
2615.39
2715.57
2808.502
2894.339
2973.263
3045.481
3111.221
3170.729
3224.265
3272.101
3314.518
3351.801
3384.239
3412.124
3435.746
3455.392
3471.346
3483.886
3493.284
3499.804
3503.704
3505.23
3504.623
3502.111
3497.914
3492.244
3485.299
3477.272
3468.344
3458.687
3448.464
3437.828
3426.923
3415.887
3404.846
3393.919
3383.217
3372.842
3362.887
3353.44
3344.577
3336.368
3328.878
3322.148
3316.254
3311.163
3307.169
3302.679
743.3465
671.843
620.052
587.4026
573.0508
575.5827
593.3901
625.1258
669.4385
724.962
790.3871
864.4518
945.9453
1033.713
1126.659
1223.748
1324.009
1426.535
1530.482
1635.074
1739.598
1843.403
1945.903
2046.571
2144.941
2240.601
2333.195
2422.42
2508.02
2589.786
2667.553
2741.197
2810.63
2875.802
2936.693
2993.311
3045.693
3093.9
3138.013
3178.132
3214.376
3246.875
3275.776
3301.232
3323.41
3342.479
3358.617
3372.006
3382.83
3391.274
3397.526
3401.772
3404.196
3404.982
3404.305
3402.33
3399.326
3395.039
3391.207
3381.868
3360.731
3212.558
3061.096
2908.064
2755.404
2605.273
2459.372
2319.063
2185.631
2060.162
1943.53
1836.437
1739.417
1652.852
1576.982
1511.92
1457.658
1414.085
1380.996
1358.103
1345.045
1341.399
1346.692
1360.406
1381.989
1410.864
1446.434
1488.093
1535.226
1587.222
1643.475
1703.387
1766.378
1831.885
1899.365
1968.3
2038.199
2108.596
2179.058
2249.178
2318.584
2386.933
2453.912
2519.243
2582.675
2643.99
2702.997
2759.535
2813.471
2864.697
2913.132
2958.718
3001.418
3041.224
3078.116
3112.198
3143.262
3172.285
3195.396
3230.524
959.3469
1162.148
1344.049
1504.604
1643.913
1762.533
1861.461
1941.768
2004.579
2051.147
2082.809
2100.943
2106.956
2102.262
2088.265
2066.346
2037.849
2004.067
1966.237
1925.529
1883.039
1839.786
1796.707
1754.655
1714.399
1676.62
1641.915
1610.797
1583.697
1560.967
1542.885
1529.655
1521.414
1518.236
1520.135
1527.072
1538.957
1555.657
1576.999
1602.776
1632.749
1666.654
1704.206
1745.104
1789.033
1835.668
1884.679
1935.733
1988.5
2042.65
2097.861
2153.819
2210.221
2266.778
2323.184
2379.31
2434.307
2490.543
2536.743
2619.935
844.9816
823.0677
819.8852
833.8788
862.7408
903.849
954.7233
1013.142
1077.012
1144.402
1213.578
1282.994
1351.292
1417.299
1480.023
1538.645
1592.512
1641.126
1684.136
1721.325
1752.599
1777.978
1797.58
1811.611
1820.354
1824.157
1823.423
1818.595
1810.153
1798.598
1784.449
1768.227
1750.457
1731.655
1712.322
1692.942
1673.975
1655.854
1638.98
1623.724
1610.418
1599.36
1590.807
1584.982
1582.068
1582.208
1585.512
1592.051
1601.864
1614.954
1631.296
1650.834
1673.487
1699.152
1727.679
1759.012
1792.519
1830.231
1862.274
1929.047
877.7886
870.097
858.9274
845.9391
832.995
821.6291
813.0042
808.061
807.4956
811.7608
821.1022
835.583
855.1083
879.449
908.265
941.1266
977.5346
1016.94
1058.759
1102.394
1147.239
1192.703
1238.21
1283.216
1327.215
1369.742
1410.383
1448.774
1484.607
1517.63
1547.646
1574.515
1598.151
1618.52
1635.638
1649.567
1660.412
1668.318
1673.463
1676.058
1676.338
1674.56
1670.999
1665.943
1659.688
1652.537
1644.79
1636.749
1628.707
1620.949
1613.75
1607.368
1602.048
1598.019
1595.473
1594.628
1595.527
1598.883
1602.324
1615.829
888.4945
888.0226
886.9389
884.7515
881.1805
876.1832
869.8341
862.3269
853.9634
845.1134
836.1897
827.6262
819.8577
813.3041
808.3567
805.3676
804.6413
806.4291
810.9251
818.2645
828.523
841.7185
857.8134
876.7178
898.2942
922.3623
948.7043
977.0711
1007.188
1038.76
1071.479
1105.029
1139.093
1173.354
1207.505
1241.251
1274.312
1306.429
1337.364
1366.904
1394.866
1421.09
1445.451
1467.849
1488.217
1506.515
1522.735
1536.894
1549.036
1559.23
1567.57
1574.167
1579.155
1582.687
1584.907
1586.024
1586.172
1585.589
1584.628
1582.135
894.0555
893.7125
893.4663
893.3051
893.1154
892.7746
892.1428
891.0729
889.4338
887.12
884.0592
880.2172
875.6
870.2531
864.2607
857.7414
850.8448
843.7461
836.6406
829.7379
823.256
817.4154
812.4338
808.5209
805.8735
804.6713
805.0738
807.2167
811.2102
817.1369
825.051
834.9778
846.9137
860.8271
876.6596
894.3271
913.7223
934.7166
957.1626
980.8972
1005.744
1031.516
1058.019
1085.055
1112.424
1139.927
1167.37
1194.564
1221.329
1247.497
1272.911
1297.429
1320.925
1343.292
1364.422
1384.288
1402.658
1420.192
1434.058
1456.091
898.7432
898.382
897.9839
897.6133
897.2972
897.0484
896.8709
896.7524
896.6642
896.563
896.3934
896.0911
895.5861
894.8074
893.6861
892.1598
890.1751
887.6912
884.6821
881.1379
877.0666
872.4944
867.4656
862.0423
856.3032
850.3423
844.267
838.1959
832.2565
826.5828
821.3125
816.5843
812.5355
809.2995
807.003
805.7641
805.6903
806.8765
809.4039
813.338
818.7287
825.6086
833.9934
843.8815
855.2543
868.0765
882.2968
897.8491
914.6534
932.6169
951.636
971.597
992.3786
1013.856
1035.886
1058.374
1080.965
1104.595
1124.308
1160.882
899.8717
899.828
899.7081
899.5463
899.3614
899.163
898.9633
898.776
898.6131
898.4852
898.3992
898.3578
898.3575
898.3889
898.4355
898.4746
898.4769
898.4082
898.2297
897.8996
897.3747
896.6119
895.5698
894.2102
892.4998
890.4117
887.9264
885.0331
881.7306
878.0276
873.9434
869.5079
864.7618
859.7554
854.5492
849.212
843.8206
838.4587
833.2152
828.1831
823.4581
819.1373
815.317
812.0923
809.5545
807.7908
806.8822
806.9027
807.9184
809.9862
813.1532
817.4564
822.9217
829.5659
837.3865
846.3988
856.4435
868.2051
878.4337
900.7064
896.445
896.6873
896.8705
897.0179
897.1415
897.2427
897.3219
897.3814
897.4237
897.4518
897.4706
897.4861
897.5049
897.534
897.5801
897.6492
897.7455
897.8711
898.0255
898.2048
898.4019
898.6057
898.8017
898.9715
899.0936
899.1434
899.094
898.9166
898.5815
898.0586
897.3186
896.3337
895.0782
893.53
891.6708
889.4872
886.9709
884.1199
880.9383
877.4373
873.6345
869.5548
865.2297
860.6975
856.0029
851.1961
846.3331
841.4741
836.6835
832.0289
827.58
823.4082
819.5851
816.1839
813.2704
810.9211
809.1576
808.2113
807.5598
809.0297
892.4493
892.6237
892.7697
892.9089
893.0523
893.2008
893.353
893.5083
893.6649
893.8207
893.9739
894.123
894.2672
894.4062
894.5409
894.6727
894.804
894.9378
895.0777
895.2278
895.392
895.5741
895.7774
896.0042
896.2557
896.5313
896.829
897.1443
897.4709
897.7997
898.1197
898.4172
898.6766
898.88
899.0081
899.04
898.9536
898.7267
898.3367
897.7615
896.9799
895.9726
894.7218
893.2127
891.4332
889.3749
887.0333
884.4078
881.5026
878.3264
874.8929
871.2207
867.3328
863.2592
859.03
854.6805
850.2683
845.714
841.7877
834.8936
891.1675
891.056
890.9286
890.8084
890.7076
890.6293
890.5733
890.5404
890.53
890.5408
890.5714
890.6201
890.685
890.7641
890.8553
890.9567
891.0665
891.1831
891.3053
891.4325
891.5644
891.7012
891.8439
891.9939
892.1529
892.3233
892.5075
892.7082
892.9279
893.1689
893.4329
893.7212
894.0339
894.3704
894.7285
895.1047
895.4942
895.8904
896.2849
896.6681
897.0283
897.3526
897.6266
897.8347
897.9602
897.9859
897.8938
897.6659
897.2846
896.7326
895.9936
895.0528
893.8966
892.5148
890.8983
889.0325
886.9481
884.4859
882.3542
877.5382
894.9413
894.4548
893.9501
893.4533
892.978
892.5298
892.1106
891.7226
891.3672
891.045
890.7566
890.5021
890.2813
890.0939
889.939
889.8158
889.723
889.659
889.6223
889.611
889.6232
889.6568
889.7101
889.781
889.8681
889.9699
890.0853
890.2135
890.3541
890.5072
890.673
890.8522
891.046
891.2554
891.482
891.7271
891.9921
892.2783
892.5864
892.917
893.2697
893.6439
894.0375
894.448
894.8716
895.3033
895.737
896.1655
896.5802
896.9716
897.3289
897.6405
897.8939
898.0761
898.1749
898.1669
898.0626
897.7645
897.5441
896.3866
902.272
901.6142
900.8933
900.1347
899.3493
898.5388
897.7048
896.8495
895.9761
895.0879
894.1891
893.2843
892.3784
891.4766
890.5841
889.706
888.8474
888.0132
887.2079
886.4358
885.7006
885.0056
884.3538
883.7476
883.1888
882.679
882.2192
881.8099
881.4515
881.1438
880.8867
880.6794
880.5215
880.4121
880.3505
880.3359
880.3676
880.4447
880.5668
880.7332
880.9434
881.1968
881.4931
881.8315
882.2113
882.6316
883.0911
883.5884
884.1214
884.6877
885.2843
885.9076
886.5535
887.2168
887.8935
888.5713
889.248
889.9211
890.5046
891.383
909.2194
909.4244
910.0852
911.1704
912.5756
914.2267
916.0533
917.982
919.9511
921.9067
923.8024
925.5989
927.2633
928.769
930.0948
931.225
932.1481
932.8573
933.3493
933.6241
933.685
933.5375
933.1894
932.6504
931.9317
931.0457
930.0056
928.8255
927.5197
926.1028
924.5896
922.9946
921.332
919.6158
917.8595
916.0759
914.2775
912.476
910.6823
908.9068
907.1592
905.4485
903.783
902.1702
900.6172
899.1301
897.7148
896.376
895.1184
893.9455
892.8606
891.8664
890.9648
890.1573
889.4455
888.8239
888.3024
887.8614
887.5227
887.1471
892.2686
854.4581
821.1507
792.2495
767.604
746.9373
729.9058
716.2386
705.6664
697.912
692.7123
689.814
688.975
689.9642
692.5625
696.5629
701.7705
708.0029
715.09
722.8743
731.21
739.9634
749.0125
758.2465
767.5656
776.8802
786.1111
795.1883
804.0512
812.6473
820.9325
828.8698
836.4293
843.5876
850.327
856.6354
862.5053
867.934
872.9224
877.4751
881.5998
885.3069
888.6092
891.5215
894.0602
896.2433
898.0898
899.6195
900.8529
901.8112
902.5155
902.9874
903.2483
903.3199
903.2209
902.9731
902.6079
902.0781
901.6244
900.4554
3292.632
3123.806
2960.198
2802.25
2650.217
2504.518
2365.344
2232.749
2106.834
1987.655
1875.206
1769.449
1670.31
1577.688
1491.451
1411.444
1337.49
1269.395
1206.949
1149.928
1098.099
1051.22
1009.043
971.318
937.7912
908.2092
882.3201
859.8747
840.6279
824.3398
810.7767
799.7122
790.9273
784.2118
779.3644
776.1929
774.5148
774.1578
774.959
776.7659
779.4358
782.8361
786.8437
791.3452
796.2365
801.4226
806.8171
812.3421
817.9279
823.5123
829.0407
834.4653
839.7453
844.8459
849.7324
854.4045
858.7784
863.0145
866.4442
871.9187
3389.876
3414.476
3425.024
3422.022
3406.206
3378.667
3340.603
3293.044
3237.014
3173.535
3103.583
3028.096
2947.968
2864.048
2777.137
2687.991
2597.311
2505.753
2413.921
2322.368
2231.6
2142.072
2054.193
1968.327
1884.793
1803.867
1725.784
1650.741
1578.899
1510.384
1445.288
1383.677
1325.585
1271.025
1219.982
1172.424
1128.298
1087.535
1050.051
1015.747
984.5165
956.2413
930.7958
908.0485
887.863
870.0994
854.6159
841.2694
829.9169
820.4164
812.6279
806.4139
801.641
798.1762
795.896
794.6945
794.3791
795.0818
795.8996
799.4849
3364.841
3369.517
3377.788
3388.659
3400.78
3412.874
3423.918
3432.991
3439.286
3442.137
3441
3435.444
3425.146
3409.883
3389.518
3364.001
3333.351
3297.656
3257.063
3211.768
3162.01
3108.069
3050.252
2988.893
2924.342
2856.966
2787.139
2715.238
2641.643
2566.729
2490.862
2414.403
2337.696
2261.073
2184.849
2109.322
2034.768
1961.445
1889.59
1819.418
1751.124
1684.878
1620.833
1559.117
1499.84
1443.09
1388.938
1337.435
1288.614
1242.493
1199.073
1158.342
1120.276
1084.828
1051.972
1021.589
993.806
967.7307
946.912
914.6622
3352.873
3351.637
3350.69
3350.548
3351.602
3354.01
3357.843
3363.075
3369.579
3377.152
3385.53
3394.404
3403.433
3412.253
3420.488
3427.763
3433.709
3437.968
3440.204
3440.105
3437.386
3431.795
3423.112
3411.156
3395.779
3376.873
3354.363
3328.214
3298.423
3265.022
3228.074
3187.672
3143.935
3097.01
3047.064
2994.285
2938.877
2881.061
2821.068
2759.139
2695.523
2630.473
2564.243
2497.089
2429.264
2361.018
2292.595
2224.232
2156.158
2088.592
2021.743
1955.807
1890.969
1827.392
1765.272
1704.607
1646.119
1587.389
1539.404
1455.137
3335.041
3334.462
3333.659
3332.652
3331.552
3330.464
3329.512
3328.84
3328.589
3328.891
3329.861
3331.59
3334.145
3337.56
3341.84
3346.955
3352.847
3359.427
3366.577
3374.154
3381.994
3389.913
3397.708
3405.169
3412.073
3418.196
3423.307
3427.182
3429.6
3430.346
3429.219
3426.029
3420.6
3412.777
3402.419
3389.407
3373.644
3355.052
3333.576
3309.183
3281.862
3251.621
3218.494
3182.53
3143.799
3102.39
3058.409
3011.976
2963.226
2912.307
2859.379
2804.61
2748.178
2690.26
2631.083
2570.672
2509.959
2445.886
2392.624
2290.957
3312.997
3312.69
3312.316
3311.869
3311.343
3310.726
3310.009
3309.191
3308.287
3307.324
3306.341
3305.392
3304.536
3303.843
3303.385
3303.235
3303.468
3304.151
3305.345
3307.103
3309.465
3312.46
3316.099
3320.382
3325.288
3330.783
3336.813
3343.31
3350.19
3357.352
3364.683
3372.058
3379.339
3386.381
3393.03
3399.127
3404.509
3409.011
3412.468
3414.717
3415.599
3414.96
3412.654
3408.541
3402.495
3394.397
3384.142
3371.638
3356.808
3339.588
3319.929
3297.797
3273.176
3246.056
3216.481
3184.353
3150.257
3111.86
3079.353
3010.727
3291.706
3291.264
3290.781
3290.29
3289.8
3289.313
3288.821
3288.313
3287.777
3287.201
3286.573
3285.884
3285.13
3284.31
3283.431
3282.504
3281.548
3280.588
3279.655
3278.787
3278.023
3277.409
3276.993
3276.824
3276.952
3277.423
3278.283
3279.573
3281.329
3283.579
3286.347
3289.643
3293.473
3297.83
3302.696
3308.043
3313.834
3320.017
3326.532
3333.308
3340.263
3347.307
3354.34
3361.257
3367.943
3374.279
3380.141
3385.402
3389.934
3393.605
3396.287
3397.851
3398.172
3397.123
3394.611
3390.459
3384.796
3376.595
3369.413
3349.082
3273.137
3272.436
3271.696
3270.954
3270.223
3269.512
3268.821
3268.152
3267.502
3266.868
3266.246
3265.629
3265.009
3264.379
3263.728
3263.049
3262.333
3261.573
3260.763
3259.902
3258.988
3258.024
3257.019
3255.982
3254.928
3253.876
3252.848
3251.87
3250.972
3250.185
3249.546
3249.088
3248.851
3248.87
3249.183
3249.825
3250.828
3252.223
3254.035
3256.285
3258.99
3262.158
3265.794
3269.892
3274.442
3279.425
3284.813
3290.57
3296.654
3303.013
3309.587
3316.311
3323.113
3329.905
3336.616
3343.139
3349.387
3355.297
3360.288
3367.271
3261.066
3259.882
3258.693
3257.534
3256.424
3255.373
3254.386
3253.464
3252.607
3251.815
3251.084
3250.411
3249.793
3249.224
3248.697
3248.206
3247.743
3247.3
3246.866
3246.432
3245.988
3245.524
3245.031
3244.499
3243.92
3243.287
3242.595
3241.84
3241.021
3240.139
3239.198
3238.205
3237.169
3236.103
3235.022
3233.946
3232.896
3231.895
3230.969
3230.147
3229.458
3228.932
3228.6
3228.494
3228.644
3229.078
3229.826
3230.911
3232.357
3234.182
3236.403
3239.03
3242.069
3245.519
3249.378
3253.649
3258.245
3263.424
3267.904
3277.093
3254.764
3252.514
3249.778
3246.642
3243.228
3239.612
3235.865
3232.055
3228.241
3224.473
3220.793
3217.24
3213.844
3210.63
3207.618
3204.824
3202.259
3199.93
3197.84
3195.989
3194.374
3192.988
3191.823
3190.868
3190.109
3189.532
3189.121
3188.858
3188.726
3188.705
3188.777
3188.924
3189.128
3189.371
3189.638
3189.915
3190.189
3190.45
3190.689
3190.902
3191.084
3191.236
3191.36
3191.461
3191.548
3191.63
3191.723
3191.84
3192
3192.223
3192.531
3192.945
3193.491
3194.19
3195.065
3196.164
3197.433
3199.104
3200.494
3204.16
3274.439
3305.431
3332.347
3355.329
3374.532
3390.208
3402.664
3412.141
3418.879
3423.126
3425.117
3425.078
3423.228
3419.773
3414.913
3408.834
3401.712
3393.713
3384.993
3375.693
3365.948
3355.879
3345.599
3335.207
3324.796
3314.447
3304.232
3294.214
3284.448
3274.978
3265.845
3257.077
3248.701
3240.733
3233.184
3226.063
3219.37
3213.102
3207.254
3201.815
3196.774
3192.115
3187.823
3183.88
3180.268
3176.969
3173.964
3171.236
3168.767
3166.542
3164.547
3162.769
3161.197
3159.824
3158.639
3157.651
3156.821
3156.232
3155.704
3155.498
1164.386
1311.475
1454.297
1592.474
1725.707
1853.571
1975.84
2092.407
2203.132
2307.919
2406.733
2499.576
2586.481
2667.518
2742.783
2812.398
2876.508
2935.279
2988.893
3037.545
3081.445
3120.809
3155.862
3186.834
3213.958
3237.468
3257.599
3274.582
3288.646
3300.017
3308.914
3315.55
3320.13
3322.854
3323.91
3323.479
3321.732
3318.832
3314.93
3310.168
3304.678
3298.583
3291.996
3285.019
3277.746
3270.264
3262.647
3254.966
3247.279
3239.641
3232.098
3224.691
3217.454
3210.418
3203.61
3197.029
3190.775
3184.575
3179.533
3170.946
1067.41
1011.62
971.9658
947.9593
938.8428
943.4285
960.376
988.5509
1026.825
1074.066
1129.189
1191.157
1258.975
1331.702
1408.443
1488.36
1570.667
1654.633
1739.58
1824.887
1909.985
1994.357
2077.539
2159.116
2238.722
2316.037
2390.785
2462.733
2531.688
2597.493
2660.029
2719.208
2774.972
2827.293
2876.166
2921.611
2963.669
3002.398
3037.875
3070.188
3099.441
3125.746
3149.225
3170.005
3188.221
3204.009
3217.511
3228.867
3238.219
3245.708
3251.472
3255.647
3258.367
3259.764
3259.957
3259.049
3257.268
3254.31
3251.686
3244.368
3123.815
2975.553
2828.365
2683.541
2542.508
2406.763
2277.385
2155.24
2041.132
1935.706
1839.444
1752.699
1675.701
1608.568
1551.311
1503.852
1466.028
1437.601
1418.268
1407.671
1405.403
1411.018
1424.037
1443.956
1470.253
1502.393
1539.834
1582.032
1628.448
1678.548
1731.81
1787.727
1845.81
1905.587
1966.611
2028.457
2090.726
2153.044
2215.065
2276.47
2336.966
2396.29
2454.204
2510.498
2564.988
2617.514
2667.941
2716.158
2762.076
2805.626
2846.759
2885.447
2921.675
2955.451
2986.771
3015.728
3042.173
3066.901
3086.657
3116.767
3170.862
3194.982
3206.676
3205.946
3193.086
3168.885
3134.304
3090.243
3037.685
2977.682
2911.297
2839.602
2763.664
2684.529
2603.214
2520.696
2437.906
2355.718
2274.951
2196.356
2120.62
2048.36
1980.123
1916.386
1857.556
1803.972
1755.903
1713.557
1677.078
1646.55
1622.004
1603.417
1590.72
1583.799
1582.499
1586.631
1595.974
1610.279
1629.274
1652.666
1680.148
1711.4
1746.092
1783.891
1824.459
1867.459
1912.557
1959.424
2007.738
2057.186
2107.468
2158.293
2209.388
2260.494
2311.338
2361.821
2411.176
2461.537
2502.874
2577.079
3114.583
3120.77
3130.238
3142.151
3155.275
3168.42
3180.597
3190.881
3198.45
3202.603
3202.762
3198.466
3189.368
3175.234
3155.931
3131.43
3101.788
3067.149
3027.731
2983.82
2935.759
2883.941
2828.8
2770.803
2710.441
2648.222
2584.666
2520.293
2455.62
2391.156
2327.395
2264.811
2203.857
2144.955
2088.502
2034.859
1984.353
1937.278
1893.888
1854.401
1818.997
1787.821
1760.977
1738.539
1720.541
1706.987
1697.85
1693.07
1692.565
1696.221
1703.907
1715.466
1730.726
1749.497
1771.562
1796.792
1824.507
1856.529
1883.884
1942.445
3086.694
3085.671
3084.607
3084.033
3084.402
3085.923
3088.72
3092.824
3098.16
3104.565
3111.81
3119.61
3127.635
3135.53
3142.918
3149.417
3154.649
3158.246
3159.86
3159.171
3155.889
3149.763
3140.58
3128.172
3112.413
3093.226
3070.577
3044.479
3014.986
2982.197
2946.249
2907.315
2865.604
2821.353
2774.826
2726.312
2676.116
2624.56
2571.976
2518.706
2465.092
2411.478
2358.206
2305.61
2254.015
2203.734
2155.065
2108.289
2063.67
2021.451
1981.853
1945.073
1911.289
1880.648
1853.282
1829.278
1808.749
1791.634
1778.599
1765.373
3093.01
3119.379
3142.24
3161.719
3178.042
3191.52
3202.525
3211.393
3218.458
3224.052
3228.477
3232.009
3234.888
3237.314
3239.447
3241.404
3243.262
3245.054
3246.777
3248.391
3249.822
3250.968
3251.702
3251.878
3251.331
3249.887
3247.364
3243.581
3238.354
3231.509
3222.879
3212.312
3199.671
3184.839
3167.716
3148.23
3126.328
3101.985
3075.199
3045.996
3014.425
2980.561
2944.502
2906.37
2866.307
2824.476
2781.057
2736.247
2690.254
2643.303
2595.623
2547.455
2499.042
2450.631
2402.482
2354.755
2308.109
2260.855
2221.868
2153.217
1311.403
1434.124
1552.969
1667.627
1777.916
1883.521
1984.29
2080.184
2171.14
2257.142
2338.232
2414.486
2486.017
2552.966
2615.499
2673.802
2728.074
2778.526
2825.368
2868.815
2909.074
2946.345
2980.816
3012.662
3042.04
3069.092
3093.938
3116.681
3137.402
3156.164
3173.011
3187.969
3201.049
3212.245
3221.541
3228.909
3234.31
3237.703
3239.039
3238.27
3235.345
3230.219
3222.848
3213.197
3201.237
3186.949
3170.326
3151.372
3130.103
3106.551
3080.76
3052.79
3022.715
2990.622
2956.634
2920.757
2883.615
2843.171
2809.031
2741.025
1285.637
1261.547
1247.985
1244.635
1250.972
1266.195
1289.409
1319.838
1356.71
1399.252
1446.726
1498.425
1553.679
1611.855
1672.358
1734.64
1798.192
1862.551
1927.294
1992.045
2056.464
2120.255
2183.157
2244.945
2305.425
2364.437
2421.842
2477.53
2531.409
2583.407
2633.466
2681.542
2727.599
2771.611
2813.557
2853.419
2891.184
2926.836
2960.361
2991.745
3020.971
3048.019
3072.868
3095.496
3115.877
3133.984
3149.79
3163.267
3174.387
3183.124
3189.454
3193.356
3194.812
3193.811
3190.36
3184.383
3176.195
3164.605
3154.364
3126.991
1357.961
1349.24
1337.634
1323.956
1309.249
1294.502
1280.5
1267.949
1257.464
1249.557
1244.645
1243.054
1245.033
1250.753
1260.317
1273.766
1291.087
1312.215
1337.046
1365.437
1397.216
1432.184
1470.124
1510.802
1553.976
1599.395
1646.805
1695.953
1746.587
1798.461
1851.335
1904.979
1959.169
2013.695
2068.355
2122.96
2177.33
2231.297
2284.703
2337.402
2389.256
2440.136
2489.922
2538.5
2585.766
2631.62
2675.967
2718.719
2759.793
2799.108
2836.589
2872.163
2905.763
2937.322
2966.777
2994.081
3019.096
3042.249
3060.944
3087.948
1390.893
1389.058
1386.727
1383.573
1379.323
1373.872
1367.183
1359.281
1350.27
1340.31
1329.607
1318.402
1306.959
1295.56
1284.494
1274.05
1264.513
1256.157
1249.241
1244.003
1240.663
1239.414
1240.425
1243.838
1249.768
1258.303
1269.507
1283.414
1300.036
1319.362
1341.359
1365.973
1393.134
1422.752
1454.727
1488.942
1525.272
1563.58
1603.726
1645.558
1688.924
1733.667
1779.626
1826.643
1874.555
1923.204
1972.43
2022.077
2071.989
2122.015
2172.006
2221.816
2271.305
2320.335
2368.753
2416.529
2463.07
2510.304
2549.17
2618.384
1409.575
1408.271
1406.987
1405.761
1404.524
1403.195
1401.68
1399.864
1397.634
1394.885
1391.524
1387.476
1382.69
1377.135
1370.805
1363.72
1355.925
1347.484
1338.488
1329.043
1319.275
1309.325
1299.344
1289.493
1279.942
1270.861
1262.423
1254.801
1248.163
1242.672
1238.482
1235.74
1234.581
1235.129
1237.493
1241.77
1248.044
1256.382
1266.838
1279.45
1294.242
1311.225
1330.394
1351.733
1375.211
1400.786
1428.407
1458.008
1489.516
1522.85
1557.918
1594.623
1632.861
1672.525
1713.474
1755.715
1798.554
1844.326
1882.452
1956.747
1423.13
1421.756
1420.343
1418.956
1417.625
1416.365
1415.183
1414.076
1413.029
1412.016
1410.998
1409.931
1408.76
1407.428
1405.871
1404.027
1401.834
1399.235
1396.176
1392.612
1388.507
1383.836
1378.583
1372.747
1366.337
1359.378
1351.906
1343.969
1335.629
1326.958
1318.039
1308.966
1299.839
1290.766
1281.862
1273.245
1265.038
1257.363
1250.345
1244.107
1238.77
1234.453
1231.268
1229.325
1228.724
1229.562
1231.925
1235.892
1241.534
1248.91
1258.072
1269.062
1281.911
1296.645
1313.252
1331.829
1351.982
1375.3
1395.105
1438.532
1445.464
1443.131
1440.812
1438.54
1436.336
1434.206
1432.159
1430.2
1428.336
1426.572
1424.913
1423.362
1421.915
1420.568
1419.311
1418.128
1416.999
1415.899
1414.797
1413.66
1412.449
1411.124
1409.641
1407.957
1406.028
1403.811
1401.266
1398.355
1395.046
1391.31
1387.125
1382.475
1377.353
1371.757
1365.695
1359.184
1352.246
1344.915
1337.232
1329.246
1321.013
1312.596
1304.068
1295.502
1286.982
1278.594
1270.429
1262.578
1255.138
1248.205
1241.878
1236.253
1231.426
1227.497
1224.541
1222.688
1221.902
1222.682
1223.592
1230.031
1483.432
1479.832
1476.284
1472.818
1469.445
1466.17
1462.992
1459.908
1456.918
1454.02
1451.215
1448.504
1445.89
1443.376
1440.966
1438.663
1436.47
1434.389
1432.422
1430.567
1428.82
1427.175
1425.624
1424.155
1422.752
1421.397
1420.069
1418.743
1417.392
1415.987
1414.496
1412.888
1411.129
1409.185
1407.023
1404.611
1401.919
1398.917
1395.581
1391.889
1387.823
1383.369
1378.518
1373.267
1367.618
1361.579
1355.163
1348.392
1341.29
1333.89
1326.23
1318.353
1310.309
1302.156
1293.944
1285.739
1277.656
1269.492
1262.662
1250.962
1539.285
1532.73
1526.487
1520.574
1514.98
1509.693
1504.691
1499.95
1495.45
1491.17
1487.092
1483.198
1479.475
1475.907
1472.483
1469.193
1466.029
1462.985
1460.054
1457.235
1454.524
1451.92
1449.421
1447.028
1444.74
1442.556
1440.475
1438.494
1436.611
1434.819
1433.113
1431.485
1429.923
1428.415
1426.947
1425.501
1424.06
1422.603
1421.107
1419.549
1417.904
1416.146
1414.249
1412.186
1409.931
1407.458
1404.743
1401.763
1398.496
1394.923
1391.029
1386.8
1382.227
1377.304
1372.031
1366.387
1360.479
1353.918
1348.368
1336.911
1715.069
1695.676
1677.284
1659.924
1643.585
1628.248
1613.869
1600.402
1587.805
1576.035
1565.049
1554.801
1545.249
1536.35
1528.063
1520.349
1513.167
1506.482
1500.257
1494.458
1489.055
1484.018
1479.318
1474.931
1470.832
1467.001
1463.419
1460.066
1456.928
1453.991
1451.24
1448.665
1446.255
1443.998
1441.887
1439.91
1438.059
1436.324
1434.695
1433.16
1431.709
1430.329
1429.006
1427.726
1426.473
1425.23
1423.978
1422.7
1421.373
1419.979
1418.494
1416.897
1415.166
1413.279
1411.216
1408.935
1406.49
1403.602
1401.206
1395.571
2179.705
2144.047
2108.974
2074.604
2041.007
2008.286
1976.505
1945.695
1915.898
1887.146
1859.462
1832.861
1807.352
1782.938
1759.616
1737.378
1716.213
1696.104
1677.029
1658.967
1641.89
1625.771
1610.577
1596.277
1582.837
1570.222
1558.399
1547.33
1536.981
1527.317
1518.303
1509.906
1502.093
1494.831
1488.09
1481.841
1476.054