/*--------------------------------*- C++ -*----------------------------------*\
| =========                 |                                                 |
| \\      /  F ield         | OpenFOAM: The Open Source CFD Toolbox           |
|  \\    /   O peration     | Version:  2312                                  |
|   \\  /    A nd           | Website:  www.openfoam.com                      |
|    \\/     M anipulation  |                                                 |
\*---------------------------------------------------------------------------*/
FoamFile
{
    version     2.0;
    format      ascii;
    arch        "LSB;label=32;scalar=64";
    class       volScalarField;
    location    "4350";
    object      ILambda_4_0;
}
// * * * * * * * * * * * * * * * * * * * * * * * * * * * * * * * * * * * * * //

dimensions      [1 0 -3 0 0 0 0];

internalField   nonuniform List<scalar> 
12000
(
3402.705
3402.136
3401.595
3401.093
3400.634
3400.207
3399.805
3399.422
3399.051
3398.684
3398.314
3397.935
3397.537
3397.115
3396.658
3396.159
3395.608
3394.995
3394.309
3393.54
3392.677
3391.708
3390.624
3389.414
3388.069
3386.582
3384.947
3383.16
3381.219
3379.126
3376.885
3374.503
3371.989
3369.358
3366.627
3363.814
3360.942
3358.038
3355.128
3352.243
3349.413
3346.672
3344.052
3341.587
3339.308
3337.248
3335.436
3333.899
3332.662
3331.746
3331.168
3330.941
3331.074
3331.566
3332.421
3333.63
3335.159
3337.085
3338.872
3342.869
3437.265
3437.133
3436.888
3436.538
3436.074
3435.49
3434.783
3433.947
3432.976
3431.862
3430.598
3429.176
3427.585
3425.818
3423.866
3421.719
3419.371
3416.819
3414.06
3411.098
3407.938
3404.591
3401.075
3397.41
3393.623
3389.746
3385.816
3381.874
3377.965
3374.137
3370.441
3366.928
3363.651
3360.659
3358.003
3355.729
3353.878
3352.487
3351.587
3351.202
3351.345
3352.026
3353.241
3354.978
3357.217
3359.926
3363.062
3366.575
3370.405
3374.48
3378.724
3383.049
3387.364
3391.565
3395.56
3399.215
3402.479
3405.072
3407.255
3408.348
3455.442
3453.347
3451.089
3448.676
3446.105
3443.378
3440.494
3437.446
3434.226
3430.828
3427.25
3423.489
3419.552
3415.45
3411.203
3406.836
3402.385
3397.893
3393.41
3388.993
3384.703
3380.605
3376.767
3373.256
3370.14
3367.481
3365.336
3363.756
3362.784
3362.45
3362.776
3363.768
3365.423
3367.721
3370.627
3374.095
3378.063
3382.455
3387.183
3392.147
3397.236
3402.33
3407.3
3412.01
3416.32
3420.087
3423.165
3425.41
3426.679
3426.831
3425.733
3423.259
3419.287
3413.706
3406.433
3397.32
3386.538
3372.942
3361.065
3332.101
3445.358
3441.33
3437.22
3433.006
3428.678
3424.231
3419.663
3414.984
3410.222
3405.421
3400.64
3395.952
3391.443
3387.204
3383.331
3379.92
3377.065
3374.851
3373.353
3372.63
3372.728
3373.671
3375.463
3378.087
3381.504
3385.651
3390.446
3395.785
3401.542
3407.578
3413.734
3419.842
3425.72
3431.18
3436.029
3440.071
3443.112
3444.961
3445.433
3444.351
3441.551
3436.88
3430.204
3421.401
3410.37
3397.029
3381.315
3363.186
3342.623
3319.624
3294.21
3266.422
3236.319
3203.977
3169.514
3132.933
3094.863
3053.145
3017.956
2946.942
3415.265
3410.988
3406.578
3402.07
3397.583
3393.246
3389.211
3385.648
3382.731
3380.619
3379.448
3379.325
3380.32
3382.464
3385.746
3390.111
3395.466
3401.676
3408.571
3415.949
3423.581
3431.215
3438.584
3445.408
3451.403
3456.285
3459.773
3461.599
3461.509
3459.265
3454.654
3447.488
3437.606
3424.877
3409.201
3390.511
3368.771
3343.977
3316.159
3285.374
3251.71
3215.282
3176.23
3134.718
3090.929
3045.065
2997.343
2947.991
2897.248
2845.36
2792.576
2739.145
2685.319
2631.337
2577.469
2523.813
2471.168
2417.233
2372.926
2292.672
3391.878
3388.692
3386.051
3384.559
3384.634
3386.457
3390.104
3395.526
3402.548
3410.897
3420.223
3430.113
3440.115
3449.748
3458.525
3465.958
3471.578
3474.94
3475.638
3473.304
3467.623
3458.332
3445.222
3428.144
3407.005
3381.771
3352.463
3319.155
3281.97
3241.078
3196.69
3149.055
3098.453
3045.191
2989.597
2932.018
2872.809
2812.334
2750.959
2689.045
2626.948
2565.014
2503.573
2442.941
2383.411
2325.256
2268.726
2214.045
2161.408
2110.989
2062.929
2017.344
1974.324
1933.923
1896.208
1861.097
1828.878
1798.39
1774.163
1736.126
3391.62
3397.522
3407.681
3420.923
3435.611
3450.221
3463.48
3474.213
3481.391
3484.164
3481.852
3473.935
3460.053
3439.99
3413.671
3381.147
3342.58
3298.233
3248.457
3193.676
3134.375
3071.083
3004.369
2934.822
2863.045
2789.644
2715.217
2640.347
2565.599
2491.504
2418.565
2347.242
2277.958
2211.089
2146.966
2085.874
2028.05
1973.683
1922.918
1875.853
1832.543
1793.005
1757.215
1725.113
1696.607
1671.577
1649.876
1631.331
1615.753
1602.935
1592.657
1584.688
1578.791
1574.719
1572.243
1571.102
1571.032
1571.985
1573.032
1576.331
3436.409
3465.268
3478.169
3475.065
3456.492
3423.63
3377.834
3320.414
3252.792
3176.449
3092.864
3003.496
2909.766
2813.032
2714.581
2615.613
2517.234
2420.448
2326.155
2235.144
2148.099
2065.593
1988.097
1915.978
1849.508
1788.865
1734.145
1685.362
1642.458
1605.312
1573.742
1547.518
1526.364
1509.97
1497.994
1490.071
1485.82
1484.847
1486.754
1491.138
1497.604
1505.761
1515.232
1525.652
1536.674
1547.97
1559.234
1570.184
1580.56
1590.128
1598.679
1606.03
1612.024
1616.526
1619.433
1620.655
1620.178
1617.587
1614.797
1603.743
3352.06
3161.033
2972.344
2788.067
2610.371
2441.205
2281.908
2133.499
1996.809
1872.386
1760.517
1661.285
1574.588
1500.162
1437.605
1386.4
1345.937
1315.526
1294.423
1281.839
1276.957
1278.945
1286.971
1300.206
1317.842
1339.091
1363.201
1389.452
1417.168
1445.719
1474.52
1503.038
1530.789
1557.342
1582.315
1605.379
1626.253
1644.704
1660.546
1673.635
1683.869
1691.187
1695.561
1696.999
1695.536
1691.238
1684.192
1674.51
1662.32
1647.766
1631.007
1612.212
1591.557
1569.225
1545.412
1520.241
1494.241
1466.031
1442.457
1395.918
714.7006
654.353
617.6854
603.0485
608.0304
629.7778
665.589
713.1006
770.0669
834.3924
904.1737
977.6814
1053.356
1129.803
1205.786
1280.219
1352.163
1420.812
1485.491
1545.646
1600.833
1650.712
1695.041
1733.662
1766.498
1793.543
1814.853
1830.541
1840.771
1845.747
1845.707
1840.924
1831.69
1818.319
1801.136
1780.479
1756.688
1730.107
1701.076
1669.932
1637.003
1602.608
1567.054
1530.636
1493.63
1456.301
1418.894
1381.637
1344.741
1308.398
1272.781
1238.048
1204.334
1171.76
1140.444
1110.397
1081.988
1054.11
1031.58
993.8101
899.5306
1107.036
1294.719
1462.546
1610.871
1740.36
1851.996
1946.71
2025.407
2089.048
2138.618
2175.102
2199.484
2212.74
2215.833
2209.704
2195.271
2173.423
2145.018
2110.878
2071.786
2028.487
1981.685
1932.039
1880.169
1826.647
1772.007
1716.735
1661.277
1606.038
1551.381
1497.631
1445.076
1393.964
1344.514
1296.907
1251.297
1207.808
1166.534
1127.548
1090.898
1056.609
1024.69
995.1283
967.8988
942.9603
920.2597
899.7327
881.3059
864.8978
850.4203
837.78
826.8795
817.6162
809.8964
803.5993
798.62
794.9295
792.2219
790.4558
3364.188
3227.228
3090.918
2955.803
2822.369
2691.358
2563.303
2438.561
2317.533
2200.574
2087.961
1979.929
1876.663
1778.306
1684.959
1596.683
1513.504
1435.418
1362.388
1294.35
1231.218
1172.883
1119.217
1070.077
1025.304
984.7278
948.1695
915.4417
886.3515
860.7022
838.2944
818.9281
802.4038
788.5236
777.0925
767.9193
760.8175
755.606
752.1099
750.1607
749.597
750.2652
752.0188
754.7196
758.2372
762.4496
767.2424
772.5097
778.1531
784.0824
790.2148
796.475
802.7949
809.1137
815.3742
821.5482
827.5001
833.5182
838.3985
846.8349
827.9643
788.5931
753.4532
722.5221
695.7564
672.9271
653.7578
638.0446
625.5665
616.0889
609.3832
605.2242
603.3905
603.6665
605.8428
609.7173
615.0958
621.7924
629.6303
638.4421
648.07
658.3657
669.1913
680.4183
691.9284
703.6128
715.3724
727.1173
738.7666
750.2482
761.4983
772.4611
783.0884
793.3391
803.1788
812.5795
821.5192
829.981
837.9533
845.4289
852.4049
858.8821
864.8648
870.3603
875.3786
879.9319
884.0347
887.7031
890.9546
893.8083
896.2841
898.4028
900.1856
901.6556
902.8324
903.7412
904.3996
904.8141
905.1048
904.948
865.0814
866.8907
869.2222
872.0259
875.1939
878.6487
882.3125
886.1066
889.9629
893.8201
897.6246
901.3295
904.8947
908.2861
911.4758
914.4409
917.164
919.6318
921.8357
923.7706
925.4349
926.8304
927.9611
928.8337
929.4569
929.8411
929.998
929.9405
929.6824
929.2381
928.6226
927.8508
926.9378
925.8988
924.7484
923.5012
922.1711
920.7719
919.3164
917.8172
916.2861
914.7343
913.1724
911.6105
910.0579
908.5233
907.015
905.5406
904.1071
902.7212
901.3891
900.1163
898.908
897.7696
896.7064
895.7125
894.8087
893.9625
893.2887
892.2623
879.9247
880.5897
881.1695
881.684
882.1402
882.5357
882.8709
883.1475
883.3672
883.5328
883.6476
883.7161
883.7428
883.7328
883.6914
883.6241
883.5361
883.4328
883.3191
883.1998
883.0792
882.9613
882.8496
882.7472
882.6567
882.5802
882.5193
882.4752
882.4489
882.4408
882.4511
882.4797
882.5264
882.5909
882.6727
882.7715
882.887
883.0189
883.1673
883.3322
883.5142
883.7137
883.9316
884.1689
884.4267
884.7062
885.0088
885.3358
885.6884
886.0676
886.4744
886.9092
887.3721
887.8632
888.3834
888.9201
889.481
890.0802
890.5834
891.5174
888.8549
889.2037
889.5084
889.7948
890.0736
890.3479
890.6197
890.8908
891.1617
891.4327
891.7038
891.9748
892.2453
892.5148
892.7826
893.0475
893.3084
893.5641
893.8128
894.0529
894.2827
894.5004
894.7042
894.8926
895.0642
895.2177
895.3523
895.4677
895.5638
895.6411
895.7008
895.7443
895.7737
895.7918
895.8015
895.8065
895.8104
895.8174
895.8316
895.8572
895.8981
895.9579
896.0399
896.1465
896.2794
896.4395
896.6263
896.8382
897.0723
897.3241
897.5879
897.8563
898.12
898.3695
898.5947
898.7658
898.904
898.9199
898.9759
898.5099
894.401
894.6842
894.922
895.1366
895.3361
895.5219
895.6946
895.8541
895.9997
896.1304
896.2451
896.3428
896.422
896.4818
896.521
896.5387
896.5339
896.5061
896.4553
896.3816
896.2858
896.1693
896.0342
895.8833
895.7199
895.5481
895.3725
895.1983
895.0308
894.8759
894.7391
894.626
894.5418
894.4909
894.4771
894.503
894.5699
894.6777
894.8246
895.007
895.2193
895.4538
895.7008
895.9484
896.1827
896.3875
896.545
896.6353
896.6372
896.528
896.2841
895.8812
895.2942
894.5001
893.4747
892.1764
890.6466
888.6529
886.9574
882.4786
898.9569
899.0352
899.0539
899.0344
898.9853
898.9099
898.8099
898.6863
898.5393
898.3693
898.1763
897.9611
897.7245
897.4682
897.1946
896.9067
896.6086
896.3053
896.0022
895.7058
895.4229
895.1604
894.9257
894.7253
894.5656
894.4517
894.3877
894.3759
894.4166
894.5081
894.6462
894.8239
895.0317
895.2572
895.485
895.6972
895.8732
895.9899
896.0222
895.943
895.7239
895.3354
894.7476
893.9304
892.8543
891.4909
889.8133
887.7967
885.4194
882.6625
879.5113
875.9553
871.9881
867.6121
862.827
857.6341
852.1182
845.9825
840.698
829.9137
899.7446
899.4718
899.1447
898.786
898.406
898.0091
897.598
897.1753
896.7443
896.3092
895.8757
895.4506
895.0418
894.6581
894.3088
894.0031
893.7494
893.555
893.4255
893.3637
893.37
893.4412
893.5704
893.747
893.9562
894.1792
894.3934
894.5724
894.6864
894.703
894.5872
894.3026
893.8115
893.0763
892.0597
890.7262
889.0423
886.9775
884.5054
881.6041
878.257
874.4535
870.1895
865.4681
860.2994
854.7015
848.7002
842.3293
835.6308
828.6541
821.4568
814.1036
806.6657
799.2259
791.8559
784.6604
777.7324
771.0736
765.4804
757.1376
896.1205
895.7223
895.2765
894.8143
894.3525
893.9016
893.4732
893.0803
892.7366
892.4554
892.2481
892.1234
892.0857
892.1342
892.2623
892.4571
892.6988
892.9615
893.2128
893.4149
893.525
893.4969
893.2815
892.8284
892.0872
891.009
889.5475
887.6604
885.3109
882.469
879.112
875.2259
870.8064
865.859
860.3998
854.4561
848.0659
841.2782
834.1531
826.7608
819.1815
811.5049
803.8289
796.2591
788.9079
781.8931
775.3368
769.3647
764.1043
759.6839
756.2319
753.8745
752.7357
752.9401
754.5823
757.8308
762.58
769.7514
776.1227
794.6188
892.2344
891.9606
891.6672
891.4204
891.2517
891.1811
891.2218
891.3741
891.6243
891.9444
892.2934
892.6181
892.8561
892.9375
892.7884
892.3331
891.4979
890.2129
888.4156
886.0525
883.0818
879.4748
875.2174
870.3116
864.7754
858.6438
851.9686
844.818
837.2761
829.4419
821.4282
813.3602
805.3741
797.6153
790.2366
783.3965
777.2572
771.9826
767.7365
764.6809
762.9737
762.7677
764.2082
767.4323
772.5668
779.7275
789.0179
800.5285
814.3357
830.5016
849.0733
870.0824
893.5466
919.4713
947.8143
978.6681
1011.469
1048.439
1079.766
1145.936
891.2814
891.4405
891.7198
892.1477
892.6432
893.1105
893.4282
893.4556
893.0525
892.0872
890.4448
888.0333
884.7875
880.672
875.683
869.8482
863.2266
855.9073
848.0072
839.6687
831.0566
822.3549
813.7635
805.4944
797.7682
790.8107
784.8489
780.1081
776.8087
775.1628
775.3723
777.6255
782.0959
788.9398
798.2946
810.2783
824.9879
842.499
862.8652
886.1184
912.2686
941.3043
973.1933
1007.883
1045.302
1085.361
1127.953
1172.955
1220.232
1269.634
1321.001
1374.164
1428.944
1485.163
1542.595
1601.211
1660.095
1722.202
1773.804
1872.116
895.5103
896.1285
896.3363
895.6669
893.7715
890.5014
885.7887
879.663
872.2548
863.768
854.4665
844.66
834.6907
824.9219
815.7277
807.4836
800.5584
795.3072
792.0658
791.1452
792.8282
797.3656
804.9745
815.8361
830.0952
847.8597
869.2007
894.1533
922.718
954.8615
990.5191
1029.596
1071.972
1117.499
1166.008
1217.311
1271.202
1327.459
1385.851
1446.135
1508.063
1571.381
1635.833
1701.165
1767.121
1833.453
1899.916
1966.272
2032.292
2097.758
2162.461
2226.204
2288.803
2350.092
2409.88
2468.163
2524.244
2580.398
2626.253
2706.188
901.7488
896.1407
886.8195
874.8547
861.6362
848.4318
836.2633
826.0573
818.6196
814.6145
814.5847
818.9576
828.054
842.0962
861.2163
885.4646
914.8172
949.1846
988.4187
1032.321
1080.648
1133.121
1189.43
1249.241
1312.2
1377.94
1446.087
1516.262
1588.085
1661.18
1735.18
1809.727
1884.473
1959.088
2033.257
2106.684
2179.092
2250.223
2319.841
2387.733
2453.704
2517.584
2579.223
2638.491
2695.281
2749.503
2801.09
2849.988
2896.165
2939.604
2980.302
3018.271
3053.538
3086.143
3116.116
3143.57
3168.412
3191.335
3209.581
3236.605
890.4925
864.8562
853.1117
854.8654
869.3896
895.5666
932.2206
978.3276
1032.859
1094.792
1163.149
1236.995
1315.432
1397.613
1482.734
1570.042
1658.832
1748.451
1838.295
1927.809
2016.49
2103.882
2189.576
2273.209
2354.464
2433.066
2508.779
2581.407
2650.793
2716.81
2779.366
2838.4
2893.876
2945.784
2994.14
3038.977
3080.35
3118.329
3152.999
3184.458
3212.815
3238.188
3260.703
3280.491
3297.688
3312.433
3324.866
3335.128
3343.362
3349.706
3354.298
3357.274
3358.765
3358.899
3357.798
3355.563
3352.423
3348.018
3344.161
3334.443
998.637
1165.733
1327.451
1483.429
1633.392
1776.942
1913.919
2044.263
2167.872
2284.697
2394.746
2498.059
2594.711
2684.806
2768.478
2845.882
2917.197
2982.618
3042.357
3096.638
3145.696
3189.773
3229.118
3263.983
3294.623
3321.291
3344.242
3363.725
3379.987
3393.267
3403.802
3411.817
3417.533
3421.159
3422.898
3422.94
3421.469
3418.655
3414.659
3409.633
3403.718
3397.043
3389.728
3381.885
3373.614
3365.007
3356.147
3347.109
3337.959
3328.756
3319.554
3310.399
3301.331
3292.385
3283.597
3274.966
3266.614
3258.18
3251.244
3238.981
3398.539
3433.733
3464.306
3490.397
3512.181
3529.965
3544.088
3554.822
3562.441
3567.224
3569.434
3569.326
3567.14
3563.11
3557.454
3550.38
3542.081
3532.742
3522.531
3511.608
3500.117
3488.193
3475.959
3463.525
3450.991
3438.447
3425.972
3413.636
3401.498
3389.61
3378.014
3366.745
3355.831
3345.293
3335.146
3325.398
3316.054
3307.113
3298.57
3290.418
3282.647
3275.243
3268.194
3261.482
3255.091
3249.006
3243.21
3237.688
3232.423
3227.404
3222.617
3218.053
3213.703
3209.559
3205.619
3201.88
3198.338
3194.947
3192.099
3187.585
3370.228
3367.127
3363.444
3359.278
3354.754
3349.955
3344.957
3339.837
3334.656
3329.47
3324.326
3319.263
3314.316
3309.511
3304.871
3300.412
3296.145
3292.079
3288.218
3284.56
3281.103
3277.841
3274.764
3271.862
3269.12
3266.524
3264.057
3261.703
3259.442
3257.257
3255.13
3253.042
3250.976
3248.917
3246.85
3244.762
3242.642
3240.483
3238.277
3236.023
3233.719
3231.368
3228.976
3226.549
3224.1
3221.642
3219.19
3216.764
3214.382
3212.067
3209.841
3207.728
3205.754
3203.939
3202.311
3200.896
3199.692
3198.761
3198.045
3197.602
3363.211
3360.665
3358.054
3355.413
3352.756
3350.094
3347.434
3344.776
3342.121
3339.468
3336.816
3334.161
3331.502
3328.833
3326.149
3323.445
3320.714
3317.949
3315.142
3312.285
3309.369
3306.388
3303.333
3300.198
3296.976
3293.665
3290.261
3286.764
3283.176
3279.502
3275.75
3271.929
3268.054
3264.141
3260.21
3256.284
3252.387
3248.546
3244.792
3241.154
3237.665
3234.357
3231.262
3228.412
3225.837
3223.566
3221.624
3220.034
3218.814
3217.98
3217.541
3217.501
3217.861
3218.609
3219.741
3221.225
3223.04
3225.2
3227.245
3231.38
3351.982
3348.926
3345.781
3342.584
3339.345
3336.076
3332.779
3329.458
3326.111
3322.739
3319.34
3315.909
3312.442
3308.934
3305.379
3301.771
3298.105
3294.378
3290.587
3286.734
3282.821
3278.855
3274.847
3270.812
3266.767
3262.736
3258.743
3254.819
3250.997
3247.311
3243.798
3240.498
3237.448
3234.685
3232.248
3230.17
3228.481
3227.21
3226.377
3225.998
3226.084
3226.636
3227.65
3229.111
3230.999
3233.283
3235.924
3238.874
3242.077
3245.469
3248.979
3252.527
3256.028
3259.389
3262.525
3265.303
3267.703
3269.393
3270.839
3270.575
3333.575
3330.139
3326.645
3323.124
3319.584
3316.031
3312.461
3308.866
3305.237
3301.567
3297.847
3294.072
3290.242
3286.359
3282.433
3278.479
3274.519
3270.581
3266.699
3262.911
3259.262
3255.799
3252.571
3249.628
3247.019
3244.792
3242.989
3241.651
3240.808
3240.485
3240.697
3241.45
3242.738
3244.545
3246.843
3249.591
3252.737
3256.217
3259.957
3263.869
3267.859
3271.821
3275.642
3279.204
3282.38
3285.043
3287.061
3288.3
3288.63
3287.921
3286.045
3282.881
3278.314
3272.235
3264.559
3255.134
3244.149
3230.416
3218.505
3189.603
3311.416
3307.965
3304.46
3300.901
3297.284
3293.607
3289.862
3286.054
3282.199
3278.327
3274.479
3270.707
3267.074
3263.647
3260.5
3257.705
3255.335
3253.455
3252.125
3251.392
3251.293
3251.848
3253.063
3254.924
3257.404
3260.452
3264.003
3267.973
3272.262
3276.753
3281.317
3285.81
3290.081
3293.968
3297.306
3299.922
3301.646
3302.306
3301.737
3299.775
3296.268
3291.071
3284.052
3275.093
3264.089
3250.953
3235.615
3218.022
3198.141
3175.958
3151.478
3124.727
3095.748
3064.603
3031.388
2996.107
2959.355
2919.053
2885
2816.288
3290.253
3286.879
3283.347
3279.693
3276.016
3272.416
3269.009
3265.931
3263.316
3261.29
3259.962
3259.42
3259.723
3260.899
3262.944
3265.821
3269.459
3273.755
3278.578
3283.769
3289.144
3294.501
3299.621
3304.273
3308.22
3311.221
3313.036
3313.431
3312.181
3309.072
3303.909
3296.513
3286.729
3274.424
3259.49
3241.847
3221.44
3198.246
3172.265
3143.53
3112.099
3078.054
3041.508
3002.592
2961.464
2918.299
2873.292
2826.654
2778.612
2729.401
2679.269
2628.471
2577.265
2525.913
2474.691
2423.768
2373.875
2323.081
2281.224
2206.802
3271.944
3268.881
3266.123
3264.173
3263.377
3263.889
3265.782
3269.03
3273.507
3279.009
3285.268
3291.964
3298.743
3305.224
3311.014
3315.718
3318.948
3320.333
3319.523
3316.199
3310.079
3300.917
3288.511
3272.705
3253.387
3230.492
3204.004
3173.949
3140.399
3103.466
3063.304
3020.1
2974.076
2925.484
2874.598
2821.717
2767.158
2711.25
2654.334
2596.757
2538.867
2481.015
2423.545
2366.795
2311.093
2256.755
2204.084
2153.362
2104.857
2058.815
2015.46
1974.996
1937.604
1903.437
1872.634
1845.288
1821.544
1801.212
1785.524
1767.84
3261.389
3264.342
3270.623
3279.344
3289.224
3299.071
3307.884
3314.729
3318.778
3319.333
3315.822
3307.79
3294.9
3276.93
3253.76
3225.372
3191.839
3153.317
3110.038
3062.298
3010.452
2954.903
2896.092
2834.493
2770.602
2704.932
2638.002
2570.333
2502.443
2434.836
2368.004
2302.416
2238.52
2176.733
2117.446
2061.016
2007.764
1957.979
1911.913
1869.78
1831.761
1797.998
1768.599
1743.639
1723.158
1707.166
1695.642
1688.538
1685.779
1687.266
1692.878
1702.472
1715.891
1732.956
1753.467
1777.315
1803.812
1834.83
1861.361
1919.164
3271.577
3292.708
3301.188
3297.004
3280.518
3252.6
3214.235
3166.357
3109.988
3046.205
2976.096
2900.754
2821.26
2738.672
2654.013
2568.266
2482.36
2397.171
2313.51
2232.123
2153.688
2078.81
2008.027
1941.803
1880.532
1824.542
1774.092
1729.378
1690.535
1657.643
1630.725
1609.757
1594.669
1585.348
1581.646
1583.381
1590.34
1602.287
1618.964
1640.095
1665.389
1694.546
1727.255
1763.204
1802.073
1843.547
1887.31
1933.05
1980.462
2029.247
2079.114
2129.782
2180.982
2232.456
2283.933
2335.309
2385.779
2437.557
2480.222
2557.314
3180.176
3026.241
2873.864
2724.312
2579.03
2439.452
2306.593
2181.291
2064.317
1956.275
1857.609
1768.638
1689.558
1620.452
1561.302
1511.999
1472.352
1442.101
1420.92
1408.435
1404.226
1407.835
1418.78
1436.555
1460.642
1490.513
1525.639
1565.492
1609.552
1657.308
1708.263
1761.937
1817.869
1875.616
1934.761
1994.907
2055.682
2116.738
2177.75
2238.419
2298.468
2357.643
2415.714
2472.472
2527.726
2581.308
2633.066
2682.867
2730.593
2776.142
2819.427
2860.372
2898.915
2935.006
2968.59
2999.686
3028.097
3054.482
3075.682
3106.891
1055.34
1001.09
962.6923
939.7132
931.3742
936.4452
953.6093
981.7363
1019.69
1066.335
1120.59
1181.419
1247.836
1318.907
1393.757
1471.566
1551.574
1633.079
1715.441
1798.074
1880.453
1962.106
2042.616
2121.614
2198.78
2273.841
2346.564
2416.754
2484.254
2548.936
2610.703
2669.485
2725.233
2777.917
2827.528
2874.068
2917.553
2958.009
2995.47
3029.977
3061.575
3090.312
3116.24
3139.41
3159.876
3177.691
3192.905
3205.571
3215.738
3223.455
3228.769
3231.727
3232.373
3230.752
3226.919
3220.853
3212.879
3201.919
3192.347
3167.412
1175.39
1318.534
1457.367
1591.498
1720.581
1844.201
1962.153
2074.325
2180.59
2280.885
2375.21
2463.611
2546.174
2623.024
2694.315
2760.231
2820.974
2876.764
2927.831
2974.412
3016.747
3055.077
3089.636
3120.652
3148.344
3172.92
3194.573
3213.484
3229.818
3243.725
3255.338
3264.776
3272.142
3277.526
3281.003
3282.634
3282.472
3280.556
3276.917
3271.579
3264.559
3255.869
3245.516
3233.505
3219.84
3204.526
3187.565
3168.965
3148.734
3126.885
3103.435
3078.404
3051.82
3023.712
2994.143
2963.038
2930.934
2895.86
2866.403
2806.848
3213.317
3240.876
3264.276
3283.646
3299.213
3311.318
3320.355
3326.666
3330.6
3332.501
3332.691
3331.462
3329.082
3325.782
3321.763
3317.188
3312.189
3306.863
3301.276
3295.463
3289.434
3283.171
3276.635
3269.77
3262.5
3254.741
3246.394
3237.356
3227.518
3216.773
3205.009
3192.123
3178.013
3162.587
3145.76
3127.456
3107.613
3086.179
3063.114
3038.394
3012.006
2983.951
2954.243
2922.91
2889.993
2855.542
2819.623
2782.309
2743.685
2703.844
2662.887
2620.923
2578.066
2534.43
2490.168
2445.279
2400.421
2353.412
2314.377
2240.657
3150.975
3145.349
3139.532
3133.99
3129.105
3125.07
3122.009
3119.968
3118.906
3118.72
3119.257
3120.32
3121.685
3123.104
3124.32
3125.067
3125.081
3124.106
3121.896
3118.222
3112.873
3105.659
3096.415
3085.001
3071.303
3055.233
3036.729
3015.758
2992.309
2966.399
2938.067
2907.374
2874.4
2839.247
2802.032
2762.886
2721.954
2679.394
2635.371
2590.057
2543.631
2496.274
2448.171
2399.507
2350.463
2301.22
2251.956
2202.841
2154.042
2105.715
2058.012
2011.075
1965.037
1920.016
1876.151
1833.444
1792.39
1751.345
1717.842
1659.487
3112.002
3112.518
3115.795
3121.087
3127.38
3133.745
3139.424
3143.727
3146.056
3145.916
3142.901
3136.693
3127.054
3113.817
3096.884
3076.219
3051.84
3023.815
2992.256
2957.313
2919.167
2878.029
2834.132
2787.725
2739.076
2688.457
2636.151
2582.44
2527.609
2471.938
2415.702
2359.169
2302.596
2246.229
2190.301
2135.034
2080.631
2027.283
1975.162
1924.425
1875.214
1827.652
1781.847
1737.892
1695.861
1655.817
1617.804
1581.857
1547.993
1516.22
1486.533
1458.915
1433.343
1409.776
1388.186
1368.482
1350.722
1334.393
1321.45
1302.311
3099.791
3116.254
3122.291
3118.256
3104.731
3082.573
3052.673
3015.807
2972.753
2924.284
2871.138
2814.02
2753.605
2690.534
2625.408
2558.795
2491.223
2423.182
2355.123
2287.46
2220.568
2154.787
2090.419
2027.73
1966.956
1908.296
1851.921
1797.971
1746.558
1697.77
1651.668
1608.292
1567.66
1529.77
1494.605
1462.13
1432.298
1405.046
1380.303
1357.988
1338.01
1320.274
1304.676
1291.111
1279.468
1269.635
1261.5
1254.948
1249.865
1246.139
1243.66
1242.318
1242.008
1242.627
1244.076
1246.273
1249.044
1252.621
1255.733
1262.875
3013.622
2887.188
2764.845
2646.928
2533.68
2425.407
2322.233
2224.202
2131.389
2043.826
1961.502
1884.38
1812.398
1745.467
1683.481
1626.312
1573.817
1525.84
1482.21
1442.751
1407.275
1375.589
1347.497
1322.8
1301.296
1282.785
1267.068
1253.948
1243.231
1234.729
1228.258
1223.639
1220.701
1219.279
1219.215
1220.36
1222.57
1225.711
1229.656
1234.288
1239.494
1245.172
1251.227
1257.571
1264.123
1270.809
1277.563
1284.325
1291.04
1297.66
1304.142
1310.449
1316.548
1322.413
1328.014
1333.347
1338.345
1343.17
1347.089
1353.318
1234.526
1209.325
1187.612
1169.336
1154.382
1142.516
1133.469
1127.03
1122.978
1121.094
1121.164
1122.988
1126.37
1131.125
1137.079
1144.064
1151.925
1160.516
1169.701
1179.353
1189.357
1199.606
1210.002
1220.458
1230.894
1241.24
1251.432
1261.417
1271.146
1280.578
1289.68
1298.422
1306.783
1314.744
1322.293
1329.42
1336.121
1342.394
1348.239
1353.662
1358.667
1363.263
1367.46
1371.267
1374.698
1377.765
1380.481
1382.86
1384.916
1386.663
1388.116
1389.289
1390.196
1390.852
1391.269
1391.457
1391.455
1391.186
1390.942
1389.789
1304.413
1309.043
1313.918
1319.018
1324.269
1329.61
1334.985
1340.335
1345.612
1350.769
1355.771
1360.585
1365.184
1369.548
1373.66
1377.508
1381.084
1384.384
1387.406
1390.153
1392.629
1394.84
1396.795
1398.505
1399.979
1401.231
1402.273
1403.118
1403.78
1404.271
1404.605
1404.794
1404.849
1404.783
1404.606
1404.327
1403.955
1403.498
1402.964
1402.358
1401.687
1400.954
1400.165
1399.322
1398.429
1397.489
1396.504
1395.476
1394.409
1393.304
1392.166
1390.997
1389.802
1388.587
1387.353
1386.106
1384.87
1383.591
1382.516
1380.566
1362.04
1364.427
1366.633
1368.688
1370.605
1372.388
1374.042
1375.571
1376.981
1378.276
1379.463
1380.55
1381.542
1382.449
1383.278
1384.037
1384.734
1385.377
1385.972
1386.525
1387.043
1387.53
1387.989
1388.424
1388.836
1389.227
1389.596
1389.943
1390.267
1390.564
1390.833
1391.071
1391.273
1391.436
1391.557
1391.633
1391.66
1391.637
1391.561
1391.431
1391.249
1391.015
1390.731
1390.401
1390.032
1389.629
1389.201
1388.757
1388.311
1387.873
1387.46
1387.088
1386.775
1386.542
1386.403
1386.392
1386.501
1386.855
1387.135
1388.467
1392.334
1393.477
1394.491
1395.41
1396.257
1397.043
1397.78
1398.476
1399.139
1399.775
1400.388
1400.984
1401.565
1402.134
1402.691
1403.236
1403.767
1404.281
1404.776
1405.247
1405.688
1406.094
1406.46
1406.78
1407.048
1407.26
1407.411
1407.499
1407.52
1407.474
1407.362
1407.187
1406.951
1406.662
1406.328
1405.959
1405.568
1405.168
1404.776
1404.412
1404.095
1403.848
1403.695
1403.661
1403.773
1404.059
1404.549
1405.271
1406.257
1407.536
1409.139
1411.097
1413.439
1416.197
1419.39
1423.072
1427.17
1432.105
1436.298
1446.113
1410.489
1410.983
1411.421
1411.84
1412.261
1412.695
1413.146
1413.614
1414.098
1414.592
1415.088
1415.58
1416.058
1416.513
1416.934
1417.315
1417.645
1417.919
1418.132
1418.28
1418.363
1418.381
1418.34
1418.247
1418.111
1417.946
1417.767
1417.594
1417.447
1417.352
1417.335
1417.424
1417.651
1418.049
1418.651
1419.492
1420.608
1422.036
1423.812
1425.971
1428.55
1431.583
1435.104
1439.143
1443.731
1448.896
1454.663
1461.055
1468.091
1475.789
1484.162
1493.221
1502.973
1513.425
1524.564
1536.435
1548.835
1562.586
1574.158
1598.121
1424.228
1425.084
1425.928
1426.777
1427.626
1428.464
1429.276
1430.045
1430.756
1431.399
1431.963
1432.447
1432.851
1433.181
1433.446
1433.663
1433.851
1434.036
1434.247
1434.514
1434.876
1435.371
1436.04
1436.926
1438.075
1439.532
1441.343
1443.552
1446.206
1449.348
1453.019
1457.26
1462.107
1467.595
1473.754
1480.613
1488.194
1496.517
1505.598
1515.447
1526.071
1537.472
1549.648
1562.592
1576.292
1590.733
1605.896
1621.756
1638.286
1655.454
1673.227
1691.566
1710.43
1729.779
1749.553
1769.763
1790.103
1811.629
1829.538
1863.9
1447.505
1449.069
1450.434
1451.604
1452.6
1453.453
1454.187
1454.839
1455.451
1456.076
1456.767
1457.585
1458.593
1459.856
1461.439
1463.407
1465.824
1468.753
1472.253
1476.378
1481.182
1486.71
1493.003
1500.099
1508.027
1516.811
1526.47
1537.016
1548.453
1560.782
1573.996
1588.081
1603.021
1618.792
1635.363
1652.702
1670.771
1689.526
1708.922
1728.908
1749.431
1770.436
1791.866
1813.659
1835.755
1858.091
1880.604
1903.23
1925.906
1948.568
1971.153
1993.6
2015.848
2037.839
2059.505
2080.838
2101.575
2122.577
2139.826
2170.458
1485.792
1486.783
1487.787
1488.941
1490.421
1492.37
1494.89
1498.09
1502.064
1506.894
1512.649
1519.385
1527.147
1535.971
1545.88
1556.884
1568.987
1582.182
1596.451
1611.769
1628.103
1645.414
1663.655
1682.772
1702.707
1723.399
1744.78
1766.781
1789.329
1812.349
1835.766
1859.501
1883.478
1907.619
1931.846
1956.083
1980.256
2004.29
2028.115
2051.661
2074.861
2097.652
2119.974
2141.767
2162.978
2183.555
2203.451
2222.622
2241.028
2258.631
2275.399
2291.303
2306.316
2320.419
2333.587
2345.823
2357.048
2367.543
2375.956
2388.57
1545.52
1552.531
1561.165
1571.475
1583.492
1597.147
1612.345
1629.019
1647.08
1666.431
1686.971
1708.595
1731.197
1754.667
1778.896
1803.772
1829.185
1855.028
1881.192
1907.572
1934.068
1960.578
1987.008
2013.267
2039.265
2064.921
2090.155
2114.892
2139.064
2162.605
2185.455
2207.561
2228.87
2249.338
2268.925
2287.594
2305.313
2322.056
2337.8
2352.526
2366.22
2378.871
2390.473
2401.021
2410.516
2418.962
2426.364
2432.731
2438.077
2442.415
2445.762
2448.138
2449.564
2450.063
2449.664
2448.374
2446.307
2443.139
2440.29
2432.349
1740.388
1771.155
1802.197
1833.465
1864.88
1896.29
1927.57
1958.626
1989.351
2019.64
2049.402
2078.551
2107.008
2134.701
2161.565
2187.54
2212.574
2236.62
2259.637
2281.591
2302.452
2322.196
2340.801
2358.255
2374.546
2389.667
2403.616
2416.394
2428.006
2438.459
2447.764
2455.935
2462.987
2468.938
2473.811
2477.626
2480.41
2482.187
2482.987
2482.837
2481.769
2479.814
2477.005
2473.375
2468.958
2463.79
2457.906
2451.342
2444.134
2436.319
2427.934
2419.015
2409.6
2399.726
2389.436
2378.729
2367.801
2356.025
2346.193
2326.768
2211.739
2238.773
2264.541
2289.037
2312.249
2334.148
2354.743
2374.043
2392.046
2408.76
2424.195
2438.364
2451.281
2462.964
2473.433
2482.707
2490.811
2497.768
2503.603
2508.344
2512.017
2514.652
2516.279
2516.926
2516.627
2515.411
2513.313
2510.363
2506.597
2502.046