/*--------------------------------*- C++ -*----------------------------------*\
| =========                 |                                                 |
| \\      /  F ield         | OpenFOAM: The Open Source CFD Toolbox           |
|  \\    /   O peration     | Version:  2312                                  |
|   \\  /    A nd           | Website:  www.openfoam.com                      |
|    \\/     M anipulation  |                                                 |
\*---------------------------------------------------------------------------*/
FoamFile
{
    version     2.0;
    format      ascii;
    arch        "LSB;label=32;scalar=64";
    class       volScalarField;
    location    "4350";
    object      ILambda_2_0;
}
// * * * * * * * * * * * * * * * * * * * * * * * * * * * * * * * * * * * * * //

dimensions      [1 0 -3 0 0 0 0];

internalField   nonuniform List<scalar> 
12000
(
2993.456
2311.439
1790.103
1409.069
1138.95
952.7765
828.895
750.7012
705.429
683.041
675.6518
677.4144
684.4615
694.5412
706.3156
718.6247
730.1287
739.4683
745.6903
748.5387
748.3972
745.9625
741.8981
736.671
730.6004
724.0016
717.2861
710.9477
705.4622
701.1715
698.2086
696.4847
695.723
695.516
695.4259
695.0663
694.1684
692.618
690.4757
687.9516
685.3299
682.8812
680.7698
679.0933
677.9553
677.429
677.4767
677.96
678.7246
679.7257
680.8798
681.9444
682.6533
682.8866
682.5526
681.4465
679.287
675.435
670.9834
655.9777
3523.77
3507.65
3319.479
3020.983
2669.882
2309.271
1967.738
1662.257
1401.311
1187.448
1019.142
892.1785
800.8185
738.8055
700.1467
679.537
672.4137
674.8136
683.254
694.7521
706.9381
718.1393
727.3474
734.0749
738.1784
739.7251
738.9312
736.1474
731.8448
726.5752
720.906
715.3492
710.3065
706.0368
702.642
700.0803
698.1961
696.7617
695.5235
694.2544
692.7999
691.1038
689.204
687.1859
685.1494
683.2113
681.5026
680.1361
679.1682
678.5937
678.4048
678.596
679.1054
679.7994
680.5435
681.2038
681.7393
681.6565
682.0475
678.5853
3473.689
3536.102
3583.658
3578.414
3501.924
3353.19
3142.77
2887.23
2605.03
2313.819
2028.814
1761.959
1521.633
1312.8
1137.48
995.3983
884.6493
802.2331
744.4598
707.2588
686.4558
678.0324
678.3454
684.2701
693.2547
703.3052
712.9356
721.1147
727.2168
730.9742
732.4184
731.8099
729.5589
726.1491
722.0681
717.752
713.5466
709.6861
706.2875
703.3612
700.8371
698.6014
696.5376
694.5518
692.5805
690.5931
688.5979
686.6408
684.7909
683.114
681.6667
680.5055
679.6814
679.2142
679.0919
679.2632
679.7165
680.289
681.0869
682.0462
3446.913
3458.561
3489.303
3532.886
3574.085
3595.198
3581.061
3521.771
3413.519
3258.164
3062.082
2834.731
2587.175
2330.775
2076.121
1832.309
1606.537
1403.97
1227.797
1079.397
958.5883
863.9139
792.9679
742.7221
709.8296
690.88
682.5946
681.9657
686.351
693.5312
701.7395
709.6625
716.4142
721.4886
724.6953
726.0869
725.8838
724.4042
722.0026
719.0195
715.7455
712.4003
709.1293
706.0116
703.0769
700.3201
697.7186
695.2465
692.8877
690.6414
688.519
686.543
684.7473
683.1735
681.8632
680.8446
680.1439
679.7705
679.6216
680.1751
3419.642
3422.302
3427.658
3441.394
3466.595
3501.759
3540.889
3574.869
3593.378
3586.742
3547.392
3470.751
3355.586
3203.883
3020.36
2811.758
2586.044
2351.637
2116.74
1888.807
1674.151
1477.711
1302.939
1151.824
1025.008
921.9682
841.2514
780.711
737.7429
709.5017
693.0901
685.7179
684.828
688.1855
693.9312
700.6021
707.122
712.7694
717.1291
720.0342
721.5036
721.6816
720.783
719.0484
716.7121
713.9817
711.0265
707.9754
704.9199
701.9225
699.0247
696.2539
693.6302
691.1723
688.9003
686.8401
685.0136
683.4397
682.2064
680.8324
3395.026
3397.091
3398.614
3400.472
3405.111
3415.573
3434.164
3461.349
3495.158
3531.228
3563.353
3584.339
3586.975
3564.938
3513.52
3430.094
3314.298
3167.966
2994.851
2800.211
2590.309
2371.904
2151.753
1936.193
1730.794
1540.126
1367.622
1215.54
1085.004
976.1093
888.0645
819.3728
768.0172
731.649
707.7638
693.8568
687.5504
686.6913
689.4155
694.183
699.7857
705.3333
710.2219
714.091
716.7755
718.2568
718.6175
718.0022
716.5854
714.5478
712.0604
709.2753
706.321
703.3019
700.3
697.3827
694.5982
691.9568
689.7477
686.4743
3389.455
3386.811
3385.604
3385.313
3385.614
3386.884
3390.332
3397.733
3410.863
3430.842
3457.587
3489.499
3523.429
3554.905
3578.579
3588.79
3580.173
3548.204
3489.644
3402.823
3287.761
3146.132
2981.085
2796.963
2598.956
2392.719
2183.998
1978.287
1780.552
1595.004
1424.969
1272.806
1139.912
1026.774
933.0605
857.7624
799.3375
755.8708
725.2283
705.1974
693.6085
688.4311
687.8451
690.2849
694.4611
699.3607
704.2309
708.5523
712.0039
714.4255
715.7801
716.1189
715.5516
714.2198
712.2803
709.8828
707.1889
704.2329
701.6078
696.9832
3409.363
3393.661
3376.887
3361.269
3348.242
3338.446
3332.07
3329.267
3330.432
3336.262
3347.616
3365.237
3389.408
3419.641
3454.47
3491.378
3526.882
3556.77
3576.435
3581.275
3567.097
3530.492
3469.118
3381.905
3269.127
3132.374
2974.427
2799.043
2610.696
2414.283
2214.832
2017.22
1825.937
1644.89
1477.264
1325.439
1190.967
1074.596
976.3315
895.541
831.0693
781.3709
744.6415
718.9424
702.312
692.8585
688.8319
688.6756
691.0566
694.8783
699.2774
703.6096
707.4264
710.4458
712.5282
713.6221
713.8184
713.0379
712.0503
708.4946
3512.131
3598.777
3642.057
3650.416
3633.678
3600.759
3559.001
3514.088
3470.235
3430.493
3397.059
3371.534
3355.075
3348.442
3351.943
3365.327
3387.666
3417.26
3451.617
3487.501
3521.086
3548.169
3564.448
3565.824
3548.696
3510.223
3448.53
3362.839
3253.516
3122.041
2970.902
2803.423
2623.558
2435.656
2244.208
2053.627
1868.026
1691.055
1525.764
1374.522
1238.979
1120.069
1018.058
932.6144
862.9015
807.688
765.4588
734.5237
713.1188
699.4937
691.9832
689.0622
689.3829
691.796
695.362
699.328
703.184
706.4274
709.0733
710.7932
1063.545
1629.153
2123.005
2536.78
2869.385
3124.834
3310.612
3436.259
3512.21
3548.915
3556.23
3543.049
3517.128
3485.045
3452.213
3422.937
3400.448
3386.934
3383.555
3390.444
3406.74
3430.641
3459.504
3490.001
3518.312
3540.368
3552.105
3549.73
3529.965
3490.256
3428.936
3345.318
3239.731
3113.487
2968.79
2808.593
2636.424
2456.181
2271.931
2087.698
1907.289
1734.13
1571.148
1420.686
1284.459
1163.547
1058.42
968.9923
894.6952
834.5664
787.344
751.562
725.6408
707.9703
696.9749
691.184
689.2319
690.0486
692.0708
697.2876
667.2366
591.2146
678.6982
892.0087
1188.119
1527.988
1879.426
2217.789
2525.714
2792.383
3012.502
3185.183
3312.834
3400.152
3453.268
3479.025
3484.426
3476.196
3460.462
3442.519
3426.661
3416.067
3412.751
3417.546
3430.149
3449.211
3472.483
3496.998
3519.295
3535.66
3542.378
3535.982
3513.472
3472.505
3411.531
3329.88
3227.793
3106.395
2967.615
2814.07
2648.911
2475.649
2297.978
2119.592
1944.025
1774.504
1613.84
1464.341
1327.765
1205.304
1097.593
1004.75
926.4339
861.9144
810.1464
769.8857
739.6695
718.1274
703.803
693.0977
3182.982
2679.389
2215.501
1833.667
1559.863
1403.165
1359.057
1413.535
1546.943
1737.227
1962.488
2202.799
2441.341
2664.982
2864.413
3033.957
3171.167
3276.291
3351.677
3401.183
3429.614
3442.215
3444.228
3440.526
3435.318
3431.935
3432.689
3438.803
3450.419
3466.666
3485.783
3505.297
3522.229
3533.326
3535.294
3525.032
3499.833
3457.556
3396.763
3316.794
3217.802
3100.734
2967.274
2819.733
2660.926
2494.023
2322.385
2149.411
1978.389
1812.365
1654.035
1505.665
1369.039
1245.43
1135.612
1039.851
958.1302
889.0826
836.691
773.4963
1190.625
1688.823
1981.554
2097.572
2082.441
1985.154
1850.987
1717.486
1612.542
1554
1550.406
1602.493
1705.013
1848.642
2021.786
2212.126
2407.865
2598.628
2776.045
2934.034
3068.851
3178.945
3264.687
3327.998
3371.944
3400.308
3417.188
3426.624
3432.284
3437.209
3443.638
3452.897
3465.37
3480.529
3497.032
3512.867
3525.531
3532.235
3530.116
3516.446
3488.818
3445.308
3384.594
3306.043
3209.741
3096.488
2967.748
2825.571
2672.476
2511.326
2345.19
2177.201
2010.426
1847.734
1691.74
1544.526
1408.526
1281.995
1180.668
1033.554
830.2854
900.0356
1076.183
1296.57
1508.105
1676.031
1783.916
1830.448
1825.183
1784.167
1726.02
1668.826
1627.948
1614.718
1635.894
1693.757
1786.648
1909.798
2056.293
2218.049
2386.703
2554.361
2714.174
2860.718
2990.197
3100.48
3191.001
3262.559
3317.041
3357.101
3385.827
3406.421
3421.906
3434.881
3447.335
3460.526
3474.921
3490.209
3505.358
3518.736
3528.254
3531.543
3526.142
3509.676
3480.028
3435.487
3374.862
3297.559
3203.62
3093.727
2969.165
2831.754
2683.759
2527.764
2366.643
2202.997
2041.015
1877.443
1741.671
1514.695
865.8667
829.1019
816.7353
851.1356
936.1177
1060.96
1207.114
1354.296
1484.978
1587.064
1654.895
1688.966
1694.799
1681.366
1659.377
1639.683
1631.962
1643.784
1680.065
1742.91
1831.759
1943.78
2074.413
2217.987
2368.342
2519.397
2665.623
2802.408
2926.281
3035.025
3127.66
3204.343
3266.182
3315.003
3353.091
3382.92
3406.905
3427.182
3445.432
3462.759
3479.622
3495.826
3510.559
3522.484
3529.855
3530.663
3522.797
3504.202
3473.029
3427.771
3367.361
3291.257
3199.48
3092.598
2971.838
2838.413
2696.19
2539.554
2405.623
2148.532
888.6951
877.4614
854.7222
828.9519
813.2494
819.6406
855.3482
921.3545
1012.849
1120.901
1234.635
1343.345
1438.186
1513.291
1566.27
1598.132
1612.777
1616.178
1615.438
1617.843
1630.028
1657.327
1703.353
1769.804
1856.49
1961.528
2081.678
2212.748
2350.04
2488.772
2624.461
2753.226
2872.008
2978.692
3072.139
3152.133
3219.265
3274.761
3320.278
3357.696
3388.901
3415.6
3439.166
3460.518
3480.057
3497.64
3512.61
3523.853
3529.898
3529.039
3519.465
3499.4
3467.237
3421.63
3361.732
3286.623
3198.153
3088.982
2992.984
2775.889
894.2046
893.8026
889.7615
878.9385
861.0921
839.6409
820.8135
811.901
819.3423
847.2319
896.5479
965.1127
1048.139
1139.162
1231.134
1317.493
1393.038
1454.513
1500.881
1533.265
1554.641
1569.341
1582.452
1599.2
1624.381
1661.906
1714.478
1783.419
1868.657
1968.831
2081.509
2203.47
2331.026
2460.346
2587.754
2709.985
2824.372
2928.967
3022.59
3104.81
3175.863
3236.534
3287.999
3331.652
3368.937
3401.187
3429.489
3454.578
3476.774
3495.954
3511.563
3522.661
3528.006
3526.119
3515.53
3494.354
3462.616
3413.371
3368.837
3238.2
897.9148
897.5646
897.616
896.8919
893.4045
885.3189
871.9654
854.4788
835.8354
820.3213
812.6718
817.1454
836.7343
872.646
924.1208
988.5832
1062.066
1139.813
1216.952
1289.131
1353.039
1406.755
1449.888
1483.534
1510.062
1532.769
1555.475
1582.089
1616.207
1660.776
1717.849
1788.446
1872.522
1969.032
2076.076
2191.105
2311.16
2433.12
2553.938
2670.849
2781.531
2884.213
2977.73
3061.52
3135.572
3200.34
3256.621
3305.421
3347.816
3384.818
3417.263
3445.715
3470.412
3491.213
3507.702
3518.84
3524.425
3520.072
3515.654
3470.675
898.9888
898.9146
898.9039
899.2011
899.638
899.4562
897.4144
892.1896
882.9189
869.6526
853.5728
836.943
822.8151
814.5677
815.3713
827.6842
852.8674
890.9753
940.7483
999.7926
1064.911
1132.527
1199.129
1261.696
1318.022
1366.939
1408.395
1443.409
1473.909
1502.487
1532.1
1565.756
1606.219
1655.755
1715.945
1787.573
1870.593
1964.166
2066.767
2176.336
2290.455
2406.547
2522.06
2634.634
2742.238
2843.268
2936.594
3021.572
3098.01
3166.109
3226.365
3279.467
3326.188
3367.259
3403.331
3434.695
3461.872
3483.709
3502.06
3513.835
896.065
896.8106
897.3545
897.8216
898.3939
899.1988
900.1298
900.7142
900.1378
897.4307
891.7422
882.6292
870.2872
855.6695
840.4653
826.9356
817.6362
815.076
821.3696
837.941
865.3244
903.0875
949.8862
1003.635
1061.767
1121.543
1180.368
1236.08
1287.172
1332.929
1373.483
1409.756
1443.342
1476.32
1511.026
1549.821
1594.869
1647.939
1710.262
1782.442
1864.424
1955.518
2054.477
2159.61
2268.916
2380.244
2491.435
2600.458
2705.528
2805.183
2898.338
2984.294
3062.725
3133.626
3197.257
3254.036
3304.422
3349.521
3385.791
3435.574
892.6
893.2701
893.9519
894.6259
895.2868
895.9929
896.8601
897.9742
899.2759
900.4814
901.071
900.3517
897.587
892.169
883.8003
872.6451
859.4156
845.3715
832.2272
821.9771
816.6662
818.1415
827.8203
846.5122
874.3157
910.6061
954.1097
1003.056
1055.381
1108.964
1161.853
1212.472
1259.776
1303.34
1343.386
1380.741
1416.732
1453.046
1491.557
1534.144
1582.522
1638.088
1701.812
1774.161
1855.074
1943.977
2039.838
2141.255
2246.559
2353.936
2461.546
2567.63
2670.606
2769.144
2862.175
2949.072
3028.906
3103.762
3163.389
3255.138
891.5539
891.4346
891.4785
891.6984
892.0615
892.5234
893.072
893.7506
894.6365
895.7907
897.1962
898.7041
900.0024
900.622
899.9871
897.5062
892.6924
885.2915
875.3933
863.5024
850.5517
837.852
826.9805
819.6232
817.3931
821.6495
833.3431
852.9081
880.2141
914.5838
954.8719
999.5946
1047.093
1095.711
1143.966
1190.697
1235.174
1277.159
1316.918
1355.178
1393.051
1431.918
1473.294
1518.69
1569.476
1626.769
1691.338
1763.549
1843.341
1930.234
2023.369
2121.579
2223.46
2327.489
2432.035
2535.779
2636.4
2736.593
2818.291
2955.458
895.0237
893.7996
892.7838
892.0438
891.605
891.4539
891.5492
891.849
892.3334
893.0123
893.918
895.0838
896.5104
898.1286
899.7662
901.1301
901.8133
901.3326
899.1947
894.985
888.4631
879.6495
868.8865
856.8602
844.5756
833.2869
824.3883
819.2809
819.2316
825.2427
837.9487
857.5529
883.811
916.0627
953.307
994.3113
1037.742
1082.3
1126.851
1170.536
1212.843
1253.653
1293.243
1332.249
1371.6
1412.43
1455.971
1503.444
1555.954
1614.397
1679.391
1751.226
1829.844
1914.857
2005.492
2101.038
2199.163
2303.538
2391.325
2553.698
901.8799
899.7816
897.3719
894.7393
892.042
889.4653
887.179
885.3128
883.9501
883.1346
882.8816
883.1894
884.0456
885.4277
887.2931
889.5621
892.0954
894.6743
896.9909
898.6547
899.2223
898.2469
895.345
890.2702
882.9819
873.6971
862.9155
851.4108
840.1867
830.402
823.2723
819.9605
821.4691
828.5464
841.6189
860.756
885.6721
915.7628
950.1738
987.8915
1027.847
1069.022
1110.547
1151.782
1192.37
1232.269
1271.745
1311.348
1351.852
1394.188
1439.361
1488.359
1542.075
1601.248
1666.314
1737.775
1814.421
1900.919
1975.296
2127.344
909.8276
914.359
920.823
927.3246
932.4539
935.4378
936.0386
934.4007
930.909
926.0704
920.425
914.4853
908.6992
903.4312
898.9565
895.4628
893.053
891.7465
891.4757
892.0806
893.3051
894.7999
896.1377
896.8429
896.4354
894.4874
890.6839
884.8806
877.15
867.8072
857.4111
846.7378
836.7289
828.4185
822.8481
820.9775
823.6025
831.2884
844.3253
862.7108
886.1608
914.1471
945.9566
980.7661
1017.725
1056.039
1095.042
1134.257
1173.44
1212.594
1251.965
1292.023
1333.407
1376.893
1423.244
1473.498
1527.368
1589.71
1643.082
1761.416
849.5082
760.4663
710.1959
691.3463
695.352
714.4152
742.0561
773.2157
804.1882
832.4723
856.581
875.8353
890.1653
899.9279
905.7503
908.4018
908.6954
907.4161
905.2697
902.8489
900.6097
898.8568
897.7351
897.2303
897.1792
897.2919
897.1864
896.435
894.6199
891.3918
886.5255
879.967
871.864
862.5771
852.6681
842.867
834.0201
827.0249
822.7578
822.0042
825.3954
833.3616
846.1029
863.5825
885.5421
911.5358
940.9807
973.2181
1007.579
1043.446
1080.314
1117.833
1155.832
1194.355
1233.573
1274.085
1315.58
1362.094
1400.514
1486.72
3096.597
2581.792
2133.766
1758.248
1454.853
1219.173
1044.171
921.2977
841.4081
795.4727
775.0969
772.8604
782.5011
798.9739
818.4156
838.0431
856.0111
871.2491
883.2965
892.1456
898.1003
901.6532
903.3822
903.8658
903.6172
903.0359
902.3775
901.7416
901.0785
900.2115
898.8747
896.7611
893.5767
889.0944
883.2017
875.9369
867.5097
858.3037
848.86
839.8437
831.9975
826.0864
822.8391
822.8939
826.7516
834.7419
847.0064
863.4969
883.9918
908.1267
935.4354
965.4001
997.4983
1031.27
1066.288
1102.475
1139.015
1178.726
1210.868
1279.029
3414.56
3385.586
3243.629
3017.578
2739.522
2438.087
2136.483
1852.104
1596.817
1377.586
1197.28
1055.568
949.7926
875.7683
828.4744
802.6151
793.0481
795.0852
804.6792
818.5158
834.0307
849.3705
863.3168
875.1856
884.7162
891.9577
897.1606
900.6786
902.8863
904.1149
904.6076
904.4974
903.8036
902.4484
900.2863
897.1448
892.8687
887.3634
880.6321
872.8017
864.1351
855.0291
845.996
837.6346
830.5901
825.5095
822.9962
823.5683
827.6254
835.4246
847.0709
862.5199
881.5901
904.003
929.3582
957.3991
987.16
1020.537
1048.276
1106.161
3375.998
3415.164
3445.201
3440.347
3384.906
3273.866
3110.738
2904.83
2668.709
2416.091
2160.192
1912.601
1682.607
1476.909
1299.624
1152.509
1035.322
946.2605
882.4101
840.1775
815.6669
804.9922
804.5144
811.0065
821.7523
834.5856
847.8832
860.5208
871.8035
881.3813
889.1585
895.2064
899.6834
902.7713
904.6278
905.3582
905.0059
903.5591
900.9705
897.1853
892.1737
885.961
878.6529
870.4525
861.6656
852.6947
844.023
836.1878
829.7496
825.2562
823.209
824.0329
828.0495
835.4733
846.3632
860.7881
878.2062
900.0508
919.2871
963.184
3353.566
3361.63
3382.652
3413.002
3442.733
3459.277
3450.719
3407.985
3325.987
3203.908
3044.811
2854.826
2642.156
2416.054
2185.889
1960.371
1746.988
1551.642
1378.489
1229.952
1106.852
1008.642
933.6873
879.5716
843.3889
822.0142
812.3296
811.4032
816.6164
825.7419
836.9769
848.9388
860.6311
871.3899
880.8175
888.7139
895.0115
899.7187
902.8766
904.5302
904.7145
903.4529
900.7672
896.6932
891.3
884.7088
877.1066
868.7548
859.9892
851.2123
842.8779
835.4702
829.4771
825.371
823.5564
824.4473
828.0678
835.5818
843.036
866.5325
3336.4
3337.52
3340.635
3349.677
3367.009
3391.984
3420.741
3446.853
3462.474
3459.66
3431.566
3373.317
3282.513
3159.372
3006.558
2828.779
2632.228
2423.963
2211.294
2001.232
1800.045
1612.94
1443.868
1295.458
1169.052
1064.821
981.9477
918.8367
873.3387
842.9711
825.1158
817.1879
816.7662
821.686
830.0941
840.4698
851.6178
862.6413
872.8998
881.9607
889.5512
895.513
899.7665
902.2834
903.0707
902.1634
899.6251
895.5536
890.0889
883.4207
875.7937
867.509
858.9191
850.4224
842.4343
835.425
829.7004
826.0967
823.4871
826.871
3314.723
3317.418
3319.154
3320.701
3323.904
3331.056
3344.049
3363.572
3388.559
3416.064
3441.534
3459.363
3463.592
3448.628
3409.887
3344.282
3250.515
3129.164
2982.578
2814.623
2630.309
2435.371
2235.823
2037.548
1845.948
1665.665
1500.401
1352.815
1224.517
1116.12
1027.353
957.2132
904.1337
866.1599
841.1168
826.7584
820.8909
821.4686
826.6585
834.878
844.8079
855.386
865.786
875.3885
883.7482
890.561
895.6356
898.8695
900.2322
899.7535
897.5172
893.6584
888.3623
881.8633
874.4392
866.4242
858.1414
850.0155
842.7281
833.5737
3293.05
3295.875
3298.517
3300.65
3302.216
3303.677
3306.1
3311.006
3319.981
3334.172
3353.849
3378.108
3404.774
3430.502
3451.062
3461.746
3457.844
3435.117
3390.219
3321.013
3226.76
3108.177
2967.36
2807.601
2633.123
2448.762
2259.639
2070.829
1887.084
1712.59
1550.806
1404.353
1274.979
1163.582
1070.277
994.5016
935.1428
890.6784
859.3138
839.1115
828.1036
824.3835
826.1765
831.8861
840.1223
849.7104
859.6883
869.2927
877.9402
885.2059
890.8016
894.556
896.398
896.3405
894.4751
890.9412
885.9995
879.6523
873.4949
861.4532
3274.092
3275.995
3278.095
3280.288
3282.359
3284.076
3285.336
3286.35
3287.756
3290.578
3296.054
3305.374
3319.378
3338.277
3361.442
3387.299
3413.352
3436.325
3452.418
3457.622
3448.072
3420.395
3372.005
3301.33
3207.946
3092.61
2957.208
2804.607
2638.457
2462.943
2282.521
2101.661
1924.604
1755.169
1596.593
1451.431
1321.507
1207.912
1111.042
1030.671
966.0484
916.0059
879.0719
853.5818
837.7783
829.8984
828.2444
831.2367
837.4518
845.6441
854.7559
863.917
872.4378
879.7946
885.625
889.6664
891.9136
891.954
891.3487
884.8702
3261.555
3262.044
3263.169
3264.956
3267.287
3269.94
3272.601
3274.938
3276.722
3277.951
3278.931
3280.297
3282.957
3287.963
3296.331
3308.825
3325.749
3346.774
3370.836
3396.108
3420.066
3439.642
3451.44
3451.995
3438.052
3406.828
3356.239
3285.072
3193.082
3081.016
2950.569
2804.27
2645.32
2477.397
2304.439
2130.431
1959.207
1794.274
1638.674
1494.889
1364.779
1249.569
1149.867
1065.711
996.6404
941.778
899.9264
869.6597
849.4126
837.5619
832.4963
832.6731
836.6624
843.1783
851.1021
859.4695
867.5718
874.6114
880.5711
885.1987
3253.866
3247.269
3239.116
3231.223
3224.92
3220.964
3219.593
3220.63
3223.607
3227.9
3232.88
3238.036
3243.092
3248.065
3253.29
3259.376
3267.111
3277.323
3290.712
3307.678
3328.166
3351.55
3376.581
3401.397
3423.598
3440.391
3448.772
3445.746
3428.547
3394.849
3342.945
3271.881
3181.531
3072.62
2946.679
2805.962
2653.31
2491.991
2325.527
2157.509
1991.431
1830.537
1677.698
1535.316
1405.267
1288.872
1186.898
1099.593
1026.73
967.6749
921.4635
886.878
862.5268
846.9222
838.5371
835.8967
837.5141
842.373
847.9859
859.5086
3311.438
3386.147
3426.436
3438.89
3431.197
3410.399
3382.398
3351.821
3322.043
3295.291
3272.815
3255.083
3241.997
3233.109
3227.814
3225.528
3225.807
3228.428
3233.404
3240.955
3251.416
3265.123
3282.275
3302.797
3326.228
3351.64
3377.612
3402.25
3423.265
3438.093
3444.055
3438.534
3419.15
3383.938
3331.482
3261.024
3172.529
3066.692
2944.913
2809.219
2662.159
2506.67
2345.929
2183.203
2021.703
1864.45
1714.161
1573.163
1443.332
1326.056
1222.228
1132.261
1056.121
993.381
943.2656
904.775
876.5548
857.6274
845.468
840.6881
1337.584
1792.789
2190.8
2525.013
2794.581
3002.721
3155.424
3260.357
3325.935
3360.577
3372.161
3367.651
3352.899
3332.574
3310.198
3288.264
3268.408
3251.602
3238.358
3228.903
3223.333
3221.711
3224.115
3230.641
3241.364
3256.26
3275.122
3297.477
3322.507
3349.013
3375.408
3399.748
3419.81
3433.195
3437.465
3430.283
3409.567
3373.617
3321.239
3251.821
3165.385
3062.598
2944.744
2813.663
2671.663
2521.405
2365.783
2207.794
2050.409
1896.456
1748.52
1608.856
1479.331
1361.38
1255.998
1163.715
1084.769
1018.193
967.6051
908.3853
1009.372
956.4417
1035.897
1216.155
1461.741
1740.844
2027.515
2302.126
2551.067
2766.081
2943.38
3082.69
3186.295
3258.173
3303.246
3326.772
3333.883
3329.269
3316.993
3300.412
3282.188
3264.359
3248.437
3235.522
3226.406
3221.649
3221.632
3226.57
3236.499
3251.248
3270.388
3293.195
3318.619
3345.273
3371.451
3395.175
3414.268
3426.453
3429.467
3421.184
3399.734
3363.618
3311.797
3243.758
3159.559
3059.828
2945.745
2818.989
2681.66
2536.191
2385.236
2231.561
2077.935
1927.012
1781.289
1642.816
1514.085
1393.506
1296.742
1155.011
2948.976
2477.657
2069.921
1753.593
1542.445
1437.386
1429.527
1503.549
1640.708
1821.319
2026.656
2240.235
2448.574
2641.492
2812.078
2956.408
3073.099
3162.781
3227.559
3270.498
3295.182
3305.35
3304.629
3296.359
3283.487
3268.53
3253.578
3240.323
3230.097
3223.906
3222.455
3226.158
3235.137
3249.205
3267.857
3290.255
3315.232
3341.305
3366.715
3389.481
3407.48
3418.534
3420.519
3411.466
3389.667
3353.763
3302.825
3236.406
3154.571
3057.904
2947.486
2824.852
2691.927
2550.928
2404.366
2254.528
2105.259
1953.38
1826.922
1612.728
3195.891
3173.844
3042.405
2829.311
2570.713
2302.204
2054.242
1849.858
1703.872
1623.157
1607.667
1651.9
1746.522
1879.945
2039.737
2213.783
2391.156
2562.688
2721.272
2861.933
2981.719
3079.462
3155.465
3211.164
3248.785
3271.042
3280.88
3281.268
3275.052
3264.855
3253.01
3241.528
3232.079
3225.982
3224.202
3227.345
3235.65
3248.989
3266.864
3288.42
3312.459
3337.482
3361.732
3383.264
3400.023
3409.929
3410.975
3401.321
3379.379
3343.899
3294.026
3229.35
3149.937
3056.298
2949.508
2830.586
2702.969
2561.411
2439.835
2204.202
3126.709
3169.444
3203.094
3201.834
3149.732
3042.655
2886.651
2695.078
2485.442
2276.411
2085.353
1926.576
1810.296
1742.24
1723.789
1752.502
1822.907
1927.416
2057.244
2203.256
2356.687
2509.682
2655.668
2789.556
2907.785
3008.264
3090.212
3153.957
3200.701
3232.291
3250.997
3259.325
3259.853
3255.101
3247.432
3238.976
3231.569
3226.712
3225.544
3228.815
3236.877
3249.68
3266.779
3287.354
3310.238
3333.965
3356.829
3376.95
3392.358
3401.072
3401.196
3390.998
3368.996
3334.001
3285.306
3222.126
3146.198
3050.891
2966.636
2773.192
3086.589
3092.386
3109.677
3136.066
3162.301
3175.953
3165.065
3120.878
3039.417
2921.957
2774.525
2606.773
2430.55
2258.401
2102.21
1972.091
1875.63
1817.481
1799.294
1819.929
1875.882
1961.843
2071.308
2197.198
2332.408
2470.271
2604.914
2731.485
2846.284
2946.786
3031.59
3100.308
3153.417
3192.092
3218.033
3233.298
3240.147
3240.902
3237.837
3233.067
3228.475
3225.641
3225.797
3229.786
3238.048
3250.61
3267.095
3286.743
3308.454
3330.828
3352.236
3370.885
3384.904
3392.4
3391.656
3380.72
3359.509
3321.655
3287.01
3176.028
3123.955
3187.873
3225.974
3247.493
3260.887
3270.94
3278.121
3279.2
3268.627
3240.225
3188.759
3111.109
3006.949
2878.933
2732.427
2574.906
2415.138
2262.288
2125.057
2010.946
1925.705
1873.009
1854.338
1869.069
1914.714
1987.285
2081.718
2192.319
2313.189
2438.607
2563.339
2682.871
2793.556
2892.694
2978.536
3050.242
3107.784
3151.837
3183.64
3204.857
3217.432
3223.459
3225.055
3224.25
3222.892
3222.569
3224.542
3229.706
3238.56
3251.194
3267.301
3286.196
3306.856
3327.958
3348.008
3365.129
3378.255
3383.014
3386.784
3358.103
1455.58
1833.096
2161.211
2436.486
2660.978
2840.115
2980.82
3089.822
3172.4
3231.769
3269.074
3283.842
3274.713
3240.266
3179.79
3093.881
2984.794
2856.516
2714.598
2565.771
2417.432
2277.064
2151.668
2047.263
1968.498
1918.412
1898.324
1907.881
1945.212
2007.174
2089.666
2187.964
2297.055
2411.951
2527.959
2640.899
2747.257
2844.288
2930.059
3003.439
3064.052
3112.199
3148.753
3175.041
3192.717
3203.64
3209.745
3212.934
3214.975
3217.412
3221.5
3228.148
3237.892
3250.87
3266.855
3285.182
3305.053
3324.977
3343.319
3364.287
1262.683
1270.027
1362.899
1519.632
1716.32
1932.085
2150.645
2360.461
2554.102
2727.242
2877.604
3004.016
3105.712
3181.929
3231.784
3254.394
3249.143
3216.019
3155.936
3070.962
2964.426
2840.867
2705.847
2565.642
2426.859
2296.01
2179.104
2081.285
2006.548
1957.552
1935.541
1940.362
1970.576
2023.645
2096.162
2184.119
2283.177
2388.927
2497.131
2603.913
2705.922
2800.438
2885.435
2959.599
3022.309
3073.584
3114.002
3144.606
3166.789
3182.178
3192.523
3199.577
3205.001
3210.268
3216.6
3224.912
3235.616
3249.716
3263.031
3292.76
1345.958
1302.288
1264.846
1253.298
1279.672
1347.912
1455.637
1596.376
1761.567
1942.097
2129.332
2315.69
2494.827
2661.576
2811.755
2941.947
3049.322
3131.549
3186.808
3213.885
3212.321
3182.569
3126.121
3045.571
2944.593
2827.818
2700.636
2568.917
2438.693
2315.82
2205.661
2112.801
2040.826
1992.177
1968.084
1968.569
1992.536
2037.91
2101.819
2180.813
2271.088
2368.709
2469.822
2570.832
2668.557
2760.338
2844.113
2918.454
2982.564
3036.243
3079.831
3114.126
3140.286
3159.722
3173.994
3184.721
3193.297
3201.831
3208.362
3226.255
1389.642
1376.79
1352.282
1319.027
1284.766
1259.217
1251.559
1268.814
1315.084
1391.44
1496.282
1625.947
1775.386
1938.788
2110.087
2283.321
2452.858
2613.518
2760.628
2890.052
2998.232
3082.245
3139.898
3169.829
3171.614
3145.853
3094.21
3019.4
2925.105
2815.828
2696.682
2573.145
2450.775
2334.931
2230.509
2141.703
2071.832
2023.206
1997.074
1993.623
2012.04
2050.625
2106.941
2177.992
2260.418
2350.684
2445.27
2540.841
2634.381
2723.316
2805.584
2879.687
2944.699
3000.249
3046.474
3083.977
3113.598
3137.031
3153.424
3174.423
1408.75
1405.708
1400.171
1388.941
1370.061
1343.943
1313.489
1283.564
1260.12
1249.22
1256.188
1285.003
1337.968
1415.625
1516.867
1639.177
1778.94
1931.759
2092.748
2256.79
2418.738
2573.586
2716.612
2843.506
2950.503
3034.503
3093.199
3125.187
3130.05
3108.408
3061.926
2993.257
2905.941
2804.248
2692.977
2577.223
2462.133
2352.66
2253.331
2168.05
2099.94
2051.232
2023.209
2016.206
2029.654
2062.169
2111.679
2175.572
2250.867
2334.379
2422.89
2513.301
2602.766
2688.809
2769.375
2842.993
2908.367
2966.189
3010.795
3069.765
1421.631
1418.484
1415.995
1413.433
1409.163
1401.202
1387.903
1368.564
1343.836
1315.816
1287.843
1264.095
1249.091
1247.181
1262.102
1296.639
1352.414
1429.808
1527.983
1644.991
1777.937
1923.161
2076.44
2233.179
2388.604
2537.939
2676.58
2800.273
2905.266
2988.468
3047.582
3081.211
3088.937
3071.349
3030.03
2967.496
2887.077
2792.772
2689.051
2580.652
2472.351
2368.753
2274.079
2191.998
2125.479
2076.698
2046.979
2036.787
2045.764
2072.799
2116.135
2173.497
2242.233
2319.482
2402.259
2487.849
2572.919
2657.919
2728.163
2839.821
1442.589
1436.335
1430.984
1426.737
1423.483
1420.658
1417.216
1411.761
1402.852
1389.383
1370.921
1347.929
1321.855
1295.059
1270.627
1252.082
1243.059
1246.978
1266.749
1304.541
1361.631
1438.317
1533.909
1646.771
1774.417
1913.626
2060.599
2211.112
2360.7
2504.831
2639.097
2759.389
2862.074
2944.152
3003.39
3038.425
3048.831
3035.143
2998.832
2942.238
2868.464
2781.223
2684.668
2583.198
2481.258
2383.139
2292.801
2213.708
2148.704
2099.918
2068.712
2055.669
2060.611
2082.681
2120.342
2171.844
2233.875
2307.949
2373.715
2504.377
1479.16
1468.908
1459.64
1451.423
1444.339
1438.455
1433.724
1429.846
1426.183
1421.785
1415.52
1406.274
1393.177
1375.828
1354.455
1330.014
1304.181
1279.266
1258.05
1243.57
1238.883
1246.827
1269.81
1309.627
1367.338
1443.179
1536.535
1645.952
1769.195
1903.333
2044.865
2189.861
2334.126
2473.374
2603.415
2720.331
2820.648
2901.493
2960.722
2997.015
3009.939
2999.961
2968.429
2917.501
2850.042
2769.493
2679.702
2584.753
2488.786
2395.813
2309.557
2233.302
2169.779
2121.086
2088.57
2073.12
2073.847
2093.732
2116.769
2199.534
1532.07
1514.026
1498.935
1486.273
1475.512
1466.264
1458.312
1451.561
1445.933
1441.248
1437.141
1433.027
1428.117
1421.504
1412.29
1399.745
1383.461
1363.491
1340.432
1315.465
1290.319
1267.186
1248.586
1237.198
1235.677
1246.471
1271.647
1312.746
1370.666
1445.583
1536.915
1643.314
1762.711
1892.382
2029.057
2169.049
2308.406
2443.083
2569.113
2682.78
2780.787
2860.4
2919.571
2957.025
2972.319
2965.853
2938.847
2893.278
2831.785
2757.543
2674.118
2585.301
2494.951
2406.829
2324.421
2250.936
2188.652
2140.856
2105.308
2089.805
1693.554
1638.662
1593.75
1557.866
1529.603
1507.524
1490.328
1476.931
1466.489
1458.368
1452.085
1447.229
1443.377
1440.028
1436.572
1432.284
1426.379
1418.086
1406.754
1391.969
1373.657
1352.168
1328.321
1303.407
1279.152
1257.633
1241.169
1232.178
1233.031
1245.899
1272.604
1314.496
1372.347
1446.274
1535.7
1639.344
1755.254
1880.865
2013.098
2148.476
2283.275
2413.674
2535.925
2646.518
2742.329
2820.765
2879.873
2918.423
2935.961
2932.817
2910.088
2869.578
2813.709
2745.405
2667.978
2584.881
2500.066
2415.2
2343.214
2238.239
2139.288
2027.734
1925.591
1834.539
1755.291
1687.816
1631.515
1585.412
1548.318
1518.977
1496.167
1478.763
1465.762
1456.279
1449.506
1444.681
1441.04
1437.79
1434.113
1429.182
1422.212
1412.531
1399.66
1383.393
1363.867
1341.607
1317.553
1293.044
1269.776
1249.726
1235.055
1227.989
1230.688