/*--------------------------------*- C++ -*----------------------------------*\
| =========                 |                                                 |
| \\      /  F ield         | OpenFOAM: The Open Source CFD Toolbox           |
|  \\    /   O peration     | Version:  2312                                  |
|   \\  /    A nd           | Website:  www.openfoam.com                      |
|    \\/     M anipulation  |                                                 |
\*---------------------------------------------------------------------------*/
FoamFile
{
    version     2.0;
    format      ascii;
    arch        "LSB;label=32;scalar=64";
    class       volScalarField;
    location    "4350";
    object      ILambda_12_0;
}
// * * * * * * * * * * * * * * * * * * * * * * * * * * * * * * * * * * * * * //

dimensions      [1 0 -3 0 0 0 0];

internalField   nonuniform List<scalar> 
12000
(
764.0737
748.7532
746.6465
742.1452
738.5574
735.6579
733.7697
732.6897
732.1184
731.7987
731.5852
731.3886
731.0764
730.4114
729.0958
726.911
723.8525
720.1554
716.1893
712.2954
708.672
705.3682
702.3608
699.6425
697.2583
695.2775
693.733
692.5753
691.6676
690.8234
689.8614
688.6543
687.1556
685.3987
683.4757
681.4985
679.571
677.7668
676.1177
674.6079
673.1833
671.7699
670.2934
668.6881
666.872
664.7427
662.2109
659.2235
655.7514
651.7615
647.2096
642.1057
636.5135
630.4922
624.0823
617.3707
610.5197
603.7699
597.4482
592.0681
718.9049
718.1921
716.9305
715.6747
714.5585
713.2847
711.7473
709.9039
707.7906
705.4486
702.9013
700.1629
697.2724
694.3219
691.4497
688.7939
686.4358
684.3716
682.5294
680.8156
679.157
677.5137
675.8654
674.1864
672.4336
670.5515
668.4913
666.2286
663.7717
661.1576
658.4378
655.6628
652.868
650.0655
647.2432
644.3722
641.4146
638.3329
635.0978
631.6956
628.1291
624.4142
620.5743
616.6365
612.6401
608.64
604.6981
600.8743
597.2276
593.8246
590.7421
588.0451
585.781
583.995
582.736
582.0345
581.8867
582.245
583.0054
583.9586
692.8479
690.0357
688.1801
686.0065
683.7473
681.3537
678.8647
676.3157
673.7428
671.1743
668.6331
666.1393
663.71
661.3544
659.0673
656.8263
654.5954
652.3345
650.01
647.6004
645.0961
642.4952
639.799
637.011
634.1379
631.1923
628.1929
625.1629
622.1262
619.1039
616.111
613.1564
610.2435
607.3737
604.5492
601.7759
599.0654
596.435
593.9074
591.5085
589.2655
587.2048
585.3509
583.7255
582.3473
581.2301
580.3811
579.8008
579.4834
579.4162
579.5788
579.9421
580.4706
581.1241
581.8573
582.6202
583.3617
584.0352
584.6066
585.0647
659.5514
655.4085
653.2261
650.573
648.0175
645.4425
642.8843
640.34
637.8112
635.2958
632.7905
630.2902
627.7883
625.2782
622.7546
620.216
617.6652
615.1097
612.5601
610.029
607.5296
605.0753
602.6797
600.3564
598.1187
595.979
593.9479
592.0345
590.2457
588.5872
587.0638
585.6805
584.4424
583.3551
582.4244
581.6557
581.053
580.6186
580.352
580.2502
580.3071
580.514
580.8596
581.3303
581.9103
582.5825
583.3286
584.13
584.9687
585.8273
586.6904
587.5456
588.3836
589.1993
589.992
590.7663
591.5325
592.3061
593.107
593.9557
623.9398
619.9667
617.9999
615.6103
613.3738
611.154
608.9844
606.859
604.7819
602.7558
600.7849
598.8741
597.0298
595.2594
593.5711
591.974
590.4768
589.0878
587.8138
586.6606
585.6329
584.7339
583.9659
583.33
582.8261
582.4532
582.2091
582.0909
582.0953
582.2183
582.4555
582.8019
583.2519
583.7991
584.4361
585.1546
585.9454
586.7989
587.7049
588.6534
589.6347
590.6396
591.66
592.6887
593.7197
594.7489
595.7733
596.7917
597.8047
598.8141
599.8231
600.8362
601.8582
602.8944
603.95
605.0295
606.1369
607.2749
608.4456
609.6515
596.4534
593.9496
592.8441
591.5146
590.3522
589.2628
588.2721
587.3775
586.5832
585.8919
585.306
584.8279
584.459
584.2002
584.0514
584.0118
584.0794
584.2515
584.5245
584.8941
585.3557
585.9039
586.5332
587.2377
588.0113
588.8476
589.7404
590.6834
591.6703
592.6949
593.7512
594.8331
595.935
597.0513
598.1771
599.3078
600.4395
601.5692
602.6942
603.8129
604.9243
606.0281
607.1246
608.2147
609.2993
610.3801
611.4583
612.5354
613.6125
614.6906
615.7698
616.8499
617.9301
619.009
620.0845
621.1545
622.2167
623.2696
624.3142
625.3562
586.0237
585.6929
585.7489
585.8264
586.0156
586.2872
586.6458
587.0869
587.6081
588.2058
588.8764
589.6156
590.4189
591.2814
592.1981
593.1636
594.1728
595.2202
596.3008
597.4095
598.5413
599.6917
600.8562
602.0306
603.2113
604.3947
605.5775
606.757
607.9307
609.0964
610.2523
611.397
612.5293
613.6485
614.7541
615.8459
616.9239
617.988
619.0386
620.0758
621.0997
622.1104
623.1075
624.0908
625.0596
626.013
626.9499
627.8688
628.7681
629.6461
630.5008
631.3304
632.133
632.9069
633.6507
634.3633
635.0442
635.6945
636.3184
636.9272
592.4523
593.7949
594.6555
595.6924
596.7434
597.8365
598.9597
600.11
601.2827
602.4738
603.6791
604.8946
606.1167
607.3418
608.5667
609.7881
611.0034
612.2101
613.4057
614.5884
615.7563
616.9078
618.0417
619.1566
620.2517
621.326
622.3789
623.4097
624.4178
625.4027
626.364
627.3011
628.2134
629.1005
629.9615
630.7956
631.602
632.3795
633.1269
633.8428
634.5259
635.1744
635.7868
636.3613
636.8963
637.3899
637.8406
638.2466
638.6066
638.919
639.1827
639.3967
639.5599
639.6718
639.7318
639.7397
639.696
639.6027
639.4646
639.2957
608.3135
610.2542
611.3417
612.64
613.8838
615.1289
616.3578
617.5713
618.7662
619.9407
621.0928
622.2208
623.3232
624.3987
625.446
626.464
627.4516
628.4079
629.3319
630.2228
631.0798
631.902
632.6885
633.4385
634.151
634.8252
635.4601
636.0546
636.6075
637.1179
637.5844
638.0059
638.3811
638.7087
638.9874
639.2159
639.393
639.5176
639.5885
639.6048
639.5656
639.4703
639.3183
639.1094
638.8435
638.5207
638.1415
637.7064
637.2164
636.6728
636.0768
635.4303
634.7354
633.9943
633.2098
632.3852
631.5246
630.6335
629.7203
628.8009
625.3963
627.0312
627.9059
628.9359
629.8878
630.8129
631.6963
632.5394
633.3406
634.0989
634.8134
635.4832
636.1075
636.6856
637.2167
637.7
638.1348
638.5205
638.8564
639.1419
639.3762
639.559
639.6897
639.7678
639.7929
639.7648
639.6834
639.5485
639.3603
639.1189
638.8249
638.4788
638.0814
637.6339
637.1375
636.5937
636.0044
635.3718
634.6981
633.9862
633.2391
632.4601
631.6528
630.8213
629.9697
629.1028
628.2253
627.3425
626.4598
625.583
624.7181
623.8712
623.0488
622.2576
621.5046
620.7971
620.143
619.5507
619.0307
618.5944
637.174
637.8899
638.2589
638.6676
639.0063
639.2992
639.5384
639.7253
639.8592
639.9404
639.969
639.9454
639.8701
639.7436
639.5667
639.3403
639.0654
638.7432
638.3752
637.9628
637.5079
637.0125
636.4786
635.9087
635.3055
634.6716
634.0103
633.3249
632.6187
631.8957
631.1597
630.4149
629.6658
628.9168
628.1728
627.4386
626.7192
626.0198
625.3456
624.7019
624.094
623.5273
623.0071
622.5385
622.1268
621.7769
621.4937
621.2818
621.1456
621.089
621.1158
621.2292
621.4321
621.7267
622.1151
622.5987
623.1785
623.8558
624.6319
625.5069
639.7993
639.4112
639.2155
638.9415
638.6379
638.2937
637.9119
637.4939
637.0419
636.5583
636.0456
635.5067
634.9446
634.3624
633.7634
633.1511
632.5291
631.9011
631.271
630.6428
630.0204
629.4081
628.81
628.2303
627.6733
627.1431
626.6438
626.1797
625.7547
625.3726
625.0371
624.7517
624.5198
624.3443
624.2281
624.1734
624.1824
624.2568
624.3978
624.6062
624.8825
625.2266
625.6377
626.1149
626.6563
627.2598
627.9225
628.6411
629.4117
630.2299
631.0903
631.9876
632.9153
633.867
634.8355
635.8136
636.794
637.7698
638.7355
639.6892
635.0469
634.0899
633.662
633.1191
632.6065
632.0901
631.5806
631.079
630.5889
630.1135
629.6562
629.2204
628.8093
628.4262
628.0742
627.7563
627.4752
627.2336
627.034
626.8785
626.7693
626.7079
626.6959
626.7343
626.8238
626.965
627.1576
627.4015
627.6959
628.0395
628.4308
628.8678
629.3481
629.8689
630.4269
631.0186
631.64
632.2867
632.9542
633.6375
634.3315
635.0307
635.7296
636.4226
637.1039
637.7678
638.4086
639.0209
639.5992
640.1386
640.634
641.0811
641.4758
641.8146
642.0949
642.3147
642.4734
642.5719
642.6139
642.6098
630.0636
629.4638
629.2958
629.0759
628.9175
628.7896
628.7004
628.6485
628.6352
628.6609
628.7262
628.8312
628.9761
629.1604
629.3835
629.6446
629.9425
630.2756
630.6423
631.0405
631.4679
631.9221
632.4003
632.8993
633.4161
633.9471
634.4887
635.0373
635.5891
636.1401
636.6864
637.2242
637.7496
638.2589
638.7486
639.2152
639.6557
640.0672
640.4473
640.7938
641.1052
641.3803
641.6184
641.8196
641.9845
642.1142
642.2107
642.2766
642.3152
642.3306
642.3273
642.3108
642.2868
642.2622
642.2443
642.2413
642.2622
642.3171
642.4185
642.5824
630.598
630.7668
631.0082
631.2807
631.59
631.9261
632.2881
632.6729
633.0785
633.5023
633.942
634.3951
634.8591
635.3314
635.8092
636.29
636.771
637.2495
637.7231
638.1892
638.6456
639.09
639.5205
639.9353
640.3329
640.7119
641.0713
641.4105
641.7291
642.0272
642.3051
642.5637
642.8042
643.0283
643.238
643.4359
643.6249
643.8083
643.9901
644.1743
644.3654
644.5684
644.7884
645.0309
645.3014
645.606
645.9504
646.3407
646.7828
647.2825
647.8455
648.4768
649.1814
649.9637
650.8278
651.7774
652.8157
653.9461
655.1736
656.5062
635.8157
636.3881
636.7905
637.2568
637.7176
638.1824
638.6449
639.1037
639.5567
640.0024
640.4397
640.8675
641.285
641.6918
642.0875
642.4721
642.8457
643.2091
643.5629
643.9084
644.247
644.5804
644.9106
645.2398
645.5707
645.9059
646.2483
646.6013
646.9679
647.3518
647.7564
648.1853
648.6423
649.131
649.6548
650.2174
650.8221
651.472
652.1701
652.9189
653.7208
654.5777
655.491
656.4619
657.4908
658.5778
659.7222
660.9229
662.178
663.4852
664.8412
666.2421
667.6832
669.1592
670.6645
672.1929
673.7382
675.295
676.86
678.4373
642.1227
642.7252
643.1166
643.5813
644.0313
644.4857
644.9384
645.3912
645.8444
646.2993
646.7574
647.2202
647.6897
648.1677
648.6563
649.1578
649.6743
650.2083
650.7621
651.3382
651.9388
652.5663
653.2229
653.9105
654.6313
655.3867
656.1782
657.0071
657.8741
658.7799
659.7245
660.7079
661.7295
662.7881
663.8825
665.0107
666.1705
667.359
668.5732
669.8094
671.0636
672.3314
673.6081
674.8885
676.1673
677.439
678.6976
679.9372
681.1519
682.3355
683.4819
684.585
685.6387
686.6372
687.5754
688.4484
689.2525
689.9857
690.6489
691.2513
649.5723
650.3793
650.9073
651.547
652.1854
652.849
653.5304
654.2321
654.9543
655.6982
656.4646
657.2545
658.0685
658.9072
659.7709
660.66
661.5742
662.5135
663.4772
664.4645
665.4746
666.5059
667.5569
668.6257
669.7099
670.8071
671.9142
673.0283
674.1459
675.2633
676.3765
677.4816
678.5741
679.6497
680.7037
681.7317
682.7289
683.6907
684.6126
685.4902
686.319
687.0951
687.8147
688.4741
689.0702
689.6003
690.062
690.4535
690.7733
691.0206
691.195
691.2966
691.3261
691.2845
691.1738
690.9967
690.7568
690.4593
690.1115
689.7253
660.8087
662.0597
662.8513
663.7962
664.7329
665.6947
666.6699
667.6589
668.659
669.6685
670.6854
671.7075
672.7325
673.7581
674.7814
675.7998
676.8102
677.8096
678.7949
679.7627
680.7097
681.6326
682.5279
683.3923
684.2222
685.0144
685.7656
686.4725
687.1321
687.7415
688.2981
688.7994
689.2432
689.6275
689.9509
690.212
690.4099
690.5442
690.6147
690.6217
690.5658
690.4483
690.2707
690.035
689.7435
689.3992
689.0051
688.5649
688.0824
687.5619
687.0078
686.4247
685.8172
685.1902
684.5489
683.8986
683.2451
682.5947
681.9549
681.3342
674.9189
676.2591
677.0792
678.0281
678.9388
679.8415
680.7237
681.5837
682.4177
683.223
683.9965
684.7354
685.437
686.0989
686.7185
687.2936
687.8219
688.3015
688.7307
689.1079
689.4319
689.7016
689.9163
690.0754
690.1788
690.2263
690.2185
690.1559
690.0396
689.8706
689.6506
689.3815
689.0654
688.7046
688.302
687.8604
687.383
686.8732
686.3347
685.7713
685.1869
684.5856
683.9716
683.3491
682.7227
682.0965
681.4751
680.8627
680.2636
679.6821
679.1222
678.5876
678.0819
677.6086
677.171
676.7724
676.4163
676.1064
675.847
675.6443
686.1437
686.8421
687.2804
687.7498
688.1686
688.5476
688.8809
689.1673
689.4052
689.5939
689.7327
689.8216
689.8604
689.8498
689.7901
689.6824
689.5278
689.3278
689.084
688.7983
688.473
688.1105
687.7135
687.2846
686.827
686.3436
685.838
685.3133
684.7732
684.2212
683.6609
683.0961
682.5304
681.9675
681.4111
680.8648
680.3323
679.8169
679.3221
678.8511
678.4072
677.9933
677.6122
677.2668
676.9596
676.6928
676.4688
676.2895
676.1568
676.0723
676.0374
676.0531
676.1203
676.2397
676.4118
676.6375
676.9174
677.253
677.647
678.1056
689.4998
689.2334
689.1475
688.9958
688.8221
688.6114
688.3673
688.0896
687.7801
687.4407
687.0734
686.6808
686.2653
685.8299
685.3774
684.911
684.4337
683.9487
683.4595
682.9693
682.4814
681.9993
681.5262
681.0654
680.6201
680.1935
679.7885
679.408
679.0548
678.7315
678.4405
678.1842
677.9646
677.7836
677.6431
677.5445
677.4892
677.4783
677.5128
677.5936
677.721
677.8957
678.1177
678.3871
678.7038
679.0676
679.4781
679.9346
680.4364
680.9828
681.5727
682.2047
682.8776
683.5897
684.3394
685.1255
685.9468
686.8031
687.6966
688.6352
685.9691
685.1693
684.8323
684.4073
684.0072
683.6032
683.2031
682.8071
682.4178
682.0375
681.6688
681.3144
680.9766
680.6583
680.3618
680.0895
679.844
679.6272
679.4415
679.2886
679.1704
679.0886
679.0446
679.0398
679.075
679.1514
679.2695
679.4298
679.6326
679.878
680.1658
680.4957
680.8672
681.2797
681.7321
682.2235
682.7526
683.3181
683.9183
684.5518
685.2166
685.9109
686.6326
687.3796
688.1497
688.9407
689.7502
690.5758
691.4151
692.2654
693.1243
693.9888
694.8563
695.7239
696.5887
697.4483
698.3007
699.1451
699.9837
700.826
681.5906
681.0394
680.8833
680.6972
680.5625
680.4566
680.3841
680.3442
680.3376
680.3652
680.4275
680.5251
680.6587
680.8285
681.0349
681.278
681.5577
681.8739
682.2262
682.614
683.0367
683.4934
683.983
684.5043
685.056
685.6365
686.2441
686.877
687.5332
688.2108
688.9073
689.6206
690.3482
691.0877
691.8365
692.5919
693.3514
694.1121
694.8715
695.6267
696.3752
697.1141
697.8409
698.5529
699.2478
699.9229
700.5761
701.205
701.8076
702.3818
702.9258
703.4378
703.9158
704.3585
704.7646
705.1332
705.4644
705.7594
706.0222
706.2633
682.1539
682.3245
682.5784
682.8838
683.2287
683.6095
684.0232
684.4679
684.9418
685.4433
685.9708
686.5226
687.0972
687.6926
688.3073
688.9392
689.5864
690.2468
690.9185
691.5991
692.2866
692.9787
693.6729
694.3671
695.0587
695.7455
696.4251
697.0951
697.753
698.3967
699.0239
699.6323
700.2199
700.7846
701.3245
701.8378
702.3227
702.7779
703.2018
703.5933
703.9514
704.2752
704.5642
704.8179
705.0361
705.219
705.3668
705.4802
705.5598
705.6068
705.6223
705.6078
705.5647
705.4948
705.4004
705.2841
705.1491
704.9997
704.8416
704.6839
688.6885
689.4165
689.9529
690.58
691.2109
691.8577
692.5118
693.171
693.8322
694.4929
695.1505
695.8029
696.4476
697.0827
697.706
698.3155
698.9094
699.4859
700.0432
700.5798
701.094
701.5845
702.05
702.4892
702.9012
703.2849
703.6395
703.9644
704.259
704.5231
704.7565
704.959
705.1308
705.2723
705.384
705.4665
705.5205
705.5473
705.5478
705.5235
705.4759
705.4066
705.3174
705.2104
705.0874
704.9509
704.803
704.6461
704.4827
704.3152
704.146
703.9775
703.8119
703.6514
703.4982
703.3548
703.2238
703.108
703.0114
702.9389
697.4447
698.1647
698.6637
699.2285
699.7705
700.3027
700.8169
701.3117
701.7848
702.2347
702.6601
703.0598
703.4331
703.7791
704.0976
704.388
704.6504
704.8846
705.0908
705.2694
705.4206
705.5451
705.6435
705.7166
705.7652
705.7904
705.7932
705.7747
705.7363
705.6791
705.6045
705.514
705.409
705.2909
705.1612
705.0213
704.8727
704.7169
704.5552
704.3889
704.2194
704.0477
703.875
703.7022
703.5303
703.36
703.1919
703.0265
702.864
702.7046
702.5482
702.3944
702.2425
702.0918
701.9413
701.7904
701.6383
701.4849
701.3317
701.184
703.9178
704.2019
704.451
704.7102
704.9488
705.1676
705.3632
705.5349
705.6822
705.805
705.9035
705.9781
706.0295
706.0584
706.0655
706.0519
706.0185
705.9665
705.8968
705.8106
705.7091
705.5932
705.4641
705.3229
705.1704
705.0077
704.8356
704.6549
704.4663
704.2704
704.0677
703.8587
703.6436
703.4226
703.1959
702.9634
702.725
702.4804
702.2293
701.9713
701.706
701.4326
701.1507
700.8595
700.5584
700.2467
699.9238
699.589
699.2417
698.8814
698.5077
698.1201
697.7183
697.3022
696.8719
696.4283
695.9725
695.5071
695.0371
694.5736
706.369
706.1764
706.1759
706.1388
706.1007
706.0464
705.9773
705.8921
705.791
705.674
705.5416
705.3943
705.2327
705.0573
704.8687
704.6677
704.4546
704.2301
703.9946
703.7486
703.4924
703.2262
702.9504
702.665
702.3701
702.0658
701.7521
701.429
701.0962
700.7539
700.4018
700.0399
699.6682
699.2865
698.8951
698.4939
698.0833
697.6636
697.2353
696.7991
696.3557
695.9063
695.4521
694.9947
694.5358
694.0775
693.6221
693.1723
692.7311
692.3017
691.8877
691.4926
691.1206
690.7758
690.463
690.1875
689.955
689.7725
689.6487
689.596
705.3076
704.7642
704.5825
704.3333
704.099
703.852
703.5965
703.3301
703.0527
702.764
702.4642
702.1533
701.8318
701.4998
701.1578
700.8062
700.4455
700.0762
699.699
699.3144
698.9231
698.5259
698.1235
697.717
697.3072
696.8954
696.4826
696.0704
695.6602
695.2536
694.8524
694.4587
694.0746
693.7024
693.3446
693.004
692.6833
692.3857
692.1143
691.8726
691.6641
691.4925
691.3616
691.2753
691.2377
691.2528
691.3247
691.4576
691.6554
691.922
692.2614
692.6769
693.1718
693.7491
694.4116
695.1621
696.0031
696.9376
697.9698
699.1051
701.4992
700.722
700.4216
700.0386
699.6829
699.3218
698.9609
698.5981
698.234
697.869
697.5042
697.1406
696.7795
696.4223
696.0708
695.7266
695.3917
695.0681
694.7578
694.4631
694.1863
693.9299
693.6964
693.4883
693.3083
693.1591
693.0435
692.9643
692.9244
692.9267
692.9738
693.0688
693.2143
693.413
693.6675
693.9803
694.3537
694.7899
695.2907
695.8578
696.4928
697.1967
697.9704
698.8144
699.7287
700.7132
701.767
702.889
704.0777
705.3308
706.6457
708.0191
709.4472
710.9255
712.4494
714.0138
715.6136
717.2443
718.9029
720.5907
696.7723
696.0718
695.8423
695.5586
695.3215
695.1028
694.9078
694.7357
694.5882
694.4667
694.3731
694.3093
694.2775
694.2799
694.3187
694.396
694.5142
694.6753
694.8813
695.1344
695.4363
695.7888
696.1934
696.6514
697.164
697.7322
698.3567
699.0378
699.7757
700.5703
701.421
702.3272
703.2876
704.3007
705.3647
706.4774
707.636
708.8377
710.079
711.3562
712.6653
714.0017
715.3608
716.7374
718.1262
719.5216
720.9178
722.3088
723.6885
725.0504
726.3884
727.6958
728.9661
730.193
731.3703
732.4924
733.5544
734.5529
735.487
736.3629
695.6137
695.5614
695.7244
695.9224
696.1771
696.4778
696.8245
697.2167
697.6545
698.1382
698.668
699.2441
699.8669
700.5361
701.2518
702.0134
702.8203
703.6718
704.5666
705.5032
706.4801
707.4951
708.5459
709.6299
710.7443
711.8857
713.0508
714.2358
715.4366
716.6491
717.8689
719.0913
720.3114
721.5245
722.7254
723.9091
725.0704
726.2042
727.3054
728.3691
729.3905
730.3648
731.2878
732.1552
732.9634
733.7088
734.3886
735.0002
735.5415
736.0112
736.4082
736.7321
736.983
737.1617
737.2699
737.3102
737.2864
737.2037
737.0696
736.8972
702.2986
703.1931
703.8715
704.6806
705.5195
706.4014
707.3173
708.265
709.2413
710.2435
711.2686
712.3137
713.3758
714.4518
715.5384
716.6322
717.7297
718.8272
719.9209
721.007
722.0816
723.1406
724.1801
725.1962
726.1847
727.1419
728.0641
728.9475
729.7888
730.5848
731.3324
732.029
732.6722
733.26
733.7908
734.2633
734.6768
735.0309
735.326
735.5626
735.7421
735.8661
735.9372
735.9583
735.9327
735.8646
735.7587
735.62
735.4542
735.2674
735.0663
734.8575
734.6484
734.4464
734.2596
734.0964
733.9657
733.8768
733.8405
733.8686
715.3515
716.6965
717.5627
718.5757
719.567
720.5624
721.5484
722.5222
723.4793
724.416
725.3291
726.2153
727.0718
727.8956
728.6843
729.4355
730.1471
730.8172
731.4441
732.0265
732.5634
733.0538
733.4975
733.8944
734.2448
734.5494
734.8092
735.0258
735.2012
735.3376
735.4377
735.5049
735.5426
735.5549
735.5461
735.5208
735.4843
735.4418
735.3991
735.3621
735.3369
735.3299
735.3476
735.3966
735.4834
735.6148
735.7972
736.0373
736.3413
736.7152
737.1647
737.6953
738.3116
739.0182
739.8191
740.7181
741.7185
742.8237
744.0376
745.3638
727.6826
728.6034
729.1841
729.843
730.458
731.0471
731.6012
732.1199
732.6017
733.0463
733.4537
733.8245
734.1597
734.4606
734.7289
734.9666
735.1762
735.3603
735.5219
735.6644
735.7913
735.9064
736.0139
736.118
736.2232
736.3343
736.4559
736.5931
736.7509
736.9343
737.1484
737.3982
737.6886
738.0246
738.4107
738.8516
739.3514
739.9141
740.5434
741.2425
742.0144
742.8615
743.7858
744.7889
745.8716
747.0345
748.2773
749.5993
750.9993
752.475
754.024
755.6427
757.3271
759.0725
760.8738
762.7255
764.6219
766.5579
768.5298
770.5378
734.4238
734.7014
734.9465
735.2168
735.4766
735.7282
735.9709
736.2064
736.4372
736.666
736.8963
737.1316
737.3756
737.6323
737.9056
738.1996
738.5183
738.8657
739.2458
739.6624
740.1191
740.6194
741.1668
741.7641
742.4143
743.1197
743.8825
744.7045
745.5871
746.5313
747.5377
748.6063
749.7369
750.9285
752.1798
753.4891
754.8541
756.2718
757.7391
759.2523
760.807
762.3987
764.0224
765.6725
767.3435
769.0292
770.7232
772.4191
774.1101
775.7894
777.4497
779.0842
780.6855
782.2467
783.761
785.2221
786.6244
787.964
789.2398
790.4594
738.8344
739.1823
739.527
739.9417
740.3896
740.8734
741.3921
741.9473
742.5406
743.1738
743.8489
744.5677
745.3316
746.1423
747.0007
747.9077
748.8638
749.8692
750.9236
752.0264
753.1766
754.373
755.6136
756.8963
758.2187
759.5777
760.97
762.3921
763.84
765.3094
766.7958
768.2943
769.7999
771.3075
772.8115
774.3067
775.7874
777.248
778.683
780.0869
781.4544
782.7803
784.0594
785.2872
786.4592
787.5713
788.6198
789.6015
790.5136
791.3536
792.1198
792.8107
793.4255
793.9638
794.426
794.8136
795.1288
795.3754
795.5605
795.6985
747.9209
749.0564
749.8544
750.8202
751.8138
752.8575
753.9411
755.0637
756.2227
757.4161
758.6414
759.8964
761.1785
762.4849
763.8125
765.158
766.5181
767.8889
769.2667
770.6474
772.0269
773.4008
774.7647
776.1144
777.4452
778.7528
780.0329
781.2812
782.4934
783.6655
784.7938
785.8746
786.9045
787.8805
788.7996
789.6596
790.4581
791.1936
791.8645
792.4699
793.0093
793.4825
793.8897
794.2316
794.5092
794.7241
794.878
794.9732
795.012
794.9973
794.932
794.819
794.6617
794.4633
794.2272
793.9574
793.6579
793.3335
792.9909
792.6411
763.5021
765.2454
766.3299
767.6225
768.8932
770.1823
771.4719
772.7597
774.0408
775.3113
776.567
777.8043
779.0194
780.2088
781.3688
782.4962
783.5876
784.6397
785.6497
786.6147
787.5319
788.399
789.2136
789.9738
790.6779
791.3242
791.9117
792.4392
792.9061
793.312
793.6566
793.9401
794.1629
794.3254
794.4284
794.473
794.4603
794.3917
794.2687
794.0927
793.8656
793.589
793.2647
792.8945
792.48
792.0231
791.5252
790.9878
790.4122
789.7996
789.1507
788.4661
787.7461
786.9905
786.1994
785.3727
784.5103
783.6128
782.6823
781.7257
780.1924
781.6829
782.5655
783.5948
784.5628
785.506
786.408
787.2676
788.081
788.8457
789.5595
790.2204
790.8268
791.3773
791.8707
792.306
792.6824
792.9994
793.2566
793.4537
793.5908
793.6679
793.6853
793.6433
793.5426
793.3838
793.1676
792.8949
792.5664
792.1832
791.7461
791.2562
790.7145
790.1218
789.4791
788.7873
788.0473
787.2597
786.4254
785.5449
784.6189
783.6478
782.6323
781.5726
780.4693
779.3227
778.1333
776.9015
775.6277
774.3126
772.9568
771.5609
770.1257
768.6523
767.1422
765.5974
764.0207
762.416
760.7892
759.1511
790.8233
791.2991
791.5986
791.9175
792.1772
792.3871
792.5394
792.6335
792.6681
792.6425
792.5566
792.4104
792.2042
791.9383
791.6132
791.2297
790.7883
790.29
789.7355
789.1258
788.4618
787.7445
786.9749
786.1542
785.2834
784.3636
783.3959
782.3816
781.3217
780.2176
779.0706
777.8818
776.6529
775.3851
774.0801
772.7396
771.3654
769.9594
768.5238
767.0608
765.573
764.0631
762.5343
760.9898
759.4332
757.8685
756.2999
754.7322
753.1703
751.6195
750.0854
748.5741
747.0917
745.6449
744.2408
742.887
741.5918
740.3642
739.2147
738.1546
791.0075
790.1651
789.7571
789.2259
788.6701
788.0596
787.3976
786.6826
785.9153
785.0963
784.2268
783.3079
782.3412
781.3282
780.2705
779.1701
778.0286
776.8482
775.6308
774.3786
773.0939
771.7789
770.4362
769.0683
767.678
766.2681
764.8416
763.4017
761.9516
760.4949
759.0351
757.5762
756.1221
754.6771
753.2454
751.8318
750.4408
749.0775
747.7469
746.4542
745.2049
744.0045
742.8584
741.7725
740.7523
739.8038
738.9324
738.144
737.4439
736.8375
736.3298
735.9256
735.6289
735.4439
735.3741
735.4228
735.593
735.888
736.3112
736.8661
780.2051
778.2204
777.238
776.0241
774.8397
773.6179
772.3726
771.1016
769.8077
768.493
767.1604
765.8127
764.453
763.0847
761.7112
760.3359
758.9625
757.5949
756.2367
754.892
753.5649
752.2593
750.9795
749.7297
748.5142
747.3373
746.2034
745.1168
744.0818
743.1028
742.1839
741.3294
740.5432
739.8293
739.1915
738.6332
738.1578
737.7685
737.4679
737.2585
737.1425
737.1216
737.197
737.3698
737.6403
738.0083
738.4734
739.0343
739.6893
740.4362
741.2718
742.1926
743.1943
744.2719
745.4203
746.6337
747.9065
749.2332
750.6101
752.0373
762.5838
760.1931
759.0717
757.7058
756.4305
755.1613
753.918
752.6982
751.5061
750.3447
749.2174
748.128
747.08
746.0772
745.123
744.2212
743.3751
742.5881
741.8635
741.2043
740.6134
740.0935
739.6471
739.2765
738.9836
738.7701
738.6375
738.5868
738.6187
738.7337
738.9317
739.2123
739.5748
740.018
740.5402
741.1394
741.8132
742.5585
743.3723
744.2506
745.1895
746.1844
747.2305
748.3227
749.4555
750.6231
751.8197
753.0392
754.2751
755.5212
756.7708
758.0174
759.2544
760.4753
761.6739
762.8446
763.9824
765.0836
766.1474
767.1803
746.7867
745.0891
744.4237
743.6206
742.9422
742.3171
741.7609
741.2703
740.8475
740.4935
740.2096
739.9971
739.8568
739.7895
739.7958
739.8757
740.0293
740.2561
740.5553
740.9261
741.3668
741.8759
742.4513
743.0905
743.7909
744.5493
745.3625
746.2267
747.1381
748.0922
749.0848
750.1111
751.1662
752.245
753.3422
754.4526
755.5707
756.691
757.808
758.9164
760.0107
761.0858
762.1364
763.1577
764.145
765.0939
766.0003
766.8603
767.6706
768.4279
769.1297
769.7734
770.3569
770.8788
771.3378
771.7338
772.0672
772.3397
772.5558
772.727
741.1643
740.8906
741.0141
741.161
741.4067
741.7184
742.0982
742.5415
743.0461
743.6093
744.2286
744.9011
745.6239
746.394
747.2079
748.062
748.9527
749.8758
750.8274
751.8031
752.7985
753.8089
754.8299
755.8565
756.8841
757.9079
758.9231
759.925
760.9088
761.87
762.8042
763.7069
764.574
765.4016
766.1859
766.9233
767.6106
768.2449
768.8233
769.3436
769.8036
770.2015
770.5361
770.8061
771.0107
771.1497
771.2227
771.2301
771.1721
771.0496
770.8634
770.6144
770.3037
769.9328
769.5032
769.0169
768.4762
767.8844
767.2468
766.5741
747.3672
748.2696
748.9661
749.7883
750.6382
751.5212
752.427
753.3505
754.2867
755.2311
756.179
757.1262
758.0681
759.0005
759.9191
760.8197
761.6982
762.5505
763.3727
764.1611
764.9119
765.6216
766.287
766.9049
767.4724
767.9869
768.4457
768.8468
769.1881
769.4678
769.6847
769.8373
769.9249
769.9466
769.902
769.7909
769.6135
769.3698
769.0606
768.6864
768.2482
767.7472
767.1846
766.5618
765.8806
765.1427
764.3499
763.5044
762.6081
761.6633
760.672
759.6366
758.5591
757.4417
756.2869
755.0975
753.8766
752.6282
751.3577
750.0748
759.0495
760.1046
760.7869
761.5765
762.3302
763.0669
763.7726
764.4441
765.077
765.6678
766.2134
766.7108
767.1573
767.5507
767.8888
768.1696
768.3914
768.5528
768.6525
768.6896
768.6632
768.5728
768.418
768.1988
767.9152
767.5677
767.1566
766.6828
766.1472
765.5509
764.8951
764.1813
763.4112
762.5863
761.7087
760.7803
759.8033
758.7798
757.7123
756.6032
755.455
754.2704
753.052
751.8027
750.5255
749.2231
747.8988
746.5557
745.1969
743.8257
742.4454
741.0593
739.6706
738.2827
736.8992
735.524
734.1615
732.8168
731.4964
730.2092
766.8804
767.0641
767.2107
767.3511
767.4407
767.4808
767.4639
767.3886
767.2532
767.057
766.7997
766.4811
766.1014
765.6612
765.1611
764.6019
763.9848
763.3109
762.5818
761.7991
760.9643
760.0796
759.1468
758.1681
757.1458
756.0822
754.9799
753.8413
752.6691
751.4661
750.235
748.9787
747.7
746.402
745.0875
743.7597
742.4216
741.0762
739.7268
738.3763
737.028
735.6851
734.3508
733.0281
731.7204
730.4309
729.1626
727.9188
726.7025
725.5169
724.3649
723.2492
722.1725
721.1374
720.1463
719.2022
718.3079
717.4668
716.6841
715.9668
764.8315
763.7416
763.2005
762.5199
761.8244
761.079
760.2879
759.45
758.5664
757.6386
756.6684
755.658
754.6095
753.5254
752.4081
751.2603
750.0845
748.8837
747.6604
746.4177
745.1584
743.8854
742.6017
741.31
740.0135
738.715
737.4174
736.1237
734.8366
733.559
732.2938
731.0435
729.8109
728.5986
727.4091
726.2448
725.1082
724.0013
722.9265
721.8857
720.881
719.9141
718.9867
718.1003
717.2565
716.4565
715.7014
714.9921
714.3295
713.7141
713.1463
712.626
712.1531
711.7272
711.3479
711.0147
710.7275
710.4866
710.2943
710.1568
753.1176
751.0816
750.0876
748.87
747.6966
746.4986
745.2901
744.0685
742.8367
741.5967
740.3512
739.1026
737.8536
736.6068
735.3651
734.1308
732.9068
731.6954
730.4991
729.3204
728.1615
727.0247
725.9121
724.8257
723.7673
722.7388
721.7419
720.778
719.8486
718.9548
718.0979
717.2788
716.4983
715.757
715.0555
714.394
713.7728
713.1918
712.651
712.15
711.6884
711.2657
710.8811
710.5337
710.2226
709.9467
709.7049
709.4958
709.318
709.1701
709.0504
708.9572
708.8886
708.8429
708.8183
708.8133
708.8269
708.8589
708.9113
708.9916
736.8905
734.6425
733.6122
732.3522
731.1843
730.0232
728.8869
727.771
726.6777
725.6083
724.5643
723.5471
722.5581
721.5989
720.6706
719.7744
718.9113
718.0823
717.2881
716.5294
715.8067
715.1202
714.4703
713.8569
713.2801
712.7396
712.235
711.7659
711.3318
710.9317
710.565
710.2307
709.9277
709.6548
709.4109
709.1946
709.0045
708.8393
708.6974
708.5775
708.4779
708.3973
708.3342
708.2873
708.2551
708.2364
708.23
708.2348
708.2499
708.2743
708.3073
708.3481
708.396
708.4505
708.5115
708.5793
708.6545
708.7388
708.8358
708.9536
722.3349
720.5254
719.784
718.8671
718.0556
717.2697
716.5246
715.8144
715.1396
714.4996
713.8942
713.3232
712.7862
712.2829
711.8128
711.3754
710.9701
710.596
710.2524
709.9384
709.653
709.3952
709.1638
708.9578
708.7758
708.6167
708.4792
708.3621
708.2641
708.1839
708.1203
708.0721
708.0381
708.0172
708.0084
708.0106
708.0229
708.0447
708.075
708.1134
708.1595
708.2127
708.273
708.3403
708.4147
708.4964
708.5858
708.6834
708.7899
708.9061
709.0327
709.1707
709.3209
709.4843
709.6624
709.8566
710.0689
710.3018
710.5594
710.8484
713.0154
711.8878
711.5163
711.0422
710.6543
710.2933
709.9676
709.6713
709.4036
709.1626
708.9473
708.7564
708.5888
708.4434
708.319
708.2146
708.129
708.0613
708.0105
707.9754
707.9551
707.9488
707.9556
707.9746
708.005
708.0464
708.0979
708.1592