/*--------------------------------*- C++ -*----------------------------------*\
| =========                 |                                                 |
| \\      /  F ield         | OpenFOAM: The Open Source CFD Toolbox           |
|  \\    /   O peration     | Version:  2312                                  |
|   \\  /    A nd           | Website:  www.openfoam.com                      |
|    \\/     M anipulation  |                                                 |
\*---------------------------------------------------------------------------*/
FoamFile
{
    version     2.0;
    format      ascii;
    arch        "LSB;label=32;scalar=64";
    class       volScalarField;
    location    "4350";
    object      omega;
}
// * * * * * * * * * * * * * * * * * * * * * * * * * * * * * * * * * * * * * //

dimensions      [0 0 -1 0 0 0 0];

internalField   nonuniform List<scalar> 
12000
(
51.84034
18.97592
20.55241
22.09316
23.29233
24.3628
25.26758
26.0505
26.72421
27.33585
27.89598
28.39836
28.85059
29.2521
29.6018
29.92269
30.22609
30.49659
30.71227
30.89682
31.07542
31.24506
31.36618
31.44627
31.51597
31.58488
31.63377
31.64636
31.64777
31.63434
31.61278
31.57436
31.52763
31.46056
31.34998
31.13916
30.92153
30.7898
30.7222
30.47811
30.02033
29.46083
29.27933
29.1542
29.03536
28.17061
27.18241
26.78483
26.78295
26.45813
24.98539
24.10619
23.69898
23.018
21.78412
20.5198
19.43169
18.25584
17.01688
39.46314
90.23239
22.1369
21.29077
21.78593
21.90888
21.92538
21.68319
21.34791
20.80693
20.19407
19.64037
19.00196
18.40262
17.77237
17.23001
16.80106
16.32196
15.69646
15.15445
14.91054
14.66794
14.17431
13.59708
13.36094
13.30365
13.08206
12.72952
12.51452
12.45057
12.37993
12.30397
12.23354
12.13687
12.1245
12.15668
12.28024
12.41475
12.44046
12.43275
12.56762
12.96889
13.45016
13.63665
13.65673
13.75014
14.59629
15.6075
16.14922
16.15317
16.70474
18.51295
19.99183
20.83874
22.09958
24.71597
27.51622
31.69166
38.59502
51.94801
74.26886
93.4576
22.392
20.33407
19.78433
18.95846
18.05159
17.1892
16.3504
15.50871
14.55828
13.72043
13.02141
12.38008
11.86328
11.40435
10.99374
10.61473
10.28717
10.02469
9.803414
9.589376
9.393187
9.24537
9.14542
9.056826
8.969083
8.902841
8.867764
8.850586
8.844949
8.84441
8.853524
8.877527
8.926216
8.986825
9.060797
9.139545
9.221435
9.320206
9.44883
9.597191
9.742923
9.884216
10.05396
10.27035
10.50776
10.77018
11.06086
11.40507
11.80031
12.24438
12.87372
13.64388
14.6566
15.88074
17.89889
21.65638
28.70493
45.86254
82.08145
95.68467
21.46018
18.27678
17.51854
16.47217
15.41637
14.40276
13.43131
12.51528
11.72616
11.01397
10.40418
9.870466
9.413491
9.038204
8.710475
8.428777
8.191015
7.990746
7.820671
7.67617
7.557573
7.464061
7.39062
7.332188
7.288155
7.259552
7.246382
7.244882
7.25411
7.26954
7.297948
7.343334
7.399438
7.466615
7.545755
7.637251
7.741317
7.859544
7.993901
8.145173
8.313721
8.500082
8.706482
8.942531
9.210386
9.517002
9.869622
10.27697
10.74897
11.3289
11.99275
12.71401
13.65464
14.91425
16.8303
19.86515
25.7035
41.09
87.79978
97.70018
20.56438
16.76423
15.81433
14.67861
13.56733
12.52093
11.55551
10.70534
9.988362
9.392263
8.889217
8.456655
8.063124
7.720818
7.435156
7.191564
6.986117
6.814485
6.670378
6.550413
6.452174
6.373275
6.311378
6.264563
6.231714
6.212115
6.207115
6.210374
6.222521
6.245063
6.281954
6.329742
6.388441
6.457744
6.538721
6.631691
6.736643
6.854126
6.984946
7.129893
7.290098
7.465344
7.656253
7.864704
8.093866
8.349253
8.63175
8.958558
9.338471
9.76355
10.24095
10.86446
11.71282
12.89927
14.63531
17.50656
23.17913
38.44843
91.79542
99.55531
20.38779
15.55681
14.44028
13.30581
12.22037
11.22609
10.34121
9.57731
8.925741
8.369316
7.894157
7.49835
7.162733
6.861868
6.595901
6.37113
6.181915
6.023351
5.890041
5.778876
5.68772
5.614685
5.558108
5.516628
5.489194
5.475026
5.473637
5.483284
5.504734
5.537687
5.582399
5.639053
5.7081
5.787402
5.878299
5.9835
6.101973
6.233975
6.380251
6.541668
6.719264
6.914419
7.128274
7.359301
7.612965
7.892799
8.209692
8.55952
8.935083
9.364692
9.884141
10.52595
11.33887
12.42565
14.00756
16.5891
21.66414
35.78566
94.83452
101.329
20.33462
14.65457
13.36387
12.25659
11.22607
10.29846
9.483644
8.780941
8.179005
7.663668
7.221599
6.840804
6.51548
6.241684
6.00249
5.790628
5.609754
5.456479
5.327771
5.221003
5.134107
5.065371
5.013359
4.976885
4.954984
4.948592
4.953006
4.970675
5.00101
5.043812
5.098044
5.163945
5.242901
5.3345
5.438286
5.555171
5.685663
5.830109
5.988922
6.162545
6.35145
6.556144
6.777193
7.015541
7.272448
7.553678
7.856566
8.178874
8.537088
8.945987
9.425009
10.00841
10.75658
11.77851
13.28987
15.79148
20.74872
34.51225
96.98299
103.2231
20.4779
13.98006
12.50501
11.43286
10.46919
9.609569
8.857052
8.205963
7.644703
7.160758
6.742918
6.381067
6.068057
5.79756
5.568027
5.370501
5.197517
5.049831
4.925564
4.822916
4.740151
4.675766
4.628474
4.597191
4.58111
4.579549
4.591159
4.61614
4.654166
4.705028
4.768582
4.844505
4.93313
5.034724
5.14953
5.277919
5.420302
5.577095
5.748724
5.935622
6.138218
6.35693
6.592219
6.844236
7.116374
7.407271
7.714077
8.044151
8.407609
8.816953
9.289973
9.860153
10.58319
11.55848
12.98505
15.32607
19.95223
32.96865
98.5987
105.2439
20.54104
13.52921
11.85578
10.7963
9.889109
9.089248
8.389331
7.78104
7.253605
6.795999
6.39841
6.052492
5.751756
5.490715
5.264857
5.072803
4.908944
4.767634
4.648459
4.550225
4.47163
4.411396
4.368361
4.341502
4.331517
4.334288
4.35128
4.381968
4.425989
4.483123
4.553826
4.637711
4.734312
4.844085
4.967424
5.104734
5.256432
5.422935
5.604644
5.801939
6.015174
6.244697
6.490331
6.753323
7.03203
7.32602
7.636907
7.968244
8.323796
8.714622
9.164615
9.704059
10.39044
11.32377
12.70426
14.9927
19.53337
32.2406
99.69307
85.37535
20.21456
13.16978
11.3313
10.27696
9.423255
8.68036
8.029643
7.460948
6.964521
6.531073
6.152413
5.821627
5.533041
5.28187
5.063875
4.876013
4.716857
4.582733
4.469557
4.376321
4.302078
4.245826
4.206605
4.183533
4.176615
4.183388
4.204336
4.239031
4.287167
4.348558
4.4239
4.512941
4.614972
4.730442
4.859798
5.0035
5.162015
5.335791
5.525221
5.730582
5.952692
6.192506
6.45004
6.723898
7.012477
7.313549
7.629176
7.961879
8.316733
8.703642
9.139565
9.660248
10.32586
11.22754
12.55818
14.75748
19.11325
31.35128
100.5574
87.00206
20.75072
13.03837
10.98901
9.901415
9.07606
8.374693
7.763455
7.228444
6.759841
6.34923
5.989285
5.673724
5.397334
5.155792
4.945541
4.76343
4.607404
4.476195
4.36761
4.278742
4.208408
4.155602
4.119458
4.099183
4.094427
4.103787
4.127208
4.164327
4.214885
4.278734
4.356544
4.448248
4.55331
4.672168
4.805303
4.95324
5.116544
5.295805
5.491618
5.704554
5.934366
6.180338
6.442659
6.721249
7.015599
7.324543
7.64675
7.981989
8.333362
8.710758
9.134671
9.638759
10.27295
11.14462
12.44452
14.60848
18.9036
30.9096
101.0519
109.3219
22.04651
13.08099
10.72352
9.58415
8.780383
8.11776
7.544904
7.043103
6.601716
6.212756
5.869744
5.567989
5.303471
5.072755
4.872398
4.699391
4.551013
4.425576
4.321312
4.236859
4.17037
4.120821
4.087314
4.069128
4.065816
4.076594
4.10124
4.139472
4.191129
4.256172
4.33521
4.428336
4.535126
4.655899
4.791093
4.941226
5.10687
5.288628
5.487098
5.702836
5.93632
6.187835
6.457517
6.744611
7.047959
7.366053
7.696132
8.035266
8.384102
8.751009
9.157282
9.640327
10.25925
11.11121
12.38293
14.49969
18.69798
30.43354
101.478
91.02383
22.41435
13.16086
10.58536
9.374017
8.568396
7.928627
7.383778
6.908207
6.489761
6.121116
5.79697
5.512915
5.265746
5.050337
4.860737
4.694607
4.550348
4.426502
4.323103
4.2394
4.17439
4.12676
4.095002
4.078207
4.075813
4.08728
4.112318
4.150713
4.202321
4.267123
4.345497
4.437695
4.543755
4.664069
4.799127
4.949522
5.115901
5.298959
5.499397
5.717868
5.954876
6.210673
6.484966
6.777312
7.086606
7.412914
7.753007
8.099523
8.448573
8.805314
9.194324
9.658557
10.25794
11.08994
12.34121
14.4348
18.59525
30.19159
101.6895
91.81928
23.03033
13.30996
10.49907
9.217975
8.405534
7.7839
7.264647
6.81522
6.421095
6.074135
5.769251
5.502218
5.267072
5.058338
4.874487
4.712995
4.572217
4.45193
4.351797
4.271216
4.208969
4.163078
4.132512
4.116452
4.114265
4.125389
4.149644
4.186887
4.23704
4.30024
4.376788
4.467117
4.571621
4.690701
4.824843
4.974646
5.140779
5.323958
5.524917
5.744375
5.982961
6.240959
6.519416
6.820251
7.141736
7.477971
7.822493
8.168913
8.51323
8.86175
9.237864
9.685689
10.26925
11.0854
12.31935
14.38863
18.50356
29.96782
101.9031
92.69592
23.70968
13.51677
10.49819
9.125168
8.290181
7.67626
7.176097
6.748245
6.374313
6.045097
5.757002
5.505209
5.283616
5.087346
4.912655
4.758085
4.623237
4.507367
4.409658
4.329478
4.266152
4.219099
4.187387
4.170177
4.166796
4.176526
4.199326
4.234717
4.282847
4.344061
4.418561
4.50697
4.609844
4.727536
4.860623
5.009698
5.175436
5.358528
5.559635
5.779673
6.020528
6.283739
6.569283
6.876326
7.202928
7.544452
7.892575
8.238337
8.577933
8.918834
9.282902
9.714583
10.28182
11.08405
12.3047
14.35966
18.45264
29.84184
102.021
93.38239
24.33259
13.74548
10.52116
9.067371
8.207219
7.594862
7.10771
6.696717
6.34036
6.028882
5.758196
5.522005
5.312475
5.125676
4.959586
4.812943
4.684524
4.573324
4.478377
4.399438
4.336226
4.288198
4.254854
4.235676
4.230199
4.237771
4.258583
4.292191
4.33851
4.397452
4.46893
4.554059
4.654426
4.770459
4.902349
5.050637
5.216168
5.399933
5.602999
5.826467
6.071391
6.33853
6.627999
6.938689
7.267546
7.60925
7.956667
8.30148
8.637914
8.970617
9.323156
9.74226
10.29735
11.08918
12.29902
14.34194
18.419
29.77784
102.0941
93.87049
24.94471
14.00089
10.59116
9.05407
8.158786
7.539223
7.058364
6.659459
6.317233
6.020095
5.762849
5.539211
5.341981
5.166721
5.01069
4.872022
4.749367
4.642102
4.55009
4.472891
4.410214
4.361697
4.327098
4.306127
4.298498
4.303719
4.322025
4.353061
4.396733
4.452942
4.521537
4.60378
4.701776
4.8163
4.947439
5.095599
5.261511
5.446155
5.650641
5.876114
6.123588
6.393633
6.685996
6.999165
7.329781
7.672064
8.01788
8.358632
8.689758
9.016817
9.362308
9.770612
10.31278
11.09386
12.2946
14.32538
18.37884
29.69945
102.0996
94.23008
25.4925
14.26213
10.68483
9.060422
8.130785
7.500779
7.02219
6.631911
6.301167
6.016396
5.771238
5.559079
5.372675
5.207234
5.059806
4.928445
4.811875
4.709304
4.620231
4.544501
4.482093
4.433059
4.397306
4.374691
4.36506
4.368104
4.383995
4.412517
4.453624
4.507246
4.573153
4.652335
4.747518
4.860464
4.990947
5.138864
5.304951
5.490263
5.695947
5.923109
6.172635
6.444918
6.739475
7.05447
7.386165
7.728546
8.073448
8.412033
8.738864
9.059173
9.396297
9.795579
10.32943
11.10428
12.29917
14.32391
18.37307
29.66347
102.0298
94.47056
25.99401
14.52645
10.79795
9.094098
8.125571
7.478544
6.996945
6.611321
6.28908
6.014328
5.779052
5.576579
5.399815
5.243423
5.104098
4.97961
4.86851
4.769958
4.683568
4.609328
4.547439
4.498094
4.461342
4.43722
4.425719
4.426739
4.440174
4.466282
4.504905
4.55609
4.619992
4.697112
4.789754
4.900564
5.029953
5.177637
5.344092
5.530248
5.737227
5.966109
6.217687
6.492153
6.788716
7.105153
7.437314
7.77881
8.121263
8.455958
8.777916
9.092723
9.423689
9.815831
10.34237
11.1112
12.30075
14.31963
18.35246
29.60811
101.9631
94.61713
26.45962
14.79231
10.92397
9.141825
8.130148
7.465845
6.978816
6.595038
6.278702
6.011587
5.783844
5.58939
5.420756
5.271911
5.139353
5.020705
4.914392
4.819521
4.735765
4.663215
4.602099
4.552709
4.515305
4.490084
4.477169
4.476635
4.487944
4.512232
4.549023
4.598433
4.660675
4.73619
4.827244
4.936735
5.065436
5.2132
5.380414
5.567884
5.776632
6.007645
6.261571
6.538381
6.836982
7.154787
7.487292
7.827838
8.167924
8.498835
8.815702
9.12443
9.448887
9.834503
10.35512
11.11939
12.30521
14.3204
18.35064
29.59389
101.8117
94.73164
26.87585
15.05405
11.0581
9.2008
8.147479
7.460922
6.96542
6.580651
6.267593
6.005723
5.783539
5.594541
5.432394
5.290019
5.163174
5.049431
4.947225
4.855666
4.774433
4.7036
4.64349
4.594494
4.556996
4.531286
4.517589
4.516076
4.526336
4.549528
4.585297
4.633814
4.695319
4.770175
4.860522
4.969405
5.097997
5.246344
5.414766
5.603939
5.814761
6.048081
6.304374
6.583366
6.883652
7.202295
7.53446
7.873256
8.210127
8.536548
8.848085
9.151214
9.47031
9.850938
10.36714
11.12811
12.31162
14.32431
18.34765
29.5685
101.7068
94.88592
27.25546
15.30906
11.19522
9.265944
8.17096
7.46146
6.954822
6.56663
6.254643
5.996236
5.778484
5.592585
5.432465
5.294429
5.172688
5.063656
4.96539
4.877024
4.798335
4.729469
4.670797
4.622774
4.585839
4.56037
4.546679
4.545022
4.555106
4.578122
4.613821
4.662447
4.724267
4.799523
4.889959
4.998807
5.127973
5.277579
5.447687
5.638875
5.851955
6.087648
6.346239
6.627208
6.928851
7.247917
7.579297
7.91593
8.249249
8.570909
8.876857
9.174133
9.487771
9.863857
10.37638
11.13445
12.31601
14.32696
18.3468
29.55394
101.5376
95.11249
27.63911
15.56297
11.33661
9.336739
8.199392
7.465334
6.945582
6.551689
6.238541
5.981488
5.766114
5.583253
5.4267
5.290368
5.170486
5.063296
4.967525
4.882098
4.806319
4.740095
4.68366
4.637401
4.601842
4.577457
4.564646
4.56375
4.574548
4.598301
4.634813
4.684391
4.747403
4.824374
4.91625
5.02571
5.155693
5.306839
5.478949
5.672422
5.887918
6.126003
6.38677
6.66946
6.972092
7.291138
7.621259
7.955273
8.284666
8.601362
8.901794
9.193653
9.502608
9.875162
10.38526
11.142
12.32357
14.33542
18.35606
29.55157
101.441
95.33
28.02391
15.81507
11.47674
9.408143
8.229028
7.469854
6.935705
6.534422
6.218311
5.960876
5.746388
5.564813
5.409229
5.274398
5.156503
5.052865
4.960377
4.877419
4.803508
4.738776
4.683575
4.639114
4.605551
4.583113
4.572118
4.572852
4.585498
4.61088
4.649115
4.700549
4.765573
4.844706
4.938714
5.050031
5.181698
5.334676
5.508919
5.704756
5.922692
6.163104
6.425877
6.710013
7.013275
7.331887
7.66033
7.991348
8.316521
8.628064
8.922916
9.20942
9.51387
9.883109
10.39101
11.14652
12.32757
14.33886
18.35721
29.54512
101.2982
95.75936
28.44065
16.06896
11.62199
9.483977
8.261434
7.475402
6.925104
6.514658
6.193849
5.934418
5.719415
5.538011
5.38285
5.248649
5.131526
5.028561
4.937501
4.856947
4.786336
4.725449
4.674337
4.632691
4.601252
4.58068
4.571482
4.574067
4.58916
4.616909
4.65762
4.711676
4.779477
4.861466
4.958224
5.072
5.205877
5.361063
5.537653
5.735924
5.956248
6.198833
6.463362
6.74861
7.052108
7.36987
7.696237
8.023933
8.344682
8.651041
8.940495
9.222066
9.522665
9.889453
10.39625
11.15202
12.33464
14.3487
18.36993
29.54928
101.2301
95.69117
28.72967
16.3234
11.76616
9.558352
8.292585
7.479433
6.912231
6.491534
6.164791
5.902148
5.685565
5.503509
5.348219
5.214243
5.097648
4.995578
4.90599
4.827526
4.759391
4.701204
4.652861
4.614543
4.586608
4.569485
4.563664
4.569355
4.587301
4.617858
4.661604
4.718819
4.789893
4.875232
4.975296
5.092082
5.22858
5.386213
5.565235
5.765897
5.98846
6.232979
6.498948
6.784934
7.088254
7.404752
7.728673
8.052768
8.368941
8.670108
8.954299
9.23118
9.528221
9.892839
10.39858
11.15442
12.33782
14.35291
18.37474
29.55307
101.1097
113.4415
29.64181
16.62993
11.92283
9.636923
8.32491
7.482952
6.897521
6.465349
6.131522
5.864637
5.645633
5.462317
5.306531
5.172618
5.056563
4.955501
4.867416
4.790952
4.725269
4.669918
4.62478
4.589912
4.565548
4.552009
4.549728
4.558851
4.580428
4.614645
4.661853
4.722676
4.797454
4.88659
4.990418
5.110391
5.249484
5.40975
5.591417
5.794445
6.019037
6.265176
6.532218
6.818543
7.121287
7.436153
7.75734
8.077668
8.389253
8.685394
8.964652
9.237288
9.531167
9.893704
10.39958
11.157
12.34323
14.36235
18.3896
29.57084
101.0534
114.3667
30.15052
16.89565
12.0681
9.713552
8.356521
7.485212
6.880594
6.435892
6.093988
5.822011
5.599915
5.414864
5.258299
5.124333
5.008839
4.908901
4.822486
4.748218
4.685222
4.633002
4.591322
4.560152
4.53961
4.529964
4.531485
4.544652
4.569948
4.607916
4.659028
4.723629
4.802229
4.895229
5.003188
5.127031
5.269026
5.431666
5.615638
5.820822
6.047261
6.294777
6.562575
6.84888
7.150688
7.463617
7.78186
8.098343
8.405414
8.696744
8.971442
9.24018
9.531553
9.893626
10.39927
11.15735
12.3453
14.36638
18.39563
29.57543
100.9672
114.5386
30.56909
17.14752
12.20879
9.789375
8.386969
7.485176
6.860875
6.402995
6.052386
5.774768
5.549155
5.362092
5.204626
5.070631
4.955837
4.857248
4.772777
4.700999
4.640976
4.592136
4.554135
4.52689
4.510463
4.505038
4.510708
4.52807
4.557369
4.599132
4.653994
4.722465
4.804922
4.901799
5.013622
5.141164
5.286381
5.451651
5.637811
5.844861
6.072803
6.32135
6.58956
6.875519
7.176111
7.486897
7.8021
8.114778
8.417518
8.704336
8.974745
9.240359
9.530111
9.891365
10.3978
11.15758
12.34848
14.37446
18.41117
29.60146
100.9459
114.5068
31.00367
17.41311
12.34975
9.862763
8.416509
7.484562
6.839195
6.367307
6.007388
5.723696
5.49429
5.30509
5.146737
5.012843
4.898967
4.801996
4.71975
4.65072
4.59389
4.548633
4.514578
4.491544
4.479483
4.478471
4.488478
4.510172
4.54367
4.589366
4.647862
4.719885
4.80596
4.90651
5.021999
5.153067
5.301422
5.469244
5.65744
5.866121
6.095286
6.34456
6.61288
6.898216
7.197369
7.505881
7.818041
8.127052
8.425732
8.70845
8.975087
9.237989
9.525956
9.886822
10.39417
11.15617
12.34899
14.37736
18.4173
29.61069
100.8889
114.753
31.46267
17.68993
12.48585
9.928567
8.441073
7.480078
6.814437
6.32857
5.959184
5.669256
5.435961
5.24462
5.085468
4.951842
4.83911
4.744023
4.664294
4.598326
4.545027
4.503648
4.473715
4.454959
4.447304
4.450698
4.465359
4.491447
4.529221
4.579013
4.641231
4.716571
4.805864
4.909659
5.028427
5.162752
5.314087
5.484333
5.674391
5.884474
6.114592
6.364313
6.632485
6.916986
7.214557
7.520717
7.829824
8.13525
8.430081
8.708857
8.972475
9.23302
9.519905
9.880902
10.38949
11.15362
12.34912
14.38293
18.43121
29.63947
100.8824
114.9754
31.94671
17.98636
12.62787
9.993959
8.464083
7.473658
6.78759
6.287633
5.908696
5.612503
5.375362
5.181997
5.022227
4.8891
4.777773
4.68484
4.607889
4.545213
4.495633
4.458278
4.432612
4.418287
4.415152
4.423044
4.442217
4.472703
4.514716
4.568545
4.634556
4.7132
4.80533
4.911901
5.033479
5.170638
5.324621
5.497028
5.688716
5.899963
6.130788
6.380704
6.648466
6.93187
7.227625
7.531342
7.837533
8.139723
8.430895
8.706528
8.967241
9.225821
9.511976
9.873459
10.38354
11.1499
12.34834
14.38418
18.43603
29.65136
100.8714
115.2759
32.40443
18.27739
12.76253
10.05079
8.480527
7.462619
6.757373
6.24404
5.855964
5.553803
5.313092
5.11799
4.957914
4.825609
4.716013
4.625543
4.551644
4.492491
4.446762
4.413548
4.392204
4.382344
4.383692
4.396155
4.419727
4.454487
4.500601
4.558314
4.627954
4.709942
4.804869
4.913734
5.037571
5.177078
5.333316
5.507583
5.700652
5.91283
6.144113
6.393971
6.661148
6.943454
7.237604
7.539085
7.842346
8.140909
8.428898
8.701502
8.959983
9.217336
9.503238
9.865449
10.37707
11.14547
12.34662
14.38661
18.44696
29.67842
100.9192
115.5598
32.88288
18.58881
12.90891
10.11256
8.498029
7.450876
6.72588
6.199217
5.802311
5.494544
5.250622
5.054129
4.89406
4.76285
4.655197
4.567373
4.496697
4.441233
4.399504
4.370493
4.353485
4.348024
4.353762
4.370596
4.398429
4.437294
4.487314
4.548696
4.621734
4.706821
4.804455
4.915476
5.041097
5.182405
5.340408
5.51614
5.710272
5.923128
6.154707
6.404456
6.671015
6.952058
7.2443
7.543191
7.843607
8.139605
8.424804
8.69486
8.951255
9.207319
9.493035
9.856145
10.3694
11.13985
12.34358
14.38674
18.45082
29.69157
100.9578
116.0005
33.3189
18.88138
13.04357
10.16544
8.50909
7.434912
6.691582
6.152487
5.747384
5.434554
5.187894
4.990417
4.830723
4.700962
4.59562
4.510769
4.443534
4.39181
4.354081
4.329258
4.31658
4.315473
4.325538
4.3466
4.378521
4.421291
4.474993
4.5398
4.615977
4.703888
4.804011
4.916966
5.043997
5.186613
5.345884
5.522674
5.717571
5.930855
6.162426
6.411647
6.677164
6.956566
7.246671
7.543587
7.841868
8.135434
8.418132
8.685739
8.940153
9.195247
9.481203
9.845574
10.36071
11.13335
12.33973
14.38641
18.45713
29.71036
100.9813
116.2051
33.76878
19.20094
13.19385
10.2263
8.524619
7.421456
6.659243
6.107757
5.694684
5.377023
5.127849
4.929614
4.770507
4.642375
4.539468
4.457593
4.393714
4.345608
4.311724
4.290911
4.282327
4.285335
4.299497
4.324525
4.360257
4.406638
4.463713
4.531626
4.610615
4.70102
4.803297
4.91803
5.046291
5.189719
5.349748
5.527194
5.722492
5.935821
6.167038
6.415424
6.679649
6.957688
7.246241
7.54103
7.836947
8.128136
8.408689
8.674607
8.927908
9.182504
9.468703
9.834191
10.35111
11.12572
12.33451
14.38444
18.45796
29.71642
100.972
117.3003
34.21952
19.48478
13.33055
10.27666
8.532067
7.403103
6.623746
6.061128
5.641145
5.319581
5.068686
4.870332
4.712292
4.586097
4.485752
4.406917
4.346455
4.302078
4.272119
4.255312
4.250732
4.257672
4.275659
4.304363
4.343591
4.393259
4.453388
4.524086
4.605564
4.698138
4.802251
4.918481
5.047687
5.19157
5.351951
5.529662
5.725019
5.938123
6.168784
6.416402
6.679591
6.956093
7.242776
7.535559
7.829445
8.118671
8.397418
8.661835
8.914195
9.168697
9.455672
9.822567
10.34124
11.11775
12.3288
14.38208
18.45984
29.73085
100.9722
103.3049
34.26898
19.74764
13.471
10.32919
8.539248
7.385064
6.589167
6.015904
5.589395
5.264252
5.01191
4.813659
4.656848
4.532696
4.434969
4.359197
4.302132
4.261404
4.235225
4.222276
4.221497
4.232169
4.253767
4.285922
4.328391
4.381053
4.443899
4.517034
4.600664
4.695097
4.800761
4.918217
5.048172
5.19233
5.352789
5.530484
5.725675
5.9384
6.16842
6.415044
6.676927
6.951897
7.236872
7.527843
7.8199
8.107388
8.384611
8.647848
8.899519
9.15397
9.441601
9.809861
10.33039
11.10892
12.32216
14.37778
18.46057
29.73499
100.9719
103.4177
34.54378
20.03886
13.6221
10.38408
8.547237
7.368716
6.55734
5.974327
5.541965
5.213681
4.960123
4.762044
4.606417
4.484194
4.388963
4.316129
4.262323
4.225036
4.202373
4.192998
4.195707
4.209778
4.234624
4.26983
4.315141
4.37042
4.435636
4.510871
4.596317
4.692275
4.79916
4.917521
5.048063
5.192426
5.352778
5.530218
5.72498
5.93706
6.166192
6.411686
6.672211
6.945637
7.228946
7.518216
7.808629
8.09462
8.370585
8.632913
8.88417
9.138828
9.42728
9.796869
10.31904
11.0994
12.31506
14.37443
18.46187
29.75195
100.9941
117.7954
35.33583
20.35939
13.78036
10.44162
8.556772
7.354618
6.52852
5.936375
5.498601
5.167478
4.912904
4.715126
4.560765
4.440526
4.347813
4.277854
4.227137
4.193046
4.173622
4.167464
4.173322
4.190425
4.218146
4.256044
4.303836
4.361369
4.428608
4.505614
4.592557
4.68972
4.797513
4.916485
5.047349
5.191705
5.35176
5.528713
5.722804
5.934016
6.162076
6.406305
6.665403
6.937287
7.219004
7.506705
7.795655
8.080369
8.355323
8.616993
8.868056
9.123069
9.412408
9.783312
10.307
11.08879
12.30589
14.36721
18.46031
29.75927
101.0205
118.5405
35.7319
20.63471
13.9302
10.4977
8.566946
7.342352
6.502435
5.901854
5.459192
5.125607
4.870274
4.672954
4.51993
4.401657
4.311348
4.244084
4.19624
4.165114
4.14868
4.145431
4.154119
4.173909
4.204159
4.244417
4.294368
4.353831
4.422744
4.501162
4.58925
4.68729
4.795692
4.915006
5.045947
5.190102
5.349695
5.525979
5.719204
5.929364
6.156205
6.399076
6.656712
6.927081
7.207291
7.493564
7.781237
8.064895
8.339076
8.600329
8.851415
9.10696
9.397302
9.769593
10.2949
11.07839
12.29745
14.36116
18.45733
29.766
101.0769
119.1187
36.01126
20.88551
14.0793
10.55637
8.580283
7.333847
6.480536
5.871879
5.424611
5.088758
4.83277
4.635929
4.484183
4.367749
4.279659
4.214857
4.169612
4.141141
4.127426
4.126719
4.137885
4.160024
4.192469
4.234729
4.286473
4.347506
4.417758
4.497272
4.586209
4.68485
4.793603
4.913023
5.043833
5.187617
5.34661
5.522079
5.714282
5.923245
6.148753
6.390195
6.646357
6.915253
7.19405
7.479034
7.765605
8.048404
8.322017
8.583044
8.834303
9.09045
9.381766
9.755313
10.282
11.06681
12.2873
14.35295
18.45255
29.76794
101.1187
119.1216
36.28266
21.13516
14.22807
10.61593
8.595761
7.328501
6.462813
5.846712
5.395224
5.057308
4.800735
4.604335
4.453743
4.338952
4.252829
4.190195
4.147225
4.121067
4.109724
4.11124
4.124535
4.148677
4.182959
4.226874
4.280074
4.342351
4.413625
4.493934
4.583436
4.682412
4.791274
4.910583
5.041068
5.184336
5.342621
5.51716
5.708223
5.915878
6.13997
6.379943
6.634634
6.902109
7.179589
7.463415
7.749042
8.031156
8.304383
8.565358
8.816941
9.073804
9.366175
9.741036
10.26919
11.05551
12.27772
14.34564
18.44879
29.77033
101.1528
119.7584
36.5728
21.36339
14.37492
10.67824
8.615582
7.32875
6.450615
5.827182
5.371561
5.031595
4.774369
4.578265
4.428622
4.315223
4.230785
4.170015
4.129006
4.104831
4.095436
4.098845
4.113935
4.139733
4.175514
4.220751
4.275082
4.33829
4.410287
4.49111
4.580915
4.679984
4.788737
4.90774
5.03773
5.180355
5.337839
5.511353
5.701176
5.907434
6.130045
6.36852
6.62175
6.887853
7.164096
7.446871
7.731679
8.013245
8.286217
8.547253
8.799232
9.056825
9.350194
9.726242
10.25565
11.04314
12.26657
14.33599
18.44173
29.77067
101.1556
108.4315
36.54611
21.57914
14.5239
10.74352
8.639283
7.333096
6.443786
5.813499
5.353877
5.011821
4.753798
4.557782
4.408832
4.296534
4.213465
4.154229
4.11484
4.092309
4.084507
4.089454
4.10598
4.133088
4.170031
4.216266
4.271418
4.335261
4.407703
4.488778
4.578644
4.677589
4.786035
4.904558
5.033903
5.175773
5.332373
5.504777
5.693274
5.898064
6.119147
6.356107
6.607894
6.872671
7.147753
7.429575
7.713679
7.99482
8.267665
8.528883
8.781363
9.039768
9.334188
9.711457
10.24217
11.03097
12.25587
14.3273
18.43642
29.77331
101.1706
109.3708
36.78715
21.80733
14.67564
10.8167
8.666875
7.341301
6.442943
5.805996
5.342402
4.998161
4.739148
4.54296
4.3944
4.282876
4.200832
4.142772
4.104637
4.083386
4.076824
4.082969
4.100592
4.128674
4.166452
4.213367
4.269037
4.333229
4.405847
4.486926
4.576626
4.675241
4.783201
4.90109
5.029664
5.170682
5.326314
5.497521
5.684614
5.887873
6.107392
6.34283
6.593194
6.856692
7.130681
7.411635
7.695133
7.975953
8.248772
8.510258
8.763294
9.022512
9.317923
9.696289
10.22811
11.01794
12.24391
14.31672
18.42824
29.77074
101.1833
110.5111
37.07216
22.03607
14.83154
10.89764
8.699566
7.353202
6.445799
5.804335
5.336945
4.990356
4.730133
4.533518
4.385063
4.274
4.192654
4.135438
4.09822
4.077902
4.072232
4.079224
4.097607
4.12634
4.16464
4.211938
4.267841
4.332113
4.404658
4.48551
4.574836
4.672933
4.78024
4.897353
5.025086
5.165204
5.31977
5.48969
5.675308
5.876995
6.094935
6.328864
6.57784
6.840115
7.113082
7.393255
7.676241
7.956837
8.229723
8.491557
8.745203
9.005261
9.301665
9.681125
10.21409
11.00506
12.23236
14.30696
18.4215
29.77223
101.2182
111.3926
37.31788
22.24827
14.98556
10.98341
8.737223
7.370194
6.454696
5.807268
5.337346
4.989038
4.72741
4.529933
4.38112
4.270087
4.189037
4.132289
4.09563
4.075901
4.070789
4.07829
4.097097
4.126145
4.164637
4.211991
4.267838
4.331916
4.404134
4.48454
4.573298
4.670709
4.77722
4.893438
5.020259
5.159434
5.312865
5.481415
5.665497
5.865583
6.081948
6.314393
6.562021
6.823125
7.095132
7.374589
7.657132
7.93757
8.210576
8.472791
8.727055
8.98792
9.285246
9.665691
10.19965
10.99154
12.21982
14.29567
18.41234
29.76885
101.2531
112.1534
37.55323
22.45511
15.14262
11.07583
8.781028
7.392959
6.469274
5.816523
5.342415
4.99145
4.72863
4.530578
4.381531
4.270413
4.189354
4.132652
4.096111
4.076547
4.071609
4.079266
4.098188
4.127293
4.165772
4.213035
4.268652
4.332399
4.404171
4.483985
4.572031
4.668622
4.774215
4.88942
5.015233
5.153425
5.305701
5.472829
5.655325
5.853791
6.068592
6.299581
6.545902
6.805878
7.076972
7.355765
7.637914
7.918236
8.191397
8.454013
8.708892
8.970548
9.268773
9.650191
10.18516
10.97807
12.20749
14.28482
18.40378
29.7648
101.2998
112.8521
37.76821
22.65474
15.30243
11.17484
8.83115
7.422088
6.490148
5.831847
5.353997
5.000459
4.735709
4.536297
4.386274
4.274583
4.193276
4.136526
4.099984
4.080404
4.075422
4.082989
4.101755
4.130626
4.168777
4.21561
4.270711
4.333834
4.404881
4.483907
4.571069
4.666693
4.771241
4.885335
5.010155
5.147406
5.2984
5.463944
5.644808
5.841678
6.054956
6.284528
6.529573
6.788451
7.058663
7.336821
7.618603
7.898833
8.172161
8.435178
8.69066
8.953076
9.252154
9.634475
10.17036
10.96412
12.19443
14.27287
18.3934
29.75665
101.3288
113.6304
37.97795
22.85086
15.46487
11.28004
8.888991
7.457153
6.516136
5.852666
5.371001
5.014648
4.747804
4.546861
4.395753
4.28325
4.201307
4.144039
4.107073
4.087121
4.081778
4.088952
4.107276
4.135641
4.173213
4.219388
4.273752
4.336061
4.406222
4.48428
4.570432
4.66499
4.768422
4.881359
5.005044
5.141136
5.290793
5.454827
5.634103
5.829389
6.041151
6.269317
6.513103
6.770907
7.040264
7.317816
7.599259
7.879418
8.152928
8.416348
8.672422
8.935577
9.235479
9.618674
10.15546
10.95013
12.18154
14.2616
18.38523
29.75624
101.3534
114.5339
38.1913
23.04552
15.63145
11.39391
8.957267
7.49847
6.546449
5.878277
5.392938
5.033703
4.764601
4.561892
4.409395
4.295776
4.212906
4.154842
4.117163
4.096539
4.090542
4.097033
4.114638
4.142233
4.178979
4.224267
4.277687
4.338997
4.408107
4.485072
4.570083
4.663474
4.765746
4.877511
4.999983
5.134801
5.283057
5.445574
5.623281
5.817014
6.027289
6.254076
6.496629
6.753382
7.021907
7.298873
7.579991
7.860083
8.133765
8.397563
8.654186
8.91802
9.218672
9.602656
10.14024
10.93569
12.16797
14.24918
18.37472
29.7508
101.3689
115.5599
38.3983
23.23619
15.80008
11.51481
9.033928
7.546289
6.581954
5.908698
5.419525
5.057274
4.785746
4.58106
4.426929
4.31193
4.227864
4.168729
4.130055
4.108478
4.10155
4.107083
4.123701
4.150273
4.185955
4.23014
4.282421
4.342561
4.410477
4.486228
4.570017
4.662207
4.763288
4.873817
4.995009
5.12848
5.275308
5.436333
5.612515
5.804736
6.013556
6.238987
6.480324
6.736041
7.003743
7.280126
7.560913
7.840922
8.114744
8.378878
8.635996
8.900451
9.201798
9.586528
10.1249
10.92117
12.15448
14.23719
18.36539
29.74883
101.383
117.4344
38.62659
23.42853
15.97266
11.64357
9.118862
7.600706
6.623103
5.944259
5.450844
5.085262
4.811039
4.604121
4.448099
4.331462
4.245939
4.185472
4.145543
4.122748
4.11463
4.118944
4.134321
4.159626
4.194021
4.236904
4.287875
4.346703
4.413311
4.487766
4.570297
4.661262
4.761086
4.870334
4.990216
5.122321
5.267725
5.427278
5.601967
5.792706
6.000092
6.22418
6.464305
6.71898
6.985848
7.261627
7.542052
7.821932
8.09584
8.360241
8.617776
8.882768
9.184724
9.570105
10.10914
10.90608
12.14016
14.22402
18.35442
29.74428
101.3936
121.0097
38.89797
23.61934
16.14719
11.77885
9.21166
7.662753
6.669706
5.984071
5.486365
5.117282
4.840148
4.630768
4.472625
4.354122
4.266915
4.204881
4.163453
4.139186
4.12962
4.132459
4.146355
4.170176
4.20309
4.244507
4.294033
4.351445
4.416677
4.489814
4.571063
4.660734
4.759254
4.867196
4.985753
5.116487
5.260468
5.418563