/*--------------------------------*- C++ -*----------------------------------*\
| =========                 |                                                 |
| \\      /  F ield         | OpenFOAM: The Open Source CFD Toolbox           |
|  \\    /   O peration     | Version:  2312                                  |
|   \\  /    A nd           | Website:  www.openfoam.com                      |
|    \\/     M anipulation  |                                                 |
\*---------------------------------------------------------------------------*/
FoamFile
{
    version     2.0;
    format      ascii;
    arch        "LSB;label=32;scalar=64";
    class       volScalarField;
    location    "4350";
    object      qr;
}
// * * * * * * * * * * * * * * * * * * * * * * * * * * * * * * * * * * * * * //

dimensions      [1 0 -3 0 0 0 0];

internalField   uniform 0;

boundaryField
{
    plate
    {
        type            calculated;
        value           nonuniform List<scalar> 
200
(
-8398.723
-8550.774
-8637.835
-8634.362
-8568.716
-8516.857
-8516.887
-8587.207
-8675.992
-205.2811
-297.1119
-8606.157
-500.6343
-563.9007
-626.2511
-662.5537
-679.1646
-683.992
-669.5229
-637.4422
-607.0184
-592.9054
-602.6983
-627.2719
-647.5472
-652.2706
-8387.203
-8351.684
-8319.129
-8275.144
-8209.69
-8136.098
-8071.042
-8017.755
-7985.031
-7969.925
-7977.178
-1163.601
-1192.319
-7757.585
-7602.812
-7468.469
-7387.915
-7368.874
-1631.167
-1806.77
-1990.092
-2078.576
-2123.836
-2154.191
-2217.664
-2336.167
-2518.642
-3096.579
-4586.01
-5566.774
-5691.919
-5394.088
-4859.453
-4277.647
-4036.434
-4111.757
-4345.055
-4634.098
-4788.664
-4781.206
-4657.771
-4486.71
-4366.439
-4316.273
-4319.959
-4334.343
-4319.479
-4276.772
-4225.275
-4199.452
-4222.391
-4292.785
-4392.922
-4490.796
-4560.939
-4593.344
-4593.886
-4577.024
-4555.579
-4536.545
-4517.551
-4492.936
-4459.68
-4420.515
-4384.888
-4362.956
-4360.644
-4376.259
-4400.211
-4419.936
-4424.326
-4408.777
-4376.468
-4336.257
-4298.845
-4272.425
-4261.117
-4264.314
-4278.558
-4299.59
-4323.523
-4347.74
-4370.237
-4389.463
-4404.104
-4413.295
-4417.244
-4417.197
-4415.151
-4413.345
-4413.325
-4415.557
-4419.258
-4423.173
-4425.929
-4426.829
-4425.892
-4423.746
-4421.158
-4418.669
-4416.183
-4413.386
-4409.685
-4404.904
-4398.781
-4391.942
-4384.607
-4376.963
-4369.056
-4361.017
-4353.306
-4347.058
-4343.966
-4345.62
-4352.806
-4364.664
-4378.671
-4391.062
-4398.222
-4398.036
-4390.7
-4378.64
-4365.584
-4355.117
-4349.447
-4349.024
-4353.207
-4361.064
-4372.118
-4386.122
-4402.219
-4418.053
-4429.753
-4433.112
-4425.686
-4408.729
-4387.601
-4369.386
-4359.432
-4358.51
-4362.187
-4362.695
-4352.122
-4329.587
-4303.313
-4288.755
-4297.783
-4330.656
-4373.727
-4404.469
-4401.006
-4354.168
-4278.361
-4209.871
-4184.973
-4212.385
-4271.278
-4331.95
-4372.145
-4388.56
-4377.966
-4332.122
-4247.003
-4137.416
-4079.358
-4068.917
-4142.449
-4318.926
-6105.585
-1331.127
-8786.904
604.5992
-10194.72
-10264.39
)
;
    }
    riser
    {
        type            calculated;
        value           nonuniform List<scalar> 
200
(
3004.985
2906.881
2889.833
2916.657
2978.538
3048.374
3127.066
3140.307
3002.441
2876.759
2984.866
3170.296
3167.184
3095.674
3198.173
3405.225
3502.962
3442.338
3329.656
3275.825
3329.148
3476.208
3631.728
3690.967
3662.159
3642.783
3625.072
3533.208
3456.324
3570.473
3832.759
3996.819
3945.624
3860.126
3994.533
4324.63
4580.965
4642.329
4603.262
4460.357
4153.775
3870.954
3862.306
4073.49
4273.64
4339.463
4251.184
4028.4
3762.433
3572.045
3492.577
3472.337
3468.266
3496.288
3577.374
3691.457
3807.373
3916.022
4014.945
4090.217
4126.577
4121.361
4084.508
4031.537
3979.464
3946.155
3947.365
3989.238
4061.667
4139.55
4193.553
4204.272
4170.489
4106.837
4033.706
3966.625
3911.29
3865.68
3826.211
3793.192
3772.17
3770.777
3793.462
3837.639
3893.638
3948.326
3990.183
4013.146
4017.631
4008.791
3993.428
3977.251
3963.584
3953.56
3947.097
3943.799
3943.305
3945.147
3948.504
3952.203
3955.093
3956.609
3957.169
3958.138
3961.307
3968.123
3979.02
3993.111
4008.384
4022.26
4032.294
4036.755
4034.916
4027.027
4014.079
3997.478
3978.776
3959.488
3941.004
3924.55
3911.144
3901.542
3896.177
3895.133
3898.146
3904.669
3913.969
3925.237
3937.706
3950.748
3963.939
3977.077
3990.124
4003.092
4015.903
4028.269
4039.647
4049.302
4056.464
4060.506
4061.073
4058.089
4051.686
4042.092
4029.611
4014.712
3998.204
3981.385
3965.981
3953.826
3946.29
3943.682
3944.906
3947.595
3948.873
3946.538
3940.304
3932.495
3927.716
3931.364
3947.338
3975.903
4012.642
4049.226
4075.83
4084.189
4069.978
4033.629
3979.714
3915.437
3848.965
3787.862
3737.953
3702.451
3681.335
3671.247
3666.914
3664.455
3665.656
3680.259
3722.131
3796.645
3884.866
3940.678
3913.331
3786.436
3602.037
3437.839
3345.925
3312.904
3297.787
3309.277
3412.909
3593.147
3683.709
3513.242
3137.277
2851.564
2758.703
2785.515
)
;
    }
    topAndBottom
    {
        type            calculated;
        value           nonuniform List<scalar> 
120
(
3448.623
2878.797
2466.934
2217.294
2034.656
1902.229
1811.233
1749.962
1704.413
1665.543
1629.596
1598.466
1574.896
1556.697
1539.687
1522.85
1508.646
1499.328
1495.398
1495.94
1498.974
1502.978
1506.537
1508.185
1507.1
1503.256
1497.097
1489.36
1480.324
1470.113
1458.956
1447.281
1435.755
1425.198
1416.407
1409.93
1405.873
1403.837
1403.051
1402.583
1401.607
1399.621
1396.56
1392.763
1388.836
1385.517
1383.405
1382.459
1381.362
1377.596
1368.455
1352.832
1332.585
1312.197
1296.116
1284.948
1274.444
1260.346
1258.216
1384.105
3763.526
4008.352
4029.17
3914.796
3651.997
3315.577
3013.739
2806.437
2690.673
2631.325
2597.53
2587.459
2627.54
2743.075
2923.955
3116.311
3248.809
3273.702
3191.395
3041.954
2873.977
2716.102
2569.308
2419.75
2258.199
2091.356
1939.66
1826.163
1765.076
1756.03
1785.278
1831.411
1872.335
1891.031
1878.659
1835.599
1769.896
1694.077
1621.172
1561.716
1522.372
1506.113
1513.387
1542.267
1589.511
1652.205
1727.976
1813.875
1905.43
1996.56
2082.729
2161.085
2229.389
2286.595
2333.687
2370.285
2394.547
2402.573
2416.377
2413.155
)
;
    }
    frontAndBack
    {
        type            empty;
    }
}


// ************************************************************************* //
