/*--------------------------------*- C++ -*----------------------------------*\
| =========                 |                                                 |
| \\      /  F ield         | OpenFOAM: The Open Source CFD Toolbox           |
|  \\    /   O peration     | Version:  2312                                  |
|   \\  /    A nd           | Website:  www.openfoam.com                      |
|    \\/     M anipulation  |                                                 |
\*---------------------------------------------------------------------------*/
FoamFile
{
    version     2.0;
    format      ascii;
    arch        "LSB;label=32;scalar=64";
    class       volScalarField;
    location    "4350";
    object      T;
}
// * * * * * * * * * * * * * * * * * * * * * * * * * * * * * * * * * * * * * //

dimensions      [0 0 0 1 0 0 0];

internalField   nonuniform List<scalar> 
12000
(
448.1787
435.3756
433.8334
433.6122
433.5722
433.5547
433.5405
433.5269
433.513
433.4981
433.4819
433.464
433.4443
433.4225
433.3984
433.3722
433.3433
433.3116
433.277
433.2398
433.1995
433.1557
433.1086
433.0585
433.0049
432.9476
432.8868
432.8228
432.7555
432.685
432.6116
432.5357
432.4555
432.3648
432.2685
432.1656
432.0499
431.9131
431.761
431.6066
431.4546
431.2911
431.0808
430.8374
430.6112
430.4071
430.1738
429.8696
429.5139
429.1852
428.8458
428.4017
427.8532
427.2673
426.6045
425.7643
424.6475
423.2046
420.9984
417.0486
448.1487
435.9323
434.6061
434.6026
434.8141
435.0601
435.3122
435.5644
435.8163
436.0526
436.2771
436.4894
436.6876
436.8717
437.0469
437.2111
437.356
437.4831
437.6037
437.7198
437.8201
437.9005
437.9726
438.0436
438.1053
438.1509
438.1857
438.2154
438.237
438.2478
438.2484
438.238
438.2186
438.1899
438.1484
438.0946
438.0281
437.9485
437.8554
437.7481
437.6251
437.4843
437.3251
437.146
436.9406
436.7079
436.4449
436.1488
435.817
435.4393
435.0094
434.5092
433.9436
433.2799
432.4928
431.4819
430.0996
428.1686
425.117
419.6026
448.6868
436.7095
435.3407
435.4344
435.8145
436.2449
436.6776
437.0985
437.5021
437.8845
438.2397
438.5694
438.8748
439.157
439.4173
439.6565
439.8751
440.0741
440.2551
440.4197
440.5682
440.701
440.8194
440.9247
441.0175
441.0977
441.1658
441.2224
441.2679
441.3024
441.3257
441.3378
441.3401
441.3283
441.303
441.2644
441.212
441.1452
441.0633
440.9655
440.8507
440.7175
440.5646
440.3909
440.1922
439.9668
439.712
439.4233
439.0943
438.7181
438.2966
437.8243
437.2772
436.6262
435.8281
434.8188
433.4826
431.461
428.0262
420.941
449.5923
437.4562
435.9943
436.127
436.6099
437.1573
437.7015
438.2235
438.7168
439.1855
439.6261
440.0354
440.4159
440.7646
441.0845
441.3787
441.6489
441.8966
442.1232
442.3299
442.5179
442.6881
442.8417
442.9794
443.1018
443.2095
443.3027
443.3819
443.4471
443.4983
443.5355
443.5594
443.5694
443.5631
443.541
443.5033
443.4494
443.3787
443.2904
443.1835
443.057
442.9095
442.7397
442.5458
442.3272
442.0809
441.8042
441.494
441.1452
440.7544
440.3135
439.8077
439.2147
438.5274
437.7097
436.6986
435.34
433.3288
429.8106
421.8632
450.5933
438.1932
436.6134
436.7405
437.2776
437.8982
438.516
439.1061
439.6626
440.1849
440.676
441.1346
441.564
441.9614
442.3278
442.6652
442.9759
443.2621
443.525
443.7657
443.9853
444.1848
444.3652
444.5272
444.6717
444.799
444.9094
445.0033
445.0807
445.1415
445.1864
445.2153
445.227
445.2205
445.1962
445.1547
445.0952
445.0169
444.9189
444.8002
444.6596
444.4958
444.3071
444.0918
443.849
443.5757
443.2695
442.9279
442.5484
442.1229
441.6311
441.0706
440.4471
439.7324
438.8846
437.8443
436.4823
434.4941
430.9854
422.5712
451.6481
438.9224
437.2007
437.2822
437.8306
438.4879
439.1502
439.7866
440.3885
440.9542
441.4839
441.9786
442.4409
442.8726
443.2736
443.6443
443.9862
444.3015
444.5916
444.8575
445.1001
445.3205
445.5196
445.6983
445.8571
445.9967
446.1175
446.2198
446.3037
446.3692
446.417
446.4464
446.4564
446.4476
446.4199
446.3737
446.3081
446.2225
446.1158
445.9869
445.8344
445.6568
445.4523
445.2191
444.9549
444.6573
444.3235
443.951
443.5365
443.0742
442.5559
441.971
441.3108
440.5577
439.6788
438.6139
437.2407
435.2667
431.7959
423.1154
452.7214
439.6365
437.7646
437.776
438.3053
438.9724
439.6577
440.3224
440.9542
441.5496
442.1081
442.6305
443.1181
443.573
443.9971
444.3912
444.756
445.0925
445.402
445.6854
445.9439
446.1783
446.3896
446.5786
446.746
446.8924
447.0186
447.1247
447.2113
447.2783
447.326
447.354
447.3622
447.3509
447.3204
447.2704
447.2004
447.1095
446.9967
446.8608
446.7001
446.5129
446.2971
446.0505
445.7705
445.4545
445.0997
444.7032
444.2606
443.7675
443.218
442.6045
441.9161
441.135
440.2305
439.146
437.7644
435.801
432.3622
423.5074
453.8037
440.3388
438.3085
438.2318
438.7191
439.3757
440.0672
440.7458
441.3948
442.0089
442.5868
443.1288
443.6358
444.109
444.5497
444.9595
445.3396
445.6905
446.0131
446.3084
446.5772
446.8204
447.039
447.2339
447.4059
447.5556
447.6839
447.7913
447.8781
447.9447
447.9912
448.0176
448.024
448.0107
447.978
447.9255
447.8526
447.7586
447.6422
447.5021
447.3365
447.1434
446.9204
446.665
446.3744
446.0457
445.6758
445.2611
444.7979
444.2821
443.7086
443.0706
442.3578
441.5534
440.6283
439.5279
438.1392
436.1851
432.7827
423.8146
454.8933
441.0339
438.8363
438.6608
439.0906
439.7202
440.4027
441.0829
441.7393
442.3638
442.9538
443.5087
444.0289
444.5152
444.9684
445.3895
445.7797
446.14
446.471
446.7735
447.0485
447.2968
447.5194
447.7172
447.891
448.0418
448.1704
448.2774
448.3633
448.4287
448.4738
448.4987
448.5036
448.489
448.4549
448.4011
448.3269
448.2314
448.1135
447.9716
447.8038
447.6079
447.3811
447.1207
446.8235
446.4862
446.1051
445.6766
445.197
444.6626
444.0693
443.4111
442.6787
441.8563
440.9157
439.8043
438.4117
436.4668
433.0966
424.0648
455.8799
441.7193
439.3509
439.0701
439.4307
440.0199
440.6819
441.3538
442.0092
442.6373
443.2335
443.7962
444.3251
444.8202
445.2822
445.7115
446.1089
446.4753
446.8117
447.1187
447.3972
447.6483
447.8727
448.0716
448.2458
448.3963
448.5241
448.6298
448.7143
448.7782
448.8217
448.8453
448.8491
448.8337
448.7989
448.7445
448.67
448.5744
448.4565
448.3145
448.1465
447.9499
447.7219
447.4593
447.1584
446.8152
446.4258
445.9864
445.4934
444.9438
444.334
443.6594
442.9115
442.0752
441.1232
440.0039
438.6094
436.6743
433.3389
424.2922
457.0648
442.4014
439.853
439.4632
439.7478
440.2881
440.9208
441.5763
442.2238
442.8494
443.4465
444.0124
444.5458
445.0463
445.514
445.9491
446.3521
446.7235
447.064
447.3744
447.6555
447.9081
448.1333
448.3321
448.5057
448.6551
448.7814
448.8854
448.9681
449.0301
449.072
449.0942
449.0971
449.081
449.046
448.9916
448.9175
448.8225
448.7055
448.5646
448.3976
448.202
447.9746
447.7115
447.4088
447.0619
446.6661
446.2171
445.7117
445.1477
444.5234
443.8353
443.0756
442.2297
441.2706
440.1473
438.7539
436.829
433.5255
424.4986
458.3793
443.0809
440.3451
439.8463
440.0513
440.5354
441.1309
441.7627
442.3958
443.0132
443.6065
444.1713
444.7054
445.2081
445.6792
446.1189
446.5273
446.9041
447.2493
447.5635
447.8472
448.1013
448.3271
448.5256
448.6982
448.8461
448.9704
449.0724
449.1529
449.2128
449.2529
449.2736
449.2754
449.2586
449.2233
449.1691
449.0954
449.0014
448.8857
448.7464
448.5813
448.3875
448.1617
447.8997
447.5968
447.2476
446.8463
446.3879
445.8689
445.2897
444.6519
443.9535
443.1865
442.3352
441.3725
440.2478
438.8566
436.9419
433.6698
424.695
459.622
443.78
440.837
440.2202
440.3398
440.7618
441.3139
441.9164
442.53
443.1346
443.7193
444.2783
444.8083
445.3075
445.7795
446.2266
446.6453
447.0331
447.3879
447.709
447.9966
448.2516
448.4765
448.6738
448.8448
448.9906
449.1126
449.2119
449.2898
449.3473
449.3852
449.4041
449.4045
449.3868
449.351
449.2967
449.2236
449.1305
449.0161
448.8786
448.7157
448.5243
448.3009
448.041
447.7395
447.3904
446.9845
446.5136
445.977
445.3787
444.7276
444.0245
443.2558
442.4032
441.4401
440.3165
438.9293
437.0246
433.7804
424.8778
460.9561
444.4835
441.3256
440.5921
440.6284
440.9879
441.4938
442.0626
442.6516
443.2377
443.8077
444.3536
444.8731
445.3697
445.8452
446.2977
446.7245
447.1222
447.4866
447.8152
448.108
448.3672
448.5953
448.7937
448.9636
449.1064
449.2243
449.3197
449.3943
449.4487
449.484
449.5007
449.4994
449.4804
449.4437
449.3892
449.3163
449.2239
449.1108
448.975
448.8142
448.6253
448.4049
448.1477
447.8453
447.4896
447.0749
446.5958
446.0492
445.439
444.7757
444.0659
443.297
442.445
441.4832
440.362
438.979
437.0834
433.8636
425.0452
462.2975
445.1925
441.8132
440.9658
440.9198
441.2154
441.6725
442.2047
442.7662
443.3315
443.8852
444.4179
444.9291
445.4232
445.9006
446.3574
446.7883
447.1886
447.5563
447.89
448.1889
448.4532
448.6838
448.8829
449.0525
449.1947
449.3113
449.4044
449.4756
449.5269
449.5593
449.5736
449.5703
449.5498
449.5121
449.457
449.384
449.2921
449.1798
449.0455
448.8867
448.6995
448.4786
448.2189
447.9138
447.5559
447.137
446.6513
446.0973
445.4793
444.8062
444.088
443.3176
442.4684
441.5094
440.3913
439.0127
437.125
433.9248
425.1859
463.6347
445.9005
442.3068
441.3438
441.2156
441.4473
441.8547
442.3489
442.8817
443.4251
443.9623
444.4823
444.986
445.4781
445.9553
446.4118
446.8426
447.2443
447.6144
447.9508
448.2521
448.5184
448.7509
448.9511
449.1209
449.2625
449.378
449.4696
449.5392
449.5883
449.6183
449.6302
449.6248
449.6027
449.5638
449.5078
449.4344
449.3423
449.23
449.0954
448.9357
448.7471
448.5249
448.2635
447.9562
447.5959
447.1752
446.6875
446.1294
445.5036
444.8218
444.0977
443.3263
442.4797
441.5233
440.4082
439.0337
437.1525
433.9672
425.2943
464.9419
446.6188
442.8074
441.7272
441.5175
441.6862
442.0444
442.5006
443.0046
443.5267
444.0484
444.558
445.0541
445.5397
446.0122
446.4663
446.8969
447.2994
447.6699
448.0061
448.3076
448.5743
448.8071
449.0072
449.1767
449.3175
449.432
449.5222
449.5901
449.6373
449.6653
449.675
449.6677
449.6438
449.6033
449.5459
449.4711
449.3778
449.2644
449.1287
448.9678
448.7778
448.554
448.2906
447.9814
447.6188
447.1957
446.7056
446.1453
445.5171
444.8308
444.1004
443.3274
442.4844
441.5314
440.42
439.0498
437.1747
434.0009
425.3713
466.2185
447.3434
443.3128
442.1158
441.8264
441.9342
442.2447
442.6641
443.1402
443.6417
444.1486
444.6479
445.1364
445.6158
446.0834
446.5336
446.9609
447.3606
447.7291
448.0641
448.3644
448.6296
448.8606
449.059
449.2267
449.3658
449.4785
449.5668
449.6327
449.6778
449.7036
449.7111
449.7017
449.6761
449.6339
449.5747
449.4981
449.4033
449.2884
449.1513
448.9889
448.7973
448.5717
448.3065
447.9952
447.6308
447.2059
446.7141
446.1517
445.5206
444.8305
444.0963
443.3229
442.4829
441.5328
440.4247
439.0583
437.1881
434.0219
425.4145
467.4596
448.0681
443.822
442.5098
442.1431
442.1926
442.4579
442.8423
443.2921
443.7745
444.268
444.7585
445.2398
445.7119
446.1728
446.6174
447.0398
447.4352
447.7998
448.1309
448.4273
448.6887
448.9162
449.1112
449.2756
449.4116
449.5213
449.6068
449.67
449.7125
449.7356
449.7408
449.729
449.7014
449.6574
449.5965
449.5183
449.4218
449.3054
449.1667
449.0027
448.8095
448.5821
448.315
448.0018
447.6353
447.2086
446.7153
446.1516
445.519
444.8268
444.0902
443.3165
442.4788
441.5316
440.4268
439.0645
437.1995
434.0409
425.4454
468.6611
448.7889
444.3341
442.9093
442.4681
442.4624
442.6852
443.0372
443.4628
443.9278
444.4094
444.8925
445.3673
445.8318
446.2853
446.7226
447.1381
447.5269
447.8849
448.2096
448.4998
448.7553
448.977
449.1667
449.3261
449.4574
449.5629
449.6444
449.7039
449.7431
449.7632
449.7655
449.7513
449.7215
449.6757
449.6131
449.5334
449.4353
449.3174
449.1773
449.0117
448.8168
448.5877
448.3187
448.0035
447.6352
447.2068
446.712
446.1471
445.5134
444.82
444.0823
443.309
442.4734
441.5291
440.4278
439.0695
437.2096
434.0583
425.4715
469.8222
449.504
444.8481
443.3136
442.8011
442.7437
442.9273
443.2496
443.6531
444.1022
444.573
445.0492
445.5193
445.9775
446.4221
446.8503
447.2566
447.6362
447.9852
448.301
448.5826
448.83
449.044
449.2264
449.3791
449.5044
449.6043
449.6808
449.7359
449.771
449.7875
449.7867
449.7698
449.7376
449.6899
449.6258
449.5445
449.4451
449.3258
449.1842
449.0172
448.8206
448.5897
448.3189
448.0018
447.6317
447.2016
446.7054
446.1395
445.5052
444.8113
444.0731
443.3002
442.4666
441.5255
440.4278
439.0736
437.219
434.0756
425.5019
470.9416
450.2135
445.3637
443.7228
443.1422
443.0365
443.184
443.4791
443.8623
444.2965
444.757
445.2263
445.6921
446.1454
446.5815
446.9988
447.3938
447.7619
448.0995
448.4042
448.6751
448.9122
449.1167
449.2903
449.4349
449.5528
449.6461
449.7168
449.7665
449.797
449.8095
449.8052
449.7852
449.7505
449.701
449.6352
449.5525
449.4517
449.3311
449.1882
449.0198
448.8217
448.5892
448.3166
447.9976
447.6257
447.1941
446.6967
446.1299
445.4951
444.8012
444.0634
443.2915
442.46
441.5221
440.428
439.0781
437.2289
434.094
425.538
472.0153
450.9228
445.8807
444.1365
443.4911
443.3403
443.4547
443.7247
444.089
444.5091
444.959
445.4204
445.8801
446.3285
446.7584
447.1649
447.5466
447.9012
448.2255
448.5172
448.7755
449.0007
449.1942
449.3576
449.493
449.6026
449.6884
449.7524
449.7963
449.8217
449.8298
449.8217
449.7984
449.7609
449.7092
449.6419
449.5577
449.4556
449.3338
449.1897
449.02
448.8206
448.5866
448.3124
447.9918
447.6183
447.1852
446.6867
446.1192
445.4843
444.7907
444.0537
443.2831
442.4538
441.519
440.4284
439.0827
437.239
434.1128
425.5782
473.0433
451.6306
446.3998
444.5551
443.8479
443.6548
443.7385
443.9853
444.3317
444.7379
445.1766
445.6286
446.0801
446.5208
446.9429
447.3411
447.7114
448.0512
448.36
448.637
448.8814
449.0936
449.2749
449.4271
449.5524
449.6529
449.7306
449.7875
449.8252
449.8452
449.8486
449.8365
449.8099
449.7695
449.7154
449.6463
449.5607
449.4573
449.3344
449.1891
449.0183
448.8176
448.5822
448.3066
447.9846
447.6097
447.1754
446.676
446.108
445.4731
444.7801
444.0443
443.2754
442.4486
441.5168
440.4296
439.0881
437.2499
434.133
425.6212
474.0268
452.334
446.9207
444.9788
444.2123
443.9794
444.0344
444.2595
444.5889
444.9812
445.4081
445.8495
446.2908
446.7211
447.1326
447.5196
447.8779
448.2052
448.5
448.7616
448.9907
449.1888
449.3572
449.4977
449.6123
449.7031
449.7723
449.8217
449.853
449.8674
449.8661
449.85
449.8199
449.7766
449.7201
449.6491
449.5619
449.4573
449.3332
449.1868
449.0149
448.8131
448.5765
448.2997
447.9765
447.6004
447.1652
446.6651
446.0969
445.4622
444.7701
444.0358
443.2689
442.4445
441.5156
440.4318
439.0943
437.2617
434.1539
425.6657
474.9595
453.032
447.4437
445.4072
444.5838
444.3133
444.3415
444.5463
444.8594
445.2378
445.6521
446.0817
446.5112
446.9294
447.3281
447.7015
448.0458
448.3585
448.6385
448.8856
449.1006
449.2848
449.4399
449.5679
449.6714
449.7524
449.8129
449.8548
449.8796
449.8884
449.8824
449.8623
449.8288
449.7826
449.7236
449.6506
449.5619
449.456
449.3307
449.1832
449.0102
448.8073
448.5697
448.2918
447.9675
447.5906
447.1546
446.6541
446.0859
445.4518
444.7608
444.0282
443.2636
442.4417
441.5155
440.4349
439.1014
437.2744
434.1765
425.7136
475.9315
453.7207
447.966
445.8387
444.9614
444.6556
444.6586
444.8441
445.1413
445.5056
445.9069
446.3236
446.7399
447.1444
447.5287
447.8869
448.2155
448.5122
448.7762
449.0078
449.2078
449.3779
449.52
449.6362
449.7288
449.7999
449.8518
449.8862
449.9046
449.908
449.8974
449.8735
449.8367
449.7876
449.7262
449.6515
449.5613
449.4539
449.3274
449.1788
449.0048
448.8009
448.5622
448.2833
447.9582
447.5805
447.144
446.6433
446.0753
445.442
444.7524
444.0218
443.2595
442.4402
441.5167
440.4392
439.1095
437.288
434.2002
425.7666
476.7858
454.4092
448.4872
446.2698
445.3438
445.0051
444.9844
445.1515
445.433
445.7831
446.1706
446.5734
446.9752
447.3645
447.7328
448.0744
448.3859
448.6654
448.9124
449.1276
449.3121
449.4678
449.5966
449.7009
449.7829
449.8447
449.8883
449.9155
449.9278
449.9261
449.9112
449.8837
449.8439
449.7922
449.7284
449.6517
449.5601
449.4515
449.3238
449.1741
448.999
448.7941
448.5544
448.2746
447.9486
447.5703
447.1335
446.6328
446.0652
445.4328
444.7448
444.0163
443.2566
442.4398
441.5188
440.4442
439.1183
437.3023
434.2255
425.8275
477.6057
455.0918
449.0073
446.7017
445.7299
445.3603
445.3172
445.4664
445.7325
446.068
446.4409
446.8286
447.2146
447.5873
447.9382
448.2618
448.555
448.8163
449.0456
449.2438
449.4125
449.5536
449.6693
449.7618
449.8334
449.8862
449.922
449.9425
449.949
449.9425
449.9237
449.8928
449.8503
449.7961
449.7303
449.6518
449.5587
449.4488
449.32
449.1693
448.9932
448.7872
448.5467
448.266
447.9393
447.5605
447.1233
446.6227
446.0556
445.4243
444.7381
444.0119
443.2549
442.4406
441.5221
440.4503
439.128
437.3173
434.2515
425.8958
478.3947
455.7665
449.5276
447.1333
446.1174
445.7195
445.6552
445.7871
446.0376
446.358
446.7154
447.0868
447.4556
447.8102
448.1423
448.4468
448.7208
448.9631
449.1742
449.3553
449.5081
449.6347
449.7375
449.8186
449.8803
449.9244
449.9529
449.9671
449.9683
449.9573
449.9348
449.901
449.856
449.7997
449.7319
449.6517
449.5572
449.4462
449.3164
449.1648
448.9877
448.7809
448.5395
448.2581
447.9308
447.5515
447.1142
446.6137
446.0472
445.417
444.7325
444.0088
443.2545
442.4427
441.5265
440.4573
439.1382
437.3326
434.2777
425.9699
479.1582
456.4325
450.0468
447.5655
446.5057
446.0813
445.9966
446.1114
446.346
446.6505
446.9914
447.3452
447.6955
448.0306
448.3428
448.6272
448.8813
449.1044
449.2971
449.4611
449.5982
449.7107
449.801
449.8712
449.9234
449.9595
449.981
449.9894
449.9856
449.9706
449.9448
449.9083
449.861
449.8028
449.7333
449.6516
449.5558
449.4438
449.3131
449.1607
448.9828
448.7753
448.5332
448.2511
447.9232
447.5436
447.1062
446.6059
446.04
445.411
444.7283
444.0069
443.2552
442.4459
441.5317
440.4649
439.1488
437.3477
434.3027
426.0447
479.8974
457.0873
450.5631
447.9963
446.895
446.4447
446.34
446.4376
446.6557
446.9433
447.2663
447.6013
447.9317
448.2462
448.5375
448.8011
449.035
449.2387
449.4133
449.5605
449.6824
449.7814
449.8598
449.9197
449.963
449.9915
450.0067
450.0096
450.0014
449.9826
449.9537
449.9147
449.8655
449.8057
449.7347
449.6516
449.5547
449.4417
449.3102
449.1571
448.9787
448.7705
448.5278
448.2453
447.9171
447.5373
447.0998
446.5998
446.0345
445.4066
444.7256
444.0064
443.2573
442.4501
441.5378
440.4732
439.1597
437.3624
434.326
426.1154
480.6106
457.7314
451.0764
448.4248
447.2847
446.809
446.684
446.7636
446.9643
447.2339
447.5379
447.8526
448.162
448.4549
448.7246
448.9671
449.1806
449.3652
449.5221
449.6531
449.7605
449.8467
449.9139
449.9641
449.9992
450.0207
450.03
450.0281
450.0157
449.9935
449.9617
449.9205
449.8695
449.8083
449.7361
449.6518
449.5539
449.4401
449.308
449.1543
448.9753
448.7668
448.5237
448.2408
447.9123
447.5322
447.0949
446.5953
446.0308
445.404
444.7245
444.0073
443.2603
442.4551
441.5446
440.4819
439.1707
437.3766
434.3469
426.1763
481.3003
458.3631
451.5853
448.8509
447.673
447.1732
447.0272
447.0879
447.2699
447.5202
447.8038
448.0972
448.3845
448.6551
448.9028
449.124
449.3175
449.4835
449.6233
449.7389
449.8327
449.9068
449.9635
450.0048
450.0323
450.0474
450.0514
450.0449
450.0288
450.0035
449.9691
449.9258
449.8732
449.8107
449.7374
449.6522
449.5534
449.439
449.3063
449.1521
448.9728
448.7638
448.5204
448.2372
447.9087
447.5287
447.0916
446.5923
446.0286
445.4027
444.7247
444.0096
443.2646
442.4612
441.5523
440.4914
439.1822
437.3906
434.3659
426.2246
481.9587
458.9802
452.088
449.2738
448.059
447.5352
447.3681
447.4087
447.5707
447.8004
448.0624
448.3334
448.5978
448.8458
449.0714
449.2716
449.4454
449.5934
449.717
449.8181
449.899
449.962
450.0091
450.0421
450.0626
450.0719
450.0709
450.0604
450.0409
450.0127
449.976
449.9307
449.8766
449.813
449.7388
449.6528
449.5533
449.4383
449.3051
449.1505
448.9708
448.7617
448.5181
448.235
447.9065
447.5267
447.0898
446.5909
446.0277
445.403
444.7266
444.0136
443.2705
442.4687
441.5613
440.5019
439.1945
437.4049
434.3835
426.2594
482.5923
459.5828
452.5849
449.6923
448.4409
447.8935
447.7051
447.7248
447.8656
448.0732
448.3124
448.5601
448.8011
449.0262
449.2298
449.4093
449.5642
449.695
449.8032
449.8908
449.9599
450.0126
450.0508
450.0763
450.0904
450.0943
450.0889
450.0747
450.0521
450.0214
449.9825
449.9354
449.8798
449.8152
449.7402
449.6536
449.5535
449.438
449.3044
449.1496
448.9697
448.7604
448.5169
448.2337
447.9054
447.5259
447.0895
446.5913
446.0289
445.4051
444.7301
444.019
443.2779
442.4774
441.5714
440.5134
439.2076
437.4198
434.4004
426.2837
483.1922
460.169
453.0733
450.1066
448.8173
448.2461
448.0363
448.0346
448.1532
448.3378
448.5532
448.7768
448.9941
449.1962
449.3781
449.5376
449.6742
449.7887
449.8826
449.9576
450.0157
450.059
450.0891
450.1077
450.116
450.115
450.1055
450.0879
450.0625
450.0295
449.9887
449.94
449.883
449.8174
449.7418
449.6546
449.5541
449.4382
449.3044
449.1493
448.9693
448.76
448.5165
448.2336
447.9055
447.5265
447.0906
446.593
446.0314
445.4088
444.7353
444.026
443.2864
442.4872
441.5825
440.526
439.2216
437.4353
434.4174
426.3017
483.7319
460.7406
453.555
450.5174
449.1878
448.5918
448.36
448.3359
448.4313
448.5918
448.7828
448.9821
449.1757
449.3552
449.5161
449.6563
449.7757
449.8749
449.9554
450.0188
450.067
450.1016
450.1244
450.1367
450.1396
450.1342
450.1209
450.1002
450.0723
450.0371
449.9946
449.9444
449.8863
449.8197
449.7435
449.6559
449.555
449.4389
449.3049
449.1497
448.9697
448.7605
448.5172
448.2345
447.9068
447.5282
447.0928
446.5959
446.0352
445.4136
444.7416
444.0341
443.2961
442.4981
441.5947
440.5394
439.2364
437.4518
434.4354
426.3187
484.3133
461.2988
454.0294
450.9222
449.5507
448.9291
448.6748
448.6275
448.6988
448.8347
449.001
449.176
449.3462
449.5037
449.6444
449.7663
449.8694
449.9544
450.0225
450.0752
450.1142
450.141
450.157
450.1635
450.1616
450.1521
450.1354
450.1118
450.0815
450.0444
450.0003
449.9489
449.8897
449.8222
449.7454
449.6574
449.5563
449.44
449.3059
449.1507
448.9708
448.7618
448.5187
448.2363
447.9091
447.531
447.0963
446.6001
446.0402
445.4197
444.7491
444.0433
443.3068
442.51
441.6077
440.5538
439.2523
437.4693
434.4546
426.3366
484.9477
461.8413
454.4947
451.3196
449.9049
449.2569
448.9795
448.9083
448.9551
449.0661
449.2076
449.3585
449.5059
449.6423
449.7636
449.8683
449.9561
450.0277
450.0843
450.1272
450.1578
450.1774
450.1873
450.1886
450.1822
450.1689
450.149
450.1228
450.0903
450.0514
450.0059
449.9532
449.8931
449.8248
449.7475
449.6592
449.5579
449.4415
449.3074
449.1524
448.9726
448.7638
448.5211
448.2392
447.9125
447.535
447.101
446.6056
446.0466
445.4271
444.7578
444.0535
443.3184
442.5227
441.6217
440.569
439.269
437.4877
434.4751
426.3582
485.5274
462.3746
454.9518
451.709
450.2497
449.5744
449.2734
449.1778
449.1997
449.2856
449.4026
449.5299
449.6553
449.7713
449.8744
449.9628
450.0364
450.0956
450.1416
450.1753
450.1981
450.2112
450.2154
450.212
450.2015
450.1847
450.1619
450.1332
450.0987
450.0581
450.0112
449.9575
449.8965
449.8276
449.7498
449.6612
449.5598
449.4433
449.3093
449.1545
448.975
448.7666
448.5243
448.2429
447.9168
447.54
447.1067
446.6121
446.0539
445.4354
444.7674
444.0646
443.3308
442.5362
441.6363
440.5849
439.2863
437.5069
434.4967
426.3829
486.1103
462.896
455.399
452.0892
450.5842
449.8809
449.5557
449.4354
449.4322
449.4932
449.5861
449.6906
449.7948
449.8916
449.9774
450.0506
450.1109
450.1586
450.1947
450.22
450.2357
450.2426
450.2418
450.2339
450.2197
450.1996
450.1741
450.1431
450.1067
450.0646
450.0164
449.9617
449.8999
449.8304
449.7522
449.6634
449.5619
449.4455
449.3116
449.1571
448.978
448.77
448.5282
448.2474
447.922
447.5459
447.1135
446.6196
446.0623
445.4448
444.778
444.0767
443.3441
442.5504
441.6516
440.6015
439.3044
437.5268
434.5191
426.4093
486.6839
463.4044
455.8352
452.4591
450.9077
450.1757
449.8261
449.6809
449.6527
449.6893
449.7586
449.8412
449.9252
450.0038
450.0735
450.1324
450.1803
450.2173
450.2442
450.2617
450.2707
450.2721
450.2664
450.2545
450.2368
450.2138
450.1857
450.1526
450.1144
450.0708
450.0215
449.9658
449.9033
449.8334
449.7548
449.6658
449.5643
449.448
449.3144
449.1601
448.9814
448.7739
448.5327
448.2526
447.9279
447.5527
447.121
446.628
446.0715
445.455
444.7893
444.0892
443.3577
442.565
441.6673
440.6183
439.3227
437.5468
434.5416
426.4361
487.2407
463.8975
456.2591
452.8182
451.2198
450.4587
450.0845
449.9143
449.8614
449.8741
449.9208
449.9824
450.0473
450.1088
450.1632
450.2088
450.2451
450.2721
450.2905
450.3007
450.3035
450.2996
450.2895
450.2739
450.253
450.2272
450.1968
450.1617
450.1219
450.0769
450.0264
449.9699
449.9068
449.8364
449.7576
449.6684
449.5669
449.4508
449.3174
449.1636
448.9854
448.7784
448.5379
448.2584
447.9345
447.5601
447.1293
446.6371
446.0815
445.4659
444.8013
444.1025
443.372
442.5802
441.6835
440.6357
439.3414
437.5673
434.5645
426.4627
487.7291
464.3732
456.6693
453.1659
451.5202
450.7295
450.3307
450.1359
450.0589
450.0484
450.0734
450.115
450.1618
450.2072
450.2473
450.2804
450.3059
450.3236
450.3339
450.3373
450.3343
450.3254
450.3112
450.292
450.2682
450.2399
450.2073
450.1704
450.129
450.0828
450.0313
449.974
449.9103
449.8395
449.7605
449.6712
449.5697
449.4538
449.3208
449.1674
448.9897
448.7834
448.5435
448.2649
447.9418
447.5682
447.1383
446.647
446.0922
445.4775
444.8139
444.1163
443.3868
442.5959
441.7001
440.6535
439.3606
437.5882
434.5878
426.4892
488.271
464.8329
457.0661
453.5025
451.8105
450.9877
450.5642
450.3459
450.2456
450.2129
450.2172
450.2398
450.2696
450.2997
450.3264
450.3479
450.3631
450.372
450.3747
450.3717
450.3632
450.3497
450.3316
450.3091
450.2825
450.2519
450.2173
450.1787
450.1359
450.0885
450.036
449.978
449.9138
449.8427
449.7635
449.6742
449.5728
449.4571
449.3245
449.1716
448.9945
448.7888
448.5497
448.2718
447.9495
447.5769
447.1479
446.6574
446.1035
445.4897
444.8271
444.1305
443.402
442.6119
441.7171
440.6716
439.3801
437.6095
434.6116
426.5155
488.8193
465.2759
457.4494
453.8283
452.0901
451.2339
450.7857
450.5448
450.4221
450.3682
450.3528
450.3575
450.3711
450.387
450.4011
450.4115
450.4171
450.4177
450.4133
450.4041
450.3904
450.3725
450.3506
450.3251
450.2959
450.2631
450.2267
450.1866
450.1424
450.094
450.0407
449.982
449.9174
449.846
449.7667
449.6773
449.5761
449.4607
449.3285
449.1761
448.9996
448.7946
448.5562
448.2792
447.9579
447.5862
447.1581
446.6685
446.1155
445.5025
444.8408
444.1452
443.4177
442.6284
441.7345
440.6901
439.3999
437.6311
434.6355
426.5421
489.3274
465.6994
457.8189
454.1432
452.3591
451.4688
450.9961
450.7333
450.5893
450.5151
450.4811
450.4688
450.4672
450.4695
450.4717
450.4717
450.4682
450.4609
450.4497
450.4346
450.416
450.3939
450.3685
450.3401
450.3085
450.2737
450.2356
450.1941
450.1488
450.0993
450.0452
449.986
449.921
449.8494
449.7699
449.6806
449.5795
449.4644
449.3327
449.1808
449.005
448.8007
448.5632
448.2871
447.9667
447.5959
447.1688
446.6801
446.1279
445.5157
444.8548
444.1602
443.4335
442.645
441.752
440.7087
439.4199
437.6528
434.6596
426.5694
489.78
466.1015
458.1749
454.4477
452.618
451.693
451.1961
450.9122
450.7478
450.6544
450.6027
450.5743
450.5583
450.5478
450.5387
450.5288
450.5167
450.5019
450.4841
450.4635
450.44
450.414
450.3853
450.3541
450.3202
450.2836
450.244
450.2011
450.1548
450.1044
450.0497
449.99
449.9246
449.8528
449.7732
449.6839
449.583
449.4684
449.3371
449.1858
449.0107
448.8072
448.5705
448.2953
447.9758
447.606
447.1798
446.6921
446.1406
445.5292
444.8692
444.1755
443.4496
442.6619
441.7698
440.7275
439.4401
437.6747
434.684
426.5975
490.1787
466.483
458.5177
454.7419
452.867
451.9071
451.3863
451.0822
450.8983
450.7867
450.7182
450.6746
450.645
450.6223
450.6024
450.583
450.5626
450.5406
450.5166
450.4907
450.4627
450.4328
450.401
450.3671
450.3311
450.2928
450.2518
450.2078
450.1605
450.1094
450.0541
449.9939
449.9282
449.8563
449.7765
449.6873
449.5867
449.4725
449.3417
449.1911
449.0166
448.8139
448.5781
448.3038
447.9853
447.6165
447.1913
446.7044
446.1538
445.5431
444.8839
444.191
443.466
442.6789
441.7877
440.7465
439.4604
437.6969
434.7087
426.626
490.5449
466.8463
458.8479
455.0262
453.1068
452.1124
451.5674
451.2439
451.0416
450.9127
450.8282
450.7702
450.7275
450.6932
450.6631
450.6346
450.6063
450.5773
450.5474
450.5163
450.484
450.4505
450.4156
450.3793
450.3413
450.3013
450.2591
450.2141
450.166
450.1142
450.0583
449.9978
449.9319
449.8598
449.78
449.6909
449.5906
449.4767
449.3465
449.1965
449.0228
448.8208
448.5859
448.3126
447.9951
447.6273
447.203
446.7169
446.1671
445.5571
444.8987
444.2066
443.4823
442.696
441.8057
440.7656
439.4809
437.7191
434.7333
426.6547
490.8992
467.1937
459.166
455.3013
453.3389
452.3103
451.7402
451.3974
451.178
451.0328
450.9332
450.8614
450.8063
450.761
450.721
450.6837
450.6478
450.6121
450.5764
450.5404
450.504
450.4669
450.4292
450.3905
450.3507
450.3092
450.2658
450.2199
450.1711
450.1188
450.0625
450.0016
449.9356
449.8633
449.7836
449.6946
449.5945
449.4811
449.3515
449.2021
449.0291
448.828
448.594
448.3216
448.0052
447.6383
447.215
446.7298
446.1807
445.5714
444.9137
444.2225
443.4989
442.7134
441.8239
440.7849
439.5015
437.7413
434.7579
426.6834
491.2487
467.527
459.4725
455.5674
453.5634
452.5012
451.9056
451.544
451.3083
451.1476
451.0336
450.9487
450.8817
450.8257
450.7762
450.7305
450.6872
450.6451
450.6039
450.5631
450.5226
450.4823
450.4418
450.401
450.3594
450.3165
450.272
450.2254
450.1759
450.1232
450.0666
450.0054
449.9392
449.867
449.7872
449.6984
449.5987
449.4857
449.3566
449.2079
449.0357
448.8354
448.6023
448.3309
448.0155
447.6496
447.2272
446.7428
446.1944
445.5858
444.9287
444.2382
443.5154
442.7306
441.842
440.804
439.5219
437.7635
434.7824
426.7116
491.617
467.8472
459.7678
455.8254
453.7815
452.6858
452.0646
451.6845
451.4332
451.2576
451.1299
451.0324
450.954
450.8876
450.8289
450.7752
450.7246
450.6763
450.6297
450.5843
450.54
450.4965
450.4535
450.4106
450.3673
450.3232
450.2778
450.2304
450.1805
450.1274
450.0705
450.0092
449.9429
449.8706
449.791
449.7024
449.603
449.4904
449.3619
449.2138
449.0423
448.843
448.6108
448.3404
448.026
447.6611
447.2396
446.756
446.2083
445.6003
444.9439
444.2541
443.532
442.7479
441.8602
440.8232
439.5425
437.7857
434.807
426.7394
491.9776
468.1538
460.0527
456.0757
453.9933
452.8646
452.218
451.8194
451.5529
451.3632
451.2223
451.1127
451.0232
450.9469
450.8793
450.8176
450.7601
450.7058
450.6539
450.6042
450.5562
450.5097
450.4642
450.4193
450.3746
450.3294
450.283
450.235
450.1847
450.1313
450.0742