# Region type : patch plate
# Faces        : 200
# Area         : 6.7000000e-01
# Scale factor : 1.0000000e+00
# Time         	areaAverage(T)
3100           	5.8293478e+02
3200           	5.8289763e+02
3300           	5.8324372e+02
