# Region type : patch riser
# Faces        : 200
# Area         : 6.7000000e-01
# Scale factor : 1.0000000e+00
# Time         	areaAverage(T)
3700           	3.8669677e+02
3800           	3.8674286e+02
3900           	3.8676353e+02
