/*--------------------------------*- C++ -*----------------------------------*\
| =========                 |                                                 |
| \\      /  F ield         | OpenFOAM: The Open Source CFD Toolbox           |
|  \\    /   O peration     | Version:  2312                                  |
|   \\  /    A nd           | Website:  www.openfoam.com                      |
|    \\/     M anipulation  |                                                 |
\*---------------------------------------------------------------------------*/
FoamFile
{
    version     2.0;
    format      ascii;
    arch        "LSB;label=32;scalar=64";
    class       volScalarField;
    location    "3300";
    object      ILambda_3_0;
}
// * * * * * * * * * * * * * * * * * * * * * * * * * * * * * * * * * * * * * //

dimensions      [1 0 -3 0 0 0 0];

internalField   nonuniform List<scalar> 
12000
(
1699.533
1599.528
1505.131
1417.849
1337.751
1264.505
1197.687
1136.861
1081.606
1031.525
986.244
945.4088
908.6819
875.7419
846.2835
820.0194
796.6799
776.0128
757.7823
741.768
727.7649
715.582
705.0414
695.9777
688.2376
681.6792
676.1717
671.595
667.8385
664.8014
662.3913
660.5247
659.1262
658.1287
657.4682
657.0886
656.9395
656.9733
657.1408
657.3957
657.7039
658.0419
658.3819
658.6834
658.9197
659.0884
659.1896
659.2014
659.0724
658.7853
658.3447
657.7177
656.8446
655.705
654.3005
652.5736
650.4709
647.6091
644.8942
636.7093
1761.952
1784.489
1797.23
1800.295
1794.614
1781.276
1761.345
1735.81
1705.578
1671.476
1634.25
1594.578
1553.068
1510.268
1466.665
1422.689
1378.721
1335.093
1292.089
1249.956
1208.903
1169.103
1130.698
1093.802
1058.505
1024.872
992.946
962.7537
934.3041
907.592
882.5992
859.2967
837.6458
817.5996
799.1057
782.1059
766.5374
752.3351
739.4328
727.7625
717.252
707.8272
699.4167
691.9541
685.3693
679.5876
674.5375
670.158
666.3976
663.1947
660.4851
658.2192
656.3547
654.8371
653.6105
652.63
651.8858
651.3032
651.0356
650.7416
1746.973
1750.539
1756.788
1764.854
1773.787
1782.728
1790.946
1797.839
1802.925
1805.828
1806.27
1804.054
1799.061
1791.235
1780.576
1767.133
1750.993
1732.28
1711.143
1687.752
1662.295
1634.973
1605.991
1575.564
1543.902
1511.22
1477.724
1443.618
1409.096
1374.345
1339.54
1304.847
1270.42
1236.401
1202.919
1170.092
1138.024
1106.81
1076.529
1047.252
1019.038
991.9357
965.9813
941.2039
917.623
895.2494
874.0849
854.1242
835.3569
817.7667
801.3315
786.0242
771.8155
758.6718
746.5588
735.423
725.285
715.8261
708.2866
696.7435
1740.923
1740.359
1739.974
1740.099
1740.975
1742.738
1745.431
1749.022
1753.414
1758.463
1763.992
1769.796
1775.66
1781.358
1786.667
1791.369
1795.259
1798.143
1799.846
1800.214
1799.113
1796.429
1792.074
1785.979
1778.099
1768.41
1756.908
1743.607
1728.541
1711.758
1693.322
1673.311
1651.812
1628.926
1604.757
1579.42
1553.034
1525.721
1497.606
1468.816
1439.475
1409.711
1379.645
1349.397
1319.083
1288.816
1258.701
1228.839
1199.326
1170.248
1141.688
1113.72
1086.413
1059.824
1034.017
1008.992
985.004
961.1234
941.6128
907.8407
1731.453
1731.286
1730.992
1730.583
1730.102
1729.618
1729.214
1728.983
1729.014
1729.391
1730.183
1731.443
1733.207
1735.49
1738.287
1741.574
1745.307
1749.427
1753.858
1758.51
1763.283
1768.069
1772.751
1777.211
1781.326
1784.974
1788.036
1790.395
1791.943
1792.574
1792.194
1790.716
1788.065
1784.175
1778.991
1772.472
1764.586
1755.313
1744.646
1732.587
1719.152
1704.363
1688.255
1670.872
1652.264
1632.49
1611.617
1589.717
1566.866
1543.147
1518.645
1493.446
1467.642
1441.32
1414.588
1387.461
1360.358
1331.95
1308.37
1263.895
1723.783
1723.402
1723.019
1722.634
1722.233
1721.801
1721.329
1720.814
1720.262
1719.688
1719.118
1718.581
1718.115
1717.761
1717.562
1717.562
1717.802
1718.321
1719.151
1720.321
1721.848
1723.746
1726.016
1728.652
1731.638
1734.947
1738.546
1742.39
1746.429
1750.603
1754.848
1759.091
1763.257
1767.268
1771.04
1774.49
1777.536
1780.092
1782.079
1783.417
1784.029
1783.846
1782.8
1780.83
1777.881
1773.907
1768.864
1762.72
1755.449
1747.031
1737.455
1726.719
1714.827
1701.786
1687.631
1672.32
1656.161
1638.04
1622.758
1590.697
1722.173
1721.589
1720.991
1720.395
1719.81
1719.236
1718.668
1718.099
1717.524
1716.933
1716.321
1715.682
1715.015
1714.319
1713.6
1712.864
1712.124
1711.397
1710.699
1710.055
1709.488
1709.024
1708.692
1708.518
1708.531
1708.755
1709.216
1709.934
1710.926
1712.206
1713.783
1715.661
1717.838
1720.307
1723.055
1726.062
1729.304
1732.75
1736.366
1740.108
1743.933
1747.789
1751.623
1755.378
1758.994
1762.408
1765.558
1768.38
1770.809
1772.782
1774.236
1775.11
1775.345
1774.884
1773.683
1771.661
1768.892
1764.871
1761.356
1751.378
1709.291
1709.071
1708.839
1708.607
1708.374
1708.147
1707.926
1707.708
1707.492
1707.275
1707.054
1706.826
1706.585
1706.327
1706.047
1705.74
1705.401
1705.026
1704.615
1704.164
1703.676
1703.154
1702.601
1702.026
1701.438
1700.848
1700.272
1699.723
1699.22
1698.782
1698.428
1698.179
1698.056
1698.079
1698.268
1698.641
1699.216
1700.007
1701.028
1702.289
1703.795
1705.55
1707.554
1709.802
1712.286
1714.994
1717.908
1721.009
1724.27
1727.664
1731.157
1734.714
1738.294
1741.855
1745.353
1748.739
1751.957
1755.006
1757.53
1761.049
1727.471
1725.192
1723.006
1720.938
1718.989
1717.154
1715.429
1713.813
1712.299
1710.884
1709.562
1708.328
1707.177
1706.104
1705.103
1704.169
1703.294
1702.473
1701.698
1700.961
1700.257
1699.578
1698.916
1698.266
1697.622
1696.979
1696.332
1695.679
1695.018
1694.348
1693.672
1692.992
1692.312
1691.64
1690.982
1690.348
1689.749
1689.196
1688.704
1688.287
1687.958
1687.734
1687.629
1687.66
1687.84
1688.183
1688.703
1689.411
1690.316
1691.428
1692.751
1694.288
1696.042
1698.009
1700.182
1702.564
1705.101
1707.949
1710.371
1715.304
1731.451
1730.572
1729.552
1728.417
1727.194
1725.897
1724.538
1723.132
1721.69
1720.222
1718.739
1717.249
1715.761
1714.283
1712.819
1711.378
1709.962
1708.577
1707.227
1705.913
1704.638
1703.402
1702.206
1701.05
1699.932
1698.85
1697.802
1696.786
1695.798
1694.834
1693.891
1692.966
1692.056
1691.156
1690.264
1689.379
1688.498
1687.622
1686.749
1685.882
1685.023
1684.175
1683.343
1682.532
1681.748
1681
1680.296
1679.646
1679.06
1678.549
1678.125
1677.798
1677.581
1677.486
1677.523
1677.707
1678.028
1678.571
1679.053
1680.532
1734.706
1733.76
1732.807
1731.853
1730.896
1729.931
1728.952
1727.952
1726.927
1725.875
1724.793
1723.68
1722.537
1721.363
1720.16
1718.93
1717.676
1716.401
1715.107
1713.798
1712.477
1711.15
1709.818
1708.485
1707.156
1705.833
1704.519
1703.217
1701.929
1700.656
1699.401
1698.164
1696.945
1695.745
1694.563
1693.399
1692.251
1691.119
1690
1688.894
1687.798
1686.711
1685.632
1684.559
1683.491
1682.429
1681.371
1680.318
1679.272
1678.234
1677.207
1676.194
1675.199
1674.226
1673.283
1672.372
1671.508
1670.669
1669.983
1668.868
1735.953
1735.152
1734.315
1733.462
1732.602
1731.741
1730.88
1730.018
1729.154
1728.288
1727.416
1726.538
1725.649
1724.749
1723.834
1722.904
1721.955
1720.987
1719.998
1718.987
1717.953
1716.897
1715.818
1714.717
1713.594
1712.451
1711.289
1710.109
1708.913
1707.703
1706.481
1705.25
1704.01
1702.764
1701.514
1700.263
1699.011
1697.76
1696.511
1695.266
1694.025
1692.788
1691.557
1690.331
1689.109
1687.892
1686.679
1685.469
1684.261
1683.054
1681.847
1680.64
1679.431
1678.22
1677.007
1675.789
1674.582
1673.316
1672.276
1670.244
1734.88
1734.251
1733.583
1732.896
1732.195
1731.485
1730.767
1730.043
1729.314
1728.579
1727.84
1727.097
1726.349
1725.596
1724.838
1724.075
1723.305
1722.527
1721.741
1720.946
1720.139
1719.32
1718.488
1717.641
1716.778
1715.898
1715.001
1714.085
1713.151
1712.196
1711.222
1710.228
1709.215
1708.182
1707.131
1706.061
1704.974
1703.87
1702.751
1701.617
1700.47
1699.311
1698.14
1696.959
1695.769
1694.571
1693.366
1692.153
1690.934
1689.708
1688.476
1687.238
1685.993
1684.741
1683.482
1682.212
1680.945
1679.608
1678.505
1676.313
1731.615
1731.119
1730.586
1730.038
1729.482
1728.919
1728.352
1727.779
1727.201
1726.617
1726.027
1725.431
1724.83
1724.222
1723.608
1722.988
1722.362
1721.729
1721.09
1720.445
1719.792
1719.133
1718.465
1717.79
1717.105
1716.412
1715.708
1714.994
1714.268
1713.53
1712.779
1712.014
1711.234
1710.44
1709.629
1708.803
1707.959
1707.097
1706.218
1705.321
1704.406
1703.472
1702.521
1701.55
1700.562
1699.556
1698.533
1697.492
1696.434
1695.359
1694.267
1693.159
1692.035
1690.894
1689.738
1688.564
1687.385
1686.134
1685.094
1683.02
1727.842
1727.331
1726.794
1726.252
1725.713
1725.178
1724.648
1724.123
1723.602
1723.085
1722.569
1722.056
1721.543
1721.031
1720.517
1720.002
1719.484
1718.964
1718.44
1717.912
1717.38
1716.844
1716.302
1715.755
1715.202
1714.643
1714.077
1713.505
1712.925
1712.338
1711.743
1711.14
1710.528
1709.906
1709.275
1708.633
1707.981
1707.317
1706.641
1705.952
1705.249
1704.533
1703.802
1703.056
1702.294
1701.515
1700.72
1699.907
1699.076
1698.226
1697.357
1696.468
1695.559
1694.63
1693.68
1692.707
1691.723
1690.666
1689.788
1687.996
1725.522
1724.861
1724.181
1723.504
1722.838
1722.187
1721.549
1720.927
1720.319
1719.725
1719.144
1718.575
1718.018
1717.471
1716.933
1716.404
1715.882
1715.367
1714.858
1714.353
1713.852
1713.354
1712.859
1712.364
1711.871
1711.377
1710.882
1710.387
1709.889
1709.39
1708.887
1708.381
1707.871
1707.357
1706.839
1706.315
1705.786
1705.25
1704.708
1704.16
1703.603
1703.038
1702.465
1701.882
1701.289
1700.685
1700.07
1699.443
1698.802
1698.147
1697.477
1696.791
1696.088
1695.368
1694.629
1693.869
1693.098
1692.262
1691.572
1690.121
1726.072
1725.186
1724.283
1723.384
1722.501
1721.636
1720.79
1719.964
1719.158
1718.372
1717.605
1716.858
1716.13
1715.419
1714.727
1714.051
1713.391
1712.747
1712.118
1711.503
1710.901
1710.312
1709.734
1709.167
1708.611
1708.063
1707.524
1706.992
1706.468
1705.949
1705.436
1704.927
1704.423
1703.922
1703.424
1702.928
1702.433
1701.94
1701.447
1700.953
1700.459
1699.963
1699.465
1698.964
1698.459
1697.951
1697.437
1696.917
1696.391
1695.857
1695.315
1694.763
1694.2
1693.625
1693.039
1692.436
1691.827
1691.166
1690.622
1689.462
1729.804
1728.703
1727.581
1726.46
1725.351
1724.258
1723.183
1722.126
1721.089
1720.072
1719.074
1718.097
1717.139
1716.202
1715.284
1714.386
1713.507
1712.648
1711.807
1710.985
1710.182
1709.397
1708.629
1707.878
1707.144
1706.426
1705.724
1705.037
1704.364
1703.706
1703.061
1702.429
1701.809
1701.201
1700.605
1700.018
1699.442
1698.875
1698.317
1697.767
1697.224
1696.687
1696.157
1695.631
1695.111
1694.593
1694.079
1693.567
1693.055
1692.544
1692.032
1691.517
1691
1690.478
1689.951
1689.417
1688.881
1688.307
1687.835
1686.841
1735.92
1734.695
1733.438
1732.175
1730.915
1729.663
1728.422
1727.192
1725.975
1724.771
1723.582
1722.407
1721.248
1720.104
1718.975
1717.863
1716.767
1715.687
1714.624
1713.578
1712.549
1711.537
1710.542
1709.564
1708.604
1707.661
1706.735
1705.827
1704.935
1704.061
1703.204
1702.363
1701.539
1700.732
1699.941
1699.165
1698.406
1697.661
1696.931
1696.216
1695.515
1694.827
1694.153
1693.491
1692.84
1692.201
1691.572
1690.953
1690.342
1689.74
1689.144
1688.554
1687.969
1687.388
1686.81
1686.232
1685.661
1685.061
1684.568
1683.565
1742.495
1741.297
1740.055
1738.795
1737.527
1736.256
1734.985
1733.715
1732.447
1731.182
1729.921
1728.665
1727.414
1726.169
1724.93
1723.699
1722.475
1721.259
1720.051
1718.853
1717.664
1716.485
1715.317
1714.16
1713.014
1711.88
1710.759
1709.65
1708.554
1707.472
1706.403
1705.349
1704.309
1703.284
1702.274
1701.279
1700.3
1699.336
1698.387
1697.454
1696.537
1695.635
1694.749
1693.878
1693.022
1692.181
1691.354
1690.541
1689.741
1688.954
1688.18
1687.416
1686.663
1685.92
1685.187
1684.46
1683.747
1683.007
1682.401
1681.207
1747.718
1746.648
1745.529
1744.386
1743.228
1742.061
1740.886
1739.705
1738.518
1737.327
1736.13
1734.93
1733.725
1732.518
1731.308
1730.095
1728.88
1727.663
1726.445
1725.226
1724.007
1722.788
1721.57
1720.353
1719.138
1717.926
1716.717
1715.511
1714.309
1713.113
1711.922
1710.737
1709.558
1708.387
1707.224
1706.069
1704.923
1703.787
1702.661
1701.545
1700.44
1699.346
1698.264
1697.193
1696.135
1695.088
1694.054
1693.032
1692.023
1691.025
1690.039
1689.064
1688.101
1687.148
1686.206
1685.272
1684.356
1683.408
1682.631
1681.122
1751.292
1750.357
1749.372
1748.363
1747.34
1746.307
1745.265
1744.217
1743.161
1742.098
1741.028
1739.951
1738.868
1737.777
1736.679
1735.575
1734.463
1733.344
1732.218
1731.085
1729.945
1728.799
1727.646
1726.487
1725.323
1724.153
1722.977
1721.797
1720.613
1719.425
1718.233
1717.039
1715.842
1714.644
1713.445
1712.245
1711.045
1709.846
1708.647
1707.451
1706.257
1705.065
1703.877
1702.693
1701.514
1700.338
1699.168
1698.004
1696.844
1695.691
1694.543
1693.401
1692.265
1691.135
1690.011
1688.891
1687.787
1686.639
1685.696
1683.865
1752.536
1751.737
1750.89
1750.021
1749.139
1748.25
1747.355
1746.453
1745.546
1744.634
1743.715
1742.791
1741.86
1740.922
1739.978
1739.026
1738.066
1737.097
1736.121
1735.135
1734.141
1733.138
1732.125
1731.103
1730.072
1729.031
1727.98
1726.921
1725.852
1724.774
1723.686
1722.59
1721.486
1720.373
1719.252
1718.123
1716.987
1715.844
1714.695
1713.539
1712.377
1711.209
1710.037
1708.86
1707.678
1706.492
1705.303
1704.11
1702.914
1701.715
1700.513
1699.309
1698.102
1696.892
1695.681
1694.465
1693.259
1691.995
1690.954
1688.914
1753.923
1753.091
1752.218
1751.333
1750.447
1749.562
1748.68
1747.802
1746.928
1746.056
1745.187
1744.32
1743.454
1742.589
1741.724
1740.857
1739.99
1739.12
1738.246
1737.37
1736.489
1735.603
1734.712
1733.815
1732.911
1732.001
1731.083
1730.158
1729.224
1728.283
1727.332
1726.373
1725.405
1724.428
1723.441
1722.445
1721.439
1720.423
1719.398
1718.363
1717.318
1716.264
1715.199
1714.125
1713.042
1711.948
1710.845
1709.732
1708.61
1707.477
1706.335
1705.182
1704.02
1702.847
1701.665
1700.47
1699.278
1698.017
1696.977
1694.911
1754.878
1754.073
1753.221
1752.352
1751.478
1750.602
1749.727
1748.855
1747.986
1747.12
1746.258
1745.399
1744.545
1743.693
1742.845
1741.999
1741.156
1740.314
1739.475
1738.636
1737.798
1736.96
1736.122
1735.283
1734.443
1733.602
1732.758
1731.912
1731.062
1730.209
1729.353
1728.492
1727.626
1726.755
1725.878
1724.995
1724.106
1723.21
1722.306
1721.396
1720.477
1719.55
1718.614
1717.669
1716.714
1715.75
1714.776
1713.79
1712.794
1711.786
1710.766
1709.733
1708.688
1707.628
1706.556
1705.467
1704.375
1703.214
1702.254
1700.323
1756.103
1755.268
1754.39
1753.498
1752.603
1751.71
1750.819
1749.932
1749.05
1748.172
1747.298
1746.429
1745.565
1744.705
1743.848
1742.996
1742.146
1741.3
1740.458
1739.618
1738.78
1737.945
1737.112
1736.281
1735.452
1734.625
1733.798
1732.973
1732.148
1731.324
1730.5
1729.676
1728.852
1728.026
1727.2
1726.372
1725.542
1724.711
1723.876
1723.038
1722.197
1721.352
1720.503
1719.649
1718.789
1717.923
1717.05
1716.171
1715.283
1714.386
1713.48
1712.564
1711.636
1710.697
1709.747
1708.78
1707.811
1706.777
1705.923
1704.191
1757.849
1756.982
1756.071
1755.145
1754.215
1753.286
1752.36
1751.439
1750.523
1749.612
1748.707
1747.807
1746.912
1746.022
1745.137
1744.257
1743.381
1742.509
1741.64
1740.776
1739.915
1739.058
1738.204
1737.353
1736.505
1735.659
1734.817
1733.977
1733.14
1732.305
1731.472
1730.642
1729.813
1728.986
1728.161
1727.337
1726.515
1725.693
1724.872
1724.052
1723.232
1722.412
1721.591
1720.77
1719.947
1719.122
1718.295
1717.465
1716.631
1715.793
1714.949
1714.1
1713.244
1712.38
1711.509
1710.626
1709.743
1708.804
1708.029
1706.458
1759.665
1758.802
1757.89
1756.961
1756.025
1755.087
1754.151
1753.216
1752.285
1751.357
1750.433
1749.513
1748.597
1747.684
1746.775
1745.87
1744.968
1744.07
1743.175
1742.283
1741.394
1740.509
1739.626
1738.747
1737.871
1736.997
1736.127
1735.259
1734.394
1733.532
1732.673
1731.816
1730.962
1730.111
1729.262
1728.416
1727.572
1726.73
1725.891
1725.054
1724.218
1723.385
1722.553
1721.722
1720.892
1720.063
1719.234
1718.405
1717.575
1716.744
1715.911
1715.075
1714.236
1713.393
1712.546
1711.692
1710.841
1709.94
1709.198
1707.702
1761.588
1760.732
1759.826
1758.901
1757.969
1757.033
1756.098
1755.163
1754.23
1753.299
1752.37
1751.443
1750.519
1749.597
1748.677
1747.759
1746.844
1745.93
1745.019
1744.109
1743.202
1742.296
1741.393
1740.491
1739.592
1738.694
1737.799
1736.906
1736.015
1735.126
1734.239
1733.355
1732.472
1731.593
1730.715
1729.84
1728.966
1728.096
1727.227
1726.361
1725.497
1724.634
1723.774
1722.916
1722.059
1721.204
1720.349
1719.496
1718.642
1717.789
1716.935
1716.08
1715.224
1714.365
1713.505
1712.639
1711.778
1710.87
1710.123
1708.627
1762.819
1762.03
1761.186
1760.319
1759.439
1758.554
1757.665
1756.773
1755.879
1754.984
1754.088
1753.191
1752.294
1751.396
1750.498
1749.599
1748.699
1747.799
1746.899
1745.997
1745.096
1744.194
1743.293
1742.391
1741.489
1740.587
1739.685
1738.784
1737.883
1736.983
1736.083
1735.185
1734.287
1733.389
1732.493
1731.598
1730.704
1729.812
1728.92
1728.03
1727.141
1726.253
1725.366
1724.481
1723.596
1722.713
1721.83
1720.947
1720.064
1719.182
1718.298
1717.414
1716.528
1715.64
1714.75
1713.855
1712.966
1712.031
1711.26
1709.724
1763.111
1762.394
1761.624
1760.829
1760.023
1759.209
1758.391
1757.569
1756.743
1755.915
1755.085
1754.251
1753.415
1752.576
1751.734
1750.889
1750.042
1749.191
1748.337
1747.481
1746.621
1745.758
1744.893
1744.025
1743.155
1742.282
1741.407
1740.529
1739.65
1738.768
1737.885
1737
1736.114
1735.226
1734.337
1733.447
1732.556
1731.664
1730.771
1729.878
1728.984
1728.089
1727.194
1726.298
1725.402
1724.505
1723.607
1722.707
1721.807
1720.905
1720.001
1719.095
1718.186
1717.274
1716.36
1715.44
1714.525
1713.561
1712.767
1711.184
1762.464
1761.81
1761.102
1760.372
1759.631
1758.884
1758.133
1757.38
1756.624
1755.867
1755.107
1754.345
1753.58
1752.812
1752.042
1751.268
1750.491
1749.71
1748.925
1748.136
1747.343
1746.546
1745.745
1744.94
1744.13
1743.316
1742.499
1741.677
1740.851
1740.021
1739.187
1738.349
1737.508
1736.663
1735.815
1734.963
1734.107
1733.249
1732.387
1731.522
1730.655
1729.784
1728.91
1728.033
1727.154
1726.271
1725.386
1724.497
1723.604
1722.708
1721.808
1720.903
1719.994
1719.08
1718.161
1717.235
1716.312
1715.338
1714.535
1712.93
1761.352
1760.713
1760.025
1759.318
1758.603
1757.885
1757.167
1756.45
1755.733
1755.017
1754.302
1753.587
1752.872
1752.157
1751.44
1750.723
1750.004
1749.283
1748.559
1747.833
1747.105
1746.373
1745.638
1744.899
1744.157
1743.411
1742.662
1741.908
1741.15
1740.388
1739.621
1738.85
1738.075
1737.295
1736.51
1735.722
1734.928
1734.13
1733.327
1732.52
1731.708
1730.891
1730.069
1729.243
1728.411
1727.575
1726.733
1725.886
1725.034
1724.175
1723.31
1722.439
1721.561
1720.675
1719.783
1718.881
1717.98
1717.026
1716.238
1714.656
1760.598
1759.919
1759.194
1758.452
1757.707
1756.963
1756.222
1755.485
1754.753
1754.026
1753.303
1752.584
1751.869
1751.156
1750.447
1749.74
1749.035
1748.332
1747.63
1746.928
1746.228
1745.527
1744.826
1744.125
1743.422
1742.719
1742.015
1741.308
1740.6
1739.89
1739.177
1738.462
1737.744
1737.023
1736.299
1735.571
1734.84
1734.105
1733.366
1732.622
1731.875
1731.122
1730.365
1729.603
1728.836
1728.063
1727.285
1726.5
1725.709
1724.911
1724.105
1723.292
1722.471
1721.641
1720.802
1719.952
1719.102
1718.198
1717.451
1715.941
1760.541
1759.804
1759.02
1758.221
1757.419
1756.62
1755.825
1755.036
1754.254
1753.477
1752.708
1751.944
1751.187
1750.435
1749.689
1748.948
1748.212
1747.48
1746.753
1746.03
1745.31
1744.594
1743.881
1743.171
1742.463
1741.758
1741.055
1740.354
1739.654
1738.955
1738.257
1737.56
1736.863
1736.167
1735.47
1734.773
1734.074
1733.375
1732.674
1731.972
1731.268
1730.561
1729.852
1729.139
1728.424
1727.704
1726.98
1726.252
1725.518
1724.778
1724.032
1723.279
1722.518
1721.749
1720.972
1720.184
1719.395
1718.554
1717.861
1716.449
1761.594
1760.777
1759.914
1759.037
1758.157
1757.28
1756.408
1755.544
1754.686
1753.836
1752.994
1752.159
1751.331
1750.51
1749.696
1748.889
1748.088
1747.294
1746.505
1745.723
1744.947
1744.176
1743.411
1742.651
1741.896
1741.146
1740.401
1739.661
1738.925
1738.193
1737.465
1736.741
1736.02
1735.303
1734.588
1733.877
1733.168
1732.461
1731.756
1731.052
1730.35
1729.649
1728.948
1728.248
1727.547
1726.845
1726.142
1725.438
1724.73
1724.02
1723.306
1722.588
1721.864
1721.135
1720.4
1719.655
1718.911
1718.121
1717.468
1716.14
1763.592
1762.72
1761.8
1760.862
1759.919
1758.977
1758.039
1757.106
1756.179
1755.257
1754.342
1753.433
1752.531
1751.635
1750.746
1749.862
1748.986
1748.115
1747.251
1746.393
1745.541
1744.695
1743.856
1743.023
1742.196
1741.375
1740.56
1739.75
1738.947
1738.15
1737.358
1736.572
1735.791
1735.016
1734.246
1733.481
1732.721
1731.965
1731.214
1730.467
1729.725
1728.986
1728.25
1727.518
1726.788
1726.061
1725.335
1724.611
1723.887
1723.163
1722.439
1721.714
1720.986
1720.256
1719.524
1718.785
1718.05
1717.271
1716.63
1715.333
1766.029
1765.145
1764.208
1763.251
1762.285
1761.317
1760.349
1759.383
1758.42
1757.459
1756.502
1755.548
1754.598
1753.651
1752.708
1751.77
1750.835
1749.905
1748.978
1748.057
1747.14
1746.227
1745.32
1744.417
1743.519
1742.626
1741.739
1740.857
1739.98
1739.109
1738.243
1737.383
1736.528
1735.679
1734.835
1733.997
1733.165
1732.338
1731.516
1730.7
1729.889
1729.083
1728.283
1727.486
1726.694
1725.907
1725.123
1724.342
1723.564
1722.789
1722.015
1721.243
1720.471
1719.7
1718.928
1718.153
1717.384
1716.575
1715.909
1714.574
1768.317
1767.46
1766.549
1765.613
1764.667
1763.715
1762.761
1761.805
1760.848
1759.892
1758.935
1757.978
1757.022
1756.067
1755.112
1754.158
1753.204
1752.252
1751.301
1750.351
1749.403
1748.457
1747.512
1746.57
1745.63
1744.693
1743.758
1742.826
1741.897
1740.971
1740.049
1739.13
1738.215
1737.304
1736.397
1735.494
1734.596
1733.701
1732.811
1731.926
1731.044
1730.168
1729.295
1728.427
1727.563
1726.704
1725.848
1724.996
1724.146
1723.3
1722.457
1721.615
1720.775
1719.935
1719.098
1718.258
1717.426
1716.553
1715.834
1714.407
1770.016
1769.211
1768.35
1767.464
1766.565
1765.659
1764.749
1763.835
1762.919
1762.001
1761.081
1760.159
1759.234
1758.308
1757.38
1756.451
1755.519
1754.586
1753.651
1752.715
1751.778
1750.839
1749.899
1748.959
1748.018
1747.076
1746.134
1745.192
1744.25
1743.308
1742.367
1741.426
1740.486
1739.547
1738.609
1737.673
1736.738
1735.804
1734.873
1733.943
1733.016
1732.09
1731.167
1730.246
1729.328
1728.411
1727.497
1726.584
1725.673
1724.764
1723.856
1722.948
1722.041
1721.135
1720.229
1719.32
1718.419
1717.474
1716.696
1715.156
1770.992
1770.239
1769.431
1768.597
1767.75
1766.897
1766.04
1765.18
1764.316
1763.451
1762.582
1761.711
1760.838
1759.962
1759.083
1758.201
1757.316
1756.429
1755.539
1754.645
1753.749
1752.85
1751.949
1751.044
1750.137
1749.227
1748.315
1747.4
1746.483
1745.563
1744.642
1743.719
1742.794
1741.867
1740.938
1740.009
1739.077
1738.145
1737.212
1736.277
1735.342
1734.406
1733.469
1732.532
1731.594
1730.655
1729.716
1728.776
1727.835
1726.892
1725.949
1725.003
1724.056
1723.106
1722.155
1721.198
1720.249
1719.25
1718.427
1716.796
1771.424
1770.703
1769.927
1769.128
1768.318
1767.503
1766.684
1765.865
1765.043
1764.22
1763.396
1762.571
1761.743
1760.914
1760.083
1759.25
1758.414
1757.576
1756.736
1755.893
1755.047
1754.198
1753.347
1752.492
1751.634
1750.774
1749.91
1749.043
1748.173
1747.299
1746.423
1745.543
1744.661
1743.775
1742.886
1741.994
1741.099
1740.201
1739.299
1738.395
1737.488
1736.578
1735.665
1734.749
1733.83
1732.907
1731.982
1731.052
1730.12
1729.183
1728.242
1727.297
1726.347
1725.392
1724.433
1723.465
1722.502
1721.486
1720.648
1718.979
1771.677
1770.958
1770.187
1769.394
1768.592
1767.787
1766.981
1766.176
1765.37
1764.566
1763.762
1762.958
1762.154
1761.351
1760.547
1759.743
1758.939
1758.134
1757.327
1756.52
1755.712
1754.902
1754.09
1753.277
1752.462
1751.645
1750.826
1750.004
1749.181
1748.354
1747.525
1746.694
1745.86
1745.022
1744.182
1743.339
1742.492
1741.642
1740.789
1739.932
1739.072
1738.208
1737.34
1736.468
1735.592
1734.712
1733.827
1732.937
1732.042
1731.142
1730.236
1729.323
1728.404
1727.478
1726.545
1725.602
1724.661
1723.665
1722.843
1721.197
1772.132
1771.391
1770.599
1769.786
1768.966
1768.144
1767.323
1766.503
1765.686
1764.871
1764.058
1763.248
1762.44
1761.634
1760.829
1760.027
1759.225
1758.425
1757.626
1756.828
1756.031
1755.235
1754.439
1753.643
1752.847
1752.051
1751.255
1750.459
1749.662
1748.864
1748.066
1747.266
1746.466
1745.663
1744.86
1744.054
1743.247
1742.438
1741.626
1740.812
1739.995
1739.176
1738.353
1737.527
1736.697
1735.864
1735.026
1734.183
1733.336
1732.482
1731.623
1730.758
1729.885
1729.005
1728.117
1727.219
1726.321
1725.369
1724.584
1723.001
1773.029
1772.254
1771.428
1770.582
1769.728
1768.873
1768.02
1767.169
1766.321
1765.476
1764.634
1763.796
1762.961
1762.129
1761.3
1760.474
1759.651
1758.831
1758.013
1757.198
1756.385
1755.575
1754.767
1753.961
1753.157
1752.355
1751.554
1750.756
1749.958
1749.162
1748.367
1747.573
1746.78
1745.987
1745.195
1744.403
1743.611
1742.819
1742.027
1741.234
1740.44
1739.645
1738.849
1738.051
1737.252
1736.45
1735.645
1734.837
1734.025
1733.209
1732.389
1731.563
1730.731
1729.892
1729.047
1728.192
1727.338
1726.433
1725.685
1724.177
1774.397
1773.592
1772.735
1771.857
1770.971
1770.083
1769.196
1768.311
1767.428
1766.548
1765.672
1764.798
1763.928
1763.061
1762.197
1761.336
1760.479
1759.624
1758.773
1757.925
1757.081
1756.239
1755.4
1754.565
1753.732
1752.902
1752.076
1751.252
1750.43
1749.612
1748.796
1747.982
1747.171
1746.362
1745.555
1744.751
1743.948
1743.146
1742.346
1741.548
1740.75
1739.953
1739.157
1738.362
1737.566
1736.77
1735.973
1735.175
1734.375
1733.573
1732.768
1731.959
1731.146
1730.329
1729.507
1728.677
1727.849
1726.972
1726.25
1724.793
1776.064
1775.246
1774.375
1773.48
1772.576
1771.669
1770.761
1769.854
1768.948
1768.043
1767.14
1766.24
1765.341
1764.445
1763.551
1762.66
1761.771
1760.884
1760
1759.119
1758.241
1757.365
1756.492
1755.622
1754.754
1753.89
1753.029
1752.17
1751.315
1750.462
1749.612
1748.766
1747.922
1747.081
1746.243
1745.408
1744.575
1743.745
1742.918
1742.093
1741.27
1740.449
1739.63
1738.813
1737.998
1737.183
1736.369
1735.556
1734.742
1733.928
1733.112
1732.295
1731.476
1730.653
1729.828
1728.997
1728.17
1727.296
1726.576
1725.131
1777.742
1776.933
1776.069
1775.18
1774.28
1773.375
1772.467
1771.558
1770.649
1769.739
1768.83
1767.921
1767.013
1766.105
1765.199
1764.293
1763.388
1762.484
1761.581
1760.68
1759.78
1758.882
1757.985
1757.09
1756.197
1755.305
1754.416
1753.529
1752.644
1751.761
1750.88
1750.002
1749.126
1748.253
1747.382
1746.513
1745.647
1744.783
1743.922
1743.063
1742.207
1741.353
1740.501
1739.651
1738.802
1737.956
1737.11
1736.266
1735.422
1734.579
1733.735
1732.89
1732.045
1731.197
1730.347
1729.493
1728.644
1727.749
1727.013
1725.541
1779.146
1778.365
1777.527
1776.663
1775.787
1774.903
1774.016
1773.127
1772.235
1771.342
1770.448
1769.552
1768.655
1767.758
1766.86
1765.961
1765.061
1764.161
1763.261
1762.36
1761.459
1760.559
1759.658
1758.757
1757.857
1756.957
1756.057
1755.158
1754.26
1753.363
1752.466
1751.571
1750.676
1749.783
1748.891
1748
1747.111
1746.223
1745.336
1744.451
1743.567
1742.685
1741.804
1740.924
1740.046
1739.169
1738.292
1737.416
1736.54
1735.664
1734.788
1733.91
1733.032
1732.151
1731.269
1730.382
1729.501
1728.574
1727.81
1726.289
1780.092
1779.348
1778.546
1777.718
1776.877
1776.028
1775.175
1774.318
1773.458
1772.596
1771.732
1770.866
1769.998
1769.128
1768.256
1767.382
1766.507
1765.63
1764.751
1763.871
1762.989
1762.106
1761.222
1760.336
1759.449
1758.562
1757.673
1756.783
1755.893
1755.002
1754.11
1753.218
1752.325
1751.432
1750.539
1749.646
1748.752
1747.858
1746.964
1746.071
1745.177
1744.283
1743.389
1742.495
1741.601
1740.707
1739.812
1738.916
1738.02
1737.122
1736.223
1735.322
1734.418
1733.512
1732.604
1731.689
1730.78
1729.823
1729.034
1727.464
1780.539
1779.83
1779.065
1778.272
1777.467
1776.654
1775.837
1775.017
1774.193
1773.367
1772.539
1771.709
1770.876
1770.041
1769.204
1768.365
1767.524
1766.68
1765.835
1764.987
1764.138
1763.286
1762.432
1761.576
1760.719
1759.859
1758.998
1758.135
1757.27
1756.403
1755.534
1754.664
1753.792
1752.919
1752.044
1751.168
1750.29
1749.411
1748.53
1747.648
1746.764
1745.879
1744.993
1744.105
1743.215
1742.324
1741.431
1740.535
1739.638
1738.737
1737.834
1736.927
1736.016
1735.101
1734.183
1733.257
1732.335
1731.363
1730.562
1728.964
1780.574
1779.892
1779.154
1778.39
1777.612
1776.829
1776.041
1775.25
1774.457
1773.663
1772.866
1772.068
1771.268
1770.466
1769.662
1768.856
1768.049
1767.24
1766.429
1765.616
1764.801
1763.984
1763.165
1762.344
1761.521
1760.696
1759.869
1759.04
1758.209
1757.376
1756.541
1755.703
1754.864
1754.022
1753.179
1752.333
1751.485
1750.635
1749.782
1748.927
1748.07
1747.211
1746.349
1745.485
1744.618
1743.748
1742.875
1741.998
1741.119
1740.235
1739.346
1738.454
1737.556
1736.652
1735.743
1734.826
1733.911
1732.945
1732.148
1730.553
1780.364
1779.696
1778.972
1778.223
1777.462
1776.694
1775.924
1775.152
1774.378
1773.603
1772.827
1772.05
1771.273
1770.494
1769.714
1768.933
1768.151
1767.368
1766.584
1765.798
1765.011
1764.223
1763.434
1762.643
1761.851
1761.057
1760.262
1759.465
1758.667
1757.866
1757.064
1756.26
1755.455
1754.647
1753.837
1753.026
1752.212
1751.396
1750.577
1749.756
1748.933
1748.107
1747.279
1746.447
1745.613
1744.775
1743.934
1743.088
1742.239
1741.385
1740.526
1739.661
1738.791
1737.914
1737.031
1736.139
1735.248
1734.305
1733.527
1731.965
1780.076
1779.411
1778.69
1777.945
1777.188
1776.425
1775.66
1774.894
1774.127
1773.36
1772.592
1771.824
1771.056
1770.288
1769.52
1768.751
1767.982
1767.213
1766.444
1765.674
1764.904
1764.133
1763.362
1762.591
1761.819
1761.046
1760.273
1759.498
1758.723
1757.947
1757.17
1756.392
1755.613
1754.833
1754.051
1753.268
1752.483
1751.696
1750.908
1750.118
1749.326
1748.532
1747.735
1746.936
1746.134
1745.33
1744.521
1743.709
1742.893
1742.073
1741.247
1740.416
1739.579
1738.736
1737.886
1737.026
1736.168
1735.258
1734.508
1732.996
1779.831
1779.162
1778.437
1777.688
1776.927
1776.162
1775.394
1774.625
1773.856
1773.087
1772.318
1771.549
1770.781
1770.013
1769.245
1768.478
1767.711
1766.944
1766.178
1765.413
1764.647
1763.883
1763.118
1762.354
1761.589
1760.826
1760.062
1759.298
1758.534
1757.77
1757.007