/*--------------------------------*- C++ -*----------------------------------*\
| =========                 |                                                 |
| \\      /  F ield         | OpenFOAM: The Open Source CFD Toolbox           |
|  \\    /   O peration     | Version:  2312                                  |
|   \\  /    A nd           | Website:  www.openfoam.com                      |
|    \\/     M anipulation  |                                                 |
\*---------------------------------------------------------------------------*/
FoamFile
{
    version     2.0;
    format      ascii;
    arch        "LSB;label=32;scalar=64";
    class       volScalarField;
    location    "3300";
    object      ILambda_13_0;
}
// * * * * * * * * * * * * * * * * * * * * * * * * * * * * * * * * * * * * * //

dimensions      [1 0 -3 0 0 0 0];

internalField   nonuniform List<scalar> 
12000
(
711.9825
687.2103
689.3943
688.3429
688.174
687.8801
687.6075
687.3314
687.0721
686.8333
686.6063
686.3743
686.1238
685.8482
685.5471
685.2226
684.8766
684.51
684.123
683.7156
683.287
682.8354
682.3595
681.8585
681.3327
680.7824
680.2079
679.6092
678.9863
678.339
677.6666
676.9671
676.2352
675.462
674.6378
673.7589
672.8124
671.7904
670.6998
669.5648
668.3991
667.1841
665.8986
664.5565
663.1798
661.7003
659.9764
657.878
655.3254
652.213
648.2399
643.0655
636.4133
627.9054
616.9298
602.848
585.1913
563.7132
538.5264
510.6993
686.5894
686.6536
687.6366
687.0313
686.8876
686.6067
686.363
686.1127
685.8575
685.585
685.2892
684.9678
684.6221
684.254
683.8646
683.4538
683.0211
682.5655
682.086
681.5815
681.051
680.4939
679.91
679.2989
678.6605
677.994
677.2986
676.5734
675.8174
675.029
674.2064
673.3475
672.4508
671.5158
670.5427
669.5281
668.468
667.353
666.1593
664.8394
663.3234
661.5268
659.3431
656.6243
653.1756
648.79
643.2712
636.4227
628.0336
617.9039
605.937
592.1653
576.7454
560.0409
542.7559
525.9749
511.1301
499.9477
494.2757
495.4607
685.1915
686.5635
686.1231
685.8788
685.6335
685.354
685.0698
684.7614
684.4287
684.0687
683.6824
683.2714
682.8366
682.3781
681.8949
681.3861
680.8505
680.2875
679.6966
679.0778
678.4314
677.7581
677.059
676.3351
675.5874
674.817
674.0245
673.2095
672.3702
671.5022
670.5974
669.6423
668.616
667.4871
666.2106
664.7244
662.9476
660.7766
658.0855
654.7298
650.5538
645.3967
639.1
631.5221
622.5631
612.1885
600.4408
587.4537
573.4747
558.8903
544.2318
530.1459
517.3643
506.6583
498.7391
494.1031
492.8682
494.6211
498.3122
502.3453
685.341
685.2244
684.8108
684.5538
684.2209
683.8765
683.503
683.1013
682.6716
682.2145
681.7306
681.2201
680.6826
680.118
679.5264
678.9083
678.2651
677.5982
676.9099
676.2024
675.4776
674.7369
673.9804
673.206
672.4085
671.578
670.6987
669.7468
668.6888
667.4794
666.0596
664.3556
662.2775
659.7201
656.565
652.6843
647.9471
642.2282
635.4196
627.4431
618.2639
607.904
596.456
584.0947
571.0821
557.7652
544.5664
531.9669
520.4797
510.6073
502.7883
497.3415
494.4125
493.9265
495.5645
498.7841
502.9024
507.2406
511.3202
515.0556
684.2653
683.6146
683.2896
682.8981
682.4771
682.0307
681.5533
681.048
680.5152
679.956
679.3716
678.7634
678.1333
677.4835
676.8164
676.1345
675.4394
674.7312
674.0079
673.2642
672.4902
671.6701
670.7807
669.7897
668.6545
667.321
665.7222
663.7789
661.3999
658.4838
654.9228
650.6068
645.4306
639.3017
632.1498
623.9371
614.6688
604.4028
593.2572
581.4152
569.125
556.696
544.4873
532.8905
522.3056
513.1128
505.6404
500.1335
496.723
495.4045
496.0297
498.3167
501.8795
506.2782
511.0874
515.9709
520.7421
525.3899
530.0463
534.8862
682.5545
681.7372
681.3492
680.8361
680.32
679.7742
679.2057
678.616
678.0077
677.3832
676.7446
676.0936
675.4304
674.7531
674.0566
673.3318
672.5639
671.7315
670.8051
669.7457
668.5046
667.0219
665.2275
663.0409
660.3736
657.1312
653.2179
648.541
643.0174
636.5811
629.1904
620.8368
611.5518
601.4142
590.5538
579.1535
567.447
555.7127
544.2634
533.4309
523.5474
514.924
507.8281
502.4607
498.9385
497.2805
497.4037
499.1273
502.1895
506.2738
511.0439
516.1824
521.4265
526.5946
531.5958
536.417
541.0886
545.6369
550.0432
554.2392
680.4374
679.4867
679.0242
678.4362
677.8612
677.2666
676.6613
676.0435
675.412
674.7619
674.085
673.3679
672.5915
671.7291
670.7462
669.599
668.2347
666.5907
664.5959
662.1717
659.2344
655.6982
651.4793
646.5009
640.699
634.0287
626.4706
618.0371
608.778
598.785
588.1932
577.182
565.9707
554.8131
543.9873
533.7825
524.4845
516.3578
509.629
504.4702
500.9858
499.203
499.0686
500.4521
503.1559
506.932
511.5038
516.5907
521.9326
527.3106
532.5601
537.5747
542.2986
546.7106
550.8012
554.5511
557.918
560.8376
563.2441
565.113
678.0648
677.0428
676.5595
675.9485
675.3508
674.7218
674.0575
673.3385
672.5417
671.6362
670.5835
669.3366
667.8402
666.0308
663.8384
661.1879
658.0015
654.2024
649.7184
644.4872
638.4608
631.6116
623.9374
615.4664
606.2612
596.4214
586.0845
575.4245
564.6483
553.9892
543.6982
534.0325
525.2431
517.5608
511.1824
506.2581
502.8812
501.0808
500.8194
501.9949
504.4474
507.9712
512.3301
517.2752
522.5628
527.9708
533.312
538.4408
543.2556
547.6929
551.7188
555.3159
558.4718
561.1712
563.3935
565.1178
566.3333
567.0521
567.3198
567.2246
675.6408
674.5396
673.9706
673.2126
672.39
671.4302
670.2993
668.946
667.3142
665.341
662.9585
660.0959
656.6822
652.6493
647.9361
642.4927
636.2853
629.3003
621.5492
613.0722
603.9409
594.26
584.1671
573.8309
563.4467
553.231
543.4126
534.2237
525.8881
518.6104
512.5642
507.8822
504.6475
502.8884
502.5759
503.6251
505.9006
509.2249
513.3909
518.1748
523.3504
528.7033
534.0418
539.2055
544.0698
548.5461
552.578
556.1353
559.206
561.789
563.8888
565.5127
566.6722
567.3863
567.6869
567.622
567.2574
566.6736
565.9594
565.2047
672.6821
671.0076
669.9111
668.4136
666.6513
664.5168
661.9543
658.8953
655.2758
651.0363
646.1256
640.5051
634.1529
627.0673
619.2706
610.8123
601.7705
592.253
582.3964
572.3636
562.3399
552.5271
543.1361
534.3779
526.4549
519.5502
513.8188
509.3786
506.3038
504.6203
504.3036
505.2798
507.4303
510.598
514.5971
519.2242
524.2695
529.5288
534.8137
539.9597
544.832
549.3276
553.3753
556.9322
559.9792
562.5152
564.5521
566.1101
567.2155
567.8999
568.201
568.1639
567.8422
567.2977
566.5982
565.8137
565.0109
564.2489
563.5754
563.0258
666.9084
663.3721
660.876
657.5771
653.7811
649.3563
644.2764
638.509
632.0429
624.886
617.0697
608.6505
599.7111
590.3611
580.7353
570.9911
561.3044
551.8645
542.8665
534.5044
526.962
520.4051
514.9727
510.7704
507.8643
506.277
505.9863
506.926
508.9892
512.034
515.8913
520.374
525.2871
530.4371
535.6419
540.7383
545.5877
550.0799
554.1341
557.698
560.7447
563.2687
565.2817
566.8078
567.8799
568.5372
568.8237
568.7874
568.48
567.957
567.2766
566.4981
565.6793
564.8729
564.1243
563.469
562.9323
562.5301
562.2723
562.1656
654.2614
647.2083
642.4797
636.4757
629.9416
622.732
614.918
606.5542
597.7281
588.5495
579.1508
569.6841
560.3168
551.2268
542.5959
534.603
527.4164
521.1869
516.0401
512.0708
509.3375
507.8596
507.6158
508.5449
510.549
513.4977
517.2353
521.5885
526.3747
531.4113
536.5233
541.5513
546.3569
550.8266
554.8741
558.4404
561.492
564.0183
566.0278
567.5441
568.6019
569.2439
569.518
569.4753
569.1688
568.6528
567.9816
567.2093
566.3877
565.5656
564.7865
564.087
563.4961
563.035
562.7176
562.5527
562.5465
562.7057
563.0396
563.56
631.2115
619.8941
612.9646
604.4692
595.8034
586.7883
577.615
568.4161
559.3542
550.596
542.3116
534.6667
527.8163
521.8978
517.0255
513.2842
510.7258
509.3664
509.1845
510.1228
512.0898
514.9645
518.6021
522.8407
527.5089
532.4339
537.4484
542.398
547.1462
551.5792
555.6077
559.1682
562.2222
564.7543
566.7689
568.2874
569.3438
569.9813
570.2496
570.2018
569.8926
569.3767
568.7081
567.9387
567.1177
566.2909
565.4995
564.7799
564.1623
563.6712
563.325
563.1373
563.1176
563.2735
563.6119
564.1405
564.8695
565.811
566.9793
568.3863
598.3021
584.109
576.3443
567.1236
558.4125
549.9551
542.0022
534.6866
528.1556
522.5343
517.9264
514.4084
512.0258
510.7913
510.6832
511.6462
513.5944
516.414
519.9692
524.108
528.6688
533.4877
538.4051
543.2719
547.955
552.3415
556.341
559.8874
562.9385
565.4747
567.4969
569.023
570.0853
570.726
570.995
570.9462
570.6354
570.1184
569.4495
568.6805
567.86
567.0325
566.2383
565.513
564.8871
564.3861
564.0307
563.8371
563.8178
563.9827
564.3398
564.8963
565.6594
566.6363
567.8344
569.2601
570.9189
572.8137
574.9443
577.3053
561.8987
548.296
541.921
534.6063
528.4469
523.0912
518.7413
515.4399
513.2327
512.1272
512.1013
513.1014
515.0454
517.826
521.3147
525.368
529.8329
534.5536
539.3777
544.1617
548.7764
553.1106
557.0744
560.6
563.6426
566.1797
568.2085
569.744
570.8158
571.4646
571.7394
571.694
571.3847
570.868
570.1991
569.4303
568.6104
567.7839
566.9911
566.2673
565.6432
565.1449
564.794
564.6081
564.6011
564.7841
565.1658
565.7532
566.5521
567.5675
568.8033
570.2618
571.9434
573.8451
575.96
578.2758
580.7752
583.4358
586.2314
589.1369
531.9264
522.8047
519.6901
516.3364
514.3603
513.368
513.4325
514.4774
516.4291
519.1837
522.6195
526.6
530.9801
535.6112
540.3477
545.0515
549.5976
553.8773
557.8015
561.3019
564.3321
566.8669
568.9007
570.4458
571.529
572.189
572.4735
572.4355
572.1314
571.618
570.9512
570.184
569.366
568.5422
567.7532
567.0348
566.418
565.9292
565.5907
565.4207
565.4338
565.6417
566.0531
566.6748
567.5116
568.5663
569.8403
571.3327
573.0405
574.9574
577.0734
579.3738
581.8391
584.444
587.1579
589.9453
592.767
595.5826
598.3542
601.0567
516.6743
514.1949
514.7982
515.749
517.7489
520.475
523.8701
527.7875
532.0926
536.6424
541.2975
545.925
550.4041
554.6289
558.5115
561.984
564.999
567.5293
569.567
571.1217
572.2177
572.8916
573.1893
573.1628
572.8679
572.3616
571.7002
570.9374
570.1235
569.3046
568.5218
567.8116
567.2055
566.7304
566.4089
566.2595
566.2971
566.5335
566.9773
567.6348
568.5096
569.6034
570.9152
572.4418
574.1771
576.1121
578.234
580.526
582.967
585.5312
588.1881
590.9033
593.6385
596.3528
599.0043
601.551
603.9541
606.1794
608.2027
610.021
518.3429
521.8463
525.072
528.9279
533.165
537.635
542.2135
546.7677
551.1817
555.3521
559.1926
562.6358
565.6337
568.1579
570.1985
571.7627
572.8727
573.5628
573.877
573.8661
573.5851
573.0907
572.4391
571.6847
570.8787
570.0677
569.2941
568.5948
568.0021
567.5435
567.2418
567.1158
567.1804
567.4472
567.9245
568.6179
569.53
570.6611
572.0087
573.5674
575.3292
577.2824
579.4123
581.7002
584.1235
586.6556
589.266
591.9209
594.5835
597.215
599.7759
602.2271
604.5312
606.6542
608.5665
610.2449
611.6737
612.8464
613.7686
614.467
532.3957
539.0446
543.0215
547.6003
551.9231
556.0402
559.8355
563.2474
566.2264
568.743
570.7857
572.3595
573.4844
574.1926
574.5264
574.5349
574.2723
573.7945
573.158
572.4172
571.6238
570.8253
570.0646
569.3797
568.8035
568.364
568.0845
567.9838
568.077
568.3752
568.8863
569.615
570.5632
571.7297
573.1105
574.6987
576.4843
578.454
580.5914
582.8762
585.2847
587.7898
590.3609
592.9648
595.5656
598.1264
600.6095
602.9783
605.1978
607.2365
609.0673
610.6686
612.0251
613.1289
613.979
614.5824
614.9534
615.1147
615.0973
614.9453
550.7173
557.2235
560.3446
563.8531
566.7715
569.2824
571.3218
572.9038
574.0433
574.771
575.1268
575.1585
574.9186
574.4626
573.8463
573.1243
572.3487
571.5676
570.8245
570.1583
569.6025
569.1854
568.9307
568.8575
568.9807
569.3111
569.856
570.6196
571.6025
572.8025
574.2141
575.8292
577.636
579.62
581.7632
584.0442
586.4387
588.919
591.4547
594.0129
596.5591
599.0576
601.4727
603.7697
605.916
607.8819
609.6424
611.1775
612.4734
613.5228
614.3255
614.8881
615.2236
615.3512
615.2951
615.0837
614.749
614.3258
613.8515
613.3673
566.0024
570.1865
571.7379
573.4292
574.5462
575.2965
575.6715
575.7278
575.5134
575.0832
574.4921
573.7945
573.0424
572.2841
571.5639
570.921
570.3895
569.9984
569.7716
569.7284
569.8835
570.2474
570.8269
571.6251
572.6419
573.8739
575.3146
576.9543
578.7801
580.7762
582.9235
585.1999
587.5802
590.0366
592.5388
595.0547
597.5505
599.9921
602.3456
604.5779
606.6586
608.56
610.2588
611.7366
612.9807
613.9847
614.7485
615.2786
615.5875
615.6936
615.6198
615.3932
615.0433
614.6014
614.0987
613.5659
613.0322
612.5253
612.0709
611.6941
574.6093
575.9787
576.1396
576.2668
576.0558
575.6542
575.0883
574.4181
573.6934
572.9628
572.2704
571.6558
571.1534
570.7925
570.5972
570.5868
570.776
571.1749
571.7897
572.6231
573.6737
574.9373
576.406
578.069
579.9124
581.9191
584.0693
586.3401
588.706
591.1391
593.6093
596.085
598.5336
600.9221
603.2182
605.3908
607.411
609.2532
610.8958
612.3219
613.52
614.4844
615.2154
615.7193
616.0083
616.0996
616.0152
615.7806
615.424
614.9749
614.4634
613.9188
613.3683
612.8368
612.3453
611.9113
611.5486
611.2679
611.0779
610.9871
576.8454
576.213
575.6575
575.0084
574.3031
573.6004
572.9366
572.3528
571.8826
571.5554
571.395
571.4207
571.6467
572.0828
572.7348
573.6042
574.6891
575.9841
577.4805
579.1663
581.0266
583.0435
585.1963
587.4615
589.8133
592.2237
594.6632
597.1006
599.5045
601.843
604.0852
606.2018
608.1655
609.9525
611.5427
612.9207
614.0762
615.0043
615.7057
616.1869
616.4595
616.5402
616.4499
616.2128
615.8555
615.4063
614.8937
614.3455
613.788
613.245
612.7372
612.2816
611.891
611.5743
611.3363
611.1781
611.0981
611.0933
611.161
611.3017
575.4534
574.1516
573.6096
573.0188
572.5803
572.2834
572.1577
572.22
572.4841
572.9591
573.6496
574.5566
575.677
577.0044
578.529
580.238
582.1155
584.1427
586.2983
588.5584
590.897
593.2863
595.6968
598.0983
600.46
602.7513
604.9428
607.0066
608.9172
610.6522
612.1932
613.526
614.6413
615.5352
616.2089
616.6689
616.9267
616.9984
616.9041
616.6669
616.3122
615.867
615.3584
614.813
614.2558
613.7097
613.1945
612.7267
612.3191
611.9804
611.7158
611.5265
611.4108
611.3639
611.3789
611.4473
611.5602
611.7099
611.8912
612.1058
573.7255
572.9429
572.9344
572.9907
573.2922
573.8
574.5272
575.4706
576.6263
577.9865
579.5402
581.2733
583.169
585.2077
587.3675
589.6239
591.951
594.321
596.7048
599.0728
601.3953
603.6427
605.7869
607.8014
609.6621
611.3483
612.8428
614.1329
615.2103
616.0717
616.719
617.1589
617.4026
617.4659
617.368
617.1314
616.7804
616.3407
615.8383
615.2988
614.7461
614.2021
613.686
613.2136
612.7973
612.4457
612.1639
611.9535
611.8129
611.7378
611.7218
611.7568
611.8334
611.942
612.0725
612.216
612.3646
612.5135
612.6616
612.8165
574.1991
574.6492
575.402
576.3558
577.5409
578.9274
580.5073
582.2631
584.1769
586.2279
588.3933
590.6483
592.9663
595.3198
597.6799
600.0178
602.3044
604.5114
606.6119
608.5806
610.3951
612.0359
613.4871
614.7371
615.7788
616.6096
617.2317
617.6522
617.8824
617.9375
617.8363
617.6004
617.2532
616.8195
616.3241
615.7916
615.2452
614.7058
614.192
613.7191
613.2993
612.9409
612.649
612.4252
612.2681
612.1737
612.1359
612.1466
612.1971
612.2777
612.379
612.4918
612.6077
612.7194
612.821
612.9083
612.9792
613.035
613.081
613.1306
578.118
579.9746
581.4426
583.2232
585.1425
587.2011
589.3698
591.6229
593.9331
596.2724
598.6121
600.9236
603.1785
605.3494
607.4104
609.3376
611.1099
612.7089
614.1202
615.3332
616.3418
617.144
617.7428
618.1452
618.3625
618.4098
618.3054
618.0701
617.7267
617.2989
616.8107
616.2858
615.7464
615.2128
614.7029
614.2317
613.811
613.449
613.1508
612.9182
612.75
612.6423
612.5893
612.5832
612.6154
612.6765
612.7571
612.848
612.941
613.0289
613.1057
613.1671
613.2104
613.2344
613.2396
613.2283
613.2051
613.1771
613.1551
613.1566
585.4019
588.3677
590.2878
592.5697
594.8537
597.1772
599.4953
601.7818
604.0078
606.1464
608.1724
610.0628
611.7974
613.3592
614.7347
615.9143
616.8929
617.6693
618.2468
618.6327
618.8384
618.8788
618.7717
618.5374
618.1978
617.7759
617.295
616.7778
616.2459
615.7187
615.2138
614.7455
614.3254
613.9618
613.6595
613.4205
613.244
613.1263
613.0618
613.0432
613.062
613.1092
613.1753
613.2515
613.3293
613.4014
613.462
613.5065
613.5321
613.5377
613.5238
613.4925
613.4477
613.3944
613.3389
613.2889
613.2536
613.2443
613.2751
613.364
594.8834
598.3283
600.3068
602.6182
604.7934
606.9006
608.8912
610.7472
612.4477
613.9763
615.3204
616.471
617.4235
618.1775
618.7366
619.1085
619.3045
619.3394
619.2306
618.998
618.6628
618.2474
617.7741
617.265
616.7409
616.2207
615.7214
615.2569
614.8386
614.4745
614.1696
613.926
613.7429
613.6171
613.5433
613.5145
613.5225
613.5586
613.6137
613.679
613.7463
613.8082
613.8588
613.8935
613.9093
613.9049
613.8807
613.8387
613.7827
613.7176
613.6499
613.5871
613.5377
613.5109
613.5165
613.5648
613.6668
613.8348
614.0825
614.4259
604.7403
607.9054
609.5423
611.4173
613.0609
614.5581
615.8702
616.9941
617.9235
618.6585
619.2027
619.5637
619.7528
619.7845
619.6759
619.4465
619.1169
618.7088
618.244
617.7438
617.2283
616.7159
616.223
615.7632
615.3476
614.9841
614.6778
614.4308
614.2425
614.1101
614.0284
613.9908
613.9897
614.0165
614.0623
614.1188
614.1778
614.2323
614.2762
614.3051
614.3159
614.3072
614.2793
614.234
614.1748
614.1066
614.0356
613.9693
613.916
613.8848
613.8855
613.9281
614.0227
614.1794
614.4077
614.717
615.1164
615.615
616.2229
616.9508
613.0982
615.346
616.37
617.5075
618.393
619.1096
619.6378
619.9893
620.1735
620.2045
620.0987
619.8748
619.5529
619.1541
618.6993
618.2093
617.7037
617.2003
616.715
616.2611
615.8495
615.4879
615.1814
614.9322
614.7399
614.6019
614.5135
614.4685
614.4593
614.4779
614.5159
614.5648
614.617
614.6656
614.7046
614.7297
614.7379
614.7278
614.6996
614.6552
614.5979
614.5325
614.4649
614.4025
614.3533
614.3262
614.3306
614.3764
614.4733
614.6311
614.8592
615.1664
615.5607
616.049
616.6368
617.3286
618.1279
619.0376
620.0607
621.2015
618.663
619.6895
620.0467
620.4051
620.5678
620.5969
620.4923
620.2747
619.962
619.5744
619.1319
618.6544
618.1608
617.6683
617.1924
616.7462
616.3402
615.982
615.6768
615.4269
615.2321
615.09
614.9962
614.9447
614.9286
614.9401
614.971
615.0134
615.0598
615.1035
615.1388
615.1614
615.1685
615.1586
615.1321
615.0908
615.0379
614.9783
614.9178
614.8635
614.8233
614.806
614.8206
614.8765
614.9833
615.1503
615.3863
615.6997
616.098
616.5876
617.1737
617.8603
618.6494
619.5416
620.5355
621.628
622.815
624.0916
625.4537
626.9
621.1248
621.0348
620.8822
620.661
620.3465
619.9672
619.5356
619.0713
618.5912
618.1119
617.6479
617.2118
616.8137
616.4613
616.1596
615.9109
615.7153
615.5707
615.473
615.4166
615.3949
615.4004
615.4254
615.4622
615.5037
615.5433
615.5757
615.5968
615.6037
615.5952
615.5716
615.5348
615.488
615.4358
615.3843
615.3403
615.3117
615.307
615.3351
615.4052
615.5264
615.7077
615.9575
616.2835
616.6929
617.1913
617.7834
618.4725
619.2603
620.1467
621.1301
622.2069
623.3718
624.6176
625.9355
627.3153
628.7461
630.2173
631.72
633.2519
621.1391
620.3438
619.9524
619.4709
618.9985
618.5284
618.0756
617.6506
617.2624
616.9182
616.6226
616.3778
616.184
616.0392
615.9397
615.8803
615.8546
615.8556
615.8761
615.9085
615.9462
615.9828
616.0133
616.0336
616.0412
616.0349
616.0152
615.9838
615.944
615.9006
615.8593
615.827
615.8114
615.8209
615.8642
615.9503
616.0881
616.2861
616.5525
616.8947
617.3191
617.831
618.4346
619.1324
619.9255
620.8134
621.7938
622.8627
624.0145
625.2418
626.5356
627.8855
629.2799
630.706
632.15
633.5982
635.037
636.4548
637.8432
639.2034
619.9051
618.9027
618.5254
618.0713
617.6904
617.3502
617.0605
616.8208
616.631
616.4886
616.3899
616.33
616.3027
616.3015
616.3192
616.3489
616.3842
616.4192
616.4489
616.4696
616.4789
616.4758
616.4607
616.4356
616.4037
616.3698
616.3396
616.3199
616.3183
616.3429
616.4025
616.5057
616.6611
616.8771
617.1614
617.521
617.9621
618.4896
619.107
619.8166
620.6189
621.5128
622.4956
623.5628
624.7084
625.9245
627.202
628.5303
629.8977
631.2915
632.6983
634.1044
635.4957
636.8585
638.1794
639.446
640.648
641.7776
642.8321
643.8198
618.5852
617.7464
617.5233
617.2483
617.0606
616.9164
616.8188
616.7596
616.7328
616.7316
616.749
616.7784
616.8134
616.8486
616.8792
616.9018
616.9141
616.9153
616.906
616.8882
616.8652
616.8416
616.8233
616.8168
616.8299
616.8704
616.9468
617.0676
617.2412
617.4757
617.7785
618.1563
618.6148
619.1586
619.7908
620.5132
621.326
622.2277
623.2153
624.284
625.4272
626.637
627.9039
629.2171
630.5647
631.9342
633.3121
634.6847
636.0385
637.3598
638.6359
639.8547
641.0052
642.0779
643.0646
643.9593
644.7586
645.4623
646.0759
646.6153
617.8702
617.3323
617.2717
617.1782
617.1491
617.144
617.1612
617.1913
617.228
617.2654
617.2991
617.3256
617.3428
617.3501
617.3481
617.3389
617.326
617.3138
617.3083
617.316
617.3444
617.4013
617.495
617.6339
617.8261
618.0793
618.4008
618.7969
619.273
619.8332
620.4804
621.216
622.0398
622.95
623.9432
625.0144
626.1568
627.3623
628.6212
629.9227
631.255
632.6054
633.9604
635.3067
636.6305
637.9188
639.1587
640.3387
641.4481
642.4776
643.4196
644.2683
645.0197
645.6716
646.2239
646.6785
647.0399
647.3158
647.5183
647.6683
617.8705
617.5687
617.5967
617.5984
617.6324
617.6686
617.7051
617.7364
617.7601
617.7753
617.7825
617.7837
617.7824
617.7832
617.7918
617.8148
617.8595
617.9336
618.0453
618.2027
618.4138
618.686
619.0262
619.4406
619.9341
620.5107
621.1728
621.9215
622.7562
623.675
624.674
625.7481
626.8902
628.0922
629.3443
630.6356
631.9544
633.2881
634.6234
635.9472
637.246
638.5067
639.7171
640.8655
641.9416
642.9364
643.8425
644.6543
645.3679
645.9816
646.4952
646.9108
647.2321
647.4644
647.6146
647.6908
647.7031
647.6636
647.5877
647.497
618.3107
618.0985
618.1352
618.1458
618.1708
618.1903
618.2063
618.2186
618.2304
618.2456
618.2699
618.3096
618.3718
618.4644
618.595
618.7717
619.0022
619.2938
619.653
620.0858
620.5968
621.1895
621.8662
622.6277
623.4731
624.4001
625.4048
626.4817
627.6236
628.8223
630.068
631.3498
632.6561
633.9743
635.2915
636.5946
637.8706
639.1067
640.2909
641.412
642.4598
643.4257
644.3025
645.0846
645.7685
646.3522
646.8359
647.2214
647.5126
647.7146
647.8342
647.8795
647.8596
647.7841
647.6634
647.5079
647.3291
647.1393
646.9528
646.7883
618.8594
618.6373
618.6571
618.6559
618.6749
618.701
618.7402
618.797
618.8778
618.9898
619.1405
619.3375
619.5884
619.9
620.2788
620.7302
621.2588
621.8678
622.5591
623.3332
624.189
625.124
626.134
627.2134
628.355
629.5503
630.7896
632.0622
633.3563
634.6597
635.9596
637.2431
638.4976
639.7107
640.8706
641.9664
642.9886
643.9286
644.7796
645.5363
646.1953
646.7549
647.215
647.5776
647.8463
648.0262
648.1238
648.1471
648.1047
648.0061
647.8616
647.6813
647.4754
647.2541
647.0267
646.8023
646.5897
646.398
646.2378
646.1231
619.4018
619.1913
619.2409
619.2896
619.3831
619.5107
619.6803
619.8975
620.1691
620.5014
620.9004
621.3711
621.9178
622.5433
623.2493
624.036
624.9022
625.8451
626.8603
627.942
629.083
630.2749
631.5078
632.771
634.0531
635.3419
636.625
637.8896
639.1234
640.3144
641.4511
642.5231
643.521
644.4369
645.2641
645.9976
646.6343
647.1725
647.6126
647.9564
648.2074
648.3708
648.4527
648.4607
648.4034
648.2899
648.13
647.9335
647.7103
647.4703
647.2227
646.9761
646.7383
646.5164
646.3161
646.1424
645.9999
645.8934
645.8289
645.8165
620.1375
620.0759
620.2515
620.4649
620.7507
621.0994
621.517
622.0064
622.571
623.2132
623.9342
624.7339
625.6106
626.5615
627.5819
628.666
629.8066
630.9949
632.2214
633.4754
634.7456
636.02
637.2864
638.5324
639.746
640.9155
642.0297
643.0788
644.0535
644.9463
645.7509
646.4626
647.0785
647.5972
648.019
648.3461
648.5818
648.7313
648.8008
648.7977
648.7301
648.607
648.4378
648.2319
647.999
647.7483
647.4887
647.2286
646.9755
646.7361
646.5161
646.3203
646.1522
646.0146
645.909
645.8361
645.7967
645.7919
645.8248
645.9031
621.491
621.7629
622.162
622.6505
623.2254
623.8798
624.6138
625.4254
626.3123
627.2711
628.2969
629.3836
630.5237
631.7088
632.9291
634.1741
635.4327
636.6929
637.943
639.1708
640.3646
641.5129
642.6053
643.6319
644.5841
645.4546
646.2375
646.9283
647.5243
648.0245
648.4293
648.7408
648.9626
649.0998
649.1586
649.1461
649.0705
648.9405
648.7652
648.5538
648.3156
648.0596
647.7942
647.5274
647.2664
647.0176
646.7863
646.5771
646.3933
646.2374
646.1111
646.0149
645.9487
645.9115
645.9019
645.9179
645.9581
646.0221
646.1119
646.2351
623.8998
624.6438
625.315
626.1272
627.0145
627.977
629.0058
630.094
631.2333
632.415
633.6293
634.8656
636.1129
637.3595
638.5937
639.8038
640.9782
642.1061
643.1771
644.1818
645.1121
645.9608
646.7225
647.393
647.9699
648.4522
648.8407
649.1374
649.3463
649.4721
649.521
649.5003
649.4179
649.2823
649.1025
648.8874
648.6461
648.3873
648.1193
647.8497
647.5854
647.3325
647.096
646.8802
646.6881
646.5222
646.3836
646.2729
646.1897
646.133
646.1015
646.0931
646.1056
646.1364
646.1829
646.2425
646.3138
646.3963
646.493
646.6127
627.5853
628.8163
629.728
630.8165
631.9429
633.1176
634.3234
635.5501
636.7857
638.0187
639.2374
640.4302
641.5859
642.6939
643.7442
644.7277
645.6366
646.4642
647.2053
647.8561
648.4144
648.8794
649.252
649.5346
649.7309
649.8458
649.8856
649.8573
649.7688
649.6284
649.4449
649.2271
648.9838
648.7236
648.4544
648.1837
647.9182
647.6638
647.4253
647.2068
647.0111
646.8404
646.6957
646.5773
646.4846
646.4167
646.3718
646.3478
646.3423
646.3529
646.377
646.4118
646.4551
646.5046
646.5581
646.6141
646.6722
646.7336
646.8025
646.8895
632.4043
633.984
635.024
636.2492
637.4589
638.6753
639.876
641.0508
642.1876
643.2759
644.3059
645.2688
646.157
646.9642
647.6854
648.317
648.8572
649.3054
649.6627
649.9315
650.1156
650.2201
650.2511
650.2156
650.1213
649.9765
649.7898
649.5698
649.3251
649.0642
648.7947
648.5239
648.2584
648.0037
647.7648
647.5453
647.3482
647.1753
647.0277
646.9054
646.808
646.734
646.6818
646.649
646.6333
646.6318
646.6418
646.6607
646.686
646.7152
646.7464
646.778
646.8087
646.8376
646.864
646.888
646.9106
646.9347
646.9658
647.0158
637.843
639.5111
640.519
641.6891
642.7913
643.8574
644.8647
645.8063
646.6736
647.4606
648.1622
648.7753
649.298
649.73
650.0725
650.3279
650.5003
650.5946
650.6171
650.5746
650.4747
650.3258
650.1361
649.9142
649.6684
649.407
649.1376
648.8672
648.6022
648.3481
648.1095
647.8901
647.6926
647.5189
647.3699
647.2456
647.1455
647.0682
647.0119
646.9743
646.9528
646.9445
646.9467
646.9564
646.9711
646.9883
647.0057
647.0217
647.0348
647.044
647.0489
647.0491
647.0452
647.0375
647.027
647.0151
647.004
646.9974
647.0019
647.0296
643.1593
644.6133
645.4318
646.3643
647.1951
647.9594
648.639
649.2327
649.7376
650.1534
650.4812
650.7237
650.8847
650.9692
650.9834
650.9341
650.829
650.676
650.4834
650.2597
650.013
649.7513
649.4822
649.2124
648.9481
648.6948
648.457
648.2381
648.0409
647.8671
647.7175
647.5923
647.4907
647.4114
647.3525
647.3118
647.2867
647.2743
647.2718
647.2763
647.285
647.2954
647.3051
647.3123
647.3153
647.313
647.3048
647.2902
647.2694
647.2429
647.2117
647.1768
647.1398
647.1022
647.0658
647.0325
647.0052
646.9877
646.9867
647.014
647.6159
648.6082
649.1333
649.7127
650.1853
650.582
650.8926
651.121
651.27
651.3446
651.3505
651.2946
651.1842
651.0273
650.832
650.6064
650.3588
650.0969
649.828
649.5589
649.2955
649.0432
648.8062
648.5881
648.3914
648.2178
648.0681
647.9424
647.8399
647.7593
647.6988
647.656
647.6284
647.6132
647.6076
647.6086
647.6135
647.6197
647.6249
647.6271
647.6246
647.6161
647.6008
647.5781
647.548
647.5109
647.4673
647.4184
647.3653
647.3096
647.2529
647.1973
647.1445
647.0964
647.0549
647.0219
646.9999
646.9926
647.0059
647.0513
650.712
651.1244
651.334
651.5419
651.6668
651.7276
651.7225
651.6585
651.5421
651.3809
651.1825
650.9551
650.7065
650.4443
650.1756
649.907
649.6445
649.393
649.1569
648.9396
648.7435
648.5703
648.4207
648.2947
648.1916
648.11
648.0482
648.0039
647.9745
647.9572
647.9492
647.9477
647.9499
647.9532
647.9554
647.9544
647.9485
647.9364
647.9172
647.8903
647.8555
647.8129
647.7631
647.7068
647.6452
647.5795
647.5112
647.442
647.3736
647.3078
647.2464
647.1912
647.1439
647.106
647.0789
647.0639
647.0631
647.0793
647.1179
647.1895
652.3191
652.1865
652.1373
652.0463
651.9142
651.744
651.5398
651.3088
651.0582
650.795
650.5262
650.2579
649.9959
649.7452
649.5099
649.2932
649.0976
648.9246
648.775
648.6488
648.5451
648.4628
648.3999
648.3542
648.3232
648.3041
648.2943
648.2907
648.2908
648.292
648.292
648.2887
648.2806
648.2661
648.2445
648.2151
648.1776
648.1322
648.0793
648.0195
647.9539
647.8834
647.8095
647.7336
647.6571
647.5817
647.509
647.4404
647.3776
647.3219
647.2748
647.2374
647.2109
647.1962
647.1938
647.2045
647.2294
647.2708
647.3336
647.4277
652.6756
652.1532
651.9506
651.6865
651.4264
651.1569
650.8849
650.6151
650.3525
650.1018
649.8667
649.6502
649.4548
649.2819
649.132
649.0053
648.901
648.8177
648.7536
648.7066
648.6741
648.6534
648.6417
648.6364
648.6346
648.6339
648.6321
648.6271
648.6172
648.6011
648.5779
648.5469
648.5079
648.4609
648.4063
648.3448
648.2772
648.2046
648.1282
648.0493
647.9693
647.8895
647.8114
647.7363
647.6655
647.6003
647.5417
647.4908
647.4485
647.4156
647.3928
647.3805
647.3793
647.3892
647.4104
647.443
647.4876
647.5461
647.6229
647.7281
652.2548
651.5489
651.3045
650.9968
650.7277
650.4708
650.233
650.0148
649.8183
649.6445
649.4938
649.3661
649.2607
649.1761
649.1106
649.0619
649.0277
649.0051
648.9917
648.9844
648.9808
648.9784
648.9748
648.9682
648.9568
648.9393
648.9149
648.8828
648.8427
648.7949
648.7394
648.6771
648.6087
648.5352
648.4578
648.3776
648.2961
648.2146
648.1342
648.0563
647.982
647.9124
647.8483
647.7907
647.7402
647.6973
647.6626
647.6364
647.6188
647.6101
647.6102
647.6192
647.637
647.6634
647.698
647.7408
647.7922
647.854
647.9308
648.0326
651.5745
650.8685
650.664
650.4053
650.2022
650.0211
649.8666
649.7358
649.6279
649.541
649.4732
649.4223
649.3858
649.361
649.3453
649.3358
649.3301
649.3257
649.3202
649.3119
649.299
649.2802
649.2546
649.2215
649.1807
649.1321
649.0762
649.0135
648.9447
648.871
648.7933
648.7128
648.6309
648.5488
648.4677
648.3887
648.313
648.2415
648.1751
648.1145
648.0602
648.0126
647.972
647.9386
647.9122
647.893
647.8807
647.8751
647.876
647.8831
647.8961
647.9148
647.9389
647.9682
648.0024
648.0414
648.0859
648.138
648.2024
648.2897
651.0307
650.4348
650.3052
650.1335
650.0171
649.9214
649.8483
649.7929
649.7526
649.7244
649.7055
649.6931
649.6846
649.6776
649.6698
649.6594
649.6446
649.6242
649.5972
649.563
649.5213
649.4721
649.4158
649.3527
649.2838
649.21
649.1324
649.052
648.9702
648.8881
648.807
648.7279
648.6518
648.5797
648.5124
648.4505
648.3945
648.3448
648.3014
648.2645