/*--------------------------------*- C++ -*----------------------------------*\
| =========                 |                                                 |
| \\      /  F ield         | OpenFOAM: The Open Source CFD Toolbox           |
|  \\    /   O peration     | Version:  2312                                  |
|   \\  /    A nd           | Website:  www.openfoam.com                      |
|    \\/     M anipulation  |                                                 |
\*---------------------------------------------------------------------------*/
FoamFile
{
    version     2.0;
    format      ascii;
    arch        "LSB;label=32;scalar=64";
    class       volScalarField;
    location    "3300";
    object      ILambda_6_0;
}
// * * * * * * * * * * * * * * * * * * * * * * * * * * * * * * * * * * * * * //

dimensions      [1 0 -3 0 0 0 0];

internalField   nonuniform List<scalar> 
12000
(
1748.615
1746.639
1744.514
1741.906
1738.594
1734.513
1729.742
1724.493
1719.089
1713.919
1709.378
1705.789
1703.343
1702.06
1701.801
1702.298
1703.211
1704.192
1704.931
1705.195
1704.848
1703.846
1702.239
1700.144
1697.729
1695.191
1692.73
1690.529
1688.735
1687.449
1686.718
1686.532
1686.834
1687.527
1688.491
1689.595
1690.712
1691.735
1692.581
1693.197
1693.565
1693.69
1693.604
1693.348
1692.972
1692.523
1692.036
1691.538
1691.034
1690.52
1689.977
1689.38
1688.699
1687.909
1686.989
1685.929
1684.746
1683.382
1682.182
1679.766
1746.411
1744.044
1740.506
1735.879
1730.432
1724.527
1718.606
1713.159
1708.662
1705.479
1703.78
1703.497
1704.346
1705.899
1707.671
1709.213
1710.175
1710.341
1709.632
1708.094
1705.869
1703.169
1700.238
1697.328
1694.676
1692.476
1690.868
1689.925
1689.653
1689.993
1690.836
1692.035
1693.427
1694.85
1696.163
1697.255
1698.055
1698.533
1698.696
1698.583
1698.252
1697.771
1697.206
1696.612
1696.028
1695.471
1694.94
1694.414
1693.861
1693.243
1692.522
1691.668
1690.662
1689.5
1688.196
1686.773
1685.28
1683.703
1682.355
1680.019
1744.754
1739.973
1734.397
1728.453
1722.524
1717.018
1712.382
1709.009
1707.118
1706.674
1707.401
1708.854
1710.532
1711.974
1712.836
1712.915
1712.15
1710.598
1708.401
1705.76
1702.905
1700.07
1697.474
1695.302
1693.686
1692.703
1692.362
1692.612
1693.352
1694.444
1695.733
1697.064
1698.3
1699.333
1700.096
1700.557
1700.723
1700.63
1700.333
1699.894
1699.377
1698.832
1698.295
1697.782
1697.291
1696.802
1696.283
1695.699
1695.012
1694.193
1693.225
1692.104
1690.842
1689.464
1688.007
1686.514
1685.04
1683.577
1682.374
1680.425
1737.974
1731.762
1725.802
1720.225
1715.354
1711.639
1709.427
1708.787
1709.473
1711.01
1712.844
1714.465
1715.496
1715.72
1715.072
1713.608
1711.469
1708.853
1705.984
1703.097
1700.414
1698.129
1696.391
1695.289
1694.846
1695.024
1695.725
1696.813
1698.127
1699.508
1700.808
1701.912
1702.743
1703.264
1703.478
1703.418
1703.138
1702.703
1702.18
1701.622
1701.069
1700.542
1700.04
1699.547
1699.032
1698.458
1697.788
1696.991
1696.046
1694.946
1693.701
1692.336
1690.885
1689.394
1687.911
1686.478
1685.142
1683.888
1682.901
1681.352
1728.728
1723.562
1718.675
1714.586
1711.938
1711.026
1711.668
1713.333
1715.366
1717.179
1718.354
1718.669
1718.07
1716.627
1714.49
1711.856
1708.948
1705.998
1703.231
1700.849
1699.008
1697.812
1697.294
1697.42
1698.098
1699.189
1700.527
1701.945
1703.29
1704.438
1705.307
1705.857
1706.089
1706.036
1705.754
1705.311
1704.775
1704.204
1703.641
1703.108
1702.607
1702.122
1701.622
1701.07
1700.427
1699.658
1698.741
1697.667
1696.443
1695.092
1693.65
1692.162
1690.676
1689.24
1687.896
1686.671
1685.59
1684.615
1683.885
1682.673
1722.325
1718.019
1714.565
1713.109
1713.652
1715.515
1717.834
1719.886
1721.209
1721.595
1721.025
1719.594
1717.465
1714.829
1711.903
1708.91
1706.074
1703.6
1701.658
1700.362
1699.759
1699.824
1700.467
1701.551
1702.905
1704.356
1705.743
1706.936
1707.846
1708.43
1708.687
1708.648
1708.372
1707.927
1707.384
1706.805
1706.233
1705.695
1705.193
1704.713
1704.226
1703.691
1703.07
1702.327
1701.435
1700.384
1699.179
1697.842
1696.406
1694.917
1693.426
1691.981
1690.627
1689.395
1688.306
1687.361
1686.56
1685.834
1685.309
1684.261
1718.355
1714.802
1715.104
1717.458
1720.323
1722.722
1724.185
1724.591
1724.002
1722.56
1720.437
1717.812
1714.88
1711.852
1708.947
1706.378
1704.325
1702.919
1702.221
1702.216
1702.82
1703.894
1705.264
1706.749
1708.18
1709.42
1710.375
1710.995
1711.277
1711.254
1710.982
1710.534
1709.982
1709.391
1708.807
1708.26
1707.755
1707.278
1706.8
1706.283
1705.683
1704.965
1704.099
1703.073
1701.888
1700.564
1699.135
1697.646
1696.148
1694.692
1693.324
1692.08
1690.981
1690.035
1689.233
1688.55
1687.965
1687.388
1686.959
1685.876
1712.749
1718.615
1723.073
1725.969
1727.424
1727.676
1726.964
1725.481
1723.376
1720.789
1717.876
1714.827
1711.856
1709.186
1707.015
1705.491
1704.691
1704.61
1705.17
1706.231
1707.616
1709.135
1710.612
1711.901
1712.901
1713.558
1713.867
1713.858
1713.591
1713.138
1712.576
1711.971
1711.375
1710.817
1710.307
1709.832
1709.364
1708.862
1708.284
1707.591
1706.751
1705.749
1704.584
1703.273
1701.851
1700.361
1698.855
1697.386
1696.002
1694.741
1693.629
1692.675
1691.872
1691.199
1690.624
1690.105
1689.612
1689.049
1688.593
1687.324
1729.653
1730.782
1731.07
1730.689
1729.741
1728.258
1726.255
1723.773
1720.917
1717.859
1714.819
1712.039
1709.738
1708.085
1707.173
1707.011
1707.522
1708.568
1709.967
1711.52
1713.043
1714.381
1715.427
1716.122
1716.458
1716.464
1716.201
1715.743
1715.17
1714.551
1713.94
1713.371
1712.855
1712.38
1711.92
1711.433
1710.876
1710.207
1709.393
1708.415
1707.27
1705.973
1704.556
1703.064
1701.549
1700.066
1698.664
1697.385
1696.257
1695.291
1694.483
1693.812
1693.249
1692.752
1692.279
1691.786
1691.251
1690.585
1690.009
1688.498
1732.112
1732.243
1731.827
1730.804
1729.134
1726.849
1724.066
1720.982
1717.849
1714.937
1712.491
1710.7
1709.672
1709.422
1709.882
1710.91
1712.32
1713.907
1715.476
1716.864
1717.958
1718.692
1719.055
1719.076
1718.817
1718.354
1717.768
1717.134
1716.508
1715.926
1715.402
1714.926
1714.472
1713.999
1713.462
1712.818
1712.029
1711.075
1709.95
1708.667
1707.257
1705.763
1704.238
1702.738
1701.316
1700.017
1698.869
1697.889
1697.072
1696.401
1695.845
1695.364
1694.913
1694.451
1693.94
1693.35
1692.675
1691.848
1691.121
1689.414
1735.034
1734.148
1732.536
1730.237
1727.383
1724.189
1720.921
1717.861
1715.266
1713.336
1712.19
1711.852
1712.256
1713.263
1714.681
1716.299
1717.914
1719.354
1720.496
1721.269
1721.66
1721.697
1721.441
1720.972
1720.374
1719.723
1719.081
1718.485
1717.951
1717.473
1717.024
1716.564
1716.046
1715.425
1714.663
1713.733
1712.628
1711.36
1709.955
1708.459
1706.924
1705.407
1703.965
1702.642
1701.473
1700.475
1699.647
1698.972
1698.419
1697.95
1697.518
1697.08
1696.598
1696.04
1695.389
1694.635
1693.794
1692.82
1691.974
1690.191
1735.546
1733.333
1730.506
1727.284
1723.944
1720.78
1718.062
1716.005
1714.742
1714.31
1714.652
1715.631
1717.053
1718.701
1720.362
1721.854
1723.044
1723.859
1724.278
1724.331
1724.078
1723.602
1722.991
1722.323
1721.662
1721.05
1720.506
1720.024
1719.578
1719.129
1718.63
1718.032
1717.295
1716.39
1715.306
1714.052
1712.655
1711.156
1709.611
1708.077
1706.612
1705.266
1704.073
1703.054
1702.212
1701.529
1700.978
1700.516
1700.1
1699.684
1699.227
1698.697
1698.073
1697.348
1696.525
1695.616
1694.651
1693.601
1692.712
1690.984
1733.731
1730.489
1727.078
1723.803
1720.948
1718.747
1717.349
1716.807
1717.074
1718.016
1719.438
1721.114
1722.821
1724.366
1725.608
1726.464
1726.912
1726.98
1726.73
1726.247
1725.62
1724.933
1724.253
1723.625
1723.068
1722.58
1722.136
1721.697
1721.215
1720.639
1719.927
1719.048
1717.986
1716.748
1715.358
1713.858
1712.302
1710.751
1709.263
1707.891
1706.673
1705.632
1704.772
1704.079
1703.525
1703.07
1702.666
1702.268
1701.833
1701.328
1700.729
1700.028
1699.228
1698.34
1697.387
1696.391
1695.388
1694.352
1693.503
1691.919
1730.14
1726.81
1723.844
1721.507
1719.976
1719.321
1719.509
1720.413
1721.834
1723.54
1725.295
1726.896
1728.19
1729.089
1729.566
1729.648
1729.399
1728.907
1728.265
1727.559
1726.858
1726.21
1725.639
1725.143
1724.699
1724.268
1723.802
1723.248
1722.562
1721.708
1720.669
1719.447
1718.066
1716.565
1715
1713.431
1711.919
1710.52
1709.275
1708.21
1707.331
1706.626
1706.067
1705.614
1705.221
1704.838
1704.423
1703.94
1703.364
1702.685
1701.904
1701.033
1700.094
1699.113
1698.117
1697.128
1696.176
1695.225
1694.469
1693.041
1726.659
1724.274
1722.631
1721.864
1721.97
1722.83
1724.248
1725.983
1727.788
1729.446
1730.794
1731.736
1732.242
1732.338
1732.09
1731.588
1730.929
1730.201
1729.477
1728.809
1728.221
1727.715
1727.269
1726.845
1726.393
1725.861
1725.199
1724.371
1723.355
1722.151
1720.78
1719.28
1717.705
1716.118
1714.583
1713.156
1711.883
1710.792
1709.892
1709.172
1708.606
1708.154
1707.769
1707.4
1707.002
1706.538
1705.983
1705.323
1704.559
1703.703
1702.777
1701.805
1700.817
1699.838
1698.89
1697.985
1697.137
1696.294
1695.638
1694.301
1725.139
1724.375
1724.427
1725.251
1726.67
1728.437
1730.296
1732.016
1733.421
1734.409
1734.944
1735.052
1734.804
1734.291
1733.613
1732.863
1732.116
1731.425
1730.819
1730.3
1729.849
1729.429
1728.99
1728.478
1727.841
1727.039
1726.047
1724.862
1723.501
1722.002
1720.419
1718.815
1717.255
1715.799
1714.497
1713.378
1712.455
1711.719
1711.145
1710.692
1710.313
1709.956
1709.575
1709.129
1708.593
1707.95
1707.201
1706.358
1705.44
1704.475
1703.492
1702.519
1701.576
1700.68
1699.838
1699.045
1698.302
1697.537
1696.94
1695.58
1726.694
1727.613
1729.074
1730.893
1732.817
1734.606
1736.073
1737.108
1737.673
1737.794
1737.543
1737.018
1736.321
1735.548
1734.776
1734.061
1733.434
1732.9
1732.442
1732.023
1731.595
1731.101
1730.488
1729.712
1728.745
1727.58
1726.23
1724.734
1723.142
1721.521
1719.937
1718.452
1717.119
1715.971
1715.024
1714.27
1713.685
1713.23
1712.856
1712.51
1712.144
1711.716
1711.197
1710.57
1709.835
1709.002
1708.091
1707.13
1706.15
1705.177
1704.237
1703.345
1702.51
1701.73
1700.996
1700.29
1699.602
1698.845
1698.238
1696.734
1731.272
1733.285
1735.325
1737.204
1738.745
1739.833
1740.43
1740.563
1740.309
1739.771
1739.054
1738.256
1737.459
1736.719
1736.069
1735.518
1735.049
1734.629
1734.209
1733.733
1733.143
1732.393
1731.451
1730.306
1728.969
1727.475
1725.877
1724.238
1722.629
1721.115
1719.75
1718.572
1717.598
1716.825
1716.228
1715.769
1715.398
1715.063
1714.711
1714.301
1713.799
1713.188
1712.465
1711.641
1710.735
1709.777
1708.795
1707.821
1706.879
1705.988
1705.156
1704.383
1703.661
1702.974
1702.3
1701.612
1700.901
1700.071
1699.382
1697.645
1737.689
1739.759
1741.413
1742.573
1743.209
1743.357
1743.101
1742.548
1741.811
1740.99
1740.167
1739.401
1738.727
1738.156
1737.674
1737.25
1736.836
1736.374
1735.806
1735.082
1734.166
1733.042
1731.719
1730.229
1728.623
1726.968
1725.334
1723.789
1722.391
1721.181
1720.18
1719.385
1718.774
1718.31
1717.943
1717.616
1717.279
1716.885
1716.4
1715.805
1715.095
1714.279
1713.377
1712.418
1711.434
1710.455
1709.509
1708.614
1707.782
1707.013
1706.3
1705.625
1704.969
1704.306
1703.613
1702.86
1702.047
1701.077
1700.255
1698.252
1743.971
1745.275
1745.99
1746.169
1745.913
1745.347
1744.591
1743.748
1742.902
1742.11
1741.411
1740.816
1740.318
1739.887
1739.475
1739.026
1738.48
1737.782
1736.891
1735.789
1734.48
1732.995
1731.383
1729.711
1728.052
1726.475
1725.043
1723.8
1722.769
1721.951
1721.326
1720.855
1720.489
1720.172
1719.848
1719.471
1719.003
1718.423
1717.725
1716.917
1716.019
1715.06
1714.071
1713.086
1712.133
1711.232
1710.396
1709.627
1708.918
1708.253
1707.611
1706.968
1706.297
1705.574
1704.779
1703.893
1702.924
1701.782
1700.807
1698.559
1748.673
1748.964
1748.733
1748.157
1747.385
1746.525
1745.66
1744.846
1744.121
1743.502
1742.984
1742.541
1742.13
1741.692
1741.165
1740.492
1739.628
1738.549
1737.256
1735.776
1734.158
1732.47
1730.784
1729.175
1727.708
1726.429
1725.367
1724.524
1723.883
1723.404
1723.039
1722.729
1722.419
1722.058
1721.608
1721.044
1720.358
1719.559
1718.664
1717.703
1716.709
1715.716
1714.754
1713.844
1713.002
1712.23
1711.522
1710.863
1710.232
1709.605
1708.954
1708.254
1707.485
1706.629
1705.678
1704.622
1703.48
1702.172
1701.058
1698.627
1751.547
1750.939
1750.16
1749.303
1748.434
1747.607
1746.86
1746.215
1745.674
1745.216
1744.801
1744.372
1743.864
1743.216
1742.378
1741.323
1740.046
1738.573
1736.95
1735.245
1733.532
1731.89
1730.386
1729.071
1727.976
1727.106
1726.446
1725.958
1725.592
1725.29
1724.993
1724.649
1724.216
1723.668
1722.995
1722.204
1721.312
1720.35
1719.35
1718.348
1717.376
1716.456
1715.605
1714.828
1714.118
1713.462
1712.839
1712.224
1711.589
1710.91
1710.163
1709.333
1708.406
1707.379
1706.253
1705.029
1703.735
1702.295
1701.081
1698.542
1752.675
1752.001
1751.205
1750.39
1749.625
1748.952
1748.385
1747.909
1747.489
1747.066
1746.577
1745.954
1745.144
1744.113
1742.853
1741.387
1739.759
1738.037
1736.298
1734.622
1733.079
1731.726
1730.595
1729.697
1729.017
1728.518
1728.151
1727.855
1727.571
1727.243
1726.827
1726.296
1725.636
1724.853
1723.965
1723.001
1721.996
1720.985
1720.001
1719.07
1718.209
1717.424
1716.71
1716.055
1715.437
1714.831
1714.21
1713.547
1712.821
1712.012
1711.108
1710.104
1709.001
1707.802
1706.52
1705.162
1703.76
1702.238
1700.967
1698.389
1753.975
1753.191
1752.405
1751.701
1751.106
1750.614
1750.189
1749.775
1749.304
1748.707
1747.925
1746.919
1745.678
1744.219
1742.588
1740.849
1739.083
1737.371
1735.789
1734.396
1733.228
1732.299
1731.596
1731.085
1730.714
1730.424
1730.152
1729.84
1729.443
1728.928
1728.282
1727.508
1726.624
1725.659
1724.647
1723.626
1722.63
1721.687
1720.815
1720.02
1719.302
1718.645
1718.03
1717.431
1716.821
1716.173
1715.463
1714.673
1713.789
1712.806
1711.722
1710.544
1709.282
1707.946
1706.552
1705.109
1703.647
1702.091
1700.801
1698.232
1754.96
1754.354
1753.793
1753.313
1752.897
1752.496
1752.046
1751.476
1750.723
1749.744
1748.523
1747.072
1745.437
1743.682
1741.888
1740.14
1738.517
1737.081
1735.875
1734.913
1734.185
1733.66
1733.285
1732.999
1732.738
1732.443
1732.063
1731.565
1730.934
1730.17
1729.29
1728.323
1727.305
1726.273
1725.265
1724.309
1723.424
1722.62
1721.894
1721.235
1720.621
1720.028
1719.427
1718.792
1718.096
1717.322
1716.456
1715.489
1714.424
1713.263
1712.017
1710.698
1709.32
1707.896
1706.441
1704.961
1703.482
1701.926
1700.644
1698.109
1756.344
1755.981
1755.604
1755.224
1754.796
1754.255
1753.534
1752.585
1751.386
1749.947
1748.308
1746.537
1744.716
1742.931
1741.265
1739.785
1738.537
1737.54
1736.786
1736.243
1735.862
1735.58
1735.33
1735.05
1734.688
1734.208
1733.591
1732.837
1731.962
1730.994
1729.97
1728.928
1727.907
1726.936
1726.038
1725.223
1724.489
1723.826
1723.213
1722.624
1722.031
1721.406
1720.724
1719.965
1719.113
1718.162
1717.111
1715.964
1714.732
1713.427
1712.062
1710.652
1709.211
1707.748
1706.275
1704.794
1703.326
1701.79
1700.526
1698.034
1758.158
1757.882
1757.515
1757.023
1756.348
1755.438
1754.266
1752.842
1751.203
1749.417
1747.567
1745.744
1744.034
1742.508
1741.216
1740.181
1739.398
1738.837
1738.448
1738.168
1737.928
1737.663
1737.319
1736.857
1736.255
1735.512
1734.642
1733.673
1732.642
1731.591
1730.556
1729.571
1728.659
1727.831
1727.089
1726.42
1725.806
1725.221
1724.635
1724.02
1723.35
1722.604
1721.766
1720.828
1719.79
1718.655
1717.434
1716.139
1714.785
1713.386
1711.955
1710.505
1709.044
1707.58
1706.117
1704.654
1703.209
1701.7
1700.459
1698.01
1760.027
1759.715
1759.14
1758.292
1757.16
1755.755
1754.119
1752.32
1750.442
1748.581
1746.826
1745.253
1743.914
1742.839
1742.024
1741.442
1741.043
1740.763
1740.532
1740.283
1739.957
1739.513
1738.927
1738.195
1737.33
1736.361
1735.324
1734.261
1733.213
1732.213
1731.286
1730.445
1729.693
1729.018
1728.403
1727.82
1727.24
1726.635
1725.976
1725.242
1724.417
1723.491
1722.464
1721.34
1720.128
1718.841
1717.494
1716.102
1714.68
1713.238
1711.787
1710.334
1708.884
1707.438
1705.999
1704.561
1703.143
1701.661
1700.442
1698.039
1761.804
1761.098
1760.04
1758.672
1757.048
1755.24
1753.339
1751.442
1749.642
1748.02
1746.633
1745.515
1744.665
1744.059
1743.648
1743.367
1743.145
1742.91
1742.602
1742.176
1741.606
1740.885
1740.027
1739.057
1738.014
1736.941
1735.878
1734.862
1733.92
1733.066
1732.303
1731.621
1731.003
1730.422
1729.848
1729.251
1728.603
1727.881
1727.068
1726.154
1725.138
1724.023
1722.818
1721.537
1720.196
1718.809
1717.391
1715.955
1714.511
1713.066
1711.625
1710.191
1708.763
1707.343
1705.93
1704.519
1703.127
1701.673
1700.478
1698.124
1762.754
1761.522
1759.957
1758.164
1756.25
1754.322
1752.48
1750.81
1749.374
1748.21
1747.323
1746.691
1746.266
1745.982
1745.766
1745.545
1745.255
1744.848
1744.294
1743.585
1742.733
1741.763
1740.714
1739.63
1738.553
1737.521
1736.562
1735.693
1734.918
1734.229
1733.608
1733.027
1732.459
1731.87
1731.233
1730.522
1729.721
1728.819
1727.812
1726.705
1725.507
1724.232
1722.894
1721.51
1720.095
1718.661
1717.221
1715.781
1714.347
1712.92
1711.503
1710.094
1708.693
1707.299
1705.912
1704.528
1703.163
1701.739
1700.57
1698.266
1762.738
1761.041
1759.151
1757.21
1755.334
1753.619
1752.135
1750.925
1749.999
1749.338
1748.896
1748.607
1748.397
1748.189
1747.916
1747.528
1746.991
1746.294
1745.448
1744.479
1743.424
1742.329
1741.237
1740.188
1739.212
1738.328
1737.541
1736.843
1736.217
1735.638
1735.073
1734.492
1733.865
1733.166
1732.377
1731.485
1730.489
1729.39
1728.198
1726.927
1725.592
1724.209
1722.795
1721.363
1719.924
1718.486
1717.055
1715.633
1714.223
1712.822
1711.431
1710.048
1708.673
1707.305
1705.945
1704.589
1703.254
1701.862
1700.722
1698.465
1761.896
1760.035
1758.17
1756.432
1754.909
1753.656
1752.691
1752
1751.54
1751.245
1751.038
1750.843
1750.588
1750.218
1749.697
1749.014
1748.175
1747.206
1746.145
1745.039
1743.931
1742.865
1741.871
1740.971
1740.17
1739.463
1738.833
1738.253
1737.692
1737.119
1736.501
1735.814
1735.036
1734.156
1733.168
1732.077
1730.892
1729.624
1728.291
1726.909
1725.495
1724.062
1722.623
1721.185
1719.755
1718.336
1716.929
1715.534
1714.149
1712.774
1711.408
1710.051
1708.702
1707.362
1706.032
1704.708
1703.405
1702.044
1700.931
1698.707
1760.828
1759.185
1757.67
1756.391
1755.393
1754.674
1754.195
1753.894
1753.692
1753.508
1753.27
1752.918
1752.415
1751.744
1750.912
1749.944
1748.878
1747.76
1746.637
1745.552
1744.54
1743.622
1742.807
1742.09
1741.454
1740.873
1740.316
1739.75
1739.142
1738.465
1737.699
1736.83
1735.852
1734.769
1733.589
1732.325
1730.993
1729.611
1728.196
1726.762
1725.321
1723.882
1722.452
1721.033
1719.627
1718.235
1716.854
1715.484
1714.125
1712.775
1711.435
1710.105
1708.786
1707.477
1706.179
1704.886
1703.612
1702.276
1701.183
1698.969
1760.263
1759.062
1758.071
1757.341
1756.853
1756.55
1756.355
1756.185
1755.964
1755.631
1755.145
1754.487
1753.662
1752.694
1751.622
1750.492
1749.353
1748.25
1747.218
1746.283
1745.452
1744.724
1744.081
1743.499
1742.945
1742.385
1741.787
1741.121
1740.367
1739.508
1738.541
1737.465
1736.29
1735.03
1733.699
1732.317
1730.901
1729.464
1728.021
1726.58
1725.148
1723.728
1722.322
1720.93
1719.551
1718.184
1716.828
1715.482
1714.148
1712.826
1711.515
1710.216
1708.929
1707.652
1706.384
1705.117
1703.863
1702.538
1701.452
1699.222
1760.531
1759.924
1759.48
1759.198
1759.02
1758.869
1758.668
1758.355
1757.887
1757.242
1756.425
1755.458
1754.38
1753.238
1752.082
1750.959
1749.908
1748.952
1748.106
1747.365
1746.715
1746.13
1745.579
1745.025
1744.437
1743.782
1743.039
1742.192
1741.234
1740.166
1738.997
1737.74
1736.411
1735.028
1733.609
1732.17
1730.724
1729.28
1727.846
1726.424
1725.017
1723.624
1722.244
1720.878
1719.523
1718.18
1716.848
1715.53
1714.224
1712.932
1711.654
1710.387
1709.131
1707.88
1706.634
1705.38
1704.131
1702.801
1701.706
1699.434
1761.906
1761.77
1761.657
1761.544
1761.373
1761.086
1760.639
1760.01
1759.202
1758.236
1757.152
1755.998
1754.824
1753.681
1752.608
1751.633
1750.769
1750.015
1749.356
1748.768
1748.218
1747.671
1747.091
1746.448
1745.717
1744.881
1743.933
1742.873
1741.71
1740.455
1739.127
1737.744
1736.323
1734.881
1733.431
1731.984
1730.546
1729.122
1727.712
1726.318
1724.937
1723.57
1722.214
1720.871
1719.541
1718.224
1716.92
1715.632
1714.359
1713.1
1711.852
1710.613
1709.379
1708.144
1706.903
1705.646
1704.385
1703.031
1701.913
1699.582
1764.091
1764.137
1764.046
1763.806
1763.392
1762.785
1761.989
1761.027
1759.938
1758.772
1757.581
1756.417
1755.321
1754.324
1753.441
1752.673
1752.005
1751.413
1750.864
1750.322
1749.751
1749.119
1748.399
1747.575
1746.637
1745.586
1744.428
1743.177
1741.85
1740.466
1739.042
1737.597
1736.143
1734.692
1733.251
1731.823
1730.411
1729.014
1727.632
1726.262
1724.906
1723.561
1722.23
1720.912
1719.609
1718.322
1717.051
1715.796
1714.554
1713.323
1712.1
1710.877
1709.65
1708.413
1707.16
1705.882
1704.592
1703.202
1702.05
1699.656
1766.529
1766.449
1766.115
1765.553
1764.781
1763.828
1762.737
1761.56
1760.352
1759.166
1758.047
1757.028
1756.125
1755.341
1754.662
1754.065
1753.516
1752.979
1752.417
1751.795
1751.087
1750.275
1749.347
1748.304
1747.152
1745.905
1744.579
1743.194
1741.768
1740.319
1738.861
1737.406
1735.96
1734.529
1733.113
1731.714
1730.329
1728.957
1727.599
1726.252
1724.919
1723.599
1722.294
1721.006
1719.735
1718.481
1717.243
1716.017
1714.8
1713.587
1712.372
1711.149
1709.911
1708.653
1707.372
1706.059
1704.73
1703.299
1702.111
1699.66
1768.663
1768.246
1767.544
1766.622
1765.54
1764.357
1763.134
1761.928
1760.786
1759.743
1758.82
1758.018
1757.328
1756.725
1756.175
1755.643
1755.088
1754.477
1753.781
1752.98
1752.063
1751.029
1749.883
1748.639
1747.314
1745.928
1744.499
1743.047
1741.585
1740.125
1738.675
1737.24
1735.821
1734.418
1733.03
1731.656
1730.295
1728.946
1727.609
1726.286
1724.979
1723.689
1722.416
1721.161
1719.923
1718.7
1717.487
1716.28
1715.073
1713.861
1712.636
1711.393
1710.128
1708.835
1707.515
1706.161
1704.792
1703.322
1702.102
1699.61
1770.138
1769.345
1768.316
1767.149
1765.921
1764.699
1763.536
1762.47
1761.525
1760.706
1760.003
1759.393
1758.842
1758.313
1757.766
1757.165
1756.481
1755.692
1754.785
1753.76
1752.62
1751.38
1750.057
1748.669
1747.238
1745.781
1744.314
1742.85
1741.395
1739.956
1738.533
1737.127
1735.736
1734.359
1732.995
1731.643
1730.303
1728.977
1727.666
1726.372
1725.096
1723.839
1722.6
1721.377
1720.166
1718.963
1717.761
1716.556
1715.341
1714.11
1712.857
1711.58
1710.276
1708.942
1707.581
1706.187
1704.783
1703.284
1702.041
1699.525
1770.921
1769.869
1768.682
1767.464
1766.289
1765.205
1764.24
1763.403
1762.687
1762.069
1761.516
1760.99
1760.45
1759.86
1759.187
1758.41
1757.514
1756.497
1755.364
1754.128
1752.806
1751.417
1749.983
1748.522
1747.051
1745.581
1744.122
1742.678
1741.251
1739.841
1738.447
1737.067
1735.7
1734.344
1733.001
1731.671
1730.356
1729.058
1727.779
1726.518
1725.277
1724.052
1722.841
1721.639
1720.441
1719.241
1718.032
1716.809
1715.567
1714.302
1713.011
1711.692
1710.345
1708.972
1707.574
1706.151
1704.722
1703.204
1701.95
1699.423
1771.263
1770.155
1769.014
1767.931
1766.956
1766.106
1765.378
1764.753
1764.197
1763.674
1763.141
1762.561
1761.9
1761.134
1760.249
1759.242
1758.115
1756.883
1755.562
1754.172
1752.735
1751.27
1749.794
1748.319
1746.855
1745.406
1743.975
1742.562
1741.164
1739.781
1738.41
1737.051
1735.704
1734.369
1733.05
1731.748
1730.464
1729.2
1727.955
1726.728
1725.515
1724.313
1723.117
1721.919
1720.715
1719.498
1718.264
1717.007
1715.726
1714.418
1713.085
1711.725
1710.342
1708.937
1707.514
1706.072
1704.63
1703.104
1701.845
1699.316
1771.549
1770.58
1769.642
1768.798
1768.067
1767.439
1766.883
1766.364
1765.838
1765.268
1764.619
1763.865
1762.992
1761.993
1760.873
1759.645
1758.325
1756.934
1755.494
1754.025
1752.543
1751.063
1749.594
1748.141
1746.706
1745.288
1743.887
1742.501
1741.126
1739.763
1738.412
1737.073
1735.749
1734.442
1733.153
1731.885
1730.636
1729.406
1728.191
1726.988
1725.792
1724.596
1723.394
1722.181
1720.952
1719.701
1718.428
1717.129
1715.804
1714.455
1713.084
1711.692
1710.282
1708.858
1707.422
1705.971
1704.525
1702.996
1701.737
1699.203
1772.126
1771.408
1770.724
1770.113
1769.566
1769.054
1768.538
1767.98
1767.343
1766.602
1765.74
1764.751
1763.639
1762.414
1761.096
1759.704
1758.261
1756.787
1755.3
1753.814
1752.34
1750.882
1749.442
1748.021
1746.617
1745.226
1743.849
1742.482
1741.126
1739.783
1738.454
1737.142
1735.848
1734.574
1733.321
1732.087
1730.87
1729.665
1728.468
1727.272
1726.072
1724.862
1723.636
1722.39
1721.121
1719.828
1718.51
1717.169
1715.806
1714.424
1713.025
1711.613
1710.19
1708.756
1707.315
1705.862
1704.415
1702.885
1701.625
1699.079
1773.174
1772.701
1772.213
1771.731
1771.234
1770.692
1770.07
1769.343
1768.494
1767.516
1766.411
1765.191
1763.874
1762.481
1761.035
1759.556
1758.064
1756.573
1755.092
1753.629
1752.185
1750.76
1749.352
1747.959
1746.577
1745.207
1743.847
1742.499
1741.165
1739.848
1738.548
1737.269
1736.011
1734.773
1733.552
1732.345
1731.146
1729.95
1728.751
1727.542
1726.319
1725.076
1723.811
1722.522
1721.208
1719.872
1718.515
1717.14
1715.749
1714.346
1712.932
1711.511
1710.082
1708.647
1707.205
1705.751
1704.302
1702.765
1701.5
1698.931
1774.653
1774.32
1773.893
1773.389
1772.792
1772.085
1771.251
1770.285
1769.189
1767.974
1766.659
1765.265
1763.816
1762.333
1760.835
1759.337
1757.852
1756.383
1754.935
1753.506
1752.094
1750.697
1749.312
1747.938
1746.574
1745.222
1743.883
1742.559
1741.255
1739.97
1738.707
1737.464
1736.239
1735.029
1733.829
1732.632
1731.433
1730.225
1729.003
1727.762
1726.499
1725.213
1723.903
1722.57
1721.217
1719.845
1718.459
1717.062
1715.656
1714.243
1712.824
1711.401
1709.972
1708.536
1707.092
1705.633
1704.176
1702.627
1701.349
1698.749
1776.35
1775.998
1775.477
1774.811
1774.003
1773.054
1771.969
1770.762
1769.45
1768.056
1766.604
1765.116
1763.612
1762.109
1760.617
1759.144
1757.69
1756.257
1754.842
1753.442
1752.054
1750.676
1749.308
1747.951
1746.607
1745.278
1743.967
1742.677
1741.408
1740.16
1738.931
1737.718
1736.515
1735.317
1734.118
1732.91
1731.689
1730.45
1729.189
1727.905
1726.596
1725.266
1723.914
1722.545
1721.162
1719.768
1718.366
1716.958
1715.547
1714.132
1712.713
1711.289
1709.858
1708.418
1706.966
1705.496
1704.024
1702.456
1701.162
1698.524
1777.966
1777.451
1776.718
1775.808
1774.745
1773.55
1772.244
1770.851
1769.397
1767.905
1766.396
1764.887
1763.389
1761.91
1760.452
1759.015
1757.597
1756.193
1754.802
1753.42
1752.048
1750.687
1749.337
1748.003
1746.686
1745.39
1744.115
1742.862
1741.629
1740.412
1739.207
1738.008
1736.807
1735.6
1734.38
1733.141
1731.882
1730.599
1729.292
1727.962
1726.611
1725.243
1723.861
1722.468
1721.068
1719.664
1718.256
1716.846
1715.435
1714.02
1712.599
1711.172
1709.734
1708.283
1706.817
1705.329
1703.836
1702.245
1700.93
1698.255
1779.241
1778.476
1777.484
1776.323
1775.033
1773.647
1772.193
1770.698
1769.185
1767.67
1766.167
1764.682
1763.22
1761.779
1760.357
1758.95
1757.556
1756.171
1754.795
1753.429
1752.075
1750.735
1749.412
1748.11
1746.829
1745.571
1744.333
1743.112
1741.904
1740.703
1739.502
1738.294
1737.074
1735.837
1734.578
1733.296
1731.989
1730.66
1729.31
1727.942
1726.559
1725.167
1723.767
1722.363
1720.957
1719.551
1718.143
1716.734
1715.321
1713.903
1712.476
1711.038
1709.586
1708.117
1706.63
1705.12
1703.604
1701.988
1700.652
1697.946
1780.033
1779.011
1777.785
1776.427
1774.984
1773.492
1771.976
1770.457
1768.949
1767.459
1765.992
1764.548
1763.122
1761.713
1760.315
1758.927
1757.548
1756.178
1754.818
1753.473
1752.144
1750.836
1749.55
1748.286
1747.043
1745.818
1744.607
1743.404
1742.201
1740.993
1739.774
1738.537
1737.278
1735.997
1734.691
1733.362
1732.011
1730.643
1729.26
1727.866
1726.466
1725.061
1723.656
1722.25
1720.844
1719.438
1718.029
1716.617
1715.198
1713.77
1712.329
1710.874
1709.401
1707.91
1706.4
1704.865
1703.326
1701.688
1700.334
1697.606
1780.345
1779.121
1777.738
1776.269
1774.761
1773.243
1771.732
1770.239
1768.768
1767.32
1765.892
1764.48
1763.08
1761.689
1760.307
1758.932
1757.568
1756.217
1754.883
1753.569
1752.277
1751.007
1749.759
1748.53
1747.316
1746.11
1744.907
1743.698
1742.478
1741.242
1739.984
1738.703
1737.397
1736.068
1734.717
1733.347
1731.963
1730.568
1729.166
1727.76
1726.353
1724.947
1723.541
1722.136
1720.73
1719.321
1717.907
1716.486
1715.053
1713.608
1712.147
1710.669
1709.173
1707.657
1706.123
1704.567
1703.008
1701.354
1699.987
1697.25
1780.293
1778.957
1777.507
1776.011
1774.508
1773.017
1771.545
1770.095
1768.665
1767.251
1765.849
1764.456
1763.071
1761.692
1760.324
1758.968
1757.628
1756.308
1755.009
1753.734
1752.482
1751.248
1750.031
1748.823
1747.617
1746.408
1745.188
1743.952
1742.695
1741.414
1740.109
1738.779
1737.427
1736.056
1734.671
1733.273
1731.869
1730.461
1729.053
1727.644
1726.238
1724.832
1723.427
1722.02
1720.609
1719.191
1717.764
1716.325
1714.873
1713.405
1711.92
1710.418
1708.898
1707.36
1705.806
1704.233
1702.661
1701
1699.627
1696.896
1780.05
1778.689
1777.244
1775.776
1774.314
1772.868
1771.439
1770.024
1768.621
1767.227
1765.838
1764.457
1763.084
1761.724
1760.378
1759.052
1757.748
1756.467
1755.21
1753.972
1752.751
1751.541
1750.334
1749.124
1747.904
1746.668
1745.411
1744.131
1742.825
1741.495
1740.143
1738.771
1737.383
1735.984
1734.577
1733.166
1731.755
1730.345
1728.936
1727.53
1726.124
1724.717
1723.307
1721.891
1720.467
1719.033
1717.586
1716.125
1714.648
1713.156
1711.647
1710.122
1708.582
1707.027
1705.46
1703.877
1702.301
1700.641
1699.27
1696.562
1779.771
1778.442
1777.041
1775.621
1774.203
1772.794
1771.393
1769.998
1768.609
1767.225
1765.849
1764.484
1763.133
1761.802
1760.492
1759.206
1757.943
1756.702
1755.477
1754.264
1753.056
1751.845
1750.625
1749.39
1748.133
1746.853
1745.548
1744.218
1742.864
1741.49
1740.1
1738.699
1737.289
1735.876
1734.462
1733.049
1731.638
1730.229
1728.822
1727.414
1726.004
1724.589
1723.167
1721.735
1720.291
1718.834
1717.363
1715.878
1714.377
1712.861
1711.332
1709.79
1708.235
1706.671
1705.099
1703.516
1701.944
1700.296
1698.937
1696.268
1779.555
1778.277
1776.924
1775.543
1774.155
1772.767
1771.379
1769.995
1768.616
1767.247
1765.892
1764.556
1763.241
1761.949
1760.682
1759.436
1758.208
1756.993
1755.783
1754.572
1753.352
1752.117
1750.861
1749.581
1748.276
1746.945
1745.591
1744.216
1742.824
1741.419
1740.007
1738.591
1737.173