/*--------------------------------*- C++ -*----------------------------------*\
| =========                 |                                                 |
| \\      /  F ield         | OpenFOAM: The Open Source CFD Toolbox           |
|  \\    /   O peration     | Version:  2312                                  |
|   \\  /    A nd           | Website:  www.openfoam.com                      |
|    \\/     M anipulation  |                                                 |
\*---------------------------------------------------------------------------*/
FoamFile
{
    version     2.0;
    format      ascii;
    arch        "LSB;label=32;scalar=64";
    class       volScalarField;
    location    "3300";
    object      nut;
}
// * * * * * * * * * * * * * * * * * * * * * * * * * * * * * * * * * * * * * //

dimensions      [0 2 -1 0 0 0 0];

internalField   nonuniform List<scalar> 
12000
(
5.370888e-05
0.0001960986
0.0002160969
0.0002288106
0.0002245039
0.0002196567
0.0002313388
0.0002546522
0.0002601764
0.000232892
0.0002117867
0.0002211239
0.0002493617
0.0002510611
0.0002202777
0.0002053052
0.0002186181
0.0002383871
0.0002298852
0.0002096175
0.000205166
0.0002162458
0.0002229729
0.0002135972
0.000202859
0.0002040667
0.0002124085
0.0002121661
0.0002025858
0.0001987358
0.0002036183
0.0002062169
0.0002031896
0.0001988013
0.0001933806
0.000192078
0.0002037675
0.0002148474
0.0002000852
0.0001767185
0.0001719999
0.0002085244
0.0002536385
0.0001974149
0.0001486908
0.0001579832
0.0002475943
0.0002866213
0.0001521204
0.0001318375
0.0002040447
0.0002817985
0.0001545175
0.000125887
0.0001591167
0.0001752679
0.0001269771
9.840624e-05
9.172204e-05
7.499618e-05
3.289389e-05
0.0002372411
0.0002703542
0.0003476449
0.0003984596
0.000452843
0.0005176404
0.0005812851
0.0006482669
0.0007249741
0.0008205845
0.0009070691
0.0009795556
0.001052085
0.00115006
0.00125617
0.001341538
0.001405458
0.001483535
0.001583484
0.001679791
0.001750355
0.001811456
0.001887513
0.001974259
0.00204558
0.002093494
0.002141042
0.002203484
0.002261669
0.00229467
0.002315439
0.002341314
0.002367363
0.002386849
0.002391914
0.002377662
0.002355102
0.002352383
0.002352487
0.002329695
0.002261058
0.00217733
0.001812052
0.00206957
0.002030631
0.001884515
0.001630731
0.001274595
0.001579887
0.001398907
0.001236623
0.001002105
0.0009223394
0.0007619141
0.000602244
0.0004310332
0.0002650855
0.0001373313
6.774645e-05
3.811334e-05
0.0003528209
0.0004505232
0.0005513779
0.0006714243
0.0008142853
0.0009724563
0.001132297
0.001296119
0.001467759
0.001642369
0.001814438
0.001978137
0.002137064
0.002295379
0.002447324
0.002586887
0.002716113
0.002840009
0.002958306
0.003067345
0.003165788
0.003256429
0.003341078
0.003418685
0.003487559
0.003548367
0.003603178
0.003652457
0.003695098
0.003731102
0.003760229
0.003783889
0.003805998
0.003821846
0.003831973
0.003836136
0.003835229
0.003829158
0.003816819
0.003797873
0.003772146
0.003722845
0.003697152
0.003638728
0.003573224
0.003462026
0.003288237
0.003174772
0.003007439
0.002760559
0.002555989
0.002423794
0.001859195
0.001473083
0.001329998
0.001073643
0.0006190922
0.0002304526
6.799761e-05
3.713237e-05
0.0003796276
0.0005477222
0.0007043826
0.0008964702
0.001114871
0.001348636
0.001589673
0.001833413
0.002082903
0.002323746
0.002551392
0.002764036
0.002963431
0.003149239
0.003321672
0.003480907
0.003628366
0.003765148
0.003891411
0.004007269
0.004113557
0.004210509
0.004298661
0.004378218
0.004449465
0.004512689
0.004568054
0.004615569
0.004655184
0.004687328
0.004711532
0.004728374
0.004738515
0.004741179
0.004735758
0.004722257
0.004700431
0.004669885
0.004630374
0.00458164
0.004522797
0.004450724
0.004366648
0.004269001
0.004156383
0.004026333
0.003877839
0.003710211
0.003518529
0.003304166
0.003049564
0.002385854
0.002148456
0.002088114
0.001696984
0.001249303
0.0007775997
0.0003278258
6.731947e-05
3.704254e-05
0.0004097335
0.0006439805
0.0008563549
0.001109238
0.001386948
0.001676837
0.001970105
0.002257266
0.002535772
0.002803129
0.003057054
0.00329734
0.003520782
0.003728119
0.003923858
0.004105109
0.004268478
0.00441789
0.004555024
0.004680474
0.004795726
0.004900891
0.004996401
0.005082517
0.005159595
0.005227927
0.00528775
0.005339351
0.005379643
0.005414902
0.005441254
0.005460349
0.005471333
0.005473836
0.00546754
0.005452807
0.005429373
0.005396875
0.005355229
0.005305035
0.005244608
0.005172456
0.005089044
0.004992917
0.004882868
0.004757057
0.004613053
0.004447386
0.004255718
0.004039226
0.003644638
0.003466534
0.003098388
0.002674934
0.002185445
0.00162174
0.0009965698
0.0004011481
6.695512e-05
3.746675e-05
0.0004252794
0.0007196564
0.0009775376
0.001272768
0.00159006
0.001915813
0.002240084
0.002555543
0.002858717
0.003151539
0.003428575
0.003687444
0.003927314
0.004145679
0.004341817
0.004521388
0.004690186
0.004847671
0.00499467
0.00513147
0.005258954
0.005377117
0.005486119
0.00558606
0.005676979
0.005758836
0.00583149
0.005892936
0.005947478
0.005992237
0.006026868
0.006051449
0.006066089
0.006070533
0.006063866
0.006046152
0.006018595
0.005980173
0.005929409
0.005864988
0.005787811
0.005697443
0.005592806
0.005472142
0.00533433
0.005177732
0.005000611
0.004802083
0.004574879
0.004316885
0.004016968
0.003671275
0.003276863
0.002825772
0.002312133
0.001735156
0.001102772
0.0004717156
6.647927e-05
3.828894e-05
0.0004316722
0.0007791654
0.001073228
0.00139308
0.001732525
0.002080972
0.002431006
0.002769269
0.003089866
0.003388413
0.003667378
0.003927675
0.004171
0.004397616
0.004606798
0.004800558
0.004981635
0.005151686
0.005311968
0.005463271
0.005606049
0.005740422
0.005866315
0.005983524
0.006091749
0.006190616
0.006279691
0.006357794
0.00642666
0.00648434
0.006530515
0.006564778
0.006587092
0.006597659
0.006596084
0.006582045
0.006553258
0.006510375
0.006453888
0.006383378
0.006298302
0.006198032
0.006081779
0.005948645
0.005797567
0.005627249
0.005436603
0.005222437
0.004976117
0.004697233
0.004378492
0.004015182
0.003598708
0.003119822
0.002567132
0.001931383
0.001223735
0.0005192629
6.641363e-05
3.915676e-05
0.0004320298
0.0008202025
0.001143767
0.001485576
0.001843336
0.002205843
0.002560643
0.002903572
0.003229223
0.003534671
0.003820013
0.004085965
0.004333892
0.004566751
0.004786604
0.004993943
0.00518977
0.005375401
0.005552108
0.005720753
0.005881749
0.006035117
0.006180594
0.006317714
0.006445878
0.006564414
0.006669997
0.00676759
0.006853028
0.006925782
0.006985249
0.007031311
0.007063612
0.007080897
0.007082766
0.007069065
0.007039594
0.006993895
0.006931558
0.006852111
0.006755002
0.006639591
0.006505127
0.006350737
0.006175354
0.005978203
0.005757799
0.005511019
0.005233359
0.004924481
0.004578234
0.004188426
0.003743736
0.003237124
0.002661369
0.002011063
0.001292178
0.0005647767
6.620104e-05
4.053115e-05
0.0004242604
0.0008449964
0.001197777
0.001550376
0.001913939
0.002279428
0.002637575
0.002982816
0.003311224
0.00362087
0.003911637
0.004184374
0.004440588
0.004682248
0.00491209
0.005132375
0.005343927
0.005547307
0.005743029
0.005931571
0.006113119
0.006287504
0.006454228
0.006612531
0.006761473
0.00690001
0.007026231
0.007141357
0.007243087
0.007330376
0.007402448
0.007459114
0.007499512
0.007522896
0.007528657
0.007516302
0.007485391
0.0074355
0.007366206
0.007277063
0.007167591
0.007037253
0.006885463
0.006711517
0.006514814
0.006294291
0.006047974
0.005773622
0.005466709
0.005132005
0.004763986
0.004356598
0.003903279
0.003386986
0.00279241
0.002113401
0.001358258
0.0005947891
6.607197e-05
4.202195e-05
0.0004158497
0.000860757
0.001236413
0.0015977
0.001961884
0.002325627
0.002682526
0.003027568
0.003357339
0.003670235
0.003966211
0.00424621
0.004511764
0.004764614
0.005006666
0.005239979
0.005466538
0.005687269
0.005902363
0.006111725
0.006315082
0.006511762
0.006700699
0.006880693
0.007050458
0.00720671
0.007351729
0.007482179
0.007598268
0.007698818
0.00778261
0.007848674
0.007895991
0.007923783
0.007931395
0.007918271
0.00788393
0.007827933
0.007749867
0.007649325
0.007525898
0.007379172
0.007208733
0.007014241
0.006795203
0.00655033
0.006277492
0.005976889
0.005648179
0.005242259
0.004822794
0.004468528
0.003995062
0.003460011
0.002849978
0.002160494
0.001397073
0.0006206242
6.600547e-05
4.352295e-05
0.0004025987
0.0008611806
0.001256764
0.001625849
0.001990864
0.002352839
0.002707467
0.003050732
0.003380246
0.003695091
0.003995527
0.004282588
0.004557839
0.004823029
0.005079816
0.005329771
0.005573585
0.005811804
0.006044568
0.00627121
0.006490184
0.006703119
0.006909407
0.007107358
0.00729533
0.007470392
0.00763375
0.007782598
0.007914146
0.008027204
0.008120885
0.008194425
0.008246809
0.008277185
0.008284874
0.008269326
0.00823008
0.008166732
0.008078915
0.007966277
0.007828479
0.007665188
0.007476082
0.007260854
0.007019069
0.006750852
0.006456528
0.006027358
0.005473735
0.005024218
0.004693475
0.004424355
0.004061804
0.003524442
0.002911531
0.002211706
0.00143158
0.0006375757
6.589063e-05
4.49792e-05
0.0003881989
0.0008535053
0.001264255
0.001639392
0.002002544
0.002359582
0.002709612
0.003050387
0.003380263
0.003698432
0.004004946
0.004300593
0.004586355
0.004863239
0.005132273
0.005392713
0.005648093
0.005899447
0.006147309
0.006391819
0.006633037
0.006867703
0.007094055
0.007310818
0.007516338
0.007708312
0.007885906
0.00804675
0.008189009
0.00831109
0.008411633
0.008489429
0.00854365
0.008573694
0.008579007
0.008559112
0.008513601
0.00844213
0.008344411
0.008220199
0.008069287
0.007891487
0.007686612
0.007454411
0.007194609
0.006907288
0.006349316
0.005778409
0.005292788
0.004907254
0.004613343
0.004374058
0.004100094
0.00356625
0.002945047
0.002237435
0.001451592
0.0006507495
6.568875e-05
4.620231e-05
0.0003744931
0.0008401136
0.001263528
0.001645066
0.002008056
0.002361856
0.002707932
0.003045423
0.00337321
0.003690837
0.003998419
0.004295859
0.004515717
0.004712907
0.004955716
0.005230519
0.00550276
0.00579268
0.006126905
0.00650136
0.006763263
0.00701426
0.007256999
0.007489316
0.007709138
0.0079144
0.008103184
0.008273544
0.008423734
0.008552199
0.008657613
0.008738897
0.008795077
0.008825322
0.008828967
0.008805486
0.008754466
0.008675582
0.008568584
0.008433282
0.008269544
0.008077286
0.00785647
0.007607097
0.00721498
0.006662604
0.006136524
0.005639085
0.005192976
0.00482685
0.004540267
0.00431843
0.004077282
0.003595482
0.00297283
0.002261704
0.001468669
0.000659553
6.576011e-05
4.721716e-05
0.000362958
0.0008248788
0.001257522
0.001644419
0.00200737
0.002357814
0.002699382
0.003032572
0.003357133
0.003672903
0.003979555
0.00424649
0.004451453
0.004665905
0.004867632
0.005078076
0.005333816
0.005607852
0.005900042
0.006211181
0.006545266
0.006930673
0.007341882
0.007628166
0.007859778
0.00807608
0.00827486
0.008453851
0.008611355
0.008745724
0.00885552
0.008939513
0.008996688
0.009026205
0.009027385
0.008999723
0.008942849
0.008856508
0.00874055
0.008594915
0.008419633
0.008214821
0.007980662
0.007561222
0.007015976
0.006465672
0.005962321
0.005509802
0.005111666
0.004765771
0.004490396
0.004277252
0.004050235
0.003614416
0.002990376
0.002275085
0.001477729
0.0006647948
6.563289e-05
4.807428e-05
0.0003514195
0.0008062458
0.001243255
0.001635842
0.001999686
0.002347463
0.002684823
0.003013767
0.003334891
0.003648251
0.003953753
0.00422251
0.00444914
0.00463475
0.004826015
0.005035602
0.005247391
0.005486477
0.005740527
0.006011979
0.006306018
0.006633633
0.007001628
0.007406854
0.007832461
0.008201904
0.008408781
0.008594923
0.008758357
0.008897334
0.009010347
0.009096115
0.009153605
0.009181961
0.009180502
0.009148773
0.00908647
0.008993429
0.008869605
0.008715063
0.008529964
0.008314716
0.007876841
0.007378881
0.006866601
0.006359143
0.005869447
0.00542005
0.005030789
0.004708845
0.004449268
0.004238346
0.004028279
0.003628186
0.003002759
0.002285217
0.00148548
0.0006692266
6.565085e-05
4.876956e-05
0.0003412909
0.0007876789
0.001228051
0.001623377
0.001987649
0.002333101
0.002666527
0.00299111
0.00330826
0.003618611
0.003922474
0.004213753
0.004422586
0.004632444
0.004841834
0.005059423
0.005271198
0.005478859
0.005695805
0.005925871
0.006179448
0.006469377
0.006799907
0.007165242
0.007554947
0.00795372
0.008338634
0.008673819
0.008868637
0.009011415
0.009127023
0.009214097
0.009271609
0.009298716
0.009294767
0.009259364
0.00919229
0.009093482
0.008962999
0.008801076
0.008547007
0.008170556
0.007731217
0.007249022
0.006748458
0.00625859
0.005799451
0.005377347
0.004991404
0.004656781
0.004393206
0.00420122
0.004012849
0.003635665
0.003010127
0.002291513
0.001489103
0.0006702867
6.558081e-05
4.931527e-05
0.0003323366
0.0007691021
0.001209196
0.001607097
0.001971889
0.002315456
0.002645418
0.00296595
0.003279272
0.003586634
0.003888861
0.004186666
0.004462251
0.004669944
0.004885868
0.005101717
0.005321304
0.005522378
0.005718663
0.005916591
0.006133037
0.006386604
0.006689644
0.007042049
0.007429103
0.007823397
0.008196002
0.008526015
0.008803729
0.009030162
0.009204832
0.009299435
0.009356904
0.009382837
0.00937666
0.009338073
0.009266977
0.009163455
0.008990885
0.008751193
0.008446333
0.008070999
0.007631173
0.007150279
0.006659072
0.006181945
0.005734226
0.005323021
0.004953834
0.004634332
0.004372386
0.004171377
0.003984527
0.003641831
0.003016303
0.002296373
0.001492886
0.0006723603
6.552899e-05
4.973336e-05
0.0003250959
0.0007520788
0.001189624
0.001588353
0.001953381
0.002295381
0.002622377
0.00293935
0.003249314
0.003554214
0.003855502
0.004154473
0.004450785
0.004746836
0.004966717
0.005185
0.005401476
0.005606977
0.005785974
0.005954276
0.006134916
0.006353184
0.006626489
0.006958307
0.007336758
0.007736402
0.008123529
0.008464525
0.008739136
0.008951194
0.009132248
0.009350262
0.009416069
0.009374494
0.009339801
0.009297893
0.009227301
0.009112535
0.008941438
0.008702747
0.00838857
0.008000878
0.007554974
0.007076055
0.006591533
0.006123938
0.005686374
0.005282658
0.004916094
0.004596436
0.004338429
0.004145292
0.00396954
0.003642834
0.003017209
0.002297167
0.001493021
0.0006721449
6.548758e-05
5.005939e-05
0.0003192899
0.0007363107
0.001169777
0.001568233
0.001932955
0.00227354
0.00259804
0.002911992
0.003219049
0.003521701
0.003821743
0.004120499
0.004420537
0.004720157
0.005021138
0.005307016
0.005527271
0.00572311
0.00589025
0.006034149
0.006179868
0.006362522
0.006607594
0.006922218
0.007294087
0.007695247
0.008089549
0.008442541
0.008731514
0.008952707
0.009122553
0.009276228
0.009442377
0.009443059
0.009329958
0.00927458
0.009211013
0.0091028
0.008930561
0.008683759
0.008359177
0.007962674
0.007511274
0.007030833
0.006548679
0.006086084
0.005654683
0.005257505
0.004897208
0.004581922
0.004324843
0.004130599
0.003957447
0.003644682
0.003018923
0.002298116
0.00149379
0.0006726306
6.544856e-05
5.030304e-05
0.0003155076
0.0007230304
0.001150867
0.001547532
0.001911413
0.002250598
0.002572955
0.002884374
0.003189012
0.003489832
0.00378902
0.00408824
0.004388783
0.004692797
0.005000062
0.005308776
0.005618704
0.005878624
0.006037036
0.006149632
0.006256274
0.006399947
0.006614635
0.006911498
0.007278257
0.007684342
0.008089326
0.008453979
0.008751973
0.008978231
0.009149991
0.00929962
0.00946475
0.009477748
0.009365522
0.009300037
0.009229103
0.009116744
0.008940033
0.008685869
0.008350845
0.007943244
0.007483189
0.006998186
0.006515475
0.006055167
0.005627393
0.005233924
0.004876767
0.004564146
0.004309955
0.004119345
0.003950922
0.003644268
0.00301845
0.002297589
0.001493111
0.000672024
6.540476e-05
5.051647e-05
0.0003126053
0.0007113415
0.001132996
0.001526938
0.001889419
0.00222717
0.002547711
0.002857119
0.003159937
0.003459544
0.003758495
0.004058748
0.00436178
0.004668619
0.004979268
0.005294541
0.005612505
0.005929848
0.006205578
0.006306646
0.006366781
0.006462674
0.006642126
0.006919995
0.007282119
0.007693764
0.008109944
0.008487237
0.008795444
0.009025898
0.009193994
0.009335612
0.00950025
0.009522387
0.009412429
0.009340875
0.009263258
0.009145088
0.008962021
0.008699599
0.008354545
0.007936688
0.007468112
0.006977692
0.006492931
0.006033268
0.005607796
0.005217396
0.004863338
0.004553176
0.004300472
0.00411078
0.003944421
0.00364399
0.003017962
0.002296793
0.001492299
0.0006717325
6.538543e-05
5.070684e-05
0.0003111358
0.000702303
0.00111663
0.001506867
0.001867391
0.002203638
0.002522668
0.002830611
0.003132295
0.003431435
0.003730893
0.004032834
0.004338801
0.004649682
0.004965614
0.005286054
0.005609325
0.005934437
0.006258155
0.00647774
0.006516239
0.006558626
0.006693434
0.006946908
0.007302537
0.007719325
0.008145941
0.008534077
0.008850425
0.009084303
0.009249492
0.009381603
0.009531947
0.009551311
0.009456956
0.009385023
0.009300912
0.009175798
0.008986224
0.008716552
0.008362791
0.007935557
0.00745867
0.006962485
0.006474982
0.006015117
0.005591053
0.005202844
0.004851198
0.004543401
0.004292991
0.004105578
0.003941535
0.003643278
0.003017058
0.002295686
0.001491215
0.0006709568
6.534659e-05
5.089235e-05
0.0003109264
0.0006944111
0.001102083
0.001488169
0.001846298
0.002180936
0.002498703
0.00280571
0.003106981
0.003406499
0.003707363
0.00401189
0.004321655
0.00463746
0.00495929
0.005286295
0.005616788
0.005948493
0.006278237
0.006603761
0.006684479
0.006682788
0.006768374
0.00699332
0.007340522
0.007761379
0.008196885
0.008593346
0.008914815
0.009149754
0.009310853
0.009430326
0.00955146
0.009568264
0.009498926
0.009428033
0.009338495
0.009207378
0.009012314
0.008736547
0.008375219
0.007939457
0.007454622
0.006952562
0.006461892
0.006001284
0.005578136
0.005191753
0.004842243
0.004536505
0.004287857
0.004101885
0.003939194
0.003642604
0.003016074
0.00229444
0.001490066
0.000670427
6.533938e-05
5.109112e-05
0.000311668
0.0006881834
0.001088717
0.001470336
0.001825884
0.002159005
0.002475913
0.002782661
0.003084409
0.003385338
0.003688714
0.003996943
0.004311574
0.004633271
0.004961788
0.005295969
0.005633832
0.005972741
0.006309492
0.006640596
0.006832385
0.006813574
0.006856851
0.007053328
0.007391332
0.007815792
0.008259238
0.008661922
0.008985569
0.009218535
0.009372678
0.00947677
0.009571179
0.009584877
0.00954043
0.009464854
0.009372103
0.009237588
0.009038912
0.008758352
0.008390303
0.007946449
0.007453768
0.006945709
0.006451625
0.005989968
0.005567406
0.005182517
0.004834871
0.004531125
0.004284467
0.00410032
0.003938895
0.003642184
0.00301523
0.002293313
0.00148891
0.0006696225
6.530911e-05
5.130385e-05
0.0003134739
0.000684231
0.001077804
0.001454644
0.001807413
0.002139098
0.002455542
0.002762723
0.003065884
0.003369338
0.003676447
0.003989622
0.004310305
0.004638941
0.004974983
0.005316929
0.005662461
0.006008626
0.006351978
0.006688901
0.006972024
0.006944762
0.006956599
0.00713099
0.007462319
0.007890211
0.008339311
0.008744045
0.00906454
0.009291772
0.009440691
0.009534518
0.009589539
0.009601921
0.009577697
0.009499647
0.009403636
0.009266761
0.009066202
0.00878225
0.008408164
0.007956419
0.007455859
0.006941678
0.006444019
0.005981132
0.005558972
0.00517541
0.004829454
0.004527502
0.004282595
0.004099948
0.003939342
0.003642092
0.003014533
0.002292201
0.001487772
0.0006689749
6.531009e-05
5.154923e-05
0.000315384
0.0006807202
0.001067693
0.001440023
0.001790135
0.002120707
0.002437316
0.002745837
0.003051542
0.003358802
0.003670991
0.003990437
0.004318391
0.004655003
0.004999358
0.00534955
0.005702892
0.006056126
0.006405804
0.006747969
0.007078896
0.007060882
0.007054353
0.007216797
0.007546983
0.007979549
0.008432569
0.008835847
0.009148455
0.00936406
0.009498669
0.009573304
0.009613677
0.009619798
0.009591964
0.009530668
0.009434816
0.009295545
0.009093962
0.008807623
0.008427883
0.007968284
0.007459789
0.006939451
0.006438229
0.005974164
0.005552437
0.005170107
0.004825516
0.004525009
0.004281795
0.004100827
0.003941026
0.0036425
0.003014335
0.002291472
0.001486851
0.000668309
6.529033e-05
5.180694e-05
0.0003181876
0.0006792323
0.001060057
0.001427821
0.001775592
0.002105479
0.002422897
0.002733671
0.00304307
0.003355448
0.003674094
0.004001149
0.004337564
0.004683102
0.005036399
0.005395146
0.00575632
0.006116154
0.006471101
0.006817194
0.007150649
0.007157543
0.007147704
0.007309394
0.007645636
0.008085551
0.008541124
0.008938409
0.009236807
0.009428169
0.009531584
0.009601259
0.00963699
0.009638861
0.00960722
0.009542595
0.009445647
0.00931716
0.009123062
0.008835728
0.008450215
0.007982297
0.007465576
0.006938999
0.006434181
0.005968756
0.005547013
0.005165701
0.004822738
0.004524049
0.004282556
0.004103059
0.003943599
0.003643051
0.003014186
0.002290742
0.001485938
0.0006677423
6.529828e-05
5.211e-05
0.0003208637
0.0006776009
0.001052977
0.001416663
0.001762436
0.002092346
0.002411575
0.002725839
0.003040345
0.003359347
0.00368594
0.004021955
0.004367931
0.004723148
0.005085751
0.00545298
0.005821288
0.006187416
0.006546985
0.006896122
0.007231163
0.007235116
0.007232608
0.007407511
0.007757682
0.008206665
0.008661985
0.009048641
0.009325765
0.009468897
0.009566719
0.009631115
0.009661967
0.00965942
0.009623859
0.009555834
0.009456017
0.009325182
0.009151011
0.00886495
0.00847412
0.007997957
0.00747289
0.006939834
0.006431252
0.005964899
0.0055443
0.005164924
0.004822259
0.004523408
0.004283526
0.004106463
0.003947993
0.003643953
0.003014535
0.002290588
0.001485368
0.0006672267
6.528928e-05
5.240803e-05
0.0003242693
0.0006699285
0.001048634
0.001408595
0.001752974
0.002083618
0.002405608
0.002724563
0.003045556
0.003372628
0.003708553
0.004054729
0.004411161
0.004776544
0.005148523
0.005523777
0.005899105
0.006270268
0.00663326
0.006984248
0.007319714
0.007297603
0.007310955
0.007512135
0.007885134
0.008346419
0.008798425
0.009162891
0.009387427
0.009512066
0.009604002
0.009662906
0.009688733
0.009681676
0.009642145
0.009570699
0.009468006
0.009334819
0.009171929
0.008895571
0.008501893
0.008017141
0.007483214
0.006943989
0.006433117
0.00596605
0.005543047
0.005160371
0.004820257
0.004526656
0.004289958
0.004113194
0.0039529
0.003645154
0.003014908
0.002290407
0.001484758
0.0006667386
6.530253e-05
5.274846e-05
0.0003271858
0.0006617413
0.001044086
0.001401041
0.001744819
0.00207731
0.002403419
0.00272859
0.003057669
0.00339438
0.003741052
0.004098506
0.004466097
0.004841957
0.005222938
0.005606181
0.005987455
0.006362695
0.006727924
0.007079429
0.007379234
0.00735111
0.007394515
0.00762787
0.008025641
0.008496309
0.008940252
0.009277427
0.009438982
0.009557369
0.009643287
0.009696601
0.009717347
0.009705759
0.009662262
0.009587413
0.00948187
0.009346356
0.009181626
0.008923201
0.008527514
0.008034538
0.007492695
0.006947522
0.006431474
0.005959907
0.005537848
0.005161488
0.004823997
0.00453026
0.004292825
0.004116388
0.003957116
0.003647059
0.003015836
0.002290672
0.001484568
0.0006663687
6.531281e-05
5.309295e-05
0.0003305962
0.0006554335
0.001042201
0.001397001
0.001741162
0.002076599
0.00240808
0.002740856
0.003079475
0.003427186
0.003785665
0.00415503
0.004534032
0.004919557
0.005309514
0.005699616
0.006085761
0.006463863
0.006830043
0.007180774
0.007416875
0.007388679
0.007468494
0.007755501
0.008192565
0.008675591
0.009092929
0.009349476
0.009492704
0.009604435
0.009684323
0.00973209
0.009747791
0.009731711
0.009684287
0.009606073
0.009497706
0.009359878
0.0091933
0.008952687
0.008555536
0.008054386
0.007502741
0.006948591
0.006427024
0.005956848
0.005538481
0.005163827
0.004826802
0.004533833
0.004297615
0.004121943
0.0039616
0.003649335
0.003017143
0.002290958
0.001484248
0.0006659697
6.532269e-05
5.345443e-05
0.000333411
0.0006478853
0.001040566
0.001393619
0.001738877
0.002078429
0.002416884
0.002759109
0.00310907
0.003469302
0.003840754
0.004222711
0.004612159
0.005008164
0.005406249
0.00580234
0.006192294
0.006572106
0.006938074
0.007286914
0.007435553
0.007423914
0.007558218
0.007892467
0.008361589
0.008848543
0.009238197
0.00941185
0.009548241
0.009653489
0.009727258
0.009769436
0.009780133
0.00975961
0.009708309
0.009626783
0.00951563
0.009375508
0.009207079
0.0089837
0.008583122
0.008072043
0.007511845
0.006953909
0.00643219
0.005961875
0.005543819
0.005168434
0.004831786
0.004539031
0.004302683
0.00412687
0.003966796
0.003652228
0.003018972
0.002291823
0.001484416
0.0006657641
6.533934e-05
5.381022e-05
0.0003366356
0.0006437868
0.001040861
0.001393754
0.001742034
0.002087576
0.002434721
0.002787835
0.003150257
0.003523773
0.003908063
0.004300867
0.004702258
0.005107541
0.005512744
0.005913671
0.006306208
0.006686492
0.007051055
0.007396894
0.007431439
0.007454861
0.007658004
0.008041035
0.008527218
0.008997317
0.009316018
0.00947579
0.009605309
0.009704082
0.009771844
0.009808541
0.009814308
0.009789448
0.009734377
0.009649586
0.009535678
0.009393275
0.009223015
0.009007828
0.008604488
0.008086925
0.007520267
0.006958035
0.00643493
0.00596475
0.005546747
0.005172493
0.004836501
0.004544173
0.004308431
0.004133428
0.003973144
0.003655548
0.003021239
0.002293101
0.001484842
0.0006655669
6.535287e-05
5.416354e-05
0.0003396754
0.0006392698
0.001042187
0.001396303
0.001747811
0.002100491
0.002457891
0.002823636
0.003199656
0.003585839
0.003982648
0.00438938
0.004801603
0.005215486
0.00562684
0.006031437
0.006425268
0.00680468
0.007166476
0.007448241
0.007425136
0.007497829
0.007767339
0.008205973
0.008710682
0.009153806
0.009387982
0.009540714
0.009663498
0.009755938
0.009817839
0.009849192
0.009850161
0.009821054
0.009762287
0.009674356
0.009557793
0.009413138
0.009240912
0.009031657
0.008625294
0.008101851
0.007529124
0.00696264
0.006437751
0.005968299
0.005551455
0.00517778
0.004841966
0.004549592
0.004313761
0.004138743
0.00397826
0.003659133
0.003023745
0.002294533
0.001485278
0.0006655588
6.536898e-05
5.453294e-05
0.0003425821
0.0006361861
0.00104445
0.001400107
0.001758519
0.002120299
0.002489259
0.002867492
0.003256323
0.003657758
0.00406937
0.004488136
0.004910277
0.005331591
0.005747757
0.006154604
0.006548298
0.006925435
0.007283088
0.007415221
0.007411188
0.007550188
0.007893902
0.008379617
0.008889913
0.009285738
0.009460642
0.009606443
0.009722636
0.009808902
0.009865101
0.009891258
0.009887554
0.009854295
0.009791884
0.009700785
0.009581511
0.00943459
0.009260544
0.009057853
0.008648034
0.008118426
0.007539906
0.00696977
0.00644374
0.00597437
0.005557962
0.005184545
0.004848619
0.004555926
0.004319913
0.004145008
0.003984403
0.003663145
0.003026642
0.002296355
0.001486109
0.0006656979
6.538214e-05
5.489335e-05
0.0003454133
0.0006336956
0.001038631
0.001407153
0.00177143
0.002143507
0.002524405
0.002917508
0.003323345
0.003740077
0.004165307
0.004595521
0.005026576
0.005454092
0.005873761
0.006281575
0.006673968
0.007047875
0.007399117
0.007370752
0.007403273
0.007628587
0.008044003
0.008564781
0.009058925
0.009365938
0.009533752
0.009672762
0.009782534
0.00986281
0.009913491
0.009934628
0.009926409
0.009889138
0.009823199
0.009729027
0.009607096
0.009457888
0.009281866
0.009079455
0.008669854
0.008134614
0.007550239
0.006976669
0.006449666
0.005980703
0.005564931
0.00519175
0.004855556
0.004562333
0.00432587
0.004150801
0.003990016
0.003667314
0.003029696
0.002298314
0.001487056
0.0006658986
6.539648e-05
5.524842e-05
0.0003481577
0.000632153
0.001033491
0.001416914
0.001789016
0.002172129
0.00256833
0.002977604
0.00339926
0.003830939
0.004269228
0.004710006
0.005148816
0.005581198
0.006002934
0.006410222
0.006799743
0.00716869
0.007347524
0.007326476
0.007426093
0.007734689
0.008213347
0.008758064
0.00922748
0.009445951
0.009606946
0.009739417
0.009843012
0.00991753
0.009962909
0.009979223
0.009966663
0.009925529
0.009856185
0.009759036
0.009634521
0.00948308
0.009305133
0.009101055
0.008690657
0.00814966
0.007560122
0.006983909
0.006456429
0.005988003
0.005572775
0.005199645
0.004862965
0.004568996
0.004331926
0.00415664
0.003995754
0.003671767
0.003033
0.002300467
0.001488122
0.0006661434
6.540933e-05
5.559458e-05
0.000350828
0.0006312641
0.001029254
0.001429577
0.001811199
0.002207729
0.002619424
0.003045297
0.003483094
0.003929388
0.004379971
0.004830246
0.005275571
0.005711521
0.006134073
0.006539724
0.006925516
0.007289041
0.007278652
0.007279755
0.007470453
0.00786581
0.008398081
0.00894412
0.009343672
0.009525828
0.009680202
0.009806363
0.009904019
0.00997301
0.0100133
0.01002499
0.01000825
0.009963393
0.00989075
0.0097907
0.009663646
0.009509988
0.009330099
0.009124311
0.008711338
0.008164429
0.007570116
0.006991673
0.006463953
0.005996109
0.005581331
0.005208068
0.004870684
0.004575755
0.004337882
0.004162235
0.004001256
0.003676343
0.003036435
0.002302754
0.001489304
0.0006664656
6.54211e-05
5.593416e-05
0.0003534562
0.0006310001
0.001026119
0.001445244
0.001837853
0.002248931
0.002677176
0.003120056
0.003573899
0.004034218
0.004496118
0.004954651
0.005405093
0.005843127
0.006264951
0.006667332
0.007047573
0.007233998
0.007192233
0.007265241
0.007547489
0.008018189
0.008589066
0.00912081
0.009429848
0.009605379
0.009753386
0.009873497
0.009965465
0.01002917
0.01006459
0.01007183
0.01005108
0.01000262
0.009926778
0.00982389
0.00969433
0.009538459
0.009356607
0.009149063
0.008731681
0.0081787
0.007580123
0.006999979
0.006472304
0.006005078
0.00559062
0.00521702
0.004878711
0.004582618
0.004343779
0.00416768
0.004006655
0.003681085
0.003040022
0.002305166
0.001490584
0.0006668388
6.543391e-05
5.62674e-05
0.0003560628
0.0006313605
0.001024205
0.001463939
0.001868889
0.002295592
0.002741061
0.00320108
0.003670587
0.004144129
0.004616253
0.005081798
0.005536079
0.005974989
0.006395047
0.006793397
0.007167756
0.007136741
0.007120257
0.007284832
0.007658088
0.008192335
0.008785352
0.009290503
0.009515162
0.009684404
0.009826355
0.009940704
0.01002725
0.01008591
0.01011667
0.01011966
0.01009505
0.01004311
0.009964149
0.009858482
0.009726445
0.009568362
0.009384525
0.009175181
0.008751795
0.008192636
0.007590249
0.007008839
0.006481416
0.006014789
0.005600499
0.00522635
0.004886901
0.004589456
0.004349498
0.004172853
0.004011824
0.0036859
0.003043687
0.002307653
0.001491927
0.0006672736
6.544379e-05
5.659705e-05
0.0003586638
0.0006323185
0.001023605
0.001485749
0.001904261
0.002347445
0.002810478
0.003287433
0.003771926
0.004257654
0.00473873
0.005209877
0.005666511
0.006104745
0.006521365
0.006913759
0.007078703
0.00702947
0.007084137
0.007341685
0.007796429