/*--------------------------------*- C++ -*----------------------------------*\
| =========                 |                                                 |
| \\      /  F ield         | OpenFOAM: The Open Source CFD Toolbox           |
|  \\    /   O peration     | Version:  2312                                  |
|   \\  /    A nd           | Website:  www.openfoam.com                      |
|    \\/     M anipulation  |                                                 |
\*---------------------------------------------------------------------------*/
FoamFile
{
    version     2.0;
    format      ascii;
    arch        "LSB;label=32;scalar=64";
    class       surfaceScalarField;
    location    "3300";
    object      phi;
}
// * * * * * * * * * * * * * * * * * * * * * * * * * * * * * * * * * * * * * //

dimensions      [1 0 -1 0 0 0 0];

oriented        oriented;

internalField   nonuniform List<scalar> 
23740
(
-0.0001366751
0.0001369834
-0.0002665291
0.0001298536
-0.0003998316
0.0001333021
-0.000540849
0.000141017
-0.0006850781
0.0001442287
-0.0008222762
0.0001371979
-0.0009431677
0.0001208912
-0.001054336
0.0001111678
-0.001162832
0.0001084966
-0.001278019
0.0001151862
-0.001378554
0.0001005359
-0.001458811
8.02565e-05
-0.001530705
7.189423e-05
-0.001610825
8.012086e-05
-0.001692173
8.134785e-05
-0.001757549
6.537669e-05
-0.001806067
4.851879e-05
-0.001854343
4.827561e-05
-0.001909524
5.518207e-05
-0.001961378
5.185395e-05
-0.002000015
3.863717e-05
-0.002030379
3.036425e-05
-0.002062547
3.216927e-05
-0.00209699
3.444316e-05
-0.002125407
2.841695e-05
-0.002144255
1.884852e-05
-0.002159939
1.568455e-05
-0.002178358
1.841969e-05
-0.002195507
1.714875e-05
-0.002204972
9.465763e-06
-0.002208979
4.006973e-06
-0.002213052
4.073152e-06
-0.002217656
4.604211e-06
-0.002219221
1.564943e-06
-0.002214881
-4.339882e-06
-0.002200752
-1.41292e-05
-0.002180706
-2.004659e-05
-0.002169379
-1.132771e-05
-0.002166806
-2.573545e-06
-0.002154668
-1.213917e-05
-0.002115194
-3.947445e-05
-0.002060411
-5.478413e-05
-0.002032509
-2.790274e-05
-0.002029478
-3.032034e-06
-0.001999926
-2.955283e-05
-0.00191572
-8.420619e-05
-0.001827703
-8.801788e-05
-0.001791856
-3.584672e-05
-0.001765161
-2.669531e-05
-0.0016624
-0.0001027614
-0.001527758
-0.0001346424
-0.001440094
-8.766506e-05
-0.001355056
-8.503796e-05
-0.001212019
-0.0001430378
-0.001047454
-0.0001645656
-0.0008873856
-0.0001600694
-0.0007186476
-0.0001687394
-0.0004875403
-0.0002311097
-0.000241512
-0.0002460333
-0.0002415129
-0.0001325882
0.0002695712
-0.0002678429
0.0002651079
-0.000398321
0.0002637798
-0.0005175605
0.0002602561
-0.0006263558
0.0002530237
-0.0007306007
0.0002414425
-0.000833507
0.0002237974
-0.0009293624
0.0002070231
-0.001016548
0.0001956822
-0.001086815
0.0001854539
-0.001157711
0.000171432
-0.001233339
0.0001558851
-0.001304159
0.0001427144
-0.001357384
0.000133346
-0.001399952
0.0001239167
-0.001446711
0.0001121366
-0.001498857
0.000100665
-0.001542735
9.215366e-05
-0.001572934
8.538184e-05
-0.001598968
7.788824e-05
-0.001629795
6.946528e-05
-0.001661334
6.190345e-05
-0.001685113
5.594928e-05
-0.001701133
5.046371e-05
-0.001717041
4.432488e-05
-0.001736151
3.79593e-05
-0.001752974
3.250851e-05
-0.001762436
2.788201e-05
-0.001768217
2.293009e-05
-0.001775907
1.715656e-05
-0.001783247
1.134707e-05
-0.001786512
7.338417e-06
-0.001785518
3.609999e-06
-0.001781201
-2.75214e-06
-0.001776252
-9.289585e-06
-0.001774452
-1.592954e-05
-0.001772354
-2.214565e-05
-0.001756629
-2.705283e-05
-0.001726842
-3.236168e-05
-0.001698765
-4.021761e-05
-0.001688802
-4.943828e-05
-0.00168505
-5.853732e-05
-0.001647497
-6.545716e-05
-0.001578067
-7.246335e-05
-0.001524357
-8.326339e-05
-0.001512372
-9.619192e-05
-0.001491411
-0.0001089797
-0.001407644
-0.0001196145
-0.001301802
-0.000132538
-0.00125435
-0.0001502137
-0.001221437
-0.0001675553
-0.001124465
-0.0001846382
-0.001007304
-0.0002021993
-0.0009319733
-0.0002183702
-0.0008482052
-0.000248335
-0.0007201053
-0.0002881712
-0.0005634242
-0.0003254229
-0.0004079845
-0.0003865523
-0.0002207846
-0.0004332374
-0.000462298
-0.0001126687
0.0003822393
-0.0002231896
0.0003756283
-0.0003279193
0.000368509
-0.0004236627
0.0003559991
-0.0005106158
0.0003399765
-0.0005911044
0.0003219308
-0.0006694651
0.0003021582
-0.0007446705
0.0002822286
-0.000818807
0.000269819
-0.0008818087
0.0002484559
-0.0009387639
0.0002283875
-0.0009921528
0.0002092745
-0.001042836
0.0001933984
-0.001086762
0.0001772723
-0.001126122
0.0001632772
-0.001163719
0.0001497345
-0.001200121
0.0001370672
-0.001233612
0.0001256455
-0.001263211
0.0001149811
-0.001289888
0.0001045657
-0.001314986
9.45644e-05
-0.001338211
8.512863e-05
-0.001358662
7.640075e-05
-0.001376259
6.806095e-05
-0.001391788
5.985509e-05
-0.001405676
5.184779e-05
-0.001417395
4.422788e-05
-0.001426449
3.693649e-05
-0.001433219
2.970048e-05
-0.001438435
2.237324e-05
-0.001441644
1.455583e-05
-0.001443153
8.847971e-06
-0.001440566
1.022916e-06
-0.001435862
-7.455879e-06
-0.001429546
-1.560617e-05
-0.00142148
-2.399659e-05
-0.001411026
-3.260019e-05
-0.001396818
-4.126131e-05
-0.001378888
-5.029257e-05
-0.001358811
-6.029515e-05
-0.001336891
-7.136018e-05
-0.001312435
-8.299391e-05
-0.001283338
-9.455556e-05
-0.00124866
-0.0001071422
-0.001210552
-0.0001213715
-0.001169684
-0.0001370608
-0.001124673
-0.0001539918
-0.001075391
-0.0001688971
-0.001018878
-0.0001890509
-0.000958745
-0.0002103476
-0.00089574
-0.0002305609
-0.0008307383
-0.0002496407
-0.0007583641
-0.0002745742
-0.0006708353
-0.0003059002
-0.0005683688
-0.0003508031
-0.0004664643
-0.0003900778
-0.0003584202
-0.0004334695
-0.0002576203
-0.0004873553
-0.0001362649
-0.0005545964
-0.0005985633
-8.430203e-05
0.000466541
-0.0001644845
0.0004558105
-0.0002398386
0.0004438628
-0.0003103006
0.0004264609
-0.0003762557
0.0004059315
-0.0004383334
0.0003840086
-0.0004977183
0.0003615432
-0.0005542122
0.0003387226
-0.0006023726
0.0003179796
-0.0006513909
0.0002974747
-0.0006999424
0.0002769393
-0.0007478072
0.0002571396
-0.0007917568
0.0002373484
-0.0008321521
0.000217668
-0.0008692123
0.0002003377
-0.0009036162
0.0001841388
-0.0009352999
0.0001687512
-0.000964774
0.0001551201
-0.0009920274
0.0001422349
-0.001016457
0.0001289959
-0.001039197
0.0001173048
-0.001059243
0.0001051747
-0.001076884
9.404229e-05
-0.001092251
8.342863e-05
-0.001105584
7.318873e-05
-0.001116981
6.324475e-05
-0.001126317
5.356383e-05
-0.001133483
4.410364e-05
-0.001138608
3.482539e-05
-0.001142896
2.666171e-05
-0.001145201
1.686108e-05
-0.001144551
8.197936e-06
-0.001141542
-1.985501e-06
-0.001137112
-1.188587e-05
-0.001130809
-2.191016e-05
-0.001122634
-3.217182e-05
-0.001112293
-4.294073e-05
-0.001099396
-5.415915e-05
-0.001083773
-6.591654e-05
-0.001065704
-7.836447e-05
-0.001045462
-9.160291e-05
-0.00102271
-0.0001057472
-0.0009981742
-0.0001190917
-0.0009696928
-0.0001356243
-0.0009380286
-0.0001530364
-0.0009035248
-0.0001715652
-0.0008662794
-0.0001912376
-0.0008247707
-0.0002104064
-0.0007796212
-0.0002342009
-0.0007334195
-0.0002565498
-0.0006831592
-0.0002808218
-0.0006216986
-0.000311102
-0.0005482995
-0.0003479743
-0.0004692966
-0.0003849042
-0.0003974032
-0.0004226978
-0.0003244465
-0.000463036
-0.0002482642
-0.0005096537
-0.0001696564
-0.0005659656
-8.969207e-05
-0.0006345636
-0.0006882557
-6.578502e-05
0.0005323258
-0.0001290811
0.0005191065
-0.0001881268
0.0005029084
-0.0002440007
0.0004823348
-0.0002969913
0.0004589221
-0.0003470036
0.0004340209
-0.0003938963
0.000408436
-0.0004376466
0.0003824731
-0.0004759701
0.0003563033
-0.0005117241
0.0003332289
-0.0005465036
0.000311719
-0.0005820589
0.0002926951
-0.0006161906
0.0002714804
-0.0006482884
0.000249766
-0.0006779556
0.0002300052
-0.0007053457
0.0002115291
-0.0007305345
0.0001939403
-0.0007535998
0.0001781856
-0.0007748609
0.0001634962
-0.0007942107
0.000148346
-0.0008116524
0.0001347467
-0.0008273082
0.0001208308
-0.0008410802
0.0001078146
-0.0008530277
9.537651e-05
-0.000863224
8.338538e-05
-0.0008717324
7.175351e-05
-0.0008785793
6.041099e-05
-0.0008837689
4.929361e-05
-0.000887267
3.832372e-05
-0.0008891055
2.850042e-05
-0.0008894492
1.7205e-05
-0.0008873972
6.14616e-06
-0.0008843631
-5.019484e-06
-0.0008797821
-1.64668e-05
-0.0008734755
-2.821678e-05
-0.0008663488
-3.929868e-05
-0.0008571846
-5.210516e-05
-0.0008460822
-6.526187e-05
-0.0008330734
-7.892577e-05
-0.000818169
-9.326931e-05
-0.0008013366
-0.0001084358
-0.000782637
-0.0001244472
-0.0007616687
-0.0001400606
-0.000738251
-0.0001590426
-0.0007125357
-0.0001787522
-0.0006844778
-0.0001996236
-0.000653783
-0.0002219329
-0.0006190418
-0.000245148
-0.0005842843
-0.0002689589
-0.000545332
-0.0002955026
-0.000499214
-0.0003269404
-0.0004481099
-0.0003622067
-0.0003981653
-0.0003979196
-0.0003480832
-0.0004349871
-0.0002958977
-0.0004748843
-0.0002402011
-0.0005187337
-0.0001820203
-0.0005678359
-0.000123413
-0.0006245747
-6.418224e-05
-0.0006937966
-0.0007524381
-4.840298e-05
0.0005807287
-9.490562e-05
0.0005656091
-0.000137937
0.0005459397
-0.0001785391
0.0005229369
-0.0002170759
0.000497459
-0.0002536839
0.000470629
-0.0002885374
0.0004432896
-0.0003220568
0.0004159925
-0.0003549168
0.0003891634
-0.0003853194
0.0003636316
-0.000412955
0.0003393549
-0.000436997
0.0003167372
-0.0004616781
0.0002961617
-0.0004869722
0.0002750602
-0.0005104908
0.000253524
-0.0005324014
0.0002334399
-0.000552961
0.0002145
-0.0005713862
0.000196611
-0.0005876184
0.0001797286
-0.0006027743
0.000163502
-0.0006159745
0.0001479472
-0.0006281005
0.0001329571
-0.0006388362
0.0001185505
-0.0006481402
0.0001046808
-0.000656031
9.127639e-05
-0.0006625431
7.826598e-05
-0.0006677122
6.558032e-05
-0.0006715708
5.315248e-05
-0.0006741589
4.09121e-05
-0.0006745013
2.884302e-05
-0.0006739617
1.666564e-05
-0.0006722626
4.447301e-06
-0.0006700486
-7.233365e-06
-0.0006664196
-2.00957e-05
-0.0006614891
-3.314724e-05
-0.0006552428
-4.554504e-05
-0.0006476605
-5.968747e-05
-0.000638775
-7.414759e-05
-0.000628557
-8.914397e-05
-0.0006169929
-0.0001048336
-0.0006040791
-0.0001213499
-0.0005897259
-0.0001388008
-0.0005724429
-0.0001573439
-0.0005541888
-0.0001772971
-0.0005344189
-0.0001985225
-0.0005128556
-0.0002211874
-0.0004896388
-0.0002451501
-0.0004649274
-0.0002698599
-0.0004360574
-0.0002978294
-0.0004019237
-0.0003296369
-0.0003658019
-0.0003630627
-0.0003298186
-0.0003981906
-0.0002926336
-0.0004351052
-0.0002533082
-0.0004743132
-0.000212054
-0.0005161392
-0.0001696188
-0.0005611697
-0.0001268044
-0.0006106513
-8.428919e-05
-0.0006670914
-4.314612e-05
-0.0007349415
-0.0007955845
-3.607876e-05
0.0006168075
-7.045906e-05
0.0005999895
-0.0001017693
0.00057725
-0.0001310255
0.0005521932
-0.0001586936
0.0005251271
-0.0001850799
0.0004970154
-0.0002104364
0.0004686461
-0.0002349938
0.0004405501
-0.0002589409
0.0004131106
-0.0002819794
0.0003866702
-0.0003038878
0.0003612633
-0.000323642
0.0003364914
-0.0003408808
0.0003134006
-0.0003581656
0.0002923451
-0.0003760335
0.000271392
-0.0003927322
0.0002501386
-0.000408156
0.000229924
-0.0004222355
0.0002106907
-0.0004349475
0.0001924408
-0.0004464131
0.0001749678
-0.0004566733
0.0001582076
-0.0004658081
0.0001420921
-0.0004738343
0.0001265769
-0.0004807573
0.000111604
-0.0004865878
9.71072e-05
-0.0004913377
8.301608e-05
-0.0004950151
6.925794e-05
-0.0004976212
5.575877e-05
-0.0004991531
4.244431e-05
-0.0004995651
2.925525e-05
-0.0004989824
1.608308e-05
-0.000498063
3.528077e-06
-0.0004962084
-9.087772e-06
-0.0004934589
-2.284513e-05
-0.0004898226
-3.678344e-05
-0.0004843822
-5.098537e-05
-0.0004783417
-6.572798e-05
-0.0004714876
-8.100175e-05
-0.0004637089
-9.692288e-05
-0.0004549362
-0.0001136065
-0.0004451082
-0.0001311781
-0.000434144
-0.0001497653
-0.0004219893
-0.000169499
-0.000408709
-0.0001905777
-0.000394136
-0.0002130959
-0.0003781328
-0.000237191
-0.000360937
-0.0002623462
-0.0003407499
-0.0002900473
-0.000317567
-0.0003210128
-0.000293615
-0.0003535893
-0.0002686547
-0.0003880234
-0.0002423662
-0.0004244796
-0.0002145436
-0.0004629283
-0.0001854187
-0.0005034387
-0.0001552786
-0.0005462799
-0.0001244115
-0.0005920376
-9.319666e-05
-0.000641867
-6.218301e-05
-0.0006981062
-3.184138e-05
-0.0007652846
-0.000827426
-2.564384e-05
0.0006424515
-4.9704e-05
0.0006240497
-7.120079e-05
0.0005987469
-9.119877e-05
0.0005721912
-0.0001102768
0.0005442052
-0.000128736
0.0005154746
-0.0001467132
0.0004866233
-0.000164259
0.0004580959
-0.0001813547
0.0004302063
-0.0001978304
0.0004031459
-0.0002135462
0.0003769791
-0.000228724
0.0003516693
-0.0002427133
0.0003273899
-0.0002545012
0.000304133
-0.0002659277
0.0002828186
-0.0002778144
0.0002620254
-0.0002891242
0.0002412339
-0.0002995526
0.0002211192
-0.0003090206
0.0002019089
-0.0003175823
0.0001835296
-0.0003252731
0.0001658986
-0.0003321292
0.0001489482
-0.0003381693
0.0001326172
-0.0003434062
0.0001168411
-0.0003478502
0.0001015514
-0.0003515111
8.667718e-05
-0.0003543989
7.214599e-05
-0.0003565239
5.788389e-05
-0.0003578966
4.381726e-05
-0.0003585212
2.988001e-05
-0.0003584554
1.601747e-05
-0.0003581481
3.220911e-06
-0.0003564462
-1.078948e-05
-0.0003542351
-2.505613e-05
-0.0003514067
-3.961177e-05
-0.0003478751
-5.451686e-05
-0.0003437045
-6.98985e-05
-0.0003388706
-8.583568e-05
-0.0003333521
-0.0001024415
-0.0003271244
-0.0001198343
-0.0003201611
-0.0001381415
-0.000312428
-0.0001574985
-0.0003038766
-0.0001780507
-0.0002945082
-0.0001999463
-0.000284172
-0.0002234324
-0.0002731279
-0.0002482353
-0.000260442
-0.0002750325
-0.0002457386
-0.000304751
-0.0002303707
-0.000336381
-0.0002138899
-0.0003700704
-0.000196018
-0.0004058957
-0.000176713
-0.000443785
-0.0001560767
-0.000483565
-0.0001343721
-0.0005251437
-0.0001119237
-0.0005687288
-8.906781e-05
-0.0006148941
-6.615886e-05
-0.0006647766
-4.361515e-05
-0.0007206508
-2.20476e-05
-0.0007868532
-0.0008494737
-1.748571e-05
0.0006599374
-3.356116e-05
0.0006401254
-4.738183e-05
0.0006125677
-6.002974e-05
0.0005848393
-7.197371e-05
0.0005561492
-8.346538e-05
0.0005269664
-9.474668e-05
0.0004979047
-0.0001059525
0.0004693017
-0.0001170452
0.000441299
-0.0001279273
0.0004140279
-0.0001385108
0.0003875626
-0.0001487847
0.0003619432
-0.0001586351
0.0003372403
-0.0001679595
0.0003134574
-0.0001757559
0.0002906151
-0.0001830942
0.0002693638
-0.0001908993
0.000249039
-0.0001987794
0.0002289994
-0.000206148
0.0002092777
-0.0002129087
0.0001902904
-0.000219
0.00017199
-0.0002244263
0.0001543747
-0.0002292215
0.0001374125
-0.0002334227
0.0001210425
-0.00023705
0.0001051788
-0.000240117
8.974434e-05
-0.0002426381
7.466723e-05
-0.000244631
5.987691e-05
-0.0002461161
4.530254e-05
-0.0002471093
3.087333e-05
-0.0002476111
1.651945e-05
-0.0002473113
2.921257e-06
-0.0002464955
-1.160522e-05
-0.0002452199
-2.633153e-05
-0.000243496
-4.133559e-05
-0.0002413059
-5.670692e-05
-0.000238659
-7.254529e-05
-0.000235542
-8.895268e-05
-0.0002319422
-0.0001060413
-0.0002278463
-0.0001239302
-0.0002232414
-0.0001427465
-0.000218115
-0.000162625
-0.0002124583
-0.0001837074
-0.0002062422
-0.0002061626
-0.0001996311
-0.0002300436
-0.0001921444
-0.0002557223
-0.0001832834
-0.0002838937
-0.0001739187
-0.000314116
-0.0001637732
-0.0003465268
-0.000152573
-0.0003812709
-0.0001400862
-0.0004183828
-0.000126186
-0.0004576856
-0.0001111048
-0.0004986466
-9.529901e-05
-0.0005409498
-7.912097e-05
-0.0005849072
-6.283383e-05
-0.0006311816
-4.666292e-05
-0.000680948
-3.084639e-05
-0.0007364681
-1.566975e-05
-0.0008020308
-0.0008651435
-1.185658e-05
0.0006717942
-2.216874e-05
0.0006504377
-3.052803e-05
0.0006209272
-3.757683e-05
0.0005918882
-4.409049e-05
0.000562663
-5.04164e-05
0.0005332923
-5.672774e-05
0.000504216
-6.311999e-05
0.0004756939
-6.955431e-05
0.0004477333
-7.59921e-05
0.0004204657
-8.23945e-05
0.000393965
-8.878044e-05
0.0003683292
-9.51261e-05
0.000343586
-0.0001013639
0.0003196951
-0.000107379
0.0002966302
-0.0001124594
0.0002744442
-0.0001167537
0.0002533333
-0.0001210928
0.0002333386
-0.0001257547
0.0002139397
-0.0001303751
0.0001949109
-0.0001348682
0.0001764832
-0.0001391177
0.0001586243
-0.0001430126
0.0001413076
-0.0001464976
0.0001245276
-0.0001495851
0.0001082663
-0.0001522801
9.243946e-05
-0.0001545939
7.698123e-05
-0.0001565403
6.182342e-05
-0.0001581329
4.689528e-05
-0.0001593845
3.212504e-05
-0.0001602998
1.743486e-05
-0.0001606042
3.225748e-06
-0.0001605944
-1.161491e-05
-0.0001602797
-2.664606e-05
-0.0001596601
-4.195512e-05
-0.0001587312
-5.763575e-05
-0.0001574892
-7.378727e-05
-0.0001559273
-9.051459e-05
-0.0001540383
-0.0001079303
-0.0001518139
-0.0001261546
-0.0001492443
-0.0001453162
-0.000146317
-0.0001655523
-0.0001430166
-0.000187008
-0.0001393366
-0.0002098427
-0.0001352127
-0.0002341676
-0.0001304388
-0.0002604964
-0.0001254131
-0.0002889196
-0.0001200113
-0.0003195179
-0.0001139577
-0.0003525807
-0.0001068527
-0.0003883761
-9.83329e-05
-0.0004269028
-8.840202e-05
-0.0004676167
-7.747672e-05
-0.0005095721
-6.612954e-05
-0.0005522973
-5.471041e-05
-0.0005963267
-4.330912e-05
-0.0006425833
-3.202051e-05
-0.000692237
-2.098952e-05
-0.0007474996
-1.050287e-05
-0.0008125181
-0.0008756465
-6.295933e-06
0.0006780904
-1.081652e-05
0.0006549585
-1.30867e-05
0.0006231976
-1.511952e-05
0.0005939211
-1.740501e-05
0.0005649485
-2.021147e-05
0.0005360988
-2.334065e-05
0.0005073452
-2.652008e-05
0.0004788733
-2.98689e-05
0.0004510821
-3.340211e-05
0.0004239989
-3.707918e-05
0.0003976421
-4.08326e-05
0.0003720826
-4.462193e-05
0.0003473753
-4.842521e-05
0.0003234984
-5.223579e-05
0.0003004408
-5.593423e-05
0.0002781427
-5.924598e-05
0.0002566451
-6.192835e-05
0.000236021
-6.440079e-05
0.0002164122
-6.705419e-05
0.0001975643
-6.986531e-05
0.0001792944
-7.280937e-05
0.0001615685
-7.580941e-05
0.0001443077
-7.871905e-05
0.0001274373
-8.143542e-05
0.0001109828
-8.394373e-05
9.494786e-05
-8.623931e-05
7.927691e-05
-8.831856e-05
6.390278e-05
-9.017392e-05
4.875073e-05
-9.179628e-05
3.37475e-05
-9.318524e-05
1.882391e-05
-9.412052e-05
4.161121e-06
-9.485316e-05
-1.088219e-05
-9.538374e-05
-2.611542e-05
-9.571221e-05
-4.162658e-05
-9.583992e-05
-5.750799e-05
-9.576757e-05
-7.385959e-05
-9.549508e-05
-9.078705e-05
-9.502161e-05
-0.0001084037
-9.434447e-05
-0.0001268317
-9.34574e-05
-0.0001462033
-9.234796e-05
-0.0001666618
-9.099164e-05
-0.0001883644
-8.936294e-05
-0.0002114715
-8.730885e-05
-0.0002362218
-8.501512e-05
-0.0002627902
-8.269935e-05
-0.0002912355
-8.006692e-05
-0.0003221505
-7.665304e-05
-0.0003559947
-7.213039e-05
-0.000392899
-6.638005e-05
-0.0004326533
-5.958718e-05
-0.0004744098
-5.204331e-05
-0.0005171162
-4.419923e-05
-0.0005601416
-3.641692e-05
-0.0006041092
-2.87436e-05
-0.0006502568
-2.122736e-05
-0.0006997536
-1.394875e-05
-0.0007547787
-7.052401e-06
-0.000819415
-0.0008826989
-2.879468e-06
0.0006809701
-3.357801e-06
0.0006554371
-2.350329e-06
0.0006221902
-5.772977e-07
0.0005921481
1.446738e-06
0.0005629245
3.383203e-06
0.0005341624
4.753353e-06
0.000505975
5.237847e-06
0.0004783888
4.907479e-06
0.0004514124
3.813892e-06
0.0004250924
2.052546e-06
0.0003994034
-2.54705e-07
0.0003743898
-2.905839e-06
0.0003500264
-5.80644e-06
0.000326399
-8.791615e-06
0.000303426
-1.181144e-05
0.0002811625
-1.482409e-05
0.0002596577
-1.766422e-05
0.0002388611
-2.005738e-05
0.0002188053
-2.20374e-05
0.0001995444
-2.376903e-05
0.000181026
-2.535085e-05
0.0001631503
-2.690686e-05
0.0001458638
-2.859233e-05
0.0001291229
-3.041877e-05
0.0001128093
-3.233789e-05
9.686705e-05
-3.430479e-05
8.124389e-05
-3.62805e-05
6.587856e-05
-3.823294e-05
5.070324e-05
-4.01172e-05
3.563184e-05
-4.189412e-05
2.060091e-05
-4.338583e-05
5.6529e-06
-4.476972e-05
-9.49824e-06
-4.604889e-05
-2.483618e-05
-4.721209e-05
-4.046334e-05
-4.826083e-05
-5.645921e-05
-4.919758e-05
-7.292281e-05
-5.002707e-05
-8.995754e-05
-5.075544e-05
-0.0001076754
-5.138941e-05
-0.0001261978
-5.193507e-05
-0.0001456576
-5.239564e-05
-0.0001662013
-5.276866e-05
-0.0001879914
-5.303047e-05
-0.0002112097
-5.318489e-05
-0.0002360674
-5.315911e-05
-0.0002628161
-5.258318e-05
-0.0002918115
-5.134121e-05
-0.0003233925
-4.940037e-05
-0.0003579357
-4.664284e-05
-0.0003956567
-4.317977e-05
-0.0004361166
-3.907388e-05
-0.0004785159
-3.434272e-05
-0.0005218476
-2.921499e-05
-0.0005652695
-2.40191e-05
-0.0006093053
-1.890942e-05
-0.0006553667
-1.389617e-05
-0.0007047671
-9.030864e-06
-0.0007596443
-4.445596e-06
-0.0008240007
-0.0008871446
-8.728489e-07
0.0006818432
6.240223e-07
0.0006539404
3.682638e-06
0.0006191317
7.606566e-06
0.0005882243
1.15298e-05
0.0005590014
1.509819e-05
0.000530594
1.829904e-05
0.0005027742
2.114796e-05
0.0004755399
2.362847e-05
0.0004489318
2.572529e-05
0.0004229956
2.724738e-05
0.0003978812
2.793911e-05
0.000373698
2.767449e-05
0.000350291
2.666946e-05
0.000327404
2.513381e-05
0.0003049616
2.32449e-05
0.0002830514
2.113207e-05
0.0002617706
1.885168e-05
0.0002411415
1.650448e-05
0.0002211526
1.423135e-05
0.0002018176
1.209203e-05
0.0001831654
1.009536e-05
0.0001651471
8.25162e-06
0.0001477076
6.515589e-06
0.000130859
4.819452e-06
0.0001145055
3.148411e-06
9.853815e-05
1.494739e-06
8.289762e-05
-1.48613e-07
6.752197e-05
-1.796563e-06
5.235125e-05
-3.481568e-06
3.731691e-05
-5.203554e-06
2.232295e-05
-6.855406e-06
7.304804e-06
-8.499347e-06
-7.854253e-06
-1.016255e-05
-2.317293e-05
-1.180796e-05
-3.88179e-05
-1.342334e-05
-5.484379e-05
-1.500662e-05
-7.133951e-05
-1.655853e-05
-8.840562e-05
-1.808339e-05
-0.0001061505
-1.958866e-05
-0.0001246925
-2.108471e-05
-0.0001441616
-2.258421e-05
-0.0001647018
-2.410388e-05
-0.0001864718
-2.566405e-05
-0.0002096496
-2.722698e-05
-0.0002345046
-2.857514e-05
-0.000261468
-2.938807e-05
-0.0002909987
-2.939117e-05
-0.0003233896
-2.861389e-05
-0.0003587131
-2.73312e-05
-0.0003969395
-2.561833e-05
-0.0004378296
-2.338402e-05
-0.0004807503
-2.062484e-05
-0.0005246069
-1.745345e-05
-0.000568441
-1.415749e-05
-0.0006126014
-1.097655e-05
-0.0006585479
-7.920687e-06
-0.0007078231
-5.028046e-06
-0.0007625372
-2.446453e-06
-0.0008265826
-0.000889591
5.639143e-07
0.0006812795
3.772871e-06
0.0006507316
8.985807e-06
0.0006139189
1.479302e-05
0.0005824172
2.057481e-05
0.0005532196
2.606112e-05
0.0005251077
3.1106e-05
0.0004977293
3.562446e-05
0.0004710213
3.955899e-05
0.0004449972
4.282945e-05
0.000419725
4.544124e-05
0.0003952694
4.756804e-05
0.0003715711
4.920936e-05
0.0003486496
5.021462e-05
0.0003263987
5.04021e-05
0.0003047741
4.988742e-05
0.0002835661
4.885048e-05
0.0002628075
4.740536e-05
0.0002425866
4.563538e-05
0.0002229225
4.363567e-05
0.0002038173
4.154509e-05
0.000185256
3.947379e-05
0.0001672184
3.747535e-05
0.000149706
3.558331e-05
0.000132751
3.377157e-05
0.0001163173
3.197705e-05
0.0001003327
3.013601e-05
8.473872e-05
2.823103e-05
6.9427e-05
2.628635e-05
5.429598e-05
2.431667e-05
3.928663e-05
2.231728e-05
2.432238e-05
2.030147e-05
9.320651e-06
1.825503e-05
-5.807779e-06
1.61261e-05
-2.104397e-05
1.398421e-05
-3.667598e-05
1.182524e-05
-5.268481e-05
9.649955e-06
-6.916421e-05
7.455485e-06
-8.621114e-05
5.235708e-06
-0.0001039307
2.981304e-06
-0.0001224381
6.79739e-07
-0.00014186
-1.685786e-06
-0.0001623363
-4.141401e-06
-0.0001840162
-6.639529e-06
-0.0002071516
-9.008397e-06
-0.0002321358
-1.107485e-05
-0.0002594016
-1.274006e-05
-0.0002893336
-1.392782e-05
-0.0003222019
-1.451761e-05
-0.0003581234
-1.44518e-05
-0.0003970054
-1.384797e-05
-0.0004384335
-1.287946e-05
-0.000481719
-1.154544e-05
-0.0005259411
-9.838153e-06
-0.0005701485
-8.014226e-06
-0.0006144255
-6.285799e-06
-0.0006602764
-4.634174e-06
-0.0007094749
-3.044746e-06
-0.0007641269
-1.528297e-06
-0.0008280994
-0.0008911194
1.666415e-06
0.0006796134
6.376544e-06
0.0006460217
1.297194e-05
0.0006073236
2.023715e-05
0.000575152
2.752571e-05
0.0005459311
3.447851e-05
0.0005181549
4.089027e-05
0.0004913175
4.664689e-05
0.0004652646
5.168426e-05
0.0004399598
5.599783e-05
0.0004154114
5.965639e-05
0.0003916107
6.265459e-05
0.0003685728
6.497655e-05
0.0003463276
6.661959e-05
0.0003247556
6.774544e-05
0.0003036482
6.824768e-05
0.0002830638
6.807644e-05
0.0002629787
6.73325e-05
0.0002433306
6.611294e-05
0.0002241421
6.45373e-05
0.0002053929
6.271983e-05
0.0001870735
6.076068e-05
0.0001691775
5.874449e-05
0.0001517223
5.675331e-05
0.0001347422
5.481508e-05
0.0001182555
5.289269e-05
0.0001022551
5.093403e-05
8.669741e-05
4.889074e-05
7.147032e-05
4.672682e-05
5.645994e-05
4.445162e-05
4.156186e-05
4.209931e-05
2.667472e-05
3.969257e-05
1.172742e-05
3.723924e-05
-3.354424e-06
3.468918e-05
-1.849388e-05
3.210046e-05
-3.408724e-05
2.947965e-05
-5.006398e-05
2.682627e-05
-6.651083e-05
2.41355e-05
-8.352036e-05
2.139724e-05
-0.0001011925
1.859673e-05
-0.0001196376
1.571208e-05
-0.0001389754
1.273441e-05
-0.0001593586
9.716447e-06
-0.0001809983
6.793478e-06
-0.0002042286
4.114615e-06
-0.000229457
1.756795e-06
-0.0002570439
-2.64108e-07
-0.0002873128
-1.959556e-06
-0.0003205066
-3.330476e-06
-0.0003567526
-4.344006e-06
-0.000395992
-4.889379e-06
-0.0004378883
-4.859253e-06
-0.0004817492
-4.327405e-06
-0.000526473
-3.498838e-06
-0.0005709772
-2.616818e-06
-0.0006153076
-1.831691e-06
-0.0006610617
-1.153835e-06
-0.0007101529
-6.14703e-07
-0.0007646661
-2.395259e-07
-0.0008284747
-0.0008913589
2.254939e-06
0.0006773587
7.808092e-06
0.0006404687
1.532499e-05
0.0005998069
2.355369e-05
0.0005669234
3.182932e-05
0.0005376554
3.977576e-05
0.0005102084
4.717539e-05
0.0004839178
5.390558e-05
0.0004585344
5.990081e-05
0.0004339645
6.513765e-05
0.0004101744
6.960197e-05
0.0003871463
7.329982e-05
0.0003648749
7.627057e-05
0.0003433567
7.856003e-05
0.000322466
8.01496e-05
0.0003020585
8.109525e-05
0.0002821181
8.140789e-05
0.0002626661
8.104824e-05
0.0002436902
8.011612e-05
0.0002250742
7.870967e-05
0.0002067994
7.694917e-05
0.000188834
7.495341e-05
0.0001711733
7.282559e-05
0.0001538501
7.064597e-05
0.0001369219
6.846297e-05
0.0001204386
6.629793e-05
0.0001044202
6.415001e-05
8.884536e-05
6.197461e-05
7.364576e-05
5.97132e-05
5.872137e-05
5.733713e-05
4.393796e-05
5.484165e-05
2.917023e-05
5.223257e-05
1.433652e-05
4.952293e-05
-6.447686e-07
4.67025e-05
-1.567343e-05
4.38129e-05
-3.119763e-05
4.086998e-05
-4.712105e-05
3.788014e-05
-6.352099e-05
3.483805e-05
-8.047828e-05
3.172706e-05
-9.808149e-05
2.8532e-05
-0.0001164426
2.5258e-05
-0.0001357014
2.194256e-05
-0.0001560432
1.868296e-05
-0.0001777387
1.55791e-05
-0.0002011248
1.268748e-05
-0.0002265654
1.006456e-05
-0.000254421
7.751341e-06
-0.0002849996
5.753302e-06
-0.0003185086
4.028184e-06
-0.0003550276
2.536867e-06
-0.0003945008
1.304577e-06
-0.0004366561
3.905556e-07
-0.0004808353
-1.395196e-07
-0.0005259431
-3.137597e-07
-0.000570803
-3.159078e-07
-0.0006153056
-2.943458e-07
-0.0006610833
-2.490783e-07
-0.0007101983
-1.810603e-07
-0.0007647343
-9.071897e-08
-0.0008285653
-0.0008914496
2.529183e-06
0.0006748297
8.559141e-06
0.0006344389
1.659414e-05
0.000591772
2.538889e-05
0.0005581287
3.426083e-05
0.0005287835
4.281547e-05
0.0005016537
5.082115e-05
0.000475912
5.814401e-05
0.0004512114
6.471212e-05
0.0004273962
7.049661e-05
0.0004043898
7.549576e-05
0.000382147
7.973421e-05
0.0003606363
8.326048e-05
0.0003398304
8.605623e-05
0.0003196702
8.805629e-05
0.0003000584
8.927689e-05
0.0002808974
8.979033e-05
0.0002621526
8.966053e-05
0.00024382
8.889272e-05
0.000225842
8.756976e-05
0.0002081223
8.580734e-05
0.0001905964
8.373645e-05
0.0001732442
8.148208e-05
0.0001561045
7.914384e-05
0.0001392601
7.678035e-05
0.0001228021
7.44096e-05
0.000106791
7.202368e-05
9.12313e-05
6.960422e-05
7.606525e-05
6.713688e-05
6.118872e-05
6.460231e-05
4.647256e-05
6.198254e-05
3.179001e-05
5.927498e-05
1.70441e-05
5.645599e-05
2.174237e-06
5.349568e-05
-1.27131e-05
5.042767e-05
-2.812962e-05
4.729817e-05
-4.399155e-05
4.412004e-05
-6.034286e-05
4.088697e-05
-7.724521e-05
3.758803e-05
-9.478256e-05
3.422089e-05
-0.0001130755
3.081169e-05
-0.0001322923
2.741677e-05
-0.0001526483
2.409756e-05
-0.0001744195
2.091519e-05
-0.0001979425
1.793327e-05
-0.0002235836
1.52039e-05
-0.0002516918
1.275897e-05
-0.0002825548
1.061359e-05
-0.0003163634
8.772775e-06
-0.0003531869
7.229383e-06
-0.0003929575
5.948687e-06
-0.0004353755
4.902249e-06
-0.000479789
4.101471e-06
-0.0005251424
3.547826e-06
-0.0005702495
3.093231e-06
-0.0006148511
2.597819e-06
-0.000660588
2.05487e-06
-0.0007096554
1.451137e-06
-0.0007641307
7.668922e-07
-0.0008278812
-0.0008906828
2.505786e-06
0.0006723242
8.69188e-06
0.0006282531
1.692871e-05
0.0005835353
2.598074e-05
0.0005490768
3.515038e-05
0.0005196139
4.403029e-05
0.0004927738
5.237606e-05
0.0004675662
6.004269e-05
0.0004435447
6.694877e-05
0.00042049
7.305606e-05
0.0003982824
7.835659e-05
0.0003768464
8.286676e-05
0.000356126
8.662428e-05
0.0003360727
8.965898e-05
0.0003166354
9.194947e-05
0.0002977678
9.345743e-05
0.0002793894
9.417923e-05
0.0002614307
9.415584e-05
0.0002438433
9.344783e-05
0.00022655
9.213237e-05
0.0002094378
9.03177e-05
0.0001924111
8.813803e-05
0.0001754239
8.57302e-05
0.0001585123
8.320824e-05
0.0001417821
8.064759e-05
0.0001253628
7.808296e-05
0.0001093556
7.551589e-05
9.379837e-05
7.29264e-05
7.865475e-05
7.028873e-05
6.382642e-05
6.758384e-05
4.917746e-05
6.480663e-05
3.456724e-05
6.196607e-05
1.988467e-05
5.90583e-05
5.082013e-06
5.613033e-05
-9.785121e-06
5.298394e-05
-2.498323e-05
4.976173e-05
-4.076934e-05
4.650505e-05
-5.708618e-05
4.321244e-05
-7.39526e-05
3.988016e-05
-9.145029e-05
3.651434e-05
-0.0001097097
3.313221e-05
-0.0001289101
2.977002e-05
-0.0001492862
2.648164e-05
-0.0001711312
2.332555e-05
-0.0001947865
2.035416e-05
-0.0002206122
1.76092e-05
-0.0002489469
1.5118e-05
-0.0002800637
1.289128e-05
-0.0003141367
1.092686e-05
-0.0003512226
9.219081e-06
-0.0003912499
7.768008e-06
-0.0004339246
6.571622e-06
-0.0004785927
5.599709e-06
-0.0005241706
4.790399e-06
-0.0005694403
4.034024e-06
-0.0006140948
3.256244e-06
-0.0006598103
2.465172e-06
-0.0007088644
1.664007e-06
-0.0007633296
8.456175e-07
-0.0008270628
-0.0008898372
2.286529e-06
0.0006700379
8.416822e-06
0.000622123
1.662175e-05
0.0005753306
2.568135e-05
0.0005400172
3.490028e-05
0.000510395
4.386223e-05
0.0004838118
5.231297e-05
0.0004591154
6.009724e-05
0.0004357603
6.712413e-05
0.000413463
7.334644e-05
0.00039206
7.874767e-05
0.000371445
8.333384e-05
0.0003515397
8.712737e-05
0.0003322791
9.015798e-05