/*--------------------------------*- C++ -*----------------------------------*\
| =========                 |                                                 |
| \\      /  F ield         | OpenFOAM: The Open Source CFD Toolbox           |
|  \\    /   O peration     | Version:  2312                                  |
|   \\  /    A nd           | Website:  www.openfoam.com                      |
|    \\/     M anipulation  |                                                 |
\*---------------------------------------------------------------------------*/
FoamFile
{
    version     2.0;
    format      ascii;
    arch        "LSB;label=32;scalar=64";
    class       volScalarField;
    location    "3300";
    object      qin;
}
// * * * * * * * * * * * * * * * * * * * * * * * * * * * * * * * * * * * * * //

dimensions      [1 0 -3 0 0 0 0];

internalField   uniform 0;

boundaryField
{
    plate
    {
        type            calculated;
        value           nonuniform List<scalar> 
200
(
2041.591
2032.223
2025.204
2001.695
1964.496
1934.033
1923.175
1930.26
1946.198
1962.603
1973.793
1976.08
1968.108
1951.972
1933.281
1919.248
1915.495
1923.399
1939.609
1958.012
1972.838
1981.067
1983.063
1981.549
1979.845
1980.325
1983.643
1988.773
1993.681
1996.308
1995.529
1991.715
1986.634
1982.717
1981.99
1985.225
1991.675
1999.518
2006.71
2011.838
2014.58
2015.65
2016.338
2017.909
2021.11
2025.96
2031.83
2037.745
2042.763
2046.277
2048.157
2048.701
2048.454
2047.973
2047.652
2047.646
2047.919
2048.339
2048.804
2049.294
2049.881
2050.672
2051.739
2053.065
2054.537
2055.978
2057.208
2058.104
2058.636
2058.865
2058.91
2058.904
2058.942
2059.061
2059.236
2059.404
2059.487
2059.43
2059.207
2058.829
2058.335
2057.774
2057.202
2056.665
2056.211
2055.882
2055.728
2055.8
2056.148
2056.816
2057.827
2059.181
2060.846
2062.762
2064.844
2066.993
2069.107
2071.087
2072.848
2074.324
2075.472
2076.272
2076.731
2076.879
2076.774
2076.488
2076.111
2075.733
2075.441
2075.302
2075.364
2075.647
2076.148
2076.846
2077.712
2078.714
2079.818
2080.99
2082.193
2083.377
2084.484
2085.454
2086.242
2086.832
2087.255
2087.586
2087.924
2088.36
2088.938
2089.629
2090.328
2090.891
2091.19
2091.171
2090.888
2090.49
2090.16
2090.037
2090.141
2090.362
2090.512
2090.43
2090.097
2089.693
2089.562
2090.07
2091.422
2093.504
2095.833
2097.674
2098.274
2097.143
2094.276
2090.205
2085.86
2082.259
2080.113
2079.495
2079.713
2079.504
2077.575
2073.312
2067.38
2061.827
2059.523
2063.047
2073.487
2089.72
2108.579
2125.906
2138.039
2143.122
2141.697
2136.389
2130.861
2128.389
2130.449
2135.742
2140.234
2138.84
2128.699
2112.483
2098.935
2098.86
2118.337
2154.213
2195.857
2231.749
2255.06
2264.15
2259.851
2244.818
2227.354
2225.013
2258.068
2330.552
2418.726
2490.957
2554.055
2667.25
)
;
    }
    riser
    {
        type            calculated;
        value           nonuniform List<scalar> 
200
(
3594.65
3619.382
3659.896
3798.2
4024.46
4232.412
4337.888
4349.085
4322.503
4297.97
4289.515
4307.868
4367.395
4473.079
4608.646
4740.427
4835.287
4878.678
4879.553
4860.501
4842.7
4836.5
4841.204
4850.434
4857.873
4860.739
4860.841
4863.876
4877.418
4907.94
4957.662
5022.675
5093.54
5158.43
5207.436
5235.957
5245.613
5242.572
5234.451
5227.405
5224.532
5225.909
5229.745
5233.844
5236.69
5237.858
5237.855
5237.631
5238.072
5239.652
5242.318
5245.599
5248.852
5251.529
5253.366
5254.432
5255.046
5255.606
5256.418
5257.594
5259.045
5260.556
5261.899
5262.935
5263.656
5264.161
5264.594
5265.067
5265.609
5266.162
5266.613
5266.853
5266.831
5266.581
5266.215
5265.89
5265.762
5265.946
5266.491
5267.387
5268.572
5269.951
5271.417
5272.843
5274.084
5274.966
5275.287
5274.823
5273.357
5270.718
5266.817
5261.681
5255.477
5248.503
5241.174
5233.98
5227.437
5222.035
5218.192
5216.211
5216.26
5218.356
5222.367
5228.033
5234.988
5242.798
5251.004
5259.161
5266.881
5273.858
5279.889
5284.875
5288.81
5291.76
5293.833
5295.159
5295.867
5296.082
5295.923
5295.511
5294.975
5294.456
5294.083
5293.955
5294.11
5294.518
5295.085
5295.681
5296.196
5296.584
5296.89
5297.228
5297.734
5298.491
5299.483
5300.584
5301.606
5302.397
5302.924
5303.315
5303.805
5304.601
5305.731
5306.931
5307.678
5307.371
5305.628
5302.581
5299.021
5296.276
5295.811
5298.632
5304.718
5312.734
5320.257
5324.568
5323.834
5318.213
5310.308
5304.515
5305.272
5314.844
5331.695
5350.378
5363.21
5363
5345.577
5311.042
5263.485
5209.675
5157.392
5113.757
5083.664
5068.501
5065.557
5068.524
5069.415
5062.086
5046.811
5033.458
5038.982
5076.133
5137.336
5187.455
5179.318
5088.178
4938.373
4792.22
4699.939
4654.204
4609.926
4569.357
4611.382
4767.089
4886.836
4752.187
4405.156
4160.41
4073.385
3998.936
)
;
    }
    topAndBottom
    {
        type            calculated;
        value           nonuniform List<scalar> 
120
(
5429.88
4900.586
4574.545
4394.496
4257.152
4139.86
4051.776
3993.118
3955.218
3929.337
3909.624
3892.782
3877.406
3863.306
3850.782
3840.064
3831.106
3823.702
3817.656
3812.831
3809.023
3805.824
3802.596
3798.628
3793.351
3786.504
3778.149
3768.586
3758.213
3747.427
3736.574
3725.947
3715.8
3706.345
3697.728
3689.983
3682.978
3676.41
3669.876
3663.02
3655.684
3647.977
3640.223
3632.818
3626.129
3620.434
3615.856
3612.164
3608.503
3603.351
3595.013
3582.631
3567.171
3551.432
3538.429
3528.621
3518.536
3503.116
3483.526
3463.252
3734.275
3721.636
3709.65
3698.833
3691.829
3687.113
3682.16
3675.858
3669.099
3663.432
3659.648
3657.418
3655.855
3654.21
3652.173
3649.76
3647.088
3644.258
3641.35
3638.434
3635.555
3632.694
3629.762
3626.65
3623.273
3619.597
3615.615
3611.322
3606.701
3601.74
3596.465
3590.968
3585.402
3579.963
3574.822
3570.051
3565.548
3561.015
3556.032
3550.221
3543.438
3535.882
3528.049
3520.534
3513.801
3508.009
3502.919
3497.852
3491.699
3483.183
3471.487
3457.058
3441.886
3428.56
3418.283
3409.292
3397.8
3381.453
3364.164
3349.076
)
;
    }
    frontAndBack
    {
        type            empty;
    }
}


// ************************************************************************* //
