# Region type : patch plate
# Faces        : 200
# Area         : 6.7000000e-01
# Scale factor : 1.0000000e+00
# Time         	areaAverage(T)
4900           	6.0906852e+02
5000           	6.0677748e+02
5100           	6.1262839e+02
