/*--------------------------------*- C++ -*----------------------------------*\
| =========                 |                                                 |
| \\      /  F ield         | OpenFOAM: The Open Source CFD Toolbox           |
|  \\    /   O peration     | Version:  2312                                  |
|   \\  /    A nd           | Website:  www.openfoam.com                      |
|    \\/     M anipulation  |                                                 |
\*---------------------------------------------------------------------------*/
FoamFile
{
    version     2.0;
    format      ascii;
    arch        "LSB;label=32;scalar=64";
    class       volScalarField;
    location    "5850";
    object      ILambda_10_0;
}
// * * * * * * * * * * * * * * * * * * * * * * * * * * * * * * * * * * * * * //

dimensions      [1 0 -3 0 0 0 0];

internalField   nonuniform List<scalar> 
12000
(
695.3537
691.842
689.8259
687.3545
684.9015
682.4038
679.9192
677.4775
675.1124
672.8539
670.7291
668.7619
666.9728
665.3791
663.9947
662.8304
661.8935
661.1882
660.715
660.4703
660.4458
660.6279
660.997
661.5265
662.1826
662.9239
663.7017
664.4603
665.139
665.6737
665.9993
666.0534
665.779
665.129
664.0688
662.5798
660.6617
658.333
655.632
652.615
649.3544
645.9347
642.449
638.9938
635.6648
632.5525
629.7379
627.2895
625.2609
623.6898
622.5964
621.9834
621.8362
622.1245
622.803
623.8142
625.0914
626.5618
628.1492
629.7751
706.6885
705.3336
704.114
702.5987
700.8198
698.8082
696.5839
694.1804
691.6325
688.9781
686.2556
683.5038
680.7599
678.0596
675.4363
672.921
670.5429
668.3288
666.3042
664.4932
662.919
661.6034
660.5663
659.8253
659.3942
659.2811
659.4865
660.0011
660.804
661.8608
663.1225
664.525
665.9906
667.4294
668.7431
669.8294
670.5877
670.9247
670.7611
670.037
668.7169
666.7926
664.2852
661.2441
657.7446
653.8838
649.7748
645.541
641.309
637.2031
633.3396
629.8228
626.7417
624.1672
622.1515
620.7264
619.9038
619.6767
620.0179
620.8722
707.0579
706.9611
706.5995
706.1006
705.3437
704.348
703.0988
701.6039
699.8756
697.9345
695.8069
693.5233
691.1171
688.6228
686.0744
683.5048
680.9444
678.4209
675.959
673.5809
671.3068
669.1556
667.1462
665.2983
663.6328
662.1727
660.9424
659.9672
659.2714
658.8765
658.7979
659.0422
659.6037
660.4614
661.5771
662.8938
664.3362
665.8126
667.2183
668.4412
669.3684
669.8932
669.9232
669.3873
668.2415
666.4724
664.0993
661.1731
657.7726
653.9991
649.97
645.8108
641.6482
637.6031
633.786
630.2933
627.2059
624.5908
622.5031
620.9824
707.7759
707.8792
708.0195
708.1106
708.098
707.9322
707.5734
706.9906
706.1626
705.0784
703.7372
702.1478
700.328
698.3026
696.1025
693.7623
691.3183
688.8072
686.2638
683.72
681.2036
678.738
676.3422
674.0316
671.819
669.7158
667.7343
665.8888
664.1974
662.6824
661.371
660.2941
659.4846
658.9746
658.7917
658.9545
659.4682
660.3203
661.477
662.8811
664.4522
666.0886
667.6714
669.0716
670.1584
670.8087
670.9167
670.403
669.2215
667.3639
664.8609
661.7796
658.2184
654.298
650.1518
645.9135
641.7067
637.6355
633.7827
630.2132
709.2704
708.2327
708.2203
708.1644
708.2909
708.4609
708.6343
708.7473
708.7457
708.5802
708.2097
707.6028
706.7383
705.6066
704.2091
702.5578
700.6742
698.5876
696.3333
693.9503
691.4787
688.9579
686.4237
683.9076
681.4348
679.0241
676.6883
674.4347
672.2674
670.1894
668.2049
666.3223
664.5564
662.93
661.4748
660.2301
659.2416
658.5567
658.2202
658.268
658.7208
659.5773
660.8098
662.3601
664.1394
666.0298
667.8908
669.5671
670.9009
671.7437
671.9705
671.4913
670.2608
668.2842
665.6185
662.3677
658.6722
654.6893
650.5747
646.4647
714.9679
711.8567
710.9608
709.8958
709.2633
708.8691
708.7113
708.7296
708.8689
709.0674
709.2621
709.3912
709.3969
709.2276
708.8403
708.2024
707.2929
706.1033
704.6372
702.9104
700.9489
698.7876
696.4677
694.0341
691.5321
689.005
686.4911
684.0216
681.619
679.2966
677.0588
674.9027
672.8204
670.8025
668.8419
666.9375
665.0986
663.3469
661.7188
660.2643
659.0451
658.1297
657.5865
657.4758
657.8401
658.6951
660.022
661.7615
663.8121
666.0324
668.248
670.2638
671.8792
672.9071
673.1937
672.639
671.2141
668.9703
666.035
662.5973
725.3744
720.5117
718.4984
716.1148
714.1997
712.5737
711.2914
710.3362
709.6916
709.3255
709.1952
709.2483
709.4251
709.6613
709.8905
710.0471
710.0696
709.9031
709.5017
708.8311
707.8697
706.6096
705.0573
703.2327
701.1676
698.9042
696.4915
693.9827
691.4309
688.8856
686.3894
683.9745
681.6611
679.4563
677.3544
675.3392
673.3868
671.4708
669.5674
667.6617
665.7532
663.8605
662.0243
660.3077
658.7938
657.5794
656.7667
656.451
656.7077
657.5785
659.0586
661.0876
663.5445
666.249
668.9695
671.4396
673.3846
674.5588
674.7844
673.9982
738.1122
732.9337
730.2521
727.0547
724.1113
721.3174
718.7635
716.4866
714.5233
712.8955
711.6124
710.6692
710.0472
709.7145
709.6273
709.7311
709.9635
710.2566
710.5396
710.7423
710.7983
710.6478
710.2409
709.5401
708.5225
707.1805
705.5231
703.5751
701.3756
698.9758
696.4354
693.8187
691.1899
688.6079
686.1224
683.7689
681.5662
679.5147
677.5968
675.779
674.0161
672.258
670.4571
668.5771
666.6015
664.5413
662.4404
660.3775
658.464
656.8374
655.6491
655.0486
655.164
656.0809
657.8214
660.3253
663.4367
666.9069
670.4184
673.6401
749.4588
745.548
743.0344
740.0166
736.9273
733.7498
730.5635
727.4316
724.4208
721.5928
719.0036
716.7002
714.7193
713.0849
711.8077
710.884
710.2959
710.0113
709.9853
710.1613
710.4738
710.8503
711.2148
711.4908
711.6053
711.4921
711.0953
710.3728
709.2984
707.8644
706.082
703.9813
701.61
699.0306
696.3166
693.5474
690.8023
688.1548
685.6654
683.3765
681.308
679.454
677.783
676.2397
674.7509
673.2334
671.6048
669.7955
667.7623
665.4997
663.0505
660.5101
658.0275
655.7979
654.0493
653.0205
652.9295
653.9341
656.0956
659.3441
756.8751
754.939
753.2799
751.2629
748.9457
746.3572
743.5288
740.5075
737.3482
734.1124
730.866
727.6768
724.6118
721.7347
719.1029
716.7659
714.7624
713.119
711.8485
710.9493
710.4045
710.1824
710.2373
710.5105
710.9325
711.4256
711.9071
712.2926
712.5006
712.4559
712.0946
711.3674
710.2432
708.7122
706.787
704.503
701.9175
699.1066
696.161
693.1799
690.2637
687.5061
684.9854
682.7569
680.8456
679.2418
677.8994
676.7372
675.6453
674.495
673.153
671.4982
669.4412
666.9428
664.0316
660.8178
657.4997
654.3537
651.7018
649.8488
760.2557
759.8475
759.2193
758.3967
757.2636
755.8271
754.0693
751.9936
749.6138
746.9557
744.0562
740.9623
737.7296
734.4201
731.1004
727.8393
724.7052
721.7636
719.0742
716.6894
714.6511
712.9891
711.7197
710.8439
710.3471
710.1987
710.3523
710.7471
711.3096
711.9559
712.5952
713.1336
713.4786
713.5439
713.2542
712.5502
711.3932
709.7686
707.6884
705.1924
702.3475
699.2451
695.9967
692.7262
689.5622
686.627
684.026
681.8365
680.0972
678.8006
677.8884
677.2516
676.7354
676.1509
675.2917
673.9569
671.9809
669.267
665.8148
661.7449
761.2456
761.3246
761.4125
761.3879
761.2235
760.8608
760.262
759.3899
758.2172
756.7254
754.9067
752.7646
750.3139
747.5814
744.6042
741.4296
738.1135
734.7181
731.3108
727.9613
724.7397
721.7137
718.9464
716.4935
714.4014
712.7043
711.4232
710.563
710.1126
710.0431
710.3085
710.8461
711.5782
712.4143
713.2545
713.9937
714.5264
714.7522
714.5816
713.9418
712.7824
711.0802
708.8433
706.1131
702.9647
699.5052
695.8688
692.2096
688.6913
685.4755
682.7065
680.497
678.9135
677.9638
677.5873
677.6506
677.9498
678.2285
678.2129
677.6782
761.6649
761.4096
761.7009
761.8782
762.1232
762.3229
762.4534
762.4628
762.3062
761.9391
761.3214
760.4192
759.2062
757.6655
755.7906
753.5857
751.0666
748.2601
745.2036
741.9442
738.5375
735.0461
731.5377
728.0832
724.7545
721.6222
718.7532
716.208
714.0382
712.2842
710.9724
710.1138
709.7013
709.7095
710.0935
710.7894
711.7156
712.775
713.8582
714.8479
715.6238
716.0693
716.0774
715.5577
714.4438
712.699
710.322
707.3511
703.8658
699.9862
695.8694
691.702
687.6891
684.0405
680.9535
678.594
677.0751
676.4376
676.6421
677.5647
762.4483
761.682
761.78
761.7494
761.8947
762.1059
762.3864
762.6998
763.0116
763.2801
763.4603
763.5057
763.3702
763.0102
762.3864
761.466
760.2243
758.6454
756.7238
754.4646
751.8838
749.0082
745.8748
742.5301
739.029
735.434
731.8129
728.2378
724.7827
721.5216
718.526
715.8619
713.5878
711.7512
710.3857
709.5092
709.1206
709.1987
709.701
710.5634
711.7013
713.0115
714.3755
715.6633
716.7396
717.4696
717.7263
717.3985
716.3987
714.6714
712.1998
709.0124
705.1866
700.85
696.1778
691.3871
686.7255
682.4526
678.8099
675.963
763.6711
762.7065
762.48
762.1537
761.9717
761.8821
761.9079
762.0442
762.2835
762.6085
762.9941
763.4076
763.81
764.1575
764.4035
764.5003
764.4013
764.0633
763.4479
762.5234
761.2664
759.6623
757.7066
755.4047
752.7726
749.8365
746.6322
743.2051
739.609
735.9053
732.162
728.4521
724.8522
721.44
718.2924
715.4824
713.076
711.1292
709.6845
708.7675
708.3843
708.5191
709.1329
710.1623
711.5211
713.1007
714.7744
716.4004
717.8282
718.9045
719.4814
719.4248
718.6241
717.0009
714.5188
711.191
707.0868
702.3349
697.1154
691.6317
765.2413
764.3862
763.9293
763.4305
762.9696
762.5583
762.2194
761.9739
761.8392
761.8272
761.9426
762.1819
762.5327
762.9739
763.4759
764.0018
764.5089
764.9503
765.277
765.4399
765.3922
765.0908
764.4984
763.5845
762.3271
760.7129
758.7379
756.4079
753.7382
750.7536
747.4882
743.985
740.296
736.4812
732.608
728.7506
724.9881
721.403
718.0783
715.0951
712.5285
710.4442
708.8943
707.9138
707.5165
707.693
708.4079
709.5997
711.1802
713.0366
715.0341
717.02
718.8296
720.2929
721.2431
721.5258
721.0099
719.6004
717.2535
714.0061
767.5514
766.6508
766.0979
765.5301
764.9449
764.357
763.7722
763.2107
762.6952
762.251
761.9033
761.6741
761.5808
761.6336
761.8347
762.1767
762.643
763.2073
763.835
764.4844
765.1085
765.6567
766.0774
766.3201
766.3372
766.086
765.5305
764.6418
763.3994
761.7913
759.8142
757.4736
754.7834
751.7663
748.4533
744.8842
741.1079
737.1818
733.1728
729.1559
725.2133
721.433
717.906
714.7225
711.9687
709.7215
708.0439
706.981
706.5549
706.762
707.5704
708.9186
710.7156
712.843
715.1573
717.4953
719.681
721.5339
722.8879
723.6389
771.8226
770.0904
769.3674
768.5749
767.8688
767.1768
766.4848
765.7807
765.0646
764.3461
763.6428
762.9786
762.3814
761.8802
761.5026
761.2724
761.2069
761.3152
761.5967
762.0404
762.6247
763.3181
764.0801
764.8633
765.6155
766.2819
766.8079
767.1409
767.2332
767.043
766.5358
765.6851
764.4724
762.8874
760.9275
758.5973
755.9085
752.88
749.5384
745.9184
742.0639
738.0292
733.8793
729.6901
725.5482
721.5483
717.7912
714.3793
711.412
708.9798
707.1587
706.0043
705.547
705.7874
706.6934
708.1989
710.2049
712.5828
715.1847
717.872
779.9894
776.3147
775.0091
773.4783
772.2925
771.2424
770.3145
769.4549
768.6279
767.8051
766.9693
766.1143
765.2452
764.3769
763.5329
762.7431
762.0405
761.4592
761.0308
760.7816
760.7299
760.8843
761.2418
761.7873
762.494
763.3236
764.229
765.156
766.0459
766.8391
767.4773
767.9067
768.0796
767.9559
767.5041
766.7011
765.5319
763.9882
762.068
759.7745
757.1156
754.1046
750.7607
747.111
743.1923
739.0531
734.756
730.3779
726.0106
721.7586
717.7361
714.0625
710.8554
708.2241
706.2608
705.0329
704.5756
704.8864
705.9233
707.6028
793.6666
787.4406
785.0234
782.1373
779.8439
777.8384
776.1466
774.7045
773.4626
772.3668
771.3661
770.415
769.4762
768.5232
767.5412
766.5277
765.4927
764.4571
763.4511
762.5115
761.6789
760.9938
760.4933
760.2078
760.1578
760.3516
760.7839
761.435
762.2714
763.2471
764.3065
765.3868
766.422
767.3466
768.0988
768.6237
768.875
768.8164
768.4214
767.6725
766.5596
765.0778
763.2256
761.0036
758.4139
755.4606
752.1516
748.5017
744.5364
740.2953
735.8363
731.2379
726.6003
722.0442
717.7068
713.7357
710.2791
707.4739
705.4297
704.1985
812.2177
804.2571
800.6369
796.2851
792.5201
789.0617
786.0021
783.3231
781.0118
779.0361
777.3534
775.9122
774.6565
773.5294
772.4767
771.4506
770.4125
769.3359
768.2076
767.0287
765.8144
764.5923
763.4009
762.2859
761.2969
760.4832
759.8896
759.5519
759.494
759.7245
760.2351
761.0006
761.9792
763.1148
764.341
765.5843
766.7698
767.8252
768.6854
769.2956
769.6135
769.6093
769.2652
768.5726
767.5293
766.1352
764.3897
762.2889
759.8249
756.9868
753.7642
750.1515
746.1552
741.8007
737.1393
732.2544
727.2658
722.3279
717.6194
713.3084
831.4222
824.1238
820.0822
815.1695
810.4646
805.8373
801.4261
797.292
793.4932
790.0665
787.0299
784.3828
782.1066
780.1672
778.5181
777.1033
775.8615
774.7306
773.6513
772.5714
771.4495
770.2578
768.9839
767.632
766.2229
764.7922
763.3882
762.0678
760.8926
759.9232
759.2144
758.8099
758.7379
759.0074
759.6066
760.5027
761.6428
762.9578
764.3667
765.7829
767.1199
768.2981
769.2496
769.922
770.2805
770.3072
769.9982
769.3594
768.401
767.1305
765.548
763.6421
761.3882
758.7503
755.6859
752.1543
748.1299
743.6173
738.6642
733.3643
844.7092
840.9275
837.9179
834.1657
830.0207
825.5513
820.8735
816.101
811.3447
806.7075
802.2807
798.1405
794.3455
790.9348
787.9274
785.3218
783.0978
781.218
779.6309
778.2746
777.0809
775.98
774.9055
773.7985
772.6123
771.3161
769.8971
768.3623
766.7388
765.0716
763.4213
761.8594
760.4626
759.3068
758.4599
757.9757
757.888
758.2064
758.9139
759.9669
761.2977
762.8193
764.4317
766.0305
767.5152
768.7974
769.8075
770.4991
770.8507
770.8635
770.5569
769.9604
769.1046
768.0106
766.6806
765.0899
763.1826
760.8765
758.077
754.7088
846.8797
848.1417
847.4581
846.4418
844.5607
842.0214
838.8447
835.1265
830.9637
826.4667
821.752
816.9373
812.1376
807.4602
803.0008
798.8399
795.0398
791.6426
788.6689
786.1173
783.966
782.1737
780.6832
779.4248
778.3213
777.2926
776.2616
775.16
773.933
772.5444
770.9796
769.2485
767.385
765.4461
763.5078
761.6604
760.0005
758.6236
757.6151
757.0416
756.9441
757.3319
758.1807
759.4319
760.9973
762.7651
764.6095
766.4024
768.0241
769.3755
770.386
771.02
771.2781
771.1941
770.8271
770.2487
769.525
768.6974
767.7695
766.7126
837.5979
843.0125
844.935
847.0447
848.2451
848.7477
848.4594
847.3935
845.569
843.032
839.8493
836.1064
831.9044
827.3555
822.5789
817.6966
812.8281
808.0862
803.5723
799.3727
795.5553
792.1666
789.2302
786.7458
784.6902
783.018
781.6649
780.5515
779.5884
778.6819
777.7408
776.683
775.4425
773.9747
772.2621
770.3167
768.1808
765.9262
763.6489
761.4629
759.4911
757.8544
756.6605
755.9929
755.9013
756.3945
757.4374
758.951
760.8182
762.8931
765.0135
767.0173
768.7577
770.1198
771.033
771.4811
771.5039
771.1902
770.6625
770.0622
821.8636
828.5693
832.128
836.2535
839.8868
843.121
845.7975
847.8352
849.1585
849.7166
849.4818
848.4504
846.6434
844.105
840.9017
837.1189
832.8586
828.2352
823.3712
818.3931
813.4262
808.5903
803.9944
799.7326
795.8804
792.4908
789.5923
787.1871
785.2509
783.7341
782.5638
781.6487
780.8837
780.1576
779.3601
778.3911
777.1685
775.6366
773.7723
771.5895
769.141
766.5162
763.8368
761.2474
758.9043
756.9613
755.5557
754.7929
754.7344
755.3885
756.7057
758.5793
760.8531
763.3329
765.8045
768.0554
769.901
771.2091
771.923
772.0854
807.2367
812.0223
815.5156
819.6543
823.9363
828.2954
832.5922
836.695
840.4746
843.8095
846.5898
848.7216
850.1294
850.7594
850.5813
849.5888
847.8005
845.2586
842.0281
838.1941
833.859
829.1393
824.1613
819.0567
813.9579
808.9932
804.2812
799.9267
796.0151
792.6088
789.7436
787.4259
785.6315
784.3064
783.368
782.7103
782.2089
781.7299
781.1387
780.311
779.1438
777.5654
775.5444
773.096
770.2845
767.2214
764.0596
760.9826
758.1892
755.8766
754.2205
753.3568
753.3649
754.255
755.9609
758.3396
761.1814
764.2316
767.2258
769.9437
799.8332
800.8558
802.768
805.1132
808.0958
811.5532
815.4333
819.6274
824.0228
828.4937
832.9081
837.1323
841.035
844.4922
847.3912
849.6348
851.1446
851.8633
851.7569
850.8157
849.0551
846.5143
843.2562
839.3645
834.9418
830.1064
824.9883
819.7251
814.4575
809.324
804.4556
799.9701
795.9666
792.5202
789.6769
787.4499
785.8172
784.7205
784.0668
783.7324
783.5696
783.4159
783.1059
782.4841
781.4194
779.8185
777.6374
774.8903
771.6535
768.0641
764.313
760.6315
757.2736
754.4934
752.5205
751.5343
751.6405
752.854
755.0934
758.1835
801.3282
798.9869
798.7903
798.6703
799.2729
800.4598
802.2831
804.7173
807.7268
811.2501
815.2054
819.4921
823.9942
828.5846
833.1289
837.4906
841.5354
845.1358
848.1758
850.5544
852.1891
853.0185
853.0044
852.1328
850.4147
847.8857
844.6052
840.6549
836.1365
831.1694
825.8872
820.4336
814.9586
809.6126
804.5413
799.879
795.7423
792.2231
789.3821
787.2429
785.7883
784.9571
784.6454
784.7094
784.9735
785.2404
785.3054
784.9734
784.0759
782.4893
780.1502
777.0673
773.3282
769.0991
764.6174
760.1765
756.1016
752.7166
750.3015
749.0239
808.3185
804.88
803.2855
801.4694
800.0291
798.9464
798.3351
798.2642
798.7911
799.9513
801.757
804.1963
807.2327
810.8059
814.8335
819.2139
823.8293
828.5501
833.2389
837.7557
841.9625
845.7281
848.932
851.469
853.2522
854.2154
854.3158
853.5344
851.8772
849.375
846.0828
842.0788
837.4626
832.3534
826.8873
821.2139
815.4925
809.887
804.5602
799.6665
795.3443
791.7079
788.8379
786.774
785.5079
784.9787
785.0719
785.622
786.4204
787.2273
787.7891
787.8585
787.2173
785.6997
783.213
779.756
775.4293
770.4354
765.0579
759.6108
814.5124
812.6574
811.1265
809.2998
807.3094
805.2677
803.2716
801.4371
799.8737
798.687
797.9716
797.8076
798.2562
799.3574
801.1268
803.5553
806.608
810.2253
814.3245
818.8025
823.5393
828.402
833.2498
837.9383
842.3253
846.2747
849.6619
852.3769
854.3283
855.4455
855.6806
855.0097
853.4334
850.977
847.6898
843.6446
838.937
833.6838
828.0213
822.1033
816.0978
810.1826
804.5394
799.3467
794.7704
790.9535
788.0048
785.9877
784.91
784.7161
785.2835
786.4237
787.8896
789.3891
790.6048
791.2198
790.9484
789.5718
786.9726
783.1752
814.7971
815.9076
815.6819
815.342
814.462
813.2096
811.6002
809.7194
807.6552
805.512
803.4017
801.4411
799.7461
798.4274
797.5854
797.3058
797.6556
798.6795
800.3979
802.8048
805.8675
809.5274
813.701
818.2837
823.1522
828.1697
833.1906
838.0656
842.6471
846.7943
850.3777
853.2833
855.4157
856.7005
857.0861
856.5442
855.0704
852.6837
849.4267
845.3646
840.5855
835.1999
829.3405
823.1615
816.8368
810.5569
804.524
798.9444
794.0182
789.927
786.819
784.794
783.888
784.0611
785.1882
787.0558
789.3671
791.7596
793.847
795.2999
808.551
811.9041
813.2157
814.7102
815.6788
816.243
816.3292
815.9411
815.0895
813.81
812.1583
810.2096
808.0558
805.8025
803.5651
801.4642
799.6209
798.1519
797.164
796.7499
796.9833
797.9153
799.5716
801.9505
805.0219
808.7279
812.9844
817.6837
822.6984
827.8864
833.0957
838.1706
842.9574
847.3099
851.0943
854.1933
856.5095
857.9669
858.5124
858.1156
856.7682
854.4836
851.2959
847.2597
842.4508
836.967
830.9299
824.4869
817.8116
811.1034
804.5847
798.494
793.0759
788.5659
785.1728
783.0567
782.3044
782.9043
784.7327
787.5588
799.5855
803.0865
805.1353
807.5601
809.8041
811.8842
813.6925
815.1604
816.2235
816.8344
816.9626
816.5978
815.7506
814.4533
812.7598
810.744
808.4978
806.1281
803.7529
801.4973
799.488
797.8487
796.6941
796.1253
796.2244
797.0504
798.6358
800.984
804.068
807.8305
812.1856
817.0213
822.2039
827.5833
832.9991
838.2871
843.286
847.8438
851.8229
855.1052
857.594
859.2162
859.9217
859.6823
858.4894
856.3519
853.2944
849.3566
844.5944
839.0821
832.9177
826.2278
819.1736
811.9548
804.8116
798.0229
791.8984
786.7576
782.8913
780.491
792.7447
794.6167
796.2914
798.306
800.5283
802.8913
805.3257
807.7488
810.0757
812.2204
814.0996
815.6373
816.7677
817.4394
817.6178
817.2881
816.4562
815.1505
813.4213
811.3402
808.9982
806.503
803.9755
801.5455
799.3465
797.5106
796.1624
795.4135
795.3566
796.0609
797.5672
799.8854
802.9918
806.8293
811.3085
816.3107
821.6928
827.2931
832.9388
838.4539
843.6673
848.4201
852.5725
856.0082
858.6372
860.3959
861.2455
861.1678
860.1607
858.2325
855.3983
851.6772
847.0939
841.6825
835.4939
828.608
821.1502
813.3088
805.3383
797.5325
790.0784
790.1533
790.8818
791.7529
792.977
794.4829
796.2761
798.3206
800.5723
802.9718
805.4489
807.9241
810.3127
812.528
814.4852
816.1053
817.3187
818.0692
818.3167
818.0402
817.2399
815.9382
814.1807
812.0354
809.5916
806.9575
804.257
801.6254
799.2046
797.1369
795.5594
794.5972
794.3566
794.9196
796.338
798.6296
801.7746
805.7153
810.3568
815.5702
821.1979
827.0611
832.9688
838.728
844.1534
849.0777
853.3597
856.8893
859.5909
861.4217
862.3673
862.4344
861.6405
860.0045
857.5359
854.2272
850.0519
844.9758
838.9814
832.1075
789.6612
789.3164
789.4021
789.4624
789.6996
790.1187
790.777
791.7044
792.9222
794.4351
796.2324
798.2871
800.5569
802.9853
805.5041
808.035
810.4937
812.7927
814.8452
816.5686
817.8887
818.7433
819.0853
818.8861
818.138
816.8562
815.0795
812.8713
810.318
807.5279
804.6281
801.7605
799.0768
796.7326
794.8802
793.6619
793.2018
793.5983
794.9177
797.188
800.3947
804.4787
809.337
814.8257
820.7665
826.9551
833.1736
839.2026
844.8357
849.8923
854.2284
857.7452
860.3916
862.1628
863.0929
863.2411
862.6716
861.4322
859.5431
857.0097
787.6506
788.5653
788.832
789.0819
789.1789
789.2251
789.2706
789.3816
789.6194
790.04
790.6907
791.6076
792.8136
794.3163
796.1082
798.1655
800.4491
802.9057
805.4693
808.0637
810.605
813.005
815.1746
817.0272
818.4829
819.4723
819.9397
819.8472
819.1772
817.9353
816.1521
813.8842
811.2142
808.2497
805.121
801.9775
798.9825
796.3074
794.1238
792.5953
791.8687
792.0644
793.2677
795.5209
798.8174
803.0972
808.247
814.1029
820.457
827.0688
833.6795
840.0294
845.8763
851.0148
855.2923
858.6239
860.9979
862.4712
863.1529
863.1887
781.6851
784.4221
785.5013
786.7374
787.6119
788.2664
788.6953
788.9469
789.0711
789.1269
789.1773
789.2864
789.5161
789.9228
790.5549
791.4502
792.6337
794.1163
795.8937
797.9464
800.2391
802.7224
805.3338
807.9993
810.6361
813.1555
815.4658
817.476
819.0996
820.2583
820.8865
820.9347
820.3735
819.1966
817.4242
815.1043
812.3138
809.1586
805.7715
802.3097
798.9497
795.8808
793.2976
791.3902
790.3337
790.2772
791.3323
793.5624
796.974
801.5097
807.0465
813.3965
820.3148
827.5107
834.6658
841.4562
847.5801
852.7881
856.91
859.8952
773.0579
776.4868
778.2753
780.4062
782.2746
783.958
785.3913
786.5639
787.4732
788.1337
788.5737
788.8337
788.9641
789.0224
789.0704
789.1711
789.3856
789.7704
790.3748
791.2382
792.3882
793.8393
795.5915
797.6302
799.9252
802.4321
805.0925
807.8357
810.5804
813.2377
815.713
817.9102
819.7353
821.1001
821.9271
822.1536
821.7361
820.6547
818.9168
816.5594
813.6519
810.2964
806.627
802.8078
799.028
795.4964
792.4329
790.0583
788.5823
788.1904
789.0301
791.1969
794.7218
799.5616
805.5921
812.606
820.3182
828.382
836.423
844.1056
766.2617
768.1651
769.8019
771.804
773.9288
776.106
778.2522
780.2948
782.174
783.843
785.2701
786.4388
787.348
788.0115
788.4564
788.7217
788.8557
788.9139
788.9562
789.0438
789.237
789.5919
790.1585
790.9782
792.0819
793.4882
795.2026
797.2162
799.5054
802.0316
804.7418
807.569
810.4343
813.2479
815.9126
818.3265
820.3868
821.9944
823.0587
823.5022
823.2662
822.3154
820.6426
818.2722
815.2638
811.7131
807.7528
803.5505
799.3058
795.2447
791.6112
788.6579
786.633
785.7663
786.2531
788.2384
791.7998
796.932
803.5405
811.4413
766.3415
764.7661
765.1152
765.6155
766.698
768.138
769.8919
771.8629
773.9658
776.1157
778.2338
780.2504
782.1067
783.7575
785.1714
786.3322
787.2385
787.9031
788.3515
788.6207
788.7567
788.8123
788.8449
788.9138
789.0776
789.3924
789.9088
790.6707
791.7127
793.0588
794.721
796.6978
798.9728
801.5149
804.2769
807.1963
810.1962
813.1861
816.065
818.7242
821.0513
822.9352
824.2713
824.9672
824.9486
824.1647
822.5936
820.2466
817.1717
813.4559
809.2259
804.6481
799.9254
795.2928
791.0108
787.356
784.6114
783.0499
782.9092
784.3366
775.7667
770.2994
768.6404
766.7526
765.701
765.1905
765.2592
765.8428
766.8831
768.3064
770.0319
771.974
774.0465
776.1658
778.2546
780.244
782.0767
783.7082
785.1078
786.2597
787.1621
787.8266
788.2772
788.5486
788.6838
788.7328
788.7498
788.7916
788.9153
789.1762
789.6265
790.3127
791.2746
792.5427
794.137
796.0647
798.3187
800.8758
803.6956
806.7198
809.8726
813.0616
816.1803
819.1116
821.7318
823.9171
825.5485
826.5196
826.742
826.152
824.716
822.4348
819.347
815.5315
811.1068
806.2301
801.0946
795.9261
790.9705
786.4544
792.5838
784.8319
781.3865
777.3383
773.9855
771.0945
768.7839
767.0671
765.9569
765.4414
765.4908
766.0575
767.0798
768.4843
770.1895
772.1098
774.1592
776.2546
778.3192
780.2855
782.0972
783.711
785.0972
786.2403
787.1384
787.8023
788.2542
788.5259
788.6573
788.6946
788.6884
788.6924
788.7616
788.951
789.3144
789.9026
790.7614
791.9303
793.4393
795.3065
797.5353
800.1118
803.0024
806.1521
809.4845
812.9024
816.2906
819.5198
822.4524
824.9493
826.8775
828.1176
828.5719
828.1709
826.879
824.6976
821.666
817.8612
813.3965
808.4156
810.8354
803.7888
799.7725
794.9722
790.3564
785.8549
781.6167
777.7366
774.3041
771.3902
769.0468
767.3049
766.1742
765.6435
765.6818
766.2407
767.2568
768.6554
770.3536
772.265
774.3029
776.3842
778.4328
780.3821
782.1771
783.7761
785.1509
786.2868
787.182
787.8465
788.3004
788.5724
788.6984
788.7197
788.6823
788.636
788.6332
788.7287
788.9787
789.4397
790.1665
791.2097
792.6127
794.4076
796.6108
799.2189
802.2049
805.5155
809.0702
812.7619
816.4604
820.0179
823.2767
826.0779
828.2724
829.7313
830.3564
830.0868
828.9066
826.862
823.2826
819.78
816.8553
813.2663
809.2377
804.8708
800.2691
795.5587
790.8636
786.3071
782.006
778.0662
774.579
771.6178
769.2363
767.4662
766.3173
765.7777
765.8152
766.3791
767.404
768.8126
770.5199
772.4373
774.477
776.5554
778.5967
780.5354
782.3184
783.9061
785.2724
786.4041
787.3002
787.9697
788.4304
788.707
788.8298
788.834
788.7592
788.6495
788.5541
788.5276
788.6297
788.9247
789.4798
790.3612
791.6304
793.3377
795.5163
798.1759
801.2964
804.8242
808.6699
812.7092
816.7869
820.7249
824.3342
827.4302
829.8508
831.4938
825.2536
826.3748
825.741
824.8213
823.0773
820.6923
817.6667
814.0831
810.0286
805.6099
800.9451
796.1602
791.384
786.7437
782.3599
778.3424
774.7857
771.7665
769.3402
767.54
766.3758
765.8349
765.883
766.4668
767.5175
768.9541
770.6879
772.6276
774.6828
776.7691
778.8108
780.7442
782.5186
784.0978
785.4588
786.5914
787.4955
788.1797
788.6586
788.9515
789.0811
789.0736
788.9595
788.7752
788.5646
788.3814
788.2903
788.3661
788.6925
789.3575
790.4471
792.0376
794.1864
796.9216
800.2333
804.0662
808.3158
812.8313
817.4286
821.9238
817.3446
821.7735
823.4613
825.3078
826.4063
826.8925
826.6654
825.7133
824.0341
821.6534
818.6202
815.0059
810.9018
806.4157
801.6684
796.7892
791.9109
787.1652
782.6775
778.5625
774.9195
771.829
769.3497
767.5167
766.3403
765.8066
765.8788
766.4999
767.5961
769.0809
770.8608
772.8394
774.9236
777.0269
779.0744
781.0046
782.771
784.3423
785.7008
786.8407
787.7644
788.4801
788.9985
789.3313
789.4905
789.4894
789.345
789.0812
788.7338
788.3536
788.0098
787.7909
787.803
788.1645
788.9985
790.4208
792.5255
795.3696
798.9635
803.2655
805.0156
809.8587
812.7241
816.0272
819.0601
821.8198
824.1661
826.0004
827.2341
827.7976
827.642
826.7414
825.0945
822.7246
819.6795
816.0297
811.867
807.3005
802.4537
797.4593
792.4552
787.5786
782.9613
778.7246
774.974
771.7958
769.253
767.3835
766.1984
765.6825
765.7954
766.4747
767.6397
769.1965
771.0438
773.0791
775.2043
777.331
779.3849
781.3082
783.061
784.6197
785.9752
787.1288
788.0877
788.8604
789.453
789.8672
790.0997
790.1446
789.9982
789.6649
789.1652
788.5425
787.8692
787.2513
786.8277
786.7637
787.2363
788.4053
795.3288
797.8134
800.2248
803.0653
806.2234
809.5539
812.9578
816.3078
819.4825
822.3602
824.826
826.7749
828.1163
828.7771
828.7047
827.8696
826.2668
823.9164
820.8636
817.1775
812.9495
808.2898
803.3246
798.191
793.0328
787.9945
783.2161
778.8276
774.9431
771.6566
769.0372
767.1267
765.9376
765.4528
765.6273
766.3911
767.6539
769.3112
771.251
773.3615
775.5379
777.6889
779.7413
781.6434
783.3647
784.8943
786.2364
787.4045
788.4145
789.2777
789.9959
790.5575
790.9383
791.1043
791.0184
790.651
789.9942
789.0768
787.9733
786.8042
793.159
792.0544
792.7873
793.703
795.3118
797.4017
799.9639
802.9095
806.1519
809.5862
813.0984
816.5672
819.8681
822.8779
825.4788
827.5624
829.0339
829.8157
829.8503
829.1029
827.5636
825.2477
822.1966
818.477
814.1788
809.4133
804.3094
799.0094
793.6643
788.4278
783.4505
778.8737
774.8231
771.4029
768.6909
766.7344
765.548
765.1125
765.3765
766.2596
767.6585
769.4533
771.5169
773.724
775.9597
778.1282
780.1578
782.005
783.6538
785.1125
786.4072
787.5726
788.6423
789.6375
790.5587
791.3782
792.0387
792.4601
792.5532
792.2446
799.1674
795.144
793.9439
792.6011
791.9536
791.8215
792.2795
793.3158
794.918
797.0497
799.6563
802.6649
805.9856
809.515
813.1382
816.7329
820.173
823.3327
826.091
828.3353
829.9658
830.899
831.0711
830.4408
828.9911
826.7313
823.6972
819.9514
815.5817
810.6995
805.4365
799.9408
794.372
788.8952
783.6744
778.8656
774.6096
771.0247
768.2007
766.1929
765.0194
764.6588
765.0515
766.1037
767.6932
769.6789
771.9113
774.2445
776.5476
778.716
780.6785
782.4024
783.8937
785.192
786.3621
787.4797
788.6138
789.8072
791.0612
792.3258
810.1936
805.1488
802.7171
799.8959
797.4621
795.3278
793.6033
792.3458
791.6122
791.4429
791.862
792.8755
794.4695
796.6105
799.2452
802.3019
805.6919
809.3119
813.047
816.7743
820.3659
823.6935
826.6324
829.0652
830.8864
832.0054
832.3506
831.8723
830.545
828.3695
825.3743
821.6159
817.1784
812.1723
806.7315
801.0101
795.1775
789.4123
783.8951
778.8008
774.2902
770.5007
767.539
765.4729
764.3268
764.0781
764.6577
765.9535
767.8178
770.078
772.5507
775.057
777.4388
779.5736
781.3873
782.8631
784.0435
785.0219
785.9233
786.8696
821.3582
817.2718
814.7674
811.7948
808.8052
805.7968
802.8591
800.0749
797.5303
795.3092
793.4903
792.1431
791.3259
791.0819
791.4381
792.4027
793.9645
796.0923
798.7349
801.8227
805.2687
808.9707
812.8145
816.6767
820.4283
823.9386
827.079
829.727
831.7704
833.1108
833.6673
833.3802
832.2135
830.1574
827.2307
823.4815
818.9877
813.8566
808.2231
802.2465
796.1063
789.9966
784.1179
778.6691
773.8372
769.7865
766.6483
764.5105
763.4095
763.3248
764.1771
765.8313
768.104
770.7764
773.6111
776.3738
778.8589
780.916
782.4717
783.5482
828.6609
826.6284
825.0092
823.0122
820.7195
818.1644
815.38
812.4258
809.3679
806.2835
803.2563
800.374
797.7253
795.3968
793.4695
792.0157
791.0961
790.7569
791.0279
791.9204
793.4262
795.5173
798.1458
801.245
804.7303
808.5018
812.4466
816.4416
820.3571
824.0601