/*--------------------------------*- C++ -*----------------------------------*\
| =========                 |                                                 |
| \\      /  F ield         | OpenFOAM: The Open Source CFD Toolbox           |
|  \\    /   O peration     | Version:  2312                                  |
|   \\  /    A nd           | Website:  www.openfoam.com                      |
|    \\/     M anipulation  |                                                 |
\*---------------------------------------------------------------------------*/
FoamFile
{
    version     2.0;
    format      ascii;
    arch        "LSB;label=32;scalar=64";
    class       volScalarField;
    location    "5850";
    object      ILambda_2_0;
}
// * * * * * * * * * * * * * * * * * * * * * * * * * * * * * * * * * * * * * //

dimensions      [1 0 -3 0 0 0 0];

internalField   nonuniform List<scalar> 
12000
(
3466.161
2649.02
2025.062
1569.116
1245.756
1022.602
873.7473
779.3864
724.3404
696.709
687.1294
688.644
696.7236
708.8614
723.6051
739.5262
754.7704
767.3745
775.9462
780.1038
780.356
777.5771
772.4932
765.5073
756.8806
747.0374
736.7309
726.97
718.7801
712.9469
709.8463
709.3842
711.0215
713.8473
716.7307
718.5549
718.4884
716.1957
711.9094
706.3366
700.4382
695.1808
691.2875
689.0998
688.5718
689.438
691.4076
694.1754
697.3853
700.6441
703.6352
706.1453
707.9157
708.7192
708.5005
707.289
705.0182
701.1404
696.7328
681.709
4090.68
4074.265
3851.047
3495.296
3076.239
2645.498
2237.298
1871.951
1559.61
1303.351
1101.416
948.8325
838.7709
763.7891
716.8207
691.6757
683.0369
686.2101
696.9569
711.5642
727.0566
741.3476
753.1908
761.9576
767.3819
769.404
768.1475
763.9684
757.4833
749.5252
741.0339
732.9224
725.9559
720.6619
717.2621
715.6373
715.3481
715.7285
716.0418
715.6572
714.1941
711.5894
708.0841
704.1266
700.2319
696.8376
694.2324
692.5729
691.9138
692.2153
693.3409
695.096
697.2788
699.6552
701.9589
703.9291
705.4767
706.139
707.052
704.1212
4021.242
4097.897
4157.086
4153.173
4063.93
3888.066
3638.155
3333.983
2997.604
2650.108
2309.7
1990.694
1703.147
1453.019
1242.755
1072.094
938.869
839.6253
770.0608
725.3625
700.537
690.7464
691.5987
699.3277
710.8452
723.6995
736.0043
746.3855
753.9534
758.2841
759.381
757.6068
753.5885
748.1095
741.9974
736.0119
730.7423
726.5308
723.4423
721.2902
719.7165
718.3011
716.6744
714.6021
712.0232
709.0312
705.8165
702.6099
699.6436
697.1257
695.2154
694.0067
693.5366
693.7889
694.6904
696.097
697.8776
699.8105
701.735
704.4544
3990.746
4003.611
4040.057
4092.572
4142.826
4169.496
4154.293
4085.236
3957.652
3773.656
3540.787
3270.288
2975.356
2669.553
2365.53
2074.161
1804.072
1561.491
1350.315
1172.289
1027.281
913.6183
828.4688
768.2433
728.9625
706.5602
697.1085
696.9725
702.9167
712.1805
722.5291
732.2777
740.2863
745.9226
748.9975
749.6785
748.3871
745.6856
742.1655
738.3486
734.6169
731.1815
728.0901
725.2686
722.5807
719.8875
717.0909
714.1526
711.0955
707.994
704.9592
702.1198
699.6039
697.5269
695.9821
695.0266
694.6746
694.9534
695.4875
697.6858
3968.213
3968.663
3972.597
3986.969
4015.582
4056.7
4103.153
4144.003
4166.834
4159.987
4114.302
4024.194
3888.084
3708.256
3490.269
3242.116
2973.264
2693.741
2413.343
2140.996
1884.29
1649.183
1439.867
1258.781
1106.749
983.2048
886.4614
813.9969
762.726
729.2485
710.0699
701.7913
701.267
705.7258
712.8526
720.832
728.3532
734.5804
739.094
741.8072
742.8694
742.5669
741.2341
739.185
736.6711
733.8672
730.879
727.7621
724.5449
721.2479
717.8978
714.5364
711.2216
708.0259
705.0302
702.3251
699.983
698.0964
696.6796
695.6392
3947.645
3948.261
3947.883
3947.679
3950.731
3960.834
3980.895
4011.584
4050.635
4092.876
4130.897
4156.074
4159.732
4134.243
4073.894
3975.455
3838.402
3664.837
3459.165
3227.602
2977.589
2717.178
2454.443
2196.973
1951.452
1723.382
1516.913
1334.8
1178.445
1048.019
942.6288
860.5186
799.2868
756.1059
727.9349
711.7113
704.5154
703.7012
706.989
712.5184
718.8632
725.0112
730.3165
734.4327
737.2382
738.7634
739.1278
738.4931
737.031
734.9047
732.2617
729.2313
725.9281
722.4547
718.9041
715.3692
711.9266
708.6383
705.8382
701.8894
3942.328
3939.728
3938.224
3937.208
3936.355
3936.211
3938.337
3944.988
3958.425
3980.121
4010.1
4046.548
4085.775
4122.478
4150.279
4162.401
4152.396
4114.801
4045.676
3942.944
3806.548
3638.406
3442.214
3223.108
2987.247
2741.365
2492.317
2246.677
2010.396
1788.543
1585.135
1403.05
1244.011
1108.649
996.6046
906.6842
837.0349
785.3355
748.9863
725.2869
711.5916
705.4365
704.6308
707.3137
711.9769
717.4578
722.9109
727.7643
731.67
734.4544
736.0725
736.5691
736.0476
734.6447
732.5161
729.8149
726.7131
723.2537
720.124
714.5872
3953.039
3937.638
3920.214
3903.47
3889.175
3878.14
3870.634
3866.89
3867.442
3873.199
3885.283
3904.679
3931.833
3966.268
4006.326
4049.078
4090.428
4125.383
4148.456
4154.145
4137.416
4094.15
4021.498
3918.114
3784.263
3621.783
3433.937
3225.165
3000.776
2766.594
2528.616
2292.674
2064.154
1847.759
1647.338
1465.783
1304.991
1165.886
1048.493
952.0511
875.1614
815.9448
772.2075
741.5977
721.7456
710.3793
705.4125
705.0042
707.5906
711.8944
716.9148
721.906
726.3463
729.9024
732.4014
733.7685
734.0957
733.269
732.193
728.0639
4063.566
4176.179
4234.682
4249.462
4232.632
4195.195
4146.214
4092.712
4039.904
3991.568
3950.432
3918.49
3897.197
3887.524
3889.903
3904.1
3929.066
3962.834
4002.478
4044.182
4083.406
4115.148
4134.274
4135.875
4115.624
4070.088
3996.984
3895.33
3765.51
3609.238
3429.435
3230.03
3015.715
2791.662
2563.235
2335.713
2114.036
1902.595
1705.07
1524.325
1362.359
1220.303
1098.478
996.4753
913.2797
847.3967
796.9943
760.0372
734.4103
718.0241
708.8997
705.2316
705.429
708.1376
712.2504
716.8776
721.4169
725.2581
728.4345
730.5292
991.9426
1702.766
2324.058
2845.383
3265.307
3588.765
3825.018
3985.895
4084.348
4133.359
4145.173
4130.849
4100.035
4060.911
4020.218
3983.317
3954.253
3935.786
3929.417
3935.403
3952.791
3979.485
4012.375
4047.511
4080.348
4106.025
4119.678
4116.753
4093.304
4046.24
3973.522
3874.28
3748.853
3598.76
3426.586
3235.822
3030.658
2815.738
2595.918
2376.021
2160.612
1953.811
1759.139
1579.415
1416.702
1272.296
1146.756
1039.972
951.2527
879.438
823.0118
780.2189
749.1734
727.9581
714.6999
707.6535
705.1985
706.0639
708.3977
714.5567
461.6795
369.3542
482.5232
753.906
1129.494
1560.265
2005.777
2435.035
2826.17
3165.514
3446.326
3667.393
3831.639
3944.872
4014.7
4049.642
4058.419
4049.419
4030.297
4007.678
3986.957
3972.161
3965.884
3969.276
3982.098
4002.83
4028.852
4056.664
4082.15
4100.879
4108.404
4100.56
4073.728
4025.066
3952.671
3855.693
3734.368
3589.989
3424.822
3241.961
3045.148
2838.572
2626.642
2413.784
2204.23
2001.853
1810.024
1631.512
1468.424
1322.185
1193.553
1082.668
989.1149
912.0224
850.1408
801.9873
765.8155
740.004
722.8021
709.9356
3705.446
3060.016
2465.82
1976.297
1624.209
1421.002
1360.969
1426.431
1592.559
1831.482
2115.498
2419.366
2721.749
3005.936
3260.032
3476.716
3652.74
3788.254
3886.068
3950.906
3988.704
4005.968
4009.23
4004.584
3997.321
3991.665
3990.592
3995.753
4007.471
4024.827
4045.81
4067.531
4086.472
4098.762
4100.467
4087.861
4057.678
4007.321
3935.021
3839.94
3722.212
3582.926
3424.054
3248.329
3059.097
2860.133
2655.45
2449.112
2245.051
2046.915
1857.93
1680.809
1517.687
1370.088
1238.938
1124.558
1026.926
944.4233
881.7938
806.2632
1067.963
1726.681
2118.572
2280.828
2272.133
2155.473
1989.031
1821.107
1687.682
1611.928
1605.161
1668.71
1796.252
1976.223
2194.102
2434.382
2682.154
2924.257
3150.017
3351.626
3524.209
3665.651
3776.258
3858.305
3915.521
3952.566
3974.52
3986.422
3992.881
3997.755
4003.93
4013.185
4026.143
4042.317
4060.214
4077.513
4091.28
4098.216
4094.909
4078.09
4044.859
3992.881
3920.537
3827.024
3712.402
3577.587
3424.296
3254.947
3072.532
2880.458
2682.382
2482.043
2283.105
2088.995
1902.843
1727.134
1564.783
1413.706
1292.715
1117
578.8687
673.9001
908.7729
1202.623
1486.26
1714.195
1864.619
1935.273
1937.984
1893.043
1824.181
1754.575
1704.029
1687.272
1713.246
1785.194
1901.33
2055.875
2240.271
2444.416
2657.792
2870.424
3073.604
3260.389
3425.863
3567.196
3683.527
3775.72
3846.019
3897.659
3934.448
3960.367
3979.212
3994.28
4008.141
4022.482
4038.03
4054.557
4070.953
4085.362
4095.356
4098.151
4090.825
4070.542
4034.76
3981.41
3909.035
3816.889
3704.985
3574.102
3425.743
3262.055
3085.722
2899.813
2707.749
2512.625
2319.447
2124.312
1962.35
1691.434
607.5922
563.4926
551.2048
600.1331
715.5302
883.675
1080.567
1279.819
1458.486
1600.556
1698.286
1751.871
1768.035
1758.021
1735.409
1714.067
1706.46
1722.433
1768.501
1847.616
1959.342
2100.33
2265.002
2446.322
2636.582
2828.121
3013.935
3188.131
3346.233
3485.321
3604.031
3702.426
3781.781
3844.292
3892.758
3930.248
3959.788
3984.094
4005.343
4025.022
4043.839
4061.703
4077.769
4090.538
4098
4097.81
4087.477
4064.558
4026.844
3972.517
3900.283
3809.46
3700.046
3572.687
3428.815
3269.854
3100.398
2913.723
2754.118
2447.565
626.0415
613.8753
586.9824
556.3401
539.0196
550.7675
601.1302
691.5535
815.9291
962.7327
1117.828
1267.2
1399.155
1505.789
1583.655
1633.699
1660.625
1671.871
1676.404
1683.514
1701.738
1738.018
1797.15
1881.52
1991.113
2123.758
2275.531
2441.266
2615.111
2791.063
2963.454
3127.342
3278.788
3415.023
3534.498
3636.826
3722.64
3793.388
3851.09
3898.064
3936.676
3969.1
3997.119
4021.984
4044.318
4064.088
4080.627
4092.707
4098.654
4096.49
4084.092
4059.361
4020.389
3965.559
3893.846
3804.131
3698.588
3568.457
3454.046
3195.402
627.1716
628.0624
624.4251
612.1708
590.972
565.2718
543.1928
534.2756
546.9904
586.7851
655.0625
749.1058
862.7669
987.6564
1114.559
1234.814
1341.456
1429.998
1498.792
1548.987
1584.149
1609.642
1631.863
1657.458
1692.593
1742.36
1810.353
1898.44
2006.721
2133.658
2276.33
2430.792
2592.468
2756.565
2918.446
3073.961
3219.684
3353.075
3472.552
3577.468
3668.027
3745.134
3810.204
3864.956
3911.199
3950.634
3984.683
4014.356
4040.168
4062.098
4079.6
4091.651
4096.853
4093.507
4079.903
4053.825
4015.311
3956.104
3902.628
3746.681
627.3776
628.0689
629.3519
629.7095
626.5727
617.5668
601.8271
580.8374
558.4876
540.3923
532.7759
541.2666
569.8631
620.2477
691.5344
780.449
881.8658
989.5797
1097.174
1198.851
1290.111
1368.217
1432.398
1483.811
1525.276
1560.853
1595.328
1633.659
1680.462
1739.575
1813.737
1904.395
2011.657
2134.357
2270.232
2416.174
2568.525
2723.39
2876.937
3025.655
3166.57
3297.381
3416.538
3523.247
3617.413
3699.535
3770.561
3831.726
3884.379
3929.815
3969.138
4003.137
4032.214
4056.32
4075.066
4087.313
4092.905
4086.665
4080.519
4025.704
626.8719
627.2514
627.8859
629.0654
630.5505
631.344
629.8251
624.2676
613.5441
597.7183
578.3352
558.3596
541.801
533.1141
536.5021
555.2563
591.2463
644.6374
713.8676
795.8702
886.4929
981.0397
1074.854
1163.862
1245.011
1316.564
1378.22
1431.065
1477.382
1520.345
1563.643
1611.082
1666.204
1731.959
1810.461
1902.832
2009.151
2128.492
2259.051
2398.324
2543.333
2690.871
2837.732
2980.927
3117.863
3246.458
3365.223
3473.275
3570.304
3656.499
3732.439
3798.965
3857.046
3907.623
3951.565
3989.313
4021.616
4047.136
4068.454
4080.974
624.5375
625.2955
625.9335
626.6228
627.6027
629.0363
630.7801
632.2122
632.2645
629.664
623.2929
612.5646
597.7282
580.0281
561.6783
545.6534
535.3288
534.036
544.6069
568.9827
607.9457
661.0105
726.4843
801.6793
883.2437
967.5584
1051.15
1131.064
1205.167
1272.333
1332.518
1386.712
1436.791
1485.283
1535.092
1589.196
1650.36
1720.887
1802.426
1895.848
2001.199
2117.725
2243.954
2377.84
2516.926
2658.54
2799.975
2938.667
3072.337
3199.101
3317.535
3426.699
3526.124
3615.751
3695.869
3766.98
3829.677
3885.292
3929.794
3989.719
621.5331
622.3537
623.1305
623.8707
624.6069
625.4515
626.5842
628.139
630.054
631.9684
633.2085
632.8694
629.9856
623.757
613.7876
600.2858
584.1798
567.1214
551.3671
539.5532
534.3969
538.3707
553.3972
580.6099
620.2127
671.4536
732.7148
801.7015
875.7041
951.8978
1027.643
1100.755
1169.709
1233.77
1293.038
1348.394
1401.392
1454.073
1508.751
1567.788
1633.369
1707.312
1790.916
1884.861
1989.167
2103.208
2225.772
2355.167
2489.349
2626.073
2763.034
2898.017
3029.007
3154.292
3272.484
3382.739
3483.854
3578.352
3653.522
3768.138
619.8595
620.2464
620.6968
621.2259
621.8111
622.4241
623.0838
623.8822
624.9544
626.4111
628.257
630.3195
632.2074
633.3193
632.9085
630.2035
624.5657
615.6581
603.5935
589.0292
573.1885
557.7971
544.9403
536.8587
535.7102
543.332
561.0346
589.4548
628.4867
677.2969
734.4204
797.9237
865.6135
935.2663
1004.852
1072.732
1137.802
1199.586
1258.252
1314.579
1369.854
1425.736
1484.085
1546.791
1615.597
1691.95
1776.88
1870.924
1974.086
2085.844
2205.194
2330.731
2460.74
2593.337
2726.49
2858.533
2986.534
3113.86
3217.688
3391.447
620.7182
620.5112
620.4103
620.4794
620.7459
621.1971
621.7923
622.4966
623.3091
624.2718
625.4583
626.9437
628.7602
630.846
633.0014
634.8644
635.92
635.548
633.1108
628.0691
620.1082
609.2534
595.9518
581.1037
566.0331
552.3988
542.0537
536.8711
538.5592
548.4883
567.5514
596.0766
633.7989
679.8955
733.0779
791.7299
854.0745
918.3512
982.9854
1046.733
1108.787
1168.839
1227.088
1284.207
1341.262
1399.603
1460.735
1526.174
1597.318
1675.327
1761.026
1854.843
1956.77
2066.39
2182.794
2305.147
2430.555
2563.712
2675.669
2882.312
623.2614
622.2901
620.8704
619.0599
617.0285
614.9965
613.1746
611.7292
610.7721
610.3688
610.5524
611.3373
612.728
614.7173
617.2741
620.3187
623.6934
627.1354
630.2628
632.5831
633.5308
632.5323
629.093
622.8945
613.8858
602.3532
588.9549
574.7121
560.9544
549.2228
541.1429
538.2808
542.0006
553.3392
572.9137
600.8701
636.8803
680.1849
729.6776
784.0199
841.7753
901.5471
962.1074
1022.505
1082.144
1140.826
1198.752
1256.494
1314.932
1375.162
1438.399
1505.866
1578.683
1657.8
1743.802
1837.372
1937.029
2048.781
2144.663
2339.493
630.1672
637.6531
648.0691
658.7152
667.5652
673.4807
676.073
675.4918
672.2289
666.9544
660.3935
653.242
646.1147
639.518
633.8407
629.3557
626.2236
624.4934
624.0984
624.8495
626.4293
628.3971
630.207
631.2473
630.8979
628.604
623.9561
616.767
607.1328
595.4695
582.5159
569.301
557.0782
547.2307
541.1603
540.1698
545.3537
557.5072
577.0644
604.0709
638.1931
678.7628
724.8504
775.3606
829.1387
885.0786
942.2216
999.8376
1057.483
1115.029
1172.665
1230.87
1290.357
1352.032
1416.801
1485.95
1559.081
1642.454
1713.5
1868.293
543.3444
419.737
350.412
325.1108
331.8762
359.8151
399.8629
444.9296
489.8075
530.966
566.2881
594.7863
616.326
631.3734
640.7779
645.5942
646.9451
645.9207
643.5077
640.5408
637.6711
635.3448
633.7927
633.0309
632.8742
632.9652
632.8206
631.8926
629.6413
625.6129
619.5142
611.2749
601.09
589.4361
577.0583
564.9289
554.1799
546.0189
541.634
542.1005
548.2965
560.8373
580.0345
605.8826
638.0747
676.0432
719.0234
766.1302
816.4436
869.0919
923.3278
978.5909
1034.545
1091.122
1148.423
1207.112
1266.653
1332.3
1386.411
1504.182
3680.683
2961.814
2336.43
1812.497
1389.455
1061.139
817.7108
647.2275
536.9079
474.1285
447.1472
445.5773
460.6447
485.272
514.0307
543.0011
569.5749
592.2291
610.297
623.7493
632.997
638.7209
641.7272
642.83
642.7596
642.0953
641.224
640.322
639.3626
638.1458
636.3468
633.5807
629.4733
623.7333
616.217
606.977
596.2919
584.6714
572.8364
561.6773
552.1935
545.421
542.3557
543.8796
550.6976
563.2903
581.8874
606.4626
636.7513
672.2866
712.4517
756.5428
803.8303
853.6473
905.3526
958.7564
1012.64
1070.789
1118.054
1215.891
4131.094
4089.129
3889.734
3573.234
3184.418
2763.236
2342.078
1945.214
1589.198
1283.737
1032.824
835.9775
689.4676
587.429
522.8249
488.2321
476.4395
480.8687
495.8361
516.6826
539.7979
562.5677
583.2675
600.9237
615.1586
626.0333
633.8962
639.2482
642.6272
644.5186
645.293
645.1731
644.228
642.392
639.5042
635.3604
629.7733
622.63
613.9424
603.8835
592.8062
581.2409
569.8755
559.5167
551.0387
545.3248
543.2068
545.4083
552.499
564.8604
582.6696
605.8999
634.3328
667.6093
705.1919
746.7298
790.85
840.2582
881.4971
966.84
4084.404
4137.414
4177.754
4169.48
4090.712
3934.486
3705.729
3417.452
3087.218
2734.179
2376.792
2031.234
1710.468
1423.839
1177.084
972.6365
810.1408
687.0549
599.2843
541.7823
509.0788
495.716
496.5814
507.1388
523.5664
542.8133
562.5898
581.3071
597.9813
612.1163
623.5789
632.4762
639.0459
643.5662
646.2879
647.3945
646.9854
645.0832
641.6579
636.6641
630.0828
621.9631
612.4569
601.8424
590.5334
579.0738
568.1171
558.3936
550.669
545.6983
544.1793
546.7119
553.7605
565.6469
582.4799
604.3907
630.6189
663.3286
692.09
757.5897
4063.791
4072.392
4099.366
4139.59
4179.136
4200.433
4186.839
4125.683
4009.873
3838.277
3615.183
3349.162
3051.677
2735.653
2414.175
2099.407
1801.797
1529.58
1288.549
1082.069
911.2676
775.3587
672.0352
597.8937
548.8478
520.5034
508.4761
508.6421
517.3162
531.3618
548.2386
565.9974
583.2342
599.0156
612.7881
624.2819
633.42
640.2384
644.8245
647.2752
647.6741
646.0884
642.5789
637.2206
630.1283
621.4809
611.5421
600.6721
589.3301
578.0651
567.4967
558.2889
551.1147
546.6311
545.4053
548.0352
554.5361
566.699
578.4658
614.5385
4056.768
4054.19
4054.745
4063.917
4084.988
4117.026
4154.61
4188.74
4208.439
4202.6
4161.655
4078.794
3950.666
3777.576
3563.251
3314.27
3039.286
2748.159
2451.096
2157.886
1877.28
1616.538
1381.168
1174.826
999.3643
855.0042
740.5789
653.8334
591.7383
550.7972
527.3245
517.6805
518.456
526.6024
539.5094
555.036
571.5023
587.6513
602.5918
615.7308
626.7045
635.3161
641.482
645.1935
646.4912
645.4531
642.1937
636.8698
629.6911
620.9307
610.9326
600.1139
588.9604
578.0207
567.8657
559.1549
552.2839
548.5399
545.9289
553.0874
4047.206
4046.214
4043.98
4041.632
4041.797
4047.717
4062.061
4085.799
4117.446
4152.88
4185.731
4208.161
4211.833
4188.928
4133.037
4039.844
3907.532
3736.909
3531.257
3295.974
3038.061
2765.526
2486.765
2209.994
1942.748
1691.504
1461.417
1256.19
1078.049
927.8312
805.1359
708.5356
635.8148
584.2147
550.6687
532.0107
525.1499
527.2043
535.5935
548.092
562.8483
578.3762
593.5264
607.4454
619.5284
629.3731
636.7375
641.5056
643.6613
643.2709
640.4727
635.4718
628.5381
620.0062
610.2651
599.7865
588.999
578.5704
569.1621
558.1399
4035.893
4035.749
4035.172
4033.738
4031.419
4028.933
4027.833
4030.305
4038.614
4054.404
4078.078
4108.393
4142.319
4175.19
4201.095
4213.455
4205.685
4171.86
4107.301
4009.019
3875.979
3709.18
3511.548
3287.681
3043.475
2785.684
2521.454
2257.872
2001.565
1758.374
1533.113
1329.429
1149.749
995.3046
866.2335
761.7241
680.1957
619.4935
577.0821
550.2275
536.1549
532.1787
535.8013
544.7799
557.1655
571.3169
585.8955
599.8467
612.3721
622.8982
631.0451
636.5964
639.4748
639.7187
637.4726
632.9481
626.5086
618.2078
610.1037
594.4525
4024.795
4024.534
4024.261
4023.815
4022.911
4021.261
4018.77
4015.793
4013.281
4012.727
4015.921
4024.577
4039.915
4062.269
4090.787
4123.292
4156.31
4185.275
4204.879
4209.523
4193.807
4153.014
4083.53
3983.154
3851.29
3688.994
3498.896
3285
3052.399
2806.937
2554.834
2302.326
2055.331
1819.172
1598.358
1396.444
1215.96
1058.409
924.3211
813.3559
724.4372
655.9055
605.6777
571.402
550.5994
540.7868
539.576
544.7498
554.3141
566.5295
579.9243
593.2935
605.6881
616.394
624.9233
630.9302
634.421
634.8602
634.3384
626.0363
4014.062
4013.859
4014.183
4015.039
4016.251
4017.507
4018.38
4018.424
4017.352
4015.206
4012.465
4010.078
4009.376
4011.897
4019.12
4032.17
4051.521
4076.758
4106.428
4138.005
4167.983
4192.089
4205.584
4203.634
4181.688
4135.859
4063.232
3962.107
3832.138
3674.364
3491.149
3286.021
3063.448
2828.559
2586.852
2343.887
2105.011
1875.111
1658.425
1458.402
1277.625
1117.784
979.7052
863.4161
768.2459
692.9442
635.8116
594.831
567.794
552.4145
546.4272
547.6677
554.1336
564.0291
575.7965
588.0989
599.955
610.2859
618.9929
626.1498
4005.259
3995.606
3983.376
3971.227
3961.123
3954.164
3950.691
3950.432
3952.689
3956.55
3961.097
3965.594
3969.645
3973.286
3977.009
3981.702
3988.518
3998.667
4013.188
4032.696
4057.169
4085.783
4116.837
4147.765
4175.244
4195.394
4204.035
4196.991
4170.406
4121.031
4046.483
3945.425
3817.678
3664.25
3487.276
3289.898
3076.079
2850.38
2617.71
2383.081
2151.362
1927.075
1714.216
1516.124
1335.401
1173.872
1032.586
911.8623
811.3605
730.1697
666.9169
619.8786
587.0896
566.4549
555.8279
553.1417
556.3085
563.9398
572.4353
589.5838
4088.286
4203.065
4265.524
4285.588
4274.864
4243.989
4201.867
4155.478
4109.907
4068.514
4033.185
4004.639
3982.743
3966.837
3956.03
3949.443
3946.407
3946.567
3949.919
3956.756
3967.554
3982.8
4002.801
4027.488
4056.257
4087.853
4120.33
4151.078
4176.931
4194.335
4199.57
4188.993
4159.296
4107.737
4032.344
3932.061
3806.834
3657.634
3486.412
3295.995
3089.938
2872.336
2647.621
2420.349
2194.992
1975.758
1766.43
1570.241
1389.792
1227.002
1083.094
958.6228
853.5149
767.1495
698.4192
645.9087
607.6975
582.4503
566.4313
561.3686
1095.34
1786.567
2391.274
2899.333
3309.37
3626.187
3858.811
4018.819
4118.924
4171.855
4189.52
4182.455
4159.511
4127.757
4092.531
4057.619
4025.506
3997.673
3974.895
3957.512
3945.648
3939.369
3938.76
3943.936
3954.982
3971.861
3994.288
4021.613
4052.714
4085.941
4119.101
4149.509
4174.086
4189.506
4192.384
4179.476
4147.887
4095.256
4019.919
3921.028
3798.617
3653.616
3487.817
3303.788
3104.746
2894.404
2676.798
2456.102
2236.456
2021.8
1815.726
1621.37
1441.317
1277.554
1131.444
1003.71
894.6454
802.9366
733.3647
652.6403
586.1833
505.8135
627.2108
902.2285
1276.814
1702.501
2139.766
2558.699
2938.557
3266.736
3537.438
3750.201
3908.46
4018.228
4086.957
4122.617
4132.99
4125.197
4105.407
4078.722
4049.186
4019.89
3993.118
3970.523
3953.278
3942.203
3937.84
3940.489
3950.196
3966.711
3989.434
4017.353
4049.005
4082.465
4115.364
4144.957
4168.221
4181.995
4183.138
4168.695
4136.072
4083.185
4008.593
3911.589
3792.256
3651.475
3490.894
3312.857
3120.295
2916.6
2705.472
2490.766
2276.336
2065.879
1862.862
1670.137
1491.151
1323.725
1189.454
993.3672
3595.229
2863.21
2231.042
1740.768
1412.929
1248.49
1233.548
1344.453
1552.391
1827.163
2140.066
2465.847
2783.845
3078.453
3339.059
3559.611
3737.938
3874.948
3973.803
4039.136
4076.378
4091.201
4089.117
4075.195
4053.908
4029.068
4003.835
3980.751
3961.809
3948.505
3941.88
3942.548
3950.694
3966.063
3987.953
4015.192
4046.151
4078.763
4110.576
4138.832
4160.578
4172.785
4172.5
4156.986
4123.871
4071.269
3997.892
3903.124
3787.063
3650.53
3495.037
3322.725
3136.282
2938.799
2733.776
2524.4
2316.018
2104.231
1927.96
1629.987
4024.858
3978.654
3765.212
3427.535
3021.315
2601.2
2213.825
1894.375
1665.41
1537.309
1509.864
1574.532
1716.917
1919.192
2162.252
2427.489
2698.118
2960.047
3202.344
3417.336
3600.445
3749.827
3865.894
3950.787
4007.868
4041.245
4055.378
4054.771
4043.734
4026.233
4005.79
3985.432
3967.662
3954.457
3947.263
3946.991
3954.02
3968.199
3988.848
4014.777
4044.322
4075.387
4105.524
4132.021
4152.013
4162.603
4160.999
4144.638
4111.316
4059.296
3987.395
3895.049
3782.355
3650.033
3499.587
3332.443
3153.388
2955.127
2784.93
2455.864
3965.357
4020.967
4061.867
4048.689
3957.352
3781.877
3531.852
3227.989
2897.279
2568.42
2268.05
2018.075
1834.097
1724.827
1692.302
1732.706
1837.586
1995.244
2192.156
2414.269
2648.092
2881.535
3104.47
3309.039
3489.733
3643.29
3768.46
3865.69
3936.771
3984.48
4012.245
4023.849
4023.186
4014.059
4000.031
3984.302
3969.634
3958.283
3951.964
3951.821
3958.416
3971.726
3991.163
4015.598
4043.416
4072.576
4100.699
4125.163
4143.219
4152.109
4149.19
4132.048
4098.625
4047.268
3976.998
3886.725
3778.887
3644.21
3525.303
3253.663
3932.404
3935.731
3955.182
3987.283
4018.115
4028.9
4001.594
3923.044
3787.413
3596.879
3360.866
3094.313
2815.474
2543.64
2297.043
2091.182
1937.66
1843.57
1811.393
1839.333
1921.967
2051.101
2216.716
2407.907
2613.732
2823.92
3029.412
3222.722
3398.123
3551.692
3681.227
3786.081
3866.932
3925.525
3964.409
3986.676
3995.724
3995.053
3988.077
3977.979
3967.591
3959.293
3954.95
3955.856
3962.715
3975.632
3994.128
4017.177
4043.261
4070.441
4096.449
4118.787
4134.844
4141.983
4137.809
4119.599
4087.261
4031.832
3981.396
3823.292
4002.476
4111.906
4175.821
4209.164
4225.897
4234.293
4235.9
4226.474
4198.101
4141.811
4049.988
3918.179
3746.145
3538.148
3302.551
3050.901
2796.687
2553.971
2336.077
2154.471
2017.925
1932.016
1898.959
1917.738
1984.483
2093.023
2235.539
2403.244
2587.045
2778.118
2968.387
3150.878
3319.952
3471.418
3602.544
3711.986
3799.649
3866.507
3914.399
3945.807
3963.645
3971.053
3971.209
3967.162
3961.694
3957.199
3955.597
3958.266
3966.008
3979.034
3996.977
4018.923
4043.478
4068.813
4092.858
4112.995
4127.765
4130.949
4133.404
4088.737
1160.171
1807.401
2369.402
2840.185
3222.973
3526.636
3762.65
3942.376
4075.035
4166.689
4220.184
4235.807
4212.376
4148.5
4043.756
3899.607
3719.943
3511.214
3282.17
3043.297
2806.035
2581.907
2381.654
2214.484
2087.488
2005.266
1969.784
1980.433
2034.277
2126.435
2250.557
2399.336
2565.03
2739.935
2916.804
3089.174
3251.608
3399.847
3530.874
3642.899
3735.291
3808.446
3863.639
3902.833
3928.494
3943.399
3950.446
3952.492
3952.197
3951.897
3953.503
3958.425
3967.528
3981.097
3998.892
4020.036
4043.484
4067.037
4089.13
4112.474
765.7235
797.2936
971.5979
1251.827
1597.481
1973.162
2351.198
2711.89
3042.497
3335.628
3587.516
3796.48
3961.752
4082.764
4158.889
4189.55
4174.585
4114.721
4012.034
3870.294
3695.105
3493.837
3275.336
3049.464
2826.51
2616.564
2428.891
2271.389
2150.163
2069.253
2030.509
2033.634
2076.354
2154.707
2263.402
2396.226
2546.464
2707.298
2872.169
3035.083
3190.85
3335.243
3465.101
3578.353
3673.985
3751.959
3813.094
3858.916
3891.485
3913.229
3926.757
3934.702
3939.565
3943.575
3948.6
3956.056
3966.684
3981.793
3996.511
4031.049
824.2573
769.6704
726.3684
726.9721
791.2276
925.3198
1124.827
1378.465
1671.445
1988.057
2313.444
2634.592
2940.688
3223.055
3474.859
3690.737
3866.483
3998.863
4085.578
4125.356
4118.131
4065.249
3969.622
3835.806
3669.945
3479.582
3273.341
3060.508
2850.544
2652.58
2474.93
2324.671
2207.314
2126.582
2084.316
2080.501
2113.391
2179.734
2275.059
2394.006
2530.677
2678.976
2832.931
2986.975
3136.169
3276.379
3404.386
3517.937
3615.743
3697.432
3763.45
3814.944
3853.617
3881.557
3901.096
3914.641
3924.369
3933.15
3939.395
3957.872
856.8322
843.3957
812.9397
770.1752
727.7762
701.6566
706.786
754.4957
851.1985
998.2056
1192.334
1426.941
1693.08
1980.574
2278.89
2577.787
2867.717
3140.048
3387.168
3602.523
3780.663
3917.299
4009.408
4055.353
4055.006
4009.845
3922.982
3799.119
3644.401
3466.174
3272.661
3072.573
2874.68
2687.388
2518.329
2374.019
2259.58
2178.562
2132.856
2122.709
2146.82
2202.52
2286.005
2392.614
2517.126
2654.057
2797.947
2943.618
3086.388
3222.243
3347.961
3461.175
3560.397
3644.982
3715.067
3771.485
3815.516
3849.425
3872.834
3899.825
872.4578
870.3054
864.954
851.4625
826.8706
792.0563
751.9462
714.6378
689.9518
687.809
716.8114
783.2417
890.5211
1039.08
1226.565
1448.262
1697.644
1966.932
2247.623
2530.939
2808.191
3071.075
3311.906
3523.83
3701.002
3838.773
3933.842
3984.405
3990.252
3952.815
3875.141
3761.798
3618.687
3452.788
3271.845
3083.998
2897.412
2719.891
2558.537
2419.444
2307.462
2226.042
2177.15
2161.273
2177.498
2223.648
2296.486
2391.944
2505.383
2631.854
2766.357
2904.074
3040.576
3171.996
3295.119
3407.604
3507.43
3595.439
3663.36
3751.741
887.2184
884.2294
882.1578
880.0053
875.3621
865.2633
847.2895
820.5595
786.3923
748.4498
712.3849
685.165
674.2374
686.6811
728.4653
803.8923
915.261
1062.747
1244.469
1456.695
1694.136
1950.293
2217.811
2488.831
2755.313
3009.353
3243.466
3450.853
3625.653
3763.163
3860.023
3914.366
3925.903
3895.951
3827.382
3724.504
3592.872
3439.032
3270.222
3094.039
2918.094
2749.676
2595.439
2461.139
2351.419
2269.662
2217.919
2196.895
2206.012
2243.526
2306.689
2391.954
2495.189
2611.943
2737.571
2867.836
2997.575
3127.355
3234.745
3405.299
903.0728
899.3066
895.8647
893.2077
891.3682
889.6676
886.6545
880.3103
868.5464
849.8286
823.7255
791.2699
755.0833
719.2554
689.0117
670.2332
668.9033
690.5592
739.8078
819.9488
932.7265
1078.212
1254.807
1459.341
1687.255
1932.828
2189.452
2449.921
2706.732
2952.395
3179.73
3382.155
3553.957
3690.523
3788.537
3846.12
3862.911
3840.083
3780.286
3687.522
3566.96
3424.695
3267.465
3102.349
2936.454
2776.605
2629.069
2499.311
2391.799
2309.868
2255.644
2230.03
2232.74
2262.427
2316.694
2392.799
2485.612
2597.371
2696.9
2895.848
918.8744
914.9188
910.4249
905.6222
900.9166
896.7402
893.3473
890.563
887.6313
883.262
875.8478
863.7968
845.9145
821.7648
791.9445
758.2258
723.5472
691.8549
667.8226
656.4881
662.8505
691.4743
746.1332
829.5217
943.0496
1086.724
1259.116
1457.412
1677.525
1914.268
2161.579
2412.772
2660.819
2898.642
3119.415
3316.846
3485.448
3620.768
3719.583
3780.031
3801.688
3785.576
3734.11
3650.972
3540.943
3409.671
3263.418
3108.776
2952.384
2800.648
2659.486
2534.102
2428.807
2346.907
2290.523
2261.044
2257.111
2283.227
2315.148
2437.752
934.3289
938.1254
944.0257
949.8759
954.109
955.9269
955.223
952.3661
947.9067
942.2966
935.6803
927.7889
917.9518
905.2198
888.5769
867.2032
840.7437
809.5376
774.7734
738.5462
703.81
674.2316
653.9645
647.3684
658.7017
691.816
749.8748
835.1166
948.6742
1090.459
1259.114
1452.029
1665.429
1894.507
2133.615
2376.5
2616.553
2847.097
3061.666
3254.283
3419.718
3553.709
3653.148
3716.203
3742.393
3732.596
3688.99
3614.948
3514.871
3393.983
3258.094
3113.343
2965.935
2821.895
2686.791
2565.716
2462.337
2381.623
2321.109
2288.456
872.1086
770.5966
712.6942
690.129
693.2675
713.3206
742.9947
776.6577
810.274
841.2009
867.9023
889.6267
906.0937
917.2269
922.9605
923.1367
917.498
905.7629
887.7614
863.6028
833.8398
799.6027
762.6799
725.5302
691.224
663.3171
645.6689
642.2213
656.7562
692.6504
752.646
838.65
951.5763
1091.238
1256.296
1444.268
1651.59
1873.74
2105.407
2340.7
2573.392
2797.175
3005.937
3194.012
3356.433
3489.135
3589.129
3654.62
3685.077
3681.234
3645.048
3579.591
3488.907
3377.811
3251.716
3116.211
2977.723
2838.719
2720.845
2546.876
3408.349
2828.374
2323.178
1899.283
1556.357
1289.521
1090.898
950.8898
859.239
805.8545
781.4049
777.6878
787.8001
806.1497
828.3518
851.0534
871.7298
888.4889
899.9145
904.963
902.9194
893.4066
876.4329
852.4599
822.4686
788.007
751.2026
714.7317
681.7422
655.7303
640.3806
639.3761
656.1944