/*--------------------------------*- C++ -*----------------------------------*\
| =========                 |                                                 |
| \\      /  F ield         | OpenFOAM: The Open Source CFD Toolbox           |
|  \\    /   O peration     | Version:  2312                                  |
|   \\  /    A nd           | Website:  www.openfoam.com                      |
|    \\/     M anipulation  |                                                 |
\*---------------------------------------------------------------------------*/
FoamFile
{
    version     2.0;
    format      ascii;
    arch        "LSB;label=32;scalar=64";
    class       volScalarField;
    location    "5850";
    object      k;
}
// * * * * * * * * * * * * * * * * * * * * * * * * * * * * * * * * * * * * * //

dimensions      [0 2 -2 0 0 0 0];

internalField   nonuniform List<scalar> 
12000
(
0.001517942
0.003425757
0.004098426
0.004841663
0.005459787
0.006055897
0.006588223
0.00706414
0.007486729
0.007886078
0.008269055
0.008617073
0.008911914
0.009189421
0.009458598
0.009717261
0.009920566
0.01009915
0.01027408
0.01045403
0.01058822
0.0106873
0.01078368
0.01088632
0.01096068
0.01099716
0.01102575
0.01105174
0.01106188
0.01105952
0.01103032
0.01099691
0.01094513
0.01087031
0.01083884
0.01076581
0.01062307
0.01037312
0.01011741
0.009998477
0.009939942
0.009748543
0.009260467
0.008803179
0.008683618
0.008605145
0.008425271
0.007635746
0.007129735
0.00701042
0.006940957
0.006288898
0.005593543
0.005306017
0.004912969
0.004387305
0.003780977
0.003326706
0.002862188
0.002733553
0.001651534
0.004194712
0.004887877
0.005625689
0.006330573
0.007102059
0.008126602
0.009277681
0.01033109
0.01107817
0.01192656
0.01318055
0.01427402
0.01487311
0.01534306
0.01638177
0.01748755
0.01808543
0.01824034
0.01896434
0.01993313
0.02055107
0.0206724
0.02111643
0.02185739
0.02241323
0.02267753
0.0229869
0.02345066
0.02385645
0.02418091
0.0244758
0.02471894
0.02493163
0.02516448
0.02537204
0.02555335
0.02566601
0.02571421
0.0257377
0.02560793
0.02543172
0.025316
0.0251117
0.02480493
0.02396075
0.02328385
0.02276998
0.02220286
0.02115961
0.0196279
0.01846182
0.01748605
0.01609489
0.01404759
0.01179369
0.00967016
0.007260843
0.004965465
0.004923342
0.00249175
0.005199518
0.006476364
0.007804931
0.009366765
0.01096734
0.01265826
0.01432542
0.01579838
0.01703696
0.01809896
0.01914491
0.02014907
0.02096509
0.02167618
0.02240295
0.02313061
0.02374394
0.02423626
0.02472309
0.02525153
0.0257571
0.02617975
0.0265681
0.02699037
0.02743315
0.02784896
0.02823133
0.02861423
0.0290105
0.02940559
0.02976626
0.03013486
0.03051283
0.03085461
0.03118783
0.03152571
0.03184912
0.03211408
0.03229768
0.03243684
0.03258988
0.03274334
0.03278514
0.03270572
0.03248152
0.03220238
0.03185414
0.03131529
0.03055522
0.02962977
0.02861379
0.02720459
0.02549538
0.02332601
0.0205041
0.01702057
0.01243609
0.007229366
0.006512409
0.00317167
0.005630557
0.007398772
0.0092787
0.01140285
0.01349029
0.01553791
0.01737268
0.01894912
0.02028436
0.02153243
0.02264141
0.02352543
0.0242333
0.02485433
0.02543026
0.02594583
0.02639912
0.02680575
0.02719981
0.0275977
0.02798894
0.02836463
0.02873759
0.02912389
0.02952272
0.02992498
0.03032901
0.03073936
0.03115639
0.03157658
0.03197395
0.03238036
0.03280655
0.0332166
0.03361107
0.03399067
0.03434865
0.03467479
0.03495809
0.03519122
0.03537149
0.03549517
0.03553248
0.03549018
0.03535735
0.03510455
0.034722
0.0341874
0.03346981
0.03254914
0.03127821
0.02962978
0.02768029
0.02533731
0.02261385
0.01925552
0.01503653
0.009652048
0.007842431
0.003855432
0.006100674
0.008329839
0.01069324
0.01318266
0.0154976
0.01756364
0.01935639
0.02088178
0.02216698
0.02326358
0.02423782
0.02507859
0.02574018
0.02621854
0.02665276
0.02704358
0.02739005
0.02772468
0.02805558
0.02838898
0.028729
0.02907787
0.02943956
0.02981809
0.03021453
0.03062741
0.03105542
0.03149797
0.03195405
0.03240169
0.03285176
0.03332454
0.03380192
0.03427257
0.03473822
0.03519315
0.03562942
0.0360396
0.03641598
0.03675103
0.03703702
0.0372682
0.03742393
0.03747964
0.03745642
0.03730453
0.03703683
0.03665409
0.036028
0.03505098
0.03379046
0.03232379
0.03057874
0.02842444
0.02568476
0.02212327
0.01742181
0.01121201
0.008836008
0.004495514
0.00649156
0.009023325
0.01164313
0.01426931
0.01665384
0.01872713
0.0204872
0.0219608
0.02317425
0.02414862
0.0249372
0.02557566
0.02614377
0.02661671
0.02697371
0.02729559
0.02759951
0.02789871
0.02820023
0.0285117
0.02883899
0.02918588
0.02955494
0.02994761
0.03036495
0.03080649
0.03127068
0.03175521
0.03225704
0.03277286
0.03330056
0.03384076
0.03439108
0.03493422
0.03547068
0.03600315
0.03651986
0.03701168
0.03747051
0.03788751
0.03825306
0.03855678
0.03878837
0.03893337
0.03894722
0.03886463
0.03866709
0.03824703
0.03755141
0.03660062
0.0353985
0.03390627
0.03204798
0.02973134
0.02685251
0.02325058
0.01862992
0.01252778
0.009633149
0.005072224
0.006828884
0.009553731
0.01227797
0.01491986
0.01727822
0.01929381
0.02097084
0.02234323
0.02345224
0.02434232
0.02505962
0.02564591
0.02613106
0.02656686
0.02695236
0.02727048
0.02755835
0.02784276
0.02813675
0.02844907
0.02878609
0.02915191
0.02954808
0.02997502
0.03043702
0.03093178
0.0314567
0.03200919
0.03258634
0.03318497
0.03379741
0.03442276
0.03505934
0.03569964
0.03633401
0.03695792
0.03756543
0.03814827
0.03869733
0.03920237
0.0396519
0.04003288
0.04033179
0.04052684
0.04061162
0.0405768
0.04032878
0.03986075
0.03917132
0.0382486
0.03705701
0.03555179
0.03367716
0.03135805
0.02847873
0.02484232
0.02008704
0.01363543
0.01026102
0.005640355
0.007144161
0.009944479
0.01266379
0.01523472
0.01750037
0.01941793
0.02101838
0.02234186
0.02343086
0.02429632
0.02498636
0.02554022
0.0259888
0.02637082
0.02673282
0.02708835
0.02741972
0.02773958
0.02807004
0.0284205
0.02879651
0.02920609
0.02965729
0.03015109
0.03068247
0.03125035
0.03185243
0.0324858
0.03314696
0.03383191
0.03453884
0.03526274
0.03599378
0.03672696
0.03745564
0.0381724
0.03886933
0.03953725
0.04016571
0.04074284
0.04125528
0.04168859
0.042024
0.04226079
0.04235516
0.04227778
0.04200597
0.04152317
0.04080653
0.0398294
0.03856009
0.03695882
0.03497271
0.03252781
0.02951324
0.02574574
0.02089092
0.01441052
0.01073342
0.006260437
0.007410138
0.01020826
0.01285645
0.01532116
0.01750236
0.01938312
0.02094699
0.02222513
0.02325273
0.02409103
0.02477326
0.02533384
0.02580449
0.0262141
0.02658738
0.02696071
0.0273459
0.02773147
0.02811892
0.02853374
0.02898586
0.02947786
0.03000881
0.03058045
0.03119226
0.03184244
0.03252843
0.03324699
0.03399423
0.03476574
0.03556398
0.03638207
0.03720422
0.03802545
0.03883918
0.03963762
0.04041184
0.04115156
0.0418451
0.04247916
0.04303969
0.04350899
0.04387968
0.04412325
0.04419213
0.04408268
0.04376984
0.04323264
0.04244845
0.04139184
0.04003307
0.03833563
0.0362515
0.03371202
0.03061007
0.02676098
0.02181322
0.01516908
0.01112399
0.006320659
0.007635167
0.0104027
0.01295461
0.01530896
0.01741025
0.01920074
0.02070478
0.02195048
0.02297589
0.02382323
0.02452934
0.0251277
0.02564828
0.02611736
0.02655574
0.02697362
0.027406
0.02786815
0.02835728
0.02886907
0.0294114
0.02998998
0.0306073
0.03126435
0.03196067
0.03269453
0.03346337
0.03426384
0.03509193
0.03594301
0.03682126
0.03771944
0.03861949
0.0395156
0.04040064
0.04126622
0.0421026
0.04289861
0.04364156
0.04431734
0.04490975
0.04540451
0.04577311
0.04598562
0.04602026
0.04586155
0.04548544
0.04487019
0.04399341
0.04283122
0.04135636
0.03953535
0.03732302
0.03465285
0.03141916
0.02743977
0.02237144
0.01564166
0.011381
0.006442387
0.007795825
0.01052673
0.01297438
0.01522408
0.01721703
0.01894512
0.02041633
0.021656
0.02269791
0.02357849
0.02433207
0.02498973
0.02557879
0.02612266
0.02663617
0.027148
0.0276672
0.02821052
0.02879035
0.02939918
0.03003712
0.03070759
0.03141302
0.03215467
0.03293231
0.0337446
0.03458922
0.035463
0.03636206
0.03728181
0.03822627
0.03918856
0.04015118
0.04110749
0.04204962
0.04296848
0.04385353
0.04469266
0.045472
0.04617556
0.04678509
0.04727694
0.04762789
0.0478046
0.04780163
0.04758573
0.04713442
0.04642696
0.04544389
0.04416543
0.04256939
0.04062658
0.0382954
0.03551255
0.03217518
0.02810257
0.02294827
0.01612063
0.0116017
0.00751049
0.007948468
0.01061652
0.01296918
0.01510941
0.01701867
0.01868632
0.02012607
0.02136378
0.022431
0.02335779
0.02417377
0.02490628
0.02557972
0.02621368
0.02683195
0.02744508
0.0280637
0.02869811
0.02935825
0.03005261
0.03078043
0.0315387
0.03232876
0.03315124
0.03400603
0.03489162
0.03580578
0.03674553
0.03770716
0.03868631
0.03968549
0.04069849
0.04171009
0.04271286
0.04369826
0.04465637
0.04557576
0.04644315
0.04724322
0.04795832
0.0485683
0.04905104
0.04938205
0.04953019
0.04947558
0.0491884
0.04864734
0.04783469
0.04673559
0.04533506
0.04361465
0.04154847
0.03909712
0.03619822
0.03274898
0.02856846
0.02331187
0.01639816
0.01172104
0.007476011
0.008060828
0.01066684
0.01292801
0.0149635
0.01679077
0.01841087
0.0198345
0.02108205
0.02217922
0.02315391
0.02403287
0.02484049
0.02559834
0.02632735
0.02704279
0.02775694
0.02847872
0.02921479
0.02997087
0.0307535
0.03156635
0.03241069
0.03328447
0.03418626
0.03511461
0.03606759
0.03704277
0.03803798
0.03905042
0.04007649
0.04111681
0.04216594
0.04321167
0.04424597
0.04525975
0.04624251
0.04718221
0.04806496
0.04887457
0.04959229
0.05019657
0.05066467
0.05096854
0.05107675
0.05096583
0.05060583
0.04997307
0.04905461
0.04784223
0.04632705
0.04449446
0.04232062
0.0397675
0.03677394
0.03323779
0.02897846
0.02365061
0.01666877
0.01182734
0.00762182
0.008142111
0.01070451
0.01287197
0.01480701
0.01655901
0.01813847
0.01955049
0.02081222
0.02194521
0.02297428
0.02392283
0.02481239
0.02565738
0.02647479
0.02727573
0.02807753
0.02889629
0.02973308
0.03058735
0.03146058
0.03235608
0.03327961
0.03423365
0.03521494
0.03621524
0.03722699
0.0382509
0.03929063
0.04034358
0.04140513
0.04247332
0.04354403
0.04460902
0.04565998
0.04668723
0.04767986
0.0486255
0.04951007
0.05031741
0.05102852
0.05162109
0.05206802
0.05234207
0.05241044
0.05224021
0.0517996
0.05107645
0.05006343
0.0487533
0.04713945
0.04521052
0.04294412
0.04030231
0.0372236
0.03360557
0.02926753
0.02386463
0.01681509
0.01186645
0.007813906
0.008205137
0.01071904
0.01281543
0.01468781
0.01639043
0.01793896
0.01934698
0.02062852
0.02180118
0.02288252
0.02388974
0.02483785
0.02574367
0.02662082
0.02749299
0.02837527
0.02927634
0.03019939
0.03114467
0.0321084
0.03308806
0.0340834
0.03509701
0.03613056
0.03718249
0.03824968
0.03932903
0.04041691
0.04150838
0.0425979
0.04368269
0.04476447
0.04584082
0.04690168
0.04793586
0.04893121
0.04987441
0.05075184
0.05154885
0.05224714
0.05282505
0.05325659
0.0535082
0.05353989
0.05331338
0.05279914
0.05198323
0.05087074
0.0494715
0.0477774
0.04577205
0.04343169
0.04071892
0.03757289
0.0338922
0.02949722
0.02404336
0.01694678
0.01189627
0.007998181
0.008259687
0.01073768
0.01278056
0.01459224
0.01624745
0.01777076
0.0191757
0.02047398
0.02167814
0.02280062
0.02385365
0.02484922
0.02580271
0.0267352
0.0276733
0.02863127
0.02961279
0.03061362
0.03162831
0.03265655
0.03370037
0.03475961
0.0358326
0.03691789
0.03801434
0.03912058
0.04023478
0.04135397
0.0424732
0.0435861
0.04468617
0.04577619
0.04686164
0.04793403
0.04897823
0.04998085
0.05092865
0.05180769
0.05260226
0.0532938
0.05385996
0.05427354
0.05450129
0.05450332
0.05423459
0.05365596
0.05275185
0.05153957
0.05005173
0.04828305
0.04620837
0.04380395
0.04103164
0.0378301
0.03409745
0.02965378
0.02415421
0.01701374
0.01189812
0.008152275
0.008308493
0.01075133
0.01274797
0.0145114
0.01612914
0.01763027
0.01902944
0.02033666
0.02156128
0.02271288
0.02380181
0.02483967
0.02583803
0.02682466
0.0278279
0.02885369
0.02989753
0.03095592
0.03202862
0.03311603
0.03421644
0.03532807
0.03644857
0.03757624
0.03871081
0.03985169
0.0409973
0.04214461
0.04328873
0.04442252
0.04553665
0.0466347
0.04772742
0.04880829
0.04986069
0.05086949
0.05182047
0.05269925
0.05349005
0.05417429
0.0547292
0.0551264
0.0553306
0.05530012
0.05499012
0.0543617
0.05339436
0.05210084
0.05052294
0.04868046
0.04654805
0.04409142
0.04127129
0.03802584
0.03425315
0.02977342
0.02424105
0.01706668
0.01189246
0.008279443
0.008360614
0.01077811
0.01273466
0.01445884
0.01604395
0.01752482
0.01891619
0.02022684
0.02146425
0.02263625
0.02375183
0.02482152
0.02585945
0.02689129
0.02794179
0.02901605
0.03011191
0.03122523
0.03235138
0.03348773
0.03463281
0.03578487
0.03694264
0.03810546
0.03927276
0.04044364
0.04161649
0.04278834
0.04395425
0.04510639
0.04623291
0.04733707
0.04843374
0.04951973
0.05057819
0.05159234
0.05254684
0.05342678
0.05421609
0.05489594
0.05544318
0.05582885
0.05601679
0.05596395
0.05562203
0.05494926
0.05392479
0.05256448
0.05091667
0.04901706
0.04683954
0.04433972
0.04147834
0.0381936
0.03438369
0.02986866
0.02430373
0.01708986
0.01186989
0.00838143
0.00842137
0.01081337
0.01273664
0.01442581
0.01598223
0.01744296
0.0188235
0.02013248
0.02137665
0.02256305
0.02369996
0.02479714
0.02586834
0.02693784
0.02802813
0.02914321
0.0302797
0.03143262
0.03259822
0.03377302
0.03495398
0.03613869
0.03732639
0.03851723
0.03971088
0.04090647
0.04210215
0.04329464
0.04447866
0.0456469
0.04679109
0.04790533
0.04900081
0.05008898
0.05115537
0.05217741
0.05313828
0.05402274
0.05481442
0.05549404
0.05603779
0.0564157
0.05659051
0.0565184
0.05614965
0.05544141
0.05437039
0.05295023
0.05123349
0.04927654
0.04705354
0.04451212
0.04161274
0.0382933
0.03445196
0.02990953
0.02432327
0.01709735
0.01183711
0.00847163
0.008495776
0.01086634
0.0127589
0.01441792
0.0159459
0.01738453
0.01875094
0.02005375
0.02129978
0.02249595
0.02365016
0.02477146
0.02587023
0.02696816
0.02808766
0.0292325
0.03039942
0.03158326
0.03277904
0.03398252
0.03519034
0.03640059
0.037613
0.03882754
0.04004372
0.04126066
0.0424766
0.0436883
0.04489052
0.04607589
0.04723565
0.04836137
0.04946355
0.0505575
0.05163157
0.05266284
0.05363295
0.05452525
0.05532242
0.05600437
0.05654646
0.05691782
0.05708021
0.0569891
0.05659324
0.05584949
0.05473476
0.05326427
0.05149404
0.04948611
0.04722168
0.04464748
0.04171974
0.03837572
0.03451282
0.02995044
0.02434033
0.01709963
0.01180827
0.008542947
0.00858558
0.01093729
0.01279775
0.01442349
0.01592459
0.01734155
0.01869171
0.01998547
0.02123006
0.02243261
0.02360078
0.02474295
0.02586777
0.02698974
0.02812905
0.02929369
0.03048104
0.03168568
0.0329021
0.03412574
0.03535387
0.03658503
0.03781825
0.03905306
0.04028913
0.04152572
0.04276108
0.04399204
0.04521347
0.04641795
0.04759595
0.04873669
0.04984968
0.05095273
0.05203698
0.05307974
0.05406138
0.05496388
0.05576875
0.05645493
0.05699683
0.05736264
0.05751325
0.05740373
0.05698195
0.05620499
0.05505003
0.05353341
0.05171439
0.04966045
0.04735891
0.04475497
0.04180059
0.03843235
0.03454736
0.02996564
0.02434253
0.01708712
0.01176392
0.00861884
0.008697427
0.01103245
0.0128597
0.01445343
0.0159252
0.01731587
0.01864633
0.0199275
0.02116735
0.02237316
0.02355236
0.02471254
0.02586102
0.0270043
0.0281567
0.02933297
0.03053214
0.03174916
0.03297888
0.03421706
0.0354607
0.03670803
0.0379582
0.03921086
0.04046558
0.04172138
0.04297637
0.04422734
0.04546926
0.04669466
0.04789337
0.04905302
0.05018116
0.0512963
0.0523925
0.05344814
0.05444259
0.0553564
0.05616982
0.05686067
0.05740237
0.05776218
0.05790019
0.05777122
0.05732264
0.05651234
0.05531883
0.05376047
0.05189916
0.04980577
0.04747249
0.04484338
0.04186693
0.03847927
0.03457709
0.02998002
0.02434395
0.01707532
0.0117323
0.00867824
0.008828295
0.0111489
0.01293982
0.0144975
0.01593578
0.01730015
0.01860969
0.0198764
0.02110895
0.02231487
0.02350135
0.02467523
0.02584274
0.02700885
0.02817853
0.02936018
0.03056417
0.03178744
0.03302464
0.03427185
0.03552648
0.03678681
0.0380518
0.03932079
0.04059308
0.04186748
0.04314194
0.04441313
0.04567608
0.04692371
0.04814604
0.04932903
0.05047456
0.05160189
0.05271176
0.05378254
0.0547909
0.0557164
0.05653841
0.05723374
0.05777476
0.0581278
0.05825223
0.05810274
0.05762661
0.0567829
0.05555189
0.05395433
0.05205485
0.04992703
0.04756588
0.04491405
0.04191746
0.03851168
0.03459295
0.02998101
0.02433122
0.01705114
0.01168752
0.008764046
0.008983908
0.01129394
0.01304418
0.01456207
0.01596542
0.01729964
0.01858419
0.0198329
0.02105471
0.022257
0.02344652
0.0246294
0.02581102
0.02699576
0.02818473
0.02938257
0.03058983
0.03181266
0.03305322
0.0343066
0.03556911
0.03683916
0.03811613
0.03939949
0.04068819
0.04198062
0.04327445
0.04456603
0.04584999
0.04711891
0.04836358
0.04957435
0.05074495
0.05188624
0.05300799
0.05409329
0.05511587
0.0560534
0.05688394
0.05758324
0.05812271
0.05846781
0.05857732
0.05840592
0.05790115
0.05702366
0.05575602
0.0541218
0.05218824
0.05003078
0.04764577
0.04497452
0.04196101
0.03854026
0.03460783
0.02998231
0.0243233
0.0170354
0.01165926
0.008783489
0.009168308
0.0114608
0.0131665
0.01464125
0.01600597
0.01730628
0.0185654
0.01979446
0.02100289
0.0221981
0.02338644
0.0245734
0.02576359
0.02696055
0.0281666
0.0293808
0.03060521
0.03183878
0.03308031
0.03433375
0.03560137
0.03688017
0.03816817
0.03946395
0.04076673
0.04207543
0.04338756
0.04469913
0.04600444
0.04729591
0.04856432
0.04980005
0.05099482
0.05215605
0.05329364
0.05439302
0.05542868
0.05637727
0.05721545
0.05791769
0.0584543
0.05878995
0.0588829
0.05868797
0.05815334
0.05724149
0.05593767
0.05426859
0.05230413
0.05012098
0.04771523
0.04502664
0.04199799
0.03856371
0.0346189
0.02998179
0.02430987
0.01701127
0.01162074
0.008825245
0.009368445
0.01165442
0.01331255
0.0147398
0.01606207
0.01732654
0.01855551
0.01976194
0.02095402
0.02213893
0.02332248
0.02450952
0.02570394
0.02690856
0.02812506
0.02935394
0.03059422
0.03184453
0.03310458
0.0343719
0.03564503
0.03692728
0.03822261
0.03952883
0.04084452
0.04216832
0.0434976
0.04482812
0.04615401
0.04746771
0.04876014
0.05002096
0.05123982
0.05242178
0.05357619
0.05468978
0.05573776
0.05669614
0.0575404
0.0582438
0.05877562
0.05909975
0.05917412
0.0589538
0.05838797
0.05744118
0.05610168
0.05439955
0.05240722
0.05020199
0.04777847
0.04507492
0.04203331
0.03858757
0.03463238
0.02998592
0.02430331
0.01699691
0.01159832
0.009233712
0.00959562
0.0118654
0.01347973
0.01485458
0.01613191
0.01735842
0.01855615
0.01973704
0.02091029
0.02208245
0.02325878
0.02444349
0.02563982
0.02685
0.02807514
0.02931535
0.03056988
0.03183745
0.03311564
0.03440299
0.03569711
0.03699592
0.0382992
0.03961193
0.0409378
0.04227455
0.04361891
0.04496651
0.04631132
0.04764565
0.04896025
0.05024466
0.05148767
0.05269125
0.05386255
0.05498947
0.05604836
0.05701476
0.05786306
0.05856539
0.05909009
0.05940042
0.05945412
0.0592066
0.0586084
0.05762628
0.05625171
0.05451829
0.05250086
0.05027678
0.04783805
0.04512123
0.04206794
0.03861145
0.03464582
0.02998874
0.02429588
0.01697865
0.01156909
0.009702787
0.009865965
0.01209586
0.01366956
0.01498753
0.01621634
0.01740165
0.01856515
0.01971986
0.02087336
0.02203179
0.02319995
0.02438151
0.02557914
0.02679452
0.02802826
0.02928005
0.03054885
0.03183299
0.03312965
0.03443713
0.03575296
0.03707469
0.03839975
0.03972564
0.04105739
0.0424025
0.04375845
0.04512026
0.04648153
0.04783434
0.04916938
0.05047596
0.05174208
0.05296656
0.05415407
0.05529348
0.05636198
0.05733458
0.05818475
0.05888367
0.05939891
0.05969323
0.05972433
0.05944808
0.05881672
0.05779933
0.05639074
0.05462806
0.05258837
0.05034853
0.04789701
0.04516875
0.04210542
0.03863975
0.03466527
0.02999903
0.02429538
0.01697003
0.01155527
0.009971872
0.01014327
0.01233789
0.01386971
0.01513242
0.01631221
0.01745653
0.01858651
0.01971448
0.02084732
0.02199162
0.02315159
0.02433027
0.02552971
0.02675098
0.02799413
0.02925838
0.03054202
0.03184191
0.03315736
0.03448526
0.03582281
0.03716701
0.03851488
0.03986358
0.04121094
0.04256157
0.04392324
0.04529444
0.04666846
0.04803656
0.04938886
0.05071494
0.05200486
0.05325076
0.05445142
0.05560125
0.05667856
0.05765584
0.05850576
0.05919896
0.05970252
0.05997893
0.059986
0.05968004
0.05901529
0.05796312
0.05652175
0.05473182
0.05267246
0.05041958
0.04795728
0.04521877
0.04214617
0.03867171
0.03468844
0.03001302
0.02430009
0.0169623
0.01153649
0.01004985
0.01041573
0.01259403
0.01408563
0.01529564
0.01642236
0.01752392
0.01861947
0.01972046
0.02083525
0.02196683
0.02312033
0.02429802
0.02550138
0.02673057
0.02798441
0.02926072
0.03055829
0.03187626
0.03321077
0.03455875
0.03591719
0.03728258
0.03865189
0.04002212
0.0413907
0.04275506
0.04412077
0.04549613
0.04687775
0.04825704
0.04962363
0.05096658
0.05227537
0.05354013
0.05475609
0.0559161
0.05699935
0.05797869
0.0588261
0.05951148
0.06000139
0.06025809
0.06023975
0.05990263
0.05920465
0.0581188
0.05664663
0.05483203
0.05275581
0.0504925
0.04802112
0.04527345
0.04219253
0.03871013
0.03471882
0.03003456
0.02431109
0.01696161
0.01152903
0.01008647
0.01068733
0.01285583
0.01430817
0.01546795
0.01654417
0.01760506
0.01866851
0.01974553
0.02084322
0.02196715
0.02311712
0.02429541
0.02550233
0.02673733
0.02800121
0.02929244
0.03060777
0.03194378
0.03329721
0.03466487
0.03604307
0.03742842
0.03881733
0.04020704
0.04159456
0.04297719
0.04435325
0.04572956
0.04711342
0.04849884
0.04987559
0.0512322
0.05255689
0.0538379
0.05506759
0.05623667
0.05732437
0.05830378
0.05914642
0.05982161
0.06029565
0.06053118
0.06048703
0.06011957
0.0593891
0.05827079
0.05676936
0.0549318
0.0528408
0.05056945
0.04809036
0.04533374
0.04224477
0.03875461
0.03475521
0.0300618
0.02432758
0.01696697
0.01152261
0.01023282
0.01097988
0.01313764
0.01454947
0.01565538
0.01667909
0.01770001
0.01873302
0.01978773
0.02086998
0.02198316
0.02313046
0.02431207
0.02552798
0.02677716
0.02805645
0.02936367
0.03069587
0.03204962
0.03342149
0.0348076
0.03620392
0.0376067
0.03901289
0.04041953
0.0418236
0.04322228
0.04461286
0.04599564
0.047378
0.04876426
0.05014647
0.05151268
0.05284995
0.05414523
0.05538781
0.0565652
0.05765623
0.05863427
0.05947067
0.06013466
0.06059238
0.06080599
0.06073424
0.06033535
0.05957258
0.05842359
0.05689549
0.05503745
0.05293308
0.05065365
0.04816682
0.0454019
0.04230527
0.03880763
0.03480019
0.0300975
0.02435179
0.01697693
0.01152173
0.01033858
0.01126081
0.01342195
0.01479932
0.01585542
0.01682853
0.0178112
0.01881673
0.01985324
0.02092541
0.02203575
0.02318532
0.02437381
0.02559994
0.02686149
0.02815548
0.02947876
0.03082783
0.03219895
0.03358792
0.03499036
0.03640251
0.03782096
0.03924259
0.04066404
0.04208228
0.0434944
0.04489764
0.04628922
0.0476729
0.0490569
0.05043995
0.05181144
0.05315763
0.05446421
0.05571754
0.05690168
0.0579946
0.05896995
0.05979893
0.06045014
0.06088909
0.06107843
0.06097854
0.060549
0.05975438
0.05857478
0.05702083
0.05514407
0.05302771
0.05074089
0.0482475
0.04547584
0.04237237
0.03886718
0.03485115
0.03013833
0.02438055
0.01699195
0.01152629
0.01052854
0.01157044
0.01372585
0.01506028
0.01606501
0.01699224
0.01794217
0.01892466
0.01994686
0.02101241
0.02212262
0.02327721
0.02447471
0.02571281
0.02698843
0.02829802
0.02963752
0.0310027
0.03238917
0.03379254
0.03520903
0.03663498
0.03806719
0.03950205
0.04093629
0.04236679
0.04379055
0.04520475
0.04660659
0.04799395
0.04937389
0.05075431
0.05212716
0.05347839
0.05479261
0.05605378
0.05724274
0.05833591
0.05930635
0.06012471
0.0607597
0.06117792
0.06134288
0.0612158
0.06075671
0.05993141
0.05872236
0.05714305
0.05524816
0.0531223
0.05083158
0.0483339
0.04555583
0.0424454
0.03893271
0.03490859
0.03018692
0.0244176
0.0170134
0.01153423
0.01062356
0.01185141
0.01402535
0.01533282
0.01629457
0.0171767
0.0180955
0.0190595
0.02007288
0.02113705
0.02225152
0.02341452
0.02462336
0.02587472
0.02716473
0.02848921
0.02984344
0.03122269
0.03262231
0.03403845
0.03546739
0.03690559
0.03834936
0.0397952
0.04123979
0.04267996
0.04411267
0.04553497
0.04694398
0.04833676
0.04971643
0.05109168
0.05246206
0.05381425
0.055132
0.05639776
0.05758907
0.05867987
0.05964248
0.0604479
0.06106556
0.06146249
0.06160237
0.06144733
0.06095867
0.0601042
0.05886873
0.05726822
0.05535876
0.0532243
0.0509286
0.048425
0.04563942
0.04252174
0.03900157
0.03496891
0.03023661
0.02445531
0.01703708
0.01154298
0.01078499
0.0121594
0.01434614
0.01562082
0.01653786
0.01738331
0.01827884
0.01922949
0.02023779
0.02130356
0.02242464
0.02359773
0.02481885
0.02608358
0.02738714
0.02872464
0.03009136
0.03148282
0.03289487
0.03432327
0.0357639
0.03721286
0.03866645
0.04012128
0.04157407
0.04302172
0.0444612
0.04588952
0.04730373
0.04870086
0.05008014
0.05144965
0.05281534
0.05416518
0.05548271
0.05674946
0.05794015
0.05902632
0.0599796
0.06077107
0.06137049
0.06174543
0.06186031
0.06167831
0.06116168
0.0602796
0.05901892
0.05739811
0.05547539
0.05333467
0.05103542
0.04852642
0.04573393
0.04260942
0.0390823
0.0350423
0.03030147
0.02450786
0.01707072
0.01155822
0.01115862
0.01244949
0.01465934
0.01590919
0.01679014
0.01760518
0.01847963
0.01942063
0.02042773
0.02149838
0.02262857
0.02381352
0.02504805
0.02632681
0.02764441
0.02899557
0.03037548
0.03177952
0.03320327
0.03464241
0.03609288
0.03755081
0.03901258
0.04047479
0.0419342
0.0433877
0.04483226
0.04626488
0.04768258
0.04908237
0.05046111
0.05182543
0.05318469
0.0545293
0.05584344
0.05710829
0.05829602
0.05937571
0.06031804
0.0610942
0.06167458
0.06202748
0.06211803
0.06191012
0.06136696
0.06045916
0.05917552
0.05753675
0.05560261
0.05345597
0.05115066
0.04863443
0.04583475
0.04270264
0.03916709
0.03511737
0.03036524
0.02455877
0.01710711
0.01157344
0.01089703
0.0127619
0.01498849
0.01621248
0.01706137
0.01785309
0.01871322
0.01965083
0.02066184
0.02174125
0.02288321
0.02408154
0.02533006
0.02662273
0.02795375
0.02931768
0.03070933
0.03212392
0.0335569
0.03500412
0.03646164
0.03792573
0.03939287
0.04085971
0.04232307
0.04377984
0.04522702
0.04666162
0.0480805
0.04948048
0.05085832
0.05221843
0.05356981
0.05490692
0.05621514
0.05747543
0.05865771
0.05972881
0.06065857
0.06141829
0.06197894
0.06230952
0.06237593
0.06214266
0.06157387
0.0606414
0.05933588
0.05768019
0.05573555
0.05358367
0.05127275
0.04874962
0.04594303
0.04280371
0.03926037
0.03520187
0.03043894
0.02461761
0.01714398
0.01159281
0.01076914
0.01301373
0.01530845
0.01652364
0.01735193
0.01812846
0.01898032
0.01991928
0.02093783
0.0220285
0.0231837
0.02439598
0.02565831
0.02696409
0.02830719
0.02968197
0.03108324
0.03250621
0.03394646
0.03539989
0.03686264
0.03833108
0.03980179
0.04127151
0.04273711
0.04419554
0.04564367
0.04707835
0.04849649
0.049895
0.05127058
0.05262579
0.05396928
0.05529836
0.05659922
0.05785274
0.0590271
0.06008735
0.06100264
0.0617445
0.06228451
0.06259237
0.0626348
0.06237674
0.0617832
0.06082719
0.05950098
0.05782941
0.05587487
0.05371777
0.05140091
0.04887025
0.04605585
0.04290823
0.03935581
0.03528709
0.03051263
0.02467823
0.0171893
0.01161618
0.0111157
0.01327238
0.01562965
0.01684642
0.01766233
0.01843032
0.01927917
0.02022358
0.02125259
0.0223564
0.02352579
0.02475224
0.02602804
0.02734618
0.02870032
0.03008475
0.03149431
0.03292427
0.03437033
0.03582851
0.03729504
0.03876644
0.04023936
0.04171062
0.04317703
0.04463545
0.04608278
0.04751594
0.04893174
0.05032699
0.05169847
0.05304788
0.05438364
0.05570414
0.0569963
0.05824095
0.05940485
0.06045179
0.06135059
0.06207315
0.0625917
0.06287605
0.06289475
0.06261249
0.06199508
0.06101655
0.05967071
0.05798413
0.05602017
0.0538579
0.05153516
0.04899708
0.04617498
0.04301921
0.03945793
0.03537923
0.03059282
0.0247429
0.0172326
0.01163848
0.0117013
0.01357517
0.01596732
0.01718794
0.01799772
0.01876311
0.01961337
0.02056662
0.02160837
0.02272655
0.02391049
0.0251508
0.02643924
0.02776855
0.0291323
0.03052482
0.03194104
0.03337637
0.03482666
0.03628805
0.03775691
0.03922981
0.04070348
0.0421747
0.04364032
0.04509719
0.04654221
0.04797229
0.04938432
0.05077497
0.05214084
0.05348364
0.05481167
0.05612295
0.05740472
0.05863809
0.05978898
0.06082029
0.06170079
0.06240286
0.06289942
0.06315979
0.0631552
0.06284947
0.0622091
0.06120906
0.0598445
0.05814357
0.05617046
0.05400291
0.05167397
0.04912802
0.04629763
0.043133
0.03956208
0.03547269
0.03067413
0.02480991
0.01728177
0.0116665
0.01199781
0.01387672
0.01630594
0.01754114
0.01835461
0.01912489
0.01998185
0.02094738
0.02200385
0.02313726
0.0243358
0.02558942
0.02688956
0.02822886
0.02960093
0.03100019
0.03242171
0.03386107
0.03531425
0.0367775
0.0382473
0.03972029
0.04119326
0.04266296
0.04412629
0.04558015
0.04702149
0.04844711
0.04985373
0.05123804
0.05259664
0.05393178
0.05525168
0.05655303
0.05782306
0.05904311
0.06017859
0.06119205
0.06205251
0.06273295
0.06320689
0.06344428
0.06341656
0.06308797
0.06242547
0.06140478
0.06002231
0.05830757
0.05632548
0.05415249
0.05181717
0.0492632
0.04642439
0.04325078
0.03967014
0.03556991
0.03075877
0.02487898
0.01733042
0.01169061
0.01211775
0.01413916
0.01664524
0.01791002
0.01873697
0.01951858
0.02038622
0.0213665
0.02243891
0.02358784
0.02480058
0.02606665
0.02737735
0.02872533
0.03010431
0.03150888
0.03293427
0.03437622
0.03583086
0.03729457
0.03876391
0.04023561
0.04170641
0.04317324
0.04463296
0.04608246
0.04751859
0.04893816
0.05033789
0.05171443
0.05306438
0.05439094
0.0557023
0.05699297
0.05824994
0.05945476
0.06057269
0.06156634
0.06240532
0.06306327
0.06351434
0.06372894
0.06367858
0.0633278
0.06264393
0.06160338
0.06020362
0.05847545
0.05648441
0.05430571
0.05196368
0.04940133
0.04655366
0.04337064
0.03977985
0.03566846
0.03084461
0.02494973
0.01738185
0.01171705
0.01251152
0.01439968
0.01698572
0.01829369
0.01914396
0.01994333
0.02082556
0.02182281
0.02291211
0.02407653
0.02530283
0.02658033
0.02790036
0.02925566
0.03064017
0.03204865
0.03347654
0.03491976
0.03637457
0.03783747
0.03930507
0.04077412
0.04224148
0.04370406
0.04515874
0.04660246
0.04803203
0.04944423
0.05083577
0.05220328
0.05354333
0.05486041
0.05616251
0.05744141
0.05868407
0.05987213
0.06097068
0.06194284
0.06275907
0.06339387
0.06382187
0.06401393
0.06394137
0.06356902
0.06286446
0.06180469
0.06038817
0.05864682
0.05664675
0.05446204
0.05211301
0.04954202
0.04668527
0.04349261
0.03989148
0.03576873
0.03093198
0.02502158
0.01743369
0.01174041
0.01225421
0.0146808
0.01734419
0.01869921
0.01957921
0.02040112
0.02130036
0.02231566
0.02342203
0.02460162
0.02584069
0.02712855
0.02845669
0.02981808
0.03120688
0.03261808
0.03404731
0.03549063
0.03694438
0.03840514
0.03986968