/*--------------------------------*- C++ -*----------------------------------*\
| =========                 |                                                 |
| \\      /  F ield         | OpenFOAM: The Open Source CFD Toolbox           |
|  \\    /   O peration     | Version:  2312                                  |
|   \\  /    A nd           | Website:  www.openfoam.com                      |
|    \\/     M anipulation  |                                                 |
\*---------------------------------------------------------------------------*/
FoamFile
{
    version     2.0;
    format      ascii;
    arch        "LSB;label=32;scalar=64";
    class       volScalarField;
    location    "5850";
    object      omega;
}
// * * * * * * * * * * * * * * * * * * * * * * * * * * * * * * * * * * * * * //

dimensions      [0 0 -1 0 0 0 0];

internalField   nonuniform List<scalar> 
12000
(
51.59577
16.80764
18.18954
19.57564
20.66006
21.65273
22.50682
23.24606
23.87921
24.45954
25.00468
25.49637
25.90409
26.27714
26.63245
26.97542
27.24585
27.47452
27.69434
27.92172
28.09781
28.22172
28.33866
28.46365
28.56046
28.6074
28.64068
28.67172
28.68078
28.68386
28.64623
28.60446
28.5408
28.43629
28.39042
28.31199
28.14891
27.84296
27.49599
27.30934
27.23569
27.0315
26.41709
25.73326
25.59002
25.4116
25.24681
24.18022
23.29584
23.09155
23.00148
22.10093
20.87292
20.33822
19.65554
18.70696
17.52508
16.53705
15.56235
37.45811
91.2648
19.5738
18.51595
19.32654
19.39276
19.43185
19.36657
19.11981
18.73709
18.21336
17.71314
17.14128
16.56336
16.13866
15.7068
15.10119
14.42077
14.11761
13.9202
13.45302
12.78752
12.51266
12.46831
12.20269
11.67095
11.4323
11.39831
11.29486
11.0382
10.86779
10.81437
10.79474
10.79146
10.79985
10.79832
10.79189
10.87083
11.08607
11.33778
11.4067
11.40613
11.51288
12.02905
12.62201
12.83917
12.82746
13.11626
14.16936
15.17218
15.55652
15.72799
17.12121
18.91135
20.23981
21.59717
24.00779
28.33214
34.85697
47.24988
69.4883
93.81474
19.98509
17.60206
17.31498
16.78396
16.09704
15.40868
14.69882
13.93049
13.14861
12.38331
11.72761
11.17936
10.68554
10.22516
9.812612
9.475944
9.201738
8.937564
8.686114
8.486477
8.345462
8.216564
8.085293
7.981312
7.923608
7.883792
7.845968
7.821941
7.820753
7.836826
7.860959
7.898532
7.951239
8.00898
8.081862
8.173852
8.280796
8.39141
8.500499
8.621714
8.771659
8.949652
9.135949
9.322748
9.537459
9.786093
10.06614
10.39581
10.77537
11.22889
11.76259
12.40157
13.33553
14.55758
16.2598
19.28134
25.3684
41.11706
75.74172
95.66243
19.2135
15.8886
15.39343
14.59709
13.7191
12.89743
12.05728
11.24978
10.5127
9.892565
9.353836
8.867289
8.442188
8.081141
7.776986
7.517117
7.294665
7.102322
6.941286
6.811349
6.705885
6.617993
6.54746
6.496183
6.462355
6.441771
6.43585
6.436965
6.452794
6.479717
6.513048
6.557647
6.617192
6.685224
6.76353
6.853231
6.954456
7.06717
7.191506
7.328741
7.481542
7.653142
7.845116
8.058421
8.300504
8.574568
8.890655
9.257805
9.689682
10.21046
10.79377
11.45606
12.32591
13.49361
15.32233
18.27057
23.73439
37.59648
80.75804
97.42192
18.49299
14.61974
13.92603
13.02214
12.08078
11.18947
10.35953
9.61844
8.972926
8.427452
7.970488
7.578216
7.227548
6.912635
6.654518
6.434899
6.246553
6.089541
5.959268
5.852187
5.765178
5.695694
5.642317
5.603982
5.579311
5.568624
5.567461
5.577224
5.598115
5.626451
5.663624
5.712729
5.771587
5.83926
5.916459
6.003342
6.099813
6.206071
6.322475
6.449671
6.588596
6.740869
6.906381
7.087587
7.285976
7.504439
7.752651
8.039628
8.372338
8.743468
9.175154
9.74944
10.5326
11.62357
13.20979
15.82342
21.029
35.12765
84.4007
99.06275
18.63209
13.61896
12.72
11.79147
10.86919
10.01529
9.249983
8.583824
8.010161
7.516319
7.093966
6.73067
6.427022
6.163283
5.928745
5.731647
5.565764
5.426801
5.310892
5.215454
5.138388
5.077952
5.032759
5.001636
4.98351
4.978916
4.983204
4.998877
5.02493
5.060794
5.105996
5.160919
5.225811
5.299015
5.381075
5.473547
5.575831
5.688041
5.810673
5.944404
6.090167
6.249248
6.423514
6.615039
6.822192
7.056093
7.32126
7.611183
7.933948
8.319079
8.794276
9.38807
10.15074
11.18366
12.69956
15.17545
19.99055
33.13551
87.23918
100.6273
18.65003
12.85702
11.75334
10.83271
9.958685
9.164634
8.463407
7.855341
7.331475
6.880763
6.493791
6.161687
5.875692
5.635545
5.430351
5.249468
5.094426
4.964321
4.856506
4.768638
4.698782
4.645343
4.606995
4.582616
4.573476
4.573394
4.5853
4.60843
4.64215
4.686011
4.739187
4.801526
4.873511
4.954792
5.044719
5.143782
5.252249
5.370241
5.497993
5.635861
5.784362
5.944194
6.116468
6.301862
6.505621
6.727298
6.963669
7.22496
7.524215
7.876373
8.300779
8.830244
9.521028
10.47444
11.89161
14.24177
18.90156
31.79516
89.36095
102.4017
18.87493
12.31676
10.99311
10.08203
9.262255
8.527831
7.882514
7.322575
6.839152
6.422239
6.062836
5.753074
5.486191
5.256612
5.062957
4.899445
4.758001
4.637226
4.537072
4.456161
4.393035
4.346301
4.31473
4.297251
4.293624
4.301045
4.32022
4.3505
4.39134
4.442301
4.50334
4.573773
4.653126
4.741523
4.838923
4.945336
5.060833
5.185496
5.319462
5.462966
5.616417
5.780499
5.955728
6.145391
6.349364
6.56663
6.804035
7.06872
7.369554
7.719849
8.140299
8.663127
9.341559
10.27093
11.64106
13.89126
18.31243
30.60254
90.87064
103.8006
18.95238
11.93777
10.39823
9.485633
8.715204
8.036267
7.441469
6.923871
6.474887
6.08593
5.749262
5.458041
5.206411
4.989482
4.803358
4.647016
4.5165
4.406532
4.315315
4.242123
4.186027
4.145938
4.120753
4.111056
4.112442
4.126194
4.151569
4.187944
4.234799
4.291715
4.359166
4.436417
4.52232
4.617095
4.720835
4.833567
4.955293
5.085986
5.225588
5.37399
5.531564
5.699298
5.878436
6.068273
6.267859
6.480585
6.710809
6.965097
7.250948
7.580636
7.97478
8.464405
9.101822
9.981365
11.29081
13.46474
17.77517
29.79634
92.09054
78.24958
18.54958
11.65539
9.946279
9.018443
8.284482
7.650429
7.096832
6.614472
6.195011
5.830636
5.514403
5.240302
5.003245
4.798988
4.623878
4.474987
4.3516
4.250765
4.168473
4.103332
4.054402
4.020858
4.001769
3.996849
4.003789
4.022726
4.053021
4.094122
4.145563
4.206962
4.279
4.361053
4.45173
4.55126
4.660034
4.778049
4.905321
5.04189
5.187829
5.343292
5.508045
5.681496
5.863291
6.053458
6.253448
6.465554
6.692811
6.93946
7.215165
7.534464
7.91919
8.397242
9.020187
9.880095
11.15772
13.26916
17.43387
29.0466
92.88179
80.07877
18.91635
11.56311
9.621807
8.650293
7.938813
7.343319
6.827755
6.378239
5.985951
5.643951
5.346276
5.087776
4.864047
4.671354
4.506512
4.36674
4.249852
4.154857
4.080177
4.022529
3.980266
3.952504
3.938741
3.937708
3.948775
3.971453
4.005203
4.049566
4.104166
4.168711
4.243938
4.329491
4.424236
4.528166
4.641001
4.762839
4.893738
5.03372
5.182767
5.340806
5.507699
5.682976
5.866459
6.058154
6.258869
6.469985
6.694489
6.937699
7.207835
7.51662
7.880607
8.335689
8.932722
9.762362
11.00317
13.06711
17.1573
28.56282
93.54541
108.1041
20.46025
11.64699
9.419089
8.377589
7.670659
7.100558
6.613837
6.191372
5.823352
5.502378
5.222757
4.979783
4.769491
4.588488
4.433892
4.303235
4.194279
4.105404
4.035285
3.982732
3.945838
3.922899
3.913599
3.916082
3.930315
3.955737
3.991891
4.038409
4.095004
4.161474
4.238454
4.32576
4.422431
4.528482
4.643971
4.768936
4.903396
5.047327
5.200623
5.363077
5.53436
5.714093
5.901806
6.097073
6.299423
6.509574
6.729915
6.965449
7.224883
7.521862
7.877025
8.320304
8.904334
9.718839
10.93767
12.96271
16.96466
28.10079
93.90689
82.84268
20.57871
11.71605
9.274097
8.165742
7.453486
6.901564
6.439431
6.041386
5.695164
5.393231
5.130034
4.901168
4.703051
4.532978
4.388593
4.26778
4.168329
4.087661
4.023989
3.97615
3.942944
3.923132
3.915684
3.920263
3.936405
3.963556
4.001281
4.049261
4.107263
4.17514
4.253282
4.341608
4.43961
4.54733
4.664833
4.79218
4.929415
5.076523
5.233391
5.399758
5.575181
5.759187
5.950864
6.14937
6.353979
6.564179
6.781093
7.009786
7.259606
7.544808
7.886386
8.316236
8.883937
9.678229
10.87469
12.87204
16.83025
27.83484
94.27813
83.7255
21.2141
11.90359
9.225054
8.026481
7.293785
6.752096
6.309277
5.931577
5.603911
5.31845
5.069973
4.854715
4.669765
4.512521
4.380277
4.267995
4.172111
4.093813
4.032264
3.986742
3.956369
3.940223
3.937202
3.945358
3.964043
3.992824
4.031534
4.080162
4.138572
4.206677
4.284763
4.373002
4.471286
4.579648
4.698132
4.826803
4.965727
5.114954
5.274458
5.44404
5.623253
5.811175
6.006847
6.209756
6.418509
6.629957
6.84354
7.064942
7.304991
7.578821
7.90845
8.325985
8.882337
9.665349
10.84792
12.82256
16.73181
27.58228
94.49518
84.55952
21.93089
12.13542
9.230871
7.943299
7.182779
6.640503
6.209993
5.849011
5.538936
5.270061
5.036668
4.834853
4.661857
4.51388
4.387594
4.281362
4.193953
4.122348
4.065719
4.023228
3.994495
3.978929
3.975914
3.984427
4.003865
4.033562
4.073131
4.12229
4.180831
4.248666
4.326041
4.413646
4.511874
4.62061
4.739781
4.869345
5.009268
5.159717
5.320927
5.492892
5.675456
5.868295
6.070183
6.27837
6.489473
6.700907
6.912422
7.127022
7.355383
7.616503
7.934415
8.340776
8.886001
9.657866
10.82716
12.78646
16.67388
27.45921
94.67389
85.23463
22.5956
12.38812
9.274509
7.892782
7.101137
6.555045
6.133122
5.785836
5.490725
5.236249
5.015817
4.825384
4.662777
4.524982
4.408152
4.309737
4.227776
4.160583
4.107515
4.068125
4.041746
4.027636
4.02517
4.033563
4.052718
4.082013
4.121125
4.16979
4.227794
4.295028
4.371557
4.458357
4.556548
4.666071
4.786497
4.917688
5.059655
5.212489
5.376264
5.550918
5.736125
5.931149
6.134671
6.344592
6.557473
6.769131
6.977279
7.185305
7.404219
7.653952
7.960853
8.357529
8.894002
9.657301
10.8178
12.7644
16.62744
27.3419
94.77509
85.75886
23.21713
12.65739
9.359221
7.892898
7.056891
6.497528
6.077569
5.739102
5.45531
5.212642
5.003789
4.824801
4.672747
4.544527
4.435558
4.343305
4.266249
4.203623
4.154583
4.118347
4.094114
4.081322
4.079411
4.087714
4.106532
4.135282
4.173708
4.221591
4.278746
4.345048
4.420466
4.506236
4.603992
4.713798
4.83507
4.967474
5.110896
5.265366
5.430933
5.607518
5.794758
5.991767
6.196831
6.407151
6.618992
6.828643
7.033985
7.237505
7.449179
7.689072
7.985559
8.373564
8.902501
9.658857
10.812
12.7494
16.60107
27.30441
94.82591
86.17307
23.78625
12.93933
9.467288
7.907434
7.036533
6.46287
6.041062
5.707476
5.431685
5.198119
4.998429
4.828078
4.68502
4.56454
4.462624
4.376831
4.305516
4.247456
4.201784
4.16791
4.145269
4.133383
4.131898
4.140132
4.158602
4.186747
4.224389
4.271366
4.327528
4.392737
4.466868
4.551321
4.648183
4.757806
4.87955
5.012887
5.157566
5.313532
5.480774
5.659156
5.848224
6.046976
6.253565
6.465013
6.677166
6.885519
7.087462
7.285657
7.490902
7.723065
8.01135
8.392169
8.914617
9.66476
10.81151
12.74273
16.57784
27.22283
94.80088
86.47189
24.32024
13.22853
9.597265
7.953683
7.038513
6.44482
6.017678
5.685934
5.415648
5.189324
4.997599
4.835341
4.699363
4.585398
4.489418
4.408868
4.342016
4.287655
4.2449
4.213036
4.191602
4.180273
4.178891
4.186851
4.204823
4.232285
4.269116
4.3152
4.37044
4.434803
4.508428
4.591867
4.687277
4.796547
4.919037
5.053604
5.199818
5.357565
5.526778
5.70723
5.898333
6.098882
6.306765
6.518715
6.730377
6.937156
7.136341
7.330394
7.529958
7.754803
8.035472
8.410308
8.928173
9.674762
10.81819
12.74364
16.57158
27.21718
94.71547
86.69763
24.82174
13.52059
9.743407
8.018372
7.057998
6.444779
6.007304
5.673445
5.40565
5.184209
4.998376
4.842234
4.712064
4.603528
4.512466
4.436292
4.373184
4.321828
4.281298
4.250965
4.230461
4.219607
4.218323
4.226066
4.243619
4.270539
4.30678
4.352294
4.407034
4.470997
4.54432
4.627403
4.722463
4.83182
4.955111
5.09114
5.239274
5.399197
5.570677
5.753332
5.946401
6.148475
6.357209
6.569083
6.77949
6.983644
7.178815
7.367752
7.561646
7.780846
8.055973
8.425686
8.93958
9.682954
10.82337
12.74503
16.56559
27.1716
94.62036
86.85365
25.29171
13.81084
9.898844
8.09554
7.090711
6.451359
6.004382
5.66663
5.399125
5.1805
4.99874
4.847349
4.721441
4.616911
4.529671
4.456858
4.39658
4.347489
4.308687
4.279627
4.260029
4.249732
4.248685
4.256439
4.273886
4.300661
4.336792
4.382297
4.437179
4.501456
4.575215
4.658714
4.754186
4.864243
4.988809
5.126698
5.277106
5.439511
5.613489
5.798474
5.99351
6.19697
6.406273
6.617687
6.826454
7.027748
7.218928
7.402984
7.591532
7.805465
8.075611
8.441054
8.952008
9.693431
10.83238
12.75203
16.56671
27.16312
94.46535
87.06219
25.74874
14.10083
10.06211
8.183077
7.133638
6.468742
6.006702
5.66312
5.394165
5.176737
4.997653
4.848583
4.725291
4.623597
4.539394
4.469149
4.410967
4.363594
4.326186
4.298235
4.279477
4.269819
4.269272
4.277432
4.295266
4.322456
4.359095
4.405259
4.461
4.526349
4.60135
4.686143
4.782842
4.894199
5.020462
5.160539
5.313473
5.478532
5.655077
5.842336
6.039144
6.243651
6.453055
6.663427
6.869895
7.067663
7.254328
7.433334
7.616874
7.826308
8.092504
8.454765
8.963807
9.704305
10.84298
12.76234
16.57449
27.15144
94.3438
87.26934
26.17221
14.38545
10.22821
8.275977
7.182367
6.491097
6.013821
5.661891
5.389472
5.1715
4.993476
4.846539
4.724405
4.623092
4.539401
4.470771
4.414359
4.36863
4.332708
4.306083
4.288492
4.279853
4.280189
4.289341
4.308073
4.336249
4.374012
4.421493
4.478796
4.545995
4.623117
4.710114
4.808608
4.921592
5.050053
5.192801
5.34853
5.516346
5.695455
5.884895
6.083282
6.288545
6.497666
6.706554
6.910277
7.104147
7.286076
7.460018
7.638749
7.844077
8.106943
8.466771
8.974515
9.714572
10.85328
12.77247
16.58236
27.1477
94.18716
87.54712
26.62647
14.67789
10.39976
8.37453
7.236271
6.51746
6.023417
5.661683
5.384115
5.163939
4.985413
4.838766
4.717553
4.617382
4.534887
4.466846
4.411246
4.366383
4.33118
4.305146
4.288076
4.280193
4.281617
4.292438
4.312701
4.342527
4.382059
4.431487
4.490948
4.560547
4.640395
4.730727
4.832199
4.947209
5.077876
5.223409
5.382118
5.552823
5.734508
5.926012
6.125742
6.331417
6.539829
6.746757
6.94726
7.13683
7.313792
7.482699
7.656946
7.858749
8.119092
8.477441
8.984882
9.725655
10.86595
12.7873
16.59873
27.1571
94.09466
87.95908
27.02047
14.94737
10.56664
8.47346
7.291817
6.545266
6.033615
5.660975
5.37697
5.153262
4.972997
4.825621
4.70418
4.603849
4.521069
4.453065
4.397761
4.353671
4.319822
4.295542
4.280518
4.274497
4.277306
4.289469
4.311153
4.342598
4.384271
4.436181
4.498394
4.571021
4.654163
4.748015
4.852986
4.97115
5.104699
5.253109
5.414744
5.58826
5.772406
5.965779
6.166564
6.372277
6.579545
6.784059
6.980921
7.165867
7.337699
7.501612
7.671623
7.87031
8.128676
8.486123
8.993665
9.735346
10.8771
12.79994
16.61138
27.16077
93.98048
87.91898
27.3698
15.24664
10.74719
8.578345
7.350281
6.574415
6.043939
5.659229
5.367616
5.139241
4.956196
4.8072
4.684812
4.583901
4.500779
4.432717
4.377691
4.334222
4.301266
4.278151
4.264536
4.26022
4.265008
4.279459
4.303663
4.337916
4.382242
4.436966
4.502382
4.578517
4.665453
4.763264
4.872128
4.993883
5.130684
5.282159
5.446728
5.622928
5.809305
6.00423
6.205674
6.410969
6.616609
6.818239
7.011063
7.191119
7.357743
7.516812
7.682952
7.879051
8.136099
8.493401
9.001849
9.745423
10.89007
12.8169
16.63317
27.18368
93.91146
113.3187
28.46031
15.57481
10.92306
8.681761
7.408393
6.603116
6.053221
5.655637
5.355534
5.121627
4.93503
4.78379
4.660019
4.558305
4.474814
4.406762
4.352113
4.309388
4.277542
4.255857
4.243893
4.241468
4.248338
4.265184
4.292031
4.329106
4.37664
4.434865
4.503877
4.583873
4.674891
4.776961
4.89012
5.015862
5.156129
5.310695
5.47809
5.656755
5.845043
6.041118
6.242761
6.447149
6.650683
6.849007
7.037471
7.212464
7.373888
7.528311
7.69094
7.884913
8.14109
8.49869
9.008315
9.753813
10.90102
12.83085
16.64975
27.197
93.82072
114.2693
29.00521
15.85387
11.08773
8.782756
7.465648
6.63091
6.061059
5.649912
5.340607
5.100499
4.909778
4.755859
4.630429
4.527802
4.443977
4.376078
4.322019
4.280288
4.249809
4.229837
4.219898
4.219756
4.229034
4.248392
4.277875
4.317913
4.368734
4.430524
4.503426
4.587516
4.682844
4.789379
4.907022
5.0369
5.180715
5.338372
5.508469
5.689336
5.879167
6.075955
6.277324
6.48033
6.681321
6.875988
7.059876
7.229756
7.386113
7.536196
7.695764
7.887884
8.143941
8.502499
9.01394
9.762142
10.91311
12.84819
16.67462
27.23072
93.79167
114.4163
29.38132
16.11047
11.24381
8.879921
7.521312
6.657177
6.066914
5.641626
5.322568
5.075782
4.880562
4.72371
4.596497
4.49296
4.408913
4.341367
4.288159
4.247725
4.218947
4.201038
4.193481
4.195886
4.20822
4.230469
4.262802
4.305655
4.359587
4.424873
4.501605
4.589799
4.689428
4.800455
4.922922
5.057112
5.204155
5.364707
5.53742
5.720247
5.911235
6.108275
6.308896
6.510088
6.708189
6.898978
7.078211
7.243052
7.394555
7.540589
7.697077
7.88813
8.144316
8.504416
9.017858
9.768666
10.92294
12.86221
16.69394
27.25515
93.75973
114.3944
29.77235
16.38139
11.39704
8.97004
7.572512
6.680205
6.069823
5.630488
5.301509
5.047846
4.847976
4.688129
4.559173
4.454864
4.370819
4.303912
4.251881
4.213091
4.186361
4.170845
4.165983
4.171256
4.186712
4.212197
4.247814
4.293764
4.350625
4.419092
4.499379
4.591466
4.695248
4.810606
4.937477
5.075891
5.226555
5.389937
5.564797
5.749116
5.940828
6.137698
6.337159
6.536141
6.731012
6.91769
7.092229
7.252231
7.399313
7.5417
7.696528
7.886928
8.143633
8.504961
9.020853
9.774805
10.93324
12.87841
16.71932
27.29518
93.75799
114.5948
30.1957
16.66613
11.55215
9.058677
7.621518
6.700601
6.069785
5.616321
5.277449
5.016941
4.812491
4.649766
4.519239
4.414379
4.330603
4.26464
4.214119
4.177313
4.15296
4.140169
4.138278
4.146719
4.165499
4.194416
4.233494
4.28288
4.342848
4.414147
4.497533
4.593093
4.700683
4.820087
4.95108
5.093456
5.247569
5.413615
5.59036
5.775803
5.967804
6.164022
6.361832
6.558222
6.749688
6.932308
7.102321
7.257761
7.400498
7.540132
7.693204
7.883198
8.14088
8.504362
9.022501
9.779267
10.9413
12.89124
16.73909
27.32621
93.74814
114.8917
30.61991
16.94746
11.69703
9.135068
7.661623
6.715212
6.066272
5.59904
5.250531
4.983416
4.774625
4.609289
4.477486
4.372404
4.289245
4.224571
4.17589
4.141376
4.119709
4.10988
4.111129
4.122981
4.145181
4.1776
4.220214
4.273111
4.336476
4.410726
4.496745
4.595199
4.706077
4.829068
4.963801
5.109905
5.267342
5.435903
5.614298
5.800561
5.992522
6.187847
6.383921
6.577668
6.765492
6.943687
7.109075
7.259754
7.399276
7.53651
7.688462
7.878527
8.137285
8.502619
9.023093
9.78317
10.94944
12.90535
16.76287
27.36833
93.78683
115.1062
31.03966
17.24477
11.85367
9.217056
7.702636
6.728361
6.060024
5.579467
5.22168
4.9483
4.735509
4.5679
4.435157
4.330171
4.247925
4.184838
4.138299
4.106385
4.087625
4.080902
4.085415
4.100722
4.126476
4.162468
4.208631
4.265004
4.331724
4.409015
4.497576
4.598446
4.712011
4.838026
4.975999
5.125403
5.285826
5.456616
5.636373
5.823181
6.014868
6.20902
6.402901
6.59349
6.777544
6.951653
7.112367
7.259517
7.395709
7.530796
7.681918
7.872317
8.132402
8.499887
9.022941
9.785896
10.9557
12.91652
16.7822
27.40562
93.86806
115.5374
31.45759
17.52173
11.99049
9.284052
7.733317
6.734576
6.048883
5.556146
5.189946
4.910982
4.694763
4.525385
4.392168
4.287733
4.20686
4.145769
4.101681
4.072526
4.056744
4.053223
4.061123
4.079962
4.109297
4.148878
4.198586
4.258409
4.32844
4.40886
4.499937
4.602767
4.71842
4.846821
4.987408
5.139519
5.302437
5.475087
5.655869
5.842779
6.033566
6.225825
6.417038
6.604436
6.784897
6.95496
7.112354
7.255867
7.389096
7.522263
7.672789
7.863827
8.125646
8.495562
9.021277
9.787196
10.96096
12.92769
16.80339
27.44784
93.95996
115.6282
31.83289
17.81009
12.14289
9.359961
7.767933
6.741926
6.038346
5.533427
5.159031
4.874762
4.655403
4.484541
4.351117
4.247465
4.168136
4.109134
4.067517
4.041096
4.02831
4.027998
4.039309
4.061598
4.094409
4.13744
4.190518
4.253583
4.326676
4.409927
4.503593
4.608403
4.725608
4.855738
4.998255
5.152396
5.317253
5.491313
5.672638
5.859123
6.048594
6.238811
6.427373
6.611587
6.788436
6.954902
7.10844
7.24869
7.379638
7.511756
7.662387
7.85439
8.117934
8.490192
9.018497
9.787294
10.96491
12.93665
16.82137
27.48714
94.015
116.2844
32.21827
18.08343
12.27665
9.421098
7.792062
6.741843
6.021911
5.506254
5.125004
4.836651
4.615218
4.443756
4.310813
4.208424
4.130906
4.074157
4.035172
4.011746
4.002232
4.005297
4.020034
4.045746
4.081937
4.128271
4.184539
4.250647
4.3266
4.412449
4.508427
4.614978
4.733393
4.864732
5.008552
5.164058
5.330228
5.505171
5.686628
5.872416
6.060399
6.248424
6.434212
6.615249
6.788689
6.951681
7.101972
7.239454
7.36843
7.499635
7.650468
7.843637
8.109102
8.483685
9.01442
9.786085
10.96698
12.94384
16.83777
27.52798
94.04784
117.0691
32.69584
18.35283
12.41504
9.483573
7.815041
6.741393
6.005745
5.479828
5.092107
4.799976
4.576706
4.404822
4.272494
4.171486
4.095935
4.041618
4.005425
3.985035
3.978726
3.985076
4.00313
4.03214
4.071563
4.121019
4.180259
4.249149
4.327644
4.415849
4.513885
4.621997
4.741401
4.873493
5.01804
5.17432
5.341264
5.51665
5.69789
5.882678
6.068923
6.254613
6.437642
6.615615
6.785928
6.945857
7.093349
7.228566
7.3561
7.486894
7.638334
7.832964
8.100363
8.47693
9.009759
9.783741
10.96752
12.94806
16.848
27.54993
94.0721
94.67928
32.40826
18.55141
12.54271
9.540889
7.83493
6.739975
5.990171
5.45504
5.061594
4.76622
4.541493
4.369454
4.237934
4.138459
4.064997
4.013155
3.979702
3.962212
3.958894
3.968294
3.989398
4.021415
4.063761
4.116017
4.177903
4.249254
4.329988
4.420154
4.519864
4.629331
4.749563
4.882005
5.026801
5.183355
5.35058
5.525962
5.706618
5.890143
6.074498
6.257803
6.438075
6.61317
6.780575
6.937723
7.082743
7.216021
7.342403
7.473011
7.62521
7.8214
8.090831
8.469527
9.004664
9.781276
10.96817
12.95454
16.86434
27.59049
94.11807
94.636
32.58653
18.80651
12.68223
9.599877
7.853884
6.737999
5.974938
5.431479
5.033038
4.734991
4.50924
4.337363
4.206866
4.109038
4.03767
3.98824
3.957407
3.942789
3.94227
3.954516
3.978438
4.013205
4.058196
4.112965
4.177201
4.250653
4.333284
4.425084
4.526155
4.636692
4.757531
4.890145
5.034949
5.191441
5.358532
5.533489
5.713199
5.895184
6.077473
6.258294
6.435914
6.60827
6.772999
6.927669
7.070564
7.202266
7.327832
7.458506
7.611591
7.809325
8.080645
8.461216
8.998307
9.777137
10.96691
12.95623
16.87218
27.61677
94.18362
117.3597
33.49822
19.09645
12.82317
9.657277
7.871629
6.735832
5.960529
5.409607
5.006857
4.706655
4.480255
4.308796
4.179479
4.083375
4.014109
3.96704
3.938735
3.926799
3.928919
3.943798
3.970298
4.007553
4.054914
4.111889
4.178092
4.253372
4.33758
4.430699
4.532811
4.644109
4.765348
4.898007
5.042611
5.198748
5.365333
5.539457
5.71785
5.898017
6.07805
6.256403
6.431423
6.601203
6.763496
6.915984
7.057079
7.187528
7.312561
7.443515
7.597616
7.796957
8.070197
8.452692
8.991806
9.772927
10.9656
12.95936
16.88284
27.64396
94.25739
118.6595
34.00574
19.34753
12.95505
9.711677
7.888685
6.734604
5.948098
5.390475
4.983984
4.682029
4.455243
4.284347
4.156258
4.061846
3.994591
3.949744
3.923792
3.914257
3.918798
3.936058
3.964865
4.004319
4.053736
4.112548
4.180465
4.257217
4.34267
4.436801
4.53967
4.651447
4.77289
4.905465
5.049666
5.205128
5.370815
5.543719
5.720472
5.898577
6.076299
6.25217
6.424703
6.592108
6.75223
6.902841
7.042454
7.17195
7.296696
7.428084
7.583251
7.784156
8.059208
8.443454
8.984352
9.767439
10.96255
12.95995
16.89093
27.67495
94.37382
118.8761
34.19119
19.5407
13.07401
9.763197
7.905932
6.735017
5.93839
5.374789
4.965026
4.661612
4.434597
4.264319
4.137431
4.044621
3.979235
3.936429
3.912614
3.905224
3.911921
3.93128
3.962094
4.003437
4.054509
4.114897
4.184177
4.26209
4.348485
4.443313
4.54663
4.658602
4.78004
4.912385
5.056004
5.210549
5.375023
5.546373
5.721185
5.89709
6.07242
6.245865
6.416061
6.581311
6.739532
6.888559
7.026988
7.155804
7.280481
7.412445
7.568739
7.771209
8.048044
8.434023
8.976705
9.761784
10.95935
12.96002
16.89716
27.69581
94.48124
119.1383
34.41112
19.74009
13.19426
9.815379
7.924731
6.738159
5.932119
5.363137
4.950493
4.645825
4.418651
4.248959
4.123166
4.031795
3.968075
3.927073
3.905131
3.899604
3.908165
3.92933
3.961821
4.004586
4.057091
4.11871
4.189037
4.267793
4.354816
4.45005
4.553546
4.665465
4.786715
4.918698
5.061577
5.214988
5.377974
5.547477
5.720165
5.893724
6.066645
6.23775
6.405773
6.569087
6.725659
6.873369
7.010871
7.139232
7.264007
7.396634
7.554061
7.758037
8.036553
8.424128
8.968422
9.755302
10.95523
12.95978
16.90366
27.72189
94.56622
119.9284
34.73294
19.92969
13.3114
9.86809
7.946197
6.745371
5.930903
5.356473
4.940952
4.635029
4.40763
4.238393
4.113513
4.023361
3.961061
3.9216
3.901256
3.897311
3.907385
3.929835
3.963562
4.007658
4.061261
4.123803
4.194873
4.274182
4.361557
4.45694
4.560377
4.672026
4.792925
4.924405
5.066375
5.218486
5.379804
5.547267
5.717623
5.888739
6.059263
6.228131
6.394152
6.555743
6.7109
6.857531
6.994332
7.122432
7.247445
7.380809
7.539376
7.744816
8.024951
8.414054
8.959877
9.748418
10.95034
12.95766
16.90652
27.73658
94.61645
99.62221
34.32473
20.05897
13.4212
9.921373
7.970219
6.756036
5.933327
5.355143
4.936895
4.629515
4.401687
4.23274
4.108622
4.019525
3.958435
3.920221
3.901044
3.898031
3.90914
3.932822
3.967646
4.012627
4.066985
4.130137
4.20165
4.281225
4.368686
4.463971
4.567127
4.678326
4.798746
4.929592
5.070503
5.221167
5.380614
5.545821
5.7137
5.882326
6.050503
6.217259
6.381451
6.541518
6.695469
6.841227
6.977516
7.10551
7.230864
7.365004
7.52469
7.73153
8.013194
8.403728
8.950989
9.741129
10.9451
12.95559
16.91055
27.75659
94.6759
99.86056
34.48663
20.22501
13.53433
9.975671
7.99794
6.772034
5.941643
5.358128
4.937876
4.629794
4.401763
4.232795
4.108773
4.019897
3.959261
3.921705
3.903399
3.901552
3.913685
3.938178
3.973722
4.019297
4.074119
4.137586
4.209257
4.288828
4.37612
4.471069
4.573729
4.6845
4.804518
4.934375
5.07382
5.222984
5.380568
5.543368
5.708629
5.874729
6.040625
6.205403
6.367932
6.526655
6.679583
6.824644
6.960579
7.088592
7.214367
7.349308
7.510087
7.718263
8.001372
8.393248
8.941834
9.733405
10.93911
12.95204
16.91149
27.76903
94.74375
100.6484
34.79155
20.4121
13.65326
10.03803
8.02857
6.790094
5.954359
5.367145
4.94403
4.633938
4.404837
4.235649
4.112
4.023847
3.963927
3.927057
3.909479
3.908135
3.920798
3.945767
3.981703
4.027566
4.082556
4.146061
4.217634
4.296964
4.383873
4.478298
4.580298
4.690469
4.809839
4.938595
5.076809
5.224473
5.379701
5.539727
5.702337
5.866036
6.029816
6.192777
6.353802
6.51134
6.663399
6.807909
6.943617
7.071747
7.197997
7.333744
7.495579
7.705022
7.989494
8.382635
8.932484
9.725461
10.93296
12.94858
16.9126
27.78541
94.8319
101.4707
35.05546
20.5911
13.77323
10.10627
8.063528
6.812022
5.971659
5.381126
4.955657
4.644088
4.414077
4.244351
4.120435
4.032207
3.972419
3.935791
3.918537
3.917438
3.930321
3.955459
3.991491
4.037356
4.092242
4.155528
4.226762
4.305632
4.391961
4.485692
4.586886
4.696364
4.815045
4.942671
5.079306
5.224974
5.377807
5.535225
5.695266
5.856612
6.01834
6.179586
6.339231
6.495715
6.64704
6.791122
6.926708
7.055033
7.181798
7.318349
7.481196
7.691837
7.977588
8.371901
8.922905
9.717141
10.92623
12.94425
16.91297
27.79674
94.92738
102.1849
35.20947
20.7435
13.89111
10.17916
8.103093
6.838536
5.993873
5.400208
4.972437
4.659218
4.428042
4.257507
4.133049
4.044478
3.984498
3.947773
3.930459
3.929311
3.942118
3.967131
4.002971
4.048566
4.103089
4.165912
4.236579
4.314778
4.400333
4.493194
4.593627
4.702452
4.820211
4.946481
5.081343
5.224843
5.375174
5.529964
5.687481
5.84656
6.006347
6.165992
6.324376
6.479927
6.630628
6.774384
6.909933
7.038509
7.165811
7.303149
7.466962
7.67873
7.965682
8.361097
8.913193
9.70864
10.91928
12.9397
16.91309
27.80944
95.02184
103.0003
35.37124
20.89266
14.01225
10.25855
8.148621
6.870432
6.021271
5.424359
4.994165
4.679107
4.446528
4.274919
4.149638
4.060434
3.999956
3.962824
3.945089
3.943605
3.956051
3.980665
4.01605
4.061123
4.115048
4.177193
4.247097
4.324453
4.409089
4.500962
4.600572
4.708662
4.825318
4.95002
5.082893
5.224057
5.371842
5.524061
5.679152
5.836067
5.994014
6.152163
6.30939
6.464105
6.614274
6.757784
6.893357
7.022221
7.150067
7.288166
7.45289
7.665712
7.953783
8.350215
8.903311
9.699852
10.91187
12.93438
16.91186
27.81743
95.09388
103.6613
35.51054
21.03016
14.13465
10.34292
8.199005
6.907846
6.054395
5.45395
5.020981
4.70374
4.469431
4.296434
4.170022
4.079878
4.018598
3.980757
3.962304
3.960201
3.97201
3.995962
4.030646
4.074964
4.128073
4.189336
4.258293
4.334638
4.418205
4.509112
4.607911
4.715031
4.830316
4.953231
5.083964
5.222711
5.367943
5.517644
5.670396
5.825248
5.981459
6.138212
6.294375
6.448341
6.598055
6.741379
6.877022
7.006197
7.134581
7.273408
7.438987
7.652794
7.94191
8.339296
8.893338
9.690932
10.90431
12.92887
16.91022
27.826
95.15617
104.5818
35.67091
21.17906
14.2644
10.43559
8.258672
6.950252
6.090872
5.487741
5.052213
4.732713
4.496465
4.321815
4.193986
4.102608
4.040231
4.001386
3.981985
3.978991
3.989899
4.012941
4.046689
4.090035
4.14213
4.202332
4.270183
4.345379
4.427778
4.517697
4.61559
4.721493
4.835152
4.95609
5.08458
5.220882
5.36359
5.510844
5.66135
5.814238
5.968809
6.124258
6.27944
6.432729
6.582045
6.72523
6.860969
6.990462
7.119367
7.258881
7.425255
7.639971
7.930056
8.328322
8.883233
9.68179
10.89639
12.92279
16.90754
27.83189
95.22103
105.2744
35.87422
21.31721
14.39482
10.53533
8.327116
6.998247
6.131271
5.52552
5.087457
4.765624
4.527282
4.350769
4.22128
4.128411
4.064674
4.024564
4.003964
3.999833
4.009603
4.031507
4.064104
4.106277
4.15717
4.216141
4.282729
4.356636
4.437923
4.526873
4.623581
4.727962
4.839764
4.958593
5.084796
5.218669
5.358907
5.503792
5.652142
5.80316
5.956182
6.110407
6.264679
6.417347
6.566309
6.709382
6.845229
6.975033
7.104432
7.244585
7.411691
7.627247
7.918231
8.317319
8.873055
9.672545
10.88836
12.91663
16.90491
27.83847
95.29403
105.7175
35.89726
21.46106
14.53279
10.64384
8.403367
7.051619
6.176153
5.567574
5.126738
4.802344
4.561675
4.383062
4.251671
4.157066
4.091723
4.050107
4.028071
4.022578
4.030986
4.05154
4.082787
4.123602
4.173123
4.230708
4.2959
4.368557
4.448747
4.536486
4.631731
4.734347
4.844108
4.96075
5.084691
5.216196
5.354029
5.496617
5.642895
5.792132
5.943689
6.096763
6.25018
6.402269
6.550902
6.693873
6.829825
6.959918
7.089772
7.23051
7.398282
7.614605
7.906415
8.30626
8.862759
9.663112
10.88004
12.90997
16.90129
27.84238
95.35742
123.7649
36.51452
21.63406
14.67798
10.76022
8.488305
7.113252
6.225572
5.612426
5.169143
4.842249
4.599183
4.418324
4.284846
4.188296
4.12113
4.077787
4.054097
4.047033
4.053875
4.072886
4.102602
4.141889
4.189886
4.245975
4.309813
4.381234
4.460116
4.546381
4.639937
4.740623
4.848222