/*--------------------------------*- C++ -*----------------------------------*\
| =========                 |                                                 |
| \\      /  F ield         | OpenFOAM: The Open Source CFD Toolbox           |
|  \\    /   O peration     | Version:  2312                                  |
|   \\  /    A nd           | Website:  www.openfoam.com                      |
|    \\/     M anipulation  |                                                 |
\*---------------------------------------------------------------------------*/
FoamFile
{
    version     2.0;
    format      ascii;
    arch        "LSB;label=32;scalar=64";
    class       surfaceScalarField;
    location    "5850";
    object      phi;
}
// * * * * * * * * * * * * * * * * * * * * * * * * * * * * * * * * * * * * * //

dimensions      [1 0 -1 0 0 0 0];

oriented        oriented;

internalField   nonuniform List<scalar> 
23740
(
-0.0001094476
0.0001097659
-0.0002064694
9.7023e-05
-0.0003057324
9.926401e-05
-0.000405209
9.947772e-05
-0.0005041873
9.897923e-05
-0.0006087373
0.0001045508
-0.0007159602
0.0001072237
-0.0008118341
9.587456e-05
-0.0008910802
7.924675e-05
-0.0009678274
7.674773e-05
-0.001060769
9.294206e-05
-0.001146982
8.621296e-05
-0.001206554
5.957225e-05
-0.001255604
4.905112e-05
-0.001324876
6.927133e-05
-0.001402241
7.736505e-05
-0.001450904
4.866381e-05
-0.001476559
2.565466e-05
-0.00152
4.344068e-05
-0.001582122
6.212191e-05
-0.001622644
4.052197e-05
-0.001635489
1.284468e-05
-0.001657987
2.249769e-05
-0.001699736
4.174892e-05
-0.001730206
3.046932e-05
-0.001739332
9.126401e-06
-0.001748435
9.10267e-06
-0.001767068
1.863281e-05
-0.001782447
1.537819e-05
-0.001789122
6.675219e-06
-0.001791737
2.615034e-06
-0.001791255
-4.823569e-07
-0.001788014
-3.240998e-06
-0.001787031
-9.8234e-07
-0.00178602
-1.011284e-06
-0.001776942
-9.078052e-06
-0.001753469
-2.347341e-05
-0.001723219
-3.025042e-05
-0.001706195
-1.702346e-05
-0.001703886
-2.31019e-06
-0.001692585
-1.130142e-05
-0.001645991
-4.65942e-05
-0.001584931
-6.106146e-05
-0.001553071
-3.186119e-05
-0.00154899
-4.082725e-06
-0.00152265
-2.634157e-05
-0.001444696
-7.795576e-05
-0.001357421
-8.727684e-05
-0.001314641
-4.278201e-05
-0.001290043
-2.459984e-05
-0.001211822
-7.822325e-05
-0.001097089
-0.0001147342
-0.001011314
-8.577766e-05
-0.000937353
-7.396285e-05
-0.0008298923
-0.0001074626
-0.0006905205
-0.0001393737
-0.0005484956
-0.0001420271
-0.000382013
-0.0001664859
-0.0001940278
-0.0001879919
-0.0001940289
-0.0001037785
0.0002135461
-0.0002054487
0.0001986948
-0.000303428
0.0001972449
-0.0004005439
0.000196595
-0.0004933483
0.0001917849
-0.0005761581
0.0001873618
-0.0006507396
0.0001818062
-0.0007267265
0.0001718624
-0.0008069292
0.0001594503
-0.000881594
0.0001514132
-0.000933599
0.0001449476
-0.0009843373
0.0001369517
-0.001049629
0.0001248647
-0.001115646
0.0001150684
-0.001156541
0.0001101662
-0.001183577
0.0001044014
-0.001228288
9.337441e-05
-0.001285853
8.321948e-05
-0.00132061
7.819816e-05
-0.00133249
7.400133e-05
-0.001357482
6.551404e-05
-0.00140085
5.621197e-05
-0.001429336
5.098344e-05
-0.001435125
4.753758e-05
-0.001445839
4.118289e-05
-0.001470138
3.342501e-05
-0.001488791
2.775522e-05
-0.001493683
2.352453e-05
-0.001496755
1.845e-05
-0.001502672
1.259207e-05
-0.001506897
6.839876e-06
-0.001509348
1.967971e-06
-0.001509
-3.588218e-06
-0.001501215
-8.767778e-06
-0.001488003
-1.422349e-05
-0.001476383
-2.069771e-05
-0.001471911
-2.794627e-05
-0.001467951
-3.421011e-05
-0.00144631
-3.866579e-05
-0.001405508
-4.311307e-05
-0.001366845
-4.9965e-05
-0.001354325
-5.911587e-05
-0.001348414
-6.697429e-05
-0.001307885
-7.239208e-05
-0.001234326
-7.764375e-05
-0.001174715
-8.595496e-05
-0.001156174
-9.649908e-05
-0.001137587
-0.0001058668
-0.001066962
-0.0001134096
-0.0009693175
-0.0001222475
-0.0009143326
-0.0001332112
-0.000885394
-0.0001436756
-0.0008140399
-0.0001571345
-0.0007171365
-0.0001708693
-0.0006295672
-0.0001950348
-0.0005462557
-0.0002226883
-0.0004394856
-0.0002488009
-0.0003094182
-0.0002965574
-0.0001628906
-0.0003345252
-0.0003569203
-8.827649e-05
0.0003018246
-0.0001730151
0.0002834354
-0.0002536819
0.0002779136
-0.0003302878
0.0002732026
-0.0004037483
0.0002652468
-0.0004723988
0.0002560136
-0.0005370688
0.0002464774
-0.0005995136
0.0002343082
-0.0006621868
0.0002221242
-0.0007240977
0.0002133249
-0.0007795633
0.0002004137
-0.0008293911
0.0001867801
-0.0008769999
0.0001724738
-0.0009225388
0.0001606076
-0.0009625784
0.0001502059
-0.0009980151
0.0001398383
-0.001033487
0.0001288458
-0.001068627
0.00011836
-0.001099503
0.0001090733
-0.001125612
0.00010011
-0.001150774
9.06757e-05
-0.001175913
8.135104e-05
-0.001197869
7.293931e-05
-0.001215325
6.49928e-05
-0.001230836
5.669375e-05
-0.001245617
4.820594e-05
-0.001258007
4.014471e-05
-0.001266908
3.242533e-05
-0.001273086
2.462758e-05
-0.001277215
1.672069e-05
-0.001279179
8.804135e-06
-0.001279964
2.752857e-06
-0.001276912
-6.640066e-06
-0.001270797
-1.488309e-05
-0.001262046
-2.29746e-05
-0.001251363
-3.138075e-05
-0.00123919
-4.012014e-05
-0.001224518
-4.888241e-05
-0.001205759
-5.74254e-05
-0.001182831
-6.604181e-05
-0.001157501
-7.529616e-05
-0.001131252
-8.536561e-05
-0.001102566
-9.566176e-05
-0.001069196
-0.0001057644
-0.001030817
-0.000116024
-0.0009893908
-0.0001273835
-0.0009463174
-0.0001395746
-0.0009000749
-0.0001521117
-0.0008487314
-0.0001647555
-0.0007945823
-0.0001763989
-0.0007401823
-0.0001876137
-0.0006779927
-0.0002058676
-0.0006082754
-0.000226854
-0.0005315983
-0.0002475489
-0.0004488429
-0.0002777931
-0.0003675413
-0.000303993
-0.0002799327
-0.0003364131
-0.0001996088
-0.0003768856
-0.0001056447
-0.0004284944
-0.0004625656
-7.270045e-05
0.0003745271
-0.0001404975
0.0003512343
-0.0002053328
0.0003427507
-0.0002664547
0.000334326
-0.0003245921
0.0003233856
-0.0003792131
0.0003106358
-0.0004315102
0.0002987755
-0.0004823008
0.0002850996
-0.0005320626
0.0002718868
-0.0005753643
0.0002566272
-0.0006194902
0.0002445401
-0.0006634835
0.0002307738
-0.0007072469
0.0002162376
-0.0007474818
0.0002008427
-0.0007842
0.0001869242
-0.000819365
0.0001750034
-0.0008524485
0.0001619293
-0.0008834227
0.0001493341
-0.0009116161
0.0001372665
-0.0009371544
0.0001256481
-0.0009607739
0.000114295
-0.0009826045
0.0001031813
-0.001002039
9.237353e-05
-0.001018851
8.180485e-05
-0.001033498
7.133979e-05
-0.001046237
6.094454e-05
-0.001056757
5.066506e-05
-0.001064816
4.048402e-05
-0.001070529
3.03405e-05
-0.001074034
2.022513e-05
-0.00107639
1.116009e-05
-0.001075229
1.592114e-06
-0.001072297
-9.573011e-06
-0.001066994
-2.018562e-05
-0.001059338
-3.063079e-05
-0.001049399
-4.13203e-05
-0.001037316
-5.220312e-05
-0.001022939
-6.32601e-05
-0.001005868
-7.449628e-05
-0.0009859276
-8.598331e-05
-0.0009633954
-9.782906e-05
-0.0009386594
-0.0001101026
-0.0009115364
-0.0001227859
-0.0008813071
-0.0001359949
-0.0008491258
-0.0001482067
-0.0008136431
-0.0001628677
-0.0007751086
-0.0001781108
-0.0007340278
-0.0001931941
-0.0006909938
-0.0002077912
-0.0006436371
-0.0002237571
-0.0005886847
-0.0002425679
-0.0005270243
-0.00026753
-0.0004636327
-0.0002902477
-0.0003973007
-0.000313883
-0.0003358383
-0.0003392577
-0.0002720158
-0.0003678179
-0.0002064823
-0.0004019493
-0.0001395728
-0.0004437989
-7.216351e-05
-0.000495908
-0.0005347296
-5.849599e-05
0.0004330251
-0.000114917
0.0004076571
-0.0001682591
0.0003960943
-0.0002191547
0.0003852229
-0.000268325
0.000372557
-0.0003157946
0.0003581064
-0.0003601685
0.0003431503
-0.0004027032
0.000327635
-0.0004424438
0.0003116279
-0.0004803999
0.0002945838
-0.0005145902
0.0002787308
-0.0005476909
0.0002638748
-0.0005816262
0.0002501731
-0.0006159182
0.0002351348
-0.0006474968
0.0002185028
-0.0006769906
0.0002044972
-0.0007048829
0.0001898216
-0.0007309472
0.0001753983
-0.0007550417
0.0001613609
-0.0007771624
0.0001477687
-0.0007973851
0.0001345174
-0.0008157371
0.0001215332
-0.0008321476
0.0001087838
-0.0008465703
9.622728e-05
-0.0008590438
8.381307e-05
-0.0008696086
7.150913e-05
-0.0008782441
5.930025e-05
-0.0008849223
4.7162e-05
-0.0008896448
3.50628e-05
-0.0008923871
2.296728e-05
-0.0008931981
1.197087e-05
-0.0008911162
-4.899522e-07
-0.000887596
-1.309341e-05
-0.0008820837
-2.569808e-05
-0.0008754249
-3.728984e-05
-0.0008663482
-5.039723e-05
-0.0008550277
-6.352402e-05
-0.0008415269
-7.67613e-05
-0.0008258203
-9.020333e-05
-0.000807882
-0.0001039222
-0.000787723
-0.0001179887
-0.0007653636
-0.0001324628
-0.0007407512
-0.0001473991
-0.0007140147
-0.0001627323
-0.0006847973
-0.0001774251
-0.0006530569
-0.0001946092
-0.0006201747
-0.0002109942
-0.0005854198
-0.0002279502
-0.0005466422
-0.0002465701
-0.0005020874
-0.0002683133
-0.000453996
-0.0002906608
-0.0004081727
-0.0003133548
-0.0003618165
-0.0003366055
-0.0003140708
-0.0003616303
-0.0002641817
-0.0003891484
-0.0002121045
-0.000419897
-0.000159079
-0.0004549769
-0.0001064586
-0.0004964222
-5.44101e-05
-0.0005479602
-0.0005891401
-4.675695e-05
0.0004797838
-9.206852e-05
0.0004529702
-0.0001345292
0.0004385563
-0.0001748446
0.0004255394
-0.0002135514
0.0004112648
-0.0002510443
0.0003956002
-0.0002870212
0.0003791279
-0.0003215125
0.0003621269
-0.0003546933
0.0003448092
-0.000387389
0.0003272798
-0.0004186317
0.0003099739
-0.0004477551
0.0002929984
-0.0004738118
0.00027623
-0.0004998188
0.000261142
-0.0005267511
0.0002454351
-0.0005511188
0.0002288649
-0.0005738494
0.0002125521
-0.0005952423
0.0001967911
-0.0006152757
0.0001813942
-0.0006338234
0.0001663163
-0.0006508187
0.0001515126
-0.0006662255
0.0001369399
-0.0006800076
0.0001225658
-0.0006921404
0.0001083598
-0.0007026197
9.429219e-05
-0.0007114472
8.033647e-05
-0.000718617
6.646983e-05
-0.000724123
5.266774e-05
-0.0007279657
3.890528e-05
-0.0007301516
2.515301e-05
-0.0007296162
1.143522e-05
-0.0007286201
-1.486291e-06
-0.0007258914
-1.582236e-05
-0.0007214227
-3.016702e-05
-0.0007151612
-4.35516e-05
-0.0007070986
-5.846008e-05
-0.0006972833
-7.333971e-05
-0.0006856965
-8.834845e-05
-0.0006723217
-0.0001035786
-0.0006571461
-0.0001190983
-0.0006401729
-0.0001349625
-0.0006214193
-0.000151217
-0.0006009176
-0.0001679015
-0.000578619
-0.0001850316
-0.0005533204
-0.0002027246
-0.0005275951
-0.0002203354
-0.0004999179
-0.0002386723
-0.0004688245
-0.0002590446
-0.0004343165
-0.0002810792
-0.0003990345
-0.0003035963
-0.000363115
-0.0003265815
-0.0003260574
-0.0003504135
-0.0002872171
-0.0003754471
-0.0002467479
-0.0004021007
-0.0002051576
-0.00043074
-0.0001630604
-0.0004619957
-0.0001210879
-0.0004969512
-7.98624e-05
-0.0005376503
-4.029954e-05
-0.0005875262
-0.00062944
-3.741165e-05
0.000517197
-7.379514e-05
0.0004893551
-0.0001075593
0.0004723216
-0.0001393921
0.0004573733
-0.0001697812
0.0004416547
-0.0001990728
0.0004248925
-0.0002273304
0.0004073861
-0.0002546172
0.0003894143
-0.0002810219
0.0003712143
-0.000306703
0.0003529613
-0.0003315629
0.0003348341
-0.0003554719
0.0003169076
-0.0003784022
0.0002991604
-0.0003988779
0.0002816178
-0.0004189329
0.0002654902
-0.0004392837
0.0002492157
-0.0004588232
0.0002320916
-0.0004769257
0.0002148936
-0.0004936805
0.0001981489
-0.0005090976
0.0001817333
-0.0005231707
0.0001655856
-0.0005358894
0.0001496585
-0.0005472409
0.0001339171
-0.0005572133
0.0001183321
-0.0005657982
0.0001028769
-0.0005729875
8.752559e-05
-0.0005787703
7.22525e-05
-0.0005831335
5.703069e-05
-0.0005860599
4.183152e-05
-0.0005875297
2.662258e-05
-0.0005874787
1.138402e-05
-0.0005867802
-2.185066e-06
-0.0005846041
-1.799876e-05
-0.0005810281
-3.374329e-05
-0.0005750949
-4.948514e-05
-0.0005680753
-6.548002e-05
-0.0005597555
-8.165985e-05
-0.0005500285
-9.807579e-05
-0.0005388377
-0.0001147698
-0.0005261471
-0.0001317894
-0.0005119289
-0.0001491813
-0.0004961549
-0.0001669915
-0.0004787846
-0.0001852725
-0.0004597378
-0.0002040791
-0.0004396259
-0.0002228372
-0.0004175788
-0.0002423832
-0.0003925708
-0.0002636811
-0.0003660327
-0.0002855835
-0.0003390004
-0.0003081124
-0.0003112928
-0.0003313049
-0.0002825687
-0.0003553066
-0.0002527421
-0.0003802412
-0.0002219082
-0.000406282
-0.0001903178
-0.0004336922
-0.0001582083
-0.0004628507
-0.0001258556
-0.0004943498
-9.360479e-05
-0.0005292036
-6.190492e-05
-0.0005693524
-3.116979e-05
-0.0006182642
-0.0006606101
-2.969245e-05
0.0005468908
-5.84416e-05
0.0005181054
-8.470866e-05
0.0004985896
-0.0001092444
0.0004819098
-0.0001325979
0.0004650089
-0.000155126
0.0004474213
-0.0001770079
0.0004292684
-0.000198335
0.0004107419
-0.0002191427
0.0003920223
-0.0002394314
0.0003732504
-0.00025913
0.0003545329
-0.0002781528
0.0003359307
-0.000296463
0.0003174707
-0.000314017
0.0002991719
-0.0003296052
0.0002810785
-0.0003443092
0.0002639196
-0.0003592361
0.0002470185
-0.0003737637
0.0002294212
-0.0003873765
0.0002117616
-0.00039995
0.0001943067
-0.0004114418
0.0001770773
-0.0004218335
0.00016005
-0.0004311114
0.0001431949
-0.0004392671
0.0001264876
-0.0004462949
0.0001099046
-0.0004521924
9.342293e-05
-0.0004569592
7.701905e-05
-0.0004605964
6.066776e-05
-0.0004631073
4.434216e-05
-0.0004644978
2.801284e-05
-0.000464767
1.165301e-05
-0.0004637006
-3.251711e-06
-0.0004616362
-2.006342e-05
-0.0004584723
-3.690749e-05
-0.0004541213
-5.383647e-05
-0.0004486473
-7.09543e-05
-0.0004420219
-8.828567e-05
-0.000434221
-0.000105877
-0.0004252203
-0.000123771
-0.0004149996
-0.0001420104
-0.0004035453
-0.0001606361
-0.0003908599
-0.0001796775
-0.0003769006
-0.0001992323
-0.0003620683
-0.0002189119
-0.0003456793
-0.0002392268
-0.000327152
-0.0002609111
-0.0003077217
-0.0002831122
-0.000287427
-0.000305879
-0.000266249
-0.0003292911
-0.000244167
-0.0003533877
-0.0002212356
-0.0003782388
-0.0001975284
-0.0004039492
-0.0001731387
-0.0004306725
-0.0001481982
-0.0004586336
-0.0001228795
-0.0004881705
-9.740144e-05
-0.000519829
-7.204744e-05
-0.000554559
-4.72214e-05
-0.0005941805
-2.354564e-05
-0.0006419426
-0.000684156
-2.354987e-05
0.000570442
-4.587092e-05
0.0005404276
-6.58341e-05
0.0005185537
-8.427852e-05
0.000500355
-0.0001017519
0.0004824829
-0.0001186017
0.0004642716
-0.0001350297
0.0004456969
-0.000151143
0.0004268556
-0.0001669775
0.0004078571
-0.0001825196
0.0003887927
-0.0001977214
0.0003697349
-0.0002125234
0.0003507328
-0.0002268681
0.0003318155
-0.0002406963
0.0003130001
-0.0002539119
0.0002942941
-0.000265724
0.0002757318
-0.0002765872
0.0002578816
-0.0002874083
0.0002402423
-0.0002977704
0.0002221236
-0.0003074637
0.0002039999
-0.0003163854
0.0001859989
-0.0003244983
0.0001681629
-0.0003317755
0.0001504719
-0.0003381995
0.0001329116
-0.0003437601
0.0001154649
-0.0003484514
9.81141e-05
-0.0003522722
8.083964e-05
-0.0003552234
6.361878e-05
-0.0003573077
4.642627e-05
-0.0003585293
2.923417e-05
-0.0003588899
1.201347e-05
-0.0003580987
-4.043166e-06
-0.0003565496
-2.161282e-05
-0.0003541841
-3.92733e-05
-0.000350951
-5.706979e-05
-0.0003468512
-7.505443e-05
-0.0003418657
-9.327151e-05
-0.0003359759
-0.0001117672
-0.0003291618
-0.0001305854
-0.0003214053
-0.0001497674
-0.0003126945
-0.0001693473
-0.000303002
-0.0001893703
-0.0002925034
-0.0002097314
-0.0002807569
-0.0002306589
-0.0002673235
-0.0002526607
-0.0002530697
-0.0002751655
-0.0002379883
-0.0002981942
-0.0002220857
-0.0003217822
-0.0002054163
-0.0003459612
-0.0001880335
-0.0003707711
-0.0001700041
-0.0003962689
-0.0001514132
-0.0004225408
-0.0001323693
-0.0004497172
-0.0001130063
-0.0004779975
-9.348052e-05
-0.0005076972
-7.397313e-05
-0.0005393374
-5.469745e-05
-0.0005738359
-3.592e-05
-0.0006129597
-1.796257e-05
-0.0006599023
-0.0007021189
-1.826035e-05
0.0005887035
-3.513674e-05
0.000557305
-4.986915e-05
0.000533287
-6.325185e-05
0.0005137384
-7.586978e-05
0.0004951014
-8.807239e-05
0.0004764747
-0.000100029
0.0004576539
-0.0001118028
0.0004386297
-0.0001234062
0.0004194607
-0.0001348264
0.0004002131
-0.0001460311
0.0003809397
-0.0001569776
0.0003616794
-0.0001676209
0.0003424588
-0.0001779168
0.0003232961
-0.0001878259
0.0003042032
-0.0001972746
0.0002851805
-0.0002056545
0.0002662615
-0.0002133713
0.000247959
-0.000221031
0.0002297833
-0.0002283323
0.0002113011
-0.0002351163
0.0001927828
-0.0002413378
0.0001743842
-0.0002469463
0.0001560803
-0.0002519179
0.0001378831
-0.0002562423
0.0001197892
-0.0002599163
0.0001017879
-0.0002629414
8.38646e-05
-0.0002653218
6.599897e-05
-0.0002670624
4.81667e-05
-0.0002681683
3.033988e-05
-0.000268643
1.248791e-05
-0.0002681928
-4.493543e-06
-0.0002671942
-2.261168e-05
-0.0002656193
-4.084845e-05
-0.0002634435
-5.924591e-05
-0.0002606489
-7.784928e-05
-0.0002572163
-9.670441e-05
-0.0002531252
-0.0001158587
-0.0002483509
-0.00013536
-0.0002428625
-0.0001552561
-0.0002366154
-0.0001755949
-0.0002295727
-0.0001964133
-0.0002215034
-0.0002178012
-0.0002121891
-0.0002399736
-0.000202205
-0.0002626452
-0.0001915399
-0.0002858311
-0.0001801828
-0.0003095518
-0.0001681498
-0.0003338157
-0.0001554792
-0.0003586322
-0.0001422286
-0.0003840223
-0.0001284711
-0.0004100271
-0.0001142941
-0.0004367184
-9.979737e-05
-0.0004642146
-8.508783e-05
-0.0004927077
-7.027941e-05
-0.0005225064
-5.549738e-05
-0.0005541204
-4.089122e-05
-0.0005884431
-2.667222e-05
-0.0006271803
-1.319353e-05
-0.0006733831
-0.0007153126
-1.384306e-05
0.0006025478
-2.621539e-05
0.0005696784
-3.658361e-05
0.000543656
-4.578392e-05
0.0005229394
-5.431289e-05
0.0005036309
-6.241593e-05
0.0004845781
-7.026546e-05
0.0004655037
-7.802599e-05
0.0004463904
-8.579649e-05
0.0004272313
-9.357747e-05
0.0004079942
-0.0001013367
0.000388699
-0.0001090275
0.0003693702
-0.0001165996
0.0003500309
-0.0001240045
0.0003307011
-0.0001312002
0.0003113988
-0.0001381586
0.0002921388
-0.000144823
0.0002729259
-0.0001506287
0.0002537647
-0.0001558803
0.0002350348
-0.000161075
0.0002164958
-0.0001660819
0.0001977896
-0.0001706666
0.0001789689
-0.0001747947
0.0001602082
-0.0001784582
0.0001415465
-0.0001816683
0.0001229991
-0.0001844302
0.0001045497
-0.000186751
8.618522e-05
-0.0001886368
6.788458e-05
-0.0001900918
4.96215e-05
-0.0001911191
3.136699e-05
-0.0001917201
1.308879e-05
-0.0001916219
-4.592028e-06
-0.000191146
-2.308781e-05
-0.0001902723
-4.172234e-05
-0.0001889798
-6.053864e-05
-0.0001872473
-7.958208e-05
-0.0001850518
-9.89002e-05
-0.0001823683
-0.0001185425
-0.0001791684
-0.0001385602
-0.0001754188
-0.000159006
-0.0001710794
-0.0001799346
-0.0001660944
-0.0002013986
-0.0001604026
-0.0002234934
-0.0001542118
-0.0002461648
-0.0001474334
-0.0002694241
-0.0001400045
-0.0002932605
-0.0001319179
-0.0003176388
-0.0001231983
-0.0003425358
-0.0001139042
-0.0003679269
-0.0001041119
-0.0003938151
-9.390907e-05
-0.0004202305
-8.339009e-05
-0.000447238
-7.265188e-05
-0.0004749534
-6.179211e-05
-0.0005035681
-5.091029e-05
-0.0005333889
-4.011202e-05
-0.0005649194
-2.95159e-05
-0.0005990402
-1.927002e-05
-0.0006374276
-9.579814e-06
-0.0006830752
-0.0007248927
-1.06716e-05
0.0006132205
-1.954088e-05
0.0005785487
-2.645165e-05
0.0005505676
-3.231983e-05
0.0005288082
-3.756002e-05
0.0005088715
-4.243824e-05
0.0004894567
-4.717648e-05
0.0004702422
-5.190034e-05
0.0004511144
-5.66712e-05
0.0004320023
-6.148494e-05
0.000412808
-6.633186e-05
0.0003935459
-7.118891e-05
0.0003742273
-7.603251e-05
0.0003548745
-8.084367e-05
0.0003355122
-8.562259e-05
0.0003161777
-9.035301e-05
0.0002968692
-9.497958e-05
0.0002775524
-9.943489e-05
0.00025822
-0.0001032989
0.0002388987
-0.0001065578
0.0002197546
-0.0001095279
0.0002007596
-0.0001123285
0.0001817694
-0.0001149264
0.0001628061
-0.00011729
0.00014391
-0.0001194078
0.0001251168
-0.0001212742
0.0001064159
-0.0001228946
8.780549e-05
-0.0001242751
6.926491e-05
-0.0001254198
5.07661e-05
-0.0001263335
3.228049e-05
-0.000127021
1.37761e-05
-0.0001272405
-4.372753e-06
-0.0001272552
-2.307324e-05
-0.0001270444
-4.193339e-05
-0.0001265852
-6.099806e-05
-0.0001258521
-8.031543e-05
-0.0001248182
-9.99343e-05
-0.0001234558
-0.0001199052
-0.0001217361
-0.0001402802
-0.0001196309
-0.0001611116
-0.0001171186
-0.0001824472
-0.0001141784
-0.0002043392
-0.0001109166
-0.0002267554
-0.0001072551
-0.0002498266
-0.0001030487
-0.0002736309
-9.825907e-05
-0.0002980504
-9.282732e-05
-0.000323071
-8.678296e-05
-0.0003485805
-8.022153e-05
-0.0003744887
-7.325368e-05
-0.0004007834
-6.59827e-05
-0.0004275019
-5.849918e-05
-0.000454722
-5.08822e-05
-0.000482571
-4.320386e-05
-0.0005112471
-3.553241e-05
-0.000541061
-2.793534e-05
-0.0005725172
-2.048595e-05
-0.0006064905
-1.328462e-05
-0.0006446303
-6.515608e-06
-0.0006898459
-0.0007314085
-7.483322e-06
0.000620705
-1.308785e-05
0.0005841542
-1.668954e-05
0.0005541701
-1.889598e-05
0.0005310152
-2.061743e-05
0.0005105934
-2.250258e-05
0.0004913421
-2.466978e-05
0.0004724095
-2.694607e-05
0.0004533908
-2.916453e-05
0.0004342208
-3.140553e-05
0.000415049
-3.370415e-05
0.0003958445
-3.609416e-05
0.0003766172
-3.859395e-05
0.0003573742
-4.118944e-05
0.0003381076
-4.384058e-05
0.0003188287
-4.650777e-05
0.0002995363
-4.909051e-05
0.0002801351
-5.147822e-05
0.0002606076
-5.363123e-05
0.0002410516
-5.546514e-05
0.0002215884
-5.710345e-05
0.0002023978
-5.878514e-05
0.000183451
-6.055564e-05
0.0001645765
-6.233318e-05
0.0001456874
-6.400652e-05
0.00012679
-6.557044e-05
0.0001079797
-6.704731e-05
8.928222e-05
-6.844788e-05
7.066534e-05
-6.975751e-05
5.207558e-05
-7.096622e-05
3.348904e-05
-7.207502e-05
1.488473e-05
-7.288616e-05
-3.561785e-06
-7.36213e-05
-2.233828e-05
-7.426001e-05
-4.129486e-05
-7.478146e-05
-6.047682e-05
-7.516381e-05
-7.993329e-05
-7.53859e-05
-9.971244e-05
-7.542574e-05
-0.0001198656
-7.525719e-05
-0.000140449
-7.48474e-05
-0.0001615216
-7.41543e-05
-0.0001831405
-7.314402e-05
-0.0002053497
-7.168769e-05
-0.0002282121
-6.978075e-05
-0.0002517338
-6.751803e-05
-0.0002758939
-6.468273e-05
-0.000300886
-6.12015e-05
-0.0003265525
-5.719854e-05
-0.0003525839
-5.281541e-05
-0.0003788722
-4.813971e-05
-0.0004054595
-4.326391e-05
-0.0004323781
-3.826253e-05
-0.0004597238
-3.319425e-05
-0.0004876397
-2.81091e-05
-0.0005163327
-2.305359e-05
-0.0005461171
-1.807456e-05
-0.0005774969
-1.322453e-05
-0.0006113413
-8.57325e-06
-0.0006492827
-4.232967e-06
-0.0006941877
-0.0007356416
-4.926256e-06
0.0006256324
-7.452449e-06
0.0005866815
-7.87846e-06
0.000554597
-7.531734e-06
0.0005306691
-6.799587e-06
0.0005098616
-5.7198e-06
0.0004902626
-4.458576e-06
0.0004711484
-3.315178e-06
0.0004522474
-2.527311e-06
0.0004334329
-2.090616e-06
0.0004146122
-2.026932e-06
0.0003957807
-2.34936e-06
0.0003769395
-3.064404e-06
0.0003580891
-4.189081e-06
0.0003392322
-5.611099e-06
0.0003202507
-7.184091e-06
0.0003011092
-8.846401e-06
0.0002817973
-1.051198e-05
0.0002622731
-1.211313e-05
0.0002426527
-1.358615e-05
0.0002230613
-1.478507e-05
0.0002035966
-1.571698e-05
0.0001843827
-1.655074e-05
0.0001654101
-1.744368e-05
0.0001465803
-1.847245e-05
0.0001278186
-1.961234e-05
0.0001091194
-2.083875e-05
9.05085e-05
-2.212784e-05
7.19543e-05
-2.346024e-05
5.340784e-05
-2.482933e-05
3.485799e-05
-2.624088e-05
1.629613e-05
-2.7561e-05
-2.241817e-06
-2.895995e-05
-2.093949e-05
-3.038215e-05
-3.987283e-05
-3.178752e-05
-5.907162e-05
-3.315302e-05
-7.856797e-05
-3.446374e-05
-9.840192e-05
-3.571343e-05
-0.0001186161
-3.689227e-05
-0.0001392703
-3.797641e-05
-0.0001604377
-3.892727e-05
-0.0001821899
-3.967375e-05
-0.0002046035
-4.011766e-05
-0.0002277684
-4.01089e-05
-0.0002517429
-3.941343e-05
-0.0002765896
-3.807856e-05
-0.0003022212
-3.624681e-05
-0.0003283846
-3.393071e-05
-0.0003549003
-3.122195e-05
-0.0003815813
-2.833353e-05
-0.0004083482
-2.540289e-05
-0.0004353092
-2.243766e-05
-0.0004626895
-1.945094e-05
-0.0004906269
-1.645985e-05
-0.0005193243
-1.348376e-05
-0.0005490937
-1.054665e-05
-0.0005804346
-7.680979e-06
-0.0006142077
-4.93409e-06
-0.0006520306
-2.393724e-06
-0.0006967295
-0.0007380355
-3.535052e-06
0.0006291686
-4.579378e-06
0.0005877269
-3.855398e-06
0.0005538737
-2.248758e-06
0.0005290629
-5.337743e-08
0.0005076665
2.474313e-06
0.0004877351
5.111506e-06
0.0004685113
7.734683e-06
0.0004496242
1.029568e-05
0.0004308718
1.274911e-05
0.0004121587
1.506596e-05
0.0003934638
1.721139e-05
0.000374794
1.912222e-05
0.0003561782
2.066839e-05
0.0003376859
2.164534e-05
0.0003192736
2.203671e-05
0.0003007177
2.196145e-05
0.0002818724
2.147019e-05
0.0002627642
2.072252e-05
0.0002434002
1.983033e-05
0.0002239534
1.885985e-05
0.000204567
1.793816e-05
0.0001853043
1.712487e-05
0.0001662233
1.637655e-05
0.0001473284
1.560802e-05
0.000128587
1.477143e-05
0.0001099559
1.386991e-05
9.140988e-05
1.290408e-05
7.292e-05
1.185468e-05
5.445711e-05
1.069967e-05
3.601286e-05
9.397891e-06
1.759777e-05
7.952316e-06
-7.963859e-07
6.223441e-06
-1.921077e-05
4.325619e-06
-3.797516e-05
2.316432e-06
-5.70626e-05
2.311112e-07
-7.648282e-05
-1.908697e-06
-9.626229e-05
-4.086207e-06
-0.0001164388
-6.284461e-06
-0.0001370723
-8.480443e-06
-0.0001582419
-1.063976e-05
-0.0001800308
-1.271004e-05
-0.0002025334
-1.461459e-05
-0.0002258641
-1.621475e-05
-0.000250143
-1.73892e-05
-0.0002754155
-1.80032e-05
-0.0003016075
-1.786452e-05
-0.0003285236
-1.697783e-05
-0.0003557873
-1.558158e-05
-0.0003829779
-1.403341e-05
-0.0004098967
-1.248378e-05
-0.0004368591
-1.094294e-05
-0.0004642307
-9.412448e-06
-0.0004921577
-7.894309e-06
-0.0005208428
-6.397874e-06
-0.0005505906
-4.940755e-06
-0.0005818922
-3.550292e-06
-0.0006155987
-2.264817e-06
-0.000653317
-1.131911e-06
-0.0006978636
-0.0007391675
-2.435893e-06
0.000631606
-2.185994e-06
0.0005874782
-2.358096e-07
0.0005519242
3.013129e-06
0.0005258145
6.874881e-06
0.0005038051
1.09936e-05
0.0004836165
1.51891e-05
0.0004643158
1.935621e-05
0.0004454571
2.340425e-05
0.0004268236
2.725167e-05
0.0004083111
3.082753e-05
0.0003898877
3.405845e-05
0.0003715629
3.685697e-05
0.0003533795
3.915248e-05
0.0003353902
4.103802e-05
0.0003173879
4.268136e-05
0.0002990742
4.414797e-05
0.0002804057
4.545178e-05
0.0002614602
4.641853e-05
0.0002424333
4.69222e-05
0.0002234496
4.701154e-05
0.0002044775
4.677828e-05
0.0001855374
4.634498e-05
0.0001666564
4.576845e-05
0.0001479049
4.5056e-05
0.0001292993
4.418888e-05
0.0001108229
4.315393e-05
9.244471e-05
4.194708e-05
7.412672e-05
4.056951e-05
5.583455e-05
3.902934e-05
3.75529e-05
3.733208e-05
1.92949e-05
3.543208e-05
1.103478e-06
3.31664e-05
-1.694522e-05
3.063739e-05
-3.54463e-05
2.791375e-05
-5.433911e-05
2.504332e-05
-7.361254e-05
2.206263e-05
-9.328176e-05
1.900822e-05
-0.0001133845
1.591648e-05
-0.0001339807
1.2824e-05
-0.0001551496
9.777084e-06
-0.0001769841
6.831814e-06
-0.0001995884
4.041654e-06
-0.0002230742
1.446597e-06
-0.0002475481
-8.831939e-07
-0.0002730859
-2.810258e-06
-0.0002996807
-4.194487e-06
-0.0003271396
-4.920559e-06
-0.0003550615
-4.98375e-06
-0.000382915
-4.554483e-06
-0.0004103263
-3.946708e-06
-0.0004374672
-3.355706e-06
-0.000464822
-2.781308e-06
-0.0004927325
-2.231162e-06
-0.0005213933
-1.711881e-06
-0.0005511102
-1.231281e-06
-0.0005823732
-7.999706e-07
-0.0006160305
-4.350739e-07
-0.0006536826
-1.653719e-07
-0.0006981341
-0.000739333
-1.569179e-06
0.0006331763
-4.025813e-07
0.0005863125
2.988781e-06
0.0005485336
7.518906e-06
0.0005212848
1.265943e-05
0.0004986648
1.80791e-05
0.0004781969
2.356823e-05
0.0004588267
2.897715e-05
0.000440048
3.418948e-05
0.0004216111
3.91057e-05
0.0004033946
4.364215e-05
0.000385351
4.773156e-05
0.0003674732
5.133468e-05
0.0003497761
5.44773e-05
0.0003322473
5.723745e-05
0.0003146275
5.966288e-05
0.0002966485
6.175545e-05
0.0002783129
6.347221e-05
0.0002597433
6.482465e-05
0.0002410807
6.590486e-05
0.0002223692
6.667725e-05
0.000203705
6.710887e-05
0.0001851057
6.71771e-05
0.0001665881
6.688545e-05
0.0001481964
6.625019e-05
0.0001299345
6.529096e-05
0.000111782
6.402954e-05
9.3706e-05
6.248754e-05
7.56686e-05
6.068677e-05
5.763519e-05
5.86526e-05
3.958694e-05
5.640768e-05
2.15397e-05
5.393793e-05
3.573099e-06
5.113257e-05
-1.414e-05
4.802522e-05
-3.233909e-05
4.468765e-05
-5.100169e-05
4.118826e-05
-7.01133e-05
3.758086e-05
-8.967452e-05
3.391097e-05
-0.0001097148
3.022197e-05
-0.0001302919
2.655887e-05
-0.0001514867
2.297184e-05
-0.0001733973
1.951815e-05
-0.0001961349
1.626116e-05
-0.0002198174
1.326467e-05
-0.0002445519
1.057934e-05
-0.0002704008
8.232034e-06
-0.0002973336
6.262752e-06
-0.0003251706
4.742207e-06
-0.0003535412
3.721006e-06
-0.0003818941
3.107283e-06
-0.0004097128
2.66047e-06
-0.0004370207
2.250725e-06
-0.0004644125
1.880268e-06
-0.0004923623
1.549688e-06
-0.0005210631
1.252211e-06
-0.0005508131
9.777875e-07
-0.0005820992
7.149606e-07
-0.0006157682
4.517761e-07
-0.0006534203
1.87185e-07
-0.0006978709
-0.000739146
-1.068915e-06
0.0006342463
8.360307e-07
0.0005844085
4.99517e-06
0.0005443751
1.037265e-05
0.0005159078
1.639713e-05
0.0004926406
2.272122e-05
0.0004718729
2.91206e-05
0.0004524272
3.543381e-05
0.0004337347
4.153859e-05
0.0004155061
4.733877e-05
0.0003975942
5.276069e-05
0.0003799288
5.775187e-05
0.0003624818
6.228175e-05
0.000345246
6.635148e-05
0.0003281773
6.995448e-05
0.0003110243
7.306074e-05
0.0002935421
7.565285e-05
0.0002757206
7.775204e-05
0.0002576439
7.942335e-05
0.0002394092
8.067936e-05
0.0002211131
8.154667e-05
0.0002028375
8.202575e-05
0.0001846265
8.206831e-05
0.0001665454
8.1675e-05
0.0001485896
8.086422e-05
0.0001307451
7.966042e-05
0.0001129857
7.809019e-05
9.527611e-05
7.618177e-05
7.757691e-05
7.396437e-05
5.985248e-05
7.146739e-05
4.20838e-05
6.872094e-05
2.428603e-05
6.576279e-05
6.531134e-06
6.266366e-05
-1.1041e-05
5.913949e-05
-2.881504e-05
5.537475e-05
-4.723708e-05
5.146998e-05
-6.620866e-05
4.748668e-05
-8.569137e-05
4.347428e-05
-0.0001057025
3.947944e-05
-0.0001262972
3.554869e-05
-0.0001475561
3.172951e-05
-0.0001695783
2.807007e-05
-0.0001924756
2.461762e-05
-0.0002163651
2.141844e-05
-0.0002413529
1.852074e-05
-0.0002675034
1.597537e-05
-0.0002947885
1.382636e-05
-0.0003230218
1.209225e-05
-0.0003518073
1.076522e-05
-0.0003805673
9.79152e-06
-0.0004087394
8.961e-06
-0.0004361904
8.112645e-06
-0.0004635644
7.249052e-06
-0.000491499
6.36613e-06
-0.0005201804
5.454956e-06
-0.0005499023
4.503045e-06
-0.0005811477
3.493711e-06
-0.0006147593
2.403688e-06
-0.0006523309
1.211664e-06
-0.0006966798
-0.0007379344
-7.581388e-07
0.0006350055
1.71142e-06
0.0005819398
6.375477e-06
0.0005397117
1.229419e-05
0.0005099895
1.889449e-05
0.0004860405
2.581487e-05
0.0004649525
3.281566e-05
0.0004454263
3.972523e-05
0.0004268249