/*--------------------------------*- C++ -*----------------------------------*\
| =========                 |                                                 |
| \\      /  F ield         | OpenFOAM: The Open Source CFD Toolbox           |
|  \\    /   O peration     | Version:  2312                                  |
|   \\  /    A nd           | Website:  www.openfoam.com                      |
|    \\/     M anipulation  |                                                 |
\*---------------------------------------------------------------------------*/
FoamFile
{
    version     2.0;
    format      ascii;
    arch        "LSB;label=32;scalar=64";
    class       volScalarField;
    location    "5850";
    object      qr;
}
// * * * * * * * * * * * * * * * * * * * * * * * * * * * * * * * * * * * * * //

dimensions      [1 0 -3 0 0 0 0];

internalField   uniform 0;

boundaryField
{
    plate
    {
        type            calculated;
        value           nonuniform List<scalar> 
200
(
-10030.87
-10172.5
-10252
-10251.74
-10196.84
-10152.24
-10148
-10184.86
-10241.31
378.8999
368.8872
-10358.02
335.2176
310.4615
291.9907
282.3604
280.7235
288.5615
310.5178
344.9706
379.2999
398.7493
397.0186
382.3752
362.3385
360.7911
-10440.95
-10413.3
-10389.19
-10363.27
-10328.74
-10293.24
-10260.44
-10228.64
-10193.48
-10168.74
-10158.25
171.9032
154.1833
-10056.67
-9992.924
-9935.574
-9893.19
-9863.148
-70.33015
-129.2626
-186.867
-237.017
-281.2481
-323.1527
-368.7503
-414.2786
-450.715
-470.8283
-9200.431
-9108.836
-9047.363
-9005.826
-8965.323
-8919.941
-951.8829
-995.6819
-8640.228
-8526.412
-8419.083
-8338.26
-8284.298
-1342.044
-1421.772
-8092.021
-8026.331
-1676.31
-1735.515
-1769.286
-1802.767
-1866.18
-1957.865
-2053.293
-7213.783
-7175.624
-7118.948
-7003.573
-6810.43
-6596.113
-6482.867
-6477.542
-6445.958
-6338.149
-6052.911
-3461.145
-3581.236
-3763.938
-4207.403
-5198.539
-5338.154
-5094.791
-4558.12
-4171.046
-4020.313
-3974.511
-3979.063
-3998.131
-4009.905
-4016.466
-4044.191
-4130.212
-4306.777
-4575.229
-4862.314
-5055.533
-5108.752
-5042.185
-4915.372
-4807.984
-4778.309
-4835.845
-4946.914
-5058.794
-5130.151
-5147.322
-5119.103
-5065.68
-5004.859
-4944.094
-4879.509
-4804.965
-4721.53
-4641.819
-4585.528
-4569.544
-4601.032
-4673.257
-4767.834
-4860.689
-4932.113
-4972.355
-4980.56
-4959.624
-4912.467
-4840.934
-4749.629
-4648.503
-4554.888
-4488.731
-4464.929
-4489.29
-4556.21
-4650.135
-4748.71
-4831.221
-4886.045
-4912.857
-4918.36
-4909.978
-4891.864
-4865.865
-4835.047
-4805.991
-4790.292
-4799.428
-4836.103
-4889.838
-4939.332
-4965.708
-4959.336
-4927.654
-4886.507
-4858.569
-4856.959
-4876.622
-4886.626
-4854.381
-4769.32
-4659.953
-4578.498
-4573.099
-4677.797
-4878.024
-5092.442
-5218.948
-5200.422
-5082.184
-4940.437
-4844.897
-4818.892
-4858.885
-4964.367
-5180.989
-5428.245
-5691.038
-5750.827
-5881.657
-6174.949
-2825.612
-8010.879
-993.2028
-10228.98
941.1033
1176.469
1224.977
)
;
    }
    riser
    {
        type            calculated;
        value           nonuniform List<scalar> 
200
(
3390.926
3246.458
3208.65
3215.552
3261.141
3321.484
3402.622
3408.987
3231.663
3078.848
3225.745
3460.152
3434.425
3302.165
3378.134
3583.985
3662.824
3565.534
3429.039
3389.047
3506.071
3764.995
4051.911
4219.103
4264.818
4302.764
4302.854
4152.477
3983.557
4060.406
4342.32
4492.791
4349.009
4172.267
4330.044
4783.614
5139.553
5231.646
5205.738
5038.849
4616.101
4208.424
4190.271
4478.06
4738.721
4817.736
4710.95
4470.686
4257.156
4218.286
4291.275
4293.492
4206.616
4159.854
4120.785
3959.258
3823.616
4029.462
4531.28
4918.511
4982.339
4857.254
4634.349
4337.951
4182.454
4319.91
4554.36
4708.249
4870.253
5020.678
4953.868
4733.237
4669.561
4795.339
4822.116
4595.893
4295.892
4152.948
4143.291
4098.689
4014.539
4036.805
4202.551
4377.637
4432.669
4375.855
4308.245
4291.756
4312.267
4349.545
4400.273
4438.886
4434.308
4398.871
4375.72
4393.498
4445.875
4498.701
4514.704
4475.692
4388.567
4274.771
4157.093
4056.531
3993.521
3983.47
4027.903
4110.974
4207.157
4295.105
4366.236
4421.855
4464.084
4490.218
4494.202
4471.992
4426.017
4366.009
4305.989
4259.004
4232.258
4225.066
4230.429
4239.073
4243.821
4242.271
4236.822
4232.434
4233.687
4242.822
4259.537
4282.026
4308.178
4336.203
4364.565
4391.576
4415.116
4432.81
4442.672
4443.866
4437.177
4424.904
4410.17
4395.901
4383.954
4374.757
4367.508
4360.726
4352.994
4343.734
4333.712
4324.957
4320.073
4321.188
4328.925
4341.792
4356.354
4368.471
4375.213
4376.316
4373.969
4370.707
4366.441
4356.635
4333.345
4289.608
4225.235
4150.266
4082.739
4041.182
4036.103
4065.272
4114.457
4162.775
4191.21
4191.516
4169.943
4141.612
4118.409
4098.345
4063.839
3994.29
3888.522
3776.175
3699.425
3676.588
3683.484
3679.403
3660.691
3670.493
3723.323
3721.465
3552.209
3257.554
3037.353
3021.05
3091.993
3088.915
3108.54
3001.406
)
;
    }
    topAndBottom
    {
        type            calculated;
        value           nonuniform List<scalar> 
120
(
-1528.461
-885.7979
-314.1779
77.21398
362.6492
595.2788
770.4503
893.0866
983.9464
1064.417
1145.541
1224.519
1292.996
1348.964
1397.482
1444.641
1489.132
1525.531
1549.656
1560.343
1560.493
1554.836
1547.755
1542.168
1538.655
1536.045
1532.785
1528.429
1524.62
1524.204
1529.682
1541.934
1559.714
1580.203
1600.174
1617.09
1629.588
1637.256
1640.119
1638.408
1632.793
1624.709
1616.199
1609.21
1604.697
1602.187
1599.986
1596.026
1588.555
1576.284
1558.089
1533.038
1500.762
1461.837
1418.199
1374.067
1338.256
1323.964
1346.77
1559.088
4556.231
4819.293
4843.335
4701.861
4370.111
3939.201
3544.781
3265.396
3101.901
3013.041
2961.12
2945.658
3004.826
3176.49
3447.611
3739.327
3945.945
3997.45
3895.895
3700.716
3479.989
3267.549
3054.849
2815.96
2541.008
2252.778
1998.382
1826.099
1763.985
1810.807
1939.531
2107.319
2266.243
2372.732
2395.55
2322.631
2164.832
1954.09
1734.86
1551.34
1435.386
1399.914
1440.113
1539.508
1677.449
1834.209
1994.117
2147.035
2286.306
2406.17
2500.954
2568.481
2613.58
2644.858
2670.322
2694.226
2717.442
2734.983
2765.803
2784.988
)
;
    }
    frontAndBack
    {
        type            empty;
    }
}


// ************************************************************************* //
