/*--------------------------------*- C++ -*----------------------------------*\
| =========                 |                                                 |
| \\      /  F ield         | OpenFOAM: The Open Source CFD Toolbox           |
|  \\    /   O peration     | Version:  2312                                  |
|   \\  /    A nd           | Website:  www.openfoam.com                      |
|    \\/     M anipulation  |                                                 |
\*---------------------------------------------------------------------------*/
FoamFile
{
    version     2.0;
    format      ascii;
    arch        "LSB;label=32;scalar=64";
    class       volVectorField;
    location    "5850";
    object      U;
}
// * * * * * * * * * * * * * * * * * * * * * * * * * * * * * * * * * * * * * //

dimensions      [0 1 -1 0 0 0 0];

internalField   nonuniform List<vector> 
12000
(
(-0.02625144 0.05950521 0)
(-0.05839621 0.0529874 0)
(-0.09302492 0.05584241 0)
(-0.1308902 0.05385839 0)
(-0.1657659 0.05619466 0)
(-0.2028774 0.06899115 0)
(-0.2422431 0.07577623 0)
(-0.2817283 0.05950657 0)
(-0.3125254 0.03871423 0)
(-0.3385425 0.04682345 0)
(-0.3693563 0.07561617 0)
(-0.406057 0.06617372 0)
(-0.4328927 0.0229583 0)
(-0.4493971 0.01077693 0)
(-0.4686729 0.0543411 0)
(-0.499864 0.0727219 0)
(-0.5254137 0.02339493 0)
(-0.5354216 -0.01383378 0)
(-0.54406 0.02670375 0)
(-0.5669876 0.06651159 0)
(-0.589503 0.02846929 0)
(-0.5965524 -0.01958015 0)
(-0.5988199 0.005153944 0)
(-0.6128193 0.04655738 0)
(-0.6292248 0.02772291 0)
(-0.6349917 -0.009453997 0)
(-0.635759 -0.004269775 0)
(-0.6415079 0.01841844 0)
(-0.6492072 0.01496327 0)
(-0.6525495 0.001595708 0)
(-0.6540907 -0.001765248 0)
(-0.6541731 -0.003603763 0)
(-0.6532848 -0.006310512 0)
(-0.6519378 0.001992443 0)
(-0.652346 0.005602186 0)
(-0.6511297 -0.004965642 0)
(-0.6451758 -0.02803414 0)
(-0.6335504 -0.03680044 0)
(-0.6226706 -0.006145379 0)
(-0.6211358 0.02744022 0)
(-0.6205193 0.01420542 0)
(-0.6117126 -0.0516357 0)
(-0.5871532 -0.07464284 0)
(-0.5664085 -0.009446163 0)
(-0.5640822 0.05110169 0)
(-0.5618843 0.009910584 0)
(-0.5437777 -0.0888641 0)
(-0.5062092 -0.09951659 0)
(-0.479431 -2.056572e-05 0)
(-0.475028 0.04397571 0)
(-0.4600399 -0.0570729 0)
(-0.4165555 -0.1210971 0)
(-0.3775837 -0.04923086 0)
(-0.3544308 -0.01157234 0)
(-0.3226086 -0.06945767 0)
(-0.2727362 -0.1060421 0)
(-0.2255353 -0.09064577 0)
(-0.1680451 -0.08487334 0)
(-0.09931291 -0.1037548 0)
(-0.03838832 -0.1122367 0)
(-0.02684482 0.170492 0)
(-0.05378466 0.1505528 0)
(-0.09513349 0.1524554 0)
(-0.1282812 0.1543958 0)
(-0.1649413 0.1509751 0)
(-0.1970172 0.1496327 0)
(-0.2255338 0.1484188 0)
(-0.252834 0.1410909 0)
(-0.2797293 0.128031 0)
(-0.3130176 0.1146319 0)
(-0.3347702 0.1193832 0)
(-0.3521634 0.1144218 0)
(-0.3723531 0.1018032 0)
(-0.3993287 0.09223826 0)
(-0.4208529 0.09110106 0)
(-0.4311174 0.08925878 0)
(-0.4418761 0.07811375 0)
(-0.4627904 0.06736705 0)
(-0.4830926 0.06447954 0)
(-0.4901764 0.06359481 0)
(-0.4938225 0.05587777 0)
(-0.5074171 0.04597474 0)
(-0.524073 0.04189365 0)
(-0.5294712 0.04093215 0)
(-0.5304961 0.03574422 0)
(-0.536842 0.02804843 0)
(-0.5467195 0.02309088 0)
(-0.551184 0.02048927 0)
(-0.5516534 0.01692015 0)
(-0.5531712 0.01200737 0)
(-0.5552924 0.006937983 0)
(-0.5566504 0.001824048 0)
(-0.557153 -0.0008768044 0)
(-0.5561406 -0.004668315 0)
(-0.5517902 -0.008939711 0)
(-0.5462032 -0.01482977 0)
(-0.5429325 -0.02181611 0)
(-0.5424121 -0.02707276 0)
(-0.5390111 -0.02972717 0)
(-0.527062 -0.03236149 0)
(-0.5099358 -0.03821568 0)
(-0.4990113 -0.04669196 0)
(-0.4979296 -0.0534228 0)
(-0.4926784 -0.05712896 0)
(-0.4704557 -0.05957776 0)
(-0.4400866 -0.06565383 0)
(-0.4259108 -0.07509935 0)
(-0.4230384 -0.08339804 0)
(-0.4104542 -0.08971543 0)
(-0.3742354 -0.09627081 0)
(-0.3407528 -0.1077551 0)
(-0.3295034 -0.1195852 0)
(-0.3160085 -0.1305498 0)
(-0.2800278 -0.1432768 0)
(-0.2478078 -0.1552156 0)
(-0.2095622 -0.1852055 0)
(-0.1867106 -0.2063104 0)
(-0.1363289 -0.2639989 0)
(-0.08047822 -0.2885779 0)
(-0.03888274 -0.2979803 0)
(-0.02329388 0.2848319 0)
(-0.04525852 0.261275 0)
(-0.08048399 0.2554564 0)
(-0.1066015 0.2528192 0)
(-0.1356779 0.2467175 0)
(-0.1611298 0.2394538 0)
(-0.1861358 0.2296348 0)
(-0.2084734 0.2167728 0)
(-0.2341157 0.2031801 0)
(-0.2538205 0.1998994 0)
(-0.2792765 0.1823382 0)
(-0.2968949 0.1708369 0)
(-0.3152907 0.1588611 0)
(-0.3327423 0.1480093 0)
(-0.3490815 0.138735 0)
(-0.3628515 0.1290106 0)
(-0.3757793 0.1179268 0)
(-0.3892408 0.1075999 0)
(-0.401986 0.09939274 0)
(-0.4125077 0.09146111 0)
(-0.4217546 0.08217901 0)
(-0.4312753 0.0729317 0)
(-0.4404574 0.06547568 0)
(-0.4478194 0.05879204 0)
(-0.4537509 0.05111458 0)
(-0.4594193 0.04292227 0)
(-0.4647151 0.03564121 0)
(-0.4687663 0.02902167 0)
(-0.4715107 0.0220884 0)
(-0.4733753 0.01485641 0)
(-0.4745372 0.007699083 0)
(-0.4750447 0.002521083 0)
(-0.4748228 -0.006304001 0)
(-0.4730342 -0.01348442 0)
(-0.4701799 -0.02059713 0)
(-0.4664528 -0.02823454 0)
(-0.4621654 -0.03641974 0)
(-0.4572794 -0.0444673 0)
(-0.4511493 -0.05177993 0)
(-0.4432849 -0.05898375 0)
(-0.434015 -0.06730065 0)
(-0.4242594 -0.07711614 0)
(-0.4141743 -0.08697046 0)
(-0.4027616 -0.0957199 0)
(-0.3892834 -0.1046993 0)
(-0.3741746 -0.1152778 0)
(-0.3582826 -0.1267773 0)
(-0.341863 -0.1382926 0)
(-0.3240522 -0.1491627 0)
(-0.3031537 -0.1609551 0)
(-0.2832913 -0.1702997 0)
(-0.2639003 -0.1799722 0)
(-0.2352989 -0.1984934 0)
(-0.213751 -0.2154175 0)
(-0.1777016 -0.2530577 0)
(-0.1511002 -0.2794888 0)
(-0.1176151 -0.3118924 0)
(-0.088749 -0.3505988 0)
(-0.05403546 -0.4013043 0)
(-0.02217458 -0.4275725 0)
(-0.01772113 0.3678089 0)
(-0.03846136 0.334162 0)
(-0.06460005 0.3259471 0)
(-0.08682546 0.3187051 0)
(-0.1087468 0.3086449 0)
(-0.1300314 0.2970768 0)
(-0.1484839 0.2875087 0)
(-0.170223 0.2748945 0)
(-0.1862946 0.2637182 0)
(-0.2061026 0.2493384 0)
(-0.2201507 0.2396895 0)
(-0.237325 0.2234893 0)
(-0.2543617 0.2052916 0)
(-0.2698599 0.1910717 0)
(-0.2843459 0.1786 0)
(-0.2977122 0.1664107 0)
(-0.3105326 0.1541458 0)
(-0.322674 0.1422402 0)
(-0.3338657 0.1309733 0)
(-0.3439559 0.1200988 0)
(-0.3531573 0.1093417 0)
(-0.3617479 0.09874215 0)
(-0.369611 0.08849606 0)
(-0.3764664 0.07853169 0)
(-0.3823628 0.06862905 0)
(-0.3875305 0.05874621 0)
(-0.3919708 0.04899629 0)
(-0.3955149 0.03937997 0)
(-0.3981193 0.0298203 0)
(-0.3997528 0.02030387 0)
(-0.4010135 0.0107301 0)
(-0.4012549 0.003179703 0)
(-0.4004156 -0.008001559 0)
(-0.3989364 -0.01821723 0)
(-0.3964847 -0.02819017 0)
(-0.3931569 -0.03834733 0)
(-0.3889914 -0.04868901 0)
(-0.3840311 -0.05918763 0)
(-0.3781473 -0.06982077 0)
(-0.3711851 -0.08067226 0)
(-0.363146 -0.0918799 0)
(-0.3542088 -0.1035132 0)
(-0.3445037 -0.1154999 0)
(-0.3336654 -0.127885 0)
(-0.3220102 -0.1403935 0)
(-0.3093281 -0.1537504 0)
(-0.2953297 -0.1681291 0)
(-0.280668 -0.1831096 0)
(-0.2642608 -0.1981783 0)
(-0.2476508 -0.2103354 0)
(-0.2305625 -0.225468 0)
(-0.2058002 -0.2542723 0)
(-0.1838153 -0.2788436 0)
(-0.1587111 -0.3038044 0)
(-0.1351682 -0.3287503 0)
(-0.1122346 -0.3562779 0)
(-0.08788477 -0.3901542 0)
(-0.06384893 -0.432605 0)
(-0.03751309 -0.4826051 0)
(-0.01467115 -0.5111075 0)
(-0.01339712 0.4410887 0)
(-0.03182346 0.4024973 0)
(-0.05267282 0.3901948 0)
(-0.07130925 0.3798843 0)
(-0.08985381 0.3677361 0)
(-0.1079142 0.3534558 0)
(-0.1249504 0.3388795 0)
(-0.1412969 0.323753 0)
(-0.15623 0.3078941 0)
(-0.1713593 0.2903733 0)
(-0.1845083 0.2751331 0)
(-0.1975712 0.2620452 0)
(-0.2087192 0.2501435 0)
(-0.2228899 0.232509 0)
(-0.2355177 0.2157235 0)
(-0.2459555 0.203194 0)
(-0.2575828 0.1882506 0)
(-0.2676993 0.1736664 0)
(-0.2770881 0.1595664 0)
(-0.2858553 0.1460232 0)
(-0.2938876 0.1328762 0)
(-0.3012079 0.120025 0)
(-0.3078206 0.1074404 0)
(-0.3136845 0.0950665 0)
(-0.3187959 0.08282806 0)
(-0.3231804 0.0706888 0)
(-0.3268453 0.0586429 0)
(-0.329775 0.04666155 0)
(-0.3319351 0.03469451 0)
(-0.3334121 0.02270507 0)
(-0.3341041 0.01303655 0)
(-0.3338876 0.0002581947 0)
(-0.3327788 -0.01227363 0)
(-0.3310662 -0.02460621 0)
(-0.3287972 -0.03686722 0)
(-0.3258823 -0.04940433 0)
(-0.3219909 -0.06217785 0)
(-0.317298 -0.07515008 0)
(-0.3117763 -0.0883561 0)
(-0.3054155 -0.1018592 0)
(-0.2982077 -0.1157466 0)
(-0.2901495 -0.1300967 0)
(-0.2814676 -0.1449622 0)
(-0.2711966 -0.1604019 0)
(-0.261511 -0.1736305 0)
(-0.2494535 -0.1913718 0)
(-0.2372732 -0.2090498 0)
(-0.2241981 -0.2253983 0)
(-0.2118657 -0.2412043 0)
(-0.1951951 -0.2629564 0)
(-0.1775883 -0.286549 0)
(-0.1598316 -0.3097418 0)
(-0.1428912 -0.3326123 0)
(-0.1253301 -0.3571082 0)
(-0.1071103 -0.3845339 0)
(-0.08805517 -0.4155411 0)
(-0.06830496 -0.4510754 0)
(-0.04888458 -0.4927936 0)
(-0.02883738 -0.5440292 0)
(-0.01062636 -0.5763402 0)
(-0.01031636 0.497753 0)
(-0.02581164 0.4553655 0)
(-0.04215242 0.4396276 0)
(-0.05705335 0.4269685 0)
(-0.07175415 0.4132417 0)
(-0.08585846 0.397982 0)
(-0.09957854 0.3818942 0)
(-0.1127356 0.3651748 0)
(-0.1253145 0.3480005 0)
(-0.1376916 0.3303587 0)
(-0.1498032 0.3128602 0)
(-0.1609062 0.2955765 0)
(-0.1722287 0.2788402 0)
(-0.1803834 0.2649509 0)
(-0.1916135 0.2471982 0)
(-0.2010222 0.2302738 0)
(-0.2100146 0.2142253 0)
(-0.2183299 0.1984927 0)
(-0.2262111 0.1830181 0)
(-0.233565 0.1678544 0)
(-0.2403358 0.1529733 0)
(-0.2465114 0.1383295 0)
(-0.2520805 0.1238906 0)
(-0.2570285 0.1096237 0)
(-0.2613486 0.09549587 0)
(-0.2650412 0.08148041 0)
(-0.268106 0.067558 0)
(-0.2705382 0.05370777 0)
(-0.2723274 0.03991068 0)
(-0.2735714 0.02614544 0)
(-0.2738157 0.01242548 0)
(-0.2734864 -0.00141842 0)
(-0.272912 -0.01572431 0)
(-0.2714384 -0.03023288 0)
(-0.2695574 -0.04263669 0)
(-0.2667273 -0.05803565 0)
(-0.2633755 -0.07319755 0)
(-0.2593057 -0.08838685 0)
(-0.2545709 -0.1037567 0)
(-0.2491526 -0.1193965 0)
(-0.243052 -0.1353685 0)
(-0.2362717 -0.1517171 0)
(-0.2288232 -0.1684752 0)
(-0.2207734 -0.1855735 0)
(-0.2119094 -0.203391 0)
(-0.2015096 -0.2217052 0)
(-0.1924085 -0.2385713 0)
(-0.1811674 -0.2583888 0)
(-0.1683583 -0.2815993 0)
(-0.1553088 -0.3051693 0)
(-0.1419118 -0.3286308 0)
(-0.1282675 -0.3528365 0)
(-0.1140513 -0.3782917 0)
(-0.0991608 -0.4055762 0)
(-0.08375494 -0.4349603 0)
(-0.06807646 -0.4670378 0)
(-0.05231451 -0.502811 0)
(-0.03695467 -0.5439686 0)
(-0.02154125 -0.5923133 0)
(-0.007769568 -0.6231271 0)
(-0.008017454 0.5443203 0)
(-0.02090919 0.499003 0)
(-0.03377295 0.4800362 0)
(-0.04561611 0.4651125 0)
(-0.05719099 0.4496831 0)
(-0.06822775 0.4330962 0)
(-0.07896843 0.4156287 0)
(-0.08934433 0.3975735 0)
(-0.09939066 0.3791922 0)
(-0.109171 0.3606802 0)
(-0.1187041 0.3423045 0)
(-0.1279236 0.3241671 0)
(-0.1365889 0.3061024 0)
(-0.1456157 0.2884627 0)
(-0.152041 0.2731842 0)
(-0.1602024 0.2555478 0)
(-0.167979 0.2373297 0)
(-0.1751006 0.2198487 0)
(-0.1817302 0.2028228 0)
(-0.1878572 0.1861127 0)
(-0.1934813 0.1696594 0)
(-0.1985976 0.1534163 0)
(-0.2032002 0.1373509 0)
(-0.2072824 0.1214351 0)
(-0.2108389 0.1056421 0)
(-0.2138663 0.08994665 0)
(-0.2163603 0.07432362 0)
(-0.2183154 0.0587456 0)
(-0.2197236 0.04318319 0)
(-0.2205969 0.02760065 0)
(-0.2208175 0.01199332 0)
(-0.2207006 -0.001727748 0)
(-0.2201991 -0.01804281 0)
(-0.2191548 -0.03419033 0)
(-0.2173344 -0.0503381 0)
(-0.2148046 -0.06675066 0)
(-0.2119209 -0.08334006 0)
(-0.2084901 -0.1001557 0)
(-0.2045145 -0.1172408 0)
(-0.1999734 -0.1346461 0)
(-0.1948581 -0.1524212 0)
(-0.1891581 -0.1706132 0)
(-0.1828521 -0.1892691 0)
(-0.1760865 -0.2084849 0)
(-0.1680928 -0.2280558 0)
(-0.1610722 -0.2470682 0)
(-0.1514791 -0.2689645 0)
(-0.1418616 -0.2917533 0)
(-0.1316578 -0.3149365 0)
(-0.1213784 -0.3387162 0)
(-0.1107651 -0.363327 0)
(-0.09974732 -0.3888713 0)
(-0.08833306 -0.4155057 0)
(-0.07659951 -0.4434974 0)
(-0.06464597 -0.4732203 0)
(-0.05256898 -0.505232 0)
(-0.04046353 -0.5404606 0)
(-0.02860818 -0.5806225 0)
(-0.01683946 -0.6282501 0)
(-0.005864936 -0.6603627 0)
(-0.006278499 0.5816106 0)
(-0.01677655 0.5337442 0)
(-0.02670396 0.5117337 0)
(-0.0358808 0.4947585 0)
(-0.04477181 0.4779148 0)
(-0.0532589 0.4603435 0)
(-0.06154295 0.4420915 0)
(-0.0696224 0.4233517 0)
(-0.07752614 0.4043307 0)
(-0.08525608 0.385193 0)
(-0.09279635 0.3660686 0)
(-0.1001103 0.3470308 0)
(-0.1071822 0.3281158 0)
(-0.1138265 0.3092792 0)
(-0.1206874 0.2908625 0)
(-0.1259143 0.2740915 0)
(-0.1315078 0.2563403 0)
(-0.1373692 0.2376141 0)
(-0.1426777 0.2192642 0)
(-0.1476941 0.2012498 0)
(-0.1522907 0.1834831 0)
(-0.1564783 0.1659219 0)
(-0.1602466 0.1485295 0)
(-0.1635903 0.1312776 0)
(-0.1665056 0.1141412 0)
(-0.1689903 0.09709626 0)
(-0.1710431 0.08011777 0)
(-0.1726636 0.06318047 0)
(-0.1738518 0.046257 0)
(-0.1746105 0.02931689 0)
(-0.1749463 0.01233654 0)
(-0.1748075 -0.002951534 0)
(-0.1741969 -0.02047528 0)
(-0.173223 -0.03799511 0)
(-0.1717925 -0.05554995 0)
(-0.1699174 -0.07332572 0)
(-0.1676157 -0.09130872 0)
(-0.164867 -0.1095489 0)
(-0.1616658 -0.1280875 0)
(-0.1580035 -0.1469694 0)
(-0.1538725 -0.1662394 0)
(-0.1492629 -0.1859377 0)
(-0.1443134 -0.2061653 0)
(-0.138394 -0.2267719 0)
(-0.1332122 -0.2470103 0)
(-0.1260234 -0.269369 0)
(-0.1189561 -0.2923713 0)
(-0.1114047 -0.3158575 0)
(-0.1035658 -0.3400361 0)
(-0.09538978 -0.3649001 0)
(-0.08689016 -0.3905178 0)
(-0.07809569 -0.4170022 0)
(-0.06903817 -0.4445171 0)
(-0.05976044 -0.4732944 0)
(-0.05032034 -0.5036637 0)
(-0.0407946 -0.5361358 0)
(-0.03126319 -0.5715488 0)
(-0.02193201 -0.6113645 0)
(-0.01278011 -0.6574129 0)
(-0.004398455 -0.6876703 0)
(-0.004945201 0.6113861 0)
(-0.01334205 0.5612933 0)
(-0.02085354 0.5364296 0)
(-0.02779951 0.5176157 0)
(-0.03445778 0.4996102 0)
(-0.04081298 0.4812818 0)
(-0.04702014 0.4624873 0)
(-0.05310939 0.4433107 0)
(-0.05910946 0.4238808 0)
(-0.06501876 0.404316 0)
(-0.07082301 0.3847117 0)
(-0.07649727 0.3651296 0)
(-0.08202038 0.345604 0)
(-0.08738236 0.3261595 0)
(-0.09241573 0.306747 0)
(-0.0975702 0.2876185 0)
(-0.1014939 0.269734 0)
(-0.1057957 0.2513049 0)
(-0.1098061 0.2323246 0)
(-0.1136102 0.2133953 0)
(-0.1171988 0.194638 0)
(-0.1204691 0.176034 0)
(-0.1234267 0.1575699 0)
(-0.1260602 0.1392299 0)
(-0.1283654 0.1209959 0)
(-0.1303391 0.1028495 0)
(-0.1319795 0.08477066 0)
(-0.1332864 0.06673652 0)
(-0.1342604 0.04872199 0)
(-0.1349 0.0306994 0)
(-0.1352281 0.0126412 0)
(-0.1351524 -0.004009984 0)
(-0.1346866 -0.0224968 0)
(-0.1339552 -0.04105983 0)
(-0.1328896 -0.05974819 0)
(-0.1314911 -0.07862121 0)
(-0.1297583 -0.09772257 0)
(-0.1276827 -0.1170996 0)
(-0.1252577 -0.1367956 0)
(-0.1224772 -0.1568512 0)
(-0.1193186 -0.1773005 0)
(-0.1159192 -0.1981771 0)
(-0.1117152 -0.2194567 0)
(-0.1080623 -0.2407127 0)
(-0.1028368 -0.2635633 0)
(-0.09768059 -0.2870423 0)
(-0.09209066 -0.3109811 0)
(-0.08621407 -0.3354768 0)
(-0.08003826 -0.360551 0)
(-0.07359159 -0.3862497 0)
(-0.06689595 -0.4126314 0)
(-0.05998117 -0.4397785 0)
(-0.05288469 -0.4678142 0)
(-0.04565337 -0.4969231 0)
(-0.0383425 -0.5273914 0)
(-0.03101713 -0.5596834 0)
(-0.02374566 -0.5945991 0)
(-0.0166578 -0.6336069 0)
(-0.009778623 -0.678753 0)
(-0.003332697 -0.7096039 0)
(-0.003412481 0.6354481 0)
(-0.01001786 0.5826157 0)
(-0.01591832 0.5550262 0)
(-0.02099444 0.534524 0)
(-0.0257934 0.5154634 0)
(-0.03038428 0.4965023 0)
(-0.03489095 0.47734 0)
(-0.03933608 0.4579434 0)
(-0.04373031 0.4383551 0)
(-0.04807053 0.4186277 0)
(-0.05234652 0.3988145 0)
(-0.05654236 0.3789595 0)
(-0.06064036 0.3590948 0)
(-0.06462445 0.3392436 0)
(-0.06848764 0.3194244 0)
(-0.07210655 0.299588 0)
(-0.07582407 0.2799286 0)
(-0.0783013 0.2612111 0)
(-0.08166437 0.2419581 0)
(-0.08446301 0.2224097 0)
(-0.08712898 0.2029191 0)
(-0.08963478 0.183593 0)
(-0.09190926 0.1643783 0)
(-0.09394357 0.1452688 0)
(-0.09573192 0.1262521 0)
(-0.09727153 0.1073142 0)
(-0.09856204 0.08843895 0)
(-0.09960438 0.06960613 0)
(-0.1004006 0.05079209 0)
(-0.1009484 0.03196984 0)
(-0.101276 0.01311013 0)
(-0.1012823 -0.004667755 0)
(-0.1009861 -0.02385533 0)
(-0.1005042 -0.04315836 0)
(-0.09978944 -0.06261869 0)
(-0.09884084 -0.08228315 0)
(-0.09765098 -0.1021968 0)
(-0.09621266 -0.1224052 0)
(-0.09451802 -0.1429522 0)
(-0.09255591 -0.163878 0)
(-0.09033016 -0.1852155 0)
(-0.08769974 -0.2069909 0)
(-0.08507105 -0.2291507 0)
(-0.08150327 -0.252372 0)
(-0.07789822 -0.2761528 0)
(-0.07395566 -0.3003676 0)
(-0.06977001 -0.3250934 0)
(-0.06532516 -0.3503399 0)
(-0.06063582 -0.3761263 0)
(-0.05572138 -0.4024758 0)
(-0.05060797 -0.4294298 0)
(-0.04532726 -0.4570609 0)
(-0.03991541 -0.4854835 0)
(-0.03441292 -0.5148755 0)
(-0.02886149 -0.5455219 0)
(-0.02330656 -0.5778828 0)
(-0.01779638 -0.6127319 0)
(-0.01241765 -0.6514267 0)
(-0.007226331 -0.6956722 0)
(-0.002409031 -0.7252298 0)
(-0.002553604 0.6546471 0)
(-0.007534363 0.5988541 0)
(-0.01179686 0.5686989 0)
(-0.01532245 0.5467472 0)
(-0.01858313 0.5269734 0)
(-0.02166018 0.5076926 0)
(-0.02462701 0.4883461 0)
(-0.02754353 0.4687721 0)
(-0.03046183 0.4489797 0)
(-0.03339724 0.4290307 0)
(-0.03633776 0.4089744 0)
(-0.0392675 0.3888502 0)
(-0.04216657 0.3686875 0)
(-0.04501511 0.3485098 0)
(-0.04779438 0.328339 0)
(-0.05050005 0.3081966 0)
(-0.05302245 0.2880567 0)
(-0.05573896 0.2680737 0)
(-0.05740236 0.2488132 0)
(-0.05951443 0.2293326 0)
(-0.06162095 0.2095201 0)
(-0.06338926 0.1896704 0)
(-0.06507394 0.1698686 0)
(-0.06656656 0.1501376 0)
(-0.06788644 0.1304891 0)
(-0.06903427 0.1109202 0)
(-0.07001191 0.09142115 0)
(-0.07082167 0.07197457 0)
(-0.0714658 0.05255762 0)
(-0.07194098 0.0331429 0)
(-0.07227488 0.01369893 0)
(-0.07237017 -0.004965398 0)
(-0.07224295 -0.02465989 0)
(-0.07199138 -0.04449026 0)
(-0.07157806 -0.06449877 0)
(-0.07100017 -0.0847303 0)
(-0.07024874 -0.105232 0)
(-0.06931504 -0.1260534 0)
(-0.06818924 -0.1472462 0)
(-0.0668601 -0.1688649 0)
(-0.06531396 -0.1909698 0)
(-0.06353751 -0.2136196 0)
(-0.06148491 -0.2369666 0)
(-0.0592083 -0.2608865 0)
(-0.05674119 -0.2852602 0)
(-0.05403566 -0.3101657 0)
(-0.05108009 -0.3355892 0)
(-0.0478808 -0.3615182 0)
(-0.04445479 -0.3879383 0)
(-0.04083022 -0.4148532 0)
(-0.03703906 -0.4422878 0)
(-0.03311724 -0.4702945 0)
(-0.02910184 -0.4989726 0)
(-0.02502969 -0.5284937 0)
(-0.02093819 -0.5591306 0)
(-0.01686584 -0.5913267 0)
(-0.01285381 -0.6258354 0)
(-0.008960749 -0.664003 0)
(-0.005240052 -0.707592 0)
(-0.001758136 -0.7374636 0)
(-0.002417552 0.6688411 0)
(-0.00607972 0.6105951 0)
(-0.008637745 0.5780584 0)
(-0.01092078 0.5548298 0)
(-0.01299325 0.5341658 0)
(-0.01484025 0.5141551 0)
(-0.01664096 0.4943574 0)
(-0.01840052 0.4747307 0)
(-0.02019481 0.4551705 0)
(-0.02200342 0.4354777 0)
(-0.02383351 0.415639 0)
(-0.02567442 0.3956612 0)
(-0.02751723 0.3755657 0)
(-0.02935191 0.3553758 0)
(-0.03117538 0.3351132 0)
(-0.03298888 0.3147982 0)
(-0.03478551 0.294443 0)
(-0.03646889 0.2740176 0)
(-0.03819654 0.2536517 0)
(-0.03953474 0.2336607 0)
(-0.04060991 0.2136795 0)
(-0.04178674 0.1934881 0)
(-0.04281443 0.1732925 0)
(-0.04377289 0.153188 0)
(-0.04463459 0.1332001 0)
(-0.0454013 0.1132966 0)
(-0.04607149 0.09346848 0)
(-0.04664839 0.0736935 0)
(-0.0471342 0.05394349 0)
(-0.04752597 0.03418946 0)
(-0.04785043 0.01439933 0)
(-0.04802169 -0.004896424 0)
(-0.04805091 -0.02491439 0)
(-0.04801734 -0.04509174 0)
(-0.04788881 -0.06547264 0)
(-0.04766017 -0.08610365 0)
(-0.04732082 -0.1070332 0)
(-0.04686063 -0.1283112 0)
(-0.04626883 -0.1499882 0)
(-0.04553522 -0.1721144 0)
(-0.04464073 -0.1947376 0)
(-0.0436435 -0.2179066 0)
(-0.04232401 -0.2416342 0)
(-0.04113639 -0.2659317 0)
(-0.0395795 -0.2909739 0)
(-0.03787725 -0.3165943 0)
(-0.03592655 -0.342721 0)
(-0.03373628 -0.3693087 0)
(-0.031331 -0.3963036 0)
(-0.0287557 -0.4236931 0)
(-0.02605203 -0.4514956 0)
(-0.02325698 -0.4797702 0)
(-0.02040299 -0.5086264 0)
(-0.01751839 -0.538242 0)
(-0.01462948 -0.5688996 0)
(-0.01176154 -0.6010499 0)
(-0.008940613 -0.6354435 0)
(-0.006201865 -0.6733881 0)
(-0.003592026 -0.7164934 0)
(-0.001167367 -0.7456751 0)
(-0.001350863 0.6803276 0)
(-0.003922867 0.619312 0)
(-0.005646844 0.5845911 0)
(-0.006816506 0.5600342 0)
(-0.007217113 0.5387169 0)
(-0.008026307 0.518667 0)
(-0.008616344 0.4990595 0)
(-0.009706878 0.4794107 0)
(-0.0104171 0.4595883 0)
(-0.01128573 0.4396536 0)
(-0.01213716 0.4196001 0)
(-0.01302449 0.3994404 0)
(-0.01395177 0.3791993 0)
(-0.01492194 0.3589058 0)
(-0.01592184 0.3386367 0)
(-0.01694219 0.318371 0)
(-0.01794953 0.2980208 0)
(-0.01890221 0.277583 0)
(-0.01976963 0.2570477 0)
(-0.02058527 0.2364975 0)
(-0.02113918 0.2161532 0)
(-0.02182733 0.1959314 0)
(-0.02244271 0.1757062 0)
(-0.02319655 0.1554503 0)
(-0.02382204 0.1352268 0)
(-0.02444722 0.1150833 0)
(-0.02502678 0.09502157 0)
(-0.02557547 0.07502697 0)
(-0.02609385 0.05507534 0)
(-0.0265706 0.03513985 0)
(-0.0270259 0.01518964 0)
(-0.0273867 -0.004496545 0)
(-0.02766644 -0.02464815 0)
(-0.02792964 -0.04498027 0)
(-0.02814805 -0.06553835 0)
(-0.02831726 -0.08637408 0)
(-0.02842834 -0.1075372 0)
(-0.02847351 -0.1290789 0)
(-0.02844408 -0.1510527 0)
(-0.02832794 -0.1735119 0)
(-0.02812238 -0.1965027 0)
(-0.02773275 -0.2200618 0)
(-0.02742711 -0.2441762 0)
(-0.02658677 -0.2690138 0)
(-0.02584307 -0.2944768 0)
(-0.02493446 -0.3206067 0)
(-0.02368341 -0.3474153 0)
(-0.0222546 -0.3746559 0)
(-0.02064744 -0.4021754 0)
(-0.01892021 -0.4299404 0)
(-0.01710482 -0.4580008 0)
(-0.01523285 -0.4864385 0)
(-0.01332922 -0.5153783 0)
(-0.01141405 -0.5450074 0)
(-0.009505318 -0.5756085 0)
(-0.007620036 -0.6076282 0)
(-0.005776722 -0.6418117 0)
(-0.00399908 -0.6794576 0)
(-0.00232122 -0.7221851 0)
(-0.0007688489 -0.7515814 0)
(-0.0007913555 0.6887972 0)
(-0.00237898 0.6243747 0)
(-0.002902056 0.5869024 0)
(-0.00280812 0.5606012 0)
(-0.002771817 0.5387328 0)
(-0.00232488 0.518648 0)
(-0.001993829 0.4990819 0)
(-0.001318673 0.4795669 0)
(-0.001073789 0.4600046 0)
(-0.0008244278 0.4404142 0)
(-0.0007326313 0.4207572 0)
(-0.0007787428 0.4010292 0)
(-0.0009849617 0.3812206 0)
(-0.001267894 0.3612994 0)
(-0.001869365 0.3411604 0)
(-0.002375345 0.3208317 0)
(-0.003002968 0.3002714 0)
(-0.003634938 0.2794349 0)
(-0.004268796 0.258544 0)
(-0.0048012 0.2377885 0)
(-0.005428956 0.2172899 0)
(-0.005731275 0.1971024 0)
(-0.006108784 0.1770352 0)
(-0.006362453 0.1569459 0)
(-0.00676669 0.1367864 0)
(-0.00717346 0.1166715 0)
(-0.007625316 0.09667571 0)
(-0.008103456 0.07675013 0)
(-0.008602317 0.05680991 0)
(-0.009108298 0.03683685 0)
(-0.009651438 0.01681905 0)
(-0.0101628 -0.003135706 0)
(-0.01066047 -0.02333122 0)
(-0.011209 -0.04373066 0)
(-0.01174057 -0.06438261 0)
(-0.01226488 -0.08533121 0)
(-0.01276876 -0.1066245 0)
(-0.01325026 -0.1283144 0)
(-0.0137061 -0.1504603 0)
(-0.01413122 -0.1731256 0)
(-0.01451391 -0.196375 0)
(-0.01484179 -0.2202642 0)
(-0.01503194 -0.2448671 0)
(-0.0151725 -0.2701015 0)
(-0.01508255 -0.2960649 0)
(-0.01455329 -0.3229382 0)
(-0.01400981 -0.3503686 0)
(-0.01319735 -0.3780185 0)
(-0.01225876 -0.4058036 0)
(-0.01115572 -0.4338202 0)
(-0.01005121 -0.4620456 0)
(-0.008937024 -0.4905787 0)
(-0.007813502 -0.5195673 0)
(-0.0066867 -0.5492082 0)
(-0.005563911 -0.5797929 0)
(-0.004452962 -0.6117735 0)
(-0.003364289 -0.6458933 0)
(-0.002313107 -0.6834352 0)
(-0.001322212 -0.7259562 0)
(-0.0004210017 -0.755114 0)
(-0.0004936273 0.694566 0)
(-0.001556065 0.6266301 0)
(-0.001591428 0.5868921 0)
(-0.001217252 0.5601941 0)
(-0.0004750493 0.537788 0)
(0.0004562137 0.5170791 0)
(0.001395072 0.4972073 0)
(0.002398565 0.4777512 0)
(0.00336453 0.4584186 0)
(0.004310856 0.4390607 0)
(0.005206577 0.4196496 0)
(0.006051922 0.4001764 0)
(0.00682552 0.3806425 0)
(0.007431018 0.3610746 0)
(0.008055932 0.341426 0)
(0.008231072 0.3215965 0)
(0.008294301 0.3015054 0)
(0.008228076 0.2811465 0)
(0.007915468 0.2605089 0)
(0.007646792 0.2396642 0)
(0.007302707 0.2188002 0)
(0.006914939 0.1981032 0)
(0.006598198 0.1777042 0)
(0.006316555 0.1575483 0)
(0.00603917 0.1375374 0)
(0.005740643 0.1175858 0)
(0.005414951 0.09767306 0)
(0.005063847 0.07778543 0)
(0.004686074 0.05790655 0)
(0.004270541 0.03803608 0)
(0.003817886 0.01817907 0)
(0.00329856 -0.00169636 0)
(0.00269745 -0.02168723 0)
(0.00201068 -0.04197713 0)
(0.001264479 -0.06257292 0)
(0.0004891132 -0.08349901 0)
(-0.0003107671 -0.1047857 0)
(-0.001127324 -0.1264651 0)
(-0.001954613 -0.1485985 0)
(-0.002785779 -0.1712698 0)
(-0.003610171 -0.1945583 0)
(-0.00441166 -0.2185568 0)
(-0.005167266 -0.2433901 0)
(-0.005842352 -0.2692034 0)
(-0.006336935 -0.295985 0)
(-0.006738744 -0.3234739 0)
(-0.006833178 -0.3514648 0)
(-0.006578659 -0.3797875 0)
(-0.006122597 -0.4081152 0)
(-0.005546415 -0.4362082 0)
(-0.004968437 -0.4643347 0)
(-0.004371517 -0.4928401 0)
(-0.003795735 -0.5218189 0)
(-0.003221508 -0.5514538 0)
(-0.002654348 -0.5820221 0)
(-0.002098932 -0.6139614 0)
(-0.001563874 -0.6480005 0)
(-0.0010601 -0.6854135 0)
(-0.0006065327 -0.7277665 0)
(-0.0002086244 -0.7571196 0)
(-0.0004838292 0.6995244 0)
(-0.0005509092 0.6281507 0)
(-0.000644515 0.5864415 0)
(0.0004763991 0.5580554 0)
(0.001791794 0.534812 0)
(0.003311495 0.5137697 0)
(0.004865863 0.4937383 0)
(0.006437711 0.4741607 0)
(0.007981433 0.4547693 0)
(0.009469454 0.4354275 0)
(0.01087186 0.416092 0)
(0.01215856 0.3967717 0)
(0.01332379 0.3775247 0)
(0.01428089 0.3584679 0)
(0.01504159 0.3394855 0)
(0.01572424 0.3202277 0)
(0.01632965 0.3005499 0)
(0.0167939 0.2804747 0)
(0.01737618 0.2601008 0)
(0.017589 0.2397291 0)
(0.01774216 0.219383 0)
(0.01767389 0.1990405 0)
(0.01757336 0.1787314 0)
(0.01738364 0.1585298 0)
(0.0171497 0.1384625 0)
(0.01685931 0.1185196 0)
(0.01650635 0.09867592 0)
(0.01608731 0.07889177 0)
(0.01560283 0.05913022 0)
(0.01505346 0.03937982 0)
(0.01444175 0.01965896 0)
(0.01377744 -7.661087e-06 0)
(0.01299304 -0.01959868 0)
(0.012078 -0.03964126 0)
(0.01107885 -0.06006684 0)
(0.01001711 -0.08086257 0)
(0.00890678 -0.102049 0)
(0.007762262 -0.123668 0)
(0.006596235 -0.1457795 0)
(0.005423211 -0.1684603 0)
(0.004258095 -0.1917992 0)
(0.003121224 -0.2158932 0)
(0.002034171 -0.2408464 0)
(0.001013619 -0.2667639 0)
(7.78129e-05 -0.2937397 0)
(-0.0007428319 -0.3218004 0)
(-0.001345701 -0.3507078 0)
(-0.001800361 -0.3799049 0)
(-0.001895441 -0.4088194 0)
(-0.001850682 -0.4372276 0)
(-0.001565628 -0.4654789 0)
(-0.001366374 -0.4939791 0)
(-0.001141772 -0.5229398 0)
(-0.0009304365 -0.5525466 0)
(-0.0007294978 -0.5830782 0)
(-0.0005416863 -0.6149713 0)
(-0.0003708182 -0.6489529 0)
(-0.0002205673 -0.6862937 0)
(-0.0001032791 -0.7285635 0)
(-1.428483e-05 -0.757988 0)
(-0.0002315022 0.7031881 0)
(-0.0003679664 0.6281014 0)
(0.0003765635 0.5839848 0)
(0.001891544 0.5543004 0)
(0.003711978 0.5303561 0)
(0.005702851 0.5089589 0)
(0.007749152 0.4888078 0)
(0.009796754 0.4692804 0)
(0.01179465 0.45007 0)
(0.01370387 0.4310267 0)
(0.01548948 0.4120923 0)
(0.01712152 0.3932595 0)
(0.01857961 0.3745505 0)
(0.01985232 0.3559683 0)
(0.02096852 0.33723 0)
(0.02195905 0.3180406 0)
(0.02282333 0.2984206 0)
(0.0235893 0.2785352 0)
(0.02413306 0.2586293 0)
(0.02461204 0.2386738 0)
(0.02500858 0.218672 0)
(0.02523823 0.1986825 0)
(0.02534896 0.1787153 0)
(0.02531795 0.1588492 0)
(0.02515194 0.139107 0)
(0.02485826 0.1194711 0)
(0.02444483 0.09990894 0)
(0.02391984 0.08038447 0)
(0.0232913 0.06086609 0)
(0.02256831 0.04133881 0)
(0.02176214 0.02182052 0)
(0.02087567 0.002382286 0)
(0.01988858 -0.01683214 0)
(0.01876319 -0.03656211 0)
(0.01753718 -0.05674547 0)
(0.01623767 -0.07736394 0)
(0.01488788 -0.09842257 0)
(0.01350616 -0.1199538 0)
(0.01210899 -0.1420179 0)
(0.01071292 -0.1646983 0)
(0.009335822 -0.1880944 0)
(0.007998151 -0.212319 0)
(0.006723066 -0.2374911 0)
(0.005535671 -0.2637141 0)
(0.004458279 -0.2910352 0)
(0.003505156 -0.3194025 0)
(0.002685456 -0.3486264 0)
(0.002021892 -0.3783527 0)
(0.001539136 -0.4080166 0)
(0.001274653 -0.437069 0)
(0.001046554 -0.4655543 0)
(0.000921945 -0.4940618 0)
(0.0007664984 -0.5230299 0)
(0.0006362255 -0.5526412 0)
(0.0005188821 -0.583174 0)
(0.0004126951 -0.615065 0)
(0.0003134761 -0.6490412 0)
(0.0002168792 -0.686373 0)
(0.0001233835 -0.7286322 0)
(3.636888e-05 -0.7580712 0)
(-0.0001094468 0.7060602 0)
(-4.327576e-05 0.627344 0)
(0.0009929781 0.5804846 0)
(0.002788023 0.5493899 0)
(0.004941763 0.5246783 0)
(0.007262721 0.5028914 0)
(0.009650498 0.482587 0)
(0.01203785 0.4630806 0)
(0.01437262 0.444027 0)
(0.01661467 0.4252518 0)
(0.01873164 0.4066755 0)
(0.02069969 0.3882706 0)
(0.02250165 0.370037 0)
(0.02413181 0.3519407 0)
(0.02558999 0.3337149 0)
(0.02687494 0.3150937 0)
(0.02796635 0.2960647 0)
(0.02886872 0.2767129 0)
(0.02958923 0.2571273 0)
(0.03018502 0.2374299 0)
(0.03055026 0.2177662 0)
(0.03087749 0.1981378 0)
(0.03097214 0.1786038 0)
(0.03092479 0.1591767 0)
(0.0307086 0.1398506 0)
(0.03033755 0.1206058 0)
(0.02982089 0.1014108 0)
(0.02916917 0.08222754 0)
(0.02839333 0.06301971 0)
(0.02750472 0.04376773 0)
(0.02651432 0.02449308 0)
(0.02542729 0.005302655 0)
(0.02430137 -0.01356481 0)
(0.02305142 -0.03296835 0)
(0.02165786 -0.0529046 0)
(0.02019829 -0.07335688 0)
(0.01869964 -0.09431591 0)
(0.01718089 -0.1158051 0)
(0.01565988 -0.1378801 0)
(0.01415423 -0.1606218 0)
(0.01268185 -0.1841301 0)
(0.01126104 -0.2085177 0)
(0.009910017 -0.2339023 0)
(0.008646412 -0.2603912 0)
(0.007487833 -0.2880473 0)
(0.006453443 -0.3168314 0)
(0.00556185 -0.3465263 0)
(0.004826735 -0.3766899 0)
(0.004248432 -0.4067081 0)
(0.00383062 -0.4360335 0)
(0.003497648 -0.4646484 0)
(0.003195028 -0.4931992 0)
(0.002867557 -0.5222287 0)
(0.002539032 -0.5519049 0)
(0.002201988 -0.5824917 0)
(0.001853256 -0.6144172 0)
(0.001487306 -0.6484026 0)
(0.001099359 -0.6857107 0)
(0.0006784792 -0.7279256 0)
(0.0002300096 -0.7575186 0)
(-7.094746e-05 0.7085556 0)
(0.0002424659 0.6257558 0)
(0.001419459 0.576338 0)
(0.003398057 0.5438071 0)
(0.0057663 0.5183019 0)
(0.008305449 0.4961151 0)
(0.01091901 0.4756728 0)
(0.01353086 0.456216 0)
(0.01608731 0.4373534 0)
(0.0185467 0.4188787 0)
(0.02087823 0.4006844 0)
(0.02306058 0.3827174 0)
(0.02508417 0.3649521 0)
(0.02693815 0.3473253 0)
(0.02862143 0.3295753 0)
(0.03012245 0.3114514 0)
(0.0314245 0.2929376 0)
(0.03252131 0.2741214 0)
(0.03340747 0.2551106 0)
(0.03408418 0.2359907 0)
(0.03455203 0.2168213 0)
(0.03482351 0.1976839 0)
(0.03489382 0.1786491 0)
(0.0347755 0.1597176 0)
(0.03447469 0.1408692 0)
(0.03400327 0.1220746 0)
(0.03337291 0.1032971 0)
(0.03259653 0.08449693 0)
(0.03168755 0.06563992 0)