# Region type : patch riser
# Faces        : 200
# Area         : 6.7000000e-01
# Scale factor : 1.0000000e+00
# Time         	areaAverage(T)
4000           	3.8876202e+02
4100           	3.8880736e+02
4200           	3.8881014e+02
