# Region type : patch riser
# Faces        : 200
# Area         : 6.7000000e-01
# Scale factor : 1.0000000e+00
# Time         	areaAverage(T)
3600           	3.8499630e+02
3700           	3.8501374e+02
3800           	3.8504787e+02
3900           	3.8510581e+02
