/*--------------------------------*- C++ -*----------------------------------*\
| =========                 |                                                 |
| \\      /  F ield         | OpenFOAM: The Open Source CFD Toolbox           |
|  \\    /   O peration     | Version:  2312                                  |
|   \\  /    A nd           | Website:  www.openfoam.com                      |
|    \\/     M anipulation  |                                                 |
\*---------------------------------------------------------------------------*/
FoamFile
{
    version     2.0;
    format      ascii;
    arch        "LSB;label=32;scalar=64";
    class       volScalarField;
    location    "3600";
    object      alphat;
}
// * * * * * * * * * * * * * * * * * * * * * * * * * * * * * * * * * * * * * //

dimensions      [1 -1 -1 0 0 0 0];

internalField   nonuniform List<scalar> 
12000
(
4.14265e-05
0.000161669
0.0001774506
0.0001851993
0.000180768
0.0001817456
0.0002017387
0.0002199611
0.0002036461
0.0001754216
0.0001729042
0.0002040069
0.0002235769
0.0001898848
0.0001633585
0.0001749542
0.0002091695
0.0002022382
0.0001690594
0.0001625703
0.0001828239
0.000194934
0.000177961
0.0001649085
0.0001694783
0.000179387
0.0001779291
0.0001691462
0.0001654148
0.0001686061
0.0001719171
0.0001701817
0.0001662201
0.0001611653
0.0001568703
0.0001646716
0.0001816434
0.000178287
0.000157218
0.0001427517
0.0001501904
0.0001894165
0.0001969918
0.0001503879
0.000121326
0.0001359779
0.0002257362
0.0002602749
0.0001346353
9.998302e-05
0.0001301522
0.0002452875
0.0001904822
9.871403e-05
0.0001018944
0.0001334226
0.0001225333
8.617999e-05
7.434247e-05
6.074388e-05
2.517053e-05
0.0001975875
0.0002248467
0.000288127
0.0003251273
0.0003696336
0.0004190744
0.0004689964
0.0005275075
0.0005976112
0.0006761434
0.0007347867
0.0007880647
0.0008623418
0.0009581282
0.001035578
0.001081091
0.001139564
0.001235164
0.001329562
0.001383789
0.001425256
0.001496538
0.001582731
0.001646423
0.00168609
0.001731549
0.001791931
0.001849761
0.001888772
0.001914193
0.001940355
0.001973739
0.001995637
0.002007496
0.001999252
0.001975883
0.001969162
0.001973392
0.001973681
0.00193889
0.001869776
0.001812924
0.001535221
0.001753918
0.00166954
0.001536384
0.001319673
0.0009427034
0.001294921
0.001150517
0.001000072
0.0007831154
0.0007554537
0.0006163334
0.0004784979
0.0003445269
0.0002132763
0.0001118073
5.747852e-05
3.020054e-05
0.0002813
0.0003627967
0.0004444023
0.0005443764
0.0006626182
0.0007917441
0.0009227053
0.001061088
0.001208622
0.001352688
0.001492269
0.001627179
0.001763025
0.001898951
0.002023629
0.002137883
0.00224933
0.002358836
0.002459922
0.002549464
0.002632858
0.002712905
0.002787007
0.002852499
0.002910869
0.002964516
0.003013425
0.003056443
0.003093186
0.003124653
0.003150601
0.003174704
0.003193082
0.003206145
0.003213706
0.003216548
0.003214806
0.003207698
0.003194677
0.003177275
0.003154201
0.003123201
0.003082351
0.003028335
0.002971388
0.002792919
0.002614066
0.002554141
0.002506081
0.002268478
0.002007281
0.001889312
0.001522277
0.001208086
0.001070543
0.0008666043
0.0004909513
0.0001836834
5.649087e-05
2.947025e-05
0.0003044824
0.0004461066
0.0005760582
0.0007360295
0.0009175606
0.001111486
0.001312055
0.00151497
0.001724831
0.001927697
0.002118935
0.002299272
0.002466017
0.00262298
0.002768403
0.002902901
0.003027689
0.0031431
0.003248841
0.003345684
0.003434525
0.003515885
0.003589857
0.003656723
0.003716831
0.003770364
0.003817411
0.00385788
0.003892107
0.003919966
0.003941155
0.003957181
0.00396701
0.003970222
0.0039667
0.003956395
0.003939235
0.003915158
0.003883999
0.003842506
0.003791347
0.003729405
0.003657032
0.00357287
0.003475407
0.00336298
0.00323502
0.003087909
0.002921117
0.002736192
0.002345834
0.001919906
0.001741817
0.001700004
0.001376779
0.001010216
0.0006274394
0.0002638242
5.630534e-05
2.919081e-05
0.0003310927
0.000528902
0.0007062305
0.0009176308
0.001150385
0.001393863
0.001640407
0.001882153
0.002116386
0.00234231
0.002556069
0.002758337
0.002943825
0.003113522
0.00327139
0.003419173
0.003558546
0.003685172
0.003799609
0.003904176
0.003999859
0.00408725
0.004166674
0.004238538
0.004303167
0.004360766
0.004411504
0.004455506
0.004492386
0.004522456
0.004546423
0.004564206
0.004575214
0.004579008
0.004575404
0.004564647
0.004546379
0.004521255
0.004488221
0.004446934
0.004396552
0.0043362
0.004265989
0.004184462
0.004090467
0.003982368
0.003858002
0.003714597
0.003554116
0.003134448
0.003010336
0.002867231
0.002552977
0.002198068
0.001785129
0.0013159
0.0008028415
0.0003225071
5.593956e-05
2.954642e-05
0.0003472234
0.0005959937
0.0008134174
0.001062641
0.001331377
0.00160747
0.001882046
0.0021479
0.002401511
0.002643717
0.002875685
0.003092151
0.003293087
0.00347684
0.003643773
0.003795014
0.003930682
0.004057856
0.004178111
0.004290772
0.004395591
0.004492647
0.004582134
0.004664234
0.004739042
0.004806544
0.00486664
0.004918697
0.00496391
0.00500126
0.005030558
0.005051706
0.005064765
0.005069289
0.005064594
0.005051575
0.005029605
0.004996983
0.004954149
0.004901291
0.004837734
0.004762795
0.004675572
0.004574598
0.00445893
0.004327029
0.004177958
0.004006904
0.003815777
0.003592565
0.003333846
0.003039916
0.002705917
0.002326535
0.001898029
0.001417995
0.0008959012
0.0003811618
5.564104e-05
2.981517e-05
0.0003563152
0.0006512362
0.0009011322
0.001173452
0.001460808
0.00175421
0.002046453
0.002333294
0.00260449
0.002858394
0.003092325
0.003310891
0.00351472
0.003704428
0.003879055
0.004039502
0.004187855
0.004326695
0.004457546
0.004581064
0.004697482
0.004806852
0.004909139
0.005004239
0.005091974
0.005172093
0.005242437
0.005307058
0.00536262
0.005409074
0.005446208
0.005473697
0.005491688
0.005499853
0.005497848
0.005484624
0.005460276
0.005425038
0.005378574
0.00532056
0.00525059
0.005168147
0.005072562
0.004963108
0.004838748
0.004698657
0.004541163
0.004359514
0.00415462
0.003919424
0.003650422
0.003341805
0.002989165
0.00258312
0.002115664
0.001584432
0.0009992964
0.0004228893
5.558218e-05
3.104939e-05
0.0003558779
0.0006877859
0.0009647578
0.001253076
0.00155783
0.001865588
0.002167997
0.002456806
0.002732123
0.002990698
0.003231678
0.003456087
0.003664783
0.003860015
0.00404359
0.004215755
0.004377276
0.004529598
0.00467402
0.004811359
0.004941988
0.005065957
0.005183093
0.005293076
0.005395474
0.005489581
0.005574975
0.005651878
0.00571905
0.005775994
0.005822212
0.005857608
0.00588158
0.005893566
0.005893335
0.005880619
0.005855073
0.005816402
0.005764284
0.005698356
0.005618198
0.005523308
0.005413095
0.005286794
0.005143644
0.004982422
0.004801028
0.004595243
0.004367095
0.004109922
0.003819993
0.003491125
0.003115526
0.002688763
0.002204838
0.001659639
0.001060245
0.0004603877
5.541216e-05
3.236772e-05
0.0003522497
0.0007146567
0.001015676
0.00131839
0.001626711
0.001936905
0.002241085
0.002533722
0.002812286
0.003075013
0.003321477
0.003552314
0.00376863
0.003971854
0.004164063
0.004347261
0.004522314
0.004689657
0.004849842
0.005003338
0.005150362
0.005290845
0.005424468
0.005550734
0.00566904
0.005776614
0.00587724
0.005967458
0.006046554
0.00611389
0.00616899
0.006211806
0.00624156
0.006257639
0.006259572
0.006246964
0.006219458
0.006176728
0.006118457
0.006044317
0.005953957
0.005846972
0.005722878
0.005581023
0.005420583
0.005240675
0.005039282
0.004812593
0.004564244
0.004290883
0.003987684
0.003649224
0.003266504
0.002826785
0.002322302
0.001750656
0.00112032
0.000488954
5.536457e-05
3.291082e-05
0.0003468333
0.0007263464
0.001048633
0.001357829
0.001669124
0.001980082
0.002285034
0.002579422
0.002860536
0.003127097
0.003379019
0.00361701
0.003842193
0.004055856
0.004259419
0.004454524
0.004642686
0.004824711
0.00500089
0.005171307
0.005335588
0.005493201
0.005643469
0.005785563
0.005918512
0.006040085
0.006152504
0.006254422
0.006344673
0.00642223
0.006486195
0.006535836
0.006570427
0.006589358
0.006592106
0.006578228
0.006547336
0.006499088
0.006433171
0.006349291
0.006247162
0.006126513
0.005987086
0.005828718
0.005649897
0.005450342
0.005230483
0.00498826
0.004723123
0.004431381
0.004110058
0.003752945
0.00335237
0.00289644
0.002379413
0.001797501
0.001156754
0.0005110904
5.521912e-05
3.381498e-05
0.0003394505
0.0007332368
0.001073597
0.001390595
0.001702868
0.002011804
0.002314128
0.002606694
0.00288758
0.003156023
0.003412134
0.003656656
0.003890682
0.004115485
0.004332312
0.004541812
0.004744341
0.004940166
0.005128968
0.005311153
0.005488499
0.005660056
0.005824889
0.005982035
0.00613053
0.00626893
0.006396752
0.00651152
0.006612482
0.006698822
0.006769802
0.006824823
0.006862969
0.006883535
0.006885951
0.006869752
0.006834551
0.006780015
0.006705855
0.00661181
0.006497641
0.006363124
0.006208052
0.006032244
0.005836806
0.005620711
0.005382386
0.00511739
0.004713336
0.00438755
0.004139852
0.003828777
0.003422962
0.002963604
0.002439691
0.00184567
0.001189588
0.0005280482
5.518765e-05
3.49076e-05
0.0003275202
0.0007283982
0.001082192
0.001404301
0.001715506
0.002021286
0.002321052
0.00261297
0.002895514
0.00316785
0.00342995
0.003682271
0.003925255
0.004159224
0.004383796
0.004601591
0.004814021
0.00502213
0.005226803
0.005427409
0.005621509
0.00580878
0.005988582
0.00615991
0.006321551
0.006471942
0.006610133
0.006734521
0.006843872
0.006937063
0.007013085
0.007071004
0.007110243
0.007130278
0.007130628
0.007110872
0.007070656
0.00700969
0.00692774
0.006824623
0.00670019
0.006554305
0.006386815
0.006197464
0.005985877
0.005752599
0.005317571
0.004887645
0.004531361
0.004270183
0.004078185
0.003874675
0.003468631
0.00300361
0.002472313
0.001871865
0.001209405
0.0005399536
5.505469e-05
3.593243e-05
0.0003160992
0.0007174259
0.001082181
0.001410625
0.001722586
0.002026264
0.00232316
0.00261257
0.002893647
0.003165961
0.003429148
0.003682081
0.003830592
0.003955794
0.004112697
0.004305172
0.004524363
0.004760624
0.005080835
0.005443078
0.005738945
0.005938515
0.006130552
0.006313395
0.006485523
0.006645539
0.006792103
0.006923818
0.007039423
0.007137774
0.00721787
0.007278851
0.007319879
0.007340245
0.007339361
0.007316747
0.007272022
0.007204895
0.007115156
0.007002672
0.00686738
0.006709278
0.006528413
0.006324983
0.00594773
0.005521211
0.00512378
0.004761595
0.004446802
0.00419702
0.004007429
0.003835142
0.003501601
0.00303556
0.002502047
0.001896062
0.001225994
0.0005487724
5.502685e-05
3.671204e-05
0.0003065919
0.0007053955
0.001078959
0.001412661
0.001725237
0.002026649
0.002320212
0.002606514
0.002885295
0.003155814
0.003416687
0.003580375
0.003712118
0.003866672
0.00402809
0.004202122
0.004395955
0.004641625
0.004900399
0.005178497
0.005473295
0.005800099
0.006141914
0.006429964
0.006610714
0.006779048
0.006933465
0.007071995
0.007193515
0.00729676
0.007380592
0.007444011
0.007486127
0.007506173
0.00750353
0.007477706
0.007428341
0.00735519
0.007258122
0.007137112
0.006992234
0.006823632
0.006587519
0.006182947
0.005762115
0.005349776
0.004977608
0.004641796
0.004350939
0.004117934
0.003953336
0.003805362
0.003523076
0.003056073
0.002519344
0.001909485
0.00123572
0.0005543873
5.491911e-05
3.735902e-05
0.0002978536
0.0006906394
0.001067991
0.00140717
0.001721177
0.002020978
0.002311558
0.002594602
0.002870218
0.00313775
0.003379969
0.003540424
0.003698123
0.003844834
0.003985825
0.004136615
0.004318081
0.004519126
0.004766906
0.005038723
0.005323827
0.005616601
0.0059181
0.006228738
0.006545756
0.00685031
0.007038687
0.007183213
0.007309919
0.007417354
0.007504301
0.007569699
0.007612608
0.007632202
0.007627836
0.007599043
0.007545499
0.007467017
0.007363525
0.007235124
0.007075524
0.006753018
0.006392635
0.006017865
0.005633606
0.00525208
0.004883157
0.004549229
0.004274244
0.004061399
0.003901644
0.003760671
0.003538458
0.003071223
0.002532599
0.001920617
0.001243227
0.0005582949
5.486288e-05
3.787427e-05
0.0002898171
0.0006753441
0.00105589
0.001398063
0.001713016
0.00201133
0.002298899
0.002578317
0.002850415
0.003115171
0.003372182
0.003544927
0.003675996
0.003803625
0.003960069
0.004126443
0.004315701
0.004517765
0.004730112
0.004964524
0.00521695
0.005484256
0.005763074
0.006048322
0.006335626
0.00662059
0.006896197
0.007154773
0.007378691
0.007503095
0.00759296
0.007660229
0.007703879
0.00772309
0.007717228
0.007685873
0.007628779
0.007545884
0.007395514
0.007170576
0.006905174
0.006602667
0.006262895
0.00589696
0.005523583
0.005160749
0.004819951
0.004507349
0.00422741
0.004000204
0.00384215
0.003730316
0.003547737
0.003080112
0.002540508
0.001926475
0.001246744
0.0005596228
5.480446e-05
3.828066e-05
0.000282737
0.0006601024
0.001040624
0.001385226
0.001701223
0.001998459
0.002283387
0.002559389
0.002827967
0.00308959
0.003344132
0.003536392
0.003684031
0.00382418
0.003968766
0.004141313
0.004321098
0.004523213
0.004734089
0.004961409
0.005196062
0.005438684
0.005691411
0.005955543
0.006228064
0.006499352
0.006757193
0.006992693
0.007201733
0.007384636
0.007551972
0.007720869
0.007765247
0.007716701
0.007680642
0.00763167
0.007552556
0.007434768
0.007272364
0.007061213
0.006799456
0.006492078
0.006151662
0.005794361
0.005434437
0.005084079
0.00475323
0.004450634
0.00418657
0.003972514
0.003813332
0.003695183
0.003528938
0.003086478
0.002546891
0.00193173
0.001250879
0.0005614318
5.474379e-05
3.860427e-05
0.0002766653
0.0006457732
0.001024443
0.001370382
0.001686879
0.001983107
0.002265716
0.002538699
0.002804223
0.003063378
0.003316706
0.003557796
0.003715937
0.003861253
0.004012926
0.004175503
0.004360433
0.004565263
0.004784051
0.004996579
0.005211749
0.005432188
0.005661814
0.005904035
0.006158699
0.006419667
0.006675071
0.00691082
0.007115866
0.007291743
0.007460765
0.007671872
0.00773897
0.007654148
0.007604619
0.007554914
0.007481678
0.0073684
0.00720472
0.00698752
0.006720625
0.006412452
0.006074931
0.005722634
0.005370036
0.005028823
0.004706969
0.004410216
0.004147081
0.003932032
0.003777276
0.003668564
0.003514988
0.003088113
0.00254823
0.001932785
0.001250998
0.0005613979
5.469617e-05
3.886688e-05
0.0002717676
0.0006323649
0.00100781
0.001353776
0.001670541
0.001965929
0.002246626
0.002517084
0.002780021
0.003037039
0.003289102
0.003537265
0.003763286
0.003920962
0.004077856
0.004250037
0.004440777
0.004641436
0.004848394
0.005054916
0.005259355
0.005463092
0.005673026
0.005896358
0.006135817
0.006386497
0.006636278
0.006869876
0.007075363
0.00725315
0.007427044
0.007655089
0.007749951
0.007665696
0.007598562
0.007538066
0.007459947
0.007343706
0.007176894
0.006955337
0.006682617
0.006368822
0.006028365
0.00567685
0.005328054
0.004992244
0.004676323
0.004385602
0.00412797
0.003916521
0.003762233
0.003652767
0.003502692
0.003090134
0.002550117
0.001933833
0.001252034
0.000562036
5.465481e-05
3.907355e-05
0.0002681394
0.0006210909
0.0009917808
0.001336514
0.001652921
0.00194748
0.002226616
0.002495055
0.002755965
0.003011433
0.003262903
0.003511534
0.003758945
0.004004579
0.004177229
0.004348536
0.004536895
0.004741768
0.004949355
0.005153352
0.005345164
0.005531898
0.005721986
0.005925837
0.00614963
0.006390838
0.00663786
0.006874332
0.007086618
0.007271351
0.007438574
0.007606048
0.007775047
0.007762585
0.007628781
0.007548544
0.007464989
0.007344561
0.007171151
0.006940972
0.006659428
0.006338505
0.005993806
0.005641248
0.005294167
0.004961848
0.004649992
0.004362903
0.004107947
0.003898621
0.003746824
0.003641031
0.00349629
0.003090106
0.002549939
0.001933511
0.0012514
0.0005614463
5.459985e-05
3.924087e-05
0.0002657423
0.0006107381
0.0009764462
0.001319143
0.001634737
0.001928358
0.002206172
0.002473009
0.002732357
0.002986666
0.003237708
0.00348684
0.003735165
0.003984626
0.004235816
0.00448183
0.004672613
0.004869269
0.005073006
0.005270699
0.005455402
0.005627822
0.005797663
0.005980173
0.006185925
0.006415266
0.006657272
0.006894224
0.007109911
0.007297984
0.007465346
0.007626846
0.007797114
0.007804435
0.007675438
0.007582359
0.007485198
0.007354548
0.007172788
0.00693452
0.006645071
0.006317471
0.005968457
0.005614399
0.00526827
0.00493852
0.004630001
0.004346366
0.004094396
0.003887161
0.003736402
0.003631192
0.003488624
0.003089735
0.002549326
0.001932818
0.001250882
0.0005612778
5.457757e-05
3.939485e-05
0.0002641996
0.0006021646
0.0009621748
0.00130208
0.001616314
0.001908963
0.00218567
0.00245128
0.002709488
0.002963029
0.003213945
0.003463817
0.003713917
0.0039653
0.004218391
0.004474582
0.004733361
0.004993471
0.005221626
0.005409578
0.005585185
0.005744847
0.005895693
0.006054446
0.006238289
0.006452241
0.006686812
0.006922763
0.00714027
0.007328503
0.007491216
0.007645864
0.007819597
0.007840874
0.007715885
0.00761489
0.007507428
0.007367342
0.007177131
0.006930891
0.006634076
0.006300469
0.00594758
0.005592059
0.005246559
0.004918826
0.00461296
0.00433205
0.004082522
0.003877388
0.003728561
0.003625427
0.00348537
0.00308902
0.00254837
0.001931564
0.001249627
0.0005604297
5.452113e-05
3.95357e-05
0.0002638664
0.0005953324
0.000949261
0.001285807
0.001598275
0.001889797
0.002165526
0.002430215
0.002687684
0.002940873
0.003192038
0.003442929
0.003694896
0.00394893
0.004205627
0.004465238
0.004727282
0.004990893
0.005255387
0.005518701
0.00573781
0.005882325
0.006006605
0.006137734
0.006296239
0.00649167
0.006716459
0.006950131
0.007169286
0.007358662
0.007518527
0.007665884
0.007831672
0.007863631
0.007752409
0.007647395
0.007530707
0.007381743
0.007183733
0.006930286
0.006626844
0.006287791
0.005931303
0.005574285
0.005229124
0.004902986
0.004599349
0.004320851
0.00407358
0.00387032
0.003722881
0.003620753
0.003481848
0.003087926
0.002547011
0.001930097
0.00124854
0.0005599348
5.451006e-05
3.969256e-05
0.0002640759
0.0005895994
0.000937732
0.001270445
0.001580875
0.001871184
0.002146087
0.002410191
0.002667373
0.002920727
0.003172677
0.0034251
0.003679407
0.003936562
0.004197065
0.004460923
0.004727608
0.004996082
0.005264813
0.005531546
0.005794655
0.006034463
0.006148974
0.006245216
0.006369845
0.006540424
0.006751506
0.006980862
0.007200848
0.007390871
0.007546768
0.00768508
0.007842369
0.007884449
0.00778431
0.007676472
0.007553731
0.00739789
0.007192869
0.006932511
0.006622671
0.006278387
0.005918411
0.005559837
0.005214796
0.00488992
0.004588132
0.004311681
0.004066436
0.003865062
0.003719366
0.003618826
0.003481117
0.003087182
0.002545867
0.001928648
0.001246985
0.000558999
5.445966e-05
3.984018e-05
0.0002652159
0.0005856395
0.0009277338
0.00125661
0.001564742
0.001853748
0.002127927
0.002391746
0.002649108
0.002903211
0.0031566
0.003411241
0.003668568
0.003929496
0.004194404
0.004463117
0.004734927
0.005008591
0.005282372
0.005554118
0.005821374
0.00608144
0.00629556
0.006381495
0.006469222
0.006606579
0.006797523
0.007018939
0.007238939
0.007432095
0.007588518
0.007713401
0.007817115
0.007898047
0.007848191
0.007705708
0.007573556
0.007413939
0.007204294
0.006937946
0.006621903
0.006272374
0.005908834
0.005548558
0.005203407
0.004879508
0.004579269
0.004304588
0.004061147
0.003861467
0.003717242
0.003617783
0.003480548
0.003086617
0.002544666
0.001927167
0.001245718
0.0005584466
5.445651e-05
4.000258e-05
0.0002663985
0.0005820737
0.0009186035
0.001243608
0.001549467
0.001837344
0.002111139
0.002375175
0.002633359
0.002888966
0.003144624
0.003402345
0.003663547
0.003929058
0.004199103
0.004473309
0.004750747
0.00502995
0.005308968
0.005585465
0.005856855
0.006120367
0.006373164
0.006520484
0.006590468
0.006694003
0.006859005
0.007067318
0.007283301
0.007475623
0.007629417
0.00774649
0.007836432
0.007908825
0.007869988
0.007737243
0.007601836
0.007435641
0.007219131
0.006946058
0.00662375
0.006269039
0.005901948
0.005539904
0.005194508
0.004871388
0.004572452
0.004299272
0.004057427
0.003859375
0.003716764
0.003618683
0.003481874
0.003086012
0.002543553
0.00192578
0.001244388
0.0005575506
5.441552e-05
4.017536e-05
0.0002684475
0.0005799276
0.0009114959
0.001232655
0.001536181
0.001822929
0.002096551
0.002361241
0.002620885
0.002878786
0.003137602
0.003399334
0.003665332
0.003936287
0.004212229
0.004492549
0.004776063
0.005061047
0.005345335
0.005626443
0.00590161
0.00616811
0.006423129
0.006664
0.006731193
0.006804059
0.006940344
0.007131225
0.007339203
0.007527338
0.007675467
0.007782854
0.007860608
0.00792592
0.007893499
0.007767493
0.007630497
0.007459489
0.007236758
0.006956959
0.006628241
0.00626824
0.005897514
0.005533593
0.005187793
0.00486526
0.004567423
0.004295529
0.00405508
0.003858483
0.003717303
0.003620306
0.003483495
0.003085692
0.002542836
0.001924639
0.001243212
0.0005569016
5.441755e-05
4.038418e-05
0.0002702977
0.0005702452
0.0009050062
0.001222346
0.00152386
0.001809936
0.002083967
0.002350035
0.002611998
0.00287316
0.003136162
0.003402937
0.003674704
0.003951958
0.004234484
0.004521397
0.004811238
0.00510203
0.005391399
0.005676577
0.005955065
0.006223792
0.006479969
0.006720939
0.006858326
0.006922053
0.007031745
0.007202517
0.00739969
0.007581935
0.007724115
0.007822807
0.007891264
0.007945025
0.007912141
0.007795193
0.007659822
0.007485479
0.007256848
0.00697024
0.006634977
0.006269589
0.005895185
0.005529394
0.005183196
0.004861176
0.004564243
0.004293357
0.004054058
0.003858821
0.003719145
0.003623416
0.003486629
0.003085696
0.002542114
0.001923652
0.001242194
0.0005562082
5.438674e-05
4.06045e-05
0.000272536
0.0005603179
0.0009010994
0.001214594
0.001514069
0.001799665
0.002074545
0.00234266
0.0026078
0.002873213
0.003141451
0.003414308
0.003692797
0.003977153
0.004266867
0.004560748
0.004857033
0.005153497
0.005447443
0.005736451
0.006017439
0.00628756
0.006544084
0.006784473
0.006979812
0.00704359
0.007134772
0.00728661
0.00747054
0.007643963
0.007778764
0.00786953
0.007926896
0.007966868
0.007933031
0.007824676
0.007691184
0.007514054
0.007279827
0.006986396
0.006644458
0.006273587
0.0058954
0.005527484
0.005180395
0.004858405
0.004562165
0.004292308
0.004054194
0.003860248
0.003721809
0.003627039
0.003490018
0.003086487
0.002542153
0.001923171
0.001241395
0.0005556557
5.439264e-05
4.084842e-05
0.0002746459
0.0005522292
0.0008971906
0.001207339
0.001505351
0.001791153
0.002067721
0.002338867
0.002608282
0.002879101
0.00315372
0.00343372
0.003719841
0.004012004
0.004309367
0.004610415
0.004913104
0.005214739
0.005513092
0.005805069
0.006087793
0.006358463
0.006614451
0.00685335
0.007073241
0.007159936
0.007241366
0.007377172
0.007547706
0.007710718
0.007836483
0.007918009
0.00796491
0.007991272
0.007955373
0.007854866
0.007723607
0.007544244
0.007304748
0.007004539
0.006655707
0.006278929
0.005896513
0.005526651
0.005179322
0.004858058
0.004562478
0.004293112
0.00405566
0.003862937
0.003726104
0.003632374
0.003494849
0.00308764
0.002542377
0.001922608
0.001240671
0.0005551084
5.437158e-05
4.109039e-05
0.0002771135
0.0005458372
0.0008952754
0.001202901
0.001499712
0.001786211
0.002065161
0.002340226
0.002614941
0.002892255
0.003174324
0.003462434
0.00375698
0.00405751
0.0043628
0.004671
0.004979312
0.005285966
0.005587788
0.005881891
0.006165435
0.006435714
0.00669023
0.0069268
0.007143337
0.007272992
0.007353964
0.007475488
0.007631318
0.007782128
0.007897522
0.007969339
0.008005698
0.008018778
0.007980526
0.007887257
0.007758137
0.007576704
0.007332108
0.007025238
0.006669849
0.006288306
0.005903224
0.005531613
0.005181899
0.004858384
0.004563162
0.004295366
0.004060117
0.003868406
0.003731425
0.003637987
0.003500525
0.003089218
0.002543083
0.001922646
0.001240301
0.0005546754
5.437938e-05
4.134174e-05
0.0002793726
0.0005395654
0.0008887591
0.001198704
0.001495185
0.001783268
0.002065649
0.002345807
0.002627055
0.002912078
0.003202714
0.003499879
0.003803561
0.004112885
0.004426068
0.004740399
0.005054686
0.005365557
0.005670146
0.005965586
0.006249117
0.006518166
0.006770401
0.007003851
0.007216566
0.007376318
0.007461224
0.007574122
0.007716996
0.007854695
0.007958316
0.008019742
0.00804601
0.008047008
0.00800666
0.00792015
0.007793273
0.007610142
0.007360955
0.007047987
0.006686282
0.006298001
0.005906009
0.005529283
0.005180693
0.004860906
0.004566992
0.004299236
0.004063526
0.003872334
0.003737197
0.003644528
0.003505264
0.003091176
0.00254409
0.001922893
0.001239986
0.0005543657
5.436905e-05
4.157909e-05
0.0002819704
0.0005350131
0.0008782147
0.001197672
0.001494343
0.001784862
0.002071643
0.00235794
0.002646799
0.002940572
0.003240687
0.003547569
0.003860557
0.004177683
0.004497939
0.004819427
0.005138732
0.005453062
0.005759556
0.006055427
0.006338048
0.006605017
0.006854213
0.007083759
0.007292082
0.007471732
0.007564615
0.007673546
0.007804906
0.007928998
0.008020612
0.008072723
0.008090727
0.008081134
0.008038746
0.007957794
0.007832284
0.00764665
0.007391596
0.007070606
0.006700206
0.006304915
0.005909984
0.005533394
0.005183772
0.00486332
0.004569575
0.00430273
0.004068128
0.003877687
0.003742128
0.00364902
0.003509396
0.003093411
0.002545358
0.001923331
0.00123993
0.0005540475
5.437217e-05
4.183191e-05
0.0002842285
0.0005299446
0.000869158
0.001196853
0.001494562
0.00178817
0.002080484
0.002374307
0.002672277
0.002976235
0.003286828
0.003603381
0.003925048
0.004251365
0.004579345
0.004906512
0.005230014
0.005546948
0.00585448
0.006149931
0.006430834
0.00669498
0.006940447
0.007165576
0.007368996
0.007549589
0.007663613
0.007771579
0.00789227
0.008002605
0.008081337
0.008122511
0.008129155
0.008110572
0.008067086
0.007992499
0.007868274
0.007680547
0.007420588
0.007093208
0.006716538
0.006316831
0.005918825
0.005540135
0.005189123
0.004867724
0.004574215
0.004307446
0.004072579
0.003882098
0.003748061
0.003657121
0.003517838
0.00309627
0.002547134
0.001924193
0.001240042
0.0005539831
5.437669e-05
4.208424e-05
0.0002867227
0.0005273895
0.0008615549
0.001199334
0.00149939
0.001797808
0.002096987
0.002399616
0.002707447
0.00302121
0.003341177
0.003667832
0.003999648
0.004334132
0.004668844
0.005001051
0.00532788
0.005646474
0.005954108
0.006248259
0.006526615
0.006787241
0.007028391
0.007248631
0.007446797
0.007621962
0.007771251
0.007881365
0.007989549
0.008081244
0.008133741
0.008161147
0.008163607
0.008141367
0.008094724
0.008024019
0.007905814
0.007716486
0.00745123
0.007117108
0.006733916
0.006328302
0.005926233
0.005545495
0.005194446
0.004873545
0.004580365
0.004313884
0.004079321
0.003889095
0.003754771
0.003663099
0.00352285
0.003099242
0.002549054
0.001925196
0.001240361
0.0005539102
5.437544e-05
4.23349e-05
0.000289033
0.0005244602
0.0008536499
0.00120265
0.001505665
0.001810193
0.002117389
0.002428855
0.002746452
0.003071326
0.003403211
0.00374055
0.004081578
0.004423883
0.004764737
0.005101288
0.00543067
0.00575012
0.006057064
0.006349165
0.006624313
0.006880827
0.007117173
0.007332123
0.007524686
0.007694084
0.007839726
0.007961176
0.008058125
0.008130398
0.008177953
0.008200859
0.008199282
0.008173464
0.008123697
0.008050296
0.007943481
0.007753735
0.00748361
0.007142729
0.006752786
0.006342078
0.005936714
0.005554197
0.005202103
0.004880645
0.004587132
0.004320323
0.004085439
0.003895159
0.003761379
0.003670676
0.003530226
0.003102788
0.00255147
0.001926599
0.001240922
0.0005539954
5.438435e-05
4.259786e-05
0.0002912557
0.0005223619
0.0008465846
0.001207654
0.001514656
0.001825359
0.002141159
0.002463601
0.002793326
0.00313024
0.003473431
0.003821156
0.004171122
0.00452065
0.004866874
0.005206913
0.005537967
0.005857414
0.006162864
0.0064522
0.006723565
0.006975473
0.007206617
0.007415961
0.00760268
0.007766145
0.007905887
0.008021584
0.008113035
0.008180155
0.008222957
0.008241544
0.008236092
0.008206843
0.008154072
0.008078064
0.007976268
0.007787173
0.007514188
0.007167655
0.006771417
0.006355602
0.00594693
0.005562715
0.005209965
0.004888261
0.00459452
0.004327381
0.004092143
0.003901625
0.003767794
0.0036771
0.003536127
0.003106361
0.002553931
0.001928047
0.001241537
0.0005541442
5.439416e-05
4.285316e-05
0.0002934048
0.0005210217
0.0008409368
0.001214558
0.001526791
0.001845421
0.002171398
0.002505414
0.0028474
0.003196469
0.003550998
0.003908749
0.00426707
0.00462308
0.004973846
0.00531652
0.005648422
0.005967106
0.006270404
0.006556301
0.00682345
0.007070402
0.007296086
0.007499655
0.007680454
0.007837996
0.007971934
0.008082043
0.008168204
0.008230391
0.008268656
0.008283124
0.008273976
0.008241447
0.00818579
0.008107262
0.008006122
0.007822485
0.007546446
0.00719336
0.006790626
0.006369968
0.005958308
0.005572522
0.005219013
0.004896852
0.00460265
0.004334942
0.00409913
0.003908269
0.003774542
0.003684295
0.003543135
0.003110361
0.002556783
0.001929851
0.001242417
0.0005543135
5.439914e-05
4.3104e-05
0.0002955073
0.0005203381
0.0008365695
0.001223369
0.001542016
0.001869749
0.002206878
0.002553247
0.002907932
0.003269264
0.00363496
0.00400231
0.004368367
0.004730114
0.005084618
0.005429122
0.005761109
0.00607834
0.006378877
0.00666097
0.00692348
0.007165196
0.007385253
0.007582982
0.007757883
0.007909596
0.008037881
0.008142592
0.008223673
0.00828114
0.008315072
0.008325605
0.00831292
0.008277237
0.008218789
0.008137802
0.008034501
0.007857574
0.007578576
0.007219211
0.006810318
0.006385036
0.005970483
0.005583137
0.005228834
0.004906133
0.004611345
0.004342936
0.004106429
0.003915099
0.003781301
0.003691289
0.00354986
0.003114396
0.002559646
0.00193166
0.001243365
0.0005546554
5.440518e-05
4.334731e-05
0.0002975783
0.0005202092
0.0008333912
0.001234161
0.001560298
0.00189819
0.002247368
0.002606721
0.002974401
0.003347942
0.003724457
0.004100832
0.004473903
0.004840593
0.005198031
0.005543604
0.005874995
0.006190198
0.006487516
0.006765483
0.007023117
0.007259463
0.007473849
0.007665772
0.007834876
0.007980914
0.008103732
0.008203255
0.00827947
0.008332425
0.008362216
0.008368983
0.0083529
0.008314173
0.008253011
0.00816961
0.008064164
0.007893341
0.007611157
0.007245528
0.00683068
0.006401005
0.005983697
0.005594809
0.005239622
0.004916226
0.004620667
0.004351365
0.004113989
0.003922058
0.003788146
0.00369843
0.003556816
0.003118708
0.002562771
0.001933675
0.001244409
0.0005550026
5.440574e-05
4.358478e-05
0.0002996328
0.000520637
0.0008312566
0.001247056
0.001581726
0.001930741
0.00229269
0.002665442
0.003046196
0.00343172
0.003818581
0.004203339
0.00458269
0.004953562
0.005313198
0.00565917
0.005989383
0.006302081
0.006595764
0.006869363
0.007121974
0.007352901