/*--------------------------------*- C++ -*----------------------------------*\
| =========                 |                                                 |
| \\      /  F ield         | OpenFOAM: The Open Source CFD Toolbox           |
|  \\    /   O peration     | Version:  2312                                  |
|   \\  /    A nd           | Website:  www.openfoam.com                      |
|    \\/     M anipulation  |                                                 |
\*---------------------------------------------------------------------------*/
FoamFile
{
    version     2.0;
    format      ascii;
    arch        "LSB;label=32;scalar=64";
    class       volScalarField;
    location    "3600";
    object      ILambda_13_0;
}
// * * * * * * * * * * * * * * * * * * * * * * * * * * * * * * * * * * * * * //

dimensions      [1 0 -3 0 0 0 0];

internalField   nonuniform List<scalar> 
12000
(
721.1324
696.5485
699.0588
697.9563
697.3711
696.4497
695.7121
695.3451
695.3132
695.4389
695.545
695.4989
695.2197
694.6842
693.9306
693.044
692.1283
691.2793
690.5648
690.0141
689.6175
689.3345
689.1082
688.881
688.6055
688.2518
687.8074
687.2736
686.659
685.9745
685.2294
684.429
683.5738
682.6592
681.6789
680.6253
679.4857
678.2627
676.9787
675.6617
674.3231
672.9537
671.5445
670.1286
668.7146
667.2266
665.4954
663.4071
660.903
657.8667
654.0369
649.049
642.5728
634.315
623.7661
610.278
593.3612
572.8153
548.8406
522.6011
695.7198
695.6193
696.323
695.4427
695.1615
694.9291
694.843
694.7238
694.4788
694.0648
693.4887
692.7893
692.0271
691.2711
690.5814
689.9954
689.5227
689.1472
688.8345
688.5414
688.2254
687.8527
687.4019
686.8645
686.2417
685.5411
684.7719
683.9427
683.0595
682.126
681.1442
680.1152
679.0409
677.9242
676.7693
675.5802
674.3617
673.1103
671.8043
670.3995
668.8322
667.021
664.8589
662.1919
658.8262
654.56
649.2126
642.5965
634.5025
624.7395
613.2056
599.9387
585.1216
569.1046
552.5377
536.459
522.2576
511.5857
506.1766
507.2388
693.763
694.8926
694.3547
694.067
693.8212
693.5157
693.1191
692.5955
691.9741
691.3012
690.6286
690.0003
689.4456
688.9737
688.573
688.2159
687.8666
687.4888
687.0527
686.5383
685.9373
685.2509
684.4878
683.6596
682.7787
681.8557
680.8981
679.9108
678.8957
677.852
676.7752
675.6563
674.4792
673.2179
671.833
670.268
668.4455
666.2644
663.6012
660.3142
656.2501
651.2491
645.1545
637.8282
629.1763
619.1687
607.8499
595.3492
581.9078
567.9045
553.8583
540.4044
528.2553
518.1541
510.7956
506.681
505.9474
508.2208
512.5243
517.3673
693.4049
693.1037
692.6066
692.2238
691.7324
691.1911
690.6058
690.0115
689.4399
688.9116
688.4329
687.9959
687.5816
687.1636
686.7147
686.2115
685.6384
684.9886
684.2638
683.4719
682.6246
681.7339
680.8102
679.8599
678.8844
677.8789
676.8315
675.7223
674.5217
673.1886
671.6686
669.8924
667.7748
665.2144
662.0962
658.2949
653.6816
648.133
641.5429
633.8346
624.9742
614.9843
603.9577
592.068
579.5741
566.8169
554.2111
542.2294
531.3768
522.1488
514.9788
510.1833
507.9101
508.0946
510.4342
514.4029
519.3269
524.522
529.4817
534.0623
691.7437
690.874
690.4307
689.899
689.3605
688.8307
688.3196
687.8336
687.3666
686.9047
686.4294
685.9213
685.3642
684.7469
684.0654
683.3218
682.5229
681.6776
680.7939
679.8766
678.9246
677.9294
676.8734
675.729
674.4573
673.0078
671.3175
669.311
666.9011
663.9903
660.4741
656.2459
651.2026
645.2537
638.3301
630.3949
621.4537
611.5641
600.8434
589.4731
577.699
565.8269
554.2116
543.2393
533.3041
524.7804
517.992
513.1804
510.474
509.8663
511.2071
514.211
518.4857
523.5789
529.0428
534.507
539.7416
544.687
549.4314
554.1258
689.5384
688.5927
688.1799
687.6544
687.1642
686.6715
686.1739
685.6576
685.1094
684.5182
683.8764
683.1812
682.4331
681.6353
680.791
679.9005
678.9587
677.9531
676.8615
675.6511
674.2777
672.6854
670.8074
668.5667
665.8779
662.6501
658.7908
654.2102
648.828
642.5799
635.426
627.3583
618.4087
608.6553
598.227
587.3049
576.1205
564.9492
554.0997
543.8996
534.6761
526.7347
520.3367
515.6771
512.8661
511.9158
512.7353
515.1345
518.8398
523.52
528.8213
534.4055
539.9866
545.3598
550.4141
555.1255
559.5282
563.6722
567.5807
571.2409
687.296
686.3586
685.9377
685.3911
684.855
684.2827
683.6742
683.0209
682.3188
681.5648
680.7555
679.8853
678.9439
677.9141
676.7697
675.4745
673.9814
672.2326
670.1609
667.6907
664.7414
661.2298
657.075
652.2028
646.5517
640.0788
632.7662
624.6273
615.7123
606.1121
595.9611
585.4365
574.7555
564.1684
553.9494
544.3833
535.7502
528.3086
522.2781
517.8232
515.0397
513.9457
514.4777
516.4942
519.7854
524.0903
529.1186
534.576
540.1898
545.7307
551.0284
555.9769
560.5302
564.687
568.4705
571.9053
575.0011
577.7462
580.1188
582.1203
684.9716
683.9584
683.4616
682.8152
682.1545
681.4341
680.6524
679.795
678.8462
677.7835
676.5769
675.1876
673.5671
671.6579
669.3944
666.7052
663.5153
659.7505
655.341
650.2265
644.3612
637.7194
630.3003
622.1331
613.2808
603.8425
593.9547
583.7893
573.5506
563.4682
553.7888
544.7645
536.6402
529.6399
523.9526
519.72
517.0261
515.8902
516.2641
518.0347
521.0312
525.0369
529.8055
535.0793
540.6079
546.1658
551.5661
556.6692
561.3851
565.6685
569.5096
572.9204
575.921
578.5282
580.7492
582.5805
584.0129
585.0405
585.6727
585.9503
682.3782
681.1577
680.4873
679.6042
678.644
677.5402
676.2666
674.7797
673.031
670.964
668.5163
665.6214
662.2116
658.2215
653.5921
648.2755
642.2393
635.4718
627.9854
619.8213
611.0514
601.7798
592.1431
582.3077
572.4661
562.8309
553.626
545.0779
537.4039
530.8011
525.435
521.4293
518.8577
517.7387
518.0331
519.6461
522.4325
526.2063
530.7527
535.8424
541.2462
546.7494
552.1635
557.3357
562.1524
566.5401
570.4608
573.9044
576.8796
579.4038
581.4957
583.1694
584.4338
585.2936
585.7536
585.8233
585.5215
584.8806
583.9499
582.7977
678.9562
677.0754
675.863
674.2394
672.3697
670.1485
667.527
664.4413
660.8316
656.6414
651.8218
646.3362
640.1639
633.3046
625.7814
617.6443
608.9714
599.8699
590.475
580.9476
571.4696
562.2387
553.4606
545.3403
538.0731
531.8345
526.7709
522.9913
520.5607
519.4955
519.7617
521.2767
523.9136
527.5084
531.8697
536.7904
542.0597
547.4746
552.8509
558.0314
562.8909
567.3385
571.3165
574.7961
577.7716
580.2531
582.2595
583.8133
584.9363
585.649
585.9711
585.9248
585.5376
584.8461
583.8979
582.7536
581.487
580.1849
578.9428
577.8539
672.7003
669.012
666.4793
663.1534
659.3721
655.0005
650.0165
644.3894
638.1094
631.1857
623.6501
615.559
606.9952
598.0671
588.9078
579.6724
570.5335
561.6756
553.2888
545.5606
538.6676
532.7677
527.9915
524.4357
522.1573
521.17
521.4431
522.9024
525.434
528.8902
533.0979
537.8676
543.0038
548.3153
553.6238
558.7725
563.631
568.0984
572.1042
575.6061
578.5862
581.0462
583.0019
584.4779
585.5037
586.1112
586.3335
586.206
585.7677
585.0635
584.1464
583.0784
581.9306
580.7816
579.7157
578.8196
578.1785
577.8694
577.9539
578.4652
659.9026
652.8904
648.2659
642.4018
636.0585
629.0866
621.559
613.5295
605.0851
596.3341
587.4069
578.4527
569.6353
561.1278
553.1066
545.7439
539.2009
533.6204
529.1197
525.7846
523.6652
522.7725
523.0771
524.5109
526.9696
530.3183
534.3978
539.0332
544.0422
549.2438
554.4672
559.558
564.3845
568.8407
572.8481
576.3551
579.3351
581.7824
583.7088
585.1384
586.1046
586.6461
586.8055
586.6284
586.1631
585.4618
584.5815
583.5843
582.5376
581.5125
580.5824
579.8186
579.2872
579.0447
579.1335
579.5787
580.3829
581.5248
582.9602
584.6288
637.2984
626.3153
619.6575
611.5046
603.2259
594.6447
585.9487
577.2673
568.7586
560.5846
552.9095
545.8922
539.6806
534.4043
530.169
527.0515
525.0951
524.308
524.6615
526.0916
528.5015
531.7661
535.7378
540.2534
545.142
550.2325
555.3609
560.3771
565.1504
569.5727
573.5611
577.0581
580.0306
582.4675
584.3766
585.7806
586.7139
587.2191
587.3447
587.1429
586.6687
585.9799
585.1361
584.1994
583.2337
582.3034
581.4719
580.7992
580.3389
580.1346
580.2168
580.6007
581.2834
582.244
583.4441
584.8298
586.3356
587.8921
589.4366
590.9284
605.6122
592.0851
584.7516
576.0646
567.9085
560.0385
552.6952
546.0055
540.1091
535.1233
531.1439
528.2391
526.4468
525.772
526.1862
527.6284
530.0075
533.2063
537.0866
541.4952
546.2712
551.2521
556.2813
561.2134
565.92
570.2932
574.2479
577.7232
580.6817
583.1082
585.0068
586.3986
587.3175
587.8079
587.9212
587.7136
587.2444
586.5748
585.7664
584.8811
583.98
583.1226
582.365
581.7585
581.3473
581.1664
581.2392
581.5762
582.1736
583.0137
584.0658
585.2889
586.6353
588.0547
589.5
590.9332
592.3314
593.6927
595.0397
596.4179
571.235
558.5561
552.7105
546.0362
540.5021
535.7752
532.0436
529.3438
527.7135
527.1535
527.6353
529.1002
531.4615
534.6087
538.4113
542.7249
547.397
552.2732
557.2035
562.048
566.6813
570.9969
574.9093
578.3558
581.2961
583.7121
585.605
586.9937
587.9114
588.4022
588.519
588.3198
587.8663
587.2214
586.4478
585.6073
584.7588
583.9582
583.2565
582.6989
582.3232
582.1584
582.2236
582.5268
583.0644
583.8222
584.7761
585.8944
587.1411
588.4795
589.8759
591.304
592.7484
594.2068
595.6923
597.2332
598.8721
600.6607
602.6534
604.8954
543.8025
535.6677
533.0698
530.3224
528.9028
528.4402
528.9955
530.4885
532.8416
535.948
539.6844
543.9137
548.491
553.2692
558.1049
562.863
567.422
571.6774
575.5443
578.9591
581.8802
584.2869
586.1783
587.5711
588.497
588.9995
589.1312
588.9509
588.5209
587.9049
587.166
586.3655
585.5608
584.8053
584.1463
583.6249
583.2747
583.1208
583.1796
583.4579
583.9531
584.6541
585.5421
586.5925
587.7777
589.0697
590.4431
591.8783
593.3639
594.8982
596.4905
598.1595
599.9323
601.8405
603.9166
606.1885
608.6747
611.3786
614.2858
617.3657
531.0257
529.3728
530.3694
531.7668
534.1461
537.2089
540.8901
545.0438
549.5354
554.2233
558.9701
563.6458
568.1328
572.3289
576.1506
579.5341
582.4369
584.8366
586.7305
588.1332
589.0746
589.597
589.752
589.5979
589.197
588.6129
587.9085
587.1444
586.377
585.6577
585.0316
584.5371
584.2049
584.058
584.1109
584.3701
584.8344
585.4952
586.338
587.3439
588.4913
589.7586
591.1259
592.5777
594.1044
595.7034
597.3798
599.1455
601.0176
603.0159
605.1591
607.4617
609.9296
612.5564
615.3214
618.1874
621.1017
623.9987
626.8074
629.4701
534.5503
538.5865
542.0268
546.1196
550.5291
555.1299
559.7935
564.391
568.8093
572.9484
576.7263
580.0798
582.9656
585.3605
587.2599
588.6765
589.6385
590.1863
590.3703
590.2476
589.8797
589.3296
588.6596
587.9295
587.1947
586.5054
585.9052
585.4309
585.1115
584.9687
585.0164
585.2612
585.7029
586.3354
587.1476
588.1247
589.2499
590.5061
591.8774
593.351
594.918
596.5746
598.3223
600.167
602.1179
604.1855
606.3792
608.7038
611.1577
613.7292
616.3955
619.1215
621.8597
624.5525
627.1347
629.5378
631.6957
633.5513
635.0657
636.2356
549.6059
556.4813
560.5038
565.1309
569.4529
573.5387
577.2714
580.5948
583.4639
585.8545
587.7605
589.1931
590.1781
590.7544
590.9706
590.8823
590.5498
590.0351
589.3994
588.7019
587.997
587.3341
586.7559
586.298
585.9888
585.8493
585.8934
586.1281
586.5545
587.1683
587.9612
588.9216
590.0362
591.2912
592.6733
594.1716
595.7775
597.4859
599.2951
601.2061
603.2219
605.3458
607.5795
609.9211
612.3629
614.8897
617.4772
620.0919
622.6911
625.2247
627.6373
629.8715
631.8718
633.5887
634.9825
636.0277
636.7159
637.058
637.0866
636.8613
568.1671
574.6476
577.6955
581.1205
583.9305
586.3198
588.2277
589.6749
590.6826
591.2878
591.537
591.4843
591.1882
590.7095
590.1083
589.4428
588.7668
588.1289
587.571
587.1286
586.8296
586.6948
586.7385
586.9684
587.3867
587.9908
588.7744
589.7284
590.842
592.1036
593.5021
595.0272
596.6706
598.4258
600.2884
602.2555
604.325
606.4944
608.7596
611.1132
613.5432
616.0314
618.5528
621.0753
623.5598
625.962
628.2339
630.3265
632.1931
633.7924
635.0918
636.0703
636.7203
637.0488
637.0779
636.8438
636.3949
635.789
635.0904
634.3669
583.1658
587.1623
588.5962
590.1551
591.1468
591.782
592.0591
592.0404
591.7797
591.3366
590.77
590.1366
589.4897
588.8769
588.3402
587.9144
587.6275
587.5009
587.5489
587.7801
588.1979
588.8011
589.5848
590.5417
591.6628
592.9381
594.3576
595.9116
597.5913
599.3891
601.2983
603.3126
605.4259
607.6313
609.9199
612.2801
614.6965
617.1486
619.6111
622.053
624.4386
626.7281
628.8796
630.851
632.6026
634.0997
635.315
636.2315
636.8434
637.1577
637.194
636.9838
636.5684
635.9969
635.3227
634.6008
633.8845
633.222
632.6552
632.2163
591.2674
592.4291
592.5191
592.5702
592.3204
591.9114
591.3749
590.7726
590.1543
589.5677
589.0537
588.6473
588.3764
588.2626
588.3208
588.5603
588.9855
589.5961
590.3888
591.3573
592.4937
593.7892
595.2341
596.8188
598.5342
600.3712
602.3211
604.3749
606.5234
608.756
611.0603
613.4214
615.8211
618.2375
620.6448
623.0134
625.3102
627.4994
629.5443
631.4087
633.0587
634.4652
635.6057
636.4663
637.0431
637.343
637.3836
637.1929
636.8076
636.2713
635.6317
634.9378
634.2368
633.5719
632.9792
632.4869
632.1141
631.8709
631.7599
631.7781
593.1549
592.4606
591.9509
591.3631
590.7638
590.2002
589.7078
589.3221
589.0702
588.9737
589.0479
589.3028
589.7431
590.3696
591.1795
592.1676
593.3266
594.6479
596.1222
597.7396
599.4903
601.3638
603.3497
605.4369
607.6133
609.8656
612.1786
614.5349
616.9146
619.2945
621.6489
623.9492
626.1645
628.2628
630.2114
631.9792
633.5375
634.862
635.9344
636.744
637.2884
637.5747
637.6192
637.4469
637.0907
636.5892
635.9852
635.3225
634.6442
633.9898
633.3931
632.8808
632.4712
632.1736
631.9891
631.9106
631.9257
632.0176
632.1698
632.3702
591.8796
590.742
590.356
589.9516
589.7183
589.6371
589.7294
590.0036
590.4645
591.1132
591.9473
592.9618
594.1494
595.5017
597.0091
598.6611
600.4469
602.355
604.3732
606.4885
608.6868
610.9526
613.2686
615.6157
617.9723
620.315
622.6181
624.8541
626.9942
629.0092
630.8705
632.5509
634.026
635.276
636.2862
637.0486
637.5627
637.8358
637.8834
637.7282
637.3997
636.9326
636.3651
635.7367
635.0863
634.4498
633.8586
633.3381
632.906
632.5728
632.3409
632.2057
632.1565
632.1774
632.2496
632.3527
632.4672
632.5765
632.6699
632.7482
590.7313
590.2524
590.4196
590.6781
591.1604
591.8294
592.6895
593.7328
594.9522
596.3384
597.881
599.5688
601.3896
603.3307
605.3784
607.5179
609.7336
612.008
614.3226
616.6567
618.9883
621.2935
623.5469
625.7224
627.793
629.7321
631.5141
633.1156
634.5159
635.6986
636.6523
637.3717
637.8576
638.118
638.1677
638.0276
637.7247
637.2902
636.7584
636.1649
635.5448
634.9309
634.3523
633.8324
633.3887
633.0317
632.7652
632.5864
632.4868
632.4534
632.4701
632.5188
632.5814
632.6405
632.6813
632.6921
632.6663
632.6021
632.5054
632.3923
591.894
592.5958
593.4415
594.497
595.7415
597.1566
598.7317
600.4528
602.3064
604.278
606.3522
608.5127
610.7422
613.022
615.3322
617.6513
619.9569
622.225
624.4311
626.55
628.5566
630.4267
632.1374
633.6681
635.0016
636.1243
637.0277
637.7083
638.1686
638.4172
638.4681
638.3413
638.0614
637.6567
637.1582
636.5982
636.0084
635.4188
634.8558
634.3418
633.8932
633.5208
633.2292
633.0171
632.8779
632.8009
632.7721
632.7756
632.7953
632.8154
632.8221
632.8045
632.7544
632.6678
632.5442
632.3869
632.2033
632.0045
631.8057
631.6286
596.1975
598.1212
599.5722
601.3306
603.1999
605.1939
607.2877
609.4637
611.7027
613.9845
616.2879
618.591
620.8708
623.1037
625.2656
627.3326
629.2813
631.0894
632.7366
634.2048
635.4795
636.5496
637.4087
638.0555
638.4933
638.7313
638.7833
638.6681
638.4085
638.0305
637.5624
637.0332
636.472
635.906
635.3596
634.8535
634.4035
634.0204
633.7095
633.4707
633.2993
633.1865
633.1202
633.0866
633.071
633.0592
633.0382
632.9974
632.9289
632.8282
632.694
632.5284
632.3363
632.1252
631.9046
631.6853
631.4796
631.3008
631.1634
631.0848
603.4411
606.3188
608.1772
610.393
612.6176
614.8944
617.1851
619.4693
621.7227
623.9217
626.0428
628.063
629.9603
631.714
633.3059
634.7201
635.9442
636.9693
637.791
638.4091
638.8282
639.0577
639.1112
639.0066
638.7652
638.4111
637.9701
637.4689
636.9338
636.3898
635.8594
635.3618
634.9121
634.5209
634.1941
633.9327
633.7336
633.5896
633.4908
633.4252
633.3798
633.3414
633.2981
633.2395
633.1579
633.0481
632.9082
632.7392
632.5448
632.3313
632.1068
631.8809
631.6638
631.4661
631.2981
631.1695
631.0901
631.0692
631.1168
631.2446
612.6946
616.0417
618.0083
620.3148
622.5175
624.6812
626.7602
628.7361
630.5866
632.2925
633.8367
635.2051
636.3869
637.375
638.1661
638.7614
639.1662
639.39
639.4464
639.3523
639.1278
638.7954
638.3789
637.9028
637.3913
636.8675
636.352
635.8628
635.4142
635.0167
634.6765
634.3956
634.172
634.0004
633.8725
633.7781
633.7058
633.6439
633.5814
633.5083
633.4171
633.3022
633.1611
632.9937
632.8027
632.593
632.3715
632.1467
631.928
631.7254
631.5487
631.4077
631.3113
631.2677
631.284
631.367
631.5233
631.7596
632.0845
632.5079
622.4867
625.6805
627.4032
629.384
631.1662
632.8271
634.3256
635.6533
636.7989
637.7565
638.5235
639.1018
639.497
639.7186
639.7799
639.697
639.4891
639.177
638.7831
638.33
637.84
637.3346
636.8329
636.3519
635.9051
635.5027
635.1512
634.8533
634.6083
634.4121
634.2582
634.1378
634.0412
633.9579
633.8779
633.7921
633.693
633.575
633.435
633.2722
633.0883
632.8871
632.6745
632.4577
632.2454
632.0466
631.8709
631.7278
631.6264
631.5752
631.5823
631.6549
631.7996
632.0222
632.3284
632.7236
633.2139
633.8064
634.5094
635.3331
631.1368
633.5788
634.7659
636.0948
637.185
638.1145
638.8581
639.4222
639.8107
640.0328
640.1011
640.0307
639.8397
639.5477
639.1753
638.7437
638.2739
637.7857
637.2971
636.824
636.3794
635.9734
635.6126
635.3003
635.0367
634.8189
634.6419
634.4984
634.3798
634.2773
634.1815
634.0843
633.9784
633.8582
633.7204
633.5636
633.3886
633.1985
632.998
632.7937
632.5931
632.4048
632.2379
632.1014
632.0044
631.9557
631.9636
632.0357
632.1792
632.4007
632.7064
633.102
633.5928
634.1837
634.8793
635.6841
636.6028
637.6401
638.8017
640.0942
637.3086
638.6379
639.1765
639.7474
640.1107
640.3317
640.404
640.3453
640.1705
639.8978
639.5464
639.1359
638.6857
638.2143
637.7387
637.274
636.8326
636.4245
636.0564
635.7321
635.4528
635.2165
635.0193
634.8554
634.7175
634.5977
634.4879
634.3805
634.2687
634.1471
634.0121
633.8619
633.6968
633.5189
633.3323
633.1427
632.9569
632.783
632.6294
632.5052
632.4192
632.3803
632.3968
632.4767
632.6275
632.856
633.1687
633.5714
634.0693
634.6673
635.3698
636.1802
637.1013
638.1348
639.2814
640.5405
641.9106
643.3892
644.9738
646.6643
640.5055
640.7229
640.7128
640.6601
640.4853
640.2265
639.8916
639.4998
639.0679
638.613
638.1508
637.6955
637.259
636.8509
636.4781
636.1449
635.853
635.6015
635.3875
635.2063
635.0517
634.9171
634.7951
634.6788
634.5621
634.4397
634.3078
634.1646
634.0096
633.8446
633.6728
633.4991
633.3298
633.1723
633.0349
632.926
632.8547
632.8297
632.8596
632.9525
633.1162
633.3576
633.6833
634.099
634.6099
635.2204
635.9343
636.7546
637.6831
638.7208
639.8673
641.1209
642.4778
643.9328
645.4784
647.1055
648.8035
650.5609
652.3672
654.2171
641.1618
640.5756
640.2522
639.8514
639.4263
638.9815
638.5296
638.0829
637.6521
637.2461
636.8716
636.5329
636.2323
635.9695
635.7426
635.5477
635.3798
635.2332
635.1014
634.9782
634.8578
634.7355
634.6074
634.4714
634.3269
634.1749
634.0182
633.8611
633.7093
633.5696
633.4498
633.3583
633.3038
633.2951
633.3409
633.4495
633.6288
633.886
634.2278
634.6598
635.1871
635.8138
636.5432
637.3774
638.3177
639.3639
640.5149
641.7678
643.1181
644.5598
646.085
647.6839
649.3448
651.0542
652.7969
654.557
656.3181
658.0643
659.7831
661.4707
640.2832
639.3233
638.9289
638.4503
638.0194
637.6103
637.2334
636.8907
636.5843
636.3139
636.0782
635.8738
635.6967
635.5416
635.4031
635.2755
635.1536
635.0328
634.9095
634.7815
634.6479
634.5095
634.3683
634.2283
634.0947
633.9737
633.8727
633.7998
633.7636
633.7727
633.836
633.9618
634.1582
634.4326
634.7916
635.2411
635.7859
636.43
637.1762
638.0262
638.9805
640.0383
641.1973
642.454
643.803
645.2375
646.749
648.3271
649.9602
651.6348
653.3364
655.049
656.7562
658.4408
660.0857
661.6747
663.1931
664.629
665.9756
667.2372
638.9102
637.9355
637.622
637.2307
636.9162
636.6342
636.3903
636.1786
635.9953
635.8352
635.6934
635.5645
635.4438
635.3267
635.21
635.0914
634.9698
634.8456
634.7207
634.5986
634.4838
634.3823
634.3012
634.248
634.2313
634.2596
634.3416
634.4858
634.7004
634.9927
635.3695
635.8368
636.3992
637.0607
637.8236
638.6894
639.658
640.728
641.8965
643.1591
644.5099
645.9413
647.4442
649.008
650.6206
652.2685
653.9373
655.6116
657.2752
658.912
660.5059
662.0411
663.503
664.878
666.1544
667.3228
668.3768
669.3139
670.1374
670.8617
637.7329
636.9304
636.7362
636.4739
636.2826
636.1132
635.9683
635.8394
635.7216
635.6105
635.5024
635.3949
635.2868
635.1782
635.0708
634.9675
634.8726
634.7917
634.7314
634.6991
634.7031
634.7516
634.8535
635.0171
635.2505
635.5614
635.9566
636.4417
637.0218
637.7003
638.4796
639.3607
640.3431
641.425
642.6029
643.8718
645.2254
646.6555
648.1526
649.7057
651.3026
652.9297
654.5727
656.2162
657.8448
659.4426
660.994
662.4842
663.8991
665.2261
666.4542
667.5743
668.5794
669.4648
670.2283
670.8707
671.3956
671.8102
672.1268
672.3674
636.999
636.392
636.2809
636.1127
635.9943
635.8839
635.7834
635.6871
635.5934
635.5017
635.413
635.3298
635.2561
635.197
635.1588
635.1486
635.1744
635.2444
635.3671
635.551
635.8042
636.1342
636.5479
637.0511
637.6485
638.3437
639.1388
640.0345
641.0301
642.1232
643.31
644.5852
645.9416
647.371
648.8635
650.4078
651.9915
653.6012
655.2225
656.8405
658.4398
660.0052
661.5215
662.9745
664.3505
665.6374
666.8249
667.904
668.8684
669.7138
670.438
671.0416
671.527
671.8991
672.1645
672.3321
672.4127
672.4196
672.3695
672.2864
636.6533
636.1786
636.1028
635.9826
635.8974
635.817
635.7454
635.682
635.6301
635.5939
635.5791
635.5924
635.6414
635.7342
635.879
636.0843
636.358
636.7078
637.1404
637.6616
638.2763
638.9877
639.7979
640.7074
641.7153
642.8188
644.0138
645.2946
646.6537
648.0825
649.5708
651.1072
652.6792
654.2733
655.8753
657.4706
659.0442
660.5812
662.0671
663.4879
664.8307
666.0838
667.2371
668.2824
669.2131
670.0253
670.717
671.2885
671.7424
672.0833
672.3178
672.4541
672.502
672.4721
672.3758
672.2257
672.0347
671.817
671.5887
671.3712
636.5629
636.1657
636.1155
636.0401
636.003
635.9844
635.9914
636.028
636.101
636.2177
636.386
636.6139
636.9094
637.2798
637.7321
638.2718
638.9037
639.6311
640.456
641.3787
642.398
643.5111
644.7134
645.999
647.3603
648.7881
650.2723
651.8011
653.362
654.9416
656.5259
658.1003
659.6502
661.1613
662.6193
664.0109
665.3237
666.5466
667.6698
668.6854
669.5874
670.3717
671.0365
671.5822
672.011
672.3273
672.5376
672.6497
672.673
672.618
672.496
672.3189
672.0986
671.847
671.5754
671.2951
671.0171
670.7521
670.5126
670.3144
636.7129
636.4164
636.4418
636.4716
636.5614
636.697
636.8872
637.1376
637.4554
637.8475
638.3202
638.8791
639.5289
640.2726
641.1122
642.0479
643.0783
644.2003
645.4094
646.6993
648.0621
649.4886
650.9684
652.4897
654.0399
655.6057
657.173
658.7276
660.2553
661.7419
663.1738
664.538
665.8227
667.0172
668.1123
669.1005
669.9761
670.7353
671.3764
671.8998
672.3077
672.6044
672.7959
672.8898
672.8952
672.8221
672.6815
672.485
672.2441
671.9708
671.6762
671.3713
671.066
670.7692
670.4888
670.2317
670.0044
669.813
669.6647
669.5698
637.3047
637.2305
637.4265
637.6716
638.004
638.4125
638.9039
639.4814
640.1489
640.9092
641.7638
642.7126
643.754
644.885
646.1007
647.3946
648.7589
650.184
651.6594
653.1734
654.7132
656.2656
657.8168
659.3526
660.859
662.3223
663.7293
665.0674
666.3253
667.4928
668.561
669.523
670.3733
671.1086
671.7273
672.2299
672.6188
672.898
673.0736
673.1529
673.1445
673.0583
672.9049
672.6954
672.4411
672.1534
671.8435
671.5217
671.1981
670.8816
670.5799
670.2999
670.047
669.8254
669.638
669.4868
669.3735
669.2998
669.2687
669.2869
638.7274
639.0554
639.5223
640.0953
640.7716
641.5431
642.41
643.3707
644.4227
645.5624
646.7845
648.0826
649.4482
650.8721
652.3435
653.8504
655.3804
656.9201
658.4558
659.9737
661.4599
662.901
664.2841
665.5973
666.8295
667.9709
669.0132
669.9499
670.7758
671.4879
672.085
672.5675
672.9381
673.2008
673.3615
673.4275
673.4073
673.3105
673.1474
672.9288
672.6656
672.3691
672.0498
671.7182
671.3836
671.055
670.7398
670.4446
670.175
669.9349
669.7276
669.5547
669.4169
669.3139
669.2443
669.2066
669.1992
669.2209
669.2729
669.3609
641.4073
642.291
643.0831
644.0414
645.0924
646.2355
647.4612
648.7618
650.1283
651.5507
653.018
654.5183
656.0389
657.5665
659.0875
660.5883
662.0552
663.4752
664.8356
666.1248
667.3322
668.4485
669.4658
670.3778
671.18
671.8695
672.4454
672.9084
673.2611
673.5078
673.6543
673.7078
673.6767
673.5703
673.3989
673.173
672.9035
672.601
672.2761
671.9388
671.5983
671.2632
670.9408
670.6374
670.3583
670.1074
669.8875
669.7004
669.5466
669.4257
669.3367
669.2774
669.2454
669.2375
669.2503
669.2806
669.3258
669.3846
669.4584
669.5545
645.5911
647.0662
648.1539
649.4553
650.808
652.2243
653.6846
655.177
656.6877
658.2034
659.7102
661.1945
662.643
664.0427
665.3813
666.6474
667.831
668.923
669.916
670.804
671.5829
672.2502
672.8052
673.2488
673.5839
673.8148
673.9474
673.9887
673.9472
673.8321
673.6533
673.4213
673.1466
672.8397
672.5111
672.1705
671.8269
671.4887
671.1629
670.8558
670.5723
670.3162
670.0901
669.8955
669.7327
669.6014
669.5
669.4266
669.3783
669.3523
669.3452
669.3534
669.3735
669.402
669.4358
669.4725
669.5106
669.5504
669.5954
669.6556
651.1633
653.0954
654.3577
655.8529
657.3366
658.8367
660.3265
661.7936
663.2234
664.6031
665.9205
667.1644
668.3249
669.3934
670.3627
671.2273
671.9834
672.6288
673.1631
673.5875
673.905
674.1201
674.2387
674.268
674.2162
674.0925
673.9067
673.6691
673.39
673.0799
672.7487
672.4062
672.0611
671.7215
671.3946
671.0861
670.8011
670.5431
670.3145
670.1168
669.95
669.8137
669.7061
669.625
669.5676
669.5307
669.5107
669.5042
669.5076
669.5175
669.5309
669.545
669.5577
669.567
669.5719
669.5718
669.5679
669.5627
669.5619
669.5777
657.5911
659.6914
660.9452
662.414
663.8061
665.1632
666.4566
667.6775
668.8148
669.86
670.8061
671.6479
672.3816
673.0055
673.5194
673.9248
674.2249
674.4242
674.5287
674.5458
674.4837
674.3514
674.1587
673.9157
673.6326
673.3195
672.9865
672.6427
672.2971
671.9573
671.6304
671.322
671.037
670.7788
670.5497
670.351
670.1829
670.0445
669.9342
669.8496
669.7877
669.7452
669.7184
669.7036
669.6972
669.6957
669.6958
669.6949
669.6906
669.6812
669.6656
669.6433
669.6142
669.5789
669.5385
669.4949
669.4508
669.4108
669.3818
669.3767
664.0378
665.9436
666.9983
668.2157
669.3102
670.3297
671.2497
672.0677
672.7787
673.3811
673.8748
674.2614
674.5441
674.7277
674.8184
674.8234
674.7509
674.6101
674.4105
674.1622
673.8751
673.5594
673.2247
672.8803
672.5345
672.1952
671.869
671.5615
671.2773
671.0199
670.7913
670.5929
670.4246
670.2855
670.1741
670.0878
670.0237
669.9783
669.9479
669.9288
669.9172
669.9094
669.9021
669.8925
669.8782
669.8573
669.8285
669.7913
669.7456
669.6921
669.6318
669.5665
669.498
669.4287
669.361
669.2979
669.2431
669.2013
669.1795
669.1896
669.6044
670.9928
671.7089
672.5145
673.1846
673.7625
674.2328
674.5992
674.8639
675.0317
675.1083
675.1012
675.0185
674.8692
674.6628
674.4093
674.1185
673.8004
673.4643
673.1195
672.774
672.4355
672.1105
671.8044
671.5217
671.2656
671.0382
670.8406
670.6728
670.5339
670.4221
670.335
670.2696
670.2225
670.1899
670.168
670.1531
670.1416
670.1301
670.1157
670.0958
670.0684
670.0323
669.9867
669.9314
669.8669
669.7941
669.7146
669.6303
669.5435
669.4568
669.3728
669.2943
669.224
669.1643
669.1181
669.0882
669.0787
669.0954
669.1485
673.6054
674.2917
674.6205
674.9641
675.1953
675.343
675.4024
675.3816
675.2877
675.1295
674.9161
674.6574
674.363
674.0425
673.7053
673.3603
673.0154
672.6781
672.3546
672.0504
671.7695
671.5152
671.2894
671.0931
670.9263
670.7879
670.6763
670.5889
670.5227
670.4744
670.4402
670.4163
670.3991
670.3849
670.3704
670.3527
670.3293
670.2981
670.2578
670.2076
670.1471
670.0768
669.9974
669.9102
669.8171
669.7202
669.6218
669.5245
669.4309
669.3438
669.2656
669.1989
669.1458
669.1081
669.0872
669.0847
669.1023
669.1423
669.2094
669.3122
675.7665
675.7517
675.7415
675.688
675.5709
675.3985
675.1749
674.9092
674.6101
674.2868
673.9482
673.6029
673.2588
672.9227
672.601
672.2987
672.0199
671.7676
671.5437
671.349
671.1834
671.0459
670.9347
670.8472
670.7806
670.7314
670.6959
670.6705
670.6514
670.6351
670.6183
670.5981
670.5721
670.5382
670.4951
670.442
670.3786
670.3051
670.2223
670.1315
670.0342
669.9324
669.8282
669.7242
669.6226
669.5261
669.4369
669.3573
669.2895
669.2352
669.1961
669.1732
669.1674
669.1792
669.2086
669.2557
669.3211
669.4061
669.5141
669.6536
676.2734
675.7232
675.4921
675.1862
674.8736
674.5413
674.1982
673.8508
673.5062
673.1708
672.8505
672.5501
672.2733
672.023
671.8009
671.6078
671.4434
671.3067
671.1959
671.1085
671.0415
670.9914
670.9548
670.9279
670.9072
670.889
670.8702
670.8479
670.8198
670.7838
670.7388
670.6837
670.6184
670.5431
670.4585
670.3659
670.2667
670.1628
670.0564
669.9496
669.8448
669.7442
669.65
669.5642
669.4888
669.4254
669.3753
669.3396
669.3191
669.3141
669.3249
669.3513
669.3929
669.449
669.5186
669.6012
669.6966
669.8057
669.9319
670.084
675.659
674.8278
674.5159
674.1243
673.7725
673.431
673.1091
672.8084
672.5325
672.2834
672.0627
671.8708
671.7074
671.5713
671.4607
671.373
671.3053
671.2542
671.2162
671.1877
671.1651
671.145
671.1242
671.0999
671.0698
671.0321
670.9853
670.9287
670.8621
670.7857
670.7002
670.6067
670.5069
670.4025
670.2954
670.1879
670.0822
669.9805
669.8847
669.7969
669.7186
669.6514
669.5965
669.5546
669.5263
669.512
669.5115
669.5247
669.5509
669.5896
669.64
669.7011
669.772
669.8513
669.9382
670.0318
670.1322
670.2408
670.3613
670.5035
674.5842
673.719
673.4401
673.0941
672.8129
672.5579
672.3354
672.1426
671.9789
671.8424
671.7313
671.6428
671.574
671.5214
671.4816
671.4511
671.4263
671.4038
671.3807
671.3542
671.322
671.2823
671.2338
671.1758
671.108
671.0307
670.9447
670.8509
670.751
670.6467
670.5399
670.4328
670.3274
670.2259
670.1302
670.0423
669.9636
669.8955
669.8391
669.795
669.7637
669.7453
669.7396
669.746
669.764
669.7928
669.8312
669.8783
669.9329
669.9941
670.0608
670.1321
670.2071
670.285
670.3652
670.4476
670.5329
670.6231
670.723
670.843
673.6071
672.8704
672.6819
672.4443
672.2736
672.1296
672.0147
671.9231
671.8516
671.7965
671.7541
671.7208
671.6931
671.6678
671.6418
671.6126
671.5778
671.5358
671.4854
671.4257
671.3567
671.2784
671.1918
671.0979
670.9981
670.8942
670.788
670.6817
670.5772