/*--------------------------------*- C++ -*----------------------------------*\
| =========                 |                                                 |
| \\      /  F ield         | OpenFOAM: The Open Source CFD Toolbox           |
|  \\    /   O peration     | Version:  2312                                  |
|   \\  /    A nd           | Website:  www.openfoam.com                      |
|    \\/     M anipulation  |                                                 |
\*---------------------------------------------------------------------------*/
FoamFile
{
    version     2.0;
    format      ascii;
    arch        "LSB;label=32;scalar=64";
    class       volScalarField;
    location    "3600";
    object      ILambda_8_0;
}
// * * * * * * * * * * * * * * * * * * * * * * * * * * * * * * * * * * * * * //

dimensions      [1 0 -3 0 0 0 0];

internalField   nonuniform List<scalar> 
12000
(
680.3013
678.6082
678.3527
678.1565
678.3249
678.7317
679.3043
679.9296
680.5019
680.936
681.1811
681.2235
681.0827
680.8017
680.4349
680.0361
679.6497
679.3045
679.0131
678.7722
678.5668
678.3738
678.166
677.915
677.5937
677.1798
676.6605
676.0368
675.325
674.5586
673.7908
673.1022
672.6071
672.4391
672.6916
673.3078
673.9607
674.0126
672.6447
669.1713
663.4211
655.9705
648.0559
641.1646
636.4965
634.5336
634.8305
636.0155
636.0183
632.6708
624.7394
612.9931
600.4069
590.6771
585.3001
581.188
571.7641
552.6974
528.3852
510.9915
681.2795
679.3565
678.8435
678.362
678.2588
678.4531
678.902
679.5052
680.1492
680.725
681.1491
681.3739
681.3907
681.2241
680.9215
680.54
680.1341
679.7471
679.4062
679.1211
678.8866
678.6861
678.4963
678.29
678.0384
677.7134
677.2921
676.7618
676.1249
675.3993
674.6181
673.8324
673.1225
672.6112
672.454
672.7725
673.5216
674.3418
674.5105
673.1034
669.3749
663.1968
655.2898
647.0637
640.1151
635.6517
634.0982
634.9317
636.6568
636.9693
633.3921
624.5371
611.4777
598.0252
588.8038
585.4104
583.2683
573.2969
550.1507
520.9415
681.8518
679.884
679.2588
678.6324
678.3619
678.3956
678.7157
679.2409
679.8653
680.4762
680.976
681.2984
681.415
681.3341
681.0924
680.743
680.3427
679.9412
679.5739
679.2588
678.9975
678.7782
678.5807
678.3799
678.1482
677.8579
677.4835
677.0069
676.4224
675.7412
674.9912
674.2155
673.4757
672.863
672.5041
672.5341
673.0066
673.7536
674.2678
673.7314
671.2726
666.3928
659.3441
651.1966
643.4947
637.6732
634.548
634.073
635.3053
636.4619
635.1978
629.4127
618.5739
604.7839
592.3666
585.2577
583.124
579.2893
564.3893
535.7886
682.5109
680.5099
679.7717
678.9901
678.5316
678.3763
678.5359
678.9528
679.5342
680.1666
680.7402
681.1686
681.401
681.4252
681.2637
680.9624
680.5782
680.1667
679.7724
679.4235
679.1302
678.8874
678.679
678.4821
678.2706
678.0167
677.6931
677.2762
676.7519
676.1212
675.4027
674.6309
673.8557
673.1487
672.6163
672.3985
672.6199
673.2703
674.0523
674.3007
673.1003
669.6462
663.7065
655.9136
647.6466
640.522
635.7776
633.8706
634.3651
635.9498
636.528
633.6543
625.6237
612.8998
598.7726
588.0496
583.6201
582.6017
575.7943
554.0207
683.1259
681.1498
680.3389
679.4359
678.8073
678.4611
678.439
678.7122
679.208
679.8206
680.4352
680.9496
681.2914
681.4268
681.3596
681.1244
680.7739
680.3663
679.9535
679.5734
679.2458
678.9734
678.7453
678.5417
678.3383
678.1086
677.8251
677.4616
676.9975
676.4245
675.7514
675.0051
674.227
673.4732
672.8243
672.3979
672.3364
672.7325
673.4857
674.1541
673.9334
671.8784
667.3479
660.4532
652.204
644.1881
637.9421
634.3872
633.587
634.7509
636.2606
635.7923
630.9637
620.6919
606.5655
592.8794
584.4234
582.4803
581.3692
570.0827
683.7049
681.7932
680.9447
679.9523
679.1753
678.6445
678.4298
678.5334
678.9084
679.464
680.0871
680.6651
681.1065
681.355
681.3937
681.2411
680.942
680.5533
680.1325
679.7261
679.3643
679.0589
678.8053
678.5879
678.3844
678.1698
677.9175
677.6004
677.1937
676.6809
676.0602
675.3492
674.5825
673.8079
673.0884
672.5153
672.218
672.3331
672.9013
673.7035
674.1377
673.2826
670.2324
664.6002
656.8948
648.471
641.0112
635.8438
633.5078
633.6858
635.2668
636.3415
634.4134
627.3495
614.9658
600.0845
587.7148
582.0552
582.2925
580.0968
684.2316
682.4178
681.5685
680.5238
679.629
678.9302
678.522
678.4377
678.66
679.1202
679.7145
680.3265
680.8499
681.2069
681.3581
681.3028
681.073
680.7208
680.3055
679.8812
679.4879
679.1474
678.8634
678.6253
678.4139
678.2054
677.9746
677.695
677.3402
676.8875
676.3256
675.6608
674.9194
674.1431
673.3849
672.7149
672.2359
672.0857
672.383
673.0919
673.8504
673.8956
672.2346
668.0885
661.4106
653.1272
644.8571
638.2335
634.2613
633.0758
634.026
635.7184
635.9643
632.1793
622.7264
608.5838
593.7523
583.5062
581.0581
583.6459
684.6994
683.0053
682.1891
681.1298
680.1529
679.3119
678.72
678.4395
678.4846
678.8139
679.3408
679.9523
680.5331
680.9868
681.2512
681.3041
681.1606
680.8633
680.4698
680.039
679.6199
679.2448
678.9269
678.6625
678.4361
678.2258
678.0075
677.756
677.4449
677.0487
676.5481
675.9382
675.2342
674.4711
673.6967
672.9686
672.3646
671.9996
672.0145
672.4919
673.2912
673.887
673.3697
670.7416
665.4496
657.8588
649.2912
641.5088
635.9447
633.2007
633.0321
634.5145
635.9856
634.9805
628.9746
617.1572
601.8776
588.021
580.6346
582.2433
685.1054
683.5409
682.787
681.7489
680.7287
679.778
679.0223
678.5477
678.3998
678.5682
678.9896
679.5627
680.1699
680.701
681.0727
681.2396
681.1967
680.9728
680.6193
680.1964
679.7605
679.354
679.0007
678.7052
678.4575
678.2382
678.0243
677.7916
677.515
677.1684
676.7279
676.1786
675.5233
674.7872
674.0129
673.2526
672.5683
672.0471
671.8156
672.0084
672.6486
673.4621
673.7479
672.4852
668.7587
662.3423
654.0535
645.5407
638.5539
634.1895
632.6174
633.2798
635.0319
635.9199
633.2166
624.7022
610.8038
595.2963
583.3224
579.246
685.4489
684.0141
683.3449
682.3599
681.335
680.3122
679.4208
678.7649
678.4185
678.4031
678.6844
679.18
679.7779
680.3601
680.8256
681.1061
681.1741
681.0404
680.7459
680.3481
679.9077
679.4761
679.088
678.7582
678.4836
678.2488
678.032
677.8098
677.5583
677.2526
676.867
676.3798
675.7822
675.0863
674.3267
673.5526
672.8191
672.1931
671.7724
671.6931
672.0688
672.8354
673.5573
673.361
671.173
666.2653
658.8293
650.1336
642.0321
636.0918
632.9712
632.4393
633.7168
635.4607
635.3648
630.4972
619.3311
603.9803
589.3144
579.2913
685.7326
684.4188
683.8493
682.9432
681.9498
680.8943
679.9021
679.0874
678.5473
678.3348
678.4474
678.8278
679.3776
679.9784
680.5165
680.903
681.0866
681.0572
680.8403
680.4865
680.0569
679.6099
679.1907
678.825
678.5189
678.2625
678.0362
677.8171
677.5821
677.3077
676.9691
676.5412
676.006
675.3622
674.6322
673.8595
673.0976
672.4038
671.8508
671.549
671.6379
672.1902
673.0224
673.5159
672.6476
669.3752
663.2719
655.0113
646.2583
638.9081
634.1797
632.2496
632.5721
634.2396
635.6801
634.1438
626.6425
612.903
597.0736
583.9967
685.9621
684.7534
684.2908
683.4822
682.5517
681.5023
680.4481
679.5052
678.7871
678.3745
678.2974
678.5289
678.9913
679.5738
680.1565
680.6335
680.9308
681.015
680.8926
680.6022
680.2013
679.7521
679.3087
678.9082
678.5672
678.2835
678.0414
677.8189
677.593
677.341
677.0398
676.6646
676.1917
675.6083
674.9223
674.1667
673.3923
672.655
672.0137
671.549
671.3845
671.6529
672.3592
673.1671
673.2653
671.5292
667.0547
659.8265
651.0239
642.5946
636.283
632.828
631.9483
632.9129
634.7512
635.5627
632.0531
621.4814
605.5947
590.7658
686.1449
685.0203
684.6647
683.9641
683.1214
682.1137
681.0376
680.003
679.132
678.5271
678.2495
678.3048
678.6423
679.167
679.7602
680.3049
680.7065
680.9077
680.8932
680.685
680.3323
679.8971
679.4399
679.0086
678.6314
678.3156
678.0516
677.8195
677.596
677.3588
677.0859
676.7542
676.3389
675.8191
675.1889
674.4667
673.6957
672.9319
672.2313
671.655
671.2949
671.2855
671.7365
672.5522
673.2131
672.7241
669.9351
664.2044
656.019
647.0306
639.3015
634.229
631.9981
631.9656
633.3619
635.1637
634.9657
628.8628
614.9091
597.8124
686.2904
685.2254
684.9705
684.3807
683.6429
682.707
681.6477
680.5614
679.5702
678.7914
678.3129
678.1734
678.3535
678.7808
679.3464
679.9287
680.4172
680.732
680.8337
680.7242
680.4396
680.0371
679.5802
679.1257
678.7135
678.3621
678.0703
677.8223
677.5953
677.3663
677.1136
676.816
676.4501
675.9918
675.4243
674.7505
674.0003
673.2255
672.4845
671.832
671.3338
671.0955
671.2567
671.8804
672.7332
673.0904
671.807
667.8126
660.8567
651.9805
643.2095
636.5112
632.7664
631.6086
632.1883
633.8335
635.396
633.7093
624.2505
606.5048
686.4081
685.3772
685.2114
684.7282
684.1043
683.2631
682.2553
681.1578
680.0846
679.1595
678.4909
678.1481
678.1451
678.4381
678.936
679.5204
680.0711
680.4881
680.7082
680.7101
680.5124
680.1626
679.7231
679.2568
678.8141
678.4259
678.1012
677.8308
677.5942
677.3676
677.1284
676.8564
676.5304
676.1269
675.6232
675.0087
674.2967
673.5285
672.7624
672.0559
671.4627
671.056
670.9573
671.2996
672.0676
672.8524
672.7175
670.4326
665.137
657.0879
647.8761
639.7359
634.3142
631.862
631.5464
632.5062
634.2601
635.3479
631.4759
617.5031
686.5074
685.4854
685.3939
685.0071
684.4984
683.767
682.8394
681.7689
680.6545
679.6178
678.7802
678.2366
678.0341
678.1614
678.5519
679.0992
679.6803
680.1805
680.5136
680.6343
680.5397
680.2628
679.8602
679.3969
678.9322
678.5087
678.1476
677.8485
677.5958
677.3658
677.1347
676.8813
676.5862
676.2284
675.784
675.2336
674.5744
673.8319
673.0574
672.3125
671.6515
671.128
670.8278
670.8863
671.4111
672.2701
672.845
672.0049
668.5327
661.9214
653.0202
643.8932
636.7631
632.7475
631.433
631.6814
632.8251
634.5943
634.9071
628.0895
686.5968
685.5604
685.5266
685.2219
684.8225
684.2077
683.3815
682.3718
681.2568
680.148
679.1713
678.4405
678.0325
677.9702
678.2172
678.6867
679.2612
679.8177
680.2509
680.4911
680.5115
680.3263
679.9812
679.539
679.0645
678.6111
678.2123
677.8793
677.6034
677.3637
677.1352
676.895
676.6235
676.3021
675.9089
675.421
674.8237
674.1246
673.3613
672.5932
671.8814
671.2756
670.8328
670.6555
670.887
671.5813
672.446
672.6316
670.8618
666.0632
658.2249
648.8169
640.2232
634.4043
631.7894
631.3581
631.8859
633.1013
634.9344
634.6051
686.6838
685.6125
685.6194
685.3798
685.0783
684.5793
683.8674
682.9454
681.8675
680.7282
679.6489
678.7546
678.1466
677.8806
677.9538
678.3059
678.8336
679.413
679.9251
680.2778
680.4194
680.3417
680.0746
679.6738
679.2055
678.7314
678.2972
677.9266
677.6209
677.3644
677.1327
676.9007
676.6472
676.3541
676.0028
675.571
675.0377
674.3952
673.6631
672.8907
672.1421
671.4742
670.9325
670.5824
670.546
670.961
671.7903
672.5375
672.121
669.2052
663.0161
654.1566
644.6715
637.0419
632.7187
631.3643
631.498
632.0815
633.4867
636.0312
686.7742
685.6512
685.6825
685.4899
685.271
684.8803
684.2873
683.4724
682.4639
681.3345
680.1934
679.1677
678.3761
677.9033
677.7808
677.9802
678.4199
678.9837
679.5459
679.9961
680.258
680.2989
680.1285
679.7903
679.3473
678.8658
678.4023
677.9934
677.6522
677.3714
677.1296
676.9006
676.6604
676.3898
676.0718
675.6873
675.2141
674.6348
673.9509
673.1951
672.4264
671.7099
671.0952
670.626
670.3825
670.5055
671.1045
672.0048
672.4699
671.2152
666.9717
659.4298
649.8738
640.791
634.4893
631.7053
631.3553
631.7309
632.3162
634.4323
686.8729
685.6849
685.7258
685.5626
685.4086
685.1134
684.6365
683.9393
683.0256
681.9429
680.782
679.6633
678.7143
678.0428
677.7131
677.731
678.0434
678.5505
679.1276
679.6521
680.0256
680.19
680.1314
679.8765
679.4797
679.008
678.5256
678.0812
677.7013
677.3891
677.1294
676.8971
676.6656
676.4129
676.1217
675.7756
675.3548
674.838
674.2135
673.4944
672.7262
671.975
671.3017
670.748
670.3602
670.2396
670.5391
671.3054
672.1758
672.153
669.8184
664.1305
655.3959
645.5729
637.3749
632.6533
631.3046
631.6211
631.9591
632.6041
686.983
685.7203
685.758
685.608
685.5006
685.2847
684.9147
684.3378
683.536
682.531
681.3903
680.2204
679.1484
678.2976
677.7602
677.5769
677.7276
678.1363
678.6886
679.2566
679.7247
680.01
680.0735
679.9202
679.5913
679.1493
678.6624
678.1897
677.7708
677.4217
677.1361
676.8929
676.6646
676.4257
676.1566
675.8417
675.4644
675.0044
674.4429
673.7762
673.0305
672.263
671.5425
670.9219
670.4355
670.1397
670.1612
670.6482
671.5399
672.2359
671.485
667.8484
660.6956
651.0605
641.4747
634.5937
631.5582
631.3981
631.978
631.9549
687.1071
685.763
685.7868
685.636
685.5575
685.4028
685.1256
684.6643
683.9828
683.0789
681.9944
680.8153
679.6603
678.6591
677.9253
677.5317
677.4936
677.7652
678.2505
678.8252
679.3625
679.7581
679.9471
679.9101
679.6697
679.2791
678.8058
678.3163
677.8623
677.4731
677.1544
676.8918
676.6597
676.43
676.1793
675.8903
675.5487
675.1373
674.6359
674.0299
673.3262
672.5647
671.812
671.1344
670.5739
670.1609
669.9705
670.1541
670.828
671.769
672.0992
670.3598
665.2502
656.736
646.6188
637.8037
632.5678
631.1555
631.8071
632.1977
687.2467
685.8173
685.8183
685.6551
685.5896
685.4777
685.2763
684.9196
684.3591
683.5711
682.572
681.4235
680.2281
679.113
678.205
677.6038
677.3594
677.4604
677.8371
678.3773
678.9511
679.4379
679.7482
679.8364
679.7027
679.3853
678.9465
678.4557
677.9747
677.5462
677.1889
676.8986
676.6542
676.4275
676.1913
675.9247
675.6129
675.2418
674.7936
674.2494
673.601
672.868
672.1037
671.3798
670.7554
670.2602
669.9277
669.8595
670.224
671.0642
671.9349
671.6637
668.6776
662.01
652.3806
642.3032
634.7652
631.353
631.3396
632.4051
687.4026
685.8866
685.8571
685.6725
685.6062
685.52
685.3759
685.1087
684.6624
683.9967
683.1044
682.021
680.8274
679.6398
678.5891
677.7947
677.3378
677.2431
677.4727
677.9355
678.5073
679.0578
679.4767
679.6921
679.6789
679.4554
679.0732
678.6002
678.1049
677.6418
677.2436
676.9181
676.6526
676.421
676.194
675.9466
675.6608
675.3234
674.9201
674.4329
673.8456
673.1592
672.407
671.6541
670.9726
670.4091
669.9832
669.7403
669.8147
670.3722
671.3284
671.9595
670.8164
666.3591
658.169
647.8186
638.3658
632.5272
630.9536
632.059
687.5748
685.9732
685.907
685.6939
685.6155
685.5397
685.4347
685.2393
684.8948
684.3499
683.5769
682.5863
681.4334
680.2166
679.0618
678.0992
677.4356
677.1301
677.1808
677.5244
678.0517
678.6312
679.1374
679.4741
679.589
679.4771
679.1736
678.74
678.2469
677.7585
677.3208
676.9553
676.6598
676.4143
676.1897
675.9572
675.6945
675.3864
675.0208
674.583
674.0553
673.4263
672.7086
671.9497
671.223
670.5954
670.0981
669.745
669.6046
669.8439
670.5928
671.5743
671.7443
669.4432
663.3608
653.8333
643.2917
635.0591
631.2141
631.3561
687.763
686.0789
685.9707
685.7237
685.6244
685.546
685.4632
685.321
685.0623
684.6296
683.9802
683.1014
682.0225
680.8184
679.6022
678.5055
677.6527
677.1333
676.9817
677.1687
677.6079
678.1762
678.7401
679.1832
679.4267
679.4392
679.235
678.8633
678.3924
677.8924
677.421
677.0137
676.6813
676.4124
676.1815
675.958
675.7151
675.4335
675.1005
674.7045
674.2302
673.6615
672.9943
672.2544
671.5029
670.8171
670.2525
669.8242
669.5487
669.5282
669.953
670.868
671.7345
671.1745
667.4419
659.6918
649.1785
639.0798
632.612
630.8627
687.9656
686.205
686.0501
685.7652
685.638
685.5467
685.4715
685.3644
685.1731
684.8391
684.3096
683.5531
682.5737
681.4205
680.1865
678.9961
677.9821
677.2577
676.8917
676.8914
677.201
677.7145
678.2994
678.8253
679.1895
679.3329
679.2449
678.9574
678.5308
678.0369
677.5422
677.0955
676.7216
676.4207
676.1738
675.9516
675.7238
675.4661
675.1625
674.8024
674.3739
673.8618
673.2531
672.5534
671.8028
671.0739
670.4422
669.947
669.5889
669.3986
669.5194
670.1428
671.1643
671.7189
670.1261
664.7394
655.4276
644.4448
635.4704
631.1398
688.1802
686.352
686.1468
685.8208
685.6605
685.5481
685.4683
685.38
685.2375
684.9851
684.5655
683.9333
683.0704
681.9995
680.7895
679.5492
678.4103
677.5017
676.9211
676.7126
676.8558
677.2705
677.8345
678.4116
678.8795
679.1524
679.1925
679.0095
678.6502
678.1831
677.6798
677.2006
676.7844
676.4447
676.172
675.9416
675.7222
675.4849
675.2087
674.8808
674.4915
674.029
673.4786
672.8326
672.1084
671.3606
670.6699
670.1036
669.6807
669.3936
669.3001
669.5863
670.4056
671.4274
671.4161
668.4791
661.3096
650.7156
639.9081
632.6325
688.4032
686.5196
686.2619
685.8925
685.6949
685.5551
685.461
685.3775
685.2662
685.0769
684.7523
684.2387
683.5005
682.5356
681.3863
680.14
678.9184
677.8563
677.0733
676.6473
676.5954
676.8698
677.3683
677.9579
678.5037
678.8962
679.0695
679.0072
678.7376
678.3199
677.8266
677.3264
676.8713
676.4889
676.182
675.9333
675.7135
675.4911
675.2397
674.9419
674.5874
674.1674
673.6699
673.0821
672.4035
671.665
670.9352
670.2976
669.805
669.4549
669.2404
669.2604
669.7344
670.7202
671.5801
670.6997
666.1326
657.1847
645.7489
635.7152
688.6297
686.7064
686.396
685.9817
685.7433
685.5712
685.4555
685.3655
685.2696
685.1248
684.8777
684.4712
683.8573
683.013
681.9543
680.743
679.4834
678.3066
677.345
676.7044
676.4388
676.5374
676.926
677.4846
678.0744
678.5674
678.8707
678.9399
678.7798
678.4349
677.973
677.4675
676.9814
676.5565
676.2091
675.9322
675.702
675.4869
675.2562
674.9868
674.6648
674.2821
673.8304
673.2978
672.6747
671.9703
671.2299
670.5339
669.9631
669.5493
669.2698
669.1322
669.2875
669.964
671.0479
671.5213
669.4367
663.0169
652.4334
640.5865
688.8537
686.9094
686.5488
686.0894
685.8077
685.5993
685.4562
685.3508
685.2572
685.1397
684.9512
684.636
684.1391
683.4213
682.4744
681.3336
680.08
678.8319
677.7253
676.8857
676.4001
676.2959
676.5336
677.0156
677.6088
678.1742
678.5956
678.7998
678.7647
678.5148
678.1076
677.6163
677.1117
676.6485
676.2576
675.9444
675.6934
675.4759
675.2594
675.0156
674.725
674.3768
673.9647
673.4809
672.9142
672.2598
671.5383
670.8101
670.1643
669.6716
669.3378
669.1254
669.0731
669.389
670.2661
671.3284
671.1275
667.4952
659.0805
647.0285
689.0686
687.1244
686.7192
686.216
685.8895
685.6415
685.4665
685.3389
685.2371
685.1319
684.9838
684.7417
684.3488
683.7551
682.9324
681.8899
680.6823
679.4084
678.1976
677.1858
676.4864
676.1635
676.2161
676.5769
677.1286
677.7302
678.2483
678.5827
678.6822
678.5465
678.2175
677.7625
677.2561
676.7638
676.3304
675.9752
675.6936
675.4632
675.2523
675.029
674.768
674.4533
674.0775
673.6357
673.1202
672.5214
671.8413
671.1134
670.4131
669.8334
669.4273
669.1704
669.0212
669.0685
669.5709
670.6187
671.4753
670.2547
664.7482
654.271
689.2669
687.345
686.9048
686.3613
685.9897
685.6994
685.4889
685.3339
685.2157
685.1106
684.9862
684.7984
684.4929
684.0141
683.3191
682.3939
681.2661
680.01
678.7399
677.5923
676.6979
676.153
675.9955
676.1948
676.6585
677.2539
677.8382
678.2886
678.5247
678.5182
678.2894
677.8943
677.4063
676.8984
676.4279
676.0286
675.7087
675.4548
675.2391
675.0289
674.7938
674.512
674.1714
673.7672
673.2959
672.7501
672.1228
671.424
670.7023
670.0467
669.5481
669.2325
669.0452
668.9572
669.126
669.8357
670.9811
671.3759
668.7633
661.1888
689.4416
687.5637
687.1014
686.5239
686.1088
685.7746
685.5253
685.3388
685.1982
685.0834
684.9686
684.8173
684.5805
684.2023
683.6306
682.8325
681.8102
680.6108
679.3271
678.0864
677.0271
676.2699
675.8892
675.8941
676.2252
676.7681
677.3803
677.923
678.2889
678.4198
678.3101
677.9985
677.5517
677.0457
676.5481
676.1068
675.7438
675.4569
675.2256
675.0187
674.8035
674.5523
674.2469
673.879
673.4466
672.947
672.3733
671.722
671.0132
670.312
669.719
669.3141
669.0874
668.9586
668.9349
669.2557
670.1795
671.2945
670.9306
666.7261
689.5863
687.7712
687.3037
686.7012
686.2468
685.8681
685.5774
685.3559
685.1882
685.0564
684.9398
684.8089
684.6223
684.3272
683.8678
683.198
682.2977
681.1871
679.9329
678.6451
677.4596
676.5124
675.9084
675.6964
675.8552
676.2985
676.8944
677.4966
677.976
678.2447
678.2679
678.0616
677.68
677.1968
676.6867
676.2096
675.8023
675.4756
675.2181
675.0037
674.7997
674.5744
674.3034
673.9722
673.5766
673.1169
672.5911
671.9929
671.3231
670.6147
669.9503
669.4381
669.1356
668.9894
668.9063
668.9604
669.4723
670.5961
671.5264
670.2846
689.6966
687.958
687.5042
686.8889
686.4022
685.9805
685.6467
685.3871
685.1884
685.0342
684.9069
684.7832
684.6292
684.3986
684.036
683.4879
682.717
681.7184
680.5314
679.2422
677.9752
676.8709
676.0569
675.6178
675.5733
675.8723
676.4043
677.0256
677.5924
677.9901
678.1533
678.0707
677.7779
677.3408
676.8364
676.3346
675.886
675.5154
675.223
674.99
674.7867
674.5799
674.3401
674.0461
673.688
673.2651
672.7801
672.2312
671.6124
670.9307
670.2346
669.6257
669.2117
669.0142
668.9327
668.8861
669.0489
669.8028
671.1168
671.8591
689.7703
688.1146
687.6948
687.0811
686.5724
686.1117
685.7343
685.434
685.2011
685.0202
684.8757
684.7485
684.612
684.4272
684.1434
683.7045
683.0617
682.1891
681.0992
679.8511
678.5494
677.3293
676.3309
675.668
675.4001
675.5163
675.9366
676.5311
677.1502
677.6583
677.9601
678.0141
677.8317
677.465
676.9879
676.4767
675.9941
675.5794
675.2458
674.9843
674.7704
674.5722
674.3575
674.0993
673.7802
673.3947
672.9461
672.4389
671.8705
671.2356
670.5493
669.8802
669.3473
669.0466
668.9482
668.9106
668.9042
669.2356
670.3166
671.9219
689.8085
688.2328
687.8663
687.2704
686.753
686.2603
685.841
685.4982
685.228
685.017
684.8502
684.7116
684.58
684.4243
684.2003
683.8541
683.3308
682.589
681.617
680.446
679.1554
677.8657
676.7188
675.8489
675.3507
675.2549
675.5193
676.038
676.6668
677.2568
677.6865
677.8828
677.8286
677.5559
677.1298
676.6282
676.1235
675.6685
675.2907
674.9926
674.7574
674.5568
674.3584
674.1312
673.8513
673.5057
673.0935
672.622
672.0965
671.5127
670.8659
670.1841
669.5595
669.1249
668.9473
668.9327
668.9197
668.9845
669.5942
671.1597
689.8161
688.3068
688.01
687.448
686.938
686.4237
685.9665
685.5809
685.2709
685.0264
684.8336
684.6776
684.5412
684.4
684.2177
683.9455
683.5278
682.9131
682.0705
681.0044
679.7661
678.4543
677.2025
676.1547
675.433
675.108
675.1792
675.574
676.1647
676.7992
677.3357
677.6712
677.7571
677.5999
677.2493
676.7795
676.2685
675.7814
675.3601
675.02
674.7542
674.5401
674.3473
674.1435
673.8999
673.5959
673.2232
672.7863
672.2959
671.7568
671.1611
670.5069
669.8406
669.2825
668.9687
668.9161
668.9615
668.9665
669.1781
670.2184
689.8019
688.3341
688.1182
687.605
687.1195
686.5973
686.1097
685.6829
685.3312
685.0503
684.828
684.6502
684.5018
684.3634
684.2065
683.9895
683.6598
683.162
682.4507
681.5078
680.3562
679.0677
677.7587
676.5717
675.647
675.0891
674.9401
675.1673
675.6701
676.3043
676.9167
677.3784
677.6087
677.584
677.3327
676.9188
676.4213
675.9146
675.4543
675.0702
674.7666
674.5288
674.3303
674.1398
673.9262
673.6629
673.3331
672.934
672.4757
671.9717
671.4233
670.8184
670.1617
669.5263
669.0609
668.8886
668.9518
669.029
669.0695
669.5256
689.7784
688.3168
688.1855
687.7325
687.2889
686.7749
686.2675
685.804
685.4103
685.0903
684.8355
684.6322
684.4664
684.322
684.1768
683.9972
683.7366
683.3402
682.7546
681.9434
680.9039
679.6788
678.3605
677.0801
675.9846
675.2044
674.821
674.8448
675.2113
675.7958
676.4442
677.0087
677.3784
677.4972
677.3663
677.0331
676.5717
676.062
675.5716
675.1447
674.7989
674.529
674.3142
674.1259
673.9329
673.7056
673.4199
673.0636
672.6401
672.1654
671.6534
671.0993
670.4867
669.8343
669.251
668.9096
668.8928
669.0481
669.1294
669.2316
689.7613
688.2617
688.2099
687.8232
687.4368
686.9486
686.4355
685.9428
685.5089
685.148
684.8576
684.6256
684.4383
684.2814
684.1371
683.9793
683.7691
683.4558
682.9836
682.3039
681.3921
680.2627
678.9799
677.6549
676.4304
675.4519
674.8339
674.6298
674.817
675.301
675.9386
676.5723
677.0661
677.3311
677.3372
677.1086
676.708
676.2155
675.708
675.2436
674.8541
674.5459
674.3055
674.1084
673.9253
673.7256
673.4812
673.1711
672.7886
672.3445
671.8597
671.3452
670.787
670.1674
669.5305
669.0294
668.8452
668.9846
669.1936
669.2537
689.7684
688.1806
688.1933
687.872
687.5542
687.1096
686.6071
686.0964
685.6268
685.2248
684.896
684.6322
684.4201
684.2457
684.0943
683.9455
683.7684
683.5192
683.1438
682.5875
681.8092
680.7985
679.5899
678.2684
676.9624
675.8213
674.983
674.54
674.514
674.8492
675.4248
676.0854
676.6773
677.0816
677.2345
677.1314
676.8168
676.3648
675.8574
675.3647
674.9334
674.5831
674.3097
674.0941
673.9097
673.7271
673.5169
673.2526
672.917
672.5101
672.0509
671.5632
671.0504
670.4871
669.8623
669.2609
668.8813
668.8839
669.1646
669.3923
689.8182
688.0904
688.1425
687.8776
687.6339
687.2483
686.7743
686.2599
685.7626
685.3213
684.9523
684.6536
684.4134
684.2179
684.0535
683.9038
683.7451
683.5413
683.2439
682.7972
682.1497
681.2705
680.1661
678.8922
677.5546
676.2951
675.2642
674.5857
674.3248
674.4692
674.9315
675.57
676.2238
676.7496
677.0503
677.0885
676.8839
676.4977
676.0112
675.5038
675.0363
674.6429
674.3311
674.0888
673.893
673.7164
673.5305
673.3066
673.0201
672.6588
672.2313
671.7642
671.2803
670.7706
670.1995
669.5766
669.0429
668.8328
669.0471
669.4627
689.9281
688.0116
688.0689
687.8429
687.671
687.3559
686.928
686.4267
685.9131
685.4373
685.0279
684.6914
684.42
684.2002
684.0184
683.8605
683.7083
683.5334
683.2948
682.94
682.4131
681.6687
680.6889
679.4995
678.1782
676.8497
675.6651
674.7693
674.2657
674.1875
674.4884
675.0524
675.7232
676.3417
676.7811
676.9693
676.8953
676.6005
676.159
675.6546
675.1606
674.7263
674.3728
674.0972
673.8813
673.7004
673.5277
673.335
673.0945
672.7842
672.3985
671.9559
671.4892
671.0148
670.5063
669.9253
669.3218
668.9044
668.9227
669.3883
690.1122
687.9671
687.9884
687.7755
687.6644
687.425
687.0586
686.5885
686.0733
685.5713
685.1234
684.7474
684.4415
684.1942
683.9916
683.8203
683.6656
683.5057
683.3077
683.0255
682.6039
681.9889
681.1438
680.0667
678.8048
677.4577
676.1661
675.0844
674.3453
674.0257
674.1246
674.5621
675.1989
675.8713
676.429
676.7663
676.8381
676.6588
676.2882
675.8085
675.3021
674.8327
674.4368
674.123
673.8799
673.6856
673.5153
673.3427
673.1403
672.8808
672.5459
672.1389
671.6888
671.2311
670.7689
670.2574
669.6698
669.1204
668.8907
669.2154
690.3801
687.9805
687.9205
687.688
687.6174
687.4512
687.1572
686.736
686.2363
685.7198
685.2385
684.8227
684.4795
684.2015
683.975
683.7864
683.6226
683.4668
683.2937
683.0649
682.73
682.2323
681.5224
680.5752
679.4077
678.0899
676.7421
675.5162
674.5639
673.9987
673.8661
674.1296
674.6788
675.3577
676.0021
676.477
676.7016
676.6583
676.3847
675.9546
675.4541
674.9598
674.5237
674.1687
673.8925
673.6774
673.5003
673.3367
673.1614
672.9466
672.666
672.3069
671.8835
671.4351
670.9945
670.5443
670.0258
669.4467
669.0117
669.0624
690.734
688.0736
687.8867
687.5975
687.5383
687.4337
687.2166
686.8595
686.3936
685.8776
685.3715
684.918
684.5358
684.2237
683.9702
683.7612
683.5836
683.4238
683.2625
683.0696
682.8018
682.4046
681.8222
681.0121
679.9644
678.7174
677.3644
676.0434
674.9126
674.1132
673.7334
673.784
674.1934
674.8258
675.5152
676.1044
676.4792
676.586
676.4338
676.0799
675.608
675.1032
674.633
674.2361
673.9222
673.68
673.4883
673.3241
673.1643
672.9837
672.7541
672.4509
672.0693
671.6369
671.2011
670.7841
670.343
669.8173
669.2825
669.0436
691.1679
688.2639
687.909
687.5246
687.4403
687.3763
687.2326
686.9502
686.5357
686.0376
685.5187
685.0329
684.6114
684.2625
683.9787
683.7462
683.5515
683.3819
683.2224
683.0504
682.8307
682.5148
682.0459
681.3708
680.4575
679.3144
678.0032
676.6393
675.3748
674.367
673.7398
673.5506
673.7735
674.3048
674.9893
675.6585
676.1691
676.4316
676.4207
676.1698
675.7522
675.2564
674.7625
674.3259
673.9713
673.6965
673.484
673.3112
673.1566
672.9982
672.8102
672.5632
672.2363
671.836
671.4048
670.9938
670.6046
670.1678
669.6463
669.211
691.6665
688.5624
688.0073
687.4916
687.3413
687.288
687.2047
687.0008
686.6528
686.191
685.6748
685.1655
684.7072
684.3196
684.0021
683.743
683.5282
683.3447
683.1799
683.0167
682.8281
682.5736
682.2002
681.6501
680.8758
679.8592
678.6301
677.2742
675.927
674.7491
673.8897
673.4485
673.4481
673.8261
674.4511
675.1555
675.776
676.189
676.3325
676.209
675.8733
675.4101
674.9078
674.4378
674.0414
673.7295
673.4904
673.3029
673.1452
672.9978
672.839
672.6411
672.3742
672.0237
671.6115
671.1954
670.8218
670.4611
670.0268
669.5382
692.2043
688.9711
688.1972
687.5208
687.2624
687.1828
687.1375
687.0075
686.7361
686.3283
685.8323
685.312
684.8225
684.3962
684.0421
683.7531
683.5153
683.3148
683.1396
682.9762
682.8046
682.5928
682.295
681.8542
681.2141
680.336
679.2195
677.918
676.5413
675.2408
674.1789
673.4893
673.2415
673.4208
673.9309
674.6184
675.311
675.8577
676.1593
676.1826
675.9562
675.5524
675.0621
674.5695
674.1337
673.7812
673.5102
673.3024
673.1354
672.99
672.8481
672.6872
672.4766
672.1873
671.8154
671.4029
671.0198
670.695
670.363
669.946
692.7466
689.4814
688.4878
687.6323
687.2267
687.0791
687.0405
686.9704
686.7786
686.4396
685.9824
685.4668
684.9552
684.4928
684.1005
683.7781
683.5141
683.2939
683.1047
682.9347
682.7691
682.5838
682.3417
681.991
681.4729
680.7349
679.7512
678.5424
677.187
675.8168
674.594
673.6754
673.1716
673.1175
673.4608
674.0753
674.7926
675.4436
675.8958
676.0777
675.9848
675.6691
675.2156
674.7167
674.2478
673.8535
673.5457
673.3123
673.131
672.981
672.8459
672.7085
672.5433
672.3165
672.0031
671.6165
671.2217
670.893
670.6302
670.3444
693.2506
690.0726
688.8791
687.8411
687.2568
686.9988
686.9286
686.8945
686.7768
686.516
686.1153
685.6223
685.1014
684.6089
684.1784
683.8198
683.5261
683.2833
683.0774
682.8965
682.7287
682.5568
682.3521
682.0712
681.6578
681.0525
680.2105
679.1228
677.8339
676.4477
675.1142
673.9999
673.2479
672.9396
673.0722
673.5576
674.2453
674.9599
675.5427
675.8847
675.9442
675.7442
675.3559
674.8722
674.3818
673.9478
673.5993
673.3347
673.1342
672.9751
672.8396
672.7139
672.5798
672.4072
672.1604
671.8244
671.4368
671.0856
670.8401
670.6724
693.668
690.7121
689.3609
688.155
687.3727
686.9654
686.8208
686.7901
686.7311
686.5509
686.2211
685.7693
685.2553
684.7421
684.2764
683.8799
683.5531
683.2845
683.0592
682.8643
682.6889
682.5202
682.3374
682.1065
681.7776
681.2909
680.5895
679.6399
678.4541
677.1025
675.7124
674.4474
673.4705
672.9033
672.793
673.0982
673.6988
674.4268
675.1075
675.5995
675.8215
675.7616
675.4677
675.0256
674.531
674.0641
673.6733
673.3719
673.147
672.9747
672.8341
672.7116
672.5949
672.4623
672.2785
672.0097
671.6583
671.2934
671.0252
670.9152
693.9478
691.3558
689.9112
688.5721
687.5892
687.0017
686.7398
686.6726
686.6472
686.541
686.291
685.8981
685.4089
684.8883
684.3936
683.9595
683.5969
683.2989
683.0513
682.84
682.6532
682.4806
682.3076
682.1088
681.8438
681.4569
680.8862
680.081
679.0239
677.7506
676.3583