/*--------------------------------*- C++ -*----------------------------------*\
| =========                 |                                                 |
| \\      /  F ield         | OpenFOAM: The Open Source CFD Toolbox           |
|  \\    /   O peration     | Version:  2312                                  |
|   \\  /    A nd           | Website:  www.openfoam.com                      |
|    \\/     M anipulation  |                                                 |
\*---------------------------------------------------------------------------*/
FoamFile
{
    version     2.0;
    format      ascii;
    arch        "LSB;label=32;scalar=64";
    class       volScalarField;
    location    "3600";
    object      k;
}
// * * * * * * * * * * * * * * * * * * * * * * * * * * * * * * * * * * * * * //

dimensions      [0 2 -2 0 0 0 0];

internalField   nonuniform List<scalar> 
12000
(
0.00243262
0.005043099
0.00604181
0.007088571
0.00792714
0.00867003
0.009313355
0.009910905
0.01045835
0.01095371
0.01138456
0.01177655
0.01215307
0.01250541
0.01281129
0.01306912
0.01331426
0.01354781
0.01375903
0.01391867
0.01405962
0.01418625
0.01430643
0.01439163
0.01445306
0.01449832
0.01453568
0.01455458
0.01455623
0.01453831
0.01450852
0.01447213
0.01442296
0.01436459
0.01427931
0.01410755
0.01389782
0.01378294
0.0137441
0.01362083
0.01332577
0.01285186
0.01249186
0.01248393
0.01241299
0.01195099
0.01103492
0.0106398
0.0104971
0.01047511
0.009770623
0.008654274
0.008174395
0.007933733
0.007306189
0.006379175
0.005551009
0.004938383
0.004259497
0.004074738
0.002578545
0.006258743
0.007131321
0.008135448
0.009213014
0.0105016
0.01170475
0.01282891
0.01407236
0.01549435
0.01700423
0.017957
0.01874045
0.0198775
0.02127431
0.02234881
0.02291591
0.02359316
0.0246863
0.02570332
0.02633854
0.02676912
0.02745179
0.02821845
0.02882736
0.02924422
0.02966531
0.03016276
0.0306433
0.03103361
0.03134038
0.03159974
0.03190573
0.03221954
0.0324354
0.03254425
0.03257462
0.0326718
0.03278676
0.03285693
0.03287961
0.03276751
0.03272714
0.03249889
0.03191684
0.0315358
0.03109469
0.03084916
0.0296705
0.02796472
0.02676469
0.02578607
0.02458836
0.02182775
0.01922935
0.01693077
0.01429839
0.01062896
0.007359051
0.007221552
0.003781549
0.007947235
0.009567618
0.01125436
0.01331483
0.01547597
0.01759397
0.01938666
0.02110865
0.0226315
0.02405623
0.02531728
0.02633727
0.02738967
0.02843487
0.02937237
0.03013139
0.03079188
0.03145643
0.03212342
0.03272011
0.03322296
0.03368554
0.03415444
0.03461649
0.03503495
0.03540928
0.03576959
0.036136
0.03649872
0.0368458
0.03714051
0.03746671
0.03783225
0.03818003
0.0385186
0.03881296
0.03903508
0.03923297
0.03947569
0.03979058
0.04006703
0.04020168
0.04024121
0.04029155
0.04040935
0.04041359
0.04016532
0.0397186
0.03909819
0.03835692
0.03726976
0.03576347
0.03399414
0.03139716
0.02768743
0.02326014
0.01748928
0.01056829
0.009695002
0.004608913
0.008345949
0.01060604
0.01300237
0.01567047
0.01826091
0.02062585
0.02264052
0.02441451
0.02619707
0.0276634
0.02882674
0.02974905
0.03055865
0.03131572
0.0319734
0.03254651
0.03306168
0.03353255
0.03397371
0.0343857
0.03477561
0.03515215
0.03552338
0.03588719
0.0362381
0.03657675
0.03690895
0.03723921
0.03756683
0.03785082
0.03813959
0.03847013
0.03879448
0.03911214
0.0394223
0.03972861
0.0400327
0.04033836
0.04065271
0.04094287
0.04121056
0.04143844
0.04164491
0.04180237
0.04189466
0.04190665
0.04182841
0.04155766
0.04110371
0.04050242
0.03959303
0.03804321
0.0357618
0.03300966
0.02981392
0.02580821
0.02051235
0.01356614
0.01134882
0.005371857
0.00871397
0.01152707
0.01444151
0.01743271
0.02016253
0.02251687
0.02447742
0.02608421
0.02750613
0.02872903
0.02974162
0.03056537
0.03115428
0.03166774
0.03213187
0.03256606
0.03298546
0.03334387
0.03366418
0.03397905
0.03429349
0.03460103
0.03490375
0.03520628
0.03551058
0.03581882
0.03613424
0.03645995
0.03676461
0.03707291
0.0374248
0.03779429
0.03817773
0.03857263
0.0389784
0.03940384
0.03984688
0.04031273
0.04079399
0.04128991
0.04178608
0.04225517
0.04270428
0.04312806
0.04350123
0.04379354
0.04397203
0.04402268
0.0439707
0.04348458
0.04243941
0.04099104
0.03915075
0.03679066
0.03363441
0.02932673
0.02344382
0.01548123
0.01262677
0.006063034
0.008923518
0.01206447
0.01523164
0.01832621
0.02106113
0.02335633
0.02522711
0.02671447
0.02789164
0.02885224
0.02965707
0.03035244
0.0308992
0.03127458
0.03156922
0.03179378
0.0319625
0.03214782
0.03236186
0.03259428
0.03283723
0.03309083
0.03335839
0.03364283
0.03394594
0.03426882
0.03461216
0.03497603
0.03536004
0.03576862
0.03620606
0.03667408
0.0371773
0.03771179
0.03825745
0.03883772
0.03946418
0.04011141
0.04077993
0.04147
0.04217344
0.04287796
0.04354955
0.04418077
0.04475576
0.04523036
0.04560803
0.04579674
0.04568151
0.045127
0.04417894
0.04280328
0.04089151
0.03830817
0.03491846
0.03053273
0.02477196
0.01703622
0.01352619
0.006616688
0.009082109
0.01240184
0.01564182
0.01868609
0.02130274
0.02347378
0.02524025
0.02667349
0.02776188
0.0285789
0.02916399
0.029605
0.02997296
0.03025296
0.03042087
0.03054068
0.03064402
0.03075996
0.03090033
0.03106896
0.03126712
0.0314964
0.03175887
0.03205627
0.03238983
0.03276043
0.03316877
0.03361559
0.0341012
0.03462761
0.03519683
0.03580015
0.03644502
0.03714126
0.03788175
0.03865555
0.03946784
0.04031935
0.04120385
0.04211337
0.04303666
0.04395821
0.04485784
0.04571392
0.04648841
0.0471704
0.04768415
0.04787278
0.04776414
0.04728766
0.04639225
0.04500016
0.04303332
0.04039764
0.03694949
0.03244322
0.02643088
0.0182078
0.01420163
0.007278739
0.009178293
0.01254679
0.01574213
0.01868805
0.02127152
0.02338729
0.0250609
0.02632133
0.0272755
0.02797132
0.02846168
0.02879892
0.02902259
0.02919808
0.02934031
0.02942694
0.0294929
0.02957153
0.02967941
0.02982499
0.03001328
0.03024771
0.03053073
0.03086402
0.03124863
0.03168522
0.03217419
0.03271587
0.03331054
0.0339588
0.03465841
0.03541017
0.03621441
0.0370703
0.03797731
0.0389334
0.03993539
0.04097863
0.04205601
0.04315765
0.04427012
0.04537553
0.04645095
0.04746423
0.0483889
0.04915786
0.0496953
0.04992694
0.04984466
0.0493457
0.04836049
0.04682221
0.0446619
0.04179639
0.03810473
0.03338183
0.02723717
0.01903632
0.01469279
0.007900271
0.009257027
0.01260595
0.01573132
0.01861736
0.02106102
0.02306399
0.02464007
0.02583826
0.02672774
0.02736757
0.02781132
0.02810637
0.02829156
0.02840633
0.02849486
0.02858434
0.02866904
0.02875936
0.02887646
0.02903409
0.02924177
0.02950522
0.02982794
0.03021199
0.03065848
0.03116813
0.03174124
0.03237685
0.03307424
0.0338329
0.03465517
0.03554113
0.03648617
0.03748882
0.03854715
0.03965804
0.04081697
0.04201766
0.04325136
0.0445063
0.04576681
0.04701225
0.04821622
0.04934229
0.05034726
0.0511799
0.05176846
0.0520265
0.05191448
0.0513339
0.05021798
0.04851462
0.0461777
0.04314425
0.03930425
0.0344501
0.02816692
0.01975467
0.01504455
0.008261863
0.009287764
0.01260168
0.01563861
0.01837223
0.02071851
0.02264794
0.02417892
0.02535701
0.02623826
0.02687673
0.02732258
0.02762144
0.02781441
0.02793567
0.02801932
0.02810056
0.0282036
0.02833369
0.02849455
0.02869917
0.02895652
0.02927334
0.02965337
0.03009869
0.03060996
0.03118671
0.03183218
0.0325507
0.03334011
0.0341984
0.03512804
0.03612593
0.03718502
0.03830357
0.03947892
0.04070711
0.04198257
0.0432977
0.04464228
0.04600274
0.04736139
0.04869564
0.04997677
0.05117415
0.05223785
0.0531052
0.05370112
0.05393613
0.05374888
0.05304518
0.05176384
0.0498699
0.04733693
0.04411436
0.04009715
0.035081
0.02866288
0.02018343
0.01528074
0.00866398
0.009317419
0.01258107
0.01552094
0.0181478
0.0204036
0.02226642
0.02375462
0.02490935
0.02578096
0.02642587
0.02689617
0.02723775
0.02748694
0.02767564
0.02783035
0.02797263
0.02812382
0.0282987
0.02850558
0.02875325
0.02906018
0.02943057
0.02986892
0.03037851
0.03096162
0.03162025
0.03235182
0.03315191
0.03402091
0.03495812
0.03596663
0.03704452
0.03818441
0.03938353
0.04063829
0.04194393
0.0432941
0.04468045
0.04609202
0.04751449
0.04892933
0.05031274
0.05163437
0.05285631
0.05392652
0.05478185
0.05535322
0.05554809
0.05527207
0.05442963
0.052981
0.05092855
0.04825483
0.04490907
0.04078603
0.03567682
0.02917077
0.0205896
0.01545074
0.009079629
0.009323548
0.01252535
0.01534527
0.0178441
0.02000143
0.02180588
0.02327616
0.02445085
0.02537568
0.02609273
0.02664209
0.02706214
0.02738694
0.02764673
0.02786037
0.02805972
0.02826778
0.02850546
0.02879176
0.02913293
0.02952458
0.02997283
0.03048374
0.03106151
0.03170874
0.03242595
0.03321279
0.0340686
0.0349929
0.03598474
0.03704565
0.0381738
0.03936315
0.04061005
0.0419101
0.04325783
0.04464625
0.04606644
0.04750695
0.04895308
0.05038589
0.0517809
0.05310673
0.05432042
0.05537306
0.05620319
0.05673561
0.05687066
0.05649865
0.05552369
0.05392338
0.05173796
0.04895115
0.04549759
0.04126823
0.03605375
0.02944848
0.02079453
0.01554308
0.009410687
0.009319154
0.01245343
0.01517514
0.01757801
0.01966642
0.02143879
0.02291181
0.02411351
0.02507766
0.02584268
0.02645238
0.02694093
0.02734303
0.02768864
0.02800513
0.02830713
0.02861589
0.02894946
0.02931792
0.0297274
0.03018391
0.03069772
0.03127389
0.03191311
0.03261683
0.0333868
0.03422344
0.03512608
0.03609412
0.03712658
0.03822306
0.03938191
0.04059928
0.04187089
0.04319164
0.04455552
0.04595519
0.04738139
0.04882249
0.05026363
0.0516859
0.05306487
0.05436896
0.05555817
0.05658648
0.05739388
0.05789077
0.05796622
0.05751112
0.05643731
0.05471804
0.05239699
0.04949792
0.04595776
0.04165217
0.03637058
0.02970647
0.02099916
0.01561079
0.009670014
0.00931015
0.01238737
0.01503427
0.01735408
0.01938222
0.02112374
0.02259102
0.02380723
0.0248067
0.02562495
0.02629457
0.02685309
0.02733707
0.0277695
0.02817245
0.02856557
0.02896614
0.02938713
0.02984048
0.03033535
0.03087823
0.0314722
0.03211717
0.032814
0.03356829
0.03438482
0.0352629
0.03620289
0.03720409
0.03826535
0.03938516
0.0405625
0.04179435
0.04307563
0.0444011
0.04576442
0.04715807
0.04857274
0.04999675
0.05141518
0.05280888
0.05415355
0.05542191
0.05658582
0.05760288
0.05839502
0.0588589
0.05888301
0.05835383
0.05718448
0.05535165
0.05291336
0.04991928
0.04630258
0.04192443
0.03657349
0.02984478
0.02108303
0.0156308
0.009874067
0.009302327
0.01231666
0.01489235
0.01713709
0.01910584
0.0208136
0.02227441
0.02350977
0.02454586
0.02541183
0.02613935
0.02676509
0.02732212
0.02783436
0.02832294
0.02880499
0.02929394
0.02980219
0.03033908
0.0309128
0.0315302
0.0321957
0.03291141
0.03367792
0.03449439
0.0353587
0.03627365
0.03724465
0.03827097
0.03935059
0.04048196
0.04166551
0.0429002
0.04417982
0.04549783
0.04684805
0.04822291
0.04961317
0.05100736
0.05239118
0.05374683
0.05506044
0.05631533
0.05747063
0.05846821
0.05923032
0.05965828
0.0596355
0.05904302
0.05779461
0.05587071
0.05332935
0.05024668
0.04656139
0.04212482
0.03672683
0.02996095
0.0211689
0.01563602
0.01001918
0.009297845
0.01225272
0.01476595
0.0169418
0.01885466
0.02052769
0.02197648
0.02322012
0.02428167
0.02518741
0.02596667
0.02665374
0.02728292
0.02787509
0.02844442
0.02900656
0.02957454
0.0301604
0.03077441
0.03142375
0.03211355
0.03284736
0.03362702
0.03445308
0.0353252
0.03624255
0.03720451
0.03820971
0.03925657
0.0403474
0.04148504
0.04266717
0.04389464
0.04516394
0.04646636
0.0477954
0.04914326
0.05050072
0.05185954
0.0532134
0.05455133
0.05585451
0.05709531
0.05823257
0.05920635
0.05993536
0.06031906
0.06024489
0.059599
0.0582884
0.05628231
0.05364673
0.05048773
0.04674435
0.04225885
0.03681779
0.0300119
0.02118408
0.0156268
0.01012849
0.009299046
0.01219876
0.01465191
0.01676345
0.0186223
0.02025931
0.02169229
0.02293922
0.02402099
0.02496156
0.02578759
0.02652946
0.0272184
0.02787506
0.0285184
0.0291553
0.02979781
0.03045654
0.03114085
0.03185768
0.03261222
0.03340791
0.03424607
0.03512624
0.03604698
0.03700678
0.03800472
0.03904041
0.04011362
0.04122393
0.0423689
0.04354314
0.04475118
0.04600097
0.04728568
0.04859459
0.0499201
0.05125591
0.05259577
0.05393191
0.05525289
0.05654056
0.05776583
0.05888437
0.05983335
0.06053014
0.06087353
0.06075051
0.06004614
0.05867333
0.05660629
0.05390663
0.05068312
0.04688871
0.0423674
0.03689738
0.03006599
0.02120503
0.0156064
0.01020551
0.00930858
0.01215989
0.01455161
0.01659954
0.01840371
0.02000167
0.0214138
0.02265824
0.02375489
0.02472597
0.0255954
0.02638758
0.02712951
0.02784664
0.02854843
0.02925025
0.02995902
0.03068274
0.03142935
0.03220681
0.03302068
0.03387362
0.03476605
0.03569656
0.03666262
0.03766161
0.03869175
0.03975239
0.04084377
0.04196573
0.04311553
0.0442851
0.04547923
0.04671308
0.04798357
0.04927746
0.05058633
0.05190438
0.0532265
0.05454593
0.05585132
0.05712351
0.05833183
0.05943019
0.06035405
0.06101941
0.06132483
0.06115878
0.06040605
0.05897821
0.05684799
0.05408248
0.05079972
0.04696186
0.0424094
0.03691644
0.03006727
0.02120043
0.01556973
0.01026475
0.009332746
0.01213247
0.0144629
0.01644773
0.01819641
0.01975252
0.02113947
0.02237628
0.02348228
0.02447809
0.02538505
0.02622389
0.02701464
0.027779
0.02853523
0.02929114
0.03005636
0.03083741
0.03164148
0.03247515
0.03334336
0.03424875
0.03519136
0.03616884
0.03717737
0.03821311
0.03927342
0.04035736
0.04146523
0.04259719
0.04375075
0.04491749
0.04610188
0.04732146
0.0485772
0.04985706
0.05115162
0.05245475
0.05376168
0.05506609
0.05635689
0.05761458
0.05880733
0.05988729
0.06078813
0.06142452
0.06169451
0.06148743
0.06068868
0.05921302
0.05703568
0.05422439
0.05089844
0.04702757
0.04245073
0.0369321
0.03007147
0.02119475
0.01554399
0.01030804
0.009375421
0.01213312
0.01438889
0.01630594
0.01799635
0.01950741
0.02086496
0.02208892
0.0231983
0.02421234
0.02515031
0.02603052
0.02686918
0.02768013
0.02847923
0.02928265
0.03009685
0.03092865
0.0317834
0.03266686
0.03358406
0.03453766
0.03552716
0.03654926
0.03759879
0.03867044
0.03976036
0.04086696
0.04199041
0.04313121
0.04428847
0.04545914
0.04664047
0.04784415
0.04908423
0.05035302
0.05163631
0.05292734
0.0542219
0.05551425
0.05679342
0.05803939
0.05921918
0.06028339
0.0611641
0.06177479
0.06201312
0.06176919
0.06092863
0.05940771
0.05718341
0.05432677
0.05096142
0.0470608
0.04246335
0.03693153
0.03005472
0.02116548
0.0154976
0.01034426
0.009443824
0.01214127
0.01432807
0.01617497
0.0178039
0.01926618
0.02058985
0.02179553
0.02290182
0.02392671
0.02488761
0.02580083
0.02668093
0.02754015
0.02838845
0.02923456
0.03008949
0.03096414
0.03186381
0.03279246
0.03375431
0.03475197
0.03578504
0.03684958
0.03793905
0.03904645
0.04016648
0.04129672
0.04243724
0.04358913
0.04475259
0.04592588
0.04710575
0.04830258
0.0495321
0.05078981
0.05206279
0.05334394
0.05462873
0.05591133
0.05718068
0.05841625
0.05958404
0.06063321
0.06149437
0.06207995
0.06228727
0.06200734
0.0611268
0.05956454
0.05730009
0.05440647
0.05100892
0.04708422
0.04246855
0.03692538
0.03004185
0.0211504
0.01547255
0.01037941
0.009531699
0.01217177
0.01427831
0.01605115
0.01761605
0.01902678
0.02031286
0.02149539
0.02259247
0.02362096
0.02459666
0.02553418
0.02644649
0.02734474
0.02823815
0.02913425
0.03003941
0.03095891
0.03189853
0.03286681
0.03386906
0.03490694
0.03598021
0.0370849
0.03821344
0.03935691
0.04050815
0.04166353
0.04282292
0.04398802
0.04516019
0.0463387
0.04751997
0.04871351
0.04993591
0.05118499
0.05244928
0.0537219
0.05499818
0.05627216
0.05753253
0.05875822
0.05991423
0.06094848
0.06179029
0.06235122
0.06252845
0.06221378
0.06129497
0.05969317
0.05739056
0.05446301
0.051038
0.04709303
0.04246221
0.03690513
0.03001074
0.02111294
0.01542643
0.01041688
0.009654567
0.01222964
0.01424626
0.0159394
0.01743604
0.01879145
0.02003592
0.0211906
0.02227304
0.02329904
0.0242831
0.02523839
0.02617656
0.02710762
0.02803985
0.02897997
0.02993337
0.03090414
0.03189514
0.03290918
0.03394892
0.0350213
0.03613073
0.03727313
0.0384396
0.03961919
0.04080251
0.04198439
0.0431642
0.0443441
0.04552652
0.04671182
0.04789701
0.04909048
0.05030812
0.05154986
0.05280634
0.05407111
0.05533935
0.05660495
0.05785634
0.0590719
0.06021578
0.06123473
0.06205697
0.06259337
0.06274105
0.06239269
0.06143755
0.05979921
0.05746258
0.05450582
0.05105755
0.04709552
0.04245389
0.0368897
0.02999174
0.02109431
0.0154044
0.01046247
0.009798035
0.01230196
0.0142285
0.01583611
0.01726163
0.01855931
0.01975942
0.02088289
0.02194674
0.02296592
0.02395391
0.02492277
0.02588304
0.02684363
0.02781181
0.02879324
0.02979231
0.03081212
0.03185454
0.03291942
0.03400737
0.03511769
0.03625702
0.03743154
0.03863279
0.03984728
0.04106269
0.04227166
0.04347268
0.04466824
0.04586189
0.04705524
0.04824594
0.04944093
0.05065517
0.05189066
0.05314
0.05439712
0.05565727
0.05691429
0.05815638
0.05936145
0.0604928
0.06149617
0.06229881
0.06281101
0.06292997
0.06254915
0.06155944
0.05988671
0.05751859
0.05453577
0.051068
0.04709173
0.04243837
0.03686452
0.02995864
0.02105709
0.01536365
0.01051233
0.009977995
0.01240705
0.01422958
0.01574872
0.01709837
0.01833435
0.01948666
0.02057577
0.02161802
0.02262758
0.02361702
0.02459739
0.02557817
0.02656719
0.02757057
0.0285928
0.029637
0.03070487
0.03179641
0.03291111
0.03404721
0.03520273
0.03637724
0.03757795
0.03880774
0.04005328
0.041299
0.04253449
0.04375664
0.04496773
0.04617207
0.04737311
0.04857251
0.04977188
0.05098096
0.05220938
0.05345272
0.05470273
0.05595467
0.0572027
0.05843507
0.05962924
0.06074777
0.06173543
0.06251859
0.06300711
0.06309835
0.06268653
0.0616644
0.05996
0.05756364
0.05455827
0.05107427
0.04708682
0.04242582
0.03684721
0.02993935
0.02103966
0.0153462
0.0105704
0.01017186
0.01252057
0.01424043
0.0156688
0.01694191
0.01811541
0.01921902
0.02027283
0.02129267
0.02229201
0.02328259
0.02427448
0.02527602
0.02629378
0.02733251
0.02839523
0.02948357
0.03059805
0.0317377
0.03290059
0.03408374
0.03528368
0.03649672
0.03772578
0.03897824
0.04024873
0.04152062
0.04278027
0.04402233
0.04524851
0.04646369
0.04767248
0.04887767
0.0500804
0.05128858
0.05251187
0.05374783
0.05498965
0.05623287
0.05747166
0.05869408
0.05987719
0.06098279
0.0619548
0.06271884
0.0631844
0.06324909
0.06280784
0.06175531
0.06002152
0.05759933
0.05457388
0.05107607
0.04707846
0.04240913
0.03682363
0.02991012
0.02100715
0.0153131
0.01063888
0.01039662
0.01267053
0.01427733
0.01560762
0.01679931
0.0179074
0.01896072
0.01997853
0.02097589
0.02196541
0.02295788
0.02396222
0.02498554
0.02603301
0.02710796
0.02821192
0.02934512
0.03050619
0.03169264
0.03290108
0.03412789
0.03536948
0.03662156
0.03787988
0.03915118
0.04044128
0.04173458
0.04301499
0.04427474
0.04551461
0.0467398
0.04795579
0.04916607
0.05037154
0.05157892
0.0527975
0.05402621
0.05525952
0.05649358
0.05772273
0.05893494
0.06010683
0.06119954
0.06215615
0.0629016
0.06334512
0.06338463
0.0629157
0.06183501
0.06007443
0.05762926
0.05458666
0.05107771
0.04707253
0.0423979
0.03680932
0.02989455
0.02099301
0.01530098
0.01072151
0.01063125
0.01281867
0.01432438
0.01555561
0.01666588
0.01770908
0.01871323
0.01969675
0.02067378
0.02165596
0.02265291
0.02367225
0.0247196
0.02579855
0.02691077
0.02805611
0.02923343
0.03043941
0.03167047
0.03292139
0.03418967
0.03546926
0.03675556
0.0380441
0.03933736
0.04064175
0.04195029
0.04324654
0.04452049
0.04577158
0.04700493
0.04822656
0.04944038
0.05064759
0.05185414
0.05306816
0.05428931
0.05551356
0.05673792
0.05795705
0.05915882
0.06031948
0.06139945
0.06234104
0.06306858
0.06349109
0.06350683
0.06301199
0.06190526
0.06012011
0.05765415
0.05459639
0.05107811
0.04706613
0.04238538
0.03679157
0.02987228
0.02096803
0.01527643
0.01081639
0.01087843
0.01298434
0.01439195
0.01552198
0.0165499
0.01752824
0.01848427
0.01943548
0.02039494
0.021373
0.02237782
0.0234154
0.02448962
0.02560222
0.02675303
0.02794023
0.02916045
0.03040948
0.03168144
0.03297349
0.03427885
0.03559234
0.03690908
0.03822462
0.03953709
0.04085257
0.04217149
0.04347856
0.04476259
0.04602186
0.0472611
0.04848647
0.04970231
0.05091024
0.05211529
0.05332426
0.05453743
0.05575223
0.05696652
0.05817537
0.05936664
0.06051616
0.06158371
0.06251088
0.06322145
0.06362424
0.06361785
0.06309879
0.06196816
0.06016089
0.0576767
0.05460628
0.05108069
0.04706382
0.04237944
0.03678328
0.02986269
0.02095891
0.01526995
0.01092224
0.01113306
0.01315537
0.01446537
0.01549403
0.01644249
0.01736009
0.01827273
0.01919672
0.02014373
0.02112259
0.02213973
0.02319924
0.02430302
0.02545085
0.02664082
0.0278697
0.02913204
0.03042076
0.0317326
0.03306055
0.03439872
0.0357416
0.03708414
0.03842183
0.03975075
0.04107568
0.04240068
0.04371378
0.04500361
0.04626767
0.04751023
0.04873738
0.04995365
0.05116098
0.05236354
0.0535668
0.05477153
0.0559765
0.05718045
0.0583789
0.0595597
0.06069834
0.06175398
0.06266738
0.06336176
0.06374585
0.06371876
0.06317713
0.0620247
0.06019733
0.05769689
0.0546156
0.05108412
0.04706301
0.04237377
0.03677283
0.02984804
0.02094171
0.01525351
0.01103372
0.01139244
0.01333529
0.01455557
0.01548979
0.01635797
0.01721657
0.01808898
0.01898982
0.01992897
0.02091327
0.02194699
0.02303205
0.02416811
0.02535287
0.02658241
0.02785114
0.02914988
0.03047676
0.03182336
0.03318293
0.0345493
0.03591677
0.03728024
0.03863532
0.03997836
0.04131138
0.04263837
0.0439529
0.04524451
0.04651014
0.04775349
0.04898044
0.05019549
0.05140084
0.05259979
0.05379657
0.05499238
0.05618721
0.05738067
0.0585687
0.05973915
0.06086711
0.06191108
0.06281133
0.06349085
0.06385813
0.06381202
0.06324954
0.0620769
0.06023196
0.05771786
0.05462714
0.05109041
0.0470655
0.04237339
0.03677044
0.02984489
0.02093796
0.01525166
0.01115413
0.01165532
0.01352439
0.01465218
0.01549096
0.01628688
0.01709273
0.01793153
0.01881594
0.01975357
0.02074886
0.02180371
0.02291767
0.02408841
0.02531161
0.02657988
0.02788189
0.02921826
0.03057824
0.03195495
0.03334143
0.03473123
0.03611857
0.03749841
0.03886655
0.04021965
0.04155754
0.04288385
0.04419632
0.04548606
0.0467501
0.04799179
0.0492166
0.05042884
0.0516308
0.05282501
0.05401453
0.05520098
0.05638549
0.05756845
0.05874623
0.05990673
0.06102486
0.06205873
0.06294766
0.06361316
0.06396354
0.06389918
0.06331823
0.06212799
0.06026681
0.05773951
0.0546405
0.0510994
0.04707077
0.0423747
0.03676879
0.02983931
0.02093008
0.01524213
0.01127637
0.01191347
0.01371601
0.01475673
0.01550975
0.0162379
0.01699749
0.01780879
0.01868249
0.01962395
0.02063509
0.02171518
0.02286114
0.02406677
0.02532118
0.0266218
0.02796306
0.0293324
0.03072258
0.03212587
0.03353518
0.03494403
0.0363467
0.03773838
0.03911513
0.04047395
0.04181322
0.04313612
0.04444327
0.0457278
0.04698738
0.04822508
0.04944584
0.0506536
0.05185073
0.0530391
0.05422072
0.05539756
0.05657177
0.05774448
0.0589125
0.06006379
0.06117279
0.06219663
0.06307379
0.06372583
0.06406112
0.06398022
0.063382
0.06217504
0.06029935
0.05776097
0.05465436
0.05110881
0.04707724
0.04237874
0.03677032
0.02983927
0.02092872
0.01524181
0.01140905
0.0121704
0.01391166
0.01486447
0.01554071
0.01620807
0.01692645
0.01771835
0.0185899
0.0195435
0.020578
0.02168802
0.02286406
0.02409907
0.02539142
0.02672693
0.02809778
0.02949503
0.03091004
0.03233469
0.03376164
0.03518437
0.03659737
0.03799607
0.03937689
0.04073712
0.04207497
0.04339256
0.04469146
0.04596784
0.04722037
0.04845199
0.04966712
0.05086937
0.05206097
0.05324309
0.05441675
0.05558408
0.05674819
0.05791085
0.05906921
0.06021119
0.06131079
0.06232456
0.06319057
0.06383012
0.06415149
0.06405576
0.06344251
0.06222114
0.06033221
0.05778262
0.05466869
0.05112038
0.04708676
0.04238533
0.03677425
0.02984051
0.02092823
0.0152392
0.01154373
0.0124198
0.01410873
0.01498564
0.01559586
0.01621071
0.01689909
0.0176789
0.01855585
0.01952579
0.02058022
0.02171211
0.02291966
0.02419192
0.02551585
0.02688202
0.0282806
0.02970201
0.03113716
0.03257797
0.03401729
0.03544895
0.03686757
0.03826874
0.03964917
0.04100683
0.04234067
0.04365068
0.04493818
0.04620358
0.04744682
0.04867116
0.04988038
0.05107664
0.05226192
0.05343739
0.05460347
0.05576179
0.05691589
0.05806865
0.05921756
0.06035051
0.0614412
0.06244563
0.06330122
0.06392884
0.0642368
0.06412706
0.06349983
0.06226542
0.06036546
0.05780773
0.05468848
0.05113675
0.04710009
0.04239553
0.0367817
0.02984585
0.02093154
0.01523938
0.01168842
0.01265917
0.01430737
0.0151138
0.01565947
0.01622854
0.01689989
0.01767723
0.01855832
0.01954159
0.02062233
0.0217901
0.02303082
0.02433379
0.02568754
0.02708101
0.02850354
0.02994512
0.03139661
0.03284996
0.03429794
0.03573437
0.03715414
0.03855348
0.03992967
0.0412811
0.04260716
0.04390811
0.04518491
0.04643919
0.04767321
0.04888967
0.05009111
0.05127959
0.05245714
0.05362487
0.05478295
0.05593231
0.05707627
0.05821901
0.05935846
0.06048249
0.0615644
0.06255965
0.06340518
0.06402173
0.06431766
0.06419553
0.06355604
0.06231001
0.06039959
0.05783322
0.05470814
0.05115372
0.04711493
0.04240782
0.03679137
0.02985191
0.02093548
0.01523944
0.01183617
0.01289002
0.01450725
0.01525306
0.01574608
0.01627782
0.01693023
0.01770808
0.01860824
0.01962013
0.02073185
0.02193069
0.02320323
0.02453632
0.02591736
0.02733445
0.0287767
0.03023403
0.03169734
0.03315846
0.03461031
0.03604691
0.03746369
0.0388573
0.04022561
0.04156742
0.04288262
0.044172
0.04543712
0.04668014
0.04790357
0.04911002
0.0503018
0.05148082
0.05264922
0.05380804
0.05495718
0.05609718
0.05723112
0.05836386
0.05949383
0.06060899
0.0616823
0.06266867
0.06350457
0.06411052
0.06439502
0.06426125
0.06361041
0.06235388
0.06043431
0.05786068
0.05473059
0.05117316
0.04713191
0.04242234
0.03680394
0.02986273
0.02094307
0.01524392
0.01198791
0.01311023
0.01470878
0.01540479
0.01585571
0.01636043
0.0170074
0.01779609
0.01871719
0.01975669
0.02089913
0.02212897
0.02343108
0.02479112
0.02619571
0.02763251
0.02909036
0.03055909
0.03202973
0.03349421
0.03494578
0.03637884
0.03778925
0.03917394
0.04053113
0.04186029
0.04316198
0.04443762
0.04568931
0.04691954
0.04813093
0.04932602
0.05050703
0.05167577
0.05283443
0.05398397
0.05512407
0.05625505
0.05737954
0.0585025
0.05962325
0.06072983
0.06179481
0.06277254
0.06359911
0.06419497
0.06446878
0.06432429
0.06366313
0.06239705
0.06046901
0.05788837
0.05475333
0.05119311
0.04714933
0.04243675
0.03681549
0.02987204
0.02095058
0.01524511
0.0121422
0.01331971
0.01491177
0.0155699
0.01598989
0.01647754
0.01712697
0.01793189
0.0188778
0.0199467
0.02112002
0.02237987
0.02370956
0.02509378
0.02651858
0.0279714
0.02944096
0.03091718
0.03239103
0.0338549
0.03530232
0.03672816
0.03812844
0.03950066
0.04084369
0.04215763
0.04344371
0.04470391
0.04594073
0.04715692
0.04835518
0.04953801
0.05070754
0.05186548
0.05301404
0.05415406
0.05528499
0.05640706
0.05752241
0.05863585
0.05974764
0.06084586
0.06190268
0.062872
0.06368957
0.06427578
0.06453956
0.06438515
0.06371456
0.06243988
0.06050424
0.05791736
0.05477786
0.05121505
0.04716903
0.042454
0.03683059
0.02988524
0.02096102
0.01525009
0.01229856
0.01351987
0.01511763
0.01575006
0.01615067
0.01663118
0.01729072
0.01811712
0.01909091
0.02019022
0.02139368
0.0226815
0.02403579
0.02544059
0.02688166
0.02834641
0.02982361
0.03130342
0.03277706
0.03423703
0.03567703
0.03709234
0.03847948
0.03983644
0.04116275
0.04245926
0.04372785
0.04497107
0.04619177
0.04739287
0.04857711
0.04974695
0.05090443
0.05205113
0.05318924
0.05431951
0.05544117
0.05655432
0.05766063
0.05876476
0.0598678
0.0609578
0.06200659
0.06296764
0.06377643
0.06435339
0.06460771
0.06444409
0.0637649
0.0624824
0.06053983
0.05794708
0.05480322
0.05123775
0.0471893
0.04247144
0.03684505
0.02989624
0.02096812
0.01525139
0.01245701
0.01371161
0.01532715
0.01594741
0.01634075
0.01682303
0.01749919
0.01835126
0.01935489
0.02048468
0.02171688
0.02303021
0.024406
0.02582793
0.02728169
0.02875478
0.03023613
0.03171596
0.03318588
0.03463867
0.03606844
0.03747052
0.03884178
0.04018078
0.04148786
0.0427648
0.04401423
0.04523919
0.0464428
0.04762806
0.04879769
0.04995404
0.05109906
0.05223419
0.05336159
0.05448187
0.05559408
0.0566982
0.05779549
0.05889048
0.05998488
0.06106674
0.06210751
0.06306033
0.06386047
0.06442843
0.06467373
0.06450145
0.06381427
0.06252456
0.06057557
0.05797731
0.05482914
0.05126067
0.04720977
0.0424894
0.03686029
0.02990779
0.02097445
0.01525431
0.01261731
0.01389602
0.0155425
0.01616409
0.01656076
0.01705421
0.0177528
0.0186337
0.01966804
0.02082744
0.02208627
0.02342222
0.02481617
0.02625168
0.02771454
0.02919243
0.03067454
0.03215134
0.0336146
0.03505732
0.03647392
0.03786003
0.03921298
0.04053193
0.04181784
0.04307346
0.04430246
0.04550829
0.0466942
0.04786315
0.04901775
0.05016027
0.05129249
0.05241577
0.05353217
0.05464221
0.05574476
0.05683967
0.05792788
0.05901378
0.06009958
0.06117323
0.06220588
0.06315036
0.06394182
0.06450088
0.06473739
0.06455679
0.06386202
0.06256547
0.06061029
0.05800656
0.05485395
0.05128231
0.04722866
0.04250548
0.03687368
0.02991848
0.02098182
0.01525657
0.01277968
0.01407494
0.0157646
0.01639988
0.01680868
0.0173245
0.01805033
0.01896274
0.02002826
0.02121605
0.02249919
0.0238548
0.02526358
0.02670917
0.02817755
0.02965662
0.03113577
0.03260577
0.03405859
0.03548744
0.03688672
0.03825415
0.03959
0.04089094
0.04215433
0.04338614
0.04459338
0.04577928
0.04694692
0.04809909
0.04923828
0.05036659
0.0514857
0.05259683
0.05370196
0.05480147
0.0558941
0.05697959
0.0580586
0.0591354
0.06021253
0.06127783
0.06230218
0.06323814
0.06402083
0.06457103
0.06479896
0.06461037
0.0639084
0.06260542
0.06064444
0.0580355
0.0548786
0.05130386
0.04724763
0.04252191
0.03688775
0.02993037
0.02099224
0.01526273
0.01294403
0.0142492
0.01599355
0.01665555
0.0170872
0.0176334
0.01839035
0.01933592
0.02043234
0.02164681
0.02295161
0.02432364
0.02574372
0.02719573
0.02866591
0.03014241
0.03161482
0.03307405
0.03451217
0.03592245
0.03730388
0.03865805
0.03997821
0.041256
0.04249359
0.04370107
0.04488612
0.04605174
0.04720081
0.04833595
0.04945949
0.05057337
0.05167913
0.05277787
0.05387148
0.05496022
0.05604269
0.05711853
0.05818817
0.05925578
0.06032412
0.06138087
0.06239666
0.06332388
0.06409764
0.06463895
0.06485841
0.06466206
0.06395319
0.06264406
0.06067747
0.05806341
0.05490217
0.05132424
0.04726532
0.04253702
0.03690078
0.02994213
0.02100334
0.01526603
0.01311046
0.01442113
0.01623193
0.01693397
0.01739873
0.0179814
0.01877174
0.01975086
0.02087704
0.02211595
0.02343942
0.02482449
0.02625223
0.02770687
0.02917498
0.03064492
0.03210649
0.03355073
0.03496978
0.03636315
0.03773457
0.03907624
0.04037424
0.04162426
0.0428345
0.04401758
0.04518035