/*--------------------------------*- C++ -*----------------------------------*\
| =========                 |                                                 |
| \\      /  F ield         | OpenFOAM: The Open Source CFD Toolbox           |
|  \\    /   O peration     | Version:  2312                                  |
|   \\  /    A nd           | Website:  www.openfoam.com                      |
|    \\/     M anipulation  |                                                 |
\*---------------------------------------------------------------------------*/
FoamFile
{
    version     2.0;
    format      ascii;
    arch        "LSB;label=32;scalar=64";
    class       volScalarField;
    location    "3600";
    object      nut;
}
// * * * * * * * * * * * * * * * * * * * * * * * * * * * * * * * * * * * * * //

dimensions      [0 2 -1 0 0 0 0];

internalField   nonuniform List<scalar> 
12000
(
5.23074e-05
0.0001985225
0.0002171896
0.0002265746
0.0002211357
0.0002223225
0.0002467702
0.00026905
0.0002490835
0.0002145513
0.0002114612
0.0002494848
0.0002733994
0.0002321821
0.0001997308
0.0002138892
0.0002556943
0.0002471957
0.0002066181
0.0001986637
0.0002233856
0.0002381507
0.0002173839
0.00020141
0.000206959
0.0002190234
0.0002172064
0.000206448
0.0002018565
0.0002057116
0.0002097099
0.0002075507
0.0002026767
0.0001964703
0.0001911899
0.0002006498
0.0002212718
0.0002171165
0.0001913902
0.0001737124
0.0001826938
0.0002303211
0.0002394216
0.0001826762
0.0001472853
0.0001649842
0.0002737382
0.0003153934
0.0001629999
0.0001209323
0.0001572811
0.0002961209
0.000229646
0.0001188173
0.0001224317
0.0001599804
0.0001465163
0.000102666
8.806197e-05
7.126213e-05
3.179474e-05
0.0002429691
0.0002757358
0.000353383
0.0003989853
0.0004538859
0.0005149287
0.0005766408
0.0006489818
0.0007356319
0.0008327522
0.0009054488
0.0009715722
0.001063599
0.0011822
0.00127824
0.001334886
0.001407507
0.001525974
0.001642989
0.001710386
0.001761985
0.001850397
0.001957234
0.002036244
0.002085519
0.002141911
0.002216718
0.002288335
0.002336639
0.002368086
0.002400395
0.00244159
0.002468531
0.002482978
0.002472491
0.002443238
0.002434507
0.002439244
0.002439034
0.002395403
0.002309306
0.002238293
0.001894666
0.002163555
0.002058353
0.001893006
0.001624826
0.00115974
0.001591548
0.001412508
0.001226212
0.0009587479
0.0009232632
0.0007516834
0.0005820321
0.0004175851
0.000257215
0.0001337927
6.781613e-05
3.820134e-05
0.0003465634
0.0004457099
0.0005461817
0.0006697201
0.0008160779
0.0009761679
0.001138824
0.001310917
0.001494574
0.001674163
0.001848388
0.002016976
0.002186834
0.002356882
0.002513034
0.002656276
0.002796036
0.002933376
0.003060227
0.003172684
0.003277444
0.003377982
0.003471057
0.003553345
0.003626691
0.003694077
0.00375548
0.003809461
0.003855538
0.003894953
0.0039274
0.003957469
0.00398028
0.003996348
0.004005442
0.004008538
0.004005802
0.003996254
0.003979207
0.003956566
0.003926713
0.003886834
0.003834536
0.003765683
0.003692992
0.003469151
0.003244802
0.003167937
0.003105511
0.002808163
0.002481824
0.002332645
0.001876298
0.001485929
0.001313252
0.001059332
0.0005970055
0.0002213833
6.684417e-05
3.735897e-05
0.0003757921
0.0005489166
0.0007091751
0.0009072553
0.001132583
0.001373821
0.001623828
0.001877234
0.002139738
0.002393965
0.002634061
0.002860841
0.003070861
0.0032688
0.003452412
0.003622423
0.003780309
0.003926455
0.004060466
0.004183287
0.004296018
0.004399299
0.004493234
0.004578168
0.004654528
0.004722535
0.004782293
0.004833683
0.004877118
0.004912433
0.004939257
0.004959464
0.004971724
0.00497552
0.004970711
0.004957233
0.004934997
0.004903917
0.004863785
0.004810521
0.004744963
0.00466571
0.004573222
0.004465794
0.004341545
0.004198419
0.004035736
0.003849012
0.003637657
0.003403717
0.002914521
0.002381797
0.002156993
0.002100707
0.001696781
0.001240595
0.0007664972
0.0003193678
6.676247e-05
3.709215e-05
0.000409342
0.0006517381
0.0008706887
0.001132901
0.001422481
0.001726201
0.002034498
0.00233752
0.002631786
0.002916208
0.003185865
0.003441505
0.0036764
0.003891683
0.004092232
0.004280174
0.004457564
0.004618946
0.00476498
0.004898546
0.005020849
0.005132613
0.005234235
0.005326211
0.005408943
0.005482678
0.005547617
0.005603909
0.005651061
0.005689465
0.005720004
0.005742554
0.005756349
0.005760846
0.005755817
0.005741577
0.005717664
0.005684898
0.005641946
0.00558837
0.005523108
0.005445055
0.00535436
0.005249185
0.005128092
0.004989046
0.004829364
0.004645633
0.004440383
0.003911448
0.003751431
0.003567509
0.003170673
0.002723873
0.002206136
0.001620455
0.0009835436
0.0003915172
6.643209e-05
3.763742e-05
0.0004300116
0.0007354034
0.001004089
0.001313615
0.001648549
0.001993699
0.002337923
0.002672123
0.002991754
0.003297712
0.003591325
0.003865921
0.004121343
0.004355398
0.004568443
0.004761811
0.004935588
0.00509862
0.005252862
0.005397439
0.00553201
0.005656655
0.0057716
0.005877062
0.005973148
0.006059829
0.006136968
0.006203755
0.006261689
0.006309479
0.006346872
0.006373729
0.006390118
0.006395479
0.006388951
0.006371668
0.00634283
0.006300285
0.006244585
0.00617596
0.006093557
0.005996514
0.005883697
0.005753263
0.005604044
0.005434128
0.005242389
0.005022846
0.004777967
0.00449281
0.004163251
0.003789912
0.003367036
0.002888394
0.002349871
0.001749265
0.001099522
0.0004635955
6.615512e-05
3.807653e-05
0.0004419988
0.0008045914
0.001113595
0.001452141
0.001810791
0.002178201
0.002545252
0.002906502
0.003249014
0.003570553
0.003867598
0.004145761
0.004405716
0.004648126
0.004871685
0.00507744
0.005267945
0.005446396
0.005614676
0.005773579
0.005923373
0.0060641
0.006195698
0.00631802
0.006430827
0.006533792
0.006624173
0.006707081
0.006778286
0.006837719
0.006885097
0.006919996
0.006942603
0.006952501
0.00694926
0.006931547
0.00689948
0.006853348
0.006792721
0.006717184
0.006626217
0.006519165
0.006395185
0.006253363
0.006092405
0.005911297
0.005707976
0.005474007
0.005210622
0.004909103
0.004565258
0.004172079
0.003724401
0.003210982
0.002622494
0.001956923
0.001227917
0.000515019
6.614077e-05
3.975095e-05
0.0004421641
0.0008507764
0.001193415
0.001552086
0.001932776
0.002318595
0.002698945
0.003063341
0.003411704
0.003739792
0.004046364
0.004332549
0.004599287
0.004849293
0.005084743
0.005305865
0.005513552
0.005709566
0.0058955
0.006072348
0.00624055
0.006400146
0.006550897
0.006692379
0.006824033
0.006944951
0.007054589
0.007153214
0.007239248
0.00731205
0.007370976
0.007415897
0.007446052
0.007460727
0.00745963
0.007442419
0.007408651
0.007357949
0.007289898
0.007204033
0.007099817
0.006976615
0.006833677
0.006670047
0.006484776
0.006276349
0.006042162
0.005776975
0.005483451
0.005153379
0.004782304
0.004362777
0.003885437
0.003345232
0.002735323
0.002051493
0.001303903
0.0005612037
6.598042e-05
4.155097e-05
0.0004383514
0.000885045
0.001257566
0.001634281
0.002019716
0.002408953
0.002791947
0.003161583
0.003514496
0.003848285
0.004162241
0.004457005
0.004733824
0.004994376
0.005241178
0.005476671
0.005701877
0.005917283
0.006123538
0.006321189
0.006510479
0.006691291
0.006863199
0.007025554
0.007177577
0.007315742
0.007444831
0.007560448
0.007661681
0.00774771
0.007817921
0.007872248
0.007909703
0.007929511
0.007931072
0.007913882
0.007877486
0.007821463
0.007745405
0.007648894
0.007531476
0.007392637
0.007231765
0.00704804
0.006840434
0.006607856
0.006347807
0.006055566
0.005735832
0.005384563
0.004995948
0.004563504
0.004076358
0.0035191
0.00288274
0.002165254
0.001378615
0.0005964297
6.595767e-05
4.237228e-05
0.0004322956
0.0009005353
0.001299504
0.001684371
0.002073677
0.0024641
0.002848331
0.003220462
0.003576894
0.003915836
0.004237002
0.004541124
0.004829474
0.005103548
0.005365029
0.005615902
0.005858004
0.006092292
0.006319082
0.006538435
0.006749838
0.006952589
0.007145801
0.007328405
0.00749915
0.007655196
0.007799343
0.007929879
0.008045313
0.008144336
0.008225803
0.008288775
0.008332338
0.008355713
0.008358237
0.008339343
0.008298537
0.008235379
0.008149467
0.008040421
0.007907877
0.007751486
0.007570921
0.00736598
0.007134764
0.006876938
0.006593084
0.006280674
0.005939134
0.005564029
0.005151938
0.004695452
0.004185372
0.003607331
0.00295483
0.002224089
0.001424052
0.0006237423
6.581361e-05
4.366943e-05
0.0004237601
0.0009100779
0.001331555
0.001726163
0.002116779
0.002504819
0.002885942
0.003255989
0.00361235
0.003953882
0.004280554
0.004593145
0.004892893
0.00518128
0.005459773
0.0057291
0.005989631
0.006241636
0.006484649
0.006719133
0.006947296
0.0071679
0.007379733
0.007581555
0.007772123
0.007949595
0.008113347
0.008260228
0.008389278
0.008499454
0.008589815
0.008659597
0.008707636
0.008733039
0.008735081
0.008713169
0.008666805
0.008595564
0.008499075
0.008377002
0.008229036
0.008054895
0.007854314
0.00762707
0.007374567
0.007095523
0.006787979
0.006446408
0.005929516
0.005511173
0.005191048
0.0047918
0.00427475
0.003692016
0.003030523
0.002284335
0.001464922
0.000644679
6.580265e-05
4.522167e-05
0.0004095162
0.0009050491
0.001343295
0.001744254
0.002133545
0.002517685
0.002895675
0.003265
0.003623552
0.003970106
0.00430446
0.004627038
0.004938262
0.00523842
0.005526918
0.005806958
0.006080236
0.006347995
0.006611294
0.006869283
0.007118827
0.007359483
0.007590409
0.00781031
0.008017624
0.008210359
0.008387299
0.008546401
0.008686097
0.008804955
0.008901694
0.008975123
0.009024512
0.009049197
0.009048562
0.009022073
0.008969277
0.0088898
0.008783342
0.008649665
0.008488577
0.008299904
0.008083454
0.007838903
0.007565782
0.007264807
0.006708776
0.006159137
0.005702313
0.005365152
0.005114858
0.004850189
0.004332592
0.003742547
0.003071619
0.002317203
0.001489646
0.0006593967
6.566838e-05
4.669261e-05
0.0003958587
0.000892363
0.00134435
0.001753191
0.002143407
0.00252492
0.002899337
0.003265552
0.003622308
0.003968886
0.004304662
0.004628055
0.004820461
0.004983591
0.005186665
0.005434613
0.005716297
0.006019547
0.006428962
0.006891582
0.007270098
0.007526437
0.00777296
0.008007528
0.00822819
0.008433159
0.008620728
0.00878912
0.00893673
0.009062107
0.009163979
0.009241254
0.00929287
0.009317926
0.009315676
0.009285506
0.009226931
0.009139575
0.00902317
0.008877544
0.008702615
0.008498381
0.008264903
0.008002435
0.007519706
0.00697449
0.006465884
0.006001646
0.005597052
0.005274198
0.005026902
0.004801315
0.004374278
0.003782807
0.003108944
0.002347467
0.001510309
0.0006703056
6.565793e-05
4.784807e-05
0.0003845475
0.000878324
0.001341426
0.001756825
0.002147783
0.002526442
0.002896676
0.003258994
0.003612874
0.003957202
0.004290059
0.004501266
0.004672472
0.004872479
0.005081193
0.005305835
0.005555469
0.005870601
0.006202278
0.006558345
0.006935467
0.007353021
0.00778945
0.008157476
0.008389083
0.008604603
0.00880212
0.008979131
0.009134212
0.009265758
0.009372325
0.009452646
0.009505595
0.009530199
0.009525667
0.009491377
0.009426867
0.009331823
0.009206075
0.009049591
0.008862463
0.008644878
0.008341388
0.007824298
0.007286433
0.006759144
0.006282464
0.005851529
0.005477133
0.005175429
0.004959539
0.004764408
0.00440141
0.003808647
0.003130679
0.00236429
0.001522449
0.0006772664
6.554965e-05
4.883104e-05
0.0003741634
0.0008608687
0.001328875
0.001751124
0.002143837
0.00252044
0.002886905
0.003245112
0.003594998
0.003935551
0.004244961
0.004452057
0.00465589
0.004846002
0.005028933
0.005224203
0.005458174
0.005716839
0.006034566
0.006382654
0.006747473
0.007121869
0.007507144
0.007903791
0.008308281
0.008696674
0.008937266
0.009121844
0.009283459
0.00942027
0.009530739
0.009613521
0.009667425
0.009691404
0.009684641
0.009646539
0.009576686
0.009474843
0.009340917
0.009175035
0.008969228
0.0085566
0.008095718
0.007616375
0.007124798
0.006636479
0.006163923
0.00573541
0.005381065
0.00510477
0.004895003
0.004708666
0.004420785
0.003827679
0.003147292
0.002378203
0.001531804
0.0006821135
6.549971e-05
4.963953e-05
0.0003646331
0.0008427123
0.001314913
0.001740949
0.002134823
0.002509527
0.002872177
0.003225799
0.003571237
0.003908278
0.004236241
0.00445876
0.00462905
0.004795079
0.004997466
0.005212391
0.005456201
0.005716155
0.005989034
0.006289737
0.006613124
0.006955201
0.007311674
0.007676064
0.008042797
0.008406268
0.008757559
0.009086911
0.009371931
0.009530238
0.009644354
0.009729457
0.009784252
0.009807699
0.009798993
0.0097576
0.009683209
0.009575742
0.009382327
0.009094007
0.008754078
0.008366826
0.007932081
0.00746395
0.006986171
0.006521518
0.006084523
0.005682949
0.005322404
0.005028101
0.004820532
0.004670756
0.00443244
0.00383882
0.003157191
0.00238553
0.001536204
0.0006837837
6.544296e-05
5.03029e-05
0.0003562772
0.0008245909
0.001297002
0.001726149
0.002121328
0.00249465
0.002853952
0.00320325
0.003544234
0.003877311
0.004202153
0.004449176
0.004640299
0.004822094
0.005009518
0.005232234
0.005464065
0.00572407
0.005995073
0.006286782
0.00658763
0.00689839
0.007221741
0.007559305
0.007907236
0.008253302
0.008581983
0.008881975
0.009148044
0.009380602
0.009593075
0.009807223
0.009862899
0.009800253
0.009753174
0.009689399
0.009587054
0.009435312
0.009226647
0.008955836
0.008620551
0.008227145
0.007791609
0.007334437
0.006873713
0.006424873
0.00600049
0.005611594
0.005271104
0.004993391
0.004784451
0.004626808
0.004408956
0.003846755
0.003165155
0.002392082
0.001541346
0.0006860302
6.537977e-05
5.085514e-05
0.000349163
0.0008075763
0.00127794
0.001708867
0.002104694
0.002476737
0.002833103
0.003178581
0.0035157
0.003845656
0.004168968
0.004477411
0.004681768
0.004870088
0.005066466
0.005276598
0.005514933
0.005778371
0.006059386
0.006332343
0.006608472
0.00689107
0.007185076
0.007494791
0.007820009
0.008152926
0.008478464
0.008778724
0.009039673
0.009263258
0.009477833
0.009745568
0.009830072
0.009721318
0.00965711
0.00959239
0.009497497
0.009351477
0.009141193
0.008862712
0.008520917
0.008126514
0.007694657
0.007243837
0.006792403
0.006355152
0.005942165
0.00556068
0.005221411
0.00494251
0.004739191
0.004593435
0.004391473
0.003848755
0.003166811
0.002393401
0.001541516
0.0006860091
6.532756e-05
5.132472e-05
0.0003435029
0.0007916799
0.001258298
0.0016894
0.002085609
0.002456606
0.002810557
0.003152845
0.003486693
0.003813948
0.004135666
0.004453025
0.004742899
0.004946834
0.00514983
0.00537212
0.005617822
0.005875991
0.006142017
0.006407337
0.006669825
0.006931195
0.007200165
0.007485855
0.007791718
0.008111518
0.008429863
0.008727341
0.0089888
0.009214766
0.009435489
0.009724711
0.009844446
0.009736375
0.009649776
0.009571325
0.009470211
0.00932041
0.009106135
0.008822113
0.00847292
0.008071384
0.007635803
0.007185975
0.006739358
0.006308951
0.005903475
0.005529623
0.005197311
0.004922964
0.004720263
0.004573592
0.004376043
0.003851223
0.003169137
0.002394704
0.001542812
0.0006868075
6.528149e-05
5.171778e-05
0.0003394254
0.0007784262
0.001239394
0.001669118
0.002064957
0.002434942
0.002786937
0.003126681
0.003457973
0.003783269
0.004104236
0.004422194
0.004739048
0.005053972
0.005276915
0.005498141
0.005740856
0.006004366
0.006271179
0.006533271
0.006779704
0.00701945
0.007263174
0.007524072
0.00780998
0.008117692
0.008432477
0.00873355
0.009003596
0.009238339
0.009450545
0.009662778
0.009876658
0.009859739
0.009688426
0.009584874
0.009476829
0.009321687
0.009099016
0.008804036
0.008443637
0.008033052
0.00759209
0.007140938
0.006696497
0.006270512
0.005870186
0.005500939
0.005172028
0.004900383
0.004700844
0.004558811
0.004367964
0.003851132
0.003168892
0.002394307
0.001542047
0.0006861046
6.521876e-05
5.205573e-05
0.0003368897
0.0007663012
0.001221339
0.001648703
0.002043625
0.002412483
0.002762843
0.003100583
0.003429911
0.003753749
0.004074174
0.004392761
0.004710767
0.005030525
0.005352677
0.005668387
0.005914207
0.006167328
0.006429248
0.006683308
0.006920666
0.007142179
0.00736013
0.007593854
0.007856778
0.008149347
0.008457694
0.008759317
0.009033626
0.009272561
0.009484897
0.0096895
0.009904956
0.009913129
0.009747884
0.009627991
0.009502641
0.009334497
0.009101204
0.008795942
0.008425499
0.008006435
0.007559997
0.007106941
0.006663704
0.006240974
0.005844874
0.005479998
0.005154869
0.004885879
0.004687671
0.004546398
0.004358304
0.003850612
0.003168105
0.002393449
0.001541425
0.0006859171
6.519575e-05
5.237268e-05
0.0003354235
0.0007563845
0.001204594
0.001628668
0.002022012
0.002389724
0.002738738
0.003074961
0.003402872
0.003725751
0.00404602
0.004365534
0.004685768
0.005007931
0.005332454
0.005660999
0.005992833
0.006326295
0.006619131
0.006860786
0.00708653
0.007291762
0.007485505
0.007688971
0.007923981
0.008196921
0.008495747
0.00879603
0.009072589
0.009311672
0.009518051
0.009713907
0.009933727
0.009959591
0.009799402
0.009669425
0.009530968
0.009350821
0.009106782
0.008791386
0.008411587
0.007984896
0.007533539
0.007078627
0.006636185
0.006216009
0.005823269
0.005461846
0.005139811
0.004873487
0.004677728
0.004539084
0.004354158
0.003849668
0.003166895
0.002391899
0.001539898
0.0006849012
6.513276e-05
5.266841e-05
0.0003354838
0.0007486358
0.00118953
0.001609614
0.002000891
0.002367285
0.002715133
0.003050245
0.003377256
0.003699711
0.004020304
0.004341099
0.004663672
0.004989155
0.005318191
0.005651003
0.005986897
0.006324709
0.006663513
0.007000647
0.007281484
0.00746738
0.007627278
0.007795552
0.007998277
0.008247595
0.008533911
0.008831224
0.009109811
0.009350288
0.009552996
0.009739544
0.009949233
0.009988631
0.009845893
0.009710782
0.009560586
0.009369145
0.009115189
0.008790632
0.008402415
0.00796881
0.007512886
0.007056074
0.006614061
0.006195905
0.005805988
0.005447618
0.005128442
0.004864492
0.004670499
0.00453314
0.004349683
0.003848257
0.003165187
0.002390088
0.00153858
0.0006843181
6.512457e-05
5.29814e-05
0.00033623
0.000742253
0.001176182
0.001591692
0.001980576
0.002345563
0.002692458
0.003026895
0.003353591
0.003676284
0.003997882
0.004320611
0.004646121
0.004975511
0.005309307
0.005647421
0.005989106
0.00633298
0.006677045
0.0070184
0.007354945
0.007661676
0.007809038
0.007932878
0.008092456
0.008310101
0.008578912
0.008870664
0.00915024
0.009391478
0.009589093
0.009764103
0.009962954
0.01001517
0.009886478
0.009747753
0.009589844
0.009389652
0.009126781
0.008793442
0.008397099
0.007956854
0.007496505
0.007037721
0.00659586
0.006179303
0.005791726
0.005435949
0.005119338
0.004857777
0.00466599
0.004530641
0.004348704
0.003847292
0.003163754
0.002388305
0.001536687
0.0006831986
6.506985e-05
5.327707e-05
0.0003381644
0.0007380918
0.001164739
0.001575672
0.001961852
0.002325337
0.002671423
0.00300558
0.003332561
0.003656238
0.003979672
0.004305202
0.004634509
0.004968628
0.005307935
0.005652115
0.006000195
0.006350537
0.006700886
0.007048473
0.00739015
0.007722465
0.00799618
0.008106793
0.008219368
0.008394696
0.008637829
0.008919413
0.009198939
0.0094441
0.00964233
0.009800232
0.009930978
0.01003252
0.009967654
0.009784902
0.009615018
0.009410011
0.009141252
0.0088003
0.008396079
0.007949179
0.00748431
0.007023368
0.006581369
0.006166051
0.005780438
0.005426901
0.005112574
0.004853158
0.004663234
0.00452926
0.004347939
0.003846558
0.003162258
0.002386488
0.001535154
0.0006825493
6.507192e-05
5.358817e-05
0.0003401558
0.0007344184
0.001154371
0.001560686
0.001944201
0.002306417
0.002652138
0.002986659
0.003314744
0.003640366
0.003966688
0.004296111
0.004630293
0.004970163
0.005315904
0.005666951
0.006022058
0.006379304
0.006736169
0.007089652
0.007436442
0.007772999
0.0080957
0.008284149
0.008374054
0.008506299
0.008716374
0.00898123
0.009255585
0.009499628
0.009694467
0.009842401
0.00995561
0.01004626
0.009995366
0.00982495
0.009650907
0.009437526
0.009160037
0.008810538
0.008398361
0.007944884
0.007475513
0.007012333
0.006570025
0.006155695
0.005771734
0.005420101
0.005107794
0.004850438
0.004662556
0.004530323
0.004349554
0.003845788
0.003160879
0.002384792
0.001533548
0.0006814826
6.50293e-05
5.390897e-05
0.0003432567
0.0007325296
0.001146531
0.001548259
0.001929044
0.002290001
0.002635635
0.002971083
0.003301085
0.003629654
0.00395999
0.004294483
0.004634706
0.004981414
0.005334548
0.005693247
0.006055944
0.006420397
0.006783817
0.007143016
0.007494465
0.007834679
0.008160072
0.008467246
0.008553477
0.008646639
0.008820131
0.009062758
0.009326875
0.00956554
0.009753134
0.009888716
0.009986402
0.01006803
0.01002524
0.009863356
0.009687268
0.009467753
0.00918235
0.008824302
0.008403985
0.007943795
0.007469815
0.007004258
0.006561441
0.006147858
0.005765291
0.005415288
0.005104751
0.004849237
0.004663164
0.004532305
0.00435155
0.003845384
0.003160001
0.002383406
0.001532133
0.0006807197
6.503882e-05
5.427475e-05
0.0003461105
0.0007210973
0.001139449
0.001536627
0.001915089
0.002275373
0.002621663
0.002958957
0.003291968
0.003624708
0.003960359
0.004301227
0.004648719
0.005003346
0.00536474
0.005731696
0.006102301
0.006473994
0.006843727
0.007207955
0.007563485
0.007906394
0.00823313
0.008540305
0.008715609
0.008797048
0.008936654
0.009153651
0.009403974
0.009635102
0.009815089
0.009939581
0.01002542
0.01009233
0.01004893
0.009898519
0.009724469
0.009500696
0.009207785
0.008841081
0.008412452
0.007945427
0.007466783
0.006998856
0.006555537
0.006142607
0.005761187
0.005412463
0.005103383
0.004849591
0.004665418
0.004536159
0.004355449
0.003845393
0.003159125
0.002382217
0.001530917
0.0006799048
6.501003e-05
5.465249e-05
0.0003494625
0.0007093259
0.001135604
0.001528195
0.001904306
0.002264165
0.002611672
0.002951665
0.003288772
0.003626936
0.003969233
0.004317788
0.004673754
0.005037318
0.005407736
0.005783423
0.006162083
0.006540845
0.006916254
0.007285209
0.007643778
0.007988329
0.008315381
0.0086217
0.008870537
0.008951938
0.009067933
0.009260794
0.009494229
0.009714094
0.009884659
0.009999042
0.01007075
0.01012012
0.01007548
0.009935947
0.009764255
0.009536922
0.009236887
0.008861512
0.008424404
0.007950419
0.007466975
0.006996356
0.00655191
0.00613902
0.00575848
0.005411061
0.005103483
0.004851324
0.004668714
0.004540668
0.004359678
0.003846394
0.003159201
0.002381659
0.001529972
0.0006792628
6.502599e-05
5.505877e-05
0.0003526494
0.0006998555
0.001131745
0.001520374
0.001894861
0.002255166
0.00260495
0.002948889
0.00329148
0.003636531
0.00398692
0.004344504
0.004710096
0.005083485
0.005463512
0.005848184
0.006234849
0.006620047
0.007000918
0.007373512
0.007734154
0.008079277
0.008405529
0.008709844
0.008989781
0.009100209
0.009203726
0.009376145
0.009592499
0.009799085
0.009958125
0.01006073
0.01011911
0.01015115
0.01010386
0.009974274
0.009805391
0.0095752
0.009268459
0.008884467
0.008438605
0.007957122
0.007468315
0.006995227
0.006550476
0.006138505
0.005758801
0.005412006
0.005105269
0.004854654
0.004674068
0.004547332
0.004365719
0.003847855
0.003159513
0.002381003
0.001529122
0.0006786272
6.50104e-05
5.545912e-05
0.0003562925
0.0006925085
0.001130395
0.00151609
0.001889281
0.002250651
0.002603596
0.002952603
0.003301978
0.003655292
0.004015124
0.004382962
0.004759183
0.005143108
0.005533098
0.005926737
0.00632042
0.006711865
0.007097012
0.007472178
0.007833737
0.008178241
0.008502509
0.00880376
0.009079338
0.009244279
0.009347135
0.009501338
0.00969895
0.009889983
0.0100358
0.01012603
0.01017099
0.01018613
0.01013582
0.0100154
0.009849208
0.009616367
0.009303133
0.008910675
0.008456483
0.00796895
0.007476755
0.007001446
0.006553672
0.006138852
0.005759602
0.005414788
0.005110831
0.004861491
0.004680721
0.004554355
0.004372824
0.003849851
0.003160429
0.002381092
0.001528707
0.0006781298
6.502935e-05
5.586909e-05
0.0003596635
0.0006852858
0.001123222
0.001512097
0.001885091
0.002248646
0.002606076
0.002961634
0.003319351
0.003682463
0.004053152
0.004432438
0.004820187
0.00521519
0.0056151
0.006016413
0.006417565
0.006814243
0.007202781
0.007579521
0.007940944
0.008283771
0.008605032
0.008902218
0.009172849
0.009375963
0.009483747
0.009626926
0.00980802
0.009982348
0.01011317
0.01019016
0.01022226
0.01022203
0.01016903
0.01005717
0.009893801
0.009658783
0.009339703
0.008939494
0.008477279
0.007981194
0.007480239
0.006998448
0.006552095
0.006141987
0.005764388
0.005419626
0.005115089
0.004866404
0.00468795
0.004562548
0.004378767
0.003852327
0.003161723
0.002381442
0.00152836
0.0006777811
6.502606e-05
5.625681e-05
0.000363465
0.0006802245
0.001110925
0.001512087
0.001885536
0.002252352
0.002615491
0.002978925
0.003346347
0.003720577
0.004103275
0.004494849
0.004894344
0.005299166
0.005707959
0.006118251
0.006525662
0.006926615
0.007317453
0.007694623
0.008054775
0.008394851
0.008712147
0.009004278
0.009269243
0.009497573
0.00961543
0.009753509
0.009919921
0.01007691
0.01019244
0.01025756
0.01027913
0.01026541
0.0102098
0.01010497
0.009943318
0.009705103
0.00937856
0.008968159
0.008494906
0.007989926
0.007485241
0.007003617
0.006555955
0.006145004
0.005767617
0.005424005
0.005120862
0.004873122
0.004694138
0.004568189
0.004383961
0.003855155
0.003163346
0.002382031
0.00152833
0.000677419
6.503757e-05
5.666297e-05
0.0003668249
0.0006744835
0.001100476
0.001512334
0.001887313
0.002258211
0.002628491
0.003001552
0.003380575
0.003767735
0.004163707
0.004567508
0.004977952
0.005394357
0.005812858
0.006230257
0.006642889
0.007047037
0.007439081
0.007815606
0.008173466
0.008509851
0.008822312
0.009108738
0.009367391
0.00959685
0.009741518
0.009878318
0.01003112
0.01017059
0.01026971
0.0103209
0.01032801
0.01030285
0.01024582
0.01014905
0.009989009
0.009748117
0.009415334
0.008996813
0.008515598
0.008005011
0.00749642
0.007012131
0.006562703
0.00615055
0.005773458
0.005429941
0.005126464
0.004878673
0.004701597
0.00457836
0.004394551
0.003858771
0.003165605
0.002383148
0.001528508
0.000677365
6.504922e-05
5.706547e-05
0.0003704801
0.0006719167
0.001091832
0.001516737
0.0018949
0.002272062
0.002651166
0.003035474
0.003427046
0.003826656
0.004234503
0.004651076
0.005074332
0.005501021
0.005927976
0.006351673
0.006768425
0.007174574
0.007566641
0.007941408
0.008295928
0.00862774
0.008934621
0.009214751
0.00946665
0.009689144
0.009878581
0.01001806
0.01015493
0.01027066
0.0103364
0.01037007
0.01037184
0.01034201
0.01028095
0.01018909
0.01003667
0.009793732
0.009454212
0.009027125
0.008537627
0.008019543
0.007505797
0.007018909
0.006569429
0.006157902
0.005781223
0.005438064
0.005134965
0.004887488
0.004710048
0.004585888
0.004400869
0.003862536
0.00316805
0.002384442
0.001528943
0.0006772989
6.505228e-05
5.746398e-05
0.0003738925
0.000668855
0.001082774
0.001522184
0.001904304
0.002289371
0.002678755
0.003074347
0.003478347
0.003892056
0.004314999
0.004745082
0.005179963
0.005616498
0.006051159
0.006480274
0.006900166
0.0073073
0.007698388
0.008070448
0.008420795
0.008747287
0.009047975
0.0093213
0.009566006
0.009781107
0.009965855
0.0101197
0.01024224
0.01033326
0.01039269
0.01042061
0.01041723
0.01038283
0.01031778
0.01022248
0.01008451
0.009841018
0.009495304
0.00905963
0.00856156
0.00803701
0.00751908
0.007029932
0.006579123
0.006166885
0.00578978
0.005446205
0.005142696
0.004895147
0.004718383
0.004595432
0.004410152
0.003867026
0.00317112
0.002386238
0.001529677
0.0006774257
6.506629e-05
5.787753e-05
0.000377185
0.0006668335
0.001074747
0.001529754
0.001917129
0.002310183
0.002710591
0.003120174
0.00353959
0.003968575
0.004405838
0.004849053
0.005295212
0.005740837
0.006182226
0.006615674
0.007037593
0.007444624
0.007833715
0.008202165
0.00854761
0.008868158
0.00916215
0.009428272
0.009665482
0.009872982
0.01005018
0.01019667
0.01031219
0.01039662
0.01044998
0.01047239
0.01046406
0.01042528
0.0103564
0.01025778
0.01012616
0.009883478
0.00953412
0.009091263
0.008585202
0.008054169
0.00753204
0.007040734
0.006589089
0.006176535
0.005799138
0.00545514
0.005151181
0.004903327
0.004726492
0.004603544
0.004417602
0.003871558
0.003174251
0.002388094
0.00153048
0.0006776304
6.50805e-05
5.82792e-05
0.0003803748
0.0006657606
0.001068486
0.001539715
0.001933918
0.002337175
0.002750598
0.003174929
0.003609931
0.004054339
0.004505962
0.004961853
0.005418551
0.005872325
0.006319394
0.006756096
0.007178996
0.007584962
0.007971224
0.008335211
0.008675206
0.008989369
0.009276341
0.009535048
0.009764667
0.009964582
0.01013435
0.0102737
0.01038245
0.01046059
0.01050815
0.0105253
0.01051225
0.01046929
0.01039673
0.01029489
0.01016409
0.009928324
0.009575078
0.009123897
0.008609587
0.008072405
0.007546484
0.00705318
0.006600568
0.006187431
0.005809445
0.005464725
0.005160037
0.004911743
0.004735031
0.004612635
0.004426448
0.003876631
0.003177876
0.002390395
0.001531614
0.0006778616
6.508875e-05
5.867343e-05
0.0003834967
0.0006655086
0.00106382
0.00155208
0.001954605
0.002369553
0.002797225
0.003237291
0.003688436
0.004148401
0.004614169
0.005082195
0.005548648
0.006009628
0.006461356
0.006900291
0.007323204
0.00772723
0.008109892
0.008468954
0.008802966
0.009110391
0.009390132
0.009641346
0.009863405
0.01005586
0.0102184
0.01035084
0.0104531
0.0105252
0.01056724
0.01057936
0.0105618
0.01051481
0.01043869
0.01033371
0.01020015
0.009972895
0.009615884
0.009156727
0.008634595
0.008091545
0.007561948
0.007066662
0.006613037
0.006199211
0.00582048
0.005474869
0.005169299
0.004920407
0.004743597
0.004621484
0.00443495
0.003881756
0.00318152
0.002392706
0.001532833
0.0006783049
6.509846e-05
5.905611e-05
0.0003865702
0.0006659487
0.001060634
0.001566942
0.001979153
0.002407129
0.002850186
0.003306787
0.003774447
0.004249904
0.004729375
0.005208806
0.005684099
0.006151278
0.006606646
0.007046848
0.007468911
0.007870267
0.008248746
0.008602477
0.008930206
0.009230725
0.009503183
0.009746951
0.009961581
0.01014677
0.01030231
0.01042812
0.01052416
0.0105905
0.01062725
0.01063456
0.01061266
0.01056179
0.01048221
0.01037415
0.01023786
0.01001834
0.009657271
0.009190157
0.008660465
0.008111836
0.00757874
0.007081493
0.006626743
0.006212031
0.005832319
0.005485575
0.005178902
0.004929245
0.004752282
0.004630528
0.004443748
0.003887234
0.003185495
0.002395277
0.001534174
0.0006787569
6.510205e-05
5.94295e-05
0.0003896147
0.0006670847
0.001058747
0.001584458
0.002007674
0.002449899
0.002909259
0.003382921
0.003867198
0.004357859
0.004850433
0.005340457
0.005823656
0.006296067
0.006754143
0.00719476
0.007615234
0.008013313
0.008387082
0.008735173
0.009056436
0.009349989
0.009615211
0.00985167
0.01005907
0.01023724
0.01038607
0.01050553
0.01059563
0.01065646
0.01068815
0.01069086