/*--------------------------------*- C++ -*----------------------------------*\
| =========                 |                                                 |
| \\      /  F ield         | OpenFOAM: The Open Source CFD Toolbox           |
|  \\    /   O peration     | Version:  2312                                  |
|   \\  /    A nd           | Website:  www.openfoam.com                      |
|    \\/     M anipulation  |                                                 |
\*---------------------------------------------------------------------------*/
FoamFile
{
    version     2.0;
    format      ascii;
    arch        "LSB;label=32;scalar=64";
    class       surfaceScalarField;
    location    "3600";
    object      phi;
}
// * * * * * * * * * * * * * * * * * * * * * * * * * * * * * * * * * * * * * //

dimensions      [1 0 -1 0 0 0 0];

oriented        oriented;

internalField   nonuniform List<scalar> 
23740
(
-0.0001311209
0.000131528
-0.0002573562
0.0001262347
-0.0003890056
0.0001316487
-0.0005294094
0.0001404031
-0.00067109
0.0001416799
-0.0008019848
0.0001308941
-0.0009178178
0.0001158323
-0.001032587
0.000114769
-0.001149141
0.0001165533
-0.001264247
0.000115105
-0.001353061
8.881303e-05
-0.001426046
7.298514e-05
-0.001507678
8.163164e-05
-0.001600673
9.299443e-05
-0.001677289
7.661516e-05
-0.001727178
4.988961e-05
-0.001775253
4.807422e-05
-0.001840221
6.496807e-05
-0.001904066
6.384518e-05
-0.00194513
4.106411e-05
-0.001973296
2.81652e-05
-0.002009596
3.630086e-05
-0.002052136
4.253944e-05
-0.002084838
3.270246e-05
-0.002104857
2.001908e-05
-0.002123087
1.823046e-05
-0.002145301
2.221441e-05
-0.002166277
2.097656e-05
-0.002179755
1.347778e-05
-0.002186697
6.942575e-06
-0.002192307
5.610633e-06
-0.002199153
6.845883e-06
-0.002202748
3.595545e-06
-0.002200638
-2.109709e-06
-0.002188415
-1.222178e-05
-0.002165394
-2.302155e-05
-0.002147933
-1.746043e-05
-0.0021447
-3.232977e-06
-0.002141235
-3.464122e-06
-0.002117514
-2.372133e-05
-0.002068275
-4.923862e-05
-0.002019969
-4.830648e-05
-0.002003276
-1.669239e-05
-0.001993787
-9.489036e-06
-0.001950243
-4.354338e-05
-0.001851334
-9.890865e-05
-0.001763837
-8.749692e-05
-0.001728902
-3.493471e-05
-0.001712163
-1.673928e-05
-0.001630432
-8.173056e-05
-0.001482885
-0.0001475469
-0.00136217
-0.0001207153
-0.001292685
-6.948634e-05
-0.001185479
-0.0001072067
-0.001017879
-0.0001676012
-0.0008382545
-0.0001796255
-0.0006736697
-0.0001645865
-0.0004728849
-0.0002007877
-0.0002381232
-0.0002347674
-0.0002381242
-0.0001348801
0.0002664076
-0.0002694112
0.0002607653
-0.0003967626
0.0002589996
-0.000512248
0.0002558878
-0.0006196955
0.0002491268
-0.0007258746
0.0002370724
-0.0008301637
0.0002201206
-0.0009220139
0.0002066184
-0.001003689
0.0001982277
-0.001073608
0.0001850231
-0.001153625
0.0001688299
-0.001234899
0.0001542588
-0.001297816
0.0001445475
-0.001341435
0.0001366134
-0.001389519
0.0001246992
-0.001450893
0.0001112632
-0.001504885
0.0001020654
-0.001535928
9.601094e-05
-0.001560499
8.841696e-05
-0.001597613
7.817748e-05
-0.001638778
6.933052e-05
-0.001665853
6.337612e-05
-0.001681183
5.786917e-05
-0.001699363
5.088285e-05
-0.001722938
4.359482e-05
-0.001742387
3.767979e-05
-0.001752923
3.27512e-05
-0.001759431
2.748476e-05
-0.001767357
2.140427e-05
-0.00177562
1.520557e-05
-0.001779702
9.694037e-06
-0.001779171
6.314851e-06
-0.001774717
-8.575958e-07
-0.001768971
-7.85539e-06
-0.001767307
-1.388546e-05
-0.001770667
-1.966133e-05
-0.001764141
-2.398528e-05
-0.001738728
-2.864621e-05
-0.001706505
-3.568689e-05
-0.001684992
-4.523465e-05
-0.001680758
-5.347234e-05
-0.00166851
-6.055365e-05
-0.001617026
-6.817586e-05
-0.001549239
-7.727661e-05
-0.001504238
-8.854341e-05
-0.001503068
-0.0001000786
-0.001479702
-0.000110862
-0.001392009
-0.0001226282
-0.001273912
-0.000134836
-0.001205677
-0.0001499653
-0.001187914
-0.0001653101
-0.001126243
-0.0001823874
-0.0009963347
-0.0001993959
-0.000887037
-0.0002165059
-0.0008089691
-0.0002456709
-0.0007086156
-0.0002799811
-0.0005567963
-0.0003164088
-0.0003874419
-0.0003701457
-0.0002050219
-0.0004171923
-0.0004431467
-0.0001104657
0.0003768726
-0.0002181833
0.0003684823
-0.0003200911
0.0003609066
-0.0004136782
0.0003494742
-0.0004997064
0.0003351542
-0.0005808711
0.0003182363
-0.0006602067
0.0002994556
-0.0007345482
0.0002809592
-0.0008074143
0.000271093
-0.0008726854
0.0002502936
-0.0009340224
0.0002301664
-0.0009930016
0.0002132376
-0.001043768
0.0001953136
-0.001088012
0.0001808566
-0.001129843
0.0001665309
-0.001171478
0.000152898
-0.001210131
0.0001407175
-0.001243657
0.0001295372
-0.001273596
0.000118356
-0.001302629
0.0001072101
-0.001330107
9.680863e-05
-0.001354151
8.742107e-05
-0.001374704
7.842168e-05
-0.001393253
6.943233e-05
-0.001410302
6.064432e-05
-0.001424952
5.233017e-05
-0.001436568
4.436734e-05
-0.001445526
3.644363e-05
-0.001452549
2.842755e-05
-0.001457807
2.046428e-05
-0.001461583
1.347069e-05
-0.001461147
5.879092e-06
-0.0014588
-3.203774e-06
-0.001454994
-1.166142e-05
-0.001448769
-2.011e-05
-0.001439816
-2.861346e-05
-0.001426776
-3.702547e-05
-0.001409762
-4.566022e-05
-0.001390275
-5.517332e-05
-0.001369874
-6.56355e-05
-0.001346641
-7.670546e-05
-0.001319074
-8.812043e-05
-0.001287597
-9.965185e-05
-0.00125228
-0.0001125934
-0.001214084
-0.0001267389
-0.001172065
-0.0001420974
-0.001124817
-0.0001581098
-0.001072756
-0.0001746891
-0.001014566
-0.0001930261
-0.0009549401
-0.0002095912
-0.0008913448
-0.0002289059
-0.0008241503
-0.0002495827
-0.0007497696
-0.0002737776
-0.0006631607
-0.0003031163
-0.000563639
-0.0003451946
-0.0004617706
-0.0003818519
-0.000355481
-0.0004227013
-0.000252485
-0.0004731453
-0.0001332991
-0.0005363824
-0.0005764463
-8.490301e-05
0.0004617751
-0.0001656816
0.0004492603
-0.0002421291
0.0004373536
-0.0003138478
0.0004211923
-0.0003810646
0.0004023705
-0.0004446929
0.0003818641
-0.0005056718
0.000360434
-0.0005634203
0.0003387073
-0.0006105457
0.000318218
-0.0006607986
0.0003005461
-0.0007109523
0.0002803199
-0.0007612621
0.0002635471
-0.0008071287
0.0002411799
-0.0008486112
0.0002223389
-0.0008871551
0.0002050746
-0.000923088
0.0001888308
-0.000956138
0.0001737674
-0.000987319
0.0001607182
-0.001016307
0.0001473441
-0.001042933
0.0001338365
-0.001066732
0.0001206072
-0.0010877
0.0001083896
-0.001106109
9.683051e-05
-0.001122369
8.569283e-05
-0.001136607
7.488237e-05
-0.001148645
6.436912e-05
-0.001158369
5.409103e-05
-0.00116588
4.395545e-05
-0.001171358
3.390591e-05
-0.001175856
2.496289e-05
-0.001177949
1.556382e-05
-0.001176818
4.748749e-06
-0.001174322
-5.69939e-06
-0.001169875
-1.610885e-05
-0.001163356
-2.662806e-05
-0.001154648
-3.73216e-05
-0.001143207
-4.846606e-05
-0.001128826
-6.004161e-05
-0.001111815
-7.218409e-05
-0.001092473
-8.497727e-05
-0.001070739
-9.843931e-05
-0.001046149
-0.0001127106
-0.0010197
-0.0001261002
-0.000989675
-0.000142618
-0.0009565308
-0.0001598828
-0.0009205605
-0.0001780674
-0.0008812361
-0.0001974339
-0.0008378269
-0.0002180982
-0.0007921728
-0.0002386802
-0.000744472
-0.0002572923
-0.0006903071
-0.0002830713
-0.0006259597
-0.0003139308
-0.0005511362
-0.0003486022
-0.0004716245
-0.0003826292
-0.0003992547
-0.0004175659
-0.0003257587
-0.0004553497
-0.0002490581
-0.000499404
-0.0001696971
-0.0005525091
-8.906895e-05
-0.0006170139
-0.0006655156
-6.65759e-05
0.0005283506
-0.0001306702
0.0005133542
-0.0001909039
0.0004975868
-0.0002481526
0.0004784407
-0.0003025307
0.0004567482
-0.0003541481
0.0004334812
-0.0004030337
0.0004093193
-0.0004489336
0.0003846069
-0.0004901701
0.0003594543
-0.0005271241
0.0003375
-0.0005635535
0.0003167491
-0.0005985455
0.0002985389
-0.0006356138
0.0002782482
-0.0006698641
0.0002565891
-0.0007015277
0.0002367381
-0.0007308139
0.000218117
-0.0007576672
0.0002006208
-0.0007823733
0.0001854243
-0.0008052858
0.0001702567
-0.0008263744
0.0001549252
-0.0008454506
0.0001396835
-0.0008624131
0.0001253523
-0.0008773381
0.0001117557
-0.0008903138
9.866871e-05
-0.0009014137
8.598248e-05
-0.0009106667
7.362243e-05
-0.0009180968
6.152147e-05
-0.0009237539
4.961281e-05
-0.0009276679
3.782015e-05
-0.0009299397
2.7235e-05
-0.0009295239
1.514832e-05
-0.0009279376
3.162726e-06
-0.0009247994
-8.837356e-06
-0.0009197877
-2.112042e-05
-0.0009130757
-3.333986e-05
-0.0009052732
-4.512398e-05
-0.0008951221
-5.861707e-05
-0.0008827813
-7.238223e-05
-0.0008683608
-8.660444e-05
-0.0008518891
-0.0001014488
-0.0008332909
-0.0001170373
-0.0008126286
-0.0001333727
-0.0007895159
-0.0001492126
-0.0007638276
-0.000168306
-0.000735732
-0.0001879781
-0.0007051424
-0.0002086567
-0.0006720689
-0.0002305074
-0.0006378782
-0.0002522889
-0.0006012205
-0.0002753379
-0.0005564713
-0.0003020417
-0.0005059608
-0.0003335823
-0.0004542639
-0.0003656283
-0.0004042332
-0.0003986336
-0.0003535836
-0.0004332796
-0.0003003411
-0.0004708095
-0.000243547
-0.000512145
-0.0001844935
-0.000558459
-0.0001249844
-0.0006120202
-6.482527e-05
-0.0006771756
-0.0007303411
-5.044512e-05
0.0005787951
-9.89949e-05
0.0005619035
-0.0001442365
0.000542828
-0.0001870422
0.000521246
-0.0002276806
0.0004973862
-0.0002663601
0.0004721604
-0.0003033876
0.0004463467
-0.0003392539
0.000420473
-0.0003746988
0.000394899
-0.0004076206
0.0003704216
-0.0004378175
0.0003469459
-0.0004635769
0.0003242982
-0.0004893678
0.000304039
-0.0005161396
0.0002833609
-0.0005412948
0.0002618933
-0.0005649142
0.0002417363
-0.000586945
0.0002226516
-0.0006061992
0.0002046785
-0.000623343
0.0001874005
-0.0006390821
0.0001706643
-0.0006537857
0.0001543873
-0.0006671103
0.000138677
-0.0006788828
0.0001235284
-0.000689088
0.0001088741
-0.0006977524
9.464706e-05
-0.0007049115
8.078175e-05
-0.0007106051
6.721529e-05
-0.0007148783
5.388623e-05
-0.0007177858
4.072791e-05
-0.0007182859
2.773532e-05
-0.0007177608
1.462345e-05
-0.0007160424
1.444481e-06
-0.0007137489
-1.11306e-05
-0.0007098839
-2.498528e-05
-0.0007045654
-3.865825e-05
-0.0006977633
-5.192592e-05
-0.0006894657
-6.691457e-05
-0.0006797087
-8.213908e-05
-0.000668473
-9.783999e-05
-0.0006557524
-0.0001141693
-0.0006415431
-0.0001312464
-0.0006257544
-0.0001491612
-0.000606907
-0.0001680599
-0.0005869792
-0.0001882336
-0.0005654585
-0.0002094986
-0.0005420124
-0.0002321026
-0.0005173871
-0.0002551326
-0.0004898448
-0.0002798312
-0.0004573326
-0.0003078503
-0.0004207638
-0.0003386108
-0.0003839554
-0.000370391
-0.0003462202
-0.000403364
-0.0003067473
-0.000438107
-0.0002650616
-0.000474966
-0.0002216072
-0.0005142646
-0.0001771618
-0.0005565912
-0.0001324581
-0.0006031638
-8.812151e-05
-0.0006563584
-4.508917e-05
-0.0007202098
-0.0007754304
-3.789722e-05
0.0006166918
-7.416667e-05
0.0005981725
-0.000107518
0.0005761789
-0.0001388982
0.0005526259
-0.0001687553
0.000527243
-0.0001973674
0.0005007724
-0.0002249403
0.0004739193
-0.0002516434
0.0004471759
-0.0002776373
0.0004208927
-0.0003026055
0.0003953896
-0.0003263535
0.0003706938
-0.0003487866
0.0003467313
-0.0003682154
0.0003234676
-0.0003872886
0.000302434
-0.0004068721
0.0002814767
-0.0004252272
0.0002600914
-0.0004420177
0.0002394422
-0.0004572334
0.0002198942
-0.0004709942
0.0002011613
-0.0004834212
0.0001830914
-0.0004946423
0.0001656084
-0.0005046709
0.0001487057
-0.0005134898
0.0001323475
-0.0005210992
0.0001164836
-0.0005275091
0.0001010571
-0.0005327341
8.600695e-05
-0.0005367883
7.126968e-05
-0.0005396817
5.677985e-05
-0.0005414211
4.246745e-05
-0.0005419547
2.82691e-05
-0.0005413831
1.405202e-05
-0.0005404339
4.955106e-07
-0.0005384069
-1.315752e-05
-0.000535418
-2.7974e-05
-0.0005312096
-4.286661e-05
-0.0005251345
-5.800086e-05
-0.0005183978
-7.365117e-05
-0.0005107356
-8.980112e-05
-0.0005020158
-0.0001065596
-0.0004921553
-0.0001240296
-0.0004810795
-0.000142322
-0.0004686942
-0.0001615464
-0.0004549427
-0.0001818113
-0.0004398942
-0.0002032819
-0.0004233302
-0.0002260624
-0.0004055558
-0.000249877
-0.0003854002
-0.0002752882
-0.0003616777
-0.0003035538
-0.0003362132
-0.0003333149
-0.0003102424
-0.0003645817
-0.0002832821
-0.0003973516
-0.0002548947
-0.0004317517
-0.0002251454
-0.0004678567
-0.0001942841
-0.0005058278
-0.0001625532
-0.0005459961
-0.0001301766
-0.0005889684
-9.74847e-05
-0.0006358565
-6.498262e-05
-0.0006888616
-3.31127e-05
-0.0007520812
-0.0008085433
-2.751145e-05
0.0006442027
-5.38979e-05
0.0006245585
-7.785855e-05
0.0006001391
-0.0001002677
0.0005750347
-0.0001216067
0.0005485817
-0.000142161
0.0005213264
-0.0001620961
0.0004938542
-0.0001814865
0.0004665661
-0.0002003218
0.0004397279
-0.0002184479
0.0004135156
-0.0002357506
0.0003879963
-0.0002522019
0.0003631825
-0.0002678081
0.0003390738
-0.0002811098
0.0003157356
-0.0002938967
0.0002942636
-0.0003071931
0.0002733878
-0.0003201043
0.0002523534
-0.0003319117
0.0002317016
-0.000342614
0.0002118637
-0.000352242
0.0001927195
-0.0003608643
0.0001742308
-0.0003685133
0.0001563547
-0.0003752097
0.0001390441
-0.0003809735
0.0001222476
-0.0003858256
0.0001059094
-0.0003897878
8.996924e-05
-0.0003928813
7.436338e-05
-0.000395126
5.902467e-05
-0.0003965403
4.388189e-05
-0.0003971324
2.886135e-05
-0.0003969671
1.388693e-05
-0.0003965482
7.669302e-08
-0.0003945882
-1.511732e-05
-0.0003920629
-3.04992e-05
-0.0003888365
-4.609292e-05
-0.0003848336
-6.20036e-05
-0.0003801138
-7.837084e-05
-0.0003746445
-9.527035e-05
-0.0003683968
-0.0001128071
-0.0003613364
-0.00013109
-0.0003534226
-0.0001502357
-0.000344601
-0.0001703678
-0.0003347935
-0.0001916187
-0.000323951
-0.0002141243
-0.0003119417
-0.0002380717
-0.0002984106
-0.0002634081
-0.0002828048
-0.000290894
-0.0002664159
-0.0003199426
-0.0002491149
-0.000350616
-0.0002306741
-0.0003830227
-0.000210905
-0.0004171209
-0.000189814
-0.0004528429
-0.0001675206
-0.0004901504
-0.000144224
-0.0005291247
-0.0001201825
-0.000570038
-9.570444e-05
-0.0006134469
-7.114862e-05
-0.0006604129
-4.696303e-05
-0.000713048
-2.377148e-05
-0.0007752738
-0.0008323148
-1.971142e-05
0.0006639137
-3.818888e-05
0.0006430355
-5.430032e-05
0.0006162502
-6.90519e-05
0.000589786
-8.307085e-05
0.0005626004
-9.669371e-05
0.0005349491
-0.0001100792
0.0005072395
-0.0001232714
0.0004797581
-0.0001362364
0.0004526927
-0.0001488831
0.0004261622
-0.0001611256
0.0004002387
-0.0001729154
0.0003749722
-0.0001842428
0.0003504011
-0.0001950626
0.0003265552
-0.0002042877
0.0003034886
-0.0002126158
0.0002817159
-0.0002211575
0.000260895
-0.0002296508
0.0002401949
-0.000237525
0.0002197379
-0.0002446758
0.0001998704
-0.0002510865
0.0001806416
-0.0002567897
0.000162058
-0.0002618081
0.0001440626
-0.0002661632
0.0001266028
-0.0002698745
0.0001096207
-0.0002729603
9.305523e-05
-0.0002754391
7.684225e-05
-0.0002773292
6.091489e-05
-0.0002786498
4.520264e-05
-0.0002794206
2.963219e-05
-0.0002796628
1.41293e-05
-0.0002790791
-5.068633e-07
-0.0002779917
-1.620462e-05
-0.0002764162
-3.207459e-05
-0.0002743176
-4.819147e-05
-0.0002716691
-6.465198e-05
-0.0002684804
-8.155941e-05
-0.000264736
-9.901464e-05
-0.0002604168
-0.0001171263
-0.000255499
-0.0001360077
-0.0002499564
-0.0001557782
-0.0002437607
-0.0001765634
-0.0002368864
-0.0001984929
-0.0002292882
-0.0002217224
-0.0002210609
-0.000246299
-0.0002119547
-0.0002725143
-0.0002021615
-0.0003006872
-0.0001914846
-0.0003306196
-0.0001797029
-0.0003623978
-0.000166691
-0.0003960346
-0.0001523805
-0.0004314316
-0.0001368663
-0.0004683572
-0.0001204023
-0.0005066145
-0.0001032914
-0.0005462358
-8.580628e-05
-0.0005875233
-6.819217e-05
-0.0006310614
-5.068268e-05
-0.0006779228
-3.352585e-05
-0.0007302054
-1.699285e-05
-0.0007918075
-0.0008493078
-1.315031e-05
0.0006770636
-2.502999e-05
0.0006549149
-3.506002e-05
0.00062628
-4.418637e-05
0.0005989121
-5.292663e-05
0.0005713405
-6.152005e-05
0.0005435423
-7.004166e-05
0.000515761
-7.84899e-05
0.0004882062
-8.683454e-05
0.0004610372
-9.505191e-05
0.0004343794
-0.0001031811
0.0004083677
-0.0001112441
0.0003830351
-0.0001191848
0.0003583416
-0.0001269069
0.0003342773
-0.0001342411
0.0003108227
-0.0001405328
0.0002880075
-0.0001457793
0.0002661415
-0.0001506602
0.0002450759
-0.0001553905
0.0002244681
-0.0001598988
0.0002043787
-0.0001641046
0.0001848475
-0.0001679623
0.0001659158
-0.0001714428
0.0001475431
-0.0001745384
0.0001296984
-0.0001772506
0.0001123331
-0.000179587
9.539172e-05
-0.0001815641
7.881945e-05
-0.0001831971
6.254791e-05
-0.0001844913
4.6497e-05
-0.0001854504
3.059135e-05
-0.0001860761
1.475511e-05
-0.0001860705
-5.124171e-07
-0.0001857643
-1.651067e-05
-0.0001851526
-3.268627e-05
-0.000184219
-4.912492e-05
-0.0001829508
-6.59201e-05
-0.0001813387
-8.317149e-05
-0.0001793704
-0.0001009828
-0.0001770327
-0.0001194639
-0.0001743101
-0.0001387301
-0.0001711858
-0.0001589025
-0.0001676426
-0.0001801066
-0.0001636656
-0.0002024699
-0.0001592607
-0.0002261273
-0.0001544186
-0.0002511412
-0.0001489149
-0.000278018
-0.0001428268
-0.0003067755
-0.0001360134
-0.000337433
-0.0001282914
-0.0003701198
-0.0001194222
-0.0004049039
-0.0001092159
-0.0004416379
-9.786922e-05
-0.0004797041
-8.582109e-05
-0.0005186628
-7.340927e-05
-0.0005586478
-6.081163e-05
-0.0006001212
-4.817387e-05
-0.0006436994
-3.563578e-05
-0.0006904612
-2.33754e-05
-0.0007424662
-1.170698e-05
-0.0008034764
-0.0008610148
-9.405339e-06
0.0006864687
-1.721555e-05
0.0006627249
-2.297987e-05
0.0006320441
-2.752219e-05
0.0006034542
-3.15535e-05
0.0005753716
-3.541889e-05
0.0005474075
-3.929852e-05
0.0005196404
-4.32823e-05
0.0004921898
-4.740212e-05
0.0004651569
-5.160653e-05
0.0004385837
-5.58181e-05
0.0004125792
-5.997854e-05
0.0003871954
-6.401833e-05
0.0003623813
-6.789238e-05
0.0003381513
-7.160483e-05
0.0003145351
-7.513886e-05
0.0002915415
-7.822367e-05
0.0002692263
-8.098727e-05
0.0002478395
-8.383084e-05
0.0002273117
-8.685355e-05
0.0002074014
-8.996133e-05
0.0001879553
-9.297521e-05
0.0001689297
-9.586466e-05
0.0001504326
-9.85925e-05
0.0001324263
-0.0001011363
0.0001148769
-0.0001034727
9.772814e-05
-0.0001055757
8.092257e-05
-0.0001074386
6.441082e-05
-0.000109062
4.812045e-05
-0.0001104533
3.198276e-05
-0.0001116204
1.59223e-05
-0.0001123207
1.87963e-07
-0.0001128413
-1.599007e-05
-0.0001131751
-3.235234e-05
-0.000113317
-4.898297e-05
-0.0001132635
-6.597357e-05
-0.0001130108
-8.34241e-05
-0.0001125543
-0.0001014394
-0.0001118873
-0.0001201308
-0.0001110001
-0.0001396173
-0.0001098769
-0.0001600257
-0.000108492
-0.0001814914
-0.0001068019
-0.00020416
-0.0001047548
-0.0002281744
-0.0001021389
-0.0002537571
-9.911048e-05
-0.0002810464
-9.589941e-05
-0.0003099866
-9.215846e-05
-0.000341174
-8.74755e-05
-0.0003748029
-8.158178e-05
-0.0004107978
-7.44459e-05
-0.0004487739
-6.635242e-05
-0.0004877977
-5.781287e-05
-0.0005272025
-4.919719e-05
-0.0005672636
-4.060186e-05
-0.0006087166
-3.209236e-05
-0.000652209
-2.373608e-05
-0.0006988177
-1.562392e-05
-0.0007505786
-7.899045e-06
-0.0008112017
-0.0008689139
-4.536308e-06
0.0006910048
-6.859983e-06
0.0006650483
-6.943149e-06
0.0006321271
-6.435574e-06
0.0006029465
-5.932846e-06
0.0005748687
-5.789961e-06
0.0005472645
-6.177618e-06
0.0005200279
-7.159415e-06
0.0004931715
-8.698321e-06
0.0004666956
-1.073586e-05
0.0004406211
-1.311509e-05
0.0004149583
-1.563509e-05
0.0003897153
-1.83572e-05
0.0003651034
-2.121805e-05
0.0003410121
-2.407827e-05
0.0003173953
-2.684112e-05
0.0002943043
-2.947061e-05
0.0002718557
-3.17155e-05
0.0002500844
-3.343526e-05
0.0002290315
-3.473293e-05
0.0002086991
-3.597294e-05
0.0001891953
-3.744021e-05
0.000170397
-3.91e-05
0.0001520924
-4.090716e-05
0.0001342335
-4.281867e-05
0.0001167885
-4.480047e-05
9.970998e-05
-4.67846e-05
8.290675e-05
-4.869941e-05
6.632567e-05
-5.05287e-05
4.994978e-05
-5.226004e-05
3.371415e-05
-5.388858e-05
1.755089e-05
-5.522063e-05
1.52005e-06
-5.647348e-05
-1.473717e-05
-5.764285e-05
-3.118292e-05
-5.871858e-05
-4.790721e-05
-5.969889e-05
-6.499322e-05
-6.0582e-05
-8.254097e-05
-6.136723e-05
-0.0001006541
-6.205388e-05
-0.0001194441
-6.264e-05
-0.0001390311
-6.312075e-05
-0.0001595449
-6.348585e-05
-0.0001811263
-6.371507e-05
-0.0002039308
-6.376519e-05
-0.0002281243
-6.363518e-05
-0.0002538871
-6.322029e-05
-0.0002814613
-6.205948e-05
-0.0003111474
-6.012507e-05
-0.0003431085
-5.735858e-05
-0.0003775694
-5.363943e-05
-0.000414517
-4.913259e-05
-0.0004532808
-4.391398e-05
-0.0004930163
-3.823064e-05
-0.0005328859
-3.245144e-05
-0.0005730429
-2.674461e-05
-0.0006144236
-2.110257e-05
-0.0006578512
-1.554357e-05
-0.0007043768
-1.012953e-05
-0.0007559928
-5.018727e-06
-0.0008163127
-0.0008739326
-2.263686e-06
0.0006932683
-1.978712e-06
0.0006647632
-2.831483e-07
0.0006304314
2.208664e-06
0.0006004546
4.954173e-06
0.0005721231
7.729103e-06
0.0005444895
1.04296e-05
0.0005173273
1.300095e-05
0.0004906
1.536055e-05
0.0004643359
1.730617e-05
0.0004386753
1.85296e-05
0.0004137348
1.877845e-05
0.0003894663
1.812287e-05
0.0003657589
1.671671e-05
0.0003424181
1.486546e-05
0.0003192465
1.279584e-05
0.0002963739
1.062898e-05
0.0002740226
8.511694e-06
0.0002522016
6.559324e-06
0.0002309838
4.781759e-06
0.0002104767
3.246428e-06
0.0001907306
1.937152e-06
0.0001717063
7.511616e-07
0.0001532784
-3.91549e-07
0.0001353763
-1.553972e-06
0.0001179509
-2.758745e-06
0.0001009148
-4.06962e-06
8.421765e-05
-5.526194e-06
6.778227e-05
-7.097791e-06
5.15214e-05
-8.757584e-06
3.537397e-05
-1.047685e-05
1.927018e-05
-1.212178e-05
3.165009e-06
-1.382058e-05
-1.303835e-05
-1.554044e-05
-2.946305e-05
-1.72706e-05
-4.617703e-05
-1.899331e-05
-6.327049e-05
-2.070298e-05
-8.08313e-05
-2.239595e-05
-9.896112e-05
-2.407072e-05
-0.0001177694
-2.572606e-05
-0.0001373758
-2.736008e-05
-0.0001579109
-2.897227e-05
-0.0001795141
-3.056459e-05
-0.0002023385
-3.212958e-05
-0.0002265593
-3.356997e-05
-0.0002524468
-3.463225e-05
-0.0002803991
-3.505405e-05
-0.0003107257
-3.462055e-05
-0.000343542
-3.339138e-05
-0.0003787987
-3.165289e-05
-0.0004162556
-2.933971e-05
-0.0004555941
-2.639754e-05
-0.0004959586
-2.296406e-05
-0.0005363194
-1.937338e-05
-0.0005766337
-1.587225e-05
-0.0006179248
-1.244897e-05
-0.0006612746
-9.124466e-06
-0.0007077014
-5.943788e-06
-0.0007591736
-2.983503e-06
-0.0008192732
-0.0008769161
-8.821746e-07
0.0006941504
1.025585e-06
0.0006628554
4.857959e-06
0.000626599
9.54915e-06
0.0005957633
1.448411e-05
0.0005671881
1.933775e-05
0.0005396357
2.392726e-05
0.0005127377
2.811596e-05
0.0004864112
3.175383e-05
0.0004606979
3.480078e-05
0.0004356283
3.737949e-05
0.0004111559
3.947067e-05
0.0003873751
4.113831e-05
0.0003640911
4.244026e-05
0.0003411161
4.314058e-05
0.0003185461
4.309355e-05
0.0002964209
4.254685e-05
0.0002745692
4.163677e-05
0.0002531117
4.042353e-05
0.000232197
3.900383e-05
0.0002118964
3.750986e-05
0.0001922246
3.605295e-05
0.0001731632
3.46398e-05
0.0001546916
3.323501e-05
0.0001367811
3.180574e-05
0.0001193802
3.032278e-05
0.0001023977
2.876884e-05
8.577159e-05
2.712496e-05
6.942616e-05
2.538911e-05
5.325726e-05
2.356581e-05
3.719728e-05
2.165958e-05
2.117642e-05
1.970215e-05
5.122448e-06
1.760399e-05
-1.094018e-05
1.540737e-05
-2.726642e-05
1.314989e-05
-4.391955e-05
1.08319e-05
-6.095251e-05
8.460611e-06
-7.846001e-05
6.039409e-06
-9.653993e-05
3.569268e-06
-0.0001152993
1.049687e-06
-0.0001348562
-1.524326e-06
-0.0001553369
-4.170459e-06
-0.000176868
-6.850451e-06
-0.0001996586
-9.438903e-06
-0.0002239709
-1.177355e-05
-0.0002501122
-1.374945e-05
-0.0002784233
-1.532916e-05
-0.000309146
-1.642701e-05
-0.0003424443
-1.690603e-05
-0.0003783197
-1.661603e-05
-0.0004165456
-1.569782e-05
-0.0004565124
-1.435185e-05
-0.0004973047
-1.255813e-05
-0.0005381133
-1.054622e-05
-0.0005786457
-8.58456e-06
-0.0006198865
-6.681384e-06
-0.0006631778
-4.848113e-06
-0.0007095348
-3.107998e-06
-0.0007609139
-1.514058e-06
-0.0008208672
-0.0008784302
4.151167e-07
0.0006937352
3.862307e-06
0.0006594082
9.455728e-06
0.0006210055
1.592202e-05
0.000589297
2.258768e-05
0.0005605223
2.906933e-05
0.000533154
3.514285e-05
0.0005066641
4.067815e-05
0.0004808758
4.563653e-05
0.0004557394
5.00388e-05
0.0004312259
5.38431e-05
0.0004073515
5.705277e-05
0.0003841653
5.966412e-05
0.0003614797
6.167828e-05
0.0003391019
6.32037e-05
0.0003170206
6.439167e-05
0.0002952328
6.508889e-05
0.0002738719
6.524967e-05
0.0002529508
6.497153e-05
0.0002324751
6.433024e-05
0.0002125376
6.339516e-05
0.0001931596
6.221471e-05
0.0001743436
6.084351e-05
0.0001560628
5.934112e-05
0.0001382834
5.775316e-05
0.0001209681
5.607976e-05
0.0001040711
5.430677e-05
8.754458e-05
5.242893e-05
7.1304e-05
5.042992e-05
5.525627e-05
4.828928e-05
3.933791e-05
4.600637e-05
2.345933e-05
4.35993e-05
7.529519e-06
4.110031e-05
-8.441198e-06
3.8386e-05
-2.455212e-05
3.557645e-05
-4.111e-05
3.268194e-05
-5.805801e-05
2.970573e-05
-7.548381e-05
2.664416e-05
-9.347837e-05
2.348298e-05
-0.0001121381
2.021215e-05
-0.0001315854
1.685358e-05
-0.0001519784
1.346214e-05
-0.0001734766
1.012579e-05
-0.0001963223
6.977269e-06
-0.0002208224
4.113612e-06
-0.0002472486
1.565615e-06
-0.0002758753
-6.457081e-07
-0.0003069348
-2.514358e-06
-0.0003405757
-4.009123e-06
-0.0003768251
-5.080945e-06
-0.0004154739
-5.617806e-06
-0.0004559756
-5.46006e-06
-0.0004974625
-4.7223e-06
-0.0005388511
-3.786382e-06
-0.0005795817
-2.903896e-06
-0.0006207691
-2.096257e-06
-0.0006639855
-1.381991e-06
-0.0007102491
-7.850941e-07
-0.0007615108
-3.449664e-07
-0.0008213074
-0.0008787752
1.120568e-06
0.0006926147
5.714286e-06
0.0006548144
1.24413e-05
0.0006142785
2.009834e-05
0.0005816399
2.799776e-05
0.0005526229
3.574319e-05
0.0005254085
4.310328e-05
0.0004993039
4.994304e-05
0.0004740359
5.618642e-05
0.0004494959
6.177336e-05
0.0004256388
6.666559e-05
0.0004024592
7.085703e-05
0.0003799737
7.432891e-05
0.0003580077
7.711397e-05
0.0003363167
7.931366e-05
0.0003148208
8.096045e-05
0.000293586
8.211039e-05
0.0002727219
8.275186e-05
0.0002523093
8.283366e-05
0.0002323933
8.244842e-05
0.0002129228
8.166101e-05
0.000193947
8.054517e-05
0.0001754594
7.916718e-05
0.0001574407
7.758321e-05
0.0001398674
7.583789e-05
0.0001227134
7.396205e-05
0.000105947
7.197944e-05
8.952718e-05
6.988731e-05
7.339611e-05
6.766097e-05
5.74826e-05
6.528617e-05
4.17127e-05
6.275783e-05
2.598766e-05
6.006756e-05
1.021977e-05
5.725578e-05
-5.629426e-06
5.416074e-05
-2.145709e-05
5.089962e-05
-3.78489e-05
4.752132e-05
-5.467973e-05
4.403819e-05
-7.200069e-05
4.045015e-05
-8.989036e-05
3.675725e-05
-0.0001084452
3.296963e-05
-0.0001277979
2.912523e-05
-0.000148134
2.531368e-05
-0.0001696651
2.16197e-05
-0.0001926283
1.809668e-05
-0.0002172995
1.481371e-05
-0.0002439657
1.18333e-05
-0.000272895
9.194062e-06
-0.0003042957
6.900168e-06
-0.0003382819
4.912451e-06
-0.0003748375
3.212134e-06
-0.0004137737
1.863065e-06
-0.0004546267
9.266338e-07
-0.0004965262
4.162282e-07
-0.0005383408
2.087095e-07
-0.0005793743
1.165481e-07
-0.000620677
5.425676e-08
-0.0006639233
1.030705e-08
-0.0007102052
-1.954972e-08
-0.0007614811
-2.629877e-08
-0.0008213008
-0.0008788015
1.504381e-06
0.0006911104
6.755705e-06
0.0006495631
1.421615e-05
0.000606818
2.264966e-05
0.0005732063
3.134816e-05
0.0005439243
3.989949e-05
0.0005168571
4.805804e-05
0.0004911452
5.567672e-05
0.0004664171
6.267043e-05
0.0004425021
6.899188e-05
0.0004193173
7.462836e-05
0.0003968225
7.960616e-05
0.0003749958
8.389022e-05
0.0003537235
8.742375e-05
0.000332783
9.019971e-05
0.0003120447
9.225269e-05
0.0002915329
9.365704e-05
0.0002713175
9.448826e-05
0.000251478
9.481599e-05
0.0002320655
9.460273e-05
0.000213136
9.389673e-05
0.0001946529
9.276851e-05
0.0001765876
9.129627e-05
0.0001589129
8.955513e-05
0.0001416085
8.760622e-05
0.0001246623
8.548935e-05
0.0001080638
8.322566e-05
9.179084e-05
8.082401e-05
7.579775e-05
7.829084e-05
6.001575e-05
7.564142e-05
4.436211e-05
7.287918e-05
2.874988e-05
6.998424e-05
1.311469e-05
6.690268e-05
-2.547883e-06
6.355878e-05
-1.81132e-05
6.000526e-05
-3.42954e-05
5.630887e-05
-5.098336e-05
5.249657e-05
-6.818841e-05
4.858031e-05
-8.597413e-05
4.458148e-05
-0.0001044464
4.053459e-05
-0.000123751
3.6476e-05
-0.0001440755
3.245605e-05
-0.0001656452
2.854717e-05
-0.0001887195
2.482657e-05
-0.0002135789
2.136093e-05
-0.0002405001
1.819667e-05
-0.0002697308
1.536225e-05
-0.0003014614
1.287371e-05
-0.0003357935
1.07391e-05
-0.000372703
8.952332e-06
-0.0004119871
7.476922e-06
-0.0004531514
6.285322e-06
-0.0004953347
5.380918e-06
-0.0005374365
4.70736e-06
-0.0005787008
4.099349e-06
-0.0006200691
3.434225e-06
-0.0006632582
2.702062e-06
-0.0007094731
1.888432e-06
-0.0007606675
9.759203e-07
-0.0008203884
-0.0008778256
1.672025e-06
0.0006894384
7.239659e-06
0.0006439956
1.507742e-05
0.0005989803
2.393783e-05
0.0005643459
3.309949e-05
0.0005347626
4.213725e-05
0.0005078192
5.07923e-05
0.0004824901
5.890669e-05
0.0004583026
6.638874e-05
0.0004350199
7.319373e-05
0.0004125121
7.931663e-05
0.0003906995
8.478683e-05
0.0003695255
8.958491e-05
0.0003489253
9.362637e-05
0.0003287415
9.686965e-05
0.0003088013
9.933563e-05
0.0002890668
0.0001010602
0.0002695928
0.000102092
0.0002504461
0.0001024556
0.0002317018
0.0001022045
0.0002133871
0.0001014045
0.0001954529
0.0001001277
0.0001778643
9.845524e-05
0.0001605854
9.646847e-05
0.0001435952
9.424069e-05
0.0001268901
9.182889e-05
0.0001104756
8.926957e-05
9.435014e-05
8.65788e-05
7.848849e-05
8.375989e-05
6.283465e-05
8.081519e-05
4.730678e-05
7.775022e-05
3.181483e-05
7.456769e-05
1.629721e-05
7.124438e-05
7.753984e-07
6.772657e-05
-1.459541e-05
6.400491e-05
-3.057377e-05
6.013649e-05
-4.711496e-05
5.616425e-05
-6.42162e-05
5.211407e-05
-8.192399e-05
4.800798e-05
-0.0001003404
4.387594e-05
-0.000119619
3.976029e-05
-0.0001399599
3.571555e-05
-0.0001616005
3.180172e-05
-0.0001848057
2.807644e-05
-0.0002098537
2.459102e-05
-0.0002370148
2.138483e-05
-0.0002665247
1.848059e-05
-0.0002985572
1.588371e-05
-0.0003331967
1.358819e-05
-0.0003704076
1.158791e-05
-0.0004099869
9.883741e-06
-0.0004514473
8.467263e-06
-0.0004939183
7.289378e-06
-0.0005362587
6.264697e-06
-0.0005776762
5.275661e-06
-0.0006190801
4.246947e-06
-0.0006622296
3.192449e-06
-0.0007084187
2.123555e-06
-0.0007595986
1.047094e-06
-0.0008193119
-0.0008767785
1.597224e-06
0.0006878413
7.235163e-06
0.0006383577
1.517982e-05
0.0005910357
2.418133e-05
0.0005553444
3.351858e-05
0.0005254253
4.275757e-05
0.0004985802
5.163008e-05
0.0004736175
5.997095e-05
0.0004499616
6.76835e-05
0.0004273072
7.47196e-05
0.0004054759
8.106771e-05
0.0003843512
8.674524e-05
0.0003638478