/*--------------------------------*- C++ -*----------------------------------*\
| =========                 |                                                 |
| \\      /  F ield         | OpenFOAM: The Open Source CFD Toolbox           |
|  \\    /   O peration     | Version:  2312                                  |
|   \\  /    A nd           | Website:  www.openfoam.com                      |
|    \\/     M anipulation  |                                                 |
\*---------------------------------------------------------------------------*/
FoamFile
{
    version     2.0;
    format      ascii;
    arch        "LSB;label=32;scalar=64";
    class       volScalarField;
    location    "3600";
    object      qin;
}
// * * * * * * * * * * * * * * * * * * * * * * * * * * * * * * * * * * * * * //

dimensions      [1 0 -3 0 0 0 0];

internalField   uniform 0;

boundaryField
{
    plate
    {
        type            calculated;
        value           nonuniform List<scalar> 
200
(
2083.476
2074.085
2066.63
2043.602
2007.353
1978.642
1970.355
1979.437
1995.235
2009.761
2019.237
2021.038
2013.472
1998.371
1981.635
1970.191
1968.483
1977.104
1993.226
2011.76
2027.199
2035.998
2038.118
2036.511
2034.945
2035.885
2039.677
2045.02
2049.948
2052.729
2052.52
2049.715
2045.871
2043.129
2043.308
2047.118
2053.883
2061.914
2069.277
2074.584
2077.457
2078.542
2079.131
2080.592
2083.836
2089.006
2095.489
2102.2
2108.012
2112.14
2114.354
2114.956
2114.576
2113.886
2113.366
2113.202
2113.333
2113.592
2113.863
2114.161
2114.628
2115.442
2116.708
2118.389
2120.303
2122.181
2123.765
2124.891
2125.533
2125.786
2125.815
2125.783
2125.803
2125.909
2126.069
2126.211
2126.262
2126.168
2125.911
2125.506
2124.99
2124.41
2123.818
2123.263
2122.793
2122.455
2122.295
2122.359
2122.692
2123.328
2124.289
2125.576
2127.164
2129
2131.008
2133.095
2135.161
2137.11
2138.856
2140.335
2141.504
2142.343
2142.858
2143.077
2143.053
2142.853
2142.563
2142.27
2142.061
2142.003
2142.146
2142.51
2143.089
2143.859
2144.784
2145.827
2146.952
2148.123
2149.303
2150.447
2151.501
2152.413
2153.144
2153.688
2154.083
2154.409
2154.769
2155.256
2155.91
2156.697
2157.507
2158.19
2158.604
2158.68
2158.443
2158.009
2157.529
2157.122
2156.82
2156.558
2156.231
2155.776
2155.263
2154.93
2155.125
2156.17
2158.186
2160.949
2163.872
2166.118
2166.858
2165.559
2162.217
2157.436
2152.281
2147.953
2145.343
2144.64
2145.141
2145.44
2143.995
2139.945
2133.819
2127.73
2124.805
2127.945
2138.432
2155.057
2174.285
2191.469
2202.626
2205.979
2202.613
2195.992
2190.53
2189.735
2194.529
2202.414
2208.091
2205.828
2193.089
2173.588
2157.218
2155.567
2175.035
2212.343
2256.177
2293.804
2317.221
2324.445
2317.044
2299.044
2280.218
2279.206
2316.199
2393.554
2485.425
2559.877
2626.316
2743.994
)
;
    }
    riser
    {
        type            calculated;
        value           nonuniform List<scalar> 
200
(
3743.017
3746.239
3854.982
4052.937
4264.422
4425.459
4534.591
4576.247
4522.543
4451.262
4479.128
4580.501
4649.122
4683.107
4763.631
4911.514
5057.784
5131.735
5128.762
5094.399
5071.934
5072.103
5080.137
5079.758
5068.265
5054.045
5046.23
5049.375
5066.091
5100.663
5157.26
5234.379
5322.108
5405.555
5471.289
5512.151
5528.429
5526.047
5513.58
5499.324
5489.018
5484.665
5484.819
5486.257
5486.143
5483.523
5479.473
5476.103
5475.222
5477.44
5482.056
5487.62
5492.716
5496.57
5499.225
5501.299
5503.541
5506.423
5509.948
5513.721
5517.182
5519.858
5521.528
5522.246
5522.266
5521.918
5521.505
5521.237
5521.203
5521.391
5521.707
5522.024
5522.222
5522.234
5522.069
5521.818
5521.639
5521.712
5522.199
5523.206
5524.755
5526.787
5529.161
5531.675
5534.079
5536.085
5537.39
5537.689
5536.707
5534.239
5530.189
5524.603
5517.689
5509.809
5501.454
5493.198
5485.634
5479.321
5474.73
5472.201
5471.928
5473.939
5478.108
5484.166
5491.728
5500.325
5509.445
5518.58
5527.261
5535.101
5541.817
5547.242
5551.323
5554.101
5555.687
5556.234
5555.919
5554.926
5553.45
5551.698
5549.889
5548.249
5546.981
5546.231
5546.051
5546.382
5547.064
5547.885
5548.652
5549.258
5549.719
5550.165
5550.773
5551.683
5552.921
5554.378
5555.855
5557.152
5558.163
5558.92
5559.55
5560.165
5560.725
5560.968
5560.471
5558.84
5555.979
5552.308
5548.789
5546.699
5547.165
5550.63
5556.453
5562.882
5567.518
5568.231
5564.255
5557.043
5550.372
5549.396
5558.713
5580.045
5610.532
5642.607
5665.833
5670.186
5649.495
5603.643
5538.745
5465.362
5395.482
5339.235
5302.205
5284.036
5278.864
5277.881
5273.727
5265.227
5260.02
5272.564
5316.141
5390.443
5471.672
5515.816
5479.988
5351.811
5165.27
4985.844
4869.994
4829.801
4839.164
4880.313
4971.115
5102.94
5163.256
4985.113
4590.764
4288.335
4216.41
4255.25
)
;
    }
    topAndBottom
    {
        type            calculated;
        value           nonuniform List<scalar> 
120
(
6030.41
5454.644
5068.078
4823.25
4650.957
4527.89
4440.117
4372.05
4313.443
4261.682
4217.982
4183.217
4156.347
4135.032
4116.894
4100.311
4084.54
4069.459
4055.248
4042.124
4030.137
4019.085
4008.579
3998.215
3987.729
3977.053
3966.248
3955.398
3944.535
3933.646
3922.734
3911.884
3901.292
3891.243
3882.036
3873.874
3866.76
3860.447
3854.486
3848.368
3841.71
3834.393
3826.594
3818.719
3811.306
3804.902
3799.841
3795.886
3791.89
3785.847
3775.692
3760.693
3742.581
3725.169
3711.861
3702.301
3691.551
3673.985
3652.574
3632.767
3825.674
3936.639
3973.957
3998.845
4010.288
3987.168
3940.339
3898.183
3877.124
3876.564
3888.99
3906.846
3923.435
3932.917
3931.521
3918.643
3896.712
3870.046
3843.487
3821.23
3805.994
3798.635
3798.244
3802.686
3809.356
3815.878
3820.561
3822.533
3821.621
3818.117
3812.532
3805.418
3797.273
3788.498
3779.365
3769.981
3760.254
3749.899
3738.542
3725.915
3712.081
3697.553
3683.224
3670.099
3658.956
3650.069
3643.087
3637.038
3630.504
3622.026
3610.759
3597.136
3582.972
3570.556
3560.898
3552.271
3540.906
3524
3505.268
3487.232
)
;
    }
    frontAndBack
    {
        type            empty;
    }
}


// ************************************************************************* //
