/*--------------------------------*- C++ -*----------------------------------*\
| =========                 |                                                 |
| \\      /  F ield         | OpenFOAM: The Open Source CFD Toolbox           |
|  \\    /   O peration     | Version:  2312                                  |
|   \\  /    A nd           | Website:  www.openfoam.com                      |
|    \\/     M anipulation  |                                                 |
\*---------------------------------------------------------------------------*/
FoamFile
{
    version     2.0;
    format      ascii;
    arch        "LSB;label=32;scalar=64";
    class       volScalarField;
    location    "3600";
    object      qr;
}
// * * * * * * * * * * * * * * * * * * * * * * * * * * * * * * * * * * * * * //

dimensions      [1 0 -3 0 0 0 0];

internalField   uniform 0;

boundaryField
{
    plate
    {
        type            calculated;
        value           nonuniform List<scalar> 
200
(
-3309.509
-4084.097
-4523.685
-4353.565
-3820.596
-3388.119
-3123.915
-5552.316
-5187.979
-2750.371
-3301.761
-3594.873
-3678.315
-3684.961
-3634.17
-3578.37
-3537.284
-3532.365
-3563.477
-3582.174
-3593.783
-3640.041
-3657.355
-3700.629
-3665.537
-3652.848
-3655.873
-3699.261
-3770.047
-3802.944
-3817.723
-3800.838
-3772.862
-3751.36
-3740.726
-3743.182
-3752.532
-3763.347
-3770.975
-3773.734
-3773.67
-3773.686
-3775.652
-3779.198
-3782.412
-3783.29
-3780.899
-3775.82
-3769.719
-3764.482
-3761.343
-3760.487
-3761.232
-3762.573
-3763.739
-3764.483
-3765.026
-3765.745
-3766.807
-3768.001
-3768.799
-3768.652
-3767.251
-3764.718
-3761.54
-3758.387
-3755.816
-3754.109
-3753.216
-3752.879
-3752.761
-3752.618
-3752.339
-3751.952
-3751.531
-3751.114
-3750.718
-3750.292
-3749.782
-3749.151
-3748.401
-3747.563
-3746.67
-3745.744
-3744.799
-3743.847
-3742.912
-3742.031
-3741.241
-3740.572
-3740.026
-3739.584
-3739.193
-3738.804
-3738.372
-3737.885
-3737.351
-3736.805
-3736.272
-3735.786
-3735.349
-3734.969
-3734.623
-3734.31
-3734.016
-3733.753
-3733.519
-3733.332
-3733.181
-3733.062
-3732.943
-3732.802
-3732.618
-3732.374
-3732.093
-3731.785
-3731.52
-3731.31
-3731.247
-3731.307
-3731.557
-3731.918
-3732.4
-3732.85
-3733.259
-3733.427
-3733.398
-3733.038
-3732.477
-3731.756
-3730.96
-3730.176
-3729.396
-3728.586
-3727.683
-3726.718
-3725.859
-3725.44
-3725.871
-3727.485
-3730.343
-3734.101
-3738.016
-3741.121
-3742.516
-3741.679
-3738.633
-3733.94
-3728.494
-3723.265
-3719.055
-3716.407
-3715.601
-3716.727
-3719.639
-3723.877
-3728.55
-3732.418
-3734.177
-3733.012
-3729.067
-3723.651
-3718.783
-3716.332
-3717.02
-3719.941
-3722.753
-3722.703
-3718.131
-3709.903
-3701.766
-3698.648
-3703.828
-3716.342
-3730.906
-3739.758
-3736.826
-3720.007
-3694.493
-3671.258
-3661.185
-3668.972
-3688.817
-3710.043
-3722.622
-3723.874
-3714.113
-3696.97
-3672.674
-3650.068
-3642.912
-3658.804
-3691.571
-3718.92
-3713.595
-3547.571
-5864.77
-300.0021
-7497.454
-7623.542
)
;
    }
    riser
    {
        type            calculated;
        value           nonuniform List<scalar> 
200
(
2142.668
2141.867
2223.308
2368.146
2516.146
2625.483
2703.117
2735.381
2693.62
2637.25
2660.397
2740.944
2790.413
2807.16
2859.425
2966.946
3076.224
3131.474
3128.634
3102.674
3086.352
3087.112
3092.997
3091.666
3081.675
3070.045
3063.806
3066.027
3078.121
3103.037
3143.947
3199.975
3263.953
3325.001
3373.259
3403.445
3415.625
3413.97
3404.644
3393.758
3385.669
3382
3381.746
3382.508
3382.128
3379.872
3376.56
3373.812
3373.006
3374.599
3378.034
3382.185
3385.968
3388.808
3390.761
3392.322
3394.066
3396.335
3399.105
3402.043
3404.702
3406.722
3407.943
3408.423
3408.369
3408.04
3407.665
3407.402
3407.32
3407.411
3407.609
3407.819
3407.95
3407.942
3407.795
3407.571
3407.383
3407.372
3407.669
3408.364
3409.485
3410.996
3412.794
3414.729
3416.609
3418.217
3419.323
3419.699
3419.139
3417.49
3414.678
3410.736
3405.814
3400.174
3394.171
3388.221
3382.753
3378.171
3374.812
3372.922
3372.64
3373.987
3376.873
3381.109
3386.423
3392.485
3398.933
3405.405
3411.569
3417.146
3421.929
3425.793
3428.691
3430.644
3431.728
3432.047
3431.728
3430.906
3429.725
3428.338
3426.911
3425.613
3424.598
3423.977
3423.793
3424.007
3424.5
3425.113
3425.697
3426.163
3426.513
3426.833
3427.251
3427.874
3428.731
3429.754
3430.81
3431.759
3432.524
3433.121
3433.629
3434.11
3434.517
3434.644
3434.178
3432.841
3430.588
3427.76
3425.092
3423.54
3423.928
3426.55
3430.883
3435.58
3438.832
3439.059
3435.733
3429.998
3424.729
3423.812
3430.692
3446.679
3469.706
3494.259
3512.713
3517.682
3504.437
3472.511
3425.91
3372.004
3319.537
3276.299
3247.014
3232.049
3227.375
3226.406
3223.284
3216.704
3212.126
3220.486
3252.275
3308.18
3371.216
3408.423
3386.403
3293.836
3154.79
3018.84
2930.348
2899.314
2905.318
2934.576
3003.313
3109.363
3167.962
3044.651
2749.307
2518.675
2464.081
2494.306
)
;
    }
    topAndBottom
    {
        type            calculated;
        value           nonuniform List<scalar> 
120
(
2243.402
1913.866
1665.878
1514.326
1405.867
1332.046
1282.735
1248.468
1219.133
1191.092
1168.056
1153.823
1145.162
1138.617
1133.839
1130.437
1127.339
1123.8
1119.594
1115.44
1111.98
1108.967
1105.686
1101.821
1097.413
1092.589
1087.385
1081.949
1076.427
1070.821
1065.132
1059.434
1053.897
1048.781
1044.366
1040.838
1038.196
1036.224
1034.529
1032.648
1030.222
1027.145
1023.587
1019.909
1016.582
1014.106
1012.802
1012.457
1012.023
1009.691
1003.617
993.1586
979.8733
967.1868
958.1748
952.559
946.0608
935.261
936.2075
1060.788
1403.476
1718.475
1775.784
1801.328
1812.218
1791.711
1749.815
1712.135
1693.476
1693.316
1704.887
1721.402
1736.832
1745.917
1745.251
1734.285
1715.206
1691.914
1668.78
1649.581
1636.771
1631.126
1631.827
1636.937
1644.091
1651.145
1656.576
1659.6
1660.069
1658.253
1654.613
1649.648
1643.8
1637.453
1630.886
1624.139
1617.235
1610.081
1602.384
1593.741
1583.995
1573.593
1563.935
1556.085
1550.298
1546.013
1543.572
1543.143
1543.505
1542.419
1538.465
1533.002
1529.494
1529.279
1532.298
1538.436
1546.517
1555.46
1574.926
1618.548
)
;
    }
    frontAndBack
    {
        type            empty;
    }
}


// ************************************************************************* //
