/*--------------------------------*- C++ -*----------------------------------*\
| =========                 |                                                 |
| \\      /  F ield         | OpenFOAM: The Open Source CFD Toolbox           |
|  \\    /   O peration     | Version:  2312                                  |
|   \\  /    A nd           | Website:  www.openfoam.com                      |
|    \\/     M anipulation  |                                                 |
\*---------------------------------------------------------------------------*/
FoamFile
{
    version     2.0;
    format      ascii;
    arch        "LSB;label=32;scalar=64";
    class       volScalarField;
    location    "3600";
    object      T;
}
// * * * * * * * * * * * * * * * * * * * * * * * * * * * * * * * * * * * * * //

dimensions      [0 0 0 1 0 0 0];

internalField   nonuniform List<scalar> 
12000
(
447.1194
434.8321
433.4112
433.2219
433.1873
433.1696
433.1536
433.1371
433.119
433.0983
433.0751
433.0493
433.0208
432.9889
432.9534
432.9149
432.8732
432.8283
432.7797
432.728
432.6733
432.6154
432.5541
432.4896
432.4222
432.3517
432.2781
432.2015
432.1218
432.0393
431.954
431.866
431.7756
431.6813
431.5807
431.4772
431.3643
431.232
431.0774
430.9105
430.7444
430.5801
430.381
430.1373
429.8761
429.6473
429.4102
429.1
428.7129
428.306
427.9207
427.4961
426.9165
426.2255
425.4831
424.5963
423.4193
421.851
419.4598
415.4275
447.3016
435.4408
434.2541
434.3094
434.5511
434.823
435.1042
435.3846
435.6533
435.892
436.1281
436.3547
436.5662
436.7523
436.9222
437.0855
437.2387
437.3697
437.4812
437.5852
437.6843
437.7697
437.8384
437.897
437.9504
437.9957
438.0292
438.0519
438.0669
438.0752
438.0748
438.0644
438.0457
438.0195
437.9803
437.9288
437.8657
437.7902
437.7019
437.6003
437.484
437.3494
437.1939
437.017
436.813
436.5761
436.3038
435.9908
435.6348
435.2246
434.7452
434.1815
433.5268
432.7679
431.8736
430.7293
429.1996
427.0623
423.7407
417.7967
447.9196
436.2637
435.0359
435.2081
435.6424
436.1183
436.5919
437.0485
437.4817
437.8875
438.2641
438.6133
438.9358
439.2311
439.5008
439.7473
439.9718
440.1748
440.3576
440.5221
440.6699
440.8017
440.9184
441.0208
441.1103
441.1875
441.2528
441.3066
441.3494
441.3816
441.4034
441.415
441.4176
441.4067
441.3828
441.3464
441.2974
441.2351
441.1588
441.0675
440.9599
440.8343
440.6884
440.5206
440.3272
440.1032
439.8458
439.549
439.2052
438.8072
438.3525
437.8232
437.2008
436.4598
435.5483
434.3904
432.8601
430.602
426.7868
419.0072
448.8962
437.0391
435.715
435.9352
436.4848
437.0893
437.6842
438.2507
438.7822
439.2873
439.7579
440.1927
440.5934
440.9595
441.2937
441.5987
441.8769
442.1304
442.3608
442.5698
442.7586
442.9286
443.0809
443.2167
443.3369
443.4422
443.5331
443.6101
443.6736
443.7237
443.7604
443.7846
443.7956
443.7903
443.7699
443.7346
443.6842
443.618
443.5352
443.4344
443.3143
443.1732
443.009
442.8206
442.6045
442.3572
442.075
441.7537
441.3867
440.9682
440.4954
439.9513
439.2982
438.5113
437.5729
436.4117
434.8613
432.5871
428.6584
419.8727
449.9553
437.7945
436.3465
436.5661
437.1772
437.8614
438.5355
439.1766
439.7782
440.341
440.8668
441.355
441.8088
442.2257
442.6075
442.9566
443.2753
443.5659
443.8316
444.074
444.2945
444.4936
444.6726
444.8327
444.9748
445.0997
445.208
445.3001
445.3763
445.4366
445.4819
445.512
445.5257
445.5215
445.5002
445.4619
445.4069
445.3342
445.2426
445.1309
444.9975
444.8406
444.658
444.448
444.2071
443.9317
443.6181
443.2622
442.8599
442.4071
441.8855
441.2812
440.591
439.7824
438.8126
437.6189
436.0612
433.8077
429.8778
420.5256
451.0735
438.5343
436.9345
437.1103
437.7374
438.463
439.1864
439.8779
440.529
441.1369
441.7026
442.2273
442.7152
443.1672
443.5833
443.9653
444.3149
444.6342
444.9262
445.1926
445.4349
445.6538
445.8505
446.0262
446.1818
446.3182
446.4361
446.536
446.6182
446.6829
446.7308
446.7612
446.7735
446.7673
446.7431
446.7009
446.6406
446.5612
446.4617
446.3406
446.1962
446.0267
445.8296
445.6024
445.3416
445.0439
444.7051
444.3213
443.8875
443.3965
442.8387
442.2004
441.4684
440.6212
439.6215
438.4027
436.8309
434.5861
430.6873
421.0178
452.2215
439.2562
437.4899
437.5923
438.2023
438.9412
439.6909
440.413
441.0949
441.7331
442.3279
442.8811
443.3945
443.8709
444.3116
444.7174
445.09
445.4309
445.7422
446.0255
446.2822
446.5136
446.721
446.9054
447.0681
447.2099
447.3317
447.4342
447.5178
447.583
447.6298
447.6582
447.6677
447.6588
447.6316
447.586
447.5216
447.4376
447.3328
447.2058
447.0546
446.8773
446.6711
446.4332
446.16
445.8477
445.492
445.088
444.6293
444.1085
443.5176
442.8464
442.0815
441.2021
440.1739
438.9336
437.3518
435.1165
431.2484
421.371
453.3402
439.9591
438.0181
438.0294
438.5996
439.3305
440.0875
440.824
441.5238
442.1818
442.797
443.3704
443.9036
444.3979
444.8557
445.2784
445.667
446.0229
446.3474
446.6421
446.9083
447.1475
447.3609
447.5498
447.7153
447.8588
447.981
448.0829
448.1651
448.2282
448.2723
448.2977
448.3044
448.2926
448.2626
448.2143
448.1471
448.0602
447.9524
447.8222
447.6676
447.4863
447.2754
447.0318
446.7516
446.4303
446.063
445.6437
445.1657
444.6221
444.0053
443.3067
442.5144
441.6092
440.5584
439.3004
437.7095
435.4806
431.6449
421.638
454.5669
440.6568
438.5273
438.4342
438.9464
439.6514
440.4014
441.141
441.8495
442.5193
443.1481
443.7359
444.2836
444.7922
445.2629
445.6975
446.0972
446.4632
446.7965
447.0985
447.3706
447.614
447.8302
448.0205
448.1863
448.3289
448.4494
448.5489
448.6283
448.6881
448.729
448.7512
448.755
448.7407
448.7085
448.6583
448.5894
448.5011
448.3921
448.2607
448.105
447.9225
447.7101
447.4642
447.1807
446.8545
446.4798
446.05
445.5579
444.996
444.3573
443.6349
442.8192
441.8935
440.8262
439.5571
437.9624
435.742
431.9364
421.8539
455.9011
441.3545
439.0202
438.8152
439.2587
439.9263
440.6589
441.3929
442.1027
442.7781
443.4152
444.0128
444.571
445.0902
445.5711
446.0147
446.422
446.7944
447.1331
447.4392
447.7141
447.9592
448.1758
448.3655
448.5296
448.6698
448.7873
448.8833
448.959
449.0152
449.0525
449.0716
449.0726
449.0561
449.0221
448.9705
448.9007
448.8118
448.7025
448.5712
448.4158
448.2336
448.0215
447.7757
447.4915
447.1635
446.7851
446.3486
445.8457
445.2677
444.6084
443.8642
443.0295
442.0889
441.0104
439.734
438.1375
435.9255
432.1504
422.04
457.2932
442.0485
439.5019
439.1816
439.5494
440.1705
440.8766
441.5973
442.3022
442.978
443.6188
444.2222
444.7873
445.3139
445.8023
446.253
446.6666
447.0442
447.3867
447.6955
447.9718
448.2171
448.4328
448.6206
448.7821
448.9189
449.0326
449.1245
449.196
449.2481
449.2818
449.2975
449.2959
449.2773
449.2417
449.1891
449.1188
449.0298
448.921
448.7905
448.6363
448.4556
448.2453
448.0012
447.7185
447.3913
447.0122
446.5724
446.0623
445.4686
444.783
444.0138
443.1644
442.2165
441.133
439.8546
438.2602
436.058
432.311
422.2093
458.7244
442.7497
439.9755
439.5335
439.8196
440.3874
441.0612
441.7638
442.4599
443.1329
443.7748
444.3816
444.9513
445.4833
445.9778
446.4347
446.8542
447.2368
447.5832
447.8942
448.1712
448.4156
448.6292
448.8139
448.9717
449.1042
449.2133
449.3006
449.3675
449.4153
449.4451
449.4575
449.4531
449.4324
449.3954
449.3419
449.2712
449.1825
449.0744
448.9451
448.7926
448.614
448.4061
448.1647
447.8848
447.5599
447.1827
446.7403
446.2161
445.6024
444.8982
444.1112
443.2497
442.2979
441.2135
439.9354
438.3437
436.1504
432.4296
422.3642
460.1353
443.4461
440.4419
439.8825
440.0902
440.6035
441.2409
441.92
442.6013
443.2654
443.902
444.5052
445.0709
445.6016
446.1006
446.5659
446.9944
447.3849
447.738
448.0534
448.3305
448.572
448.7821
448.9633
449.117
449.245
449.3493
449.4317
449.4938
449.5371
449.5628
449.5718
449.5646
449.5417
449.5031
449.4487
449.3777
449.2893
449.182
449.0541
448.9035
448.7275
448.5226
448.2849
448.0091
447.6861
447.3033
446.8497
446.3155
445.6927
444.9789
444.1795
443.3051
442.3477
441.2648
439.9885
438.4006
436.2159
432.5184
422.5096
461.5075
444.1321
440.905
440.2351
440.3658
440.8234
441.4217
442.0741
442.7376
443.3896
444.0172
444.6117
445.1733
445.7054
446.2062
446.6727
447.1034
447.4973
447.8529
448.1698
448.4494
448.6934
448.9039
449.0824
449.2314
449.3544
449.4538
449.5312
449.5886
449.6274
449.6491
449.6546
449.6445
449.6194
449.5792
449.5238
449.4524
449.3641
449.2576
449.1311
448.9823
448.8088
448.6071
448.3728
448.0977
447.7709
447.3825
446.9224
446.3815
445.7519
445.0305
444.2225
443.3389
442.3772
441.2959
440.0216
438.4374
436.2601
432.5827
422.6392
462.8309
444.8159
441.3747
440.5938
440.6485
441.0502
441.6078
442.2313
442.8746
443.5122
444.1289
444.716
445.2738
445.8032
446.3009
446.7653
447.1948
447.5879
447.9435
448.2613
448.5415
448.7857
448.9957
449.1736
449.3214
449.4415
449.5363
449.6088
449.6615
449.696
449.7137
449.7157
449.7028
449.6754
449.6335
449.5768
449.5049
449.4165
449.3106
449.1852
449.0384
448.8676
448.668
448.4326
448.1543
447.8245
447.4332
446.9699
446.4249
445.7904
445.0639
444.2496
443.3578
442.3919
441.3122
440.0404
438.46
436.2895
432.6281
422.749
464.092
445.5052
441.85
440.9596
440.9404
441.287
441.8035
442.3969
443.0184
443.6405
444.2467
444.8261
445.3767
445.9001
446.3945
446.8562
447.2825
447.6718
448.0237
448.3385
448.6169
448.8598
449.0686
449.245
449.391
449.5088
449.6009
449.6701
449.7188
449.7492
449.7632
449.7619
449.7462
449.7165
449.6729
449.615
449.5422
449.4537
449.3481
449.2239
449.0781
448.9071
448.7061
448.4693
448.189
447.8566
447.4625
446.9969
446.4504
445.8145
445.0845
444.2642
443.3658
442.3969
441.3182
440.049
438.4722
436.3071
432.6573
422.8319
465.3001
446.1953
442.3304
441.333
441.2426
441.5359
442.0118
442.5748
443.1739
443.7799
444.3748
444.9467
445.4909
446.0076
446.4953
446.9511
447.3719
447.7559
448.1026
448.4124
448.6864
448.9257
449.1315
449.3052
449.4486
449.5636
449.6527
449.7186
449.764
449.791
449.8017
449.7975
449.7793
449.7476
449.7024
449.6432
449.5695
449.4804
449.3745
449.2497
449.1034
448.9318
448.7299
448.4915
448.2092
447.8745
447.4781
447.0102
446.4614
445.8233
445.0919
444.27
443.3687
442.3961
441.3173
440.0521
438.4795
436.3195
432.679
422.8906
466.4638
446.8812
442.8147
441.714
441.5554
441.7976
442.2342
442.7671
443.3437
443.9333
444.517
445.082
445.6197
446.1286
446.6086
447.0566
447.4697
447.8464
448.1858
448.4885
448.7558
448.9893
449.1902
449.3598
449.4994
449.6108
449.6965
449.7589
449.8009
449.8248
449.8325
449.8255
449.805
449.7715
449.7247
449.664
449.589
449.4989
449.3921
449.2667
449.1196
448.9471
448.7439
448.504
448.2199
447.8831
447.4845
447.0147
446.4641
445.8244
445.0911
444.267
443.3635
442.3895
441.3118
440.0499
438.4806
436.3248
432.6907
422.9198
467.5889
447.5589
443.3015
442.1019
441.8785
442.0723
442.4712
442.9749
443.5293
444.1023
444.6741
445.2311
445.7639
446.2663
446.7371
447.1758
447.5797
447.9468
448.2767
448.5703
448.8291
449.0548
449.2488
449.4124
449.5468
449.6536
449.7351
449.7937
449.8321
449.8527
449.8575
449.848
449.8252
449.7899
449.7416
449.6795
449.6033
449.5119
449.4041
449.2777
449.1297
448.9561
448.7518
448.5104
448.2245
447.8858
447.4852
447.0134
446.4611
445.82
445.0857
444.2607
443.3562
442.3814
441.3048
440.0462
438.4805
436.329
432.7014
422.9403
468.6765
448.229
443.7911
442.4965
442.2114
442.3594
442.7226
443.1983
443.731
444.2875
444.8466
445.3941
445.9202
446.4177
446.8813
447.3094
447.702
448.058
448.3768
448.6595
448.9077
449.1237
449.309
449.4651
449.5929
449.6941
449.7705
449.8247
449.8592
449.8764
449.8783
449.8662
449.8412
449.8039
449.7543
449.6911
449.6136
449.5211
449.4123
449.2849
449.1359
448.9613
448.7557
448.5128
448.2253
447.8847
447.4823
447.0087
446.4548
445.8125
445.0771
444.2514
443.3466
442.3722
441.2973
440.0417
438.4796
436.3327
432.7114
422.9581
469.7264
448.8923
444.2829
442.8972
442.5534
442.6582
442.9878
443.437
443.9487
444.4886
445.0345
445.5712
446.0881
446.5776
447.0343
447.4547
447.8363
448.1794
448.4855
448.7556
448.9918
449.1965
449.3715
449.5186
449.6387
449.7333
449.804
449.8532
449.8834
449.897
449.8958
449.8811
449.854
449.8149
449.7637
449.6994
449.6209
449.5274
449.4176
449.2892
449.1393
448.9636
448.7569
448.5126
448.2235
447.8812
447.477
447.0017
446.4463
445.8029
445.0669
444.241
443.3364
442.3626
441.2895
440.037
438.4785
436.3362
432.7219
422.9804
470.7382
449.5473
444.7761
443.303
442.9034
442.9677
443.2659
443.6902
444.1819
444.7055
445.2378
445.7627
446.2688
446.7479
447.1944
447.6044
447.9758
448.3081
448.6017
448.8582
449.0809
449.2728
449.4363
449.5731
449.6844
449.7716
449.836
449.8798
449.9055
449.9152
449.9108
449.8935
449.8642
449.8232
449.7706
449.7051
449.6256
449.5312
449.4206
449.2914
449.1406
448.964
448.7561
448.5106
448.22
447.8762
447.4703
446.9935
446.4368
445.7924
445.0559
444.2299
443.3259
442.3533
441.2824
440.0329
438.478
436.3406
432.7338
423.0081
471.7084
450.1947
445.2706
443.7135
443.2606
443.2868
443.5558
443.9568
444.4295
444.9372
445.4557
445.968
446.4621
446.9292
447.3634
447.7608
448.1195
448.4388
448.7197
448.9639
449.1736
449.352
449.5026
449.6281
449.7299
449.809
449.8667
449.9048
449.9257
449.9315
449.9239
449.9039
449.8724
449.8296
449.7755
449.7088
449.6283
449.5331
449.4216
449.2917
449.1402
448.9628
448.754
448.5074
448.2155
447.8702
447.4629
446.9847
446.4268
445.7816
445.0446
444.2189
443.3157
442.3446
441.2758
440.0292
438.4779
436.3453
432.7465
423.0397
472.6352
450.837
445.7658
444.1276
443.624
443.6146
443.8564
444.2357
444.6904
445.1826
445.687
446.186
446.6669
447.1204
447.5406
447.9236
448.2675
448.5722
448.8388
449.0691
449.2658
449.4317
449.5696
449.6832
449.7748
449.8454
449.8961
449.9284
449.9445
449.9463
449.9354
449.9128
449.8791
449.8344
449.7787
449.7108
449.6294
449.5333
449.4211
449.2906
449.1384
448.9603
448.7507
448.5032
448.2102
447.8638
447.4552
446.9758
446.4169
445.7709
445.0337
444.2083
443.3062
442.3368
441.2703
440.0266
438.4789
436.3513
432.7607
423.0743
473.5107
451.4805
446.2629
444.5454
443.993
443.95
444.1665
444.5255
444.963
445.4398
445.9299
446.4147
446.881
447.3195
447.724
448.0908
448.4184
448.707
448.9579
449.1733
449.3561
449.5091
449.6352
449.7373
449.8185
449.8804
449.9239
449.9504
449.9617
449.9596
449.9456
449.9205
449.8846
449.8381
449.7807
449.7117
449.6293
449.5324
449.4194
449.2882
449.1354
448.9567
448.7465
448.4982
448.2043
447.8568
447.4472
446.9668
446.4071
445.7606
445.0234
444.1986
443.2976
442.3301
441.2659
440.0249
438.4807
436.358
432.7759
423.1112
474.3409
452.1221
446.7609
444.966
444.3668
444.292
444.4848
444.8247
445.2456
445.707
446.1821
446.6516
447.1021
447.524
447.9112
448.2602
448.57
448.8412
449.0754
449.2752
449.4436
449.5835
449.6978
449.7891
449.8603
449.9136
449.9501
449.9708
449.9775
449.9717
449.9547
449.9272
449.8893
449.8411
449.7822
449.7117
449.6284
449.5306
449.4169
449.285
449.1316
448.9523
448.7415
448.4925
448.1979
447.8496
447.4392
446.9581
446.3978
445.751
445.0139
444.1899
443.2903
442.3247
441.2628
440.0244
438.4836
436.3661
432.7929
423.1516
475.127
452.7601
447.2599
445.3892
444.7446
444.6395
444.8099
445.1315
445.5361
445.9819
446.4412
446.8943
447.3275
447.7312
448.0995
448.4294
448.7203
448.9731
449.19
449.3737
449.5274
449.6541
449.7567
449.8377
449.8997
449.9447
449.9744
449.9897
449.992
449.9827
449.9628
449.933
449.8933
449.8435
449.7831
449.7114
449.6269
449.5283
449.4138
449.2812
449.1273
448.9474
448.736
448.4865
448.1913
447.8423
447.4312
446.9496
446.3889
445.7421
445.0054
444.1822
443.2842
442.3207
441.261
440.0251
438.4876
436.375
432.8111
423.1966
475.8762
453.3983
447.7541
445.8111
445.1247
444.9912
445.1403
445.4442
445.8325
446.2622
446.7047
447.1401
447.5544
447.9384
448.2865
448.5962
448.8673
449.1011
449.3003
449.4678
449.6069
449.7206
449.8118
449.8829
449.9361
449.9736
449.9968
450.007
450.0051
449.9925
449.9701
449.9382
449.8968
449.8455
449.7837
449.7108
449.6253
449.5258
449.4105
449.2773
449.1228
448.9424
448.7305
448.4804
448.1846
447.835
447.4235
446.9414
446.3806
445.7339
444.9978
444.1757
443.2794
442.318
441.2606
440.0269
438.4926
436.3849
432.8307
423.2478
476.5868
454.0283
448.2473
446.2316
445.5063
445.3458
445.4745
445.761
446.1328
446.5456
446.9701
447.3862
447.7802
448.1432
448.4699
448.7585
449.0092
449.2238
449.4053
449.5567
449.6815
449.7826
449.8628
449.9244
449.9695
450
450.0174
450.0227
450.0171
450.0015
449.9767
449.9429
449.8999
449.8472
449.7843
449.7102
449.6237
449.5233
449.4074
449.2736
449.1184
448.9375
448.7251
448.4745
448.1781
447.8281
447.4161
446.9338
446.3729
445.7266
444.9911
444.1703
443.2756
442.3164
441.2611
440.0297
438.4983
436.3953
432.8509
423.3047
477.2615
454.6479
448.7394
446.6519
445.8886
445.7022
445.8111
446.0801
446.4347
446.8296
447.2348
447.6303
448.0025
448.3431
448.6476
448.9145
449.1446
449.3401
449.5041
449.64
449.751
449.8401
449.9099
449.9626
450.0001
450.0242
450.0362
450.0372
450.0281
450.0098
449.9828
449.9472
449.9027
449.8488
449.7847
449.7096
449.6221
449.521
449.4044
449.2701
449.1145
448.9331
448.7202
448.4691
448.1722
447.8217
447.4093
446.9269
446.3661
445.7201
444.9855
444.1658
443.273
442.3159
441.2626
440.0332
438.5047
436.406
432.8711
423.366
477.8998
455.2533
449.2272
447.0721
446.2713
446.0595
446.1485
446.3996
446.7363
447.112
447.4965
447.8698
448.219
448.5362
448.8178
449.0628
449.2725
449.4493
449.5965
449.7174
449.8153
449.8931
449.9531
449.9975
450.0281
450.0463
450.0534
450.0504
450.0381
450.0173
449.9884
449.9512
449.9053
449.8502
449.7851
449.709
449.6208
449.5189
449.4018
449.267
449.1109
448.9292
448.7159
448.4644
448.1671
447.8162
447.4035
446.9208
446.3602
445.7147
444.9811
444.1627
443.2715
442.3162
441.2649
440.0374
438.5114
436.4167
432.8905
423.4277
478.5043
455.8432
449.708
447.491
446.6534
446.4166
446.4855
446.718
447.0355
447.3906
447.7529
448.1028
448.4278
448.7211
448.9795
449.2028
449.3924
449.5512
449.6823
449.7891
449.8747
449.9419
449.9929
450.0296
450.0537
450.0665
450.0691
450.0625
450.0474
450.0244
449.9936
449.9549
449.9078
449.8516
449.7855
449.7086
449.6195
449.5171
449.3995
449.2643
449.108
448.926
448.7125
448.4606
448.1629
447.8116
447.3986
446.916
446.3556
445.7107
444.9778
444.1606
443.2708
442.3175
441.2679
440.0422
438.5185
436.4271
432.9084
423.4856
479.0733
456.4162
450.1836
447.9051
447.0342
446.7726
446.8209
447.0337
447.3307
447.6637
448.0024
448.3276
448.6278
448.8967
449.132
449.3338
449.5042
449.6457
449.7617
449.8553
449.9295
449.9868
450.0294
450.059
450.0772
450.085
450.0836
450.0738
450.0561
450.031
449.9985
449.9584
449.9102
449.853
449.786
449.7083
449.6186
449.5156
449.3976
449.2621
449.1056
448.9234
448.7097
448.4575
448.1596
447.8081
447.395
446.9125
446.3524
445.7079
444.9757
444.1596
443.2713
442.3196
441.2717
440.0476
438.5258
436.4373
432.9246
423.5352
479.6146
456.9745
450.6523
448.3143
447.4119
447.1267
447.1535
447.3453
447.6203
447.9296
448.2433
448.5429
448.8176
449.0622
449.2747
449.4559
449.6078
449.7331
449.8349
449.9163
449.9799
450.0282
450.0631
450.0862
450.0988
450.1022
450.0971
450.0843
450.0642
450.0372
450.0032
449.9618
449.9125
449.8544
449.7866
449.7082
449.6179
449.5145
449.3961
449.2604
449.1038
448.9215
448.7076
448.4553
448.1572
447.8056
447.3926
446.9102
446.3505
445.7067
444.9753
444.1601
443.273
442.323
441.2766
440.0538
438.5338
436.4476
432.9393
423.5748
480.1242
457.5119
451.1112
448.7171
447.7851
447.4776
447.4828
447.6522
447.9034
448.1874
448.4749
448.7481
448.9972
449.2176
449.408
449.5693
449.7037
449.8138
449.9025
449.9726
450.0265
450.0664
450.0942
450.1113
450.1189
450.1181
450.1096
450.0941
450.0719
450.0432
450.0077
449.9651
449.9147
449.8558
449.7874
449.7083
449.6175
449.5136
449.3951
449.2592
449.1025
448.9202
448.7062
448.4539
448.1557
447.8041
447.3912
446.9091
446.3499
445.7068
444.9762
444.1621
443.2763
442.3275
441.2824
440.0608
438.5423
436.4581
432.9529
423.6034
480.6133
458.0342
451.5626
449.1139
448.1531
447.8231
447.8058
447.9514
448.1773
448.4349
448.6955
448.9421
449.1659
449.3628
449.5319
449.6744
449.7923
449.8883
449.9648
450.0245
450.0695
450.1018
450.123
450.1346
450.1375
450.1329
450.1213
450.1033
450.0792
450.0488
450.012
449.9683
449.917
449.8573
449.7883
449.7087
449.6174
449.5132
449.3944
449.2585
449.1018
448.9195
448.7055
448.4532
448.1551
447.8036
447.3909
446.9093
446.3507
445.7083
444.9786
444.1654
443.2806
442.3332
441.2894
440.069
438.5518
436.4693
432.9662
423.624
481.0826
458.5402
452.0051
449.5036
448.5144
448.1617
448.121
448.2419
448.4414
448.6718
448.9049
449.1251
449.324
449.4981
449.647
449.7717
449.8744
449.9572
450.0225
450.0726
450.1095
450.1347
450.1499
450.1563
450.155
450.1468
450.1324
450.1121
450.086
450.0542
450.0161
449.9714
449.9193
449.8589
449.7893
449.7092
449.6176
449.513
449.3941
449.2582
449.1016
448.9194
448.7055
448.4533
448.1553
447.804
447.3917
446.9106
446.3527
445.7111
444.9823
444.17
443.2863
442.34
441.2973
440.0779
438.5621
436.4812
432.9797
423.639
481.5341
459.0297
452.4375
449.8851
448.8678
448.4921
448.4273
448.5222
448.6945
448.8971
449.1029
449.297
449.4718
449.6242
449.754
449.8621
449.9505
450.0211
450.0761
450.1174
450.1466
450.1654
450.1751
450.1767
450.1714
450.1599
450.1428
450.1204
450.0926
450.0593
450.0201
449.9744
449.9215
449.8605
449.7904
449.71
449.618
449.5133
449.3942
449.2584
449.1019
448.9198
448.7062
448.4541
448.1563
447.8053
447.3935
446.913
446.3559
445.7152
444.9872
444.1758
443.2931
442.3479
441.3062
440.0878
438.5733
436.4938
432.994
423.6529
481.969
459.5033
452.8593
450.2577
449.2123
448.813
448.723
448.7913
448.9357
449.1104
449.2892
449.458
449.6098
449.7418
449.8536
449.9462
450.0213
450.0806
450.126
450.1591
450.1813
450.1941
450.1986
450.1959
450.1869
450.1724
450.1528
450.1283
450.0989
450.0642
450.0239
449.9774
449.9238
449.8622
449.7916
449.7109
449.6187
449.5138
449.3947
449.259
449.1027
448.9209
448.7074
448.4556
448.1581
447.8075
447.3962
446.9165
446.3602
445.7204
444.9933
444.1828
443.3009
442.3567
441.3159
440.0985
438.5851
436.5071
433.009
423.668
482.3882
459.9612
453.2698
450.6205
449.5469
449.1234
449.0075
449.0484
449.1648
449.3119
449.4644
449.6089
449.7388
449.8514
449.9464
450.0246
450.0873
450.1361
450.1726
450.198
450.2137
450.2209
450.2206
450.2139
450.2015
450.1842
450.1623
450.1359
450.1049
450.069
450.0277
449.9803
449.926
449.8639
449.793
449.7119
449.6196
449.5146
449.3956
449.2601
449.104
448.9225
448.7093
448.4577
448.1606
447.8105
447.3999
446.9209
446.3656
445.7267
445.0005
444.1908
443.3097
442.3663
441.3265
440.11
438.5977
436.5213
433.0253
423.6859
482.7921
460.4039
453.6688
450.9727
449.8707
449.4225
449.2801
449.2933
449.3819
449.5019
449.629
449.7503
449.8596
449.9541
450.0334
450.0981
450.1493
450.1882
450.2162
450.2345
450.2441
450.2461
450.2413
450.2308
450.2153
450.1954
450.1713
450.1431
450.1107
450.0735
450.0312
449.983
449.9282
449.8656
449.7944
449.7131
449.6207
449.5157
449.3968
449.2615
449.1058
448.9246
448.7117
448.4605
448.1638
447.8143
447.4044
446.9263
446.372
445.734
445.0087
444.1997
443.3193
442.3767
441.3377
440.1221
438.611
436.5362
433.0425
423.7059
483.1815
460.8317
454.0558
451.314
450.1831
449.7098
449.5407
449.5263
449.5874
449.6811
449.7839
449.8832
449.973
450.0505
450.1151
450.1672
450.2075
450.2372
450.2573
450.2688
450.2726
450.2696
450.2607
450.2467
450.2283
450.206
450.1799
450.15
450.1162
450.0779
450.0346
449.9857
449.9303
449.8674
449.7958
449.7145
449.622
449.5171
449.3984
449.2634
449.108
448.9271
448.7147
448.4639
448.1677
447.8189
447.4098
446.9326
446.3792
445.7422
445.0178
444.2094
443.3297
442.3878
441.3495
440.1347
438.6247
436.5514
433.0599
423.7271
483.5574
461.2451
454.4313
451.6456
450.4832
449.9845
449.7892
449.7476
449.782
449.8503
449.9299
450.0084
450.0799
450.1414
450.1922
450.2324
450.2625
450.2834
450.2959
450.301
450.2993
450.2917
450.2788
450.2616
450.2406
450.2161
450.1881
450.1566
450.1214
450.082
450.0379
449.9883
449.9324
449.8691
449.7974
449.7159
449.6235
449.5187
449.4003
449.2656
449.1106
448.9302
448.7182
448.4679
448.1723
447.8241
447.4159
446.9397
446.3874
445.7513
445.0276
444.2199
443.3407
442.3994
441.3618
440.1477
438.6388
436.567
433.0777
423.7489
483.9212
461.6445
454.7953
451.9666
450.7711
450.2469
450.0259
449.9577
449.9662
450.0104
450.0679
450.1268
450.1809
450.2274
450.2652
450.2941
450.3145
450.327
450.3324
450.3313
450.3243
450.3122
450.2958
450.2756
450.2522
450.2256
450.1959
450.1629
450.1264
450.086
450.0411
449.9909
449.9345
449.8709
449.799
449.7175
449.6252
449.5206
449.4024
449.2681
449.1136
448.9336
448.7221
448.4724
448.1774
447.8301
447.4228
446.9476
446.3963
445.7612
445.0383
444.2311
443.3523
442.4115
441.3745
440.1611
438.6533
436.5829
433.0957
423.7708
484.2739
462.0302
455.1479
452.2771
451.0473
450.4973
450.2512
450.1573
450.1409
450.162
450.1986
450.2389
450.2768
450.3091
450.3345
450.3527
450.3639
450.3684
450.3668
450.3597
450.3477
450.3314
450.3115
450.2887
450.263
450.2346
450.2032
450.1688
450.1312
450.0898
450.0441
449.9933
449.9365
449.8727
449.8007
449.7193
449.6271
449.5227
449.4049
449.271
449.1169
448.9375
448.7265
448.4774
448.1831
447.8366
447.4303
446.9562
446.4059
445.7717
445.0495
444.2428
443.3644
442.424
441.3875
440.1748
438.668
436.5991
433.1139
423.7925
484.6162
462.4027
455.4893
452.5769
451.312
450.7363
450.4658
450.3471
450.307
450.3061
450.3229
450.3457
450.3681
450.3869
450.4005
450.4085
450.4107
450.4075
450.3992
450.3863
450.3694
450.3491
450.3261
450.3008
450.2732
450.243
450.2101
450.1744
450.1357
450.0934
450.047
449.9957
449.9386
449.8746
449.8025
449.7211
449.6291
449.5251
449.4076
449.2742
449.1206
448.9417
448.7312
448.4828
448.1893
447.8437
447.4384
446.9654
446.4161
445.7829
445.0613
444.2551
443.3769
442.4368
441.4008
440.1889
438.6831
436.6155
433.1325
423.8146
484.9486
462.7625
455.8198
452.8664
451.5659
450.9647
450.6704
450.5279
450.4651
450.4433
450.4414
450.4474
450.4552
450.4611
450.4635
450.4616
450.4552
450.4445
450.4296
450.4111
450.3895
450.3656
450.3398
450.3122
450.2826
450.2508
450.2165
450.1797
450.1399
450.0968
450.0498
449.998
449.9406
449.8764
449.8044
449.7231
449.6313
449.5276
449.4106
449.2777
449.1246
448.9462
448.7364
448.4886
448.1959
447.8513
447.447
446.9751
446.4269
445.7946
445.0736
444.2677
443.3898
442.45
441.4144
440.2031
438.6983
436.6323
433.1514
423.8372
485.2708
463.1102
456.1397
453.1461
451.8097
451.1832
450.8659
450.7005
450.6161
450.5745
450.5546
450.5448
450.5385
450.5321
450.5236
450.5122
450.4975
450.4793
450.458
450.4341
450.4082
450.3809
450.3524
450.3227
450.2913
450.258
450.2225
450.1846
450.1439
450.1001
450.0525
450.0003
449.9426
449.8784
449.8063
449.7252
449.6337
449.5304
449.4138
449.2814
449.1288
448.951
448.7419
448.4948
448.203
447.8593
447.4562
446.9854
446.4382
445.8067
445.0864
444.2808
443.403
442.4634
441.4282
440.2176
438.7137
436.6491
433.1706
423.8602
485.5825
463.4462
456.4496
453.4163
452.0441
451.3924
451.053
450.8657
450.7606
450.7
450.6631
450.6381
450.6184
450.6
450.581
450.5603
450.5373
450.5119
450.4844
450.4554
450.4255
450.3951
450.3642
450.3324
450.2994
450.2646
450.228
450.1891
450.1477
450.1033
450.0551
450.0026
449.9447
449.8804
449.8084
449.7275
449.6363
449.5333
449.4172
449.2853
449.1333
448.9561
448.7477
448.5014
448.2105
447.8678
447.4658
446.9961
446.45
445.8193
445.0995
444.2942
443.4164
442.477
441.4422
440.2321
438.7292
436.666
433.1901
423.8843
485.8834
463.7712
456.7499
453.6786
452.2714
451.593
451.2318
451.0239
450.8991
450.8205
450.7673
450.7277
450.6949
450.6651
450.6359
450.606
450.5747
450.5422
450.5088
450.4751
450.4416
450.4082
450.375
450.3414
450.3068
450.2707
450.233
450.1933
450.1512
450.1062
450.0577
450.0049
449.9468
449.8824
449.8105
449.7299
449.6389
449.5364
449.4208
449.2894
449.1381
448.9615
448.7538
448.5083
448.2184
447.8767
447.4758
447.0073
446.4622
445.8323
445.113
444.3078
443.4301
442.4908
441.4563
440.2468
438.7448
436.6833
433.21
423.9092
486.173
464.0857
457.0414
453.9336
452.4918
451.786
451.4033
451.1758
451.0323
450.9364
450.8675
450.8138
450.7684
450.7273
450.688
450.6489
450.6096
450.5703
450.5315
450.4934
450.4564
450.4204
450.3851
450.3497
450.3135
450.2763
450.2376
450.1972
450.1545
450.1091
450.0602
450.0071
449.9489
449.8846
449.8128
449.7323
449.6418
449.5397
449.4246
449.2938
449.143
448.9671
448.7601
448.5156
448.2266
447.886
447.4863
447.0188
446.4747
445.8456
445.1267
444.3217
443.444
442.5047
441.4705
440.2616
438.7607
436.7009
433.2302
423.9344
486.451
464.3902
457.325
454.1823
452.7061
451.9723
451.5685
451.3221
451.1606
451.048
450.964
450.8966
450.839
450.7867
450.7371
450.689
450.642
450.5964
450.5525
450.5104
450.4702
450.4317
450.3944
450.3572
450.3197
450.2813
450.2418
450.2007
450.1575
450.1117
450.0626
450.0094
449.9511
449.8868
449.8152
449.735
449.6448
449.5431
449.4285
449.2983
449.1482
448.973
448.7668
448.5231
448.2351
447.8957
447.4971
447.0308
446.4876
445.8592
445.1407
444.3358
443.458
442.5188
441.4849
440.2767
438.7769
436.7187
433.2506
423.9597
486.7178
464.6855
457.6015
454.4252
452.9148
452.1529
451.7281
451.4634
451.2844
451.1558
451.057
450.9764
450.9066
450.843
450.7833
450.7265
450.6722
450.6207
450.572
450.5261
450.483
450.4422
450.4029
450.3641
450.3252
450.2858
450.2455
450.2039
450.1603
450.1142
450.0649
450.0116
449.9534
449.8891
449.8177
449.7378
449.6479
449.5467
449.4327
449.3031
449.1536
448.9791
448.7737
448.5309
448.244
447.9057
447.5082
447.043
446.5008
445.8731
445.1549
444.3501
443.4722
442.5331
441.4994
440.2919
438.7932
436.7368
433.2712
423.9844
486.9737
464.9721
457.8715
454.6631
453.1187
452.3286
451.8829
451.6002
451.4043
451.2599
451.1468
451.053
450.9709
450.8961
450.8266
450.7614
450.7003
450.6432
450.59
450.5407
450.4948
450.4518
450.4106
450.3704
450.3303
450.2899
450.2489
450.2067
450.1629
450.1166
450.0672
450.0139
449.9557
449.8916
449.8203
449.7407
449.6512
449.5505
449.437
449.308
449.1592
448.9854
448.7808
448.539
448.2532
447.916
447.5197
447.0556
446.5143
445.8872
445.1694
444.3645
443.4866
442.5474
441.5141
440.3073
438.8097
436.7549
433.2917
424.0083
487.2195
465.2507
458.1356
454.8967
453.3189
452.5009
452.0332
451.7325
451.5204
451.3607
451.2335
451.1263
451.0317
450.946
450.8671
450.794
450.7264
450.6641
450.6068
450.5542
450.5058
450.4606
450.4177
450.376
450.3348
450.2935
450.2519
450.2093
450.1652
450.1188