/*--------------------------------*- C++ -*----------------------------------*\
| =========                 |                                                 |
| \\      /  F ield         | OpenFOAM: The Open Source CFD Toolbox           |
|  \\    /   O peration     | Version:  2312                                  |
|   \\  /    A nd           | Website:  www.openfoam.com                      |
|    \\/     M anipulation  |                                                 |
\*---------------------------------------------------------------------------*/
FoamFile
{
    version     2.0;
    format      ascii;
    arch        "LSB;label=32;scalar=64";
    class       volScalarField;
    location    "5700";
    object      alphat;
}
// * * * * * * * * * * * * * * * * * * * * * * * * * * * * * * * * * * * * * //

dimensions      [1 -1 -1 0 0 0 0];

internalField   nonuniform List<scalar> 
12000
(
2.40131e-05
0.0001425715
0.000165562
0.0001811354
0.0001764683
0.0001607324
0.0001604982
0.0001942721
0.0002182605
0.0001756994
0.0001446567
0.0001636029
0.0002196496
0.0001947583
0.0001464219
0.0001472358
0.000194384
0.0001988003
0.0001508429
0.0001423344
0.0001770091
0.0001901973
0.0001527037
0.0001422372
0.0001661862
0.0001773555
0.0001540116
0.0001463847
0.0001586786
0.0001637065
0.0001560979
0.000151984
0.0001494951
0.0001483629
0.0001552571
0.0001656484
0.0001581887
0.0001392652
0.0001317543
0.0001482344
0.0001853946
0.0001737622
0.0001256759
0.0001094123
0.0001367105
0.0002262083
0.0001800413
0.0001029889
0.0001002343
0.0001589501
0.0002256026
0.0001127523
9.028382e-05
0.0001187991
0.0001432835
0.0001053941
7.77067e-05
6.885656e-05
6.313323e-05
5.075497e-05
1.477364e-05
0.000171566
0.0001937538
0.0002373598
0.0002661324
0.0003040869
0.0003505711
0.0003970647
0.0004399692
0.000498233
0.0005732889
0.0006433814
0.0006833158
0.0007385867
0.0008315612
0.0009212347
0.0009628986
0.00100634
0.00110367
0.001206824
0.00125024
0.001282886
0.001376357
0.001480736
0.001521804
0.001546163
0.001622359
0.001706563
0.001740974
0.001764108
0.001805898
0.001853255
0.001883345
0.001902941
0.001905219
0.001897151
0.001900957
0.00190773
0.001905684
0.001864013
0.00180154
0.001669796
0.001497366
0.001706229
0.001610603
0.001485217
0.00111671
0.00107292
0.00125535
0.001109683
0.0009842892
0.0007823856
0.000771792
0.0006406789
0.0005336507
0.0004142052
0.0002840816
0.0001713134
8.744207e-05
4.783846e-05
2.155914e-05
0.000216086
0.0003048731
0.000372173
0.0004578631
0.0005595129
0.0006752393
0.0007985915
0.0009248013
0.00106122
0.001203157
0.001340283
0.001469828
0.001601896
0.001738513
0.001868392
0.001984762
0.00209905
0.002214635
0.00232207
0.00241569
0.002505299
0.002594463
0.002675332
0.002744054
0.00280807
0.00286995
0.002924429
0.002969583
0.003009991
0.003045344
0.00307498
0.003099254
0.003117434
0.003128942
0.003133827
0.003132869
0.003125396
0.00311089
0.003088814
0.003059396
0.003021537
0.002973397
0.002913383
0.002849165
0.002774231
0.002604452
0.00250645
0.002378411
0.002195173
0.002058332
0.001766146
0.001571523
0.001277167
0.001100522
0.001027963
0.0007148756
0.0003997757
0.0001456108
4.716554e-05
2.582374e-05
0.0002400619
0.0003826342
0.0004957822
0.0006417331
0.000808531
0.0009899529
0.001180527
0.001376427
0.001574812
0.001776879
0.001974724
0.002144542
0.002337819
0.002502764
0.002657909
0.002802036
0.002936278
0.003060675
0.003175388
0.00328087
0.003378289
0.00346797
0.003549872
0.003624447
0.003692417
0.003753895
0.003807257
0.003857281
0.003899685
0.003935299
0.003964035
0.00398683
0.004003012
0.004011996
0.004012888
0.004005362
0.003989006
0.003963288
0.003927559
0.003881014
0.003822689
0.00375153
0.003665474
0.003565564
0.003450494
0.00331851
0.003167109
0.002995587
0.002803944
0.002315919
0.001951127
0.001831344
0.001655437
0.001531103
0.00120984
0.0008701857
0.0005240375
0.0002121972
4.817565e-05
2.624279e-05
0.0002705477
0.0004675114
0.0006305164
0.0008302904
0.001051395
0.001286186
0.001528684
0.001773577
0.002013748
0.002246702
0.002472848
0.002688729
0.00289019
0.003074855
0.003244143
0.003400285
0.003544968
0.003678103
0.003800717
0.003913906
0.004018385
0.004114701
0.00420341
0.004284982
0.004359707
0.004426509
0.004488006
0.004543018
0.004590815
0.004630943
0.004663921
0.004690005
0.004708544
0.004718855
0.004720821
0.004713856
0.004697429
0.004670995
0.004633996
0.004585807
0.004525701
0.004452931
0.004366413
0.004263318
0.00414717
0.004012856
0.00385945
0.003686408
0.003096084
0.002832671
0.00279006
0.002623949
0.002327758
0.001991275
0.001584181
0.001138773
0.0006766092
0.0002634164
4.820998e-05
2.704393e-05
0.0002854301
0.0005427721
0.0007502139
0.0009906997
0.001252671
0.001527433
0.001807318
0.00208504
0.002354057
0.002609852
0.002851596
0.003078591
0.003291455
0.003490218
0.003673414
0.003841291
0.003996413
0.004140076
0.004273258
0.004396852
0.004511559
0.004617905
0.004716272
0.004806901
0.004889901
0.004963945
0.005033049
0.005093844
0.005146554
0.005191038
0.005227373
0.005255311
0.005274363
0.005283793
0.005283494
0.005272827
0.005251266
0.005218143
0.00517276
0.005114365
0.005042107
0.004955028
0.004852071
0.004732117
0.004592938
0.004434566
0.004255733
0.004052806
0.003820966
0.003555671
0.003257046
0.00292648
0.002562412
0.002162083
0.001724701
0.001254851
0.0007668916
0.0003128052
4.850015e-05
2.785833e-05
0.0002993622
0.0006078232
0.0008550648
0.001126424
0.001416984
0.001717128
0.002018269
0.002313381
0.002597728
0.002868656
0.003124944
0.003366308
0.003592961
0.003803996
0.004000662
0.004182976
0.004351651
0.004507989
0.004653212
0.004788307
0.004914043
0.005031019
0.005139508
0.005239554
0.005328727
0.005413401
0.005489413
0.005556534
0.005614645
0.005663536
0.005702849
0.005732713
0.005752497
0.005761731
0.005760104
0.005746964
0.005721857
0.00568431
0.005633778
0.005569631
0.005491129
0.005397394
0.005287425
0.005159898
0.005012113
0.004846684
0.004657731
0.004441642
0.004195925
0.003918815
0.003607637
0.003258586
0.002867625
0.002431456
0.001948623
0.001422122
0.0008689824
0.0003531081
4.871585e-05
2.889445e-05
0.0003088331
0.0006596035
0.0009414869
0.001233976
0.001540825
0.001854399
0.002168698
0.002478359
0.002778296
0.003063258
0.003332244
0.003584635
0.003819984
0.004040924
0.004248712
0.004444565
0.00462827
0.004799997
0.004960491
0.00511021
0.005249335
0.005377868
0.005497838
0.005609234
0.005711066
0.005805097
0.005889248
0.005963365
0.006027222
0.006080542
0.006123069
0.006155007
0.006175602
0.00618432
0.00618073
0.00616439
0.006134878
0.006091747
0.006034487
0.005962482
0.005874964
0.005770953
0.005649337
0.005509275
0.005347835
0.005165648
0.004957918
0.004722307
0.004456467
0.004157696
0.003822737
0.003448346
0.003031524
0.00256989
0.002062633
0.001512938
0.000935493
0.0003888798
4.880255e-05
3.04665e-05
0.0003179722
0.0006972081
0.001008518
0.001316941
0.001635882
0.001961947
0.002286298
0.002602881
0.002907998
0.003200775
0.00347928
0.003742853
0.003991635
0.004226412
0.00444791
0.004657474
0.004856081
0.005043154
0.005217659
0.005382025
0.005536699
0.005682252
0.005817242
0.005939495
0.006054237
0.006158092
0.006250858
0.006332289
0.006402099
0.006459977
0.006505742
0.006539477
0.00656048
0.006568196
0.006562147
0.006541917
0.006507151
0.00645751
0.006392656
0.006312242
0.00621592
0.006101914
0.005969608
0.005818498
0.005645781
0.00545132
0.005231826
0.004984439
0.004706525
0.004395611
0.004047248
0.003657464
0.003222296
0.002738089
0.002202871
0.001619302
0.001003471
0.0004190736
4.897099e-05
2.95923e-05
0.0003340796
0.0007268744
0.001061557
0.001383102
0.001710023
0.002039392
0.002367151
0.002688499
0.003000244
0.003300579
0.003588338
0.003863066
0.004124833
0.004374025
0.004611002
0.004834802
0.005046743
0.005249008
0.005442232
0.005624362
0.005795486
0.00595554
0.006104251
0.00624034
0.006366134
0.006479853
0.006581181
0.006669798
0.006745374
0.006807574
0.006856225
0.0068913
0.006912234
0.006918628
0.006909643
0.006884644
0.006843429
0.006785706
0.00671111
0.006619193
0.006509409
0.006382606
0.006238055
0.006073882
0.005888057
0.005679787
0.005446769
0.005187123
0.004897367
0.004572184
0.004206892
0.003798928
0.003344937
0.002841416
0.002287012
0.001684762
0.001049869
0.000443699
4.894549e-05
2.92431e-05
0.0003332594
0.0007400377
0.001096674
0.001430898
0.001761889
0.002093605
0.002423382
0.002747857
0.003064472
0.003371563
0.003668107
0.003953583
0.004227801
0.00449072
0.004741272
0.0049819
0.005212257
0.005431733
0.005640648
0.00583853
0.006024896
0.006199297
0.006361332
0.006510436
0.006646947
0.006770131
0.006879595
0.00697495
0.007055809
0.007121774
0.007172586
0.007208003
0.007227389
0.007230232
0.007216659
0.007186682
0.007139848
0.00707577
0.006994083
0.006894407
0.006776315
0.006639261
0.006482535
0.006305081
0.006106387
0.005884971
0.005638751
0.005365043
0.005060626
0.004722429
0.004347718
0.003929702
0.003463383
0.002945137
0.002373343
0.001750747
0.001093181
0.0004644522
4.901523e-05
3.326714e-05
0.0003137488
0.0007397725
0.001119597
0.00146608
0.001802053
0.002135005
0.002465311
0.002791352
0.00311138
0.003424018
0.003728271
0.004023502
0.00430931
0.004584964
0.004851643
0.005108185
0.005354203
0.005589182
0.005812803
0.006024803
0.006224731
0.006412025
0.006585241
0.006745898
0.006892537
0.007024703
0.007141931
0.00724376
0.007329737
0.007399411
0.007452424
0.00748847
0.007507202
0.007508299
0.007491437
0.007456304
0.007402638
0.00733019
0.007238734
0.007128054
0.006997927
0.006848096
0.006678254
0.006487247
0.006275892
0.006042434
0.005785251
0.005501802
0.005188524
0.004840976
0.004454236
0.004024029
0.003545188
0.003013729
0.002428812
0.001793229
0.001122658
0.000480049
4.893616e-05
3.254719e-05
0.000315249
0.0007374908
0.001130877
0.001486847
0.001826642
0.002160777
0.002491931
0.002819667
0.003142796
0.003460219
0.003771152
0.004074978
0.0043711
0.004659166
0.004937979
0.005206564
0.005464449
0.005711653
0.005947855
0.006172656
0.006385684
0.006586671
0.006773946
0.006946586
0.007103611
0.007244445
0.007368568
0.007475641
0.007565352
0.007637377
0.007691472
0.007727379
0.007744641
0.007742898
0.007721828
0.007681157
0.007620657
0.007540144
0.007439476
0.007318552
0.007177304
0.007015692
0.006833601
0.006630411
0.006406668
0.006161759
0.005894685
0.005602999
0.005282712
0.00492885
0.00453599
0.004098645
0.003612226
0.003073119
0.002478419
0.001831211
0.001147758
0.0004924835
4.894813e-05
3.276214e-05
0.0003082743
0.0007278613
0.001131451
0.001496035
0.001840027
0.002175133
0.002506129
0.002834229
0.003159237
0.003480427
0.003796873
0.0041074
0.004409773
0.004702426
0.004902566
0.005021169
0.005174884
0.005375608
0.005636476
0.005921309
0.006203587
0.006425069
0.006628454
0.006843457
0.007108884
0.007381977
0.00754943
0.007660983
0.007754402
0.007829081
0.007884526
0.007920352
0.007936207
0.007931782
0.007906806
0.007861063
0.007794384
0.007706637
0.007597718
0.007467596
0.007316323
0.007144041
0.006936004
0.006631062
0.00632522
0.00609287
0.005910037
0.005669851
0.005346682
0.004990104
0.004593902
0.0041523
0.003660169
0.003113663
0.002510997
0.001855768
0.00116435
0.0005010692
4.886181e-05
3.328533e-05
0.0003001309
0.0007144416
0.001124755
0.001498496
0.001848247
0.002186072
0.002518324
0.00284743
0.003173733
0.003496557
0.003814538
0.004125786
0.004425234
0.004588626
0.004731951
0.004872136
0.005004884
0.005154562
0.00532512
0.00555984
0.00582344
0.006114527
0.006378944
0.00662564
0.006854017
0.007078318
0.007295868
0.007507445
0.007716663
0.00791149
0.008029703
0.008065488
0.008080192
0.008073525
0.008045263
0.00799526
0.007923462
0.007822192
0.007662292
0.007462804
0.007224601
0.006939933
0.006638176
0.006358841
0.006115703
0.005902108
0.00570922
0.005567598
0.005385678
0.005030372
0.0046338
0.004190357
0.003695119
0.003144325
0.002536656
0.001875278
0.001176994
0.0005071689
4.883658e-05
3.382337e-05
0.0002926255
0.0007001531
0.001115518
0.001496906
0.001851805
0.002192406
0.002525906
0.002855488
0.003181966
0.003504819
0.003822725
0.00413383
0.004433521
0.004581564
0.004680669
0.004773289
0.004886617
0.005058385
0.005270019
0.00548399
0.005702167
0.005937159
0.00618314
0.006429473
0.006667646
0.006890602
0.007093177
0.00727889
0.007459672
0.007643876
0.007834158
0.007893284
0.007840606
0.00780706
0.00776779
0.007710899
0.007629632
0.007519315
0.007376407
0.00719964
0.006989714
0.006747867
0.006476493
0.006181739
0.00590135
0.005673046
0.005535478
0.005457413
0.005362584
0.005057151
0.004661193
0.004216842
0.003719398
0.003165425
0.002553682
0.001887975
0.001185287
0.000511112
4.8774e-05
3.428999e-05
0.0002860791
0.0006858171
0.001102129
0.001487858
0.001848745
0.002193038
0.002528132
0.002857901
0.003183729
0.003505437
0.003821847
0.004131011
0.004397406
0.004513875
0.004595246
0.00470152
0.004862068
0.005036472
0.005215128
0.005401174
0.005613996
0.005834048
0.006067903
0.006298796
0.006517567
0.006719714
0.006904128
0.007074022
0.007238047
0.007413662
0.007626856
0.007707287
0.007639621
0.007589606
0.007543247
0.007488899
0.007415776
0.007315111
0.007181002
0.007010762
0.006804486
0.006565879
0.006305216
0.006039358
0.005788951
0.005575695
0.005417425
0.005327048
0.005261435
0.00507449
0.004680239
0.004235861
0.003737138
0.003180976
0.002566507
0.001897858
0.001191475
0.0005135347
4.873349e-05
3.468993e-05
0.0002805111
0.0006715747
0.001087152
0.00147856
0.001843104
0.002190265
0.002526751
0.002856543
0.003181366
0.003501385
0.003815682
0.004122443
0.004373112
0.004508299
0.004611706
0.004723939
0.004852976
0.005008152
0.005195377
0.005397497
0.005606381
0.005822558
0.00604241
0.006257404
0.006461607
0.006650138
0.006820781
0.006976058
0.007126348
0.007296144
0.007533267
0.007641104
0.007562806
0.007493305
0.007434928
0.007374502
0.007298598
0.007197374
0.007064621
0.006897252
0.006694932
0.006460454
0.006201344
0.005932287
0.005676233
0.005461453
0.005313525
0.00524098
0.005207193
0.005086054
0.004693113
0.004249071
0.003749772
0.003192277
0.002575875
0.00190457
0.001196403
0.000515679
4.867433e-05
3.501646e-05
0.0002759222
0.0006584866
0.001072133
0.001465752
0.001834104
0.002184579
0.002522502
0.002852223
0.003175887
0.003494026
0.003806028
0.004110464
0.004357858
0.004498124
0.004609865
0.00473153
0.004876069
0.005042171
0.005221535
0.00541934
0.005630877
0.00585325
0.006070594
0.006278356
0.00647268
0.006650476
0.00681121
0.006958689
0.00710209
0.007254885
0.007429566
0.00762076
0.007612713
0.007464147
0.007380638
0.007311872
0.007231223
0.007125618
0.006988629
0.006817531
0.00661257
0.006377472
0.006120585
0.005855907
0.005603173
0.005386835
0.005231616
0.005151596
0.005125014
0.00505056
0.004698991
0.004255593
0.003755766
0.003197039
0.002579187
0.0019068
0.001197303
0.0005158744
4.863561e-05
3.530693e-05
0.000272282
0.0006465531
0.001056533
0.001451579
0.001823535
0.002175663
0.002515251
0.002845331
0.003168245
0.003484938
0.003795262
0.00409831
0.004370362
0.004527102
0.004653525
0.004783692
0.004930576
0.00509714
0.005282239
0.005483476
0.005696358
0.005912566
0.00612159
0.006321926
0.006508531
0.006677804
0.006828978
0.006965784
0.00709765
0.007238945
0.007404549
0.007606572
0.007619446
0.007464363
0.007361344
0.007274786
0.007182028
0.007068828
0.006927158
0.006753453
0.006547678
0.006313357
0.006058395
0.005796189
0.005545958
0.005332173
0.00518007
0.005104956
0.005087734
0.005029448
0.004703594
0.004260561
0.003760424
0.003201011
0.002582323
0.001909041
0.001198466
0.0005167586
4.859068e-05
3.553652e-05
0.0002695929
0.0006363758
0.00104233
0.001437498
0.001811488
0.00216661
0.00250689
0.002837181
0.003159681
0.003475557
0.003785074
0.004087469
0.004382292
0.004578349
0.004723209
0.004865354
0.005019925
0.005192256
0.005381188
0.005583735
0.005790215
0.005997379
0.006200796
0.006394012
0.006571485
0.006730417
0.006870351
0.00699447
0.00711123
0.007235638
0.007389091
0.007599025
0.007628107
0.0074695
0.00734994
0.007246751
0.00714126
0.007019193
0.006871609
0.006694313
0.006487069
0.006253385
0.006000961
0.005742499
0.005495952
0.005284616
0.0051334
0.005059097
0.005046685
0.005002817
0.00470535
0.004262722
0.00376225
0.003202105
0.002582639
0.001908907
0.001198581
0.0005165274
4.853442e-05
3.576434e-05
0.0002677729
0.000627859
0.001029243
0.001423546
0.001798858
0.002155701
0.002497752
0.002828595
0.003151094
0.003466705
0.003776012
0.004079277
0.004375441
0.004656781
0.004823509
0.004977824
0.005142072
0.005319029
0.005508593
0.005707092
0.005910705
0.006112598
0.006307568
0.006489246
0.006654635
0.006801361
0.006928777
0.007039361
0.007140693
0.007247968
0.007385927
0.00758938
0.007631116
0.007479145
0.007347286
0.007228587
0.00711
0.006978463
0.006824647
0.006643763
0.006435202
0.006202223
0.005952213
0.005697362
0.005454857
0.005247292
0.005099123
0.005027375
0.005018695
0.004983836
0.004706557
0.004264022
0.003763092
0.003202262
0.00258216
0.00190804
0.001197857
0.0005163108
4.849644e-05
3.596685e-05
0.0002669573
0.0006211295
0.001017761
0.001410565
0.001786418
0.002144621
0.002487995
0.002819874
0.003142945
0.003458923
0.003768707
0.004072603
0.004371008
0.004663665
0.004945657
0.005117325
0.005285238
0.005467727
0.005659676
0.005855675
0.006052116
0.006244544
0.006428311
0.006598976
0.006752851
0.006887552
0.007002739
0.007100339
0.007185821
0.007271578
0.007384074
0.007574502
0.0076524
0.007508012
0.007344394
0.007212399
0.007084714
0.006945322
0.006785252
0.006600264
0.006389908
0.006157336
0.005909624
0.005658437
0.005420175
0.005216673
0.005071873
0.005002925
0.004997773
0.004970115
0.004707078
0.004264426
0.003762947
0.003201446
0.00258083
0.001906556
0.001196646
0.0005156245
4.844027e-05
3.619829e-05
0.0002664869
0.0006158063
0.001007909
0.00139875
0.001774622
0.002133764
0.002478471
0.002811575
0.003135676
0.003452616
0.003763542
0.004069057
0.004369414
0.004664504
0.004953874
0.005238452
0.005461145
0.005639516
0.005825157
0.006019259
0.006214256
0.006399185
0.006571739
0.006727318
0.006867434
0.006988625
0.007090759
0.007176534
0.00725209
0.007327336
0.007414686
0.007522782
0.007637632
0.007565847
0.007361842
0.007207559
0.007066924
0.006918901
0.006752652
0.006563608
0.006351361
0.006119012
0.0058734
0.00562576
0.005391859
0.005192885
0.005052217
0.004986752
0.004984891
0.004962013
0.00470764
0.004264561
0.003762325
0.003200025
0.002578837
0.001904473
0.001195015
0.0005149179
4.841714e-05
3.620283e-05
0.0002675997
0.000612793
0.001000054
0.001388463
0.001764011
0.002124044
0.002469896
0.002804332
0.003129794
0.003448162
0.003760721
0.00406825
0.004371143
0.004669508
0.004963283
0.00525188
0.005535119
0.005812377
0.006032778
0.006212613
0.006390739
0.006564828
0.006727796
0.006878504
0.007006417
0.007112576
0.007199121
0.007269459
0.00732945
0.007388194
0.007456078
0.007538386
0.007636738
0.007575966
0.007377667
0.007212905
0.00705883
0.006899795
0.006725916
0.006532244
0.006317909
0.006085678
0.005842066
0.005597909
0.005368425
0.005174242
0.005038205
0.004976846
0.004978523
0.004959066
0.004708591
0.004264851
0.003761727
0.003198579
0.002576825
0.001902367
0.001193327
0.000514062
4.837453e-05
3.625725e-05
0.0002693003
0.0006100683
0.0009932403
0.00137953
0.0017546
0.002115157
0.002462402
0.002798443
0.003125629
0.003445862
0.003760513
0.004070462
0.004376185
0.004677824
0.004975236
0.005268012
0.005555546
0.00583666
0.00611059
0.006375652
0.006592453
0.00675366
0.006903073
0.007039456
0.007152989
0.007244006
0.007315235
0.007370328
0.007413976
0.007452731
0.007495815
0.007556374
0.007643675
0.007585993
0.007390508
0.007217689
0.007052642
0.006883788
0.006702706
0.006504612
0.006288376
0.006056427
0.005814937
0.005574348
0.005349425
0.005160312
0.005029353
0.00497257
0.004977801
0.004960411
0.004710181
0.004265489
0.003761248
0.003197065
0.002574587
0.001899923
0.001191365
0.0005131465
4.836476e-05
3.780683e-05
0.0002652644
0.0006032488
0.0009880008
0.001372088
0.0017466
0.002107844
0.002456414
0.002794315
0.003123631
0.003446239
0.003763533
0.004076442
0.004385474
0.004690767
0.00499212
0.005289028
0.005580707
0.005866097
0.00614371
0.006412206
0.006669854
0.00691471
0.007091641
0.007205593
0.00730103
0.007377702
0.007434103
0.007473768
0.007501578
0.007523324
0.007546669
0.007581825
0.007644
0.007585926
0.00740004
0.00722205
0.007047301
0.006869531
0.006681981
0.006480028
0.006262286
0.006030859
0.005791578
0.005554558
0.005334237
0.005150387
0.005024907
0.004973211
0.004982233
0.004965976
0.004712746
0.004266889
0.003761384
0.00319608
0.00257282
0.001897847
0.001189658
0.0005122823
4.833919e-05
3.953093e-05
0.0002668765
0.0005926558
0.0009858902
0.001367254
0.001740893
0.002102674
0.002452721
0.002792646
0.003124467
0.00344996
0.00377049
0.004086975
0.004399899
0.004709353
0.005015046
0.005316354
0.005612347
0.00590181
0.006183254
0.006455059
0.006715426
0.006962406
0.007194375
0.007391513
0.007477741
0.007531558
0.007568084
0.007589399
0.007599223
0.00760174
0.007602928
0.007613328
0.007650683
0.007588943
0.007408146
0.007224856
0.007042439
0.006857388
0.006664277
0.006458929
0.006239948
0.006009246
0.005772361
0.005539041
0.005323412
0.005144918
0.005025061
0.004978627
0.00499137
0.004975267
0.004716538
0.004269144
0.003762116
0.003195485
0.002571278
0.001895916
0.00118787
0.0005113535
4.83451e-05
4.041877e-05
0.0002706441
0.0005839372
0.0009852095
0.001363523
0.0017364
0.00209895
0.002450793
0.002793359
0.003128419
0.003457562
0.003782112
0.00410294
0.004420473
0.004734718
0.005045273
0.005351386
0.005651988
0.005945641
0.00623062
0.006505402
0.006768077
0.007016665
0.00724943
0.007463764
0.007658021
0.007716669
0.007729466
0.007726646
0.007714948
0.007698177
0.007679157
0.007659154
0.007634231
0.007590816
0.007443093
0.007229221
0.007036319
0.00684643
0.006649833
0.006442153
0.006222388
0.005992411
0.005757418
0.005527047
0.005315591
0.00514242
0.005028598
0.004988124
0.005005068
0.004988515
0.004721701
0.004272491
0.003763776
0.003195706
0.002570431
0.00189449
0.001186446
0.0005105732
4.833535e-05
4.051813e-05
0.000274059
0.0005760671
0.0009712587
0.001362888
0.00173467
0.002098127
0.00245235
0.002798013
0.003136588
0.003469972
0.003799272
0.004125224
0.004448116
0.00476781
0.005083754
0.00539489
0.005699789
0.005997304
0.006285824
0.006563312
0.00682782
0.007077472
0.007310053
0.007523678
0.007716516
0.007886882
0.007906007
0.00788139
0.007844892
0.007803714
0.007760389
0.007714257
0.007660326
0.007593568
0.007445782
0.007236264
0.00703776
0.006841205
0.006639758
0.006429183
0.00620812
0.005978883
0.005746615
0.005520551
0.005314048
0.005146234
0.005037733
0.00500243
0.005022699
0.00500485
0.004727851
0.004276922
0.003766324
0.003196619
0.002570084
0.001893383
0.001185229
0.0005097934
4.834581e-05
4.043188e-05
0.0002768883
0.0005690679
0.000959188
0.001363359
0.001734579
0.002099307
0.002456085
0.002805659
0.003149541
0.003488332
0.003823369
0.004155308
0.004484228
0.004809681
0.005130722
0.005446754
0.005756498
0.006058036
0.006349564
0.006629139
0.006894751
0.007144596
0.007376349
0.007588331
0.007778817
0.007946254
0.008070728
0.008051468
0.007992631
0.007923835
0.007851621
0.007775738
0.007695089
0.007607097
0.007453217
0.007245044
0.007042305
0.006840798
0.006635677
0.006424217
0.006204872
0.005978264
0.005746532
0.00552033
0.005316038
0.005152999
0.00505154
0.005023543
0.005049571
0.005028779
0.004735711
0.004282514
0.003769972
0.003198533
0.00257062
0.001892989
0.001184438
0.0005092716
4.834988e-05
4.076985e-05
0.0002801451
0.0005639029
0.000947282
0.001366749
0.001737699
0.002103965
0.002463885
0.002817748
0.003166484
0.003511373
0.00385292
0.004191431
0.004526842
0.004858706
0.00518627
0.005507928
0.0058222
0.006127319
0.006421378
0.006702392
0.006968361
0.007217551
0.007447677
0.007657206
0.007844559
0.008008351
0.008147417
0.008217322
0.008157736
0.008062295
0.007958658
0.007852793
0.007741987
0.007623749
0.007458141
0.007252122
0.007047002
0.006842882
0.006636527
0.006423725
0.006200551
0.00596991
0.005741917
0.00552428
0.005327568
0.005169476
0.005071931
0.005046702
0.005072656
0.005049786
0.004744755
0.004289323
0.003774692
0.003201293
0.002571788
0.001893007
0.00118386
0.0005087558
4.837028e-05
4.091309e-05
0.0002831348
0.0005591063
0.0009378289
0.001370732
0.001742372
0.002111148
0.002475192
0.002834486
0.003189686
0.003541522
0.003890413
0.00423641
0.004579151
0.004917866
0.005251402
0.005578256
0.005896712
0.006204891
0.00650083
0.006782549
0.007048142
0.007295676
0.007523397
0.007729709
0.007913204
0.00807268
0.008207153
0.008315865
0.008305731
0.008202095
0.008071421
0.007934411
0.007793594
0.007644318
0.007464064
0.007258505
0.007051391
0.006842753
0.006630192
0.006411799
0.006191669
0.005968977
0.005746415
0.00553113
0.005337438
0.005183363
0.005088349
0.005065847
0.005094831
0.005071803
0.004755135
0.004297307
0.003780371
0.003205017
0.002573833
0.001893746
0.001183777
0.0005084598
4.840204e-05
4.137894e-05
0.0002866441
0.0005562465
0.0009313322
0.001377274
0.001750435
0.002122463
0.002491437
0.00285701
0.003219471
0.003579157
0.003936155
0.004290186
0.00464057
0.00498624
0.005325795
0.005657571
0.005979719
0.006290294
0.006587335
0.006868918
0.007133226
0.007378418
0.007602918
0.007805294
0.007984313
0.008138963
0.008268454
0.00837222
0.008446909
0.008347599
0.00819397
0.008026897
0.007855896
0.007674291
0.007475854
0.007265333
0.007052245
0.006839795
0.006628877
0.006416278
0.006198417
0.005975709
0.005751825
0.005536169
0.005343593
0.005193935
0.005107476
0.005093723
0.005126846
0.005095803
0.004766928
0.00430655
0.003787228
0.003209726
0.002576587
0.001894972
0.001183983
0.000508301
4.843758e-05
4.144061e-05
0.0002897878
0.0005540173
0.0009227401
0.001384453
0.001760023
0.002136473
0.002511338
0.002884252
0.00325503
0.003623539
0.003989424
0.004352006
0.004710263
0.005062845
0.005408143
0.005744361
0.006069597
0.006381907
0.006679378
0.006960151
0.007222474
0.007464701
0.007685393
0.007883298
0.00805738
0.008206814
0.008330991
0.008429507
0.008502216
0.008472444
0.008314734
0.00812064
0.007923716
0.007712954
0.007489484
0.007270465
0.007056867
0.006848262
0.006639374
0.006426947
0.006208034
0.005985005
0.005762522
0.005550081
0.005361264
0.005214912
0.005131166
0.005120218
0.005155376
0.005123634
0.004779831
0.004316653
0.003794727
0.003214922
0.002579844
0.001896676
0.00118456
0.0005083585
4.846939e-05
4.174487e-05
0.0002933874
0.0005532062
0.0009203982
0.001394758
0.00177407
0.002155985
0.002538214
0.002919552
0.00329942
0.003677236
0.004052215
0.004423297
0.004789143
0.005148162
0.005498591
0.005838557
0.006166144
0.006479434
0.006776513
0.007055725
0.007315376
0.007554006
0.007770353
0.007963362
0.008132193
0.00827622
0.008395019
0.008488363
0.008556134
0.008582641
0.008426241
0.008213027
0.00799567
0.007759688
0.007512881
0.007285672
0.00707052
0.006860883
0.006651833
0.006439722
0.006222844
0.006001579
0.005780651
0.005569441
0.005382748
0.005240072
0.005161575
0.005156271
0.005194391
0.005157244
0.004794499
0.004328373
0.003803734
0.003221442
0.002584225
0.001899056
0.0011854
0.0005083457
4.851027e-05
4.283485e-05
0.0002956571
0.0005536939
0.000917215
0.001398622
0.001789496
0.002177674
0.00256786
0.002958383
0.003348064
0.003735785
0.004120291
0.004500133
0.004873669
0.005239091
0.005594496
0.005937941
0.006267493
0.006581273
0.006877425
0.007154506
0.007410969
0.007645549
0.007857186
0.008045029
0.008208431
0.008346948
0.00846032
0.008548519
0.008611544
0.008649582
0.008528112
0.008307186
0.008073771
0.007813497
0.007543147
0.007304478
0.007085812
0.006876652
0.006669446
0.006458783
0.006242365
0.006021292
0.005800853
0.005590752
0.005405932
0.005265998
0.005191149
0.00519
0.005231027
0.005190619
0.004810105
0.004341013
0.003813629
0.003228827
0.002589342
0.001902346
0.001187156
0.0005089199
4.855763e-05
4.149366e-05
0.0003052722
0.0005547684
0.0009143939
0.001398227
0.001808406
0.002203614
0.002602665
0.003003189
0.003403344
0.003801421
0.004195675
0.004584269
0.004965275
0.005336697
0.005696529
0.006042794
0.006373591
0.006687138
0.006981727
0.007256088
0.00750887
0.007739016
0.007945671
0.008128187
0.008286112
0.00841918
0.008527297
0.008610456
0.008668867
0.008702785
0.00862041
0.008398207
0.008152565
0.007870429
0.0075772
0.007328085
0.007106307
0.006897384
0.006691049
0.006481145
0.006265206
0.006044411
0.005824217
0.005614681
0.00543119
0.005293676
0.005222235
0.005224502
0.005266575
0.005221142
0.004826579
0.004354434
0.003824189
0.003236748
0.002594887
0.001905634
0.001188668
0.0005093666
4.860641e-05
4.065654e-05
0.0003093038
0.0005563099
0.0009135917
0.001399391
0.001830252
0.002233699
0.00264255
0.003053781
0.003464882
0.003873549
0.004277552
0.004674687
0.00506277
0.005439659
0.005803288
0.006151702
0.006483087
0.006795798
0.00708833
0.007359542
0.007608319
0.007833809
0.008035362
0.008212519
0.008365
0.00849269
0.008595725
0.008674149
0.008728221
0.008758268
0.008702052
0.008477716
0.008221968
0.007923397
0.00761196
0.007353993
0.007129651
0.006921251
0.006716256
0.006507337
0.006291729
0.006070822
0.005850463
0.005641156
0.005458709
0.005323348
0.005255112
0.005260788
0.005304172
0.005254197
0.00484403
0.004368746
0.003835567
0.003245377
0.002600951
0.001909536
0.001190682
0.0005099781
4.866863e-05
4.158435e-05
0.0003063663
0.0005587503
0.0009132328
0.001401638
0.001854919
0.002267543
0.002686967
0.003109463
0.003531839
0.003951198
0.004364843
0.004770235
0.005164978
0.005546829
0.005913715
0.006263749
0.006595242
0.006906375
0.007196534
0.007464327
0.007708916
0.007929663
0.008126118
0.008298008
0.008445223
0.008567885
0.008665971
0.008739817
0.008789737
0.00881609
0.008769504
0.008543427
0.00828177
0.007969518
0.007644504
0.007380807
0.00715549
0.00694818
0.006744542
0.006536403
0.006320857
0.006099533
0.005878661
0.005669232
0.005487533
0.005354112
0.005288863
0.005297469
0.00534082
0.005282703
0.004861998
0.004383585
0.003847474
0.003254542
0.002607566
0.001913778
0.001192908
0.0005107316
4.872374e-05
4.337593e-05
0.0003086558
0.0005626105
0.0009143434
0.001404735
0.001882818
0.002305371
0.002735925
0.003170061
0.003603866
0.00403386
0.004456902
0.004870158
0.005271066
0.005657326
0.006026897
0.006377989
0.006709058
0.007018473
0.00730585
0.007569998