/*--------------------------------*- C++ -*----------------------------------*\
| =========                 |                                                 |
| \\      /  F ield         | OpenFOAM: The Open Source CFD Toolbox           |
|  \\    /   O peration     | Version:  2312                                  |
|   \\  /    A nd           | Website:  www.openfoam.com                      |
|    \\/     M anipulation  |                                                 |
\*---------------------------------------------------------------------------*/
FoamFile
{
    version     2.0;
    format      ascii;
    arch        "LSB;label=32;scalar=64";
    class       volScalarField;
    location    "5700";
    object      ILambda_12_0;
}
// * * * * * * * * * * * * * * * * * * * * * * * * * * * * * * * * * * * * * //

dimensions      [1 0 -3 0 0 0 0];

internalField   nonuniform List<scalar> 
12000
(
793.2892
775.8692
772.9399
767.3428
762.8023
759.1573
756.8169
755.5573
755.0152
754.8655
754.9134
755.0286
755.0135
754.5185
753.1055
750.4482
746.5288
741.6774
736.4188
731.2353
726.4054
722.0075
718.0462
714.5821
711.7646
709.7577
708.6208
708.2293
708.2815
708.3792
708.1398
707.2917
705.7287
703.5212
700.8872
698.1359
695.5992
693.5559
692.1677
691.4489
691.2765
691.44
691.6949
691.7942
691.5186
690.706
689.2665
687.1766
684.438
681.0578
677.0853
672.6231
667.7796
662.6216
657.2062
651.6176
645.9789
640.4876
635.4544
631.4303
739.4781
738.429
737.0518
735.6959
734.5435
733.22
731.5815
729.564
727.2038
724.548
721.6248
718.4541
715.0934
711.6788
708.4144
705.5048
703.0733
701.1211
699.5532
698.2456
697.1031
696.0735
695.1197
694.1822
693.1645
691.9522
690.4527
688.6303
686.5192
684.2135
681.8396
679.5235
677.3611
675.3964
673.6115
671.9313
670.2405
668.4113
666.3336
663.9387
661.2073
658.1632
654.8588
651.3674
647.7728
644.1598
640.6053
637.1759
633.9363
630.9537
628.2825
625.955
623.9924
622.422
621.2701
620.5498
620.2531
620.3344
620.6875
621.0891
711.4141
708.7404
706.9765
704.9155
702.7702
700.4954
698.138
695.7451
693.3659
691.0403
688.8021
686.6811
684.7028
682.8807
681.2075
679.6495
678.1532
676.6581
675.1119
673.4785
671.7374
669.8779
667.894
665.7846
663.5572
661.2312
658.8384
656.418
654.0082
651.6382
649.3222
647.0578
644.8287
642.6104
640.3781
638.115
635.8179
633.5007
631.193
628.9358
626.7752
624.7561
622.9181
621.2928
619.9026
618.76
617.8684
617.2237
616.815
616.6243
616.6273
616.7948
617.0957
617.4971
617.9632
618.4565
618.9398
619.38
619.7555
620.0646
681.9177
678.4901
676.7328
674.6007
672.5765
670.5638
668.5947
666.6651
664.7735
662.9135
661.0759
659.2488
657.4182
655.5688
653.6879
651.7671
649.8049
647.8059
645.7797
643.7388
641.6968
639.6686
637.6693
635.7145
633.8187
631.9945
630.2512
628.5941
627.0255
625.5457
624.1547
622.8542
621.6488
620.5463
619.5577
618.6957
617.9725
617.3985
616.98
616.7189
616.6121
616.6524
616.8288
617.1277
617.5334
618.0291
618.5978
619.2227
619.888
620.5794
621.2852
621.9964
622.7068
623.4135
624.117
624.8216
625.5359
626.272
627.0457
627.8702
653.5464
650.441
648.9327
647.087
645.3604
643.6398
641.9489
640.2794
638.6315
637.0053
635.4022
633.8256
632.2805
630.7742
629.3154
627.9142
626.5808
625.3248
624.1548
623.0777
622.0994
621.2242
620.4551
619.7939
619.241
618.7959
618.4573
618.2239
618.0943
618.0676
618.143
618.3198
618.5966
618.9711
619.4392
619.9955
620.6324
621.3413
622.1122
622.9354
623.8008
624.6996
625.6236
626.5663
627.5224
628.4881
629.4612
630.4408
631.4276
632.4231
633.4301
634.4519
635.4921
636.5541
637.6416
638.7573
639.9036
641.0823
642.2949
643.5408
631.1135
629.008
628.0708
626.933
625.9215
624.958
624.0645
623.2401
622.4898
621.8175
621.2274
620.7235
620.3091
619.9872
619.7596
619.6272
619.5899
619.6466
619.7954
620.0336
620.3581
620.7651
621.2509
621.8111
622.4415
623.1376
623.8951
624.7094
625.576
626.4902
627.447
628.4413
629.4677
630.5209
631.5956
632.6868
633.7902
634.9021
636.0194
637.1401
638.2628
639.3869
640.5121
641.6389
642.7678
643.8996
645.0349
646.1745
647.3185
648.4669
649.6193
650.7745
651.9312
653.0872
654.2404
655.3881
656.5281
657.6588
658.7799
659.8962
621.3829
620.978
620.9661
620.9616
621.0571
621.2259
621.4736
621.7977
622.1974
622.6709
623.216
623.83
624.5096
625.2514
626.0513
626.9053
627.8088
628.7577
629.7476
630.7741
631.8332
632.9206
634.0326
635.1653
636.3152
637.4788
638.653
639.8347
641.021
642.2092
643.397
644.5823
645.7632
646.9384
648.1067
649.2673
650.4196
651.5632
652.6978
653.8231
654.9386
656.0439
657.1383
658.2208
659.2904
660.3457
661.385
662.4065
663.4083
664.3882
665.3441
666.2737
667.1749
668.0458
668.8845
669.6898
670.4607
671.1977
671.9039
672.5929
626.3083
627.475
628.2423
629.1745
630.1304
631.1347
632.1769
633.2544
634.3632
635.4996
636.6597
637.84
639.0368
640.2466
641.4661
642.6922
643.9219
645.1524
646.3812
647.6059
648.8243
650.0342
651.2338
652.4213
653.5951
654.7536
655.8955
657.0194
658.1242
659.2086
660.2716
661.3121
662.3291
663.3214
664.2878
665.2271
666.1378
667.0184
667.8672
668.6824
669.4621
670.2043
670.9069
671.5677
672.1845
672.7551
673.2775
673.7496
674.1693
674.5347
674.8443
675.0962
675.2891
675.4217
675.493
675.5022
675.4492
675.3352
675.165
674.9563
641.1453
643.0605
644.1448
645.4475
646.7055
647.9739
649.2352
650.4893
651.7328
652.9633
654.1784
655.3757
656.5533
657.709
658.8411
659.9476
661.027
662.0774
663.0974
664.0854
665.0398
665.9591
666.8418
667.6864
668.4914
669.2553
669.9764
670.6534
671.2844
671.8679
672.4023
672.8859
673.3168
673.6936
674.0143
674.2774
674.4813
674.6244
674.7053
674.7226
674.6753
674.5623
674.3829
674.1366
673.823
673.4421
672.9941
672.4797
671.8995
671.2548
670.5469
669.7777
668.9495
668.0647
667.1263
666.138
665.1045
664.0317
662.9292
661.8153
658.5098
660.252
661.1876
662.2945
663.3228
664.327
665.2904
666.2141
667.0955
667.9331
668.7251
669.4702
670.1668
670.8135
671.409
671.9519
672.4411
672.8752
673.2532
673.574
673.8365
674.0399
674.1832
674.2659
674.2871
674.2465
674.1438
673.9787
673.7512
673.4616
673.1103
672.6979
672.2255
671.6942
671.1056
670.4614
669.7639
669.0156
668.2194
667.3785
666.4965
665.5775
664.6259
663.6464
662.6442
661.6248
660.594
659.5582
658.5238
657.4978
656.4873
655.4999
654.5433
653.6256
652.7552
651.9408
651.1917
650.5176
649.9301
649.4397
670.876
671.6619
672.0625
672.5069
672.8738
673.1898
673.4459
673.6432
673.7808
673.8585
673.8762
673.8343
673.733
673.5729
673.3546
673.0792
672.7477
672.3616
671.9223
671.4318
670.8921
670.3056
669.6748
669.0027
668.2924
667.5474
666.7714
665.9684
665.1428
664.299
663.4421
662.577
661.7091
660.8441
659.9878
659.146
658.3251
657.5313
656.7709
656.0505
655.3765
654.7555
654.1939
653.698
653.274
652.9279
652.6655
652.4922
652.4131
652.4328
652.5556
652.785
653.1242
653.5756
654.1412
654.8221
655.619
656.5321
657.5614
658.7015
673.0726
672.6043
672.362
672.0264
671.6579
671.2433
670.7864
670.2889
669.7532
669.1824
668.5794
667.9477
667.2909
666.6127
665.9173
665.2088
664.4915
663.77
663.049
662.3334
661.6279
660.9376
660.2676
659.623
659.0089
658.4304
657.8924
657.4
656.9578
656.5707
656.2429
655.9787
655.7819
655.6561
655.6046
655.6301
655.7349
655.9209
656.1894
656.5411
656.9762
657.4943
658.0941
658.7739
659.5311
660.3625
661.2641
662.2312
663.2583
664.3391
665.4667
666.6335
667.8312
669.0508
670.2829
671.5177
672.7452
673.9558
675.1409
676.2931
666.9193
665.824
665.3327
664.7098
664.1252
663.5396
662.9658
662.405
661.8617
661.3397
660.8431
660.3759
659.9421
659.5453
659.1894
658.8777
658.6137
658.4004
658.2405
658.1366
658.0908
658.1051
658.1808
658.319
658.5204
658.7851
659.1128
659.5027
659.9535
660.4634
661.0302
661.6509
662.3222
663.0402
663.8005
664.5984
665.4283
666.2847
667.1613
668.0515
668.9487
669.8456
670.7349
671.6092
672.4609
673.2825
674.0665
674.8054
675.4923
676.1201
676.6825
677.1736
677.588
677.9212
678.1695
678.3301
678.4017
678.3848
678.283
678.107
661.0559
660.4552
660.3072
660.1106
659.9878
659.9046
659.8704
659.8835
659.9452
660.0559
660.216
660.4252
660.6834
660.9898
661.3433
661.7424
662.1854
662.6701
663.1937
663.7536
664.3463
664.9683
665.6158
666.2845
666.9701
667.6678
668.3729
669.0803
669.7849
670.4816
671.1652
671.8305
672.4724
673.0861
673.6669
674.2104
674.7124
675.1693
675.5778
675.9352
676.2394
676.4889
676.6828
676.821
676.9043
676.9342
676.913
676.844
676.7311
676.5795
676.3949
676.184
675.9545
675.715
675.4746
675.2438
675.0335
674.8564
674.7268
674.6655
662.2263
662.5702
662.9141
663.3101
663.7448
664.2106
664.7057
665.2261
665.7688
666.3305
666.9078
667.4975
668.0959
668.6995
669.3047
669.9078
670.5052
671.0932
671.6683
672.2271
672.7664
673.2833
673.775
674.239
674.6732
675.0758
675.4454
675.7811
676.0823
676.3491
676.582
676.7819
676.9505
677.0899
677.2029
677.2926
677.363
677.4184
677.4639
677.5047
677.5469
677.5968
677.6612
677.747
677.8617
678.0128
678.2079
678.4547
678.7608
679.1336
679.5802
680.1073
680.7212
681.428
682.2327
683.14
684.154
685.2787
686.5189
687.8859
668.7095
669.4569
669.9366
670.4974
671.0419
671.5852
672.1192
672.642
673.1509
673.6441
674.1198
674.5765
675.0134
675.4294
675.8244
676.1981
676.5507
676.8828
677.1955
677.4901
677.7685
678.0327
678.2853
678.5292
678.7676
679.0042
679.2427
679.4873
679.7424
680.0124
680.302
680.6162
680.9597
681.3374
681.7541
682.2145
682.7231
683.2843
683.9019
684.5798
685.321
686.1284
687.004
687.9496
688.9661
690.0537
691.2119
692.4394
693.7341
695.0929
696.5118
697.9861
699.5101
701.0775
702.6812
704.3135
705.9666
707.6331
709.3078
710.9947
675.3615
675.9832
676.357
676.8057
677.2286
677.6494
678.0609
678.4657
678.8642
679.2584
679.65
680.0413
680.4346
680.8327
681.2383
681.6544
682.0839
682.5299
682.9956
683.4842
683.9988
684.5425
685.1184
685.7291
686.3775
687.0658
687.7963
688.5705
689.3901
690.2559
691.1686
692.1283
693.1347
694.1867
695.2831
696.4218
697.6003
698.8155
700.0638
701.341
702.6424
703.9628
705.2966
706.6376
707.9794
709.3152
710.638
711.9403
713.2148
714.4538
715.6497
716.7949
717.882
718.9042
719.8548
720.728
721.519
722.2244
722.8445
723.3868
681.9733
682.687
683.1481
683.7146
684.2788
684.8677
685.4745
686.1025
686.7524
687.4261
688.1248
688.8501
689.6032
690.3851
691.1967
692.0384
692.9105
693.813
694.7455
695.7073
696.6974
697.7145
698.7567
699.8219
700.9077
702.0111
703.1289
704.2575
705.3929
706.5308
707.6667
708.7959
709.9132
711.0134
712.0912
713.1411
714.1577
715.1354
716.069
716.953
717.7824
718.5524
719.2583
719.8961
720.4619
720.9525
721.3649
721.697
721.9471
722.1138
722.1968
722.1961
722.1125
721.9477
721.704
721.3847
720.994
720.537
720.0221
719.4578
692.1167
693.288
694.0357
694.9318
695.8242
696.7451
697.6831
698.6387
699.6093
700.5932
701.5882
702.5921
703.6024
704.6162
705.6307
706.6427
707.6487
708.6451
709.6283
710.5945
711.5397
712.4599
713.3512
714.2095
715.0307
715.811
716.5464
717.2333
717.868
718.4472
718.9679
719.4272
719.8225
720.1517
720.4131
720.6053
720.7273
720.7787
720.7595
720.6701
720.5117
720.2857
719.9942
719.6396
719.2249
718.7538
718.23
717.6579
717.0422
716.3878
715.7
714.9842
714.2461
713.4917
712.7271
711.9588
711.1933
710.4373
709.6988
708.9816
705.4144
706.7102
707.509
708.4297
709.3146
710.1918
711.0487
711.8834
712.692
713.4711
714.2174
714.9278
715.5992
716.2286
716.8132
717.3503
717.8374
718.2722
718.6526
718.9769
719.2435
719.4513
719.5994
719.6871
719.7145
719.6815
719.5888
719.4372
719.2279
718.9627
718.6434
718.2726
717.8528
717.3872
716.8792
716.3324
715.7508
715.1387
714.5006
713.8412
713.1653
712.478
711.7845
711.0899
710.3995
709.7187
709.0527
708.4066
707.7856
707.1944
706.6376
706.1198
705.6452
705.2179
704.8419
704.521
704.2588
704.0596
703.927
703.8631
715.7049
716.3291
716.7233
717.1354
717.4973
717.8164
718.0877
718.3097
718.4811
718.601
718.6691
718.6851
718.6493
718.5622
718.4247
718.2377
718.0028
717.7218
717.3965
717.0295
716.6233
716.1809
715.7054
715.2003
714.6692
714.116
713.5447
712.9594
712.3645
711.7643
711.1633
710.566
709.9769
709.4007
708.8417
708.3045
707.7934
707.3127
706.8665
706.4589
706.0938
705.7748
705.5053
705.2888
705.1282
705.0264
704.986
705.0095
705.0987
705.2556
705.4815
705.7776
706.145
706.5845
707.0968
707.6826
708.3426
709.0782
709.8908
710.7874
717.6804
717.3121
717.161
716.9337
716.6878
716.4057
716.0923
715.7479
715.3749
714.9755
714.5527
714.1093
713.6485
713.1738
712.6886
712.1966
711.7017
711.2075
710.718
710.2372
709.7692
709.3178
708.887
708.4809
708.1032
707.7577
707.448
707.1777
706.9501
706.7684
706.6356
706.5544
706.5276
706.5573
706.6459
706.7951
707.0068
707.2823
707.6228
708.0294
708.5027
709.0433
709.6515
710.3272
711.0704
711.8807
712.7574
713.6999
714.707
715.7774
716.9096
718.1018
719.3522
720.6587
722.0195
723.4323
724.8954
726.4077
727.9708
729.5967
713.0386
712.2417
711.897
711.4763
711.0884
710.7065
710.3392
709.9873
709.6541
709.3427
709.0561
708.7974
708.5699
708.3765
708.2202
708.1038
708.0301
708.0018
708.021
708.0903
708.2116
708.3868
708.6177
708.9057
709.2521
709.6579
710.1239
710.6506
711.2385
711.8875
712.5975
713.368
714.1985
715.088
716.0354
717.0394
718.0985
719.211
720.3748
721.5878
722.8479
724.1524
725.4988
726.8842
728.3058
729.7605
731.2451
732.7562
734.2903
735.8439
737.413
738.9937
740.5821
742.1742
743.766
745.3539
746.9344
748.5054
750.0685
751.6363
709.3443
709.0768
709.0715
709.0856
709.1585
709.2781
709.4477
709.667
709.9372
710.2591
710.6335
711.0613
711.5429
712.0786
712.6687
713.3132
714.0118
714.7641
715.5695
716.4271
717.336
718.2948
719.3021
720.3563
721.4556
722.598
723.7811
725.0027
726.2602
727.5508
728.8717
730.2199
731.5922
732.9854
734.3961
735.8207
737.2559
738.698
740.1433
741.5883
743.0291
744.4622
745.8838
747.2904
748.6783
750.044
751.3841
752.6952
753.9741
755.2174
756.4221
757.5852
758.7039
759.7756
760.7984
761.7704
762.6906
763.5596
764.3807
765.1644
713.6105
714.4267
715.0327
715.7762
716.558
717.3948
718.2792
719.2098
720.1847
721.2017
722.2588
723.3539
724.4847
725.6488
726.8439
728.0672
729.3162
730.588
731.8798
733.1885
734.5112
735.8448
737.1861
738.5319
739.879
741.2243
742.5643
743.896
745.2161
746.5215
747.809
749.0756
750.3184
751.5344
752.721
753.8755
754.9956
756.0788
757.1232
758.1269
759.0881
760.0055
760.8778
761.7041
762.4837
763.2163
763.9017
764.5401
765.1319
765.6777
766.1783
766.6351
767.0494
767.4231
767.7585
768.0583
768.326
768.5656
768.7827
768.9831
726.7478
728.3949
729.4297
730.6601
731.8794
733.1273
734.3881
735.6608
736.9411
738.2261
739.5123
740.7967
742.0763
743.348
744.6091
745.8566
747.0879
748.3003
749.4914
750.6586
751.7999
752.9129
753.9958
755.0466
756.0638
757.0457
757.9911
758.8987
759.7677
760.5972
761.3867
762.1359
762.8445
763.5127
764.1406
764.7289
765.2782
765.7895
766.2639
766.7026
767.1073
767.4797
767.8216
768.1351
768.4223
768.6857
768.9275
769.1503
769.3565
769.5485
769.7288
769.8996
770.0632
770.2221
770.3784
770.5344
770.6926
770.8552
771.025
771.2011
743.5266
745.2405
746.2692
747.4661
748.614
749.7559
750.8759
751.9739
753.0469
754.0927
755.1095
756.0957
757.0498
757.9706
758.8572
759.7088
760.5246
761.3043
762.0476
762.7545
763.425
764.0595
764.6583
765.2221
765.7514
766.2473
766.7106
767.1424
767.5439
767.9164
768.261
768.5793
768.8726
769.1423
769.3899
769.6167
769.8243
770.0139
770.1868
770.3442
770.4872
770.6167
770.7337
770.8388
770.9324
771.0149
771.0865
771.1469
771.1958
771.2325
771.2559
771.2647
771.2575
771.2327
771.1885
771.1229
771.0341
770.9206
770.7818
770.6187
757.7054
758.889
759.6043
760.4175
761.1802
761.9206
762.6288
763.3056
763.9498
764.5613
765.14
765.686
766.1995
766.6812
767.1314
767.5509
767.9403
768.3005
768.6323
768.9365
769.214
769.4656
769.6922
769.8945
770.0734
770.2293
770.363
770.4748
770.5652
770.6344
770.6826
770.7097
770.7157
770.7002
770.6629
770.6031
770.5204
770.4137
770.2823
770.1251
769.941
769.7288
769.4873
769.2151
768.9109
768.5734
768.2014
767.7936
767.3488
766.8658
766.3438
765.7818
765.1793
764.5362
763.8527
763.1296
762.3683
761.5718
760.7451
759.9017
766.4681
766.9893
767.3391
767.7209
768.0719
768.3996
768.7005
768.9741
769.2201
769.4385
769.6293
769.7925
769.9284
770.037
770.1186
770.1733
770.201
770.2019
770.176
770.1232
770.0433
769.9362
769.8017
769.6393
769.4489
769.2299
768.9819
768.7046
768.3975
768.06
767.6919
767.2927
766.8622
766.4002
765.9066
765.3815
764.8252
764.2381
763.621
762.9747
762.3006
761.6002
760.8753
760.1282
759.3617
758.5786
757.7824
756.9771
756.1667
755.3561
754.5501
753.7543
752.9745
752.2173
751.4896
750.799
750.1535
749.5627
749.0381
748.5978
769.5602
769.4529
769.4519
769.4242
769.3811
769.3126
769.2186
769.0975
768.9487
768.7718
768.5663
768.3321
768.0691
767.7773
767.4568
767.1077
766.7302
766.3248
765.8917
765.4317
764.9454
764.4337
763.8975
763.338
762.7566
762.1547
761.5341
760.8969
760.2451
759.5813
758.9083
758.2288
757.5464
756.8644
756.1868
755.5177
754.8614
754.2227
753.6065
753.0179
752.4625
751.9458
751.4736
751.052
750.6869
750.3845
750.151
749.9924
749.9148
749.9239
750.0252
750.2241
750.5254
750.9339
751.4539
752.0893
752.844
753.7217
754.727
755.8682
766.8292
766.1102
765.7752
765.3608
764.9487
764.5157
764.0653
763.5963
763.1097
762.6063
762.0873
761.5543
761.0089
760.4533
759.8895
759.3201
758.7476
758.175
757.6052
757.0416
756.4875
755.9467
755.4228
754.9199
754.4419
753.9932
753.578
753.2007
752.8658
752.5777
752.3409
752.16
752.0393
751.9831
751.9956
752.0809
752.2427
752.4846
752.8099
753.2214
753.7217
754.3129
754.9967
755.774
756.6456
757.6114
758.6705
759.8218
761.0629
762.3911
763.8025
765.2927
766.8565
768.488
770.1806
771.9272
773.7204
775.5528
777.4187
779.319
759.9501
758.9776
758.5511
758.0442
757.5757
757.1179
756.6769
756.2534
755.8501
755.4696
755.115
754.7892
754.4956
754.2376
754.0185
753.8417
753.7107
753.6288
753.5993
753.6254
753.7101
753.8563
754.0667
754.3437
754.6893
755.1055
755.5938
756.1552
756.7906
757.5001
758.2837
759.1408
760.0701
761.0702
762.1388
763.2732
764.4702
765.7259
767.036
768.3956
769.7992
771.241
772.7143
774.2123
775.7276
777.2525
778.7787
780.2978
781.8011
783.2795
784.7237
786.1247
787.4731
788.7601
789.9768
791.1152
792.1677
793.1283
793.9946
794.7716
755.1065
754.7118
754.6782
754.6501
754.6899
754.7811
754.9262
755.1256
755.3803
755.6914
756.0598
756.4864
756.9718
757.5164
758.1205
758.7837
759.5056
760.2855
761.122
762.0135
762.9581
763.9532
764.9962
766.0836
767.2119
768.3769
769.574
770.7985
772.045
773.308
774.5815
775.8592
777.1348
778.4015
779.6525
780.8809
782.0795
783.2415
784.3597
785.4274
786.4378
787.3844
788.2611
789.0622
789.7821
790.4162
790.96
791.4099
791.7627
792.0162
792.1687
792.2194
792.1683
792.0168
791.7669
791.4219
790.9867
790.4675
789.8735
789.2149
758.9611
759.6768
760.2752
760.9866
761.7431
762.5508
763.4026
764.2958
765.2267
766.1922
767.1887
768.2124
769.2595
770.3259
771.4072
772.4988
773.5961
774.6941
775.7878
776.8719
777.9412
778.9903
780.0137
781.0062
781.9622
782.8767
783.7445
784.5606
785.3204
786.0196
786.654
787.22
787.7144
788.1345
788.478
788.7434
788.9297
789.0364
789.064
789.0135
788.8868
788.6863
788.4155
788.0785
787.6801
787.226
786.7227
786.1773
785.5976
784.992
784.3695
783.7396
783.1125
782.4988
781.9098
781.3571
780.8527
780.409
780.038
779.7471
770.5053
771.7744
772.612
773.5756
774.5218
775.4689
776.4045
777.3245
778.2235
779.0971
779.9406
780.7499
781.521
782.2501
782.9336
783.5684
784.1515
784.6804
785.1527
785.5667
785.921
786.2145
786.4469
786.618
786.7285
786.7795
786.7725
786.7099
786.5943
786.4293
786.2187
785.9672
785.6799
785.3624
785.0212
784.6628
784.2945
783.9241
783.5595
783.2093
782.8823
782.5873
782.3336
782.1305
781.9873
781.9133
781.9178
782.0098
782.1978
782.4904
782.8952
783.4196
784.0704
784.8539
785.7757
786.8408
788.0532
789.4165
790.9331
792.6025
780.852
781.569
782.0323
782.5329
782.9883
783.4057
783.7796
784.1085
784.3915
784.6283
784.8192
784.965
785.0672
785.1276
785.1487
785.1332
785.0847
785.0068
784.9037
784.7803
784.6415
784.4928
784.3401
784.1893
784.0469
783.9196
783.8142
783.7377
783.6973
783.7001
783.7533
783.864
784.0393
784.2861
784.611
785.0204
785.5202
786.1162
786.8135
787.6167
788.5299
789.5565
790.6991
791.96
793.3402
794.8402
796.4596
798.197
800.0503
802.0161
804.0903
806.2679
808.5428
810.9085
813.3573
815.8811
818.4711
821.119
823.8174
826.565
784.0697
784.0203
784.0765
784.1179
784.1583
784.1892
784.2151
784.238
784.2621
784.2916
784.3313
784.3862
784.4616
784.5627
784.6953
784.8648
785.0769
785.3371
785.651
786.0237
786.4605
786.9663
787.5456
788.2027
788.9414
789.7654
790.6774
791.68
792.7751
793.964
795.2475
796.6256
798.0977
799.6627
801.3185
803.0625
804.8913
806.801
808.7867
810.8431
812.9642
815.1431
817.3728
819.6453
821.9524
824.2852
826.6346
828.9911
831.3448
833.6857
836.0033
838.2875
840.528
842.7149
844.8384
846.8893
848.8593
850.7418
852.5344
854.2474
785.4086
785.651
785.9361
786.2985
786.7143
787.1851
787.7125
788.2988
788.9467
789.6591
790.4384
791.2872
792.2074
793.201
794.2692
795.4131
796.6331
797.9294
799.3014
800.7482
802.2681
803.8593
805.5189
807.2439
809.0306
810.8748
812.7717
814.7162
816.7024
818.7245
820.7758
822.8496
824.9386
827.0356
829.1329
831.2227
833.2974
835.3489
837.3695
839.3515
841.2873
843.1696
844.9914
846.746
848.4272
850.0291
851.5467
852.9752
854.3104
855.5491
856.6884
857.7264
858.6618
859.4944
860.2248
860.8549
861.3875
861.8273
862.1831
862.475
794.9942
796.535
797.5495
798.8031
800.0942
801.4608
802.8891
804.3785
805.9256
807.5275
809.1811
810.8827
812.6286
814.4146
816.2363
818.089
819.9675
821.8667
823.7809
825.7043
827.6312
829.5553
831.4706
833.3708
835.2497
837.1011
838.919
840.6973
842.4303
844.1124
845.7384
847.3032
848.8022
850.2313
851.5866
852.8648
854.0631
855.1791
856.2112
857.1581
858.0191
858.7941
859.4836
860.0885
860.6104
861.0514
861.4138
861.7006
861.9151
862.0608
862.1414
862.1611
862.1241
862.0349
861.898
861.7182
861.5004
861.25
860.9744
860.6863
815.2397
817.7822
819.2792
821.0861
822.8545
824.6536
826.4572
828.2635
830.0656
831.8582
833.6357
835.3929
837.1244
838.8252
840.4902
842.1147
843.6941
845.2239
846.6999
848.1181
849.475
850.7672
851.9916
853.1455
854.2266
855.2328
856.1626
857.0147
857.7881
858.4824
859.0974
859.6333
860.0905
860.4699
860.7726
860.9999
861.1535
861.235
861.2465
861.1898
861.0672
860.8808
860.6325
860.3245
859.9587
859.5368
859.0603
858.5305
857.9484
857.3144
856.6287
855.8911
855.101
854.2575
853.3595
852.4054
851.3938
850.3232
849.194
848.0087
838.3061
840.6062
841.8921
843.4074
844.8273
846.2176
847.5536
848.8353
850.0576
851.2173
852.3113
853.3369
854.2919
855.1742
855.9821
856.7143
857.3696
857.9471
858.4463
858.8668
859.2085
859.4715
859.6559
859.7624
859.7914
859.7437
859.62
859.4214
859.1487
858.8029
858.385
857.896
857.3367
856.7081
856.011
855.246
854.4137
853.5146
852.5491
851.5174
850.4195
849.2554
848.0251
846.7282
845.3645
843.9337
842.4354
840.8692
839.2348
837.5319
835.7604
833.9202
832.012
830.0364
827.9949
825.8894
823.723
821.4993
819.2245
816.9045
853.9441
854.9209
855.4543
856.0423
856.5374
856.967
857.3188
857.5933
857.7886
857.9042
857.9396
857.8947
857.7696
857.5645
857.2799
856.9162
856.4743
855.9548
855.3585
854.6864
853.9393
853.1182
852.2242
851.2582
850.2212
849.1143
847.9386
846.6951
845.3851
844.0096
842.5699
841.0673
839.5032
837.8791
836.1966
834.4577
832.6643
830.8188
828.9235
826.9814
824.9956
822.9696
820.9074
818.8132
816.6919
814.5487
812.3896
810.2207
808.0489
805.8816
803.7265
801.5921
799.4875
797.4224
795.4071
793.4525
791.5702
789.7723
788.0719
786.4775
855.6861
854.8831
854.4598
853.8936
853.2794
852.5894
851.8267
850.9904
850.0811
849.0997
848.0473
846.9254
845.7356
844.4795
843.159
841.7762
840.3333
838.8324
837.276
835.6668
834.0073
832.3006
830.5497
828.7578
826.9285
825.0653
823.1723
821.2535
819.3135
817.3568
815.3884
813.4137
811.4381
809.4676
807.5083
805.5666
803.6495
801.7638
799.917
798.1167
796.3705
794.6867
793.0733
791.5386
790.091
788.7389
787.4907
786.3544
785.3381
784.4496
783.696
783.0842
782.6209
782.312
782.1628
782.1781
782.3619
782.718
783.2494
783.9572
842.15
839.7449
838.4998
836.9593
835.4416
833.868
832.2566
830.6056
828.9186
827.1986
825.4493
823.6745
821.8782
820.0649
818.2389
816.4051
814.5683
812.7337
810.9064
809.092
807.2961
805.5242
803.7825
802.0767
800.4131
798.7977
797.2369
795.7368
794.3038
792.9441
791.6639
790.4692
789.3662
788.3604
787.4576
786.6631
785.9818
785.4184
784.9771
784.6617
784.4754
784.4209
784.5004
784.7151
785.0659
785.5526
786.1744
786.9296
787.8157
788.829
789.9651
791.2188
792.5838
794.0531
795.6191
797.2733
799.0068
800.8111
802.6787
804.6099
818.5631
815.527
814.0336
812.225
810.5218
808.8218
807.1516
805.5092
803.9006
802.33
800.8026
799.3233
797.8974
796.53
795.2261
793.9908
792.829
791.7455
790.745
789.832
789.0106
788.2848
787.6583
787.1345
786.7163
786.4062
786.2066
786.1191
786.1449
786.2848
786.5389
786.9069
787.3878
787.9801
788.6817
789.4898
790.4011
791.4115
792.5166
793.7111
794.9892
796.3447
797.7707
799.26
800.8046
802.3965
804.0271
805.6875
807.3687
809.0613
810.7557
812.4427
814.1128
815.7571
817.3668
818.9337
820.4504
821.9112
823.3141
824.6693
796.8158
794.6709
793.762
792.685
791.7611
790.9073
790.1443
789.4689
788.8845
788.3928
787.9959
787.6956
787.4932
787.3899
787.3865
787.4833
787.6804
787.9773
788.373
788.8663
789.4552
790.1375
790.9105
791.7708
792.7148
793.7383
794.8366
796.0048
797.2375
798.5287
799.8723
801.2617
802.6904
804.1511
805.6367
807.1398
808.6529
810.1686
811.6793
813.1774
814.6557
816.107
817.5242
818.9007
820.23
821.5063
822.7238
823.8774
824.9625
825.9747
826.9105
827.7667
828.541
829.2316
829.8376
830.3588
830.796
831.1514
831.431
831.6499
788.6759
788.4508
788.6079
788.8164
789.1435
789.5596
790.0663
790.6587
791.334
792.0888
792.9198
793.823
794.7946
795.8302
796.9253
798.0748
799.2737
800.5165
801.7975
803.1109
804.4507
805.8105
807.1841
808.5651
809.947
811.3234
812.6877
814.0336
815.3548
816.6452
817.8988
819.1099
820.273
821.383
822.435
823.4244
824.3472
825.1996
825.9784
826.6807
827.3041
827.8466
828.3069
828.6838
828.9768
829.1859
829.3112
829.3535
829.3137
829.1932
828.9934
828.7164
828.3643
827.9396
827.445
826.8835
826.2585
825.5744
824.8374
824.0574
796.5375
797.8899
798.8248
799.9437
801.0854
802.271
803.4849
804.7221
805.9758
807.24
808.5088
809.7761
811.0361
812.283
813.5111
814.7148
815.8886
817.0273
818.1256
819.1787
820.1818
821.1304
822.0204
822.848
823.6094
824.3015
824.9214
825.4664
825.9345
826.3238
826.6329
826.8607
827.0066
827.0702
827.0516
826.9513
826.77
826.5089
826.1693
825.753
825.262
824.6986
824.0652
823.3646
822.5997
821.7735
820.8893
819.9503
818.9599
817.9214
816.8384
815.7142
814.5526
813.3572
812.1319
810.8807
809.608
808.3187
807.0188
805.7118
811.6598
813.1895
814.1046
815.1698
816.1757
817.1582
818.0981
818.9929
819.837
820.6263
821.3568
822.0252
822.6282
823.1631
823.6275
824.0193
824.3367
824.5783
824.7431
824.8303
824.8395
824.7708
824.6244
824.4009
824.1012
823.7267
823.2789
822.7595
822.1707
821.5149
820.7945
820.0126
819.172
818.2761
817.3283
816.3321
815.2913
814.2098
813.0916
811.9407
810.7614
809.558
808.3347
807.0962
805.8467
804.5909
803.3334
802.0786
800.8311
799.5954
798.3761
797.1776
796.0046
794.8618
793.7539
792.6858
791.6628
790.6902
789.7736
788.9142
821.5744
821.9636
822.1928
822.4223
822.5808
822.678
822.7053
822.6624
822.5482
822.3627
822.106
821.7791
821.3829
820.919
820.389
819.795
819.1393
818.4245
817.6533
816.8289
815.9543
815.0331
814.0688
813.0652
812.0261
810.9555
809.8575
808.7364
807.5963
806.4417
805.2767
804.106
802.9338
801.7645
800.6026
799.4524
798.3184
797.2047
796.1156
795.0553
794.0279
793.0373
792.0874
791.182
790.3247
789.519
788.7682
788.0752
787.4431
786.8742
786.3709
785.9351
785.5689
785.2736
785.0508
784.9015
784.8267
784.8277
784.9061
785.065
819.3291
818.2455
817.6951
816.9997
816.2891
815.5295
814.7272
813.8826
812.9983
812.0773
811.1229
810.1387
809.1282
808.0955
807.0443
805.9788
804.903
803.821
802.737
801.6552
800.5795
799.5142
798.4632
797.4303
796.4195
795.4345
794.4789
793.5561
792.6694
791.8221
791.0169
790.2567
789.5441
788.8814
788.2706
787.7137
787.2123
786.7678
786.3811
786.0532
785.7845
785.5752
785.4252
785.3342
785.3013
785.3256
785.4055
785.5394
785.7251
785.96
786.2411
786.5653
786.929
787.3286
787.7602
788.2196
788.7027
789.2067
789.7305
790.2838
807.4465
805.6057
804.7262
803.655
802.6437
801.6279
800.6233
799.6282
798.6465
797.6811
796.7351
795.8117
794.914
794.045
793.2075
792.4043
791.6379
790.9108
790.225
789.5826
788.9853
788.4345
787.9316
787.4774
787.0728
786.7181
786.4135
786.159
785.9541
785.7982
785.6903
785.6293
785.6136
785.6414
785.7107
785.8193
785.9646
786.1438
786.354
786.592
786.8544
787.1377
787.4382
787.7522
788.0756
788.4046
788.7352
789.0631
789.3844
789.6948
789.9902
790.2668
790.5207
790.7485
790.947
791.1134
791.2456
791.343
791.409
791.4578
794.4517
792.9083
792.2665
791.4898
790.8114
790.1651
789.5652
789.0073
788.4927
788.0215
787.594
787.2103
786.8705
786.5743
786.3212
786.1107
785.9418
785.8135
785.7243
785.6728
785.6572
785.6755
785.7255
785.8049
785.9112
786.0417
786.1935
786.3638
786.5494
786.7472
786.9541
787.1669
787.3822
787.5968
787.8075
788.0113
788.205
788.3857
788.5507
788.6972
788.8229
788.9256
789.0033
789.0542
789.0771
789.0708
789.0346
788.9678
788.8704
788.7425
788.5846
788.3975
788.1825
787.9413
787.6763
787.39
787.086
786.7687
786.4451
786.127
787.1226
786.3821
786.1909
785.9486
785.7854
785.6554
785.5643
785.506
785.4787
785.4797
785.5066
785.557
785.6284
785.7184
785.8242
785.9434
786.0734
786.2114
786.3548
786.5011
786.6476
786.7918
786.9312
787.0635
787.1864
787.2978
787.3957
787.4782
787.5438
787.591
787.6185
787.6255
787.6109
787.5745
787.5159
787.435
787.3322
787.2079
787.0629
786.8983
786.7153
786.5155
786.3006
786.0725
785.8336
785.586
785.3322
785.0748
784.8164
784.5594
784.3065
784.0602
783.8231
783.5977
783.3865
783.1921
783.0168
782.8635
782.735
782.6356
785.6162
785.3917
785.4426
785.4804
785.5534
785.637
785.7297
785.8268
785.9255
786.0232
786.1177
786.2068
786.2886
786.3616
786.424
786.4745
786.5119
786.5352
786.5434
786.5359
786.5122
786.472
786.415
786.3414
786.2514
786.1453
786.0236
785.8871
785.7366
785.5731