/*--------------------------------*- C++ -*----------------------------------*\
| =========                 |                                                 |
| \\      /  F ield         | OpenFOAM: The Open Source CFD Toolbox           |
|  \\    /   O peration     | Version:  2312                                  |
|   \\  /    A nd           | Website:  www.openfoam.com                      |
|    \\/     M anipulation  |                                                 |
\*---------------------------------------------------------------------------*/
FoamFile
{
    version     2.0;
    format      ascii;
    arch        "LSB;label=32;scalar=64";
    class       volScalarField;
    location    "5700";
    object      k;
}
// * * * * * * * * * * * * * * * * * * * * * * * * * * * * * * * * * * * * * //

dimensions      [0 2 -2 0 0 0 0];

internalField   nonuniform List<scalar> 
12000
(
0.001577621
0.00349542
0.004169056
0.00493483
0.005587821
0.006202157
0.006724132
0.00720266
0.007650367
0.008079244
0.008453614
0.008779224
0.009087139
0.00939433
0.009669864
0.009894761
0.01010139
0.01031042
0.01050445
0.01065228
0.01077866
0.01090838
0.01102897
0.01111027
0.01116836
0.01122788
0.01127876
0.01129482
0.01129835
0.0112983
0.01127983
0.01125252
0.01120553
0.01114725
0.01101129
0.01086542
0.01076326
0.01070582
0.0105485
0.01024203
0.009843891
0.009618301
0.009591084
0.009537582
0.009004822
0.008361578
0.008126983
0.008069793
0.007933653
0.007067711
0.006507975
0.006324318
0.006076618
0.005449659
0.004835369
0.004367085
0.003870559
0.003374023
0.002841027
0.00270814
0.001714724
0.004334686
0.00498697
0.005651914
0.006373391
0.007364222
0.00849122
0.009414294
0.01020888
0.01127553
0.01258562
0.01369053
0.01416589
0.0148566
0.01605294
0.01710357
0.01754715
0.01792365
0.01886611
0.0197788
0.02021875
0.02047661
0.02119229
0.02193227
0.02233656
0.02257375
0.02309149
0.02363742
0.02399852
0.02427031
0.02458711
0.0249204
0.02523593
0.02550218
0.02570584
0.02585308
0.02599184
0.02610006
0.02618421
0.02622721
0.0262246
0.02619819
0.02581405
0.02532961
0.02502579
0.02464579
0.02426033
0.02310637
0.02203068
0.02126951
0.02047281
0.01917385
0.01731923
0.01582254
0.01462575
0.01245499
0.009753215
0.007209827
0.005021958
0.004985366
0.002575351
0.005394214
0.0067075
0.007992042
0.009528693
0.01119045
0.01296036
0.01459957
0.01602161
0.01738175
0.01860402
0.01966973
0.02052687
0.02132689
0.02217733
0.02297282
0.02360778
0.02414998
0.02471265
0.02528623
0.02579119
0.02622431
0.02665961
0.02712381
0.02757098
0.02797251
0.02836424
0.02877762
0.02919398
0.0295894
0.02996083
0.03031032
0.03069206
0.03109502
0.03147072
0.03181088
0.03210571
0.03237301
0.03264481
0.03291817
0.03313856
0.03325042
0.03326409
0.03324945
0.03324803
0.03316154
0.03289295
0.03242597
0.03182937
0.03112284
0.03021622
0.02913313
0.02770808
0.0259179
0.02351424
0.0206251
0.01723613
0.01264944
0.007317693
0.006598325
0.003243112
0.005773879
0.007595779
0.009502875
0.01167063
0.01386106
0.01593572
0.01775444
0.01929058
0.02066556
0.02201569
0.02315228
0.02400771
0.02472029
0.0253767
0.02596297
0.02646851
0.02690595
0.02732824
0.02774355
0.02813919
0.02851821
0.02889952
0.02929131
0.02968609
0.03007985
0.03047972
0.03089118
0.03131122
0.03173613
0.03215308
0.03254558
0.03295731
0.03339195
0.03381033
0.03420873
0.03458551
0.03493696
0.03526146
0.03555411
0.03580453
0.03599663
0.03611408
0.03613907
0.03608728
0.03596639
0.03572714
0.03533543
0.03477644
0.03405028
0.03313554
0.03183988
0.03013863
0.02815851
0.02580436
0.02306689
0.0196292
0.01528384
0.009794537
0.007971007
0.003933351
0.006257683
0.008540419
0.01094674
0.01348748
0.0158831
0.01800375
0.01980487
0.02133112
0.02260477
0.02373416
0.02473327
0.02558107
0.02624813
0.02674839
0.02717351
0.02755456
0.02791061
0.02824597
0.02857972
0.02891421
0.02925399
0.02960543
0.02997253
0.03035576
0.03075476
0.03117018
0.03160239
0.03205012
0.0325109
0.03296098
0.03341344
0.03389001
0.03437217
0.03484798
0.03531852
0.03577741
0.03621698
0.0366313
0.0370141
0.03735754
0.03765172
0.03788885
0.03804825
0.03810627
0.03808634
0.03793718
0.03767108
0.03728805
0.03665581
0.03566497
0.03438544
0.03289379
0.03111241
0.02890699
0.02609988
0.0224614
0.01767804
0.01138654
0.008989845
0.004577003
0.00664764
0.00924158
0.0119113
0.01458924
0.01703153
0.01915289
0.02094181
0.02243537
0.02365752
0.0246353
0.02542701
0.02606623
0.02663344
0.02710588
0.02746515
0.02778203
0.02808693
0.02838661
0.02868895
0.02900174
0.02933097
0.02968099
0.03005429
0.03045165
0.03087287
0.03131831
0.03178694
0.03227638
0.03278339
0.03330444
0.03383752
0.03438374
0.03494082
0.03549094
0.03603475
0.03657526
0.03710044
0.03760113
0.03806938
0.03849639
0.03887222
0.03918583
0.03942641
0.03958059
0.03959943
0.03952237
0.03932847
0.03890725
0.03820457
0.03724121
0.03602041
0.03450276
0.0326118
0.03025454
0.02732683
0.02366418
0.01896186
0.01274505
0.009795643
0.005163128
0.006985198
0.009776827
0.01255966
0.01525625
0.01766453
0.01971958
0.02142258
0.02281122
0.02392955
0.02482422
0.02554365
0.0261308
0.02661631
0.02704889
0.02742557
0.02773445
0.02802163
0.02830512
0.02859908
0.02891202
0.02925024
0.02961831
0.03001829
0.03045036
0.03091392
0.03141238
0.0319423
0.0325007
0.03308448
0.03369037
0.03431044
0.03494402
0.03558977
0.03624003
0.03688508
0.03752043
0.03814014
0.03873588
0.03929846
0.03981747
0.0402812
0.04067623
0.0409886
0.04119595
0.04129027
0.04126465
0.04102166
0.04055417
0.03986035
0.03892766
0.03771938
0.03618954
0.03428094
0.03191664
0.02897817
0.02526505
0.02041281
0.01384976
0.01044083
0.005732392
0.007298542
0.01016621
0.01294575
0.01556966
0.01788012
0.01983388
0.02146113
0.0228053
0.02390044
0.02476826
0.02545755
0.026008
0.02645052
0.02682824
0.02718988
0.02754242
0.02786529
0.02818069
0.02850891
0.02885966
0.02923823
0.02964702
0.03009846
0.03059288
0.03113018
0.03170407
0.03231273
0.03295344
0.03362278
0.03431679
0.03503356
0.03576814
0.03651093
0.03725692
0.03799942
0.03873101
0.03944373
0.04012828
0.04077407
0.041369
0.0418994
0.04235049
0.04270296
0.04295573
0.0430626
0.04299614
0.04273112
0.04225014
0.04152932
0.04054102
0.03925258
0.0376233
0.03559953
0.03310663
0.03003305
0.02619441
0.02125282
0.01466379
0.01092121
0.006364175
0.007558084
0.01042282
0.01313184
0.01565116
0.01787909
0.01979223
0.02137854
0.02266843
0.02370667
0.02454913
0.02523137
0.0257892
0.02625555
0.02666046
0.02702961
0.0273985
0.02777978
0.02816092
0.02854449
0.0289564
0.02940573
0.02989969
0.03043292
0.0310078
0.03162429
0.03228032
0.03297329
0.03369996
0.03445644
0.03523835
0.03604812
0.03687891
0.03771504
0.03855153
0.03938178
0.04019795
0.04099101
0.04175059
0.04246481
0.04312018
0.04370236
0.04419322
0.04458494
0.0448481
0.04493256
0.04483652
0.04453226
0.04399768
0.04320907
0.04214007
0.04076015
0.03903211
0.03690724
0.03431603
0.03114987
0.02722146
0.02217509
0.01541191
0.01131331
0.006428467
0.007776223
0.01061265
0.01322777
0.01563746
0.01777843
0.01960166
0.02112812
0.02238797
0.02342222
0.0242738
0.02498069
0.02557743
0.02609491
0.02656011
0.02699462
0.02741011
0.02783753
0.02829404
0.02877822
0.0292863
0.02982683
0.03040574
0.03102498
0.03168538
0.03238641
0.0331263
0.03390247
0.03471158
0.03554964
0.03641204
0.037303
0.03821527
0.03913086
0.04004396
0.0409474
0.04183274
0.04269016
0.04350842
0.04427469
0.04497466
0.04559185
0.04611165
0.04650479
0.04674057
0.04679371
0.04665017
0.04628324
0.04566992
0.04478684
0.04360934
0.04210966
0.04025391
0.03799666
0.03527111
0.03197103
0.02791296
0.02275076
0.01590797
0.01158144
0.006545504
0.007926007
0.01072688
0.01323477
0.01553628
0.01757212
0.01933261
0.02082768
0.02208426
0.02313743
0.02402417
0.02477997
0.02543708
0.02602386
0.02656454
0.02707306
0.02757958
0.02809633
0.02863814
0.02921579
0.02982196
0.03045821
0.03112847
0.03183523
0.03257967
0.03336158
0.03417954
0.03503124
0.03591354
0.03682257
0.03775377
0.03871117
0.03968791
0.04066655
0.04164041
0.0426017
0.04354129
0.04444861
0.04531151
0.046116
0.04684591
0.04748259
0.04800167
0.04837873
0.04858558
0.04860216
0.0484019
0.04795961
0.04725304
0.04626167
0.04496518
0.04334111
0.04136039
0.03898144
0.03614063
0.03273425
0.02857965
0.02332657
0.01638038
0.01179612
0.007615777
0.008068636
0.01080937
0.01322824
0.0154191
0.01737191
0.01907435
0.02053747
0.02178963
0.0228647
0.02379695
0.0246163
0.02535059
0.0260246
0.02665707
0.02727422
0.02788551
0.02850182
0.0291341
0.02979341
0.03048752
0.03121512
0.0319736
0.03276469
0.0335893
0.03444744
0.03533773
0.03625802
0.03720539
0.03817619
0.03916612
0.04017767
0.04120469
0.04223205
0.04325238
0.04425715
0.04523645
0.04617883
0.04707099
0.04789746
0.04864037
0.04927915
0.0497911
0.05015085
0.05032553
0.05029479
0.05002537
0.04949384
0.04868126
0.04757205
0.04615116
0.04440027
0.04229375
0.03979245
0.03683388
0.03331459
0.02905206
0.02369809
0.01666799
0.01192442
0.007584035
0.008171206
0.01085032
0.01317208
0.01525928
0.01712719
0.01877896
0.02022799
0.02149494
0.0226062
0.02359053
0.02447607
0.02528817
0.02604883
0.02678009
0.02749636
0.02821032
0.02893132
0.02966638
0.03042156
0.03120367
0.03201679
0.03286188
0.03373706
0.03464109
0.03557263
0.03652985
0.03751042
0.03851232
0.03953292
0.04056879
0.04162055
0.04268286
0.04374364
0.04479493
0.04582765
0.04683132
0.04779389
0.04870143
0.04953767
0.05028366
0.05091745
0.0514157
0.05174992
0.05188642
0.05180026
0.05145873
0.05083583
0.04991638
0.04869161
0.04715331
0.04528758
0.0430712
0.0404664
0.03741191
0.03380478
0.02946247
0.02403593
0.01693614
0.01202497
0.007723669
0.00824113
0.01087852
0.01310965
0.01509739
0.01689303
0.01850565
0.01994491
0.02122754
0.02237751
0.02341805
0.02437408
0.02526782
0.02611453
0.02693147
0.02773367
0.02853964
0.02936025
0.03019743
0.03105185
0.03192579
0.0328228
0.03374865
0.03470571
0.03569043
0.03669445
0.03771021
0.03873853
0.03978365
0.04084342
0.0419133
0.04299142
0.04407392
0.04515268
0.04621943
0.04726453
0.04827707
0.04924468
0.05015323
0.05098641
0.05172518
0.05234702
0.0528243
0.05312866
0.05322593
0.0530822
0.05266046
0.05194366
0.05092714
0.04960543
0.0479684
0.04600595
0.04369666
0.04100316
0.03786362
0.03417462
0.0297536
0.02425217
0.01708509
0.01206874
0.007913061
0.008299032
0.01088968
0.01304918
0.01497471
0.0167198
0.01830213
0.01973692
0.02104061
0.02222995
0.02332393
0.02433965
0.02529275
0.02620107
0.02708198
0.0279607
0.02884835
0.02975315
0.03067878
0.03162589
0.03259134
0.03357332
0.03457193
0.03558941
0.03662689
0.03768267
0.03875375
0.03983725
0.04092979
0.04202643
0.0431219
0.04421476
0.04530732
0.04639629
0.04747174
0.04852264
0.04953691
0.05050123
0.05140112
0.05222167
0.05294593
0.05355217
0.05401412
0.05429785
0.05436178
0.05416458
0.05367221
0.05286521
0.05174398
0.05032543
0.04860514
0.04656484
0.04418239
0.04141869
0.03821214
0.03446048
0.02998237
0.02442978
0.01721541
0.01209689
0.008095051
0.008345258
0.01089878
0.01300718
0.01487146
0.0165693
0.01812785
0.01956149
0.02088292
0.02210486
0.02324075
0.02430319
0.02530493
0.02626255
0.02720071
0.02814764
0.02911329
0.03010046
0.03110536
0.0321237
0.03315586
0.03420376
0.0352667
0.03634303
0.03743163
0.03853142
0.03964101
0.04075872
0.04188186
0.04300582
0.04412461
0.04523193
0.0463308
0.04742718
0.04851268
0.04957209
0.05059203
0.05155924
0.0524597
0.05327785
0.05399531
0.05458973
0.05503375
0.0552937
0.05532875
0.05509157
0.05453768
0.0536436
0.05242272
0.0509111
0.04911412
0.04700547
0.0445574
0.04173237
0.03846895
0.03466466
0.03013778
0.02453986
0.01728226
0.01209847
0.008246207
0.008389198
0.01091127
0.01297221
0.01478675
0.01644672
0.01798316
0.01941134
0.02074179
0.02198435
0.02314937
0.02424791
0.02529255
0.02629786
0.02729419
0.02830762
0.02934239
0.03039335
0.03145758
0.03253593
0.03362877
0.03473375
0.03584912
0.03697298
0.03810387
0.03924148
0.04038526
0.04153378
0.04268426
0.04383214
0.04497067
0.04609081
0.04719645
0.04829884
0.04939163
0.05045818
0.0514834
0.05245306
0.05335282
0.05416703
0.05487725
0.05546076
0.05588901
0.05612613
0.05612883
0.05585073
0.05524655
0.05429204
0.05299393
0.05139218
0.04951841
0.04734993
0.04484752
0.04197345
0.03866563
0.03482115
0.0302583
0.02462779
0.01733606
0.0120923
0.008371375
0.008437135
0.01093012
0.01294987
0.01472657
0.01635475
0.01787137
0.01929209
0.02062626
0.02188198
0.02306791
0.02419393
0.02527171
0.02631878
0.02736259
0.02842505
0.02951003
0.03061504
0.03173616
0.03286891
0.03401088
0.035161
0.03631774
0.03747968
0.03864594
0.03981602
0.0409892
0.04216413
0.04333818
0.04450677
0.04566243
0.04679358
0.04790388
0.04900873
0.05010522
0.05117655
0.05220597
0.05317821
0.05407842
0.05489061
0.05559604
0.05617159
0.05658818
0.05680923
0.05679033
0.05648193
0.05583576
0.05482487
0.05345824
0.05178366
0.04985026
0.04763513
0.04509025
0.04217573
0.03882929
0.0349481
0.03035026
0.02468755
0.01735962
0.01206831
0.008470816
0.008493324
0.01096108
0.01295049
0.01469028
0.01628841
0.01778399
0.01919326
0.02052549
0.02178812
0.02298904
0.02413749
0.02524429
0.02632627
0.02740925
0.02851285
0.02964007
0.03078713
0.03194922
0.03312278
0.03430452
0.03549147
0.03668132
0.0378733
0.03906751
0.04026368
0.04146107
0.04265812
0.04385187
0.04503744
0.04620794
0.04735548
0.04847452
0.04957671
0.05067394
0.05175192
0.05278809
0.05376573
0.05466968
0.05548369
0.05618855
0.05676043
0.05716929
0.0573774
0.05733949
0.05700402
0.05632363
0.05526885
0.05384664
0.05210631
0.0501091
0.04784296
0.0452569
0.04230527
0.03892518
0.03501359
0.03038929
0.02470576
0.01736318
0.01203511
0.008557839
0.00856391
0.01100798
0.01296293
0.01467243
0.01624334
0.0177171
0.0191123
0.02043854
0.02170355
0.02291517
0.02408227
0.02521482
0.02632586
0.027438
0.02857169
0.02972973
0.03090847
0.03210271
0.03330754
0.03451885
0.03573343
0.03694943
0.03816649
0.03938448
0.04060298
0.0418213
0.04303794
0.04425003
0.04545277
0.04663922
0.04780112
0.04893041
0.05003805
0.05113981
0.05222433
0.05326879
0.05425497
0.05516635
0.05598568
0.05669294
0.05726347
0.05766628
0.05786271
0.05780673
0.05744539
0.05673076
0.05563317
0.05416088
0.05236689
0.05031837
0.04801063
0.04539167
0.04241148
0.03900654
0.03507312
0.03042862
0.02472049
0.01736495
0.01200488
0.008627472
0.008648348
0.01107195
0.01299648
0.01467435
0.01621644
0.01766672
0.01904489
0.02036197
0.02162605
0.02284512
0.02402768
0.02518283
0.02631973
0.02745512
0.02860958
0.02978853
0.0309888
0.0322049
0.03343142
0.03466392
0.03589966
0.03713708
0.0383752
0.03961353
0.04085181
0.04208943
0.04332495
0.04455554
0.04577656
0.04698109
0.04816011
0.04930335
0.05042082
0.05153076
0.05262455
0.05367972
0.05467691
0.05559823
0.05642528
0.05713701
0.0577078
0.05810569
0.05829108
0.0582175
0.0578312
0.05708447
0.05594796
0.05443072
0.05258813
0.05049234
0.04814646
0.0454973
0.04249011
0.03906079
0.03510537
0.03044227
0.02472391
0.01735175
0.0119601
0.00869755
0.00875513
0.0111618
0.01305161
0.01469465
0.01620631
0.01763096
0.01898961
0.02029453
0.02155462
0.02277799
0.02397282
0.02514726
0.026309
0.02746556
0.02863231
0.02982327
0.03103608
0.03226544
0.03350618
0.03475405
0.036006
0.03726019
0.03851569
0.03977209
0.041029
0.04228562
0.04354034
0.04479036
0.04603111
0.04725566
0.04845445
0.04961572
0.05074755
0.0518688
0.0529738
0.0540413
0.05505098
0.05598356
0.05681933
0.05753612
0.05810728
0.05849989
0.05867352
0.05858139
0.0581692
0.05738997
0.05621549
0.05465668
0.05277151
0.05063568
0.04825768
0.04558315
0.04255377
0.03910488
0.03513192
0.03045249
0.02472106
0.01733769
0.01192673
0.008762398
0.008881151
0.0112697
0.01312308
0.01473044
0.01620928
0.01760664
0.01894388
0.02023432
0.02148753
0.0227118
0.02391489
0.0251041
0.02628593
0.02746545
0.02864819
0.02984366
0.03106198
0.03229834
0.03354731
0.03480502
0.0360687
0.0373365
0.03860728
0.03988033
0.04115494
0.04243011
0.04370407
0.04497389
0.0462351
0.04748115
0.04870264
0.0498862
0.05103491
0.05216818
0.05328627
0.05436825
0.05539157
0.05633589
0.05718055
0.05790231
0.05847344
0.05886006
0.05902099
0.05890926
0.0584704
0.05765856
0.05644717
0.05484938
0.05292569
0.05075466
0.04834834
0.04565103
0.04260159
0.03913492
0.03514605
0.03045203
0.02470728
0.01731297
0.01188161
0.00883855
0.009029934
0.01140921
0.01321989
0.01478542
0.01622734
0.01759328
0.01890673
0.02018013
0.02142352
0.02264511
0.02385222
0.02505141
0.02624829
0.02744737
0.02864924
0.02985925
0.0310795
0.03231628
0.03356934
0.03483372
0.03610583
0.037384
0.03866737
0.03995525
0.04124657
0.04253986
0.04383307
0.04512298
0.04640473
0.04767154
0.04891487
0.05012573
0.05129856
0.05244472
0.05357438
0.05467096
0.05570853
0.05666498
0.05751847
0.05824472
0.05881501
0.05919453
0.05934146
0.05920878
0.05874216
0.0578972
0.05664952
0.05501498
0.05305672
0.05085538
0.04842479
0.04570786
0.04264146
0.03915997
0.03515804
0.03045281
0.02469736
0.01729514
0.01185149
0.008861755
0.009210865
0.01156686
0.01333252
0.0148554
0.01625954
0.01759354
0.01887938
0.0201324
0.02136247
0.02257744
0.02378407
0.02498816
0.02619449
0.02740673
0.02862722
0.02985466
0.03109041
0.03233461
0.03358728
0.03485282
0.03613082
0.03741819
0.03871303
0.04001386
0.04131971
0.04262953
0.04394108
0.04525081
0.04655357
0.04784245
0.04910896
0.05034422
0.05154062
0.05270613
0.05385119
0.05496169
0.0560124
0.05698018
0.05784177
0.0585716
0.05913985
0.05951085
0.05964223
0.05948705
0.05899147
0.05811281
0.05682923
0.05515966
0.05316995
0.05094222
0.04849048
0.04575611
0.04267453
0.03917953
0.03516526
0.03044847
0.02468138
0.01726965
0.0118125
0.008902917
0.00940401
0.01175469
0.01347111
0.01494478
0.0163053
0.01760176
0.01885921
0.02008999
0.0213041
0.02250919
0.02371151
0.02491616
0.02612717
0.0273474
0.02857847
0.02982075
0.03107398
0.03233548
0.03360583
0.03488194
0.03616416
0.03745614
0.03875914
0.0400709
0.04139006
0.0427153
0.04404416
0.0453728
0.04669589
0.04800663
0.04929669
0.05055652
0.05177643
0.05296216
0.05412375
0.05524844
0.05631167
0.05728965
0.05815792
0.05888969
0.05945407
0.05981461
0.05992851
0.05974903
0.05922314
0.05831013
0.05699103
0.05528812
0.0532699
0.0510194
0.04854954
0.04580011
0.04270561
0.03919924
0.0351746
0.03044809
0.02467227
0.01725338
0.01178832
0.009314812
0.009631318
0.011962
0.01362877
0.01505023
0.01636519
0.01762331
0.01884849
0.02005456
0.02125034
0.02244316
0.02363869
0.02484141
0.02605471
0.02728089
0.02852106
0.02977531
0.03104289
0.03232239
0.03361093
0.03490736
0.03620929
0.03751449
0.03882421
0.04014359
0.04147385
0.04281254
0.04415675
0.04550254
0.04684445
0.04817552
0.04948737
0.05077036
0.05201399
0.05322099
0.05439929
0.05553734
0.05661179
0.05759833
0.05847138
0.05920298
0.05976127
0.06010914
0.0602035
0.05999794
0.05944055
0.05849274
0.05713865
0.05540403
0.05336001
0.05108998
0.04860457
0.04584189
0.0427359
0.03921914
0.03518448
0.03044725
0.02466165
0.01723371
0.0117585
0.009779581
0.009899136
0.01218902
0.01381134
0.01517488
0.01644079
0.01765788
0.01884943
0.02002847
0.02120418
0.0223832
0.02357062
0.02477031
0.02598505
0.02721655
0.0284654
0.02973125
0.03101295
0.0323087
0.03361608
0.03493283
0.03625645
0.03758452
0.03891456
0.04024537
0.04158194
0.04292976
0.04428614
0.04564646
0.04700489
0.0483543
0.0496863
0.0509911
0.05225747
0.05348511
0.05467957
0.05583024
0.05691466
0.057908
0.05878371
0.05951286
0.06006278
0.06039578
0.0604687
0.06023551
0.05964577
0.05866312
0.05727494
0.05551054
0.05344348
0.05115701
0.04865852
0.04588445
0.04276866
0.03924319
0.03520057
0.03045601
0.02466055
0.01722378
0.0117431
0.01004448
0.01017344
0.01242756
0.01400726
0.0153118
0.01652819
0.01770318
0.01885991
0.02001187
0.02116767
0.02233298
0.02351246
0.0247094
0.02592599
0.02716338
0.02842162
0.02969987
0.03099666
0.03230939
0.03363484
0.03497156
0.03631671
0.03766727
0.03902027
0.04037294
0.04172311
0.04307601
0.04443921
0.0458098
0.04718135
0.04854604
0.04989506
0.05121905
0.05250902
0.05375787
0.05496529
0.05612653
0.05722025
0.05821895
0.05909526
0.05981967
0.06035898
0.06067518
0.06072517
0.06046338
0.059841
0.05882389
0.05740274
0.05561046
0.05352296
0.05122284
0.04871334
0.04592914
0.04280433
0.03927044
0.03521934
0.03046556
0.02465957
0.01721382
0.01172367
0.01012096
0.01044927
0.01268218
0.01421853
0.01546805
0.01663121
0.0177634
0.01888612
0.02001215
0.02114678
0.02229865
0.02347112
0.02466668
0.02588673
0.02713168
0.02840095
0.02969236
0.0310028
0.03233168
0.03367665
0.03503362
0.03639966
0.03777132
0.03914565
0.04051968
0.04189092
0.04325699
0.04462386
0.04599938
0.04737921
0.04875536
0.05011859
0.05145922
0.05276779
0.05403531
0.05525799
0.05642961
0.05752974
0.05853119
0.05940586
0.06012347
0.06065026
0.06094793
0.06097353
0.06068207
0.06002691
0.0589762
0.05752393
0.05570631
0.05360116
0.05129003
0.04877136
0.04597827
0.0428456
0.03930443
0.03524622
0.03048505
0.02467121
0.01721291
0.01171539
0.01015632
0.01072104
0.01294156
0.01443671
0.01563443
0.01674548
0.01783589
0.01892539
0.02002577
0.02114703
0.02228901
0.0234571
0.0246535
0.02587858
0.02713126
0.02840909
0.02971285
0.03104055
0.03238769
0.03375107
0.03512739
0.03651295
0.03790438
0.03929813
0.0406915
0.04208159
0.04346582
0.04484316
0.04622008
0.04760266
0.04898524
0.05035865
0.05171275
0.05303698
0.05432057
0.05555695
0.05673787
0.05784294
0.05884519
0.05971605
0.06042458
0.06093664
0.06121411
0.06121478
0.06089411
0.06020715
0.05912396
0.05764183
0.05580056
0.05368014
0.05136077
0.04883437
0.04603279
0.04289253
0.03934408
0.03527818
0.03050817
0.0246837
0.01721552
0.01170599
0.01030363
0.01101548
0.01322044
0.0146733
0.01581685
0.01687491
0.01792438
0.01898233
0.02005946
0.02116227
0.02229652
0.02346272
0.02466152
0.02589292
0.02715625
0.0284505
0.0297712
0.03111568
0.03248056
0.03386222
0.03525678
0.03666021
0.03806893
0.03947991
0.04089024
0.04229698
0.04369744
0.04508908
0.04647232
0.04785397
0.04923784
0.05061678
0.05198026
0.05331677
0.05461438
0.05586356
0.0570529
0.05816165
0.05916312
0.06002848
0.06072663
0.06122344
0.06148053
0.06145515
0.06110321
0.06038401
0.05927004
0.05776127
0.05589964
0.05376558
0.05143773
0.04890382
0.04609442
0.04294728
0.03939215
0.0353191
0.03054082
0.02470614
0.01722489
0.01170555
0.01040902
0.01129784
0.01350236
0.01491914
0.01601127
0.01701743
0.01802793
0.01905791
0.02011655
0.02120921
0.0223389
0.02350652
0.02471182
0.02595363
0.02722993
0.02853787
0.02987406
0.03123487
0.03261652
0.03401494
0.03542576
0.03684524
0.03826971
0.0396961
0.04112114
0.04254193
0.04395572
0.04535991
0.04675194
0.04813509
0.04951689
0.05089665
0.05226516
0.05361029
0.05491898
0.05617885
0.05737512
0.05848615
0.05948558
0.06034451
0.06103131
0.06151082
0.06174479
0.06169212
0.06131029
0.06056027
0.05941659
0.05788194
0.05600028
0.05385319
0.05151829
0.04897858
0.04616294
0.04300933
0.039447
0.03536578
0.03057802
0.02473206
0.017238
0.01170817
0.01060081
0.01160964
0.0138043
0.01517577
0.01621567
0.01717572
0.01815275
0.01915896
0.02020261
0.021288
0.02241679
0.02358882
0.02480274
0.02605625
0.02734632
0.02866934
0.0300214
0.03139813
0.03279509
0.03420782
0.0356325
0.03706542
0.03850327
0.03994253
0.04138001
0.04281274
0.0442379
0.04565283
0.04705494
0.04844185
0.04981992
0.05119714
0.05256684
0.05391683
0.05523325
0.05650121
0.05770263
0.05881462
0.05981033
0.06066009
0.06133208
0.06179215
0.06200287
0.06192416
0.0615139
0.06073393
0.0595605
0.05799953
0.05609895
0.053942
0.05160306
0.04905888
0.0462372
0.04307737
0.03950879
0.03542052
0.03062401
0.02476668
0.01725846
0.01171613
0.0106956
0.01189251
0.0141011
0.01544538
0.0164423
0.01735569
0.01830105
0.01928824
0.02032248
0.02140584
0.0225382
0.02371799
0.02494263
0.02620885
0.0275128
0.02885034
0.03021673
0.03160719
0.03301696
0.03444193
0.03587837
0.03732272
0.03877151
0.04022127
0.04166875
0.04311088
0.04454478
0.04596765
0.04737681
0.04876956
0.05014802
0.05152013
0.05288714
0.05423793
0.05555796
0.05683085
0.0580353
0.05914584
0.06013473
0.06097261
0.06162834
0.06206832
0.06225526
0.06214991
0.06171098
0.06090216
0.05970203
0.05811876
0.05620198
0.05403539
0.05169192
0.04914307
0.04631506
0.04314884
0.0395732
0.03547718
0.03067182
0.0248034
0.01728105
0.01172242
0.01085754
0.01220061
0.01442068
0.0157302
0.01668198
0.01755889
0.0184796
0.01945222
0.0204804
0.02156451
0.02270273
0.02389194
0.02512828
0.02640737
0.02772447
0.02907472
0.03045315
0.0318551
0.0332762
0.03471261
0.03616014
0.03761489
0.03907316
0.0405316
0.04198703
0.04343646
0.044877
0.04630586
0.0477203
0.0491176
0.05049597
0.0518626
0.0532249
0.05457324
0.05589314
0.05716734
0.05837165
0.05947822
0.06045865
0.06128364
0.0619223
0.06234139
0.06250426
0.06237277
0.06190656
0.06107051
0.05984501
0.05824063
0.05630943
0.05413592
0.05179054
0.04923817
0.04640412
0.04323159
0.03964894
0.03554483
0.03072961
0.02484865
0.01730825
0.01173429
0.01123367
0.0124937
0.01473397
0.01601871
0.0169324
0.01777566
0.01867509
0.01963753
0.02066379
0.02175202
0.0228986
0.02409897
0.02534805
0.02664054
0.027971
0.02933409
0.03072486
0.03213862
0.03357099
0.03501763
0.03647446
0.03793765
0.03940361
0.04086901
0.04233069
0.04378566
0.04523103
0.04666397
0.04808172
0.04948146
0.05086033
0.05222319
0.05357878
0.05492156
0.05623804
0.05751053
0.05871237
0.05981326
0.06078379
0.06159459
0.06221533
0.0626135
0.06275307
0.06259666
0.06210472
0.06124335
0.05999457
0.05837093
0.05642618
0.05424538
0.05189709
0.04934026
0.04649921
0.04331944
0.03972927
0.03561704
0.03079275
0.02490082
0.01734576
0.01175102
0.01097143
0.01280577
0.01506301
0.01632143
0.017202
0.01802079
0.01890495
0.01986309
0.02089238
0.0219885
0.02314601
0.02435893
0.02562117
0.02692672
0.02826972
0.02964465
0.0310464
0.03247008
0.03391112
0.03536525
0.03682856
0.03829736
0.03976819
0.04123778
0.04270305
0.044161
0.04560881
0.04704365
0.04846258
0.04986267
0.05124095
0.05259983
0.05394759
0.05528286
0.05659353
0.05786185
0.05905889
0.06015207
0.06111105
0.06190655
0.06250877
0.06288583
0.06300236
0.06282166
0.06230497
0.06141949
0.06014872
0.05850709
0.05655
0.05436262
0.0520112
0.04944998
0.0466024
0.04341544
0.0398171
0.03569524
0.03085904
0.02495201
0.01737874
0.01176649
0.01084395
0.01306135
0.01538438
0.01663237
0.017491
0.01829345
0.01916827
0.02012682
0.0211627
0.02226915
0.02343897
0.02466493
0.0259401
0.0272579
0.02861217
0.02999722
0.03140783
0.03283919
0.0342868
0.03574653
0.03721452
0.0386872
0.04016118
0.04163329
0.04310051
0.04455992
0.04600854
0.04744341
0.04886165
0.05026038
0.05163655
0.05299065
0.05433056
0.05565785
0.05696135
0.05822332
0.05941313
0.06049638
0.06144197
0.06222076
0.0628035
0.06315902
0.06325262
0.06304811
0.06250747
0.06159882
0.06030704
0.05864825
0.05667925
0.05448528
0.05213035
0.04956387
0.04670875
0.04351395
0.03990739
0.03577672
0.03093081
0.02501211
0.01742187
0.01178969
0.0111905
0.01332043
0.01570664
0.01695513
0.01780034
0.01859324
0.01946387
0.02042679
0.0214721
0.02259067
0.02377369
0.02501288
0.02630063
0.02762994
0.02899446
0.03038843
0.03180664
0.03324431
0.03469711
0.03616102
0.03763228
0.03910743
0.04058319
0.04205648
0.0435242
0.04498335
0.046431
0.04786425
0.04928012
0.05067564
0.0520478
0.05339617
0.0547284
0.05604723
0.05734231
0.05859591
0.05977601
0.06084687
0.061777
0.06253754
0.06309986
0.06343344
0.06350423
0.0632764
0.0627126
0.06178177
0.06047005
0.05879516
0.05681517
0.05461497
0.0522554
0.04968279
0.04682012
0.04361738
0.04000216
0.03586162
0.03100389
0.02507043
0.01746204
0.0118095
0.01177922
0.01362885
0.01604663
0.01729778
0.01813576
0.01892489
0.01979555
0.02076607
0.02182299
0.02295488
0.02415149
0.02540364
0.02670318
0.02804286
0.02941624
0.03081758
0.03224176
0.03368413
0.0351405
0.03660701
0.03808001
0.03955613
0.04103218
0.04250502
0.04397163
0.04542898
0.04687411
0.04830415
0.04971617
0.05110707
0.05247367
0.05381549
0.05514005
0.05644984
0.05773489
0.0589778
0.06014566
0.0612018
0.0621146
0.06285559
0.06339675
0.06370817
0.06375641
0.06350585
0.06291968
0.06196757
0.06063679
0.05894663
0.05695653
0.05475068
0.05238495
0.04980487
0.04693466
0.04372405
0.04010038
0.03595051
0.03108221
0.02513568
0.01750925
0.01183682
0.01207832
0.01393258
0.01638753
0.01765244
0.01849312
0.01928594
0.02016184
0.02114342
0.02221393
0.02336002
0.02457027
0.02583482
0.0271452
0.02849406
0.02987496
0.03128228
0.03271101
0.0341567
0.03561528
0.03708303
0.03855641
0.04003212
0.04150694
0.0429778
0.0444417
0.04589571
0.04733695
0.04876238
0.05016895
0.05155353
0.05291297
0.0542472
0.05556368
0.0568638
0.05813761
0.05936789
0.06052121
0.06156047
0.06245422
0.06317454
0.06369402
0.06398304
0.0640091
0.06373644
0.06312871
0.06215617
0.06080719
0.05910256
0.05710281
0.05489132
0.05251932
0.04993155
0.04705339
0.04383433
0.04020146
0.03604124
0.03116073
0.0251994
0.01755445
0.01185869
0.01219898
0.01419834
0.01672985
0.01802347
0.01887651
0.01967933
0.02056442
0.02155947
0.0226448
0.02380539
0.02502888
0.026305
0.0276251
0.02898182
0.03036885
0.0317807
0.03321256
0.03466012
0.03611947
0.037587
0.03905928
0.04053311
0.04200533
0.04347292
0.04493284
0.04638221
0.047818
0.04923722
0.05063677
0.05201355
0.05336439
0.0546901
0.0559981
0.05728791
0.05854928
0.05976511
0.06090177
0.0619222
0.06279546
0.06349427
0.06399184
0.06425774
0.06426218
0.0639681
0.06333956
0.06234737
0.06098092
0.05926235
0.05725321
0.05503598
0.05265746
0.05006174
0.04717532
0.04394759
0.04030547
0.03613519
0.03124327
0.02526809
0.01760448
0.01188461
0.01259763
0.01446304
0.01707367
0.01840958
0.01928491
0.02010424
0.02100242
0.02201313
0.0231142
0.02428927
0.02552539
0.02681206
0.02814065
0.0295039
0.03089567
0.03231068
0.0337443
0.0351924
0.03665123
0.03811729
0.03958723
0.04105784
0.04252608
0.04398898
0.04544359
0.04688688
0.04831586
0.04972748
0.05111867
0.05248629
0.05382717
0.05514338
0.0564423
0.05772091
0.05896868
0.06016851
0.06128664
0.06228646
0.06313783
0.06381429
0.06428953
0.06453324
0.06451619
0.06420115
0.06355239
0.06254117
0.0611578
0.05942568
0.05740721
0.05518396
0.05279864
0.05019466
0.0472996
0.04406274
0.04041082
0.03622971
0.0313254
0.02533535
0.01765288
0.0119057
0.01234182
0.01474923
0.01743766
0.01881975
0.01972324
0.02056325
0.0214766
0.02250393
0.02362085
0.02480996
0.02605784
0.02735393
0.02868972
0.03005816
0.03145334
0.03287021
0.03430433
0.03575174
0.03720882
0.03867214
0.04013847
0.04160471