/*--------------------------------*- C++ -*----------------------------------*\
| =========                 |                                                 |
| \\      /  F ield         | OpenFOAM: The Open Source CFD Toolbox           |
|  \\    /   O peration     | Version:  2312                                  |
|   \\  /    A nd           | Website:  www.openfoam.com                      |
|    \\/     M anipulation  |                                                 |
\*---------------------------------------------------------------------------*/
FoamFile
{
    version     2.0;
    format      ascii;
    arch        "LSB;label=32;scalar=64";
    class       volScalarField;
    location    "5700";
    object      nut;
}
// * * * * * * * * * * * * * * * * * * * * * * * * * * * * * * * * * * * * * //

dimensions      [0 2 -1 0 0 0 0];

internalField   nonuniform List<scalar> 
12000
(
3.045543e-05
0.0001754044
0.0002029045
0.0002218614
0.0002161253
0.0001968486
0.0001965594
0.0002379198
0.0002672954
0.00021517
0.000177151
0.0002003493
0.0002689784
0.0002384906
0.0001792944
0.0001802839
0.0002380044
0.0002433996
0.0001846728
0.0001742451
0.0002166788
0.0002328051
0.0001868967
0.000174071
0.0002033607
0.0002170062
0.0001884228
0.0001790712
0.0001940866
0.000200211
0.0001908803
0.0001858239
0.0001827534
0.0001813397
0.000189733
0.0002023918
0.0001932323
0.0001700713
0.0001608534
0.0001809225
0.0002262079
0.0002119334
0.0001532161
0.0001333308
0.0001665297
0.0002754315
0.0002190968
0.000125246
0.0001218182
0.0001930577
0.0002738013
0.0001367047
0.0001093438
0.0001437097
0.0001730794
0.0001270764
9.346575e-05
8.255969e-05
7.530868e-05
5.997184e-05
1.874113e-05
0.0002113139
0.0002378083
0.0002912724
0.0003267004
0.0003734652
0.0004307648
0.000488139
0.0005411549
0.0006131043
0.0007057648
0.0007923961
0.0008419315
0.0009103723
0.001025312
0.001136248
0.001188012
0.00124195
0.001362381
0.001490041
0.001543975
0.001584574
0.001700261
0.001829436
0.001880406
0.001910686
0.00200497
0.002109139
0.002151757
0.002180394
0.002232039
0.002290528
0.00232764
0.002351736
0.002354374
0.002344175
0.002348597
0.002356632
0.002353721
0.002301825
0.002224208
0.00206106
0.001847723
0.002104803
0.001986139
0.001830784
0.001375914
0.001321286
0.001545045
0.001364859
0.001209702
0.0009607075
0.0009467304
0.0007849262
0.0006528169
0.000505698
0.0003458728
0.0002077369
0.0001053296
5.689358e-05
2.738003e-05
0.0002665765
0.0003747393
0.0004574368
0.0005631359
0.0006887136
0.0008318503
0.0009846142
0.001141123
0.001310434
0.00148675
0.001657288
0.00181859
0.001983126
0.002153391
0.00231539
0.002460706
0.002603466
0.002747848
0.00288212
0.00299923
0.003111333
0.003222842
0.003323999
0.003410012
0.003490115
0.003567495
0.003635602
0.003692045
0.003742508
0.003786604
0.00382351
0.003853675
0.00387616
0.003890246
0.003895998
0.003894387
0.003884579
0.003865933
0.003837785
0.003800422
0.003752481
0.003691685
0.003616053
0.003535115
0.003440806
0.003228835
0.003105829
0.002945532
0.002716886
0.002545719
0.002182607
0.001940276
0.001575067
0.001355284
0.001263571
0.0008764839
0.0004881825
0.00017654
5.628737e-05
3.285333e-05
0.0002966225
0.0004709547
0.0006102052
0.0007905101
0.0009970012
0.001221985
0.0014587
0.0017024
0.001949548
0.002201608
0.002448742
0.002661351
0.002903251
0.003110117
0.003304905
0.003486057
0.003654943
0.003811578
0.003956134
0.004089151
0.00421206
0.004325251
0.004428657
0.004522826
0.004608649
0.004686254
0.004753605
0.004816661
0.004870069
0.004914857
0.00495091
0.004979411
0.004999485
0.005010408
0.005011067
0.005001058
0.004979869
0.004946842
0.004901172
0.004841863
0.004767727
0.004677463
0.004568518
0.004442212
0.004296958
0.004130592
0.003940028
0.003724428
0.003483845
0.002875335
0.002420332
0.002269448
0.002049026
0.001892407
0.001492606
0.001070852
0.0006423693
0.0002582518
5.762449e-05
3.345178e-05
0.0003348232
0.0005761773
0.0007770075
0.001024146
0.001298379
0.001590203
0.001892183
0.002197696
0.002497868
0.00278953
0.003073125
0.003344287
0.003597763
0.003830504
0.004044206
0.004241593
0.004424718
0.004593424
0.004748955
0.004892647
0.005025369
0.00514778
0.005260554
0.005364263
0.005459251
0.005544159
0.005622249
0.005692034
0.005752588
0.005803332
0.005844915
0.00587765
0.0059007
0.005913216
0.005915062
0.005905501
0.005883871
0.005849495
0.00580168
0.005739659
0.005662536
0.005569392
0.005458895
0.005327537
0.005179763
0.005009216
0.004814792
0.004595874
0.003857031
0.003525838
0.00346947
0.003259418
0.002887919
0.002466806
0.001958865
0.001404597
0.0008313861
0.0003213968
5.776676e-05
3.454489e-05
0.0003537988
0.00066978
0.0009255717
0.001223404
0.001548802
0.001890911
0.002240162
0.002587444
0.002924546
0.003245748
0.003549911
0.003836069
0.004104907
0.004356376
0.004588556
0.004801686
0.004998909
0.00518179
0.005351506
0.005509137
0.005655529
0.005791308
0.005916932
0.006032678
0.006138661
0.006233198
0.006321315
0.006398764
0.006465816
0.006522277
0.006568243
0.006603382
0.00662708
0.006638413
0.006637255
0.006622803
0.006594399
0.006551211
0.006492376
0.006416962
0.006323922
0.006212078
0.006080137
0.005926733
0.00574912
0.005547398
0.005320041
0.005062575
0.004769054
0.004433885
0.004057374
0.003641424
0.003184265
0.002682671
0.002135941
0.001550176
0.0009438396
0.0003823225
5.819301e-05
3.566089e-05
0.0003716453
0.0007509813
0.001056058
0.001392414
0.001753743
0.002128003
0.002504429
0.002874187
0.003231272
0.003572258
0.003895505
0.00420055
0.004487554
0.004755297
0.005005253
0.005237359
0.005452435
0.005652046
0.00583767
0.006010499
0.006171457
0.006321261
0.006460225
0.006588376
0.006702632
0.00681099
0.006908193
0.006993936
0.007068052
0.007130261
0.0071801
0.007217727
0.007242342
0.007253357
0.007250383
0.007232601
0.007199444
0.007150323
0.007084566
0.007001396
0.006899901
0.006779008
0.00663749
0.006473729
0.006284391
0.006072818
0.005831705
0.005556613
0.005244533
0.00489338
0.004499963
0.004059704
0.00356778
0.003020345
0.002415932
0.001758758
0.00107072
0.0004321289
5.851024e-05
3.706653e-05
0.000383992
0.0008159426
0.001163972
0.001526751
0.001908693
0.002300159
0.00269356
0.003082101
0.003459326
0.003818564
0.004158431
0.00447803
0.004776685
0.005057582
0.00532221
0.005572012
0.005806649
0.00602626
0.006231721
0.006423554
0.006601939
0.006766836
0.006920761
0.007063669
0.007194287
0.007314811
0.007422598
0.007517432
0.007599013
0.007666972
0.007720974
0.007761268
0.007786904
0.00779721
0.007791642
0.007769645
0.007730692
0.007674228
0.00759962
0.007506111
0.007392755
0.007258347
0.00710153
0.006921295
0.006714021
0.00648057
0.006215011
0.00591452
0.005576284
0.005197067
0.004772968
0.004300129
0.00377504
0.003195007
0.002559375
0.001872591
0.001153646
0.0004763583
5.866032e-05
3.916723e-05
0.0003959567
0.0008634815
0.001248055
0.001630771
0.002028022
0.002435407
0.002841789
0.003239484
0.003623738
0.003993317
0.004345677
0.004679863
0.004995936
0.005294771
0.005577178
0.00584476
0.006098671
0.006338111
0.006561717
0.00677248
0.006970915
0.007157694
0.007330962
0.007487941
0.007635184
0.007768411
0.007887338
0.007991632
0.008080914
0.008154771
0.008212961
0.00825558
0.00828174
0.00829074
0.008281979
0.008254931
0.008209153
0.008144226
0.008059732
0.007955252
0.007830369
0.007682878
0.007512044
0.007317288
0.007095149
0.006845537
0.00656442
0.00624833
0.005894106
0.005498812
0.005057067
0.004564121
0.004015277
0.003406283
0.002735068
0.002005468
0.001238277
0.0005137254
5.890221e-05
3.81144e-05
0.0004166351
0.0009012645
0.001314925
0.001714054
0.002121431
0.002533215
0.002944183
0.0033482
0.003741134
0.004120587
0.004484965
0.004833571
0.005166375
0.005483748
0.005786045
0.006071963
0.006343076
0.006602055
0.006849634
0.007083169
0.007302713
0.007508135
0.007699047
0.007873792
0.008035271
0.008181207
0.008311171
0.008424736
0.008521463
0.008600908
0.008662839
0.00870721
0.008733304
0.008740617
0.008728086
0.008694913
0.008640842
0.008565514
0.008468478
0.008349187
0.008206975
0.008042946
0.007856223
0.007644501
0.007405299
0.007137709
0.006838951
0.006506794
0.006137022
0.005723152
0.005259529
0.004743187
0.004170202
0.003536521
0.002840853
0.002087506
0.00129617
0.0005442321
5.890742e-05
3.774773e-05
0.0004162228
0.0009186214
0.001359661
0.001774623
0.002187195
0.002602083
0.003015789
0.00342396
0.003823255
0.004211451
0.004587137
0.004949534
0.005298285
0.00563323
0.005952926
0.006260346
0.00655497
0.006835954
0.007103631
0.007357341
0.007596413
0.007820227
0.008028229
0.00821966
0.008394908
0.008553012
0.008693444
0.008815689
0.008919231
0.009003549
0.009068298
0.00911316
0.009137329
0.009140151
0.009121786
0.00908225
0.009020969
0.008937462
0.008831276
0.008701947
0.00854896
0.008371657
0.00816919
0.00794029
0.007684392
0.007399732
0.007083816
0.006733419
0.006344665
0.005913897
0.005437901
0.004908423
0.004319496
0.003666932
0.002949122
0.00217003
0.001350159
0.0005699557
5.902523e-05
4.304859e-05
0.0003924232
0.0009193036
0.001389311
0.001819578
0.002238424
0.002654958
0.003069461
0.003479744
0.003883479
0.004278805
0.004664348
0.00503919
0.005402711
0.00575389
0.006094104
0.006421803
0.006736409
0.007037192
0.007323673
0.00759545
0.007851887
0.00809222
0.008314568
0.008520804
0.008709044
0.008878676
0.009029079
0.009159644
0.009269774
0.009358879
0.009426488
0.009472201
0.009495573
0.009496194
0.009473652
0.009427547
0.009357551
0.009263355
0.009144678
0.009001265
0.008832854
0.008639156
0.008419827
0.008173476
0.00790122
0.007600958
0.007270787
0.006907674
0.006507324
0.006064368
0.005572863
0.005027713
0.004422748
0.003753331
0.003018833
0.002223277
0.001386971
0.0005893174
5.896209e-05
4.220264e-05
0.0003948759
0.0009174687
0.001404527
0.001846646
0.002270275
0.002688318
0.003103925
0.00351639
0.003924079
0.004325486
0.004719502
0.005105236
0.005481831
0.005848743
0.006204377
0.006547414
0.006877171
0.007193583
0.007496157
0.007784312
0.008057506
0.00831534
0.00855565
0.008777218
0.008978758
0.009159501
0.009318756
0.009456066
0.009571014
0.00966317
0.00973221
0.009777793
0.009799336
0.009796373
0.009768496
0.009715356
0.009636663
0.009532188
0.009401759
0.009245261
0.009062629
0.008853842
0.008618797
0.008356775
0.008068551
0.007753481
0.007410468
0.007036616
0.0066271
0.00617588
0.005676382
0.005121993
0.004507264
0.003828026
0.003081077
0.002270817
0.001418297
0.0006047629
5.900698e-05
4.258004e-05
0.0003867027
0.0009064637
0.001406438
0.00185933
0.00228818
0.002707414
0.003122807
0.003535712
0.003945741
0.004351859
0.004752784
0.005146931
0.005531385
0.00590407
0.006160877
0.00631531
0.006513908
0.006771684
0.007105247
0.00746904
0.007829584
0.008113295
0.008373976
0.008649115
0.008987744
0.009335802
0.009549944
0.009693
0.009812709
0.009908279
0.009979071
0.01002458
0.01004436
0.01003801
0.01000519
0.009945607
0.00985906
0.009745381
0.009604443
0.009436218
0.00924079
0.009018367
0.008750388
0.008359836
0.007967946
0.007668474
0.007431192
0.007121799
0.006708418
0.006253567
0.005749673
0.005189757
0.004567701
0.003879049
0.003122002
0.002301604
0.001439041
0.0006154496
5.893063e-05
4.335949e-05
0.0003770325
0.0008906941
0.001399287
0.00186365
0.002299669
0.002722256
0.003139167
0.003553274
0.003964863
0.004372963
0.004775744
0.005170719
0.005551418
0.005761759
0.005947051
0.006128481
0.006300585
0.006493979
0.00671363
0.007014124
0.007351005
0.007722522
0.008060245
0.008375405
0.008667179
0.008953527
0.009231031
0.009500644
0.009766912
0.01001458
0.01016484
0.01021031
0.01022864
0.01021946
0.01018246
0.01011747
0.01002442
0.009893597
0.009688157
0.009432223
0.009126946
0.00876261
0.008376388
0.008018178
0.007705348
0.007429513
0.007179589
0.006994049
0.006757927
0.006304568
0.005800102
0.00523777
0.004611717
0.003917598
0.003154203
0.002326044
0.001454849
0.0006230515
5.892372e-05
4.416055e-05
0.0003681329
0.0008737945
0.001388948
0.001862931
0.00230536
0.002731356
0.00314975
0.003564361
0.003976072
0.004384104
0.004786686
0.00518138
0.005562292
0.005753283
0.005882954
0.006004514
0.006152121
0.006373305
0.006644729
0.006919081
0.007198671
0.00749938
0.007813826
0.008128535
0.008432703
0.00871736
0.008975928
0.009212819
0.009443104
0.009677334
0.009918853
0.009993885
0.009926916
0.009883722
0.009832829
0.009759171
0.009654203
0.009512015
0.009328145
0.009101015
0.008831547
0.008521358
0.008173537
0.007795927
0.00743621
0.007141933
0.006961683
0.006856061
0.006729268
0.006338409
0.005834662
0.00527114
0.00464227
0.00394412
0.003175582
0.002341966
0.001465232
0.0006279781
5.886632e-05
4.487013e-05
0.0003604114
0.0008567875
0.001373413
0.001852921
0.002302814
0.002733356
0.003153645
0.003568379
0.003979154
0.004385626
0.004786205
0.005178341
0.005517371
0.005668598
0.00577588
0.005914532
0.006121533
0.006346033
0.006575899
0.006815041
0.00708789
0.007369755
0.007668908
0.007964125
0.00824378
0.008502129
0.008737727
0.008954606
0.009163687
0.009387058
0.009657606
0.009759621
0.009673666
0.009609624
0.009549768
0.00947935
0.009384715
0.009254771
0.009082067
0.008863231
0.008598424
0.008292381
0.007958139
0.00761704
0.007295171
0.00701989
0.006813635
0.006692586
0.006602518
0.006360271
0.005858651
0.005295071
0.004664572
0.003963655
0.003191678
0.002354356
0.001472984
0.0006310164
5.883024e-05
4.549307e-05
0.0003538941
0.000839864
0.001355871
0.001842588
0.002297057
0.002731123
0.003153056
0.003567702
0.003977094
0.00438132
0.004779126
0.00516813
0.005487333
0.005661975
0.005796896
0.005943028
0.006110371
0.006310662
0.006551352
0.006810811
0.007078742
0.007355771
0.007637285
0.007912455
0.008173729
0.008414891
0.008633091
0.008831488
0.009023197
0.009239215
0.009540085
0.009676807
0.009577369
0.009488635
0.009413547
0.009335423
0.00923726
0.009106605
0.008935616
0.008720414
0.008460617
0.008159804
0.007827548
0.007482449
0.007153508
0.006876369
0.006683192
0.006584607
0.006534526
0.006374812
0.005874828
0.005311665
0.00468044
0.003977846
0.003203442
0.002362789
0.001479162
0.0006337021
5.876755e-05
4.601917e-05
0.0003485896
0.0008243488
0.001338247
0.001827868
0.00228712
0.002725281
0.003148924
0.003563373
0.003971197
0.004372951
0.004767769
0.005153759
0.005468766
0.005649704
0.005795042
0.005953009
0.006139866
0.006353952
0.00658478
0.006838851
0.007110193
0.007395112
0.007673519
0.007939602
0.008188433
0.00841605
0.008621739
0.008810283
0.008993282
0.009187778
0.009409578
0.009651866
0.00964137
0.009452474
0.009345533
0.009256823
0.009152629
0.009016406
0.008840042
0.008620112
0.00835697
0.008055377
0.007725938
0.007386384
0.00706166
0.006782599
0.006580297
0.006472378
0.006431406
0.006330289
0.005882162
0.00531983
0.004687963
0.003983844
0.003207636
0.002365633
0.001480341
0.0006339819
5.872629e-05
4.649595e-05
0.0003444655
0.0008102451
0.001319869
0.001811434
0.002275235
0.002715439
0.003141097
0.003555906
0.003962695
0.004362545
0.004755175
0.005139361
0.005485252
0.005686839
0.005850614
0.006019286
0.006209129
0.006423844
0.006661964
0.006920432
0.007193541
0.007470737
0.007738686
0.007995426
0.008234525
0.00845138
0.008644978
0.008820012
0.008988398
0.009168318
0.009378609
0.0096346
0.009650571
0.009453376
0.00932169
0.009210417
0.009090861
0.008944998
0.008762685
0.008539439
0.008275255
0.007974638
0.007647631
0.007311208
0.006989659
0.006713842
0.006515493
0.006413774
0.006384582
0.006303769
0.005887878
0.00532603
0.004693796
0.003988838
0.003211597
0.002368481
0.001481841
0.0006351079
5.867738e-05
4.688985e-05
0.0003415303
0.0007983121
0.001303207
0.001795102
0.002261519
0.002705464
0.003131948
0.003546962
0.003953167
0.004351934
0.004743508
0.005126846
0.005501302
0.005752258
0.005939219
0.006122996
0.006322572
0.006544623
0.006787652
0.007047848
0.007312944
0.007578774
0.00783968
0.008087447
0.008315008
0.008518778
0.008698138
0.008857085
0.009006313
0.009164813
0.009359682
0.009625665
0.009662124
0.009460412
0.009307732
0.009175359
0.009039648
0.008882532
0.008692711
0.008464902
0.008198848
0.007899028
0.007575229
0.007243542
0.006926659
0.006653954
0.006456759
0.0063561
0.006332991
0.0062703
0.005890007
0.005328702
0.004696081
0.003990236
0.003212046
0.00236838
0.001482043
0.000634863
5.861516e-05
4.727872e-05
0.0003396855
0.0007884374
0.001287916
0.001778923
0.002247089
0.002693217
0.003121908
0.003537585
0.00394376
0.004342172
0.004733475
0.005117916
0.00549409
0.005852211
0.006066712
0.006265861
0.006477697
0.006705657
0.006949562
0.007204722
0.007466258
0.007725474
0.007975731
0.008208916
0.008421183
0.008609481
0.008772956
0.008914719
0.009044354
0.009181098
0.00935629
0.009614017
0.00966645
0.009473081
0.00930477
0.009152711
0.009000379
0.008831243
0.008633507
0.00840114
0.008133404
0.007834468
0.007513717
0.007186595
0.006874825
0.006606895
0.006413563
0.006316149
0.006297762
0.006246404
0.005891438
0.005330287
0.00469713
0.00399046
0.0032115
0.002367367
0.001481207
0.0006346364
5.857579e-05
4.763265e-05
0.0003391082
0.0007807884
0.001274617
0.001763954
0.002232917
0.002680808
0.00311118
0.003528163
0.003935062
0.00433395
0.00472588
0.005111159
0.005490206
0.00586262
0.00622213
0.006443194
0.006659724
0.006894735
0.007141718
0.007393783
0.007646303
0.00789358
0.008129675
0.008348912
0.008546573
0.0087196
0.008867528
0.008992777
0.00910226
0.009211671
0.009354532
0.009595697
0.009693871
0.009510036
0.009301439
0.009132489
0.008968595
0.008789479
0.008583802
0.00834622
0.008076201
0.007777771
0.007459922
0.007137431
0.006831025
0.006568237
0.006379173
0.006285311
0.006271387
0.006229096
0.005892008
0.005330751
0.004696946
0.00398947
0.003209897
0.002365588
0.00147977
0.0006338337
5.851512e-05
4.802375e-05
0.0003389655
0.0007748936
0.001263346
0.001750443
0.002219574
0.002668732
0.003100833
0.003519398
0.00392763
0.004327776
0.004721199
0.005108582
0.005490161
0.005865717
0.006234592
0.006597857
0.006883473
0.007113358
0.007352436
0.007602142
0.007852853
0.008090648
0.008312538
0.008512644
0.008692829
0.008848675
0.008979986
0.009090164
0.009186977
0.009282977
0.009393891
0.00953067
0.00967558
0.009583635
0.009323811
0.009126576
0.008946237
0.008756157
0.008542628
0.008299893
0.008027466
0.007729311
0.007414114
0.007096107
0.006795213
0.00653815
0.00635431
0.006264855
0.006255094
0.006218832
0.005892634
0.005330884
0.004696169
0.003987729
0.00320747
0.002363066
0.001477814
0.0006330066
5.849473e-05
4.811168e-05
0.0003408361
0.0007718975
0.00125457
0.00173885
0.002207743
0.002658138
0.003091767
0.00351208
0.003922097
0.004324115
0.004719675
0.005109679
0.005494538
0.005874301
0.006248797
0.006617187
0.006979144
0.007333775
0.007616751
0.007848452
0.008077834
0.008301889
0.008511595
0.008705462
0.00887011
0.00900682
0.009118279
0.009208789
0.00928577
0.009360752
0.0094469
0.009550911
0.009674834
0.009596756
0.009344081
0.009133511
0.008936099
0.008732036
0.008508819
0.008260206
0.007985124
0.007687109
0.00737444
0.007060834
0.006765527
0.006514517
0.006336531
0.006252264
0.006246974
0.006215034
0.005893757
0.005331217
0.00469543
0.003985964
0.003205024
0.00236052
0.00147579
0.0006319975
5.845115e-05
4.826255e-05
0.0003434569
0.0007692625
0.0012471
0.001728964
0.002197445
0.002648646
0.003084145
0.003506582
0.003918868
0.004323333
0.004721626
0.005114776
0.005503292
0.00588726
0.006266404
0.006640106
0.007007496
0.007366983
0.007717496
0.008056802
0.008335007
0.008542697
0.008735164
0.008910793
0.009057116
0.009174522
0.00926645
0.009337515
0.00939366
0.009443194
0.009497805
0.009574154
0.009683982
0.00960973
0.009360538
0.009139695
0.008928334
0.008711796
0.008479429
0.008225197
0.007947694
0.007650031
0.00734004
0.007030947
0.006741405
0.006496803
0.006325232
0.006246741
0.006245943
0.006216626
0.005895691
0.005331997
0.004694847
0.00398412
0.003202303
0.002357558
0.001473429
0.0006309165
5.844762e-05
5.041676e-05
0.0003387531
0.0007614551
0.001241603
0.001720959
0.002188949
0.002641185
0.003078497
0.003503406
0.003918497
0.004326069
0.004727804
0.005124788
0.005517567
0.005906218
0.006290386
0.006669329
0.00704195
0.007406805
0.007761909
0.008105468
0.008435203
0.00874857
0.008975723
0.009122816
0.009246075
0.00934516
0.00941815
0.00946952
0.009505456
0.009533305
0.009562781
0.009606835
0.009684731
0.009609891
0.009372776
0.009145314
0.008921612
0.008693741
0.008453151
0.008194011
0.007914588
0.007617576
0.007310377
0.007005796
0.006722072
0.006484121
0.006319466
0.006247397
0.006251384
0.006223517
0.00589886
0.005333742
0.004695044
0.003982943
0.003200172
0.002355056
0.001471386
0.0006299006
5.842582e-05
5.279666e-05
0.0003412613
0.0007488624
0.001240038
0.001716239
0.002183362
0.002636469
0.003075809
0.003503421
0.003921808
0.004333147
0.004739081
0.005140679
0.005538458
0.005932426
0.006322113
0.006706624
0.007084674
0.007454627
0.007814494
0.008162135
0.008495182
0.008811092
0.009107744
0.009359988
0.009471413
0.009541376
0.00958902
0.009616979
0.009629975
0.009633318
0.009634592
0.009647163
0.009693512
0.009613937
0.009383185
0.009148942
0.008915472
0.008678338
0.008430676
0.008167213
0.007886207
0.007590102
0.007285927
0.006986024
0.006708229
0.006477042
0.006319485
0.006254052
0.006262736
0.006235092
0.005903579
0.005336569
0.004695995
0.003982262
0.003198328
0.002352737
0.001469245
0.0006288068
5.84431e-05
5.406285e-05
0.0003465342
0.0007386156
0.001240278
0.001712922
0.002179332
0.00263362
0.003075412
0.003506521
0.003929143
0.004345224
0.004756352
0.005163536
0.005567215
0.005967291
0.006363149
0.006753727
0.007137569
0.007512752
0.007876996
0.008228283
0.008564111
0.008881901
0.009179395
0.009453241
0.009701314
0.009777215
0.009794615
0.009791825
0.009777392
0.00975615
0.009731688
0.009705618
0.009672957
0.009616509
0.009427573
0.009154529
0.008907728
0.008664422
0.008412312
0.008145873
0.007863857
0.007568658
0.007266871
0.006970695
0.006698174
0.006473708
0.006323764
0.006265842
0.006279823
0.006251639
0.005910029
0.005340775
0.004698116
0.003982606
0.003197354
0.002351049
0.001467554
0.0006278966
5.844264e-05
5.427406e-05
0.0003513661
0.0007294255
0.001223808
0.001713508
0.002178802
0.002634464
0.003079458
0.003514655
0.003941876
0.004363453
0.0047807
0.005194455
0.005604979
0.006011986
0.006414672
0.006811585
0.007200812
0.0075808
0.007949414
0.008303992
0.008641989
0.00896096
0.009258046
0.009530814
0.009776911
0.009994177
0.01001941
0.00998883
0.009942809
0.009890493
0.0098351
0.009775805
0.009706287
0.009620177
0.009431086
0.009163493
0.008909543
0.008657756
0.008399473
0.008129346
0.00784567
0.007551396
0.007253048
0.006962308
0.006696038
0.00647833
0.006335094
0.006283687
0.00630186
0.006272074
0.005917732
0.005346349
0.004701356
0.00398382
0.003197006
0.002349757
0.001466121
0.0006269861
5.846739e-05
5.423495e-05
0.000355455
0.0007213219
0.001209687
0.001715505
0.002180362
0.00263787
0.003086304
0.003526625
0.00396071
0.004389257
0.004813873
0.005235287
0.005653496
0.006067823
0.006476958
0.006880036
0.00727533
0.007660315
0.008032616
0.00838969
0.008728923
0.009047964
0.009343819
0.009614323
0.009857258
0.01007064
0.01022921
0.01020524
0.01013075
0.01004329
0.009951159
0.00985405
0.009750579
0.009637482
0.009440599
0.009174647
0.008915283
0.008657185
0.00839422
0.008122946
0.007841421
0.007550454
0.007252774
0.006961857
0.006698377
0.00648669
0.00635232
0.006310103
0.006335514
0.006302048
0.005927594
0.005353388
0.004705979
0.003986287
0.003197761
0.002349351
0.001465211
0.0006263905
5.848452e-05
5.476324e-05
0.0003600993
0.0007155303
0.001195751
0.0017212
0.002185993
0.002645692
0.003098316
0.003544249
0.003984637
0.004421032
0.00485399
0.0052838
0.005710272
0.006132731
0.006550108
0.006960263
0.007361213
0.007750627
0.008126001
0.008484744
0.008824258
0.009142289
0.009435898
0.009703107
0.009941889
0.01015048
0.01032738
0.01041627
0.01034068
0.0102193
0.01008722
0.009952009
0.009810228
0.009658731
0.009446923
0.009183641
0.008921215
0.008659771
0.008395212
0.008122216
0.007835836
0.007539764
0.0072468
0.006966688
0.006712761
0.006507303
0.006377857
0.006339121
0.006364442
0.006328381
0.005938955
0.005361963
0.00471195
0.003989815
0.003199303
0.002349457
0.001464562
0.0006257987
5.852065e-05
5.50291e-05
0.0003644062
0.000710194
0.001184894
0.001727664
0.002193612
0.002656733
0.003114789
0.003567781
0.004016504
0.00446182
0.004904174
0.005343528
0.00577932
0.00621046
0.006635375
0.007052052
0.007458215
0.007851388
0.008229003
0.008588478
0.008927341
0.00924309
0.009533464
0.009796411
0.01003012
0.01023307
0.01040399
0.01054192
0.01052887
0.01039698
0.01023051
0.01005573
0.00987583
0.009684931
0.009454506
0.009191755
0.008926762
0.008659565
0.008387129
0.008107045
0.007824501
0.007538464
0.007252351
0.006975202
0.006725083
0.006524683
0.006398425
0.00636312
0.006392253
0.006356001
0.005952007
0.005372021
0.004719129
0.003994554
0.003201941
0.002350457
0.001464523
0.0006254732
5.856905e-05
5.572805e-05
0.0003693888
0.0007073081
0.001177759
0.001737378
0.002205531
0.002673016
0.003137527
0.003598649
0.004056717
0.004512093
0.004964804
0.005414392
0.005859889
0.006299832
0.006732335
0.007155179
0.007565921
0.007962006
0.00834087
0.008700009
0.009037065
0.009349661
0.009635768
0.009893542
0.01012141
0.01031807
0.01048252
0.01061404
0.01070839
0.01058186
0.01038619
0.0101732
0.009954969
0.009723037
0.009469518
0.009200434
0.008927838
0.008655785
0.008385405
0.00811263
0.007832938
0.00754687
0.007259082
0.006981463
0.00673275
0.006537916
0.00642242
0.006398108
0.006432435
0.006386133
0.00596685
0.005383671
0.004727792
0.004000528
0.003205466
0.002352064
0.001464841
0.0006253127
5.862003e-05
5.588235e-05
0.0003739042
0.0007052167
0.00116796
0.001747914
0.002219401
0.002692732
0.003164913
0.003635507
0.004104252
0.004570915
0.00503496
0.005495428
0.005950914
0.006399596
0.006839326
0.007267718
0.007682266
0.008080417
0.008459674
0.008817619
0.009151981
0.009460636
0.009741732
0.009993663
0.0102151
0.01040499
0.01056255
0.01068729
0.01077901
0.01074052
0.01053957
0.01029224
0.01004109
0.009772144
0.00948686
0.009206968
0.008933689
0.008666473
0.008398636
0.008126059
0.007845023
0.007558537
0.007272508
0.006998938
0.006754955
0.006564277
0.006452187
0.006431396
0.006468275
0.006421095
0.005983107
0.005396415
0.00473727
0.004007118
0.003209623
0.002354265
0.001465616
0.0006254155
5.866448e-05
5.636218e-05
0.0003790128
0.0007049219
0.001166059
0.00176242
0.00223892
0.002719416
0.003201132
0.003682569
0.004162966
0.004641524
0.005117162
0.005588435
0.00605354
0.00651035
0.006956518
0.00738957
0.007806981
0.008206238
0.008584842
0.008940639
0.009271438
0.009575354
0.009850764
0.01009632
0.01031093
0.01049381
0.01064443
0.01076248
0.01084782
0.01088058
0.0106812
0.01040956
0.01013243
0.009831473
0.009516573
0.009226266
0.008950985
0.008682433
0.008414368
0.008142172
0.007863691
0.00757942
0.007295341
0.007023311
0.006781992
0.006595929
0.00649043
0.006476717
0.006517299
0.006463329
0.0060016
0.005411201
0.004748648
0.004015371
0.003215187
0.002357312
0.00146672
0.00062543
5.871816e-05
5.790374e-05
0.0003824066
0.0007062808
0.00116309
0.0017688
0.002260205
0.002748878
0.003240877
0.003734116
0.004227076
0.004718277
0.005206045
0.005688442
0.00616328
0.006628158
0.007080559
0.00751792
0.007937696
0.008337431
0.008714703
0.009067632
0.009394215
0.009692823
0.009962092
0.01020093
0.01040851
0.01058426
0.01072786
0.01083927
0.0109185
0.01096578
0.0108106
0.0105291
0.01023156
0.009899766
0.009554993
0.009250132
0.008970369
0.008702394
0.00843664
0.008166254
0.007888338
0.007604293
0.007320818
0.007050172
0.006811201
0.006628576
0.006527652
0.006519147
0.006563367
0.006505296
0.00602129
0.005427158
0.004761151
0.004024715
0.003221676
0.002361494
0.001468959
0.0006261673
5.877882e-05
5.614265e-05
0.000395313
0.0007083889
0.001160573
0.00176979
0.002285908
0.002783728
0.003287159
0.00379323
0.004299583
0.00480399
0.005304157
0.005797656
0.006281937
0.006754366
0.007212293
0.007653117
0.008074341
0.008473634
0.008848767
0.009198081
0.009519831
0.009812648
0.01007544
0.01030736
0.01050785
0.01067657
0.01081338
0.01091829
0.01099158
0.01103355
0.01092785
0.01064467
0.01033157
0.009972018
0.009598216
0.009280087
0.008996353
0.008728653
0.008463978
0.008194533
0.007917205
0.007633496
0.007350313
0.007080364
0.006843051
0.006663458
0.006566804
0.006562577
0.006608097
0.00654371
0.006042084
0.005444108
0.0047745
0.004034741
0.003228708
0.002365682
0.001470902
0.0006267493
5.884089e-05
5.507196e-05
0.000400998
0.0007110869
0.001160608
0.001772738
0.00231534
0.002823833
0.003339876
0.003859667
0.004380004
0.004897907
0.005410465
0.005914787
0.006408003
0.006887292
0.007349938
0.00779337
0.008215204
0.008613287
0.008985656
0.009330816
0.009647325
0.00993408
0.01019024
0.01041523
0.01060868
0.01077045
0.0109007
0.01099951
0.01106721
0.0111042
0.01103159
0.01074564
0.01041968
0.01003925
0.009642342
0.009312968
0.009025959
0.008758897
0.008495896
0.008227678
0.00795075
0.00766688
0.007383471
0.007113793
0.006877778
0.006700875
0.006608233
0.006608271
0.00665542
0.00658532
0.006064122
0.005462188
0.004788882
0.004045659
0.003236393
0.002370636
0.001473468
0.0006275359
5.891946e-05
5.640683e-05
0.0003976426
0.0007149319
0.001161194
0.001777041
0.002348355
0.002868706
0.003398335
0.003932549
0.004467278
0.004998794
0.005523596
0.006038371
0.006539982
0.007025485
0.007492156
0.007937516
0.008359349
0.008755282
0.009124486
0.009465155
0.009776197
0.01005679
0.01030634
0.01052451
0.01071115
0.01086643
0.0109903
0.01108322
0.01114556
0.0111778
0.01111733
0.01082912
0.01049562
0.01009782
0.009683668
0.009347007
0.009058737
0.008793032
0.008531728
0.008264477
0.007987608
0.007703195
0.007419119
0.007149267
0.006914173
0.006739691
0.006650786
0.006654485
0.006701576
0.00662125
0.006086822
0.005480942
0.004803937
0.004057255
0.00324477
0.002376018
0.001476301
0.0006284992
5.898988e-05
5.89061e-05
0.0004010644
0.0007205933
0.001163638
0.001782405
0.002385476
0.002918633
0.003462548
0.004011649
0.004560959
0.005106006
0.005642731
0.006167451
0.006676819
0.007167825
0.00763779
0.008084363
0.008505517
0.008899122
0.009264645
0.009600539
0.009905976
0.01018038
0.01042342
0.01063495
0.01081515
0.01096401
0.01108192
0.01116931
0.01122663
0.01125438
0.01118952
0.01089883
0.01056354
0.01015646