/*--------------------------------*- C++ -*----------------------------------*\
| =========                 |                                                 |
| \\      /  F ield         | OpenFOAM: The Open Source CFD Toolbox           |
|  \\    /   O peration     | Version:  2312                                  |
|   \\  /    A nd           | Website:  www.openfoam.com                      |
|    \\/     M anipulation  |                                                 |
\*---------------------------------------------------------------------------*/
FoamFile
{
    version     2.0;
    format      ascii;
    arch        "LSB;label=32;scalar=64";
    class       surfaceScalarField;
    location    "5700";
    object      phi;
}
// * * * * * * * * * * * * * * * * * * * * * * * * * * * * * * * * * * * * * //

dimensions      [1 0 -1 0 0 0 0];

oriented        oriented;

internalField   nonuniform List<scalar> 
23740
(
-0.000112805
0.0001123884
-0.0002080127
9.520756e-05
-0.0003029856
9.497308e-05
-0.0004040312
0.0001010459
-0.0005134444
0.0001094137
-0.0006248954
0.0001114516
-0.0007224574
9.756268e-05
-0.0008061216
8.366492e-05
-0.0008975867
9.146585e-05
-0.0009988175
0.0001012315
-0.00108768
8.886262e-05
-0.00114622
5.854084e-05
-0.001205253
5.903387e-05
-0.001286534
8.128094e-05
-0.001363325
7.679091e-05
-0.001408108
4.478401e-05
-0.001444064
3.595538e-05
-0.001501854
5.779023e-05
-0.001563127
6.127375e-05
-0.001596493
3.336589e-05
-0.001617334
2.084095e-05
-0.001656283
3.894954e-05
-0.001700825
4.454127e-05
-0.001722887
2.206214e-05
-0.001733053
1.016665e-05
-0.001755587
2.253447e-05
-0.001781971
2.638409e-05
-0.001793515
1.154393e-05
-0.001797168
3.653446e-06
-0.001804946
7.779329e-06
-0.001814219
9.273352e-06
-0.001818574
4.355597e-06
-0.001817756
-8.159663e-07
-0.001808543
-9.212233e-06
-0.001793494
-1.504739e-05
-0.001782635
-1.085845e-05
-0.001780687
-1.946661e-06
-0.001773495
-7.190018e-06
-0.001746131
-2.736218e-05
-0.001702071
-4.405903e-05
-0.001669474
-3.259579e-05
-0.001663274
-6.197835e-06
-0.001657977
-5.295424e-06
-0.001612895
-4.50809e-05
-0.001533156
-7.973757e-05
-0.001476439
-5.671609e-05
-0.00146288
-1.355873e-05
-0.001437726
-2.515282e-05
-0.001350875
-8.68505e-05
-0.00124783
-0.0001030445
-0.001189303
-5.852598e-05
-0.001140617
-4.868538e-05
-0.001042647
-9.796983e-05
-0.0009217997
-0.0001208467
-0.000815681
-0.000106118
-0.0007022327
-0.0001134474
-0.0005611924
-0.0001410393
-0.0003796837
-0.000181507
-0.0001901678
-0.0001895123
-0.0001901672
-0.000104177
0.0002165644
-0.0002105973
0.000201627
-0.0003140704
0.0001984457
-0.0004104984
0.0001974737
-0.0004962864
0.0001952018
-0.0005766249
0.0001917905
-0.0006617679
0.0001827062
-0.0007484919
0.0001703895
-0.0008212124
0.000164187
-0.0008778694
0.000157889
-0.0009364844
0.0001474782
-0.001011421
0.0001334784
-0.001077353
0.0001249659
-0.001116699
0.0001206275
-0.001152899
0.0001129911
-0.00120902
0.0001009048
-0.001265129
9.206521e-05
-0.001294739
8.739986e-05
-0.001314857
8.139207e-05
-0.001353221
7.173021e-05
-0.001396223
6.384287e-05
-0.001416633
5.936001e-05
-0.001426309
5.421673e-05
-0.001450519
4.627274e-05
-0.001479702
3.935022e-05
-0.001492069
3.490172e-05
-0.001495735
3.005092e-05
-0.001507462
2.327183e-05
-0.001520648
1.684003e-05
-0.001524801
1.193335e-05
-0.001523845
8.318443e-06
-0.001523032
3.543788e-06
-0.00152025
-3.596795e-06
-0.001519247
-1.021307e-05
-0.0015181
-1.619315e-05
-0.001508014
-2.0942e-05
-0.001484599
-2.536032e-05
-0.001460228
-3.155893e-05
-0.001447947
-3.964018e-05
-0.001444674
-4.733018e-05
-0.001424163
-5.310467e-05
-0.001372575
-5.778358e-05
-0.001313843
-6.402533e-05
-0.001285824
-7.309803e-05
-0.001283124
-8.243603e-05
-0.001249845
-8.999384e-05
-0.001167267
-9.613633e-05
-0.001087684
-0.0001047342
-0.001058119
-0.000116415
-0.001034143
-0.0001270195
-0.0009571972
-0.0001354709
-0.0008610478
-0.000144834
-0.0007996807
-0.000159336
-0.0007491474
-0.000171379
-0.0006570653
-0.000198199
-0.0005418328
-0.0002286785
-0.0004305426
-0.0002523278
-0.0003138465
-0.0002982009
-0.0001682457
-0.0003351101
-0.0003584125
-8.811363e-05
0.0003046772
-0.0001739214
0.0002874341
-0.000257379
0.0002819028
-0.0003367493
0.0002768438
-0.0004108446
0.0002692971
-0.0004784288
0.0002593749
-0.000543318
0.0002475958
-0.0006086185
0.0002356904
-0.0006695263
0.0002250954
-0.000729147
0.0002175102
-0.0007853965
0.0002037282
-0.0008404138
0.0001884961
-0.0008897968
0.0001743493
-0.000932271
0.000163102
-0.0009712028
0.0001519232
-0.001010766
0.0001404678
-0.001048565
0.0001298645
-0.001081342
0.0001201774
-0.001110457
0.0001105072
-0.001139314
0.000100587
-0.0011667
9.122932e-05
-0.001190014
8.267446e-05
-0.001209947
7.414957e-05
-0.001228988
6.531384e-05
-0.00124642
5.678299e-05
-0.001260353
4.883511e-05
-0.001271226
4.092439e-05
-0.001280683
3.272953e-05
-0.001288409
2.456674e-05
-0.001292934
1.645921e-05
-0.001293981
9.36625e-06
-0.001293527
3.09088e-06
-0.00129062
-6.502435e-06
-0.001285679
-1.515263e-05
-0.001278326
-2.35447e-05
-0.001267466
-3.180116e-05
-0.001252781
-4.004353e-05
-0.001235634
-4.870371e-05
-0.001217347
-5.792551e-05
-0.001197231
-6.744374e-05
-0.001173492
-7.684201e-05
-0.0011451
-8.617385e-05
-0.001112964
-9.615987e-05
-0.001079157
-0.0001069039
-0.001043458
-0.0001181333
-0.001003771
-0.0001296807
-0.00095838
-0.0001415259
-0.0009090084
-0.0001541049
-0.0008580853
-0.0001673373
-0.0008056927
-0.0001794113
-0.0007509582
-0.0001902046
-0.0006875756
-0.0002082158
-0.000616857
-0.0002300539
-0.0005367692
-0.0002514658
-0.0004526813
-0.0002822856
-0.0003738987
-0.0003074597
-0.0002864715
-0.0003397532
-0.0002037781
-0.0003808919
-0.0001064229
-0.0004324627
-0.0004648351
-7.260108e-05
0.0003772768
-0.0001404208
0.0003552527
-0.0002058156
0.0003472966
-0.0002680519
0.0003390796
-0.0003273215
0.0003285664
-0.0003839486
0.000316002
-0.0004386887
0.000302336
-0.0004916253
0.0002886271
-0.000540072
0.0002735423
-0.0005822537
0.0002596921
-0.0006263863
0.000247861
-0.0006715474
0.0002336574
-0.0007159268
0.0002187288
-0.0007560459
0.0002032213
-0.0007934433
0.0001893208
-0.000828953
0.0001759776
-0.0008629881
0.0001638998
-0.0008937484
0.0001509377
-0.0009219146
0.0001386735
-0.0009481515
0.000126824
-0.0009722661
0.0001153441
-0.0009938087
0.0001042171
-0.001012972
9.331335e-05
-0.001030197
8.253864e-05
-0.001045339
7.192494e-05
-0.001057999
6.149589e-05
-0.001068246
5.117149e-05
-0.001076386
4.086994e-05
-0.001082384
3.05658e-05
-0.001086133
2.020852e-05
-0.001088194
1.14274e-05
-0.001086757
1.654583e-06
-0.001083617
-9.641127e-06
-0.00107837
-2.039868e-05
-0.001070939
-3.097482e-05
-0.001060991
-4.174803e-05
-0.001048355
-5.267806e-05
-0.00103322
-6.383773e-05
-0.001015864
-7.52803e-05
-0.0009962957
-8.701059e-05
-0.0009741064
-9.903007e-05
-0.0009488949
-0.0001113841
-0.0009208745
-0.0001241792
-0.0008901648
-0.0001376126
-0.0008582098
-0.0001500873
-0.0008228687
-0.0001650209
-0.0007839007
-0.0001804931
-0.0007422323
-0.0001957726
-0.0006990272
-0.0002105419
-0.0006516624
-0.0002267756
-0.0005960122
-0.0002458541
-0.0005330526
-0.0002711746
-0.0004689325
-0.0002941732
-0.0004024001
-0.0003179973
-0.0003411279
-0.0003435567
-0.0002762837
-0.0003723028
-0.0002094006
-0.0004066348
-0.0001417051
-0.0004485855
-7.376825e-05
-0.0005003973
-0.0005386031
-5.943417e-05
0.0004367095
-0.0001166635
0.0004124808
-0.000170712
0.0004013442
-0.000222135
0.0003905019
-0.0002713602
0.0003777912
-0.0003187383
0.0003633798
-0.000364171
0.0003477685
-0.0004073652
0.0003318213
-0.000448906
0.0003150832
-0.0004868512
0.0002976373
-0.0005209263
0.0002819362
-0.0005541823
0.0002669135
-0.0005883937
0.0002529404
-0.0006228713
0.000237699
-0.0006548959
0.0002213455
-0.0006847806
0.0002058623
-0.0007127988
0.000191918
-0.0007390303
0.0001771693
-0.0007632918
0.0001629351
-0.0007856305
0.0001491627
-0.0008060376
0.0001357514
-0.0008244541
0.0001226337
-0.0008408873
0.0001097467
-0.000855388
9.703953e-05
-0.0008679508
8.448793e-05
-0.0008785264
7.207178e-05
-0.0008871106
5.975595e-05
-0.0008937436
4.750333e-05
-0.0008984675
3.529006e-05
-0.0009013453
2.308666e-05
-0.0009019421
1.202472e-05
-0.0008997453
-5.416152e-07
-0.0008961315
-1.325438e-05
-0.0008905543
-2.597512e-05
-0.0008838552
-3.767325e-05
-0.0008747054
-5.089695e-05
-0.000863246
-6.413662e-05
-0.0008495794
-7.750341e-05
-0.0008337535
-9.110528e-05
-0.000815758
-0.0001050052
-0.000795536
-0.0001192511
-0.0007730243
-0.0001338948
-0.0007481868
-0.0001490158
-0.0007212312
-0.0001645675
-0.000691835
-0.0001794829
-0.0006599275
-0.0001969277
-0.0006268736
-0.0002135464
-0.0005919073
-0.0002307383
-0.0005528249
-0.0002496237
-0.0005079293
-0.0002716705
-0.0004594746
-0.0002943081
-0.0004133423
-0.0003173063
-0.0003666588
-0.0003408561
-0.0003184899
-0.0003661655
-0.0002680765
-0.0003939693
-0.0002154101
-0.0004249684
-0.0001617766
-0.0004602673
-0.0001084857
-0.0005018748
-5.545635e-05
-0.0005534247
-0.0005940592
-4.731348e-05
0.0004840218
-9.33522e-05
0.0004585186
-0.0001363873
0.0004443786
-0.0001771264
0.0004312406
-0.0002160525
0.000416717
-0.0002534976
0.0004008247
-0.0002897237
0.0003839945
-0.0003245812
0.0003666788
-0.0003585146
0.0003490167
-0.000392008
0.0003311307
-0.000423617
0.0003135453
-0.0004530079
0.0002963045
-0.0004793215
0.0002792541
-0.0005055107
0.0002638882
-0.0005320702
0.0002479052
-0.0005571561
0.0002309483
-0.0005798926
0.0002146546
-0.0006014155
0.0001986923
-0.0006215753
0.0001830949
-0.0006402329
0.0001678203
-0.0006573117
0.0001528303
-0.0006727637
0.0001380858
-0.0006865671
0.0001235502
-0.0006987179
0.0001091904
-0.0007092085
9.497868e-05
-0.0007180262
8.088972e-05
-0.0007251673
6.689731e-05
-0.0007306377
5.297398e-05
-0.0007344422
3.909481e-05
-0.0007365865
2.523126e-05
-0.0007359713
1.140996e-05
-0.0007349019
-1.610576e-06
-0.000732099
-1.605688e-05
-0.0007275597
-3.051391e-05
-0.0007212292
-4.400325e-05
-0.0007130904
-5.903513e-05
-0.0007031835
-7.404293e-05
-0.0006914959
-8.919036e-05
-0.0006780271
-0.0001045734
-0.0006627713
-0.0001202602
-0.0006457182
-0.0001363035
-0.0006268638
-0.0001527486
-0.0006062407
-0.0001696382
-0.0005838171
-0.0001869904
-0.0005583773
-0.000204922
-0.0005325268
-0.0002227775
-0.0005046994
-0.0002413733
-0.0004734036
-0.0002620335
-0.0004386512
-0.0002843756
-0.0004031177
-0.0003072034
-0.000366923
-0.0003305023
-0.0003295749
-0.0003546538
-0.00029042
-0.0003800104
-0.0002495999
-0.000406985
-0.0002076341
-0.0004359343
-0.0001651203
-0.0004674814
-0.0001226843
-0.0005027023
-8.094707e-05
-0.0005436107
-4.082918e-05
-0.0005935409
-0.0006348882
-3.793043e-05
0.0005219514
-7.490494e-05
0.0004954925
-0.0001091232
0.0004785963
-0.0001413309
0.0004634479
-0.0001720465
0.0004474323
-0.00020159
0.000430368
-0.0002301394
0.0004125439
-0.0002577217
0.000394261
-0.0002844576
0.0003757526
-0.0003105055
0.0003571786
-0.0003357052
0.000338745
-0.000359915
0.0003205144
-0.0003831266
0.0003024657
-0.0004038661
0.0002846278
-0.0004241986
0.0002682377
-0.0004447895
0.0002515393
-0.0004641648
0.0002340299
-0.0004821324
0.00021666
-0.000498782
0.0001997445
-0.0005141158
0.0001831542
-0.0005281184
0.000166833
-0.0005407713
0.0001507388
-0.0005520582
0.0001348372
-0.0005619673
0.0001190996
-0.0005704885
0.0001035
-0.0005776116
8.801303e-05
-0.000583326
7.261189e-05
-0.0005876203
5.726852e-05
-0.0005904789
4.195359e-05
-0.0005918814
2.663402e-05
-0.0005917602
1.12891e-05
-0.0005909977
-2.372804e-06
-0.0005887605
-1.829373e-05
-0.0005851284
-3.414563e-05
-0.0005791338
-4.999743e-05
-0.0005720592
-6.610921e-05
-0.0005636875
-8.241419e-05
-0.0005539108
-9.896649e-05
-0.0005426731
-0.0001158106
-0.0005299373
-0.0001329954
-0.0005156722
-0.0001505681
-0.0004998455
-0.0001685747
-0.0004824152
-0.0001870679
-0.0004633016
-0.0002061034
-0.0004431216
-0.0002251015
-0.0004209924
-0.0002449062
-0.000395874
-0.0002664911
-0.0003692131
-0.0002886938
-0.0003420534
-0.0003115348
-0.0003142067
-0.0003350496
-0.0002853251
-0.0003593833
-0.0002553206
-0.0003846577
-0.000224288
-0.0004110425
-0.0001924762
-0.0004387962
-0.0001601178
-0.0004682922
-0.0001274832
-0.0005001152
-9.491736e-05
-0.0005352673
-6.285821e-05
-0.0005756686
-3.170106e-05
-0.0006246965
-0.0006665891
-3.005416e-05
0.000552005
-5.905453e-05
0.0005244923
-8.551439e-05
0.0005050558
-0.0001102538
0.000488187
-0.0001338373
0.0004710157
-0.0001565992
0.0004531297
-0.0001787151
0.0004346597
-0.0002002583
0.0004158041
-0.000221254
0.0003967483
-0.0002417063
0.0003776309
-0.0002615283
0.0003585671
-0.0002806352
0.0003396212
-0.0002989945
0.0003208251
-0.000316568
0.0003022013
-0.0003321238
0.0002837935
-0.0003471018
0.0002665172
-0.0003622912
0.0002492193
-0.0003769447
0.0002313135
-0.0003905807
0.0002133805
-0.000403163
0.0001957365
-0.0004146445
0.0001783146
-0.0004250085
0.0001611028
-0.0004342449
0.0001440737
-0.0004423485
0.0001272033
-0.0004493164
0.0001104681
-0.0004551481
9.384482e-05
-0.0004598452
7.730911e-05
-0.0004634113
6.083474e-05
-0.0004658512
4.439368e-05
-0.0004671722
2.795526e-05
-0.0004673742
1.149135e-05
-0.0004662396
-3.507193e-06
-0.0004641134
-2.04197e-05
-0.0004608935
-3.736524e-05
-0.0004564916
-5.439895e-05
-0.0004509726
-7.162797e-05
-0.0004443069
-8.907949e-05
-0.0004364704
-0.0001068026
-0.0004274384
-0.0001248422
-0.000417191
-0.0001432425
-0.0004057138
-0.0001620449
-0.0003930091
-0.0001812789
-0.0003790334
-0.0002010431
-0.0003641896
-0.0002209469
-0.0003477858
-0.0002415049
-0.0003292318
-0.0002634598
-0.0003097732
-0.0002859493
-0.0002894442
-0.0003090224
-0.0002682201
-0.0003327585
-0.0002460743
-0.0003571948
-0.000223058
-0.0003823992
-0.0001992429
-0.0004084724
-0.0001747212
-0.0004355636
-0.0001496242
-0.0004638926
-0.0001241247
-0.0004937912
-9.844163e-05
-0.0005257976
-7.285842e-05
-0.0005608498
-4.778401e-05
-0.0006007419
-2.384235e-05
-0.0006486367
-0.0006904312
-2.365885e-05
0.0005756633
-4.605186e-05
0.0005468849
-6.615286e-05
0.0005251565
-8.479894e-05
0.0005068329
-0.0001025033
0.0004887199
-0.0001195754
0.0004702017
-0.0001361957
0.0004512799
-0.0001524613
0.0004320696
-0.0001684086
0.0004126956
-0.0001840355
0.0003932578
-0.0001993023
0.0003738338
-0.0002141577
0.0003544766
-0.000228552
0.0003352193
-0.0002424343
0.0003160836
-0.0002557217
0.0002970809
-0.0002674496
0.0002782452
-0.0002783458
0.0002601155
-0.0002892239
0.0002421917
-0.0002996538
0.0002238104
-0.0003093596
0.0002054423
-0.0003182649
0.0001872199
-0.0003263434
0.0001691814
-0.0003335717
0.0001513019
-0.0003399357
0.0001335675
-0.000345428
0.0001159605
-0.0003500455
9.846241e-05
-0.0003537891
8.105284e-05
-0.000356662
6.370777e-05
-0.0003586687
4.640047e-05
-0.0003598146
2.910135e-05
-0.0003601028
1.177973e-05
-0.0003592382
-4.371603e-06
-0.000357621
-2.203678e-05
-0.0003551927
-3.979323e-05
-0.0003519027
-5.768872e-05
-0.0003477528
-7.577769e-05
-0.0003427254
-9.410661e-05
-0.000336804
-0.0001127237
-0.0003299715
-0.0001316744
-0.0003222124
-0.0001510013
-0.0003135168
-0.0001707401
-0.0003038574
-0.000190938
-0.000293409
-0.0002114912
-0.000281721
-0.0002326346
-0.0002683459
-0.0002548796
-0.0002541523
-0.0002776531
-0.0002391246
-0.0003009766
-0.000223262
-0.0003248847
-0.0002066132
-0.0003494069
-0.0001892282
-0.0003745794
-0.0001711723
-0.0004004546
-0.0001525311
-0.0004271131
-0.000133414
-0.0004546802
-0.0001139564
-0.0004833496
-9.43168e-05
-0.0005134302
-7.467872e-05
-0.000545435
-5.525801e-05
-0.0005802698
-3.631969e-05
-0.0006196791
-1.817397e-05
-0.000666781
-0.0007086051
-1.821709e-05
0.0005938801
-3.512557e-05
0.0005637931
-4.994675e-05
0.0005399775
-6.344249e-05
0.0005203284
-7.617361e-05
0.0005014508
-8.848169e-05
0.0004825096
-0.0001005392
0.0004633374
-0.0001124166
0.0004439467
-0.0001241226
0.0004244015
-0.0001356394
0.0004047745
-0.0001469345
0.0003851288
-0.0001579673
0.0003655094
-0.000168694
0.0003459459
-0.0001790676
0.0003264571
-0.0001890392
0.0003070524
-0.0001985277
0.0002877335
-0.0002069631
0.0002685509
-0.000214705
0.0002499335
-0.0002223417
0.0002314472
-0.0002295715
0.0002126721
-0.0002362652
0.0001939137
-0.0002423828
0.0001752991
-0.0002478831
0.0001568023
-0.0002527464
0.0001384308
-0.0002569646
0.0001201787
-0.0002605357
0.0001020336
-0.0002634621
8.397933e-05
-0.0002657486
6.599432e-05
-0.0002674007
4.805265e-05
-0.0002684239
3.012467e-05
-0.0002688221
1.217807e-05
-0.0002682985
-4.895015e-06
-0.0002672346
-2.310057e-05
-0.0002656034
-4.142428e-05
-0.0002633818
-5.991015e-05
-0.0002605542
-7.860505e-05
-0.0002571043
-9.755634e-05
-0.000253015
-0.0001168128
-0.0002482651
-0.000136424
-0.000242826
-0.0001564401
-0.0002366531
-0.0001769127
-0.0002297067
-0.0001978842
-0.0002217463
-0.0002194513
-0.0002125434
-0.0002418372
-0.0002026686
-0.0002647541
-0.0001921047
-0.0002882166
-0.0001808334
-0.0003122475
-0.0001688653
-0.0003368524
-0.0001562358
-0.0003620361
-0.0001430021
-0.0003878128
-0.0001292387
-0.0004142177
-0.0001150348
-0.0004413167
-0.0001004925
-0.0004692221
-8.572208e-05
-0.0004981196
-7.084028e-05
-0.0005283115
-5.597424e-05
-0.0005603005
-4.127392e-05
-0.0005949694
-2.694897e-05
-0.000634003
-1.334709e-05
-0.0006803816
-0.000721952
-1.361086e-05
0.0006074908
-2.591102e-05
0.0005760932
-3.631025e-05
0.0005503766
-4.560211e-05
0.0005296202
-5.426046e-05
0.0005101091
-6.250752e-05
0.0004907565
-7.048811e-05
0.0004713178
-7.829872e-05
0.0004517572
-8.604835e-05
0.0004321509
-9.379968e-05
0.0004125256
-0.0001015325
0.0003928614
-0.000109202
0.0003731787
-0.0001167547
0.0003534985
-0.0001241371
0.0003338394
-0.0001313022
0.0003142175
-0.0001382128
0.000294644
-0.0001447866
0.0002751247
-0.0001505451
0.000255692
-0.0001558033
0.0002367054
-0.0001610179
0.0002178866
-0.0001660152
0.000198911
-0.0001705768
0.0001798608
-0.0001746677
0.0001608931
-0.0001782826
0.0001420458
-0.0001814363
0.0001233325
-0.0001841379
0.0001047352
-0.000186398
8.623946e-05
-0.0001882258
6.782222e-05
-0.0001896281
4.945506e-05
-0.0001906101
3.110674e-05
-0.0001911748
1.274285e-05
-0.0001910477
-5.021976e-06
-0.0001905549
-2.359333e-05
-0.0001896773
-4.230168e-05
-0.0001883954
-6.119197e-05
-0.0001866888
-8.031147e-05
-0.0001845354
-9.970958e-05
-0.0001819102
-0.0001194378
-0.000178784
-0.00013955
-0.0001751216
-0.0001601024
-0.00017088
-0.0001811542
-0.0001660003
-0.0002027637
-0.0001604197
-0.0002250316
-0.0001543399
-0.0002479168
-0.0001476754
-0.0002714184
-0.0001403466
-0.0002955452
-0.0001323361
-0.0003202577
-0.0001236665
-0.0003455217
-0.000114397
-0.0003713052
-0.0001046082
-0.0003976013
-9.439068e-05
-0.0004244348
-8.384241e-05
-0.0004518646
-7.306399e-05
-0.0004800001
-6.215644e-05
-0.0005090267
-5.122164e-05
-0.0005392459
-4.036666e-05
-0.000571155
-2.971109e-05
-0.0006056243
-1.940299e-05
-0.0006443102
-9.647075e-06
-0.0006901362
-0.0007315989
-1.057768e-05
0.0006180685
-1.951116e-05
0.0005850267
-2.650954e-05
0.000557375
-3.24426e-05
0.0005355532
-3.771797e-05
0.0005153843
-4.260852e-05
0.0004956469
-4.734854e-05
0.0004760576
-5.20475e-05
0.0004564559
-5.676213e-05
0.0004368653
-6.1523e-05
0.0004172863
-6.631252e-05
0.0003976507
-7.11138e-05
0.0003779798
-7.590279e-05
0.0003582873
-8.065768e-05
0.0003385941
-8.537441e-05
0.000318934
-9.003294e-05
0.0002993025
-9.457887e-05
0.0002796705
-9.892647e-05
0.0002600395
-0.0001026727
0.0002404516
-0.000105864
0.0002210779
-0.0001088081
0.000201855
-0.0001115777
0.0001826303
-0.0001141394
0.0001634548
-0.0001164621
0.0001443685
-0.0001185353
0.0001254057
-0.0001203558
0.0001065558
-0.0001219322
8.781584e-05
-0.0001232733
6.916335e-05
-0.0001243858
5.05676e-05
-0.0001252763
3.199729e-05
-0.0001259511
1.341775e-05
-0.0001261674
-4.805643e-06
-0.0001261903
-2.357034e-05
-0.000125999
-4.249287e-05
-0.0001255705
-6.16203e-05
-0.0001248788
-8.100309e-05
-0.0001238959
-0.0001006924
-0.0001225923
-0.0001207413
-0.0001209379
-0.0001412042
-0.0001189033
-0.0001621369
-0.0001164661
-0.0001835912
-0.0001136069
-0.0002056227
-0.0001104342
-0.0002282042
-0.0001068911
-0.0002514597
-0.000102817
-0.0002754923
-9.814775e-05
-0.0003002142
-9.282887e-05
-0.0003255764
-8.686842e-05
-0.000351482
-8.035734e-05
-0.0003778161
-7.341586e-05
-0.0004045426
-6.615369e-05
-0.0004316967
-5.866767e-05
-0.0004593503
-5.104242e-05
-0.000487625
-4.335311e-05
-0.0005167157
-3.566961e-05
-0.000546929
-2.806009e-05
-0.000578764
-2.05969e-05
-0.0006130869
-1.337698e-05
-0.0006515292
-6.575367e-06
-0.0006969367
-0.0007381741
-7.168251e-06
0.000625237
-1.252701e-05
0.0005903857
-1.588911e-05
0.0005607372
-1.784799e-05
0.0005375121
-1.933449e-05
0.0005168708
-2.097413e-05
0.0004972864
-2.287384e-05
0.0004779572
-2.51054e-05
0.0004586873
-2.751009e-05
0.0004392698
-2.990017e-05
0.0004196761
-3.233094e-05
0.0004000813
-3.482694e-05
0.0003804756
-3.741355e-05
0.0003608737
-4.008984e-05
0.0003412702
-4.282771e-05
0.0003216717
-4.556008e-05
0.0003020347
-4.816514e-05
0.0002822754
-5.054947e-05
0.0002624237
-5.267791e-05
0.0002425799
-5.444531e-05
0.0002228452
-5.600516e-05
0.0002034148
-5.76218e-05
0.0001842469
-5.933248e-05
0.0001651655
-6.105479e-05
0.0001460908
-6.267859e-05
0.0001270295
-6.419969e-05
0.0001080769
-6.564243e-05
8.92586e-05
-6.701966e-05
7.054061e-05
-6.831705e-05
5.186501e-05
-6.952437e-05
3.320466e-05
-7.06428e-05
1.453623e-05
-7.14734e-05
-3.974991e-06
-7.223789e-05
-2.280578e-05
-7.291543e-05
-4.181524e-05
-7.348498e-05
-6.105068e-05
-7.392443e-05
-8.056355e-05
-7.421239e-05
-0.0001004044
-7.432683e-05
-0.0001206267
-7.424277e-05
-0.0001412882
-7.392838e-05
-0.0001624512
-7.334137e-05
-0.0001841781
-7.244684e-05
-0.0002065171
-7.111689e-05
-0.000229534
-6.933247e-05
-0.0002532439
-6.717878e-05
-0.0002776458
-6.448048e-05
-0.0003029124
-6.111853e-05
-0.0003289381
-5.717199e-05
-0.0003554283
-5.282097e-05
-0.0003821669
-4.816824e-05
-0.0004091951
-4.330202e-05
-0.0004365627
-3.830053e-05
-0.0004643515
-3.322959e-05
-0.0004926957
-2.814227e-05
-0.0005218027
-2.308546e-05
-0.0005519854
-1.810528e-05
-0.0005837437
-1.325294e-05
-0.0006179388
-8.596301e-06
-0.000656185
-4.245993e-06
-0.0007012859
-0.00074242
-4.799874e-06
0.0006300373
-7.268521e-06
0.0005928547
-7.62512e-06
0.0005610941
-7.269909e-06
0.000537157
-6.525732e-06
0.0005161266
-5.413132e-06
0.0004961737
-4.143613e-06
0.0004766875
-2.874317e-06
0.0004574178
-1.843025e-06
0.0004382382
-1.244139e-06
0.0004190769
-1.059702e-06
0.0003998965
-1.298641e-06
0.0003807143
-1.966107e-06
0.0003615409
-3.084724e-06
0.0003423886
-4.501882e-06
0.0003230887
-6.047714e-06
0.0003035803
-7.664289e-06
0.0002838919
-9.272818e-06
0.0002640321
-1.080951e-05
0.0002441165
-1.222214e-05
0.0002242578
-1.33662e-05
0.0002045588
-1.425947e-05
0.0001851401
-1.506787e-05
0.0001659738
-1.593655e-05
0.0001469594
-1.693981e-05
0.0001280328
-1.805562e-05
0.0001091927
-1.926149e-05
9.046447e-05
-2.053516e-05
7.181428e-05
-2.185879e-05
5.318866e-05
-2.322837e-05
3.457426e-05
-2.465335e-05
1.596125e-05
-2.599956e-05
-2.628743e-06
-2.74333e-05
-2.137199e-05
-2.889749e-05
-4.035101e-05
-3.035257e-05
-5.959553e-05
-3.177551e-05
-7.914053e-05
-3.315061e-05
-9.902921e-05
-3.446984e-05
-0.0001193074
-3.572993e-05
-0.000140028
-3.691519e-05
-0.0001612658
-3.798648e-05
-0.0001831067
-3.887169e-05
-0.0002056318
-3.947046e-05
-0.0002289351
-3.962456e-05
-0.0002530897
-3.910406e-05
-0.0002781662
-3.792008e-05
-0.0003040962
-3.618115e-05
-0.0003306769
-3.39386e-05
-0.0003576707
-3.123132e-05
-0.000384874
-2.828762e-05
-0.0004121386
-2.530276e-05
-0.0004395473
-2.231709e-05
-0.0004673369
-1.933429e-05
-0.0004956782
-1.636071e-05
-0.000524776
-1.340822e-05
-0.0005549376
-1.049635e-05
-0.0005866552
-7.654379e-06
-0.0006207802
-4.926159e-06
-0.0006589125
-2.3947e-06
-0.0007038164
-0.0007448146
-3.39832e-06
0.0006334361
-4.293443e-06
0.0005937503
-3.465491e-06
0.0005602664
-1.735342e-06
0.000535427
6.170783e-07
0.0005137742
3.254753e-06
0.000493536
5.963064e-06
0.000473979
8.641823e-06
0.0004547388
1.126642e-05
0.0004356134
1.378477e-05
0.0004165583
1.615465e-05
0.0003975264
1.833587e-05
0.0003785328
2.026409e-05
0.0003596124
2.183056e-05
0.0003408219
2.28485e-05
0.0003220706
2.328888e-05
0.0003031398
2.324514e-05
0.0002839354
2.277362e-05
0.0002645035
2.203944e-05
0.0002448506
2.115473e-05
0.0002251424
2.019498e-05
0.0002055185
1.930361e-05
0.0001860314
1.853255e-05
0.0001667449
1.782268e-05
0.0001476692
1.708563e-05
0.0001287698
1.627505e-05
0.0001100033
1.539515e-05
9.134436e-05
1.444705e-05
7.276239e-05
1.341011e-05
5.422561e-05
1.226234e-05
3.572204e-05
1.09629e-05
1.726072e-05
9.50887e-06
-1.174684e-06
7.76111e-06
-1.962419e-05
5.836997e-06
-3.842685e-05
3.794988e-06
-5.755347e-05
1.670223e-06
-7.701571e-05
-5.160329e-07
-9.684289e-05
-2.747473e-06
-0.0001170759
-5.008105e-06
-0.0001377673
-7.277747e-06
-0.0001589961
-9.525616e-06
-0.0001808587
-1.170296e-05
-0.0002034544
-1.373634e-05
-0.0002269016
-1.549423e-05
-0.0002513317
-1.684942e-05
-0.0002768109
-1.764992e-05
-0.0003032956
-1.772289e-05
-0.0003306038
-1.697601e-05
-0.0003584174
-1.558933e-05
-0.0003862605
-1.399512e-05
-0.0004137326
-1.241866e-05
-0.0004411236
-1.087977e-05
-0.0004688756
-9.356179e-06
-0.0004972016
-7.846307e-06
-0.0005262856
-6.357971e-06
-0.0005564256
-4.907774e-06
-0.000588105
-3.522488e-06
-0.0006221651
-2.240917e-06
-0.0006601934
-1.113498e-06
-0.0007049429
-0.000745928
-2.258747e-06
0.0006356957
-1.831602e-06
0.0005933238
2.553778e-07
0.0005581797
3.690225e-06
0.0005319923
7.693993e-06
0.0005097704
1.192039e-05
0.0004893095
1.619779e-05
0.0004697014
2.043204e-05
0.0004505043
2.452881e-05
0.0004315163
2.84251e-05
0.0004126617
3.204306e-05
0.0003939081
3.530479e-05
0.0003752707
3.812179e-05
0.0003567951
4.043282e-05
0.0003385106
4.232197e-05
0.0003201812
4.395721e-05
0.0003015043
4.540698e-05
0.0002824855
4.668969e-05
0.0002632206
4.763464e-05
0.0002439055
4.812365e-05
0.0002246533
4.82267e-05
0.0002054153
4.802986e-05
0.0001862282
4.763517e-05
0.0001671395
4.709579e-05
0.0001482086
4.641757e-05
0.000129448
4.558149e-05
0.0001108393
4.457432e-05
9.235152e-05
4.339152e-05
7.394517e-05
4.203388e-05
5.558326e-05
4.050833e-05
3.72476e-05
3.882266e-05
1.894641e-05
3.692826e-05
7.197351e-07
3.465884e-05
-1.735474e-05
3.211806e-05
-3.588603e-05
2.937623e-05
-5.481161e-05
2.648136e-05
-7.41208e-05
2.346889e-05
-9.383037e-05
2.037259e-05
-0.0001139796
1.723344e-05
-0.0001346281
1.409381e-05
-0.0001558564
1.099741e-05
-0.0001777623
7.99824e-06
-0.0002004551
5.149621e-06
-0.0002240529
2.490593e-06
-0.0002486726
8.56411e-08
-0.0002744058
-1.940723e-06
-0.0003012691
-3.443792e-06
-0.0003291006
-4.356974e-06
-0.0003575041
-4.679128e-06
-0.0003859382
-4.457537e-06
-0.000413954
-3.970871e-06
-0.0004416101
-3.425917e-06
-0.0004694204
-2.868874e-06
-0.0004977584
-2.318344e-06
-0.0005268359
-1.791422e-06
-0.0005569523
-1.300159e-06
-0.000588596
-8.572192e-07
-0.0006226076
-4.802879e-07
-0.0006605698
-1.957776e-07
-0.0007052268
-0.0007461237
-1.414682e-06
0.0006371111
-1.129172e-07
0.0005920225
3.471617e-06
0.0005545956
8.165686e-06
0.0005272984
1.344893e-05
0.0005044872
1.899971e-05
0.0004837586
2.461323e-05
0.0004640877
3.013292e-05
0.0004449843
3.543521e-05
0.0004262137
4.042599e-05
0.0004076706
4.501978e-05
0.000389314
4.914754e-05
0.0003711426
5.276724e-05
0.0003531751
5.5921e-05
0.0003353566
5.870014e-05
0.0003174018
6.113316e-05
0.0002990711
6.322461e-05
0.0002803938
6.493873e-05
0.0002615063
6.629399e-05
0.00024255
6.738462e-05
0.0002235625
6.816038e-05
0.0002046395
6.857897e-05
0.0001858095
6.863312e-05
0.0001670853
6.833151e-05
0.0001485101
6.769117e-05
0.0001300883
6.673046e-05
0.0001118
6.547007e-05
9.36119e-05
6.393071e-05
7.548451e-05
6.213302e-05
5.738095e-05
6.01011e-05
3.927953e-05
5.785547e-05
2.119205e-05
5.538038e-05
3.194841e-06
5.256468e-05
-1.453901e-05
4.944004e-05
-3.276136e-05
4.607813e-05
-5.144966e-05
4.254746e-05
-7.059009e-05
3.890179e-05
-9.018465e-05
3.518652e-05
-0.0001102642
3.144602e-05
-0.0001308876
2.772717e-05
-0.0001521375
2.408102e-05
-0.0001741161
2.056538e-05
-0.0001969394
1.724444e-05
-0.0002207319
1.418326e-05
-0.0002456114
1.143413e-05
-0.0002716566
9.022768e-06
-0.0002988576
6.975276e-06
-0.000327053
5.354425e-06
-0.0003558831
4.226716e-06
-0.0003848104
3.548244e-06
-0.0004132754
3.072327e-06
-0.0004411341
2.61598e-06
-0.0004689639
2.196356e-06
-0.0004973386
1.81311e-06
-0.0005264524
1.463959e-06
-0.0005566029
1.140222e-06
-0.000588272
8.309013e-07
-0.0006222979
5.248142e-07
-0.000660263
2.221486e-07
-0.000704923
-0.0007459014
-9.013717e-07
0.0006380132
1.230015e-06
0.0005898917
5.575454e-06
0.0005502505
1.111145e-05
0.0005217627
1.727812e-05
0.0004983206
2.37332e-05
0.0004773034
3.025204e-05
0.0004575686
3.666861e-05
0.0004385675
4.285693e-05
0.0004200251
4.872202e-05
0.0004018051
5.419155e-05
0.0003838441
5.921604e-05
0.0003661178
6.377001e-05
0.0003486208
6.786108e-05
0.0003312652
7.148127e-05
0.0003137813
7.459455e-05
0.0002959575
7.718473e-05
0.0002778034
7.927829e-05
0.0002594126
8.094429e-05
0.0002408839
8.219168e-05
0.000222315
8.303822e-05
0.0002037928
8.348944e-05
0.0001853582
8.350656e-05
0.0001670681
8.309272e-05
0.0001489239
8.226566e-05
0.0001309153
8.1049e-05
0.0001130166
7.946848e-05
9.519239e-05
7.755148e-05
7.74015e-05
7.532641e-05
5.960601e-05
7.282202e-05
4.178391e-05
7.006698e-05
2.394709e-05
6.709713e-05
6.164703e-06
6.39832e-05
-1.142507e-05
6.043646e-05
-2.92146e-05
5.664175e-05
-4.765492e-05
5.269949e-05
-6.664781e-05
4.867092e-05
-8.615604e-05
4.460556e-05
-0.0001061989
4.055136e-05
-0.0001268333
3.655644e-05
-0.0001481425
3.266908e-05
-0.0001702287
2.893759e-05
-0.0001932079
2.540886e-05
-0.0002172031
2.21278e-05
-0.0002423302
1.914005e-05
-0.0002686688
1.64949e-05
-0.0002962124
1.424284e-05
-0.0003248009
1.241994e-05
-0.0003540602
1.102189e-05
-0.0003834122
9.986261e-06
-0.0004122397
9.128893e-06
-0.0004402766
8.277682e-06
-0.0004681125
7.397262e-06
-0.000496458
6.491227e-06
-0.0005255462
5.554403e-06
-0.0005556658
4.576513e-06
-0.0005872938
3.542569e-06
-0.0006212636
2.431416e-06
-0.0006591513
1.223655e-06
-0.0007037145
-0.0007446777
-5.942064e-07
0.0006386082
2.075353e-06
0.0005872228
6.934127e-06
0.0005453922
1.302585e-05
0.0005156712
1.978253e-05
0.000491564
2.684432e-05
0.0004702415
3.396994e-05