# Region type : patch plate
# Faces        : 200
# Area         : 6.7000000e-01
# Scale factor : 1.0000000e+00
# Time         	areaAverage(T)
4300           	6.0459356e+02
4400           	6.0324474e+02
4500           	6.0695981e+02
