# Region type : patch plate
# Faces        : 80
# Area         : 2.0000000e-01
# Scale factor : 1.0000000e+00
# Time         	areaAverage(qr)
2000           	-5.9595885e+03
