/*--------------------------------*- C++ -*----------------------------------*\
| =========                 |                                                 |
| \\      /  F ield         | OpenFOAM: The Open Source CFD Toolbox           |
|  \\    /   O peration     | Version:  2312                                  |
|   \\  /    A nd           | Website:  www.openfoam.com                      |
|    \\/     M anipulation  |                                                 |
\*---------------------------------------------------------------------------*/
FoamFile
{
    version     2.0;
    format      ascii;
    arch        "LSB;label=32;scalar=64";
    class       volScalarField;
    location    "5100";
    object      alphat;
}
// * * * * * * * * * * * * * * * * * * * * * * * * * * * * * * * * * * * * * //

dimensions      [1 -1 -1 0 0 0 0];

internalField   nonuniform List<scalar> 
12000
(
2.654335e-05
0.0001476155
0.0001582367
0.0001692355
0.0001863686
0.0002033227
0.0001942139
0.0001692307
0.0001634427
0.0001965397
0.0002279615
0.0001866388
0.0001491645
0.0001579586
0.0002188
0.0002193679
0.0001544291
0.000138432
0.0001803213
0.0002247991
0.0001698735
0.0001393781
0.0001586568
0.0001949716
0.0001772593
0.0001508395
0.0001535597
0.0001682413
0.0001675564
0.0001613858
0.0001598625
0.0001573388
0.0001541222
0.0001566266
0.0001660742
0.0001687939
0.000153091
0.0001390662
0.0001438083
0.0001699951
0.0001887482
0.0001510353
0.0001202077
0.0001284426
0.0001868735
0.0002181781
0.0001323756
9.996438e-05
0.000127616
0.0002295948
0.0001634365
9.744049e-05
0.0001082645
0.0001475065
0.0001319686
9.433888e-05
8.413767e-05
7.490826e-05
6.641853e-05
5.36497e-05
1.628712e-05
0.000186827
0.0002153707
0.0002570234
0.0002890246
0.0003214799
0.0003651577
0.0004199341
0.0004846356
0.0005409553
0.0005841596
0.0006507663
0.000740107
0.0008232173
0.000863031
0.0009099174
0.001013966
0.001132705
0.00118063
0.001198515
0.00128262
0.001413888
0.001480307
0.001495238
0.001544267
0.001649932
0.001727911
0.001756497
0.001791348
0.001841861
0.00188437
0.001924223
0.001954244
0.001971618
0.00197033
0.001973452
0.001983491
0.001993306
0.001974691
0.001920217
0.001866804
0.001703672
0.001817945
0.001756307
0.001639733
0.001503419
0.001095503
0.001411038
0.001288951
0.001139335
0.0008898288
0.00092843
0.0007974822
0.0006654261
0.0005579817
0.0004253566
0.0002898123
0.0001766121
9.153518e-05
4.989998e-05
2.359113e-05
0.000228919
0.0003206447
0.0003919638
0.0004881729
0.0005942173
0.0007132121
0.0008415957
0.0009801791
0.001120877
0.001245067
0.001398576
0.001543563
0.001684079
0.00181265
0.001941102
0.002073904
0.002199571
0.002306724
0.002407717
0.002511064
0.002609664
0.00269269
0.002767306
0.002840203
0.002910149
0.002969929
0.003021176
0.003068044
0.003108391
0.003144678
0.003173986
0.003198375
0.003216039
0.003227461
0.003232824
0.003232191
0.003225137
0.003210891
0.003189525
0.003160741
0.003123523
0.003075677
0.003020913
0.002956208
0.00284313
0.00269481
0.002613656
0.002419807
0.002186979
0.002138098
0.001861327
0.001648665
0.001351399
0.001149839
0.001057575
0.0007347157
0.0004092864
0.0001497067
4.921698e-05
2.690006e-05
0.0002559283
0.0004028703
0.0005215952
0.0006762582
0.0008494579
0.001038367
0.001237714
0.001444165
0.001651786
0.001858167
0.002060192
0.002252775
0.002432331
0.002599842
0.002757704
0.002905523
0.003041845
0.003166862
0.003282171
0.003388789
0.00348669
0.003576132
0.003658073
0.003732899
0.003800764
0.003861774
0.003914742
0.003964621
0.004006522
0.004041357
0.004069769
0.004092436
0.004108172
0.004116211
0.004116142
0.004107762
0.004090717
0.004064449
0.004028218
0.003981133
0.003922202
0.003850409
0.003763284
0.003662988
0.003547104
0.003413647
0.003260152
0.003086715
0.002892757
0.002474354
0.002030502
0.001901765
0.001703752
0.0016003
0.001268421
0.0009121289
0.0005482642
0.0002220189
5.032621e-05
2.720677e-05
0.0002865295
0.0004898818
0.0006601928
0.0008694374
0.001100029
0.001344369
0.00159593
0.001847995
0.002097106
0.002337338
0.00256791
0.002787195
0.002991895
0.003178752
0.003349465
0.003507071
0.003651833
0.00378555
0.003908676
0.004022056
0.004126622
0.004223197
0.004312256
0.004393992
0.004468604
0.004536295
0.004596839
0.004651505
0.00469807
0.004737384
0.00476996
0.004795347
0.004812921
0.004822198
0.00482269
0.004814508
0.004797117
0.004769935
0.004732341
0.004683674
0.004623198
0.004550176
0.004463525
0.004361485
0.004244654
0.004110171
0.003956351
0.003782768
0.003329292
0.002888171
0.002839837
0.002676439
0.002389549
0.00204993
0.001636789
0.001178566
0.0007019522
0.0002741455
5.016068e-05
2.788234e-05
0.0003017737
0.0005666282
0.0007825162
0.001033261
0.001305996
0.00159073
0.00187918
0.002163597
0.002438756
0.002700119
0.002945523
0.003174665
0.00338911
0.003589683
0.003774158
0.003943767
0.004100684
0.004246969
0.004382153
0.004506469
0.004621267
0.004727433
0.004825506
0.004915805
0.004998523
0.005071746
0.005140582
0.005200821
0.005252797
0.005296785
0.005332309
0.005359299
0.005377265
0.005385791
0.005384122
0.005372199
0.005349404
0.005315209
0.005268921
0.005209801
0.005137045
0.005049747
0.00494691
0.004827457
0.004687935
0.004530943
0.004354062
0.004154128
0.003914745
0.003661159
0.003361427
0.003027685
0.002658731
0.002251091
0.001802332
0.001315613
0.0008057439
0.0003292277
5.047946e-05
2.880997e-05
0.0003152978
0.0006321311
0.0008883642
0.001170112
0.0014712
0.001780612
0.002089464
0.002390846
0.002680952
0.002956983
0.003217686
0.00346334
0.003692639
0.003905294
0.004102821
0.004285425
0.004453787
0.004609094
0.004753702
0.00488907
0.005015451
0.005133174
0.005242479
0.005343496
0.005435833
0.005520089
0.005596316
0.005663301
0.005721211
0.005769936
0.005808926
0.005838273
0.00585735
0.005865713
0.005862935
0.005848725
0.005822444
0.005783664
0.00573192
0.005666661
0.005587227
0.005492812
0.005382477
0.005254961
0.005109391
0.004943639
0.004756443
0.004541591
0.004295822
0.004017201
0.003703341
0.003350296
0.002953463
0.002508954
0.002014953
0.001474265
0.0009037235
0.0003687478
5.055046e-05
2.958474e-05
0.0003242401
0.0006846053
0.0009753021
0.001277311
0.001593417
0.001916211
0.002239323
0.002557885
0.002862915
0.00315228
0.003424531
0.003678665
0.003915911
0.004137869
0.004346028
0.004541712
0.004724893
0.004896165
0.005056587
0.00520704
0.005348086
0.005479778
0.005602052
0.0057147
0.005815559
0.005910119
0.005995253
0.006070699
0.006135772
0.006189996
0.006233099
0.00626529
0.006285823
0.006294176
0.006289934
0.006272708
0.00624207
0.006197601
0.006138854
0.006065324
0.005976398
0.005871331
0.005749058
0.005608605
0.005448718
0.005266546
0.005059537
0.004824653
0.004559473
0.004261041
0.00392596
0.003550307
0.003130296
0.00266256
0.002145078
0.001579765
0.0009807561
0.0004094094
5.069555e-05
3.137648e-05
0.0003325183
0.0007213243
0.001041092
0.001358631
0.001688449
0.002023055
0.002354865
0.002676788
0.002987929
0.003285003
0.003566491
0.00383205
0.004082238
0.004317952
0.004540074
0.004750235
0.004949603
0.005138079
0.005315185
0.005480643
0.005634548
0.005779421
0.005915066
0.006041367
0.006157952
0.00626428
0.006359445
0.006443161
0.006515051
0.006574719
0.006621905
0.006656654
0.006678252
0.006686158
0.006679939
0.006659211
0.006623589
0.006572658
0.006506018
0.006423349
0.006324336
0.006208614
0.006075261
0.005921958
0.005746617
0.00555018
0.005329453
0.005081923
0.004804175
0.004492135
0.004142789
0.003750691
0.003311288
0.002820228
0.00227484
0.001677188
0.001043043
0.0004376064
5.073019e-05
3.056483e-05
0.0003484348
0.0007511654
0.001094083
0.001425784
0.001760432
0.002097901
0.002432547
0.002759634
0.003076415
0.003380766
0.003671556
0.00394851
0.004211942
0.004462469
0.004700767
0.004926249
0.005138748
0.005340512
0.005532822
0.005715859
0.005889677
0.006052249
0.006203798
0.006342357
0.006471575
0.006588716
0.006693399
0.006785225
0.006863771
0.006928608
0.006979463
0.007016211
0.007038202
0.007044928
0.007035986
0.007011061
0.006969919
0.006911786
0.006835754
0.006741802
0.006629609
0.006498591
0.006348684
0.006180685
0.005990892
0.005780233
0.005545033
0.005283004
0.004991661
0.004667641
0.004304116
0.003895197
0.003438746
0.002930222
0.002367026
0.001750889
0.001096124
0.0004658247
5.078024e-05
3.004539e-05
0.000345328
0.0007628976
0.001126971
0.001468396
0.001807677
0.002147308
0.002484181
0.002814764
0.003136448
0.003447533
0.003747117
0.00403487
0.004310785
0.004574983
0.004826201
0.005066947
0.005298376
0.005519561
0.00573008
0.005929945
0.006118846
0.006296242
0.006461708
0.006613862
0.006754455
0.006881805
0.006995416
0.007094795
0.007179461
0.007248939
0.007302902
0.007341045
0.007362678
0.007367266
0.007354348
0.007323505
0.007274344
0.007207141
0.00712232
0.007019178
0.006897179
0.006755885
0.006594728
0.006412971
0.006209005
0.005983553
0.005734097
0.005458263
0.005152699
0.004813176
0.004435972
0.004017856
0.003548686
0.003025328
0.002445012
0.001809576
0.001134325
0.0004843622
5.073451e-05
3.410672e-05
0.0003260922
0.0007624062
0.001150918
0.001504694
0.001847966
0.002188028
0.002524742
0.002856182
0.003180545
0.00349656
0.003803449
0.004100792
0.004388341
0.004665011
0.004932725
0.005190182
0.005437282
0.00567379
0.005899459
0.006113992
0.006316786
0.006507458
0.006685526
0.00685003
0.00700131
0.007138248
0.007260212
0.0073666
0.007456834
0.007530351
0.007586673
0.007625422
0.007646212
0.007648677
0.007632448
0.007597173
0.007542521
0.007468182
0.00737387
0.007259413
0.00712465
0.006969442
0.006793575
0.006596769
0.006378292
0.006138511
0.005875863
0.005588421
0.005273019
0.004925058
0.004538811
0.004108176
0.003629405
0.003094977
0.002503283
0.001855862
0.001167441
0.0005022279
5.072974e-05
3.36049e-05
0.0003254285
0.0007571166
0.001157581
0.001520223
0.001866604
0.002206934
0.002543726
0.002876573
0.003204318
0.003525763
0.003839973
0.004146196
0.004443674
0.004732157
0.005009865
0.005268542
0.005433494
0.005680717
0.005959422
0.00625881
0.006477005
0.006682923
0.006874791
0.007051842
0.007213691
0.007359445
0.007488456
0.007600319
0.007694605
0.007770872
0.00782875
0.007867854
0.00788765
0.007887692
0.007867585
0.007826986
0.007765605
0.007683213
0.007579632
0.007454738
0.007308454
0.007140701
0.006951371
0.006740402
0.006507773
0.00625399
0.00597877
0.005681124
0.005358098
0.00500424
0.004612797
0.004176927
0.003690062
0.00314827
0.002547192
0.001888843
0.00118884
0.0005128293
5.065062e-05
3.363332e-05
0.0003178445
0.0007475197
0.00115853
0.001529172
0.001879246
0.00222028
0.002556702
0.002889426
0.003218058
0.003541747
0.003859342
0.004169172
0.004468607
0.00464516
0.004731379
0.004840919
0.005011175
0.005255097
0.005550112
0.005859772
0.00611862
0.006367695
0.006621322
0.006894415
0.007207249
0.007516008
0.007669414
0.007786163
0.00788453
0.00796378
0.008023331
0.008062732
0.008081508
0.008079228
0.008055523
0.008010093
0.007942713
0.007853218
0.007741493
0.007607447
0.007451136
0.007272797
0.007016537
0.006679389
0.006349273
0.006030513
0.005768563
0.00559314
0.005409981
0.005055792
0.004663287
0.004225198
0.003735117
0.003187569
0.002580055
0.001914689
0.001207014
0.0005225465
5.06342e-05
3.411081e-05
0.0003088022
0.0007328449
0.001149968
0.001529932
0.001885249
0.002228261
0.00256508
0.00289788
0.003226786
0.003550804
0.003868129
0.004176193
0.00434242
0.004449133
0.004582738
0.00473398
0.004905656
0.005072187
0.005266555
0.005493026
0.005771979
0.00607948
0.006386402
0.006685465
0.006952383
0.007207868
0.007453357
0.007693535
0.007926276
0.00810784
0.008168916
0.008208757
0.008226802
0.00822264
0.008195927
0.008146407
0.008073937
0.007978493
0.007851551
0.007634342
0.007377679
0.007093239
0.006778891
0.006433059
0.006097058
0.005817365
0.005593886
0.005413499
0.005271961
0.005087625
0.004696674
0.004257993
0.003765568
0.003214604
0.002602397
0.001931285
0.001217422
0.000527382
5.055029e-05
3.464809e-05
0.0003002567
0.0007174967
0.001139802
0.001526393
0.001886275
0.002231342
0.002568564
0.002900878
0.003228778
0.003551372
0.003866879
0.004151527
0.004306132
0.004434451
0.004546358
0.004670105
0.004810608
0.0049789
0.005190402
0.005434201
0.005685518
0.005940754
0.006206306
0.006478037
0.006754184
0.00701423
0.007248281
0.007459529
0.007659391
0.007859325
0.008069183
0.008134504
0.008072418
0.008036718
0.007995879
0.007932246
0.007840049
0.007716637
0.007559612
0.007366404
0.007137049
0.006873654
0.006580529
0.006267791
0.005951502
0.00565082
0.00540881
0.005259885
0.005181807
0.005076422
0.004719117
0.004280761
0.003787295
0.003234153
0.002618941
0.001944115
0.001226154
0.000531572
5.050708e-05
3.510428e-05
0.0002929638
0.0007019753
0.001125317
0.001516464
0.001881077
0.002228774
0.002566613
0.002898122
0.003224394
0.003545016
0.003858614
0.00416339
0.004315708
0.004409158
0.004500743
0.004617524
0.004768975
0.004963054
0.005166961
0.005383637
0.005616801
0.00586477
0.006124578
0.006384176
0.00663421
0.006867094
0.007079275
0.007272605
0.007455389
0.007644457
0.007873609
0.007956418
0.007878847
0.007823772
0.007772532
0.007711344
0.007629103
0.007518045
0.007372012
0.00718771
0.006965962
0.006710412
0.006426381
0.006124711
0.005824625
0.005550599
0.005326549
0.005168468
0.0050808
0.004999131
0.004733891
0.004297107
0.003803375
0.003248584
0.002630867
0.001953533
0.001232256
0.0005340325
5.044802e-05
3.548755e-05
0.0002868421
0.0006865651
0.001109504
0.00150542
0.001873842
0.002223498
0.002561602
0.002892026
0.003216318
0.003534462
0.003845359
0.004131072
0.004283781
0.004393874
0.004503517
0.004630478
0.004779275
0.004948646
0.005151061
0.005375686
0.005616326
0.005853675
0.006095548
0.006337684
0.006572708
0.006791964
0.006989986
0.00716784
0.00733642
0.007522856
0.007780265
0.007893882
0.007804929
0.007728333
0.007664106
0.007596615
0.007511345
0.007398546
0.007252425
0.007070171
0.006851766
0.006599948
0.006320552
0.006023825
0.005725935
0.005449591
0.005223296
0.00507304
0.005002181
0.004951714
0.004742668
0.004307191
0.003813538
0.00325801
0.002639012
0.001959418
0.001236352
0.000535781
5.039381e-05
3.579494e-05
0.0002815591
0.0006726312
0.001093021
0.001490836
0.001861811
0.002214212
0.002553176
0.002882896
0.003205439
0.003521273
0.003829713
0.004125594
0.004284598
0.004399734
0.004512633
0.004642625
0.004797903
0.004979624
0.005185079
0.005401994
0.005630558
0.005873114
0.006117604
0.006356597
0.006583499
0.006792739
0.006981745
0.007153116
0.007315892
0.007484653
0.007674236
0.007880838
0.007872611
0.007711492
0.007618996
0.007541775
0.007451401
0.00733407
0.007183404
0.006997112
0.006775872
0.006523033
0.006244956
0.005952021
0.00565966
0.005388145
0.005162279
0.005006197
0.004929175
0.004891161
0.004747118
0.004312734
0.003818896
0.003262348
0.002641943
0.001961345
0.001237214
0.0005360793
5.034803e-05
3.605348e-05
0.0002773432
0.0006600458
0.001076914
0.001475826
0.001850052
0.002203446
0.002542779
0.002871871
0.003192959
0.003506898
0.003813477
0.004111764
0.004308842
0.004443173
0.004569542
0.004708357
0.004867645
0.005048275
0.005246673
0.005465526
0.005697615
0.005939617
0.006178173
0.006409303
0.006627249
0.006826875
0.007005666
0.007166392
0.007318748
0.007478077
0.00765974
0.007875975
0.007889746
0.007724207
0.007611363
0.007514487
0.007410047
0.007283286
0.007126198
0.006935691
0.006712273
0.006459366
0.006183308
0.005893995
0.005605878
0.005338134
0.005115265
0.004962077
0.0048902
0.0048653
0.004750231
0.004316427
0.003822481
0.003265439
0.002644412
0.001963178
0.001238277
0.0005368351
5.029973e-05
3.625666e-05
0.0002741072
0.0006490804
0.001061749
0.001460461
0.001836045
0.002191261
0.002531107
0.002859868
0.003180034
0.00349285
0.003798612
0.004096554
0.004354807
0.004509501
0.004647419
0.004794472
0.004959215
0.005143701
0.005345833
0.005562467
0.005790458
0.006024488
0.006257186
0.006481433
0.006691172
0.006881554
0.007050179
0.007199117
0.007336974
0.007479939
0.0076508
0.007877827
0.007911409
0.00774277
0.007611149
0.0074954
0.007376558
0.007239629
0.007075464
0.006880264
0.006654344
0.006401168
0.006127041
0.005841505
0.005558187
0.005294909
0.005074835
0.004922181
0.004850373
0.004832435
0.00474555
0.004317304
0.003823372
0.003265889
0.002644268
0.001962625
0.001238101
0.0005365248
5.023922e-05
3.645755e-05
0.0002721315
0.0006401911
0.001048007
0.001445529
0.001821814
0.002178171
0.002518864
0.002847665
0.003167471
0.003479816
0.003785381
0.004084643
0.004376587
0.004595291
0.00475198
0.004909141
0.005079331
0.005264993
0.005466456
0.005681009
0.005904726
0.00613187
0.006356295
0.006571227
0.006771155
0.006951361
0.007109218
0.007246075
0.007369632
0.007496347
0.007652667
0.007874556
0.00792279
0.007761501
0.007616886
0.00748445
0.00735108
0.007203308
0.007031727
0.006831953
0.006603914
0.006350866
0.00607888
0.005797055
0.005518346
0.005259715
0.005043718
0.004894385
0.004825668
0.004812168
0.00473285
0.00431739
0.003823417
0.003265551
0.002643525
0.001961599
0.00123716
0.0005362033
5.019569e-05
3.661409e-05
0.0002709201
0.000632909
0.00103579
0.001431513
0.001807889
0.002165037
0.002506442
0.002835736
0.003155721
0.003468211
0.003774211
0.004074164
0.004368788
0.004658137
0.004877465
0.00504516
0.005220417
0.005409759
0.005610699
0.005821645
0.006039375
0.006258598
0.006472939
0.006677254
0.006866422
0.007036061
0.007183433
0.007308842
0.007417382
0.00752229
0.007652001
0.007861479
0.00795568
0.007803887
0.007620412
0.007472999
0.007329955
0.007173702
0.006995123
0.00679051
0.006560031
0.006306852
0.006036769
0.005758428
0.005484153
0.005230105
0.005018165
0.004872023
0.004805983
0.004795973
0.004722433
0.004316637
0.003822473
0.003264147
0.002641673
0.001959882
0.001235824
0.0005354554
5.013818e-05
3.684334e-05
0.0002705798
0.0006274253
0.001025458
0.00141879
0.001794737
0.002152403
0.002494585
0.002824614
0.003145251
0.003458475
0.003765557
0.004067258
0.004364045
0.004656045
0.004943494
0.005208467
0.005388524
0.005571808
0.005771499
0.005980464
0.006191665
0.006400397
0.006603596
0.00679702
0.006975337
0.007133797
0.0072701
0.007385459
0.007485719
0.007581669
0.007687115
0.007811611
0.007939716
0.007865934
0.0076464
0.007474975
0.007316496
0.007149874
0.00696411
0.006754848
0.006522069
0.006268783
0.006000507
0.005725464
0.005455439
0.005205977
0.004998446
0.004856191
0.00479345
0.004786484
0.004716577
0.004315959
0.003821369
0.003262478
0.002639616
0.001957677
0.001234095
0.0005346924
5.010644e-05
3.680061e-05
0.0002711167
0.0006239207
0.001017056
0.001407787
0.001783036
0.002140936
0.002483888
0.002814777
0.003136421
0.00345083
0.003759427
0.004063143
0.004362553
0.004657974
0.004949572
0.005237362
0.005520978
0.005765081
0.005953829
0.006148524
0.006355068
0.006558756
0.006753113
0.00693192
0.007097515
0.007244224
0.00736909
0.007472599
0.007559942
0.00764121
0.007728507
0.007828111
0.007940756
0.007879288
0.007665962
0.007483774
0.007311043
0.007132508
0.006938393
0.006724016
0.006488826
0.006235394
0.005968834
0.005696928
0.005430968
0.005185984
0.004982894
0.004844709
0.004785488
0.004781462
0.004713985
0.004315377
0.00382017
0.00326061
0.002637298
0.001955319
0.001232249
0.000533771
5.006339e-05
3.682892e-05
0.0002734407
0.0006211955
0.001009792
0.00139797
0.001772295
0.002130657
0.002474567
0.002806655
0.003129653
0.003445651
0.003756172
0.004062252
0.00436454
0.004663382
0.004958861
0.005250806
0.005538764
0.005822009
0.006099471
0.006358813
0.006545342
0.006724257
0.006904318
0.007081748
0.007238999
0.007373195
0.007484691
0.007574855
0.00764739
0.007709423
0.00777176
0.007849128
0.007951223
0.007894751
0.007684799
0.007493148
0.007307933
0.007118476
0.006916422
0.00669713
0.00645968
0.006206205
0.005941373
0.005672517
0.005410486
0.005169907
0.004971335
0.004837467
0.004782066
0.004780961
0.004714848
0.004315286
0.003819223
0.003258803
0.002634876
0.001952784
0.001230218
0.0005328016
5.004297e-05
3.834435e-05
0.0002693687
0.0006185915
0.001004224
0.001390148
0.001763615
0.002122101
0.002466891
0.002800458
0.003125242
0.003443318
0.003756258
0.004065156
0.004370692
0.004673191
0.004972659
0.005268788
0.005560972
0.005848307
0.006129586
0.006403335
0.006667852
0.006914841
0.007083121
0.007236509
0.007377659
0.007500733
0.007600743
0.007678469
0.007737417
0.007783722
0.007826709
0.007878692
0.007956225
0.007899947
0.007698943
0.007501229
0.007305484
0.007106244
0.006896957
0.006673232
0.006433867
0.00618058
0.005917582
0.005651752
0.005393536
0.005157266
0.004963211
0.004833787
0.004782391
0.004784173
0.004718594
0.004315874
0.00381878
0.003257383
0.002632759
0.001950489
0.001228346
0.0005318617
5.001614e-05
4.005217e-05
0.0002714109
0.0006145945
0.001000895
0.001384189
0.001756792
0.002115687
0.002461564
0.002796823
0.003123784
0.00344445
0.003760376
0.004072655
0.004381951
0.004688537
0.004992321
0.005292867
0.005589419
0.005880912
0.006165997
0.006443075
0.006710328
0.006965764
0.007207251
0.007402041
0.007528186
0.007632613
0.007719363
0.007785321
0.007831312
0.007861431
0.007882901
0.007908702
0.007961463
0.007912168
0.007716924
0.007505012
0.007300693
0.007094556
0.006879763
0.006652422
0.006411532
0.0061586
0.005897433
0.005634491
0.005379873
0.005147777
0.004958224
0.004833361
0.004786139
0.004790779
0.004725051
0.004317461
0.003818988
0.003256419
0.002630982
0.001948307
0.001226436
0.0005308704
5.001008e-05
4.093756e-05
0.0002753274
0.0006045463
0.0009998672
0.001380323
0.001751886
0.002111037
0.002458501
0.002796
0.003125731
0.003449631
0.003769217
0.004085541
0.004399212
0.004710417
0.005018948
0.005324229
0.00562535
0.005921092
0.006209962
0.006490244
0.006759886
0.007016982
0.007259394
0.007485378
0.00769202
0.007798572
0.007865284
0.007912647
0.007942823
0.007958241
0.007962911
0.007960013
0.007947224
0.007910785
0.007752634
0.007514728
0.007297948
0.007084732
0.006865154
0.006634799
0.006392733
0.006140381
0.005881197
0.005621172
0.005369938
0.005141863
0.0049567
0.00483635
0.004793302
0.00480066
0.004734048
0.004319817
0.003819904
0.003256065
0.0026297
0.001946549
0.001224827
0.0005299893
4.999808e-05
4.103852e-05
0.0002785954
0.0005959678
0.0009999539
0.001377752
0.001748751
0.002108885
0.002458295
0.002798531
0.003131654
0.003459498
0.003783486
0.004104585
0.004423302
0.004739701
0.005053428
0.005363748
0.005669585
0.005969565
0.00626199
0.006544834
0.006816484
0.007074709
0.00731748
0.007542522
0.007747811
0.007931429
0.008019581
0.008052469
0.008063722
0.008060065
0.008044247
0.008017219
0.00797585
0.007916156
0.007757761
0.007523509
0.007300446
0.007079717
0.006854599
0.006621211
0.006378227
0.006126437
0.005868681
0.005610824
0.005362528
0.005138253
0.004957514
0.004841912
0.004803376
0.004813573
0.004745576
0.004323081
0.003821746
0.003256447
0.002628991
0.001945249
0.00122338
0.0005291409
4.999701e-05
4.094287e-05
0.000281615
0.0005884084
0.0009867629
0.001377933
0.001748144
0.002109327
0.002461046
0.002804713
0.003142023
0.003474647
0.003803882
0.00413056
0.00445504
0.004777224
0.005096582
0.005412208
0.005722729
0.006026423
0.006321852
0.006607235
0.006880297
0.007138938
0.007381249
0.007604828
0.0078079
0.007988673
0.008145548
0.008203586
0.008202732
0.008178616
0.008138341
0.008083307
0.00801478
0.007932641
0.00776725
0.007533524
0.007305089
0.00707817
0.006848102
0.006611492
0.006366994
0.006115912
0.005860446
0.005605919
0.005360943
0.005140286
0.004963554
0.004851964
0.004817206
0.00482928
0.004759259
0.004327568
0.003824323
0.003257566
0.00262894
0.001944458
0.001222445
0.0005285258
4.999458e-05
4.127441e-05
0.0002847558
0.0005818889
0.0009744958
0.001379975
0.00174986
0.00211265
0.002467527
0.002815481
0.003157898
0.003496137
0.003831465
0.004164538
0.004495479
0.004823901
0.005148947
0.005469307
0.005784104
0.006091764
0.006390128
0.006677222
0.006950956
0.007209237
0.007450253
0.007671594
0.007871674
0.008048853
0.008201702
0.008329025
0.008347336
0.008309671
0.008247433
0.008166973
0.008069335
0.007956619
0.007778897
0.007546632
0.007314768
0.007082878
0.006848924
0.006611339
0.006368261
0.006118511
0.005862644
0.00560691
0.005363867
0.005146449
0.004973415
0.004866875
0.004837094
0.004851748
0.004775259
0.004333186
0.003827995
0.003259575
0.002629537
0.001944091
0.001221634
0.0005279421
5.000746e-05
4.141037e-05
0.0002880339
0.0005765026
0.0009633769
0.001384361
0.001754518
0.002119382
0.002477833
0.002830503
0.003178707
0.00352364
0.003865901
0.004205673
0.004543103
0.004877751
0.005208751
0.005534983
0.005854484
0.006165527
0.006466159
0.006754346
0.007028027
0.007285228
0.00752391
0.007742261
0.007938625
0.008111543
0.008259773
0.008382306
0.008478373
0.008446035
0.008365522
0.008259319
0.008132718
0.007987917
0.007793963
0.007559905
0.007324282
0.007089172
0.006853216
0.006612367
0.006364708
0.006111327
0.005859199
0.005611143
0.005372531
0.005157639
0.004987367
0.004883863
0.004856025
0.004869124
0.004783603
0.004339499
0.003832397
0.003262299
0.002630859
0.001944378
0.00122133
0.0005275744
5.002901e-05
4.187231e-05
0.0002913174
0.0005720108
0.0009537587
0.001390126
0.001761414
0.002129415
0.002492195
0.002850608
0.003205427
0.003557415
0.003907102
0.004254735
0.004599771
0.004941419
0.00527856
0.005609737
0.005933191
0.006247012
0.006549193
0.006837699
0.007110523
0.007365798
0.007601555
0.007816185
0.008008196
0.008176306
0.008319456
0.008436817
0.008527786
0.008565707
0.008486255
0.008357952
0.00820167
0.008023162
0.007810512
0.007572915
0.007332292
0.007090769
0.006848326
0.006604674
0.006360067
0.006113151
0.005862996
0.005615244
0.005378079
0.005166607
0.005000494
0.004899329
0.004873384
0.004886219
0.004793153
0.00434696
0.00383782
0.003265831
0.002632891
0.0019451
0.001221249
0.0005273068
5.005314e-05
4.193577e-05
0.0002948619
0.0005691212
0.0009463315
0.001397832
0.001771212
0.002142789
0.0025113
0.002876501
0.003238943
0.003599097
0.003957131
0.004312809
0.004665445
0.005013974
0.005357004
0.005692876
0.006019738
0.006335629
0.006638561
0.006926567
0.007197735
0.007450297
0.007682476
0.007892807
0.00807998
0.008242899
0.00838069
0.008492705
0.008578506
0.008637858
0.008598734
0.00846215
0.008280894
0.008069611
0.007834403
0.00758729
0.007338903
0.007094585
0.006853638
0.006613661
0.00637023
0.006122514
0.005871491
0.005622512
0.005385849
0.00517636
0.005014095
0.004920268
0.004900451
0.004911201
0.004804099
0.004355574
0.003844263
0.003270314
0.002635703
0.001946513
0.001221709
0.0005273308
5.007598e-05
4.222839e-05
0.0002980475
0.0005665085
0.0009389027
0.00140698
0.001783203
0.00215954
0.00253435
0.002907237
0.003278234
0.003647337
0.004014273
0.004378414
0.004738764
0.005094001
0.005442536
0.005782586
0.00611225
0.006429578
0.006732639
0.007019533
0.007288476
0.007537778
0.007765913
0.007971554
0.008153583
0.008311092
0.008443394
0.008550007
0.008630648
0.008685208
0.008695319
0.008558307
0.008361811
0.008123534
0.007862197
0.007603933
0.007352744
0.007108426
0.006867499
0.006625826
0.006381101
0.006132902
0.005883053
0.005635966
0.005401078
0.005193567
0.005033658
0.004941683
0.004923102
0.00493327
0.004815835
0.00436489
0.003851301
0.003275283
0.002638834
0.001948261
0.00122238
0.0005274421
5.010014e-05
4.335104e-05
0.0003009128
0.0005663181
0.0009349685
0.001414353
0.001799163
0.002181511
0.002563892
0.00294541
0.003325617
0.003704042
0.004079989
0.004452466
0.00482019
0.005181621
0.005535036
0.005878589
0.006210372
0.006528467
0.006831002
0.007116141
0.007382277
0.007627847
0.007851516
0.008052147
0.00822881
0.008380787
0.008507563
0.008608813
0.008684391
0.008734299
0.008758668
0.008643655
0.008444388
0.008185131
0.007899138
0.007628507
0.007372026
0.007125069
0.006883084
0.006641604
0.006397838
0.006150229
0.005900165
0.005652886
0.005418453
0.005212587
0.005055803
0.004967952
0.004952276
0.004959392
0.004829008
0.004375497
0.003859495
0.003281248
0.002642785
0.00195048
0.00122332
0.0005277369
5.013667e-05
4.200988e-05
0.0003099278
0.0005663914
0.00093162
0.00141438
0.001817062
0.002205802
0.002596304
0.002987062
0.003377042
0.003765245
0.00415052
0.004531507
0.00490664
0.005274186
0.005632299
0.00597908
0.006312618
0.00663104
0.006932561
0.007215494
0.00747838
0.00771986
0.007938791
0.008134235
0.008305451
0.008451901
0.008573229
0.008669255
0.008739948
0.008785407
0.008805828
0.008729924
0.008531552
0.008252795
0.007942371
0.007657986
0.007395506
0.007146979
0.006904821
0.006663272
0.006418845
0.00617047
0.005919843
0.005672395
0.005438362
0.005233715
0.005079141
0.004994285
0.004981205
0.004986836
0.004843043
0.00438694
0.003868506
0.00328801
0.002647531
0.00195355
0.001224619
0.0005278959
5.017288e-05
4.120588e-05
0.0003140763
0.0005668475
0.0009279623
0.001411392
0.00183804
0.002234092
0.002633563
0.003034291
0.003434605
0.003832943
0.004227689
0.004617124
0.004999425
0.00537269
0.005734989
0.006084401
0.006419056
0.006737178
0.007036937
0.007317188
0.007576427
0.007813519
0.008027523
0.008217689
0.008383459
0.008524457
0.008640477
0.00873146
0.008797472
0.008838707
0.008855385
0.008804998
0.008607291
0.008312709
0.007982981
0.007687817
0.007420597
0.007170574
0.006928177
0.006686609
0.006441933
0.006192961
0.00594154
0.005693436
0.005459304
0.005255487
0.005102802
0.005020447
0.005008945
0.005012114
0.004857781
0.004399041
0.0038781
0.003295249
0.002652579
0.001956592
0.001226291
0.0005285275
5.022381e-05
4.208994e-05
0.0003113776
0.0005684057
0.0009255889
0.001410663
0.001861954
0.002266349
0.002675581
0.003086855
0.003497862
0.003906478
0.004310634
0.004708275
0.005097349
0.005475827
0.005841729
0.006193159
0.006528329
0.00684559
0.007143274
0.007420439
0.007675765
0.007908312
0.008117327
0.008302244
0.008462675
0.008598393
0.008709319
0.008795498
0.008857079
0.008894268
0.008907362
0.008864026
0.008668886
0.008365166
0.008020804
0.007717511
0.00744706
0.007196463
0.006954345
0.006712866
0.006467734
0.006217857
0.005965379
0.005716404
0.005481949
0.005278677
0.005127559
0.005047477
0.005037602
0.005038538
0.004873307
0.004411854
0.003888325
0.003303029
0.002658096
0.001960113
0.001228029
0.000529074
5.026088e-05
4.389303e-05
0.0003143345
0.0005712676
0.0009243685
0.001411015
0.001888774
0.002302214
0.002721811
0.003144055
0.003565976
0.003984891
0.0043983
0.004803841
0.005199273
0.005582476
0.005951468
0.00630441
0.006639628