/*--------------------------------*- C++ -*----------------------------------*\
| =========                 |                                                 |
| \\      /  F ield         | OpenFOAM: The Open Source CFD Toolbox           |
|  \\    /   O peration     | Version:  2312                                  |
|   \\  /    A nd           | Website:  www.openfoam.com                      |
|    \\/     M anipulation  |                                                 |
\*---------------------------------------------------------------------------*/
FoamFile
{
    version     2.0;
    format      ascii;
    arch        "LSB;label=32;scalar=64";
    class       volScalarField;
    location    "5100";
    object      G;
}
// * * * * * * * * * * * * * * * * * * * * * * * * * * * * * * * * * * * * * //

dimensions      [1 0 -3 0 0 0 0];

internalField   nonuniform List<scalar> 
12000
(
26828.72
23956.63
22673.89
21718.86
20715.47
19701.48
18836
18205.32
17790.18
17517.89
17325.06
17202.13
17195.16
17353.57
17660.45
18006.63
18238.07
18244.58
18020.3
17650.72
17242.48
16853.76
16474.47
16060.83
15589.73
15090.61
14636.65
14307.59
14151.54
14166.5
14305.67
14496.91
14664.43
14745.52
14701.28
14522.35
14229.87
13870.15
13502.91
13186.19
12962.78
12853.13
12855.98
12954.15
13122.4
13334.39
13567.26
13802.52
14025.26
14221.68
14380.74
14497.33
14573.93
14618.34
14639.11
14638.94
14614.08
14551.68
14475.53
14283
29327.09
27489.27
25969.31
24544.48
23105.61
21841.8
20906.8
20266.5
19793.92
19384.18
19012.11
18736.52
18645.32
18766.39
19014.45
19224
19245.36
19029.3
18637.2
18176.83
17721.22
17271.85
16784.42
16226.69
15620.72
15041.93
14581.89
14303.39
14214.37
14269.73
14392.85
14502.28
14532.75
14447.03
14239.99
13936.73
13585.4
13245.14
12971.45
12803.34
12756.61
12825.1
12987.64
13216.54
13483.71
13763.36
14032.65
14272.22
14467.39
14609.05
14693.75
14723.23
14704.53
14649.73
14573.21
14485.19
14386.96
14265.99
14141.56
13915.89
29734.4
28583.18
27119.44
25697.34
24418.49
23327.19
22432.58
21689.6
21038.74
20454.3
19976.64
19695.84
19674.8
19868.97
20120.55
20240.21
20113
19749.76
19252.1
18727.4
18221.68
17714.13
17164.2
16566.28
15971.2
15464.17
15120.48
14968.83
14981.35
15089.07
15209.49
15271.81
15232.04
15077.94
14826.69
14518.08
14204.3
13937.64
13758.52
13687.33
13722.79
13846.68
14032.03
14250.74
14477.78
14691.85
14874.71
15011.48
15092.71
15116.26
15086.74
15012.66
14903.88
14771.08
14625.85
14478.3
14332.87
14179.66
14032.63
13790.89
29759.11
28960.57
27426.15
25945.49
24900.69
24108.19
23324.07
22487.22
21665.75
20968
20507.72
20360.97
20498.17
20758.82
20917.88
20804.71
20387.65
19767.6
19093.97
18469.83
17911.31
17376.94
16831.01
16288.91
15816.35
15491.11
15358.32
15407.03
15576.47
15781.99
15944.06
16008.47
15954.18
15791.73
15556.18
15296.96
15066.16
14906.76
14843.62
14879.95
14999.95
15176.28
15378.63
15580.13
15759.85
15901.83
15993.37
16024.93
15992.38
15899.41
15756.97
15579.31
15379.36
15166.69
14948.62
14731.13
14519.53
14306.89
14119.59
13818.15
29612.98
28993.31
27463.83
25913.48
24896.45
24220.27
23544.75
22757.35
21951.89
21299.01
20943.54
20920.73
21112.7
21292.29
21242.59
20871.45
20243.09
19513.77
18825.25
18231.91
17702.92
17182.06
16651.42
16154.09
15768.19
15558.33
15538.74
15667.05
15865.16
16050.39
16160.73
16166.68
16071.34
15903.4
15707.2
15531.45
15418.09
15393.2
15462.36
15611.86
15814.76
16039.19
16255.61
16440.98
16579.42
16660.55
16677.58
16627.05
16510.6
16337.04
16121.98
15883.73
15637.66
15392.23
15149.78
14910.15
14677.74
14451.33
14268.89
13983.96
29423.67
28788.66
27411.16
25853.74
24583.49
23701.07
23068.21
22510.26
21972.79
21535.5
21301.69
21274.71
21324.57
21265.05
20974.02
20463.66
19854.91
19284.64
18817.06
18419.56
18010.2
17532.51
17001.37
16493.86
16100.4
15873.64
15805.51
15838.5
15896.76
15916.53
15863.24
15733.93
15550.63
15350.75
15177.07
15068.01
15049.1
15127.46
15291.33
15514.64
15764.7
16009.7
16223.7
16388.52
16493.13
16532.1
16504.29
16412.45
16263.78
16070.67
15850.17
15620.98
15398.35
15189.36
14992.89
14804.58
14627.17
14466.09
14354.3
14199.66
29248.56
28378.2
27140.96
25573.89
23972.45
22791.25
22151.3
21834.67
21625.34
21474.89
21408.81
21390.31
21300.91
21027.97
20557.31
19987.37
19458.84
19058.33
18767.03
18486.59
18116.7
17625.36
17066.31
16540.65
16136.27
15885.06
15758.06
15691.31
15620.6
15505.43
15335.81
15126.45
14906.78
14711.87
14575.03
14521.24
14561.56
14690.59
14888.27
15125.55
15371.48
15598.82
15786.75
15921.23
15994.21
16003.2
15951
15845.34
15697.86
15522.87
15336.1
15153.09
14986.11
14840.57
14714.64
14604.2
14512.04
14447.71
14427.78
14432.73
28845.23
27349.76
26032.04
24469.81
22818.2
21558.72
20872
20614.57
20603.41
20742.06
20952.76
21103.36
21040.09
20684.57
20092.85
19419.97
18819.2
18352.52
17972.44
17579.01
17103.61
16558.94
16027.72
15607.77
15355.93
15264.28
15274.78
15314.47
15327
15286.53
15194.77
15070.32
14938.88
14827.24
14759.18
14751.52
14810.31
14929.24
15091.48
15274.33
15454.36
15611.06
15728.34
15794.63
15803.16
15752.94
15649.65
15505.11
15334.77
15154.46
14977.98
14816.36
14677.36
14564.46
14476.87
14413.1
14376.74
14375.5
14410.39
14496.5
27392.55
25204.03
23941.97
22782.6
21595.34
20499.64
19684.96
19301.82
19376.5
19788.16
20305.96
20669
20687.63
20320.85
19678.94
18943.79
18260.18
17670.56
17129.75
16576.63
16003.63
15475.11
15089.71
14920.64
14975.91
15198.8
15499.86
15795.41
16031.52
16187.43
16265.97
16281.92
16254.88
16206.28
16157.21
16124.97
16119.29
16140.19
16178.89
16221.01
16250.37
16251.76
16212.55
16123.68
15981.2
15788.01
15554.85
15299.01
15040.51
14797.24
14581.53
14399.67
14253.88
14144.51
14071.11
14033.08
14030.9
14063.13
14115.64
14206.08
11242.69
14684.6
16308.79
17161.43
17444.56
17165.48
16707.63
16582.51
17016.45
17852.86
18734.88
19339.64
19517.21
19307.68
18867.7
18359.67
17866.53
17377.42
16842.1
16247.2
15656.6
15190.19
14961.61
15020.36
15332.69
15805.13
16328.4
16814.25
17210.72
17498.05
17676.91
17758.95
17762.43
17710.32
17627.24
17534.64
17445.92
17364.06
17282.5
17188.39
17066.64
16903.47
16688.93
16418.86
16096.6
15734
15350.95
14972.43
14623.42
14323.31
14082.02
13900.02
13772.39
13694.43
13664.21
13679.46
13732.97
13809.24
13880.85
13967.61
10800.14
13456.05
14880.24
15698.73
16000.62
15812.02
15473.66
15452.42
15954.22
16797.57
17611.42
18109.93
18226.32
18072.94
17812.18
17538.7
17237.97
16830.92
16262.63
15570.38
14885.84
14374.8
14158.34
14264.51
14631.44
15148.45
15704
16215.95
16638.08
16952.19
17157.99
17267.11
17300.46
17284.9
17247.52
17208.79
17177.48
17149.45
17110.22
17039.99
16919.15
16733.08
16475.44
16149.89
15770.55
15360.77
14950.25
14570.23
14247.67
13999.9
13831.54
13735.58
13699.17
13711.66
13768.53
13865.74
13989.47
14112.15
14207.3
14291.21
25386.61
21071.52
19488.51
18588.15
17751.06
16980.35
16425.74
16256.53
16503.15
16971.14
17365.31
17495.39
17370.46
17133.05
16917.14
16744.84
16525.79
16143.28
15555.93
14843.47
14171.34
13705.8
13537.66
13656.42
13976.93
14390.08
14804.52
15163.5
15441.2
15632.13
15743.8
15793.94
15808.23
15815.14
15838.24
15889.15
15964.35
16046.71
16110.82
16129.79
16081.66
15954.33
15748.11
15475.97
15161.55
14835.47
14530.49
14276.12
14093.36
13991.03
13964.72
13999.5
14076.34
14180.04
14303.12
14439.92
14576.14
14682.12
14751.91
14760.43
10206.31
11618.05
12674.56
13393.96
13656.35
13690.78
13796.27
14118.21
14619.19
15138.62
15501.35
15628.7
15579.38
15488.92
15455.91
15468.56
15428.64
15246.14
14923.87
14568.36
14326.7
14301.12
14500.04
14848.09
15235.73
15570.34
15801.78
15919.79
15937.88
15879.38
15771.49
15644.28
15528.48
15450.02
15423.27
15446.8
15504.2
15569.16
15612.71
15610.19
15546.43
15418.63
15236.71
15021.14
14798.77
14597.61
14441.87
14347.95
14321.77
14358.06
14442.05
14553.53
14672.28
14782.59
14874.72
14941.33
14974.54
14955.1
14911.19
14723.62
9007.79
10062.71
11116.02
12130.42
12865.13
13311.92
13657.33
14002.03
14316.67
14543.88
14658.53
14673.82
14635.95
14600.88
14590.11
14568.8
14483.12
14329.15
14187.26
14186.48
14424.69
14905.14
15531.78
16159.22
16658.51
16959.67
17056.34
16984.21
16794.85
16539.4
16263.23
16005.3
15796.13
15653.57
15579.21
15558.83
15567.45
15577.18
15564.64
15516.08
15429.31
15313.22
15185.33
15067.74
14981.94
14943.79
14960.02
15027.26
15133.09
15258.93
15383.86
15488.92
15559.59
15585.22
15557.22
15468.95
15323.75
15119.41
14921.35
14498.59
8675.968
9207.431
9892.658
10765.5
11776.06
12738.73
13476.36
13865.56
13895.94
13700.44
13475.67
13363.45
13397.49
13520.54
13629.65
13632.86
13509.63
13342.46
13286.5
13486.31
13991.92
14728.53
15534.79
16238.57
16722.46
16948.61
16944.39
16770.57
16494.24
16175.42
15863.93
15598.84
15406.07
15295.19
15258.46
15274.6
15316.4
15359.36
15388.11
15398.87
15398.32
15400.29
15421.72
15478.19
15579.53
15726.11
15907.42
16103.8
16290.97
16445.49
16549.52
16593.27
16573.62
16489.17
16336.56
16113.65
15833.6
15507.93
15222.33
14697.84
8625.297
8921.441
9369.332
10052.04
11153.44
12496.53
13608.91
14095.39
13899.23
13289.91
12661.89
12314.47
12335.23
12612.44
12939.2
13147.35
13202.69
13211.28
13339.84
13706.3
14310.28
15038.59
15729.75
16249.02
16531.73
16583.08
16450.7
16194.81
15871.34
15528.2
15206.91
14942.24
14758.47
14665.09
14655.76
14712.1
14810.97
14932.21
15063.69
15202.43
15352.23
15519.95
15711.86
15930.73
16173.42
16428.95
16678.38
16897.7
17063.56
17159.78
17181.19
17132.87
17024.88
16865.29
16657.08
16402.91
16117.18
15815.78
15568.72
15167.74
8630.126
8760.96
9086.773
9730.729
10895.81
12401.41
13679.57
14227.91
13946.72
13125.99
12228.29
11646.79
11542.52
11821.19
12250.56
12635.16
12928.65
13220.24
13630.6
14207.46
14890.33
15551.09
16066.7
16372.04
16468.41
16398.06
16211.61
15949.28
15639.96
15309.43
14986.87
14704.23
14490.08
14362.86
14327.38
14376.29
14495.01
14667.45
14880.13
15123.28
15389.38
15670.96
15959.01
16242.52
16508.54
16742.07
16926.27
17044.71
17086.13
17049.81
16947.4
16798.78
16624.08
16437.02
16243.98
16048.78
15858.6
15685.18
15555.42
15404.8
8660.303
8664.618
8928.521
9675.611
10955.45
12456.74
13649.39
14135.47
13857.47
13070.89
12187.78
11577.63
11402.67
11583.01
11916.32
12252.39
12583.57
12999.97
13575.58
14288.95
15029.41
15664.96
16111.11
16356.19
16440.39
16415.94
16318.39
16161.5
15949.37
15691.45
15409.84
15136.5
14904.82
14741.11
14659.92
14663.8
14746.24
14895.58
15098.06
15339.24
15603.72
15874.51
16133.08
16360.76
16540.67
16659.24
16706.82
16678.7
16577.61
16416.52
16218.26
16009.58
15812.76
15640.86
15499.21
15389.61
15310.71
15266.61
15242.9
15293
8693.826
8625.618
8900.913
9808.326
11177.23
12542.67
13498.95
13860.22
13654.82
13084.76
12451.59
12016.75
11870.89
11926.33
12040.64
12156.19
12336.79
12689.7
13259.23
13982.54
14728.56
15374.64
15860.55
16191.67
16405.66
16535.49
16592.88
16574.46
16478.14
16315.28
16112.03
15901.86
15715.59
15574.37
15487.75
15455.56
15471.6
15526.92
15612
15717.41
15833.28
15948.31
16049.26
16121.92
16153.45
16134.94
16063.18
15941.14
15778.28
15590.53
15398.49
15222.65
15077.69
14970.53
14903.02
14874.9
14880.79
14918.36
14952.02
15082.85
8712.661
8652.723
9051.312
10093.64
11404.03
12512.35
13224.89
13549.95
13548.74
13324.94
13028.51
12780.55
12603.19
12446.96
12285.58
12177.38
12236.68
12548.84
13106.38
13812.84
14540.63
15192.93
15729.83
16154.11
16480.1
16712.74
16847.25
16882.24
16831.71
16726.61
16605.52
16501.24
16430.96
16394.07
16376.96
16360.9
16329.2
16271.47
16185.01
16073.8
15946.03
15810.66
15674.09
15538.46
15402.46
15264.21
15124.41
14987.54
14860.73
14751.54
14666.13
14608.31
14579.21
14578.31
14605
14658.81
14734.2
14825.86
14893.36
15048.07
8716.319
8771.907
9395.944
10474.54
11543.49
12345.69
12926.8
13380.24
13712.12
13888.82
13887.5
13695.28
13322.89
12846.21
12417.26
12209.67
12333.3
12781.84
13447.51
14184.88
14877.01
15466.41
15944.55
16320.89
16598.73
16772.01
16838.55
16814.9
16740.1
16665.31
16635.36
16672.35
16768.93
16893.18
17001.19
17051.11
17013.62
16876.71
16645.65
16339.85
15987.89
15621.4
15268.84
14950.83
14678.85
14457.91
14290.72
14180.06
14127.18
14128.12
14172.44
14246.66
14339.94
14447.44
14568.91
14704.86
14849.84
14999.39
15112.23
15320.94
8722.763
9020.142
9892.989
10876.24
11633.09
12225.53
12828.62
13495.34
14153.89
14665.32
14863.85
14633.58
14015.51
13242.58
12641.95
12466.59
12777.12
13444.03
14246.49
14989.15
15568.76
15972.64
16235.09
16392.65
16464.33
16458.88
16393.14
16303.64
16242.4
16259.73
16384.19
16610.09
16898.18
17188.01
17415.82
17530.54
17503.29
17329.46
17025.52
16623.3
16163.45
15688.6
15236.82
14836.53
14504.65
14248.96
14072.8
13978.07
13963.52
14020.29
14130.43
14272.53
14431.1
14601.17
14784.21
14980.87
15184.34
15393.99
15565.77
15871.75
8773.017
9432.748
10489.34
11321.16
11892
12456.08
13144.2
13946.04
14787.49
15500.66
15829.57
15587.65
14842.07
13930.12
13276.26
13156.58
13577.79
14325.78
15116.57
15737.5
16107.01
16251.17
16242.43
16149.1
16017.7
15881.93
15777.91
15749.12
15836.97
16063.81
16419.57
16859.63
17315.47
17712.85
17990.1
18110.14
18063.67
17865.09
17544.76
17140.9
16693.25
16238.42
15806.5
15419
15088.65
14821.88
14622.77
14495.46
14442.54
14460.27
14536.04
14652.68
14797.34
14966.38
15160.71
15378.59
15610.68
15860.59
16080.9
16474.22
8927.961
10062.83
11252.83
12046.68
12646.25
13254.49
13922.84
14691.72
15563.1
16363.31
16776.72
16582.87
15863.41
14980.55
14356.62
14238.01
14599.28
15214.62
15813.74
16213.18
16361.85
16309.14
16143.4
15945.83
15776
15678.89
15693.92
15853.56
16171.97
16632.92
17186.54
17758.61
18268.88
18650.74
18864.95
18903.59
18785.11
18543.93
18219.41
17847.36
17455.75
17064.08
16685.07
16327.08
15996.36
15699.01
15442.52
15236.31
15089.96
15009.6
14994.55
15038.02
15132.03
15271.49
15452.34
15667.94
15906.35
16172.74
16416.47
16843.24
9455.175
11351.54
12746.96
13657.27
14323.26
14829.13
15296.03
15912.32
16722.7
17507.01
17926.73
17793.6
17211.83
16499.75
15987.14
15843.49
16029.93
16370.51
16673.31
16822.85
16804.86
16674.72
16508.77
16371.62
16308.7
16352.86
16528.88
16848.37
17299.2
17839.2
18401.05
18907.95
19293.42
19516.74
19569.01
19469.22
19253.65
18963.42
18634.07
18289.57
17941.43
17591.96
17239.94
16886.03
16535.96
16200.54
15893.45
15628.88
15420.15
15278.57
15211.4
15219.22
15295.48
15429.42
15609.31
15824.55
16063.31
16328.98
16570.29
16967.81
11139.47
13810.83
15203.24
16002.59
16431.46
16612.29
16813.47
17274.27
17963.46
18606.92
18928.45
18845.38
18479.34
18037.69
17687.48
17492.56
17419.81
17389.01
17330.54
17220.02
17077.83
16945.18
16859.14
16842.06
16905.47
17057.51
17303.64
17638.86
18038.69
18457.33
18836.69
19122.42
19278.97
19297.22
19192.63
18996.5
18744.76
18468.34
18187.26
17909.08
17631.17
17346.13
17048.36
16739.65
16430.91
16139.31
15882.5
15673.98
15522.53
15434.74
15416.01
15466.82
15578.21
15733.11
15914.64
16113.76
16325.27
16550.75
16749.17
17043.62
27749.43
25054.94
23665.86
22718.93
21796.74
20970.41
20497.75
20460.63
20659.21
20808.9
20767.32
20568.61
20305.3
20021.57
19700.88
19313.68
18860.75
18382.92
17942.89
17597.49
17376.19
17275.03
17266.61
17318.59
17409.36
17532.46
17688.57
17872.23
18062.94
18226.95
18328.37
18342.76
18265.56
18111.92
17909.33
17687.65
17470.88
17272.77
17096.33
16936.1
16782.16
16625.16
16461.37
16295.97
16142.48
16017.79
15934.99
15898.41
15904.66
15948.26
16025.88
16133.95
16262.34
16393.76
16513.53
16620.14
16721.21
16820.72
16904.02
16998.3
29415.49
27505.74
26078.39
24948.73
23804.12
22804.54
22214.55
22004.04
21914.28
21760.46
21564.76
21435.83
21395.44
21334.34
21102.81
20628.44
19967.96
19272.67
18705.03
18362.28
18245.9
18282.76
18375.27
18448.37
18471.33
18450.89
18407.69
18353.59
18282.26
18174.97
18014.61
17797.89
17539.12
17265.05
17005.17
16782.85
16610.69
16490.5
16416.22
16377.73
16364.56
16369.01
16388.47
16426.13
16488.8
16582.13
16705
16846.9
16990.6
17118.99
17221.03
17291.67
17326.41
17318.19
17263
17168.64
17055.07
16932.72
16824.4
16635.15
29923.28
28779.4
27477.62
26349.19
25335.31
24517.78
23967.63
23546.89
23083.5
22595.87
22256.73
22186.83
22318.74
22433.92
22309.88
21858
21168.6
20449.23
19904.96
19635.76
19606.02
19689.6
19749.9
19704
19541.72
19302.99
19038.22
18777.95
18524.78
18264.63
17984.69
17686.04
17385.52
17108.82
16880.78
16718.26
16627.82
16607.58
16650.7
16748.68
16893.43
17078.12
17297.15
17545.03
17814.37
18093.21
18363.46
18601.62
18782.5
18884.85
18896.51
18816.49
18652.46
18415.61
18118.04
17774.69
17410.31
17039.63
16723.96
16253.89
30049.86
29366.02
28072.31
26810.84
25993.71
25586.59
25243.11
24644.96
23786.05
22949.32
22450.91
22412.01
22704.5
23047.32
23165.37
22925.42
22385.24
21735.83
21177.79
20811.81
20606.21
20446.44
20219.71
19877.4
19445.39
18991.21
18578.68
18238.79
17967.13
17740.46
17537.26
17350.32
17187.8
17066.38
17002.71
17007.66
17084.86
17232.38
17445.19
17717.16
18041.47
18409.89
18811.28
19229.99
19644.92
20030.15
20357.27
20598.85
20731.75
20739.52
20615.09
20364.14
20006.36
19570.23
19082.83
18562.73
18029.97
17494.89
17047.79
16407.97
30053.01
29673.8
28415.32
27016.62
26310.61
26213.08
26022.93
25282.09
24134.64
23060.23
22465.29
22477.44
22951.84
23581.52
24042.5
24127.47
23812.48
23224.25
22536.37
21867.63
21243.18
20625.79
19977.52
19303.06
18651.58
18086.86
17652.98
17357.38
17176.52
17074.69
17022.35
17005.51
17025.03
17090.04
17210.67
17393.34
17639.38
17945.88
18307.27
18716.54
19165.19
19642.04
20131.33
20611.39
21055.14
21433.22
21718.65
21890.87
21937.01
21850.71
21632.02
21290.97
20851.73
20349.42
19817.19
19272.54
18725.02
18171.77
17713.8
17050.91
29986.83
29724.82
28607.31
27308.89
26645.01
26475.5
26109.81
25208.69
24022.69
23036.05
22594.96
22775.86
23418.51
24219.45
24852.2
25085.07
24847.12
24212.98
23329.51
22338.14
21335.37
20376.4
19498.6
18738.06
18127.95
17685.87
17404.27
17252.67
17190.28
17180.93
17202.91
17250.74
17330.71
17453.96
17630.39
17865.08
18157.12
18500.42
18885.41
19300.83
19734.52
20172.74
20598.58
20991.06
21326.65
21583.24
21744.94
21804.47
21761.84
21620.66
21386.34
21068.69
20686.62
20267.43
19836.94
19405.74
18973.18
18521.27
18142.23
17543.78
29880.49
29548.06
28684.02
27769.26
27077.43
26399.12
25496.12
24439.62
23521.25
23010.97
23019.63
23483.52
24204.51
24918.37
25380.04
25434.47
25043.51
24268.66
23232.54
22081.6
20958.03
19979
19220.98
18710.73
18426.68
18311.7
18293.91
18308
18310.33
18283.86
18234.29
18181.16
18148.39
18156.92
18220.31
18343.17
18521.43
18744.24
18996.93
19264.06
19531.45
19786.25
20015.54
20205.56
20343.09
20418.96
20431.18
20385.02
20289.65
20154.05
19984.88
19787.53
19568.6
19336.64
19099.34
18856.26
18601.54
18307.77
18045.09
17535.51
29733.34
29215.75
28680.84
28201.17
27316.11
25909.67
24420.88
23352.16
22909.41
23029.79
23538.09
24229.18
24893.53
25351.73
25492.67
25279.66
24727.3
23882.86
22829.87
21697.08
20645.33
19825.62
19328.61
19155
19222.98
19406.37
19582.4
19667.57
19630.78
19485.78
19272.56
19038.09
18822.54
18652.77
18541.09
18487.16
18481.18
18507.61
18549.35
18591.46
18623.48
18639.32
18635.59
18610.07
18562.19
18495.02
18416.51
18337.92
18270.33
18221.58
18194.87
18188.06
18193.02
18197.02
18187.55
18154.32
18092.47
17973.78
17842.55
17449.71
29523.52
28785.58
28515.76
28184.35
26948.98
25021.89
23309.7
22445.99
22456.31
23023.17
23800.14
24529.16
25047.57
25285.83
25250.67
24974.57
24467.93
23721.97
22759.74
21682.84
20664.87
19888.25
19465.14
19391.88
19559.9
19810.54
19999.88
20042.84
19923.66
19678.96
19368.94
19051.57
18767.41
18535.45
18356.41
18218.99
18106.16
18000.41
17887.65
17759.98
17616.5
17462.24
17305.58
17156.01
17023.23
16917.36
16849
16827.85
16860.7
16950.07
17093.42
17281.02
17493.41
17703.34
17885.73
18026.43
18125.32
18160.44
18158.16
17921.04
29037.09
27908.46
27634.1
27099.05
25652.33
23783.57
22343.62
21785.33
22028.61
22717.49
23484.97
24083.05
24416.99
24521.67
24483.97
24346.57
24062.53
23537.62
22724.45
21692.44
20620.63
19719.76
19136.7
18897.67
18915.49
19045.46
19153.08
19159.9
19053.91
18870.96
18664.41
18479.03
18337.45
18239.4
18168.87
18103.77
18023.81
17915.36
17773.35
17601.07
17408.57
17210.44
17023.15
16862.79
16743.2
16675
16665.21
16717.55
16832.94
17009.72
17242.28
17518.03
17814.98
18104.32
18360.65
18571.59
18740.8
18856.61
18940.94
18858.04
27585.52
26152.28
25891.95
25311.01
24181.85
22925.58
21998.16
21649.37
21869.07
22426.97
23005.25
23373.13
23494.05
23492.4
23513.83
23592.03
23617.59
23417.46
22876.43
22016.61
20991.73
20011.52
19247.92
18774.56
18562.03
18518.09
18542.64
18568.57
18574.66
18573.84
18590.31
18639.38
18718.15
18807.45
18880.68
18913.85
18892.6
18814.58
18687.73
18526.54
18348.16
18169.95
18008.17
17877.07
17787.36
17744.59
17749.12
17798.39
17889.95
18022.32
18192.46
18391.99
18605.96
18815.88
19005.61
19166.35
19301.13
19409.1
19512.72
19535.89
12308.03
16654.79
19001.99
19979.33
20335.04
20416.01
20385.42
20441.61
20741.72
21238.47
21711.94
21980.51
22059.38
22122.08
22331.78
22703.98
23095.51
23299.05
23161.5
22655.61
21879.89
21003.78
20195.81
19569.35
19163.59
18957.42
18900.37
18942.15
19048.43
19200.85
19387.57
19593.29
19795.1
19965.49
20079.6
20122.68
20093.9
20005.31
19876.75
19729.37
19580.68
19442.95
19324.25
19229.91
19162.25
19119.33
19095.25
19083.56
19081.64
19091.56
19116.4
19155.98
19206.81
19264.72
19325.63
19384.67
19441.41
19502.04
19583.75
19665.36
12372.47
16578.55
18640.31
19493.08
20075.48
20566.36
20826.12
20887.26
20933.97
21052.69
21169.53
21202.27
21191.68
21271.16
21540.5
21978.52
22452.75
22792.32
22864.04
22615.83
22082.26
21363.05
20587.75
19879.12
19325.25
18967.15
18802.5
18800.11
18916.42
19107.19
19332.71
19558.52
19755.51
19901.37
19983.33
20000.63
19964.63
19895.41
19815.63
19743.87
19690.39
19657.1
19640.61
19635.62
19636.22
19635.26
19624.57
19597.79
19554.13
19499.05
19440.54
19385.17
19338.06
19304.81
19289.99
19293.39
19312.66
19353.96
19421.33
19541.75
27517.77
25731.38
24735.19
23876.83
23366.79
23187.73
23043.53
22752.09
22340.65
21901.72
21497.1
21170.4
20971
20936.35
21062.27
21299.4
21573.72
21807.03
21926.74
21872.91
21611.46
21150.42
20546.77
19894.35
19295.45
18829.18
18531.39
18393.04
18373.83
18421.75
18489.82
18545.25
18571.23
18564.31
18530.46
18481.73
18433.44
18401.13
18396.91
18426.05
18485.56
18565.82
18654.36
18739.72
18813.35
18869.34
18903.59
18914.22
18902.93
18875.48
18840.01
18804.62
18776.5
18762.63
18769.17
18799.18
18850.09
18921.83
18998.15
19146.22
28838.74
27037.33
25749.98
24910.95
24264.03
23767.31
23400.55
23037.32
22542.54
21909.7
21269.11
20774.25
20490.21
20378.22
20363.52
20408.04
20526.76
20747.27
21056.6
21380.29
21607.38
21642.33
21450.11
21069.16
20588.36
20104.55
19684.26
19346.61
19070.41
18816.46
18551.17
18261.16
17955.2
17656.63
17392.5
17184.76
17045.73
16977.38
16972.72
17018.04
17095.63
17186.89
17275.61
17350.66
17407.42
17447.18
17474.8
17495.55
17513.23
17530.6
17551.12
17579.49
17620.04
17675.4
17747.47
17838.22
17943.68
18056.28
18138.24
18281.15
29055.39
27236.01
25850.25
25242.71
24759.84
24184.72
23674.89
23218.09
22626.55
21845.54
21048.25
20447.1
20099.26
19904.5
19746.04
19611.3
19595.94
19814.48
20301.64
20972.43
21655.72
22171.01
22401.66
22329.08
22018.87
21574.66
21087.6
20605.62
20131.7
19644.4
19124.96
18575.93
18024.41
17512.13
17079.99
16755.26
16545.48
16439.76
16414.56
16441.06
16491.5
16543.19
16580.62
16596.39
16591.67
16575.28
16560.25
16557.93
16573.23
16604.79
16649.9
16708.47
16781.92
16869.73
16969.69
17080.18
17194.99
17302.53
17359.27
17448.67
28645.09
26388.8
24693.12
23980.19
23742.3
23566.15
23317.55
22874.02
22119.32
21131.59
20183.9
19519.64
19169.19
18983.67
18810.88
18633.49
18570.21
18770.69
19298.54
20077.88
20922.66
21619.14
22011.78
22051.87
21793.66
21349.94
20835
20323.11
19837.12
19364.31
18884.43
18392.89
17908.95
17468.78
17110.4
16859.26
16720.4
16679.07
16707.49
16773.94
16850.25
16915.74
16957.95
16972.25
16961.79
16936.99
16912.51
16900.94
16906.82
16926.13
16952.3
16982.9
17020.37
17067.49
17123.9
17186.51
17247.62
17297.14
17308.17
17333.31
27135.07
24429.26
22657.66
21835.01
21900.97
22375.48
22663.46
22395.98
21551.49
20395.56
19297.51
18518.96
18106.36
17942.65
17889.14
17899.46
18034.55
18390.84
19005.85
19805.16
20617.68
21244.06
21537.26
21454.73
21061.69
20491.22
19885.67
19347.85
18920.11
18593.02
18331.7
18103.42
17894.16
17710.47
17570.26
17490.17
17476.13
17520.6
17606.12
17711.89
17819.56
17915.77
17991.93
18043.41
18069.66
18075.03
18067.72
18055.71
18041.71
18021.73
17989.74
17944.95
17895.14
17852.08
17823.1
17806.72
17794.26
17782.04
17763.85
17782.18
12287.47
14575.21
15355.22
15896.35
17025.58
18531.72
19689.52
20028.87
19592.82
18724.97
17786.56
17021.93
16547.55
16383.23
16493.89
16834.98
17381.18
18118.38
19006.35
19946.06
20782.9
21350.83
21534.04
21312.51
20768.86
20055.37
19339.5
18752.49
18360.17
18161.89
18111.15
18144.91
18208.8
18270.42
18319.97
18362.35
18407.01
18460.76
18525.52
18599.56
18679.64
18761.79
18840.89
18910.18
18962.32
18991.5
18995.1
18973.25
18926.43
18853.44
18752.88
18628.67
18494.55
18370.63
18271.77
18199.32
18144.61
18113.52
18105.36
18193.63
10894.06
12568.72
13539.67
14203.21
15314.52
16826.73
18110.37
18711.13
18639.81
18140.07
17429.87
16667.3
16014.24
15634.17
15629.41
16005.58
16694.62
17597.61
18605.6
19596.42
20433.03
20983.32
21157.47
20942
20410.23
19702.24
18982.94
18395.46
18026.51
17893.69
17955.28
18135.41
18353.42
18546.94
18682.58
18754.54
18775.58
18766.38
18747.54
18735.26
18739.75
18764.79
18807.85
18860.7
18911.17
18945.8
18953.31
18927.37
18867.13
18775.38
18656.68
18518.79
18376.07
18248.05
18149.88
18085.15
18048.81
18056.15
18095.5
18288.51
10550.89
11566.65
12612.51
13396.93
14247.6
15293.19
16301.69
17031.21
17418.16
17478.84
17215.2
16669.62
16002.15
15454.23
15228.7
15402.1
15926.63
16689.18
17566.75
18448.5
19233.67
19829.23
20160.74
20192.98
19947.07
19501.97
18976.31
18496.17
18160.09
18014.31
18046.5
18198.98
18394.1
18560.97
18653.85
18657.79
18583.45
18456.39
18306.13
18158.33
18030.87
17933.05
17866.61
17827.2
17805.87
17790.84
17770.59
17737.73
17691.74
17638.02
17583.87
17535.38
17497.7
17476.58
17477.04
17502.65
17554.91
17654.02
17767.6
18055.8
10539.57
11150.88
12361.9
13461.47
14096.8
14464.71
14919.49
15611.93
16414.97
17054.88
17295.06
17071.54
16523.55
15912.49
15487.13
15381.33
15594.95
16045.1
16635.44
17296.47
17984.23
18656.1
19252.38
19700.51
19939.9
19950.7
19768.34
19474.47
19168.04
18930.41
18800.26
18767.86
18788
18802.97
18764.48
18646.54
18447.29
18182.69
17876.95
17554.35
17234.65
16932.31
16657.8
16418.78
16220.08
16063.03
15946.07
15867.45
15828.61
15834.7
15890.48
15993.94
16133.43
16292.45
16459.01
16633.52
16822.06
17042.03
17238.4
17592.45
10616.38
10982.19
12299.46
13701.65
14272.79
14141.32
14099.37
14661.96
15699.46
16729.64
17343.03
17404.02
17026.61
16455.1
15937.08
15630.02
15569.86
15708.25
15984.67
16378.79
16910.05
17594.35
18397.33
19220.2
19928.03
20402.4
20587.92
20509.27
20253.6
19931.03
19633.37
19408.2
19255.01
19139.19
19013.79
18838.66
18590.97
18266.36
17873.86
17429.41
16951.43
16459.5
15974.93
15520.63
15119.05
14788.84
14542.56
14387.27
14327.25
14365.93
14503
14727.28
15012.2
15322.73
15632.57
15937.37
16242.58
16556.39
16810.77
17185.9
10738.89
11063.92
12352.89
13794.22
14404.05
14216.63
14037.63
14472.04
15456.29
16522.83
17253.85
17492.86
17311.03
16895.05
16446.73
16107.48
15922.35
15863.39
15895.77
16033.76
16342.51
16886.73
17667.19
18591.09
19495.54
20209.01
20615.99
20693.49
20507
20174.18
19816.73
19521.19
19320.83
19199.94
19112.86
19006.95
18840.23
18589.49
18249.75
17829.24
17344.53
16817.83
16276
15749.28
15268.3
14860
14544.34
14333.65
14234.45
14249.52
14376.39
14601.38
14895.33
15220.5
15548.01
15870.51
16189.05
16502.34
16749.19
17078.28
10903.9
11395.14
12539.04
13736.95
14438.99
14620.97
14696.52
15052.54
15733.41
16507.84
17110.65
17400.42
17380.85
17155.41
16864.43
16620.23
16465.06
16379.41
16334.21
16343.11
16471.92
16797.87
17349.84
18071.59
18831.53
19472.26
19871.5
19984.66
19852.39
19575.44
19271.7
19035.13
18910.82
18892.04
18935.07
18982.43
18983.72
18907.64
18743.76
18497.78
18184.99
17825.41
17441.22
17055.25
16689.25
16361.9
16087.53
15876.04
15734.16
15666.35
15673.6
15749.81
15879.4
16041.12
16217.63
16402.06
16590.57
16778.23
16930.01
17133.13
11140.36
11965.39
12940.15
13819.78
14648.11
15355.05
15841.29
16156.36
16445.64
16786.1
17122.56
17340.7
17374.95
17256.55
17084.09
16956.29
16919.04
16957.65
17030.9
17115.97
17230.86
17420.41
17718.53
18114.12
18543
18910.48
19130.98
19164.01
19029.71
18798.89
18564.26
18406.51
18369.09
18450.29
18612.54
18802.27
18970.3
19085.14
19136.13
19128.63
19075.89
18991.98
18887.56
18768.6
18637.08
18492.69
18335.1
18165.91
17989.42
17811.94
17640.41
17481.89
17343.55
17231.76
17148.94
17091.42
17052.08
17028.5
17020.29
17037.34
11646.81
13058.2
13965.43
14624.23
15522.94
16582.38
17360.26
17631.17
17574.32
17495.21
17528.88
17614.79
17648.41
17599.44
17519.58
17487.19
17553.27
17718.28
17940.98
18167.09
18359.71
18513.67
18646.95
18777.23
18900.84
18988.11
18997.71
18901.04
18702.43
18444
18192.87
18017.33
17963.22
18040.89
18226.94
18477.76
18747.54
19002.59
19227.37
19421.99
19594.58
19752.73
19897.44
20021.2
20109.91
20147.25
20119.72
20019.98
19847.35
19606.14
19305.22
18960.65
18598.23
18248.04
17930.46
17646.56
17388.88
17158.41
16986.51
16804.95
13032.72
15017.52
15740.61
16112.11
16854.11
17926.48
18755.86
18949.23
18638.91
18230.63
18012.56
18020.1
18139.05
18248.65
18293.58
18288.18
18285.66
18336.5
18455.89
18617.61
18775.33
18893.54
18964.66
19002.68
19021.6
19016.72
18962.36
18827.35
18597.7
18292.56
17964.03
17681.25
17506.86
17477.04
17593.17
17826.86
18134.28
18472.46
18811.02
19135.77
19444.82
19740.5
20021.56
20278.97
20496.59
20655.29
20737.91
20732.29
20631.39
20432.38
20138.43
19764.36
19340.32
18904.42
18485.04
18088.43
17710.92
17352.36
17068.3
16714.82
26038.81
23742.04
22176.56
21183.94
20941.31
21235.52
21480.91
21251.27
20584.76
19839.61
19365.51
19285.7
19481.74
19715.48
19780.68
19601.08
19239.28
18832.67
18507.89
18326.23
18281.29
18332.66
18441.97
18586.92
18751.48
18908.11
19010.35
19003.72
18849.21
18545.52
18137.22
17704.14
17336.87
17109.11
17057.89
17178.21
17432