/*--------------------------------*- C++ -*----------------------------------*\
| =========                 |                                                 |
| \\      /  F ield         | OpenFOAM: The Open Source CFD Toolbox           |
|  \\    /   O peration     | Version:  2312                                  |
|   \\  /    A nd           | Website:  www.openfoam.com                      |
|    \\/     M anipulation  |                                                 |
\*---------------------------------------------------------------------------*/
FoamFile
{
    version     2.0;
    format      ascii;
    arch        "LSB;label=32;scalar=64";
    class       volScalarField;
    location    "5100";
    object      ILambda_2_0;
}
// * * * * * * * * * * * * * * * * * * * * * * * * * * * * * * * * * * * * * //

dimensions      [1 0 -3 0 0 0 0];

internalField   nonuniform List<scalar> 
12000
(
3451.783
2637.146
2015.465
1561.325
1239.309
1017.12
868.9338
775.0329
720.3137
692.9105
683.4793
685.087
693.2095
705.3127
719.917
735.6015
750.5542
762.8681
771.1997
775.1947
775.3656
772.576
767.5399
760.6536
752.1758
742.5258
732.4447
722.9175
714.9338
709.2355
706.1565
705.5745
706.945
709.3982
711.8935
713.4174
713.2171
710.9971
706.9812
701.8205
696.3619
691.4004
687.5383
685.1181
684.2032
684.6157
686.0662
688.2589
691.0036
694.0423
696.9978
699.5133
701.3828
702.4523
702.5836
701.6882
699.6687
695.9816
691.7509
676.9906
4076.264
4059.443
3836.487
3481.562
3063.689
2634.297
2227.457
1863.377
1552.167
1296.886
1095.763
943.8237
834.2641
759.6731
712.9967
688.0368
679.466
682.5944
693.2066
707.623
722.9028
736.9877
748.6504
757.2743
762.6008
764.5746
763.3227
759.2034
752.8328
745.0371
736.7387
728.8212
722.0111
716.7927
713.3553
711.5771
711.05
711.1639
711.2469
710.7267
709.2635
706.8023
703.5362
699.823
696.0896
692.7357
690.057
688.2148
687.2524
687.167
687.9107
689.3501
691.2726
693.4456
695.641
697.6143
699.2507
700.0635
701.1129
698.4893
4007.36
4083.725
4142.564
4138.418
4049.181
3873.618
3624.29
3320.925
2985.515
2639.088
2299.785
1981.858
1695.316
1446.098
1236.645
1066.692
934.0587
835.2775
766.0399
721.5387
696.7962
686.9955
687.767
695.367
706.7284
719.4183
731.5667
741.8135
749.2831
753.5644
754.6712
752.9696
749.0794
743.7632
737.8145
731.9537
726.7375
722.4923
719.2888
716.9674
715.2122
713.6541
711.9646
709.9233
707.4484
704.5926
701.5078
698.3965
695.4598
692.879
690.8128
689.3835
688.6548
688.6269
689.248
690.4036
691.9846
693.7848
695.6277
698.3557
3977.271
3990.032
4026.307
4078.578
4128.553
4154.976
4139.63
4070.583
3943.192
3759.586
3527.295
3257.538
2963.465
2658.593
2355.536
2065.136
1795.99
1554.3
1343.932
1166.611
1022.192
908.996
824.1922
764.1984
725.0467
702.6862
693.2055
692.9875
698.8143
707.9438
718.1601
727.798
735.7351
741.3514
744.461
745.2226
744.0376
741.4418
737.9992
734.2116
730.4532
726.9424
723.7487
720.8283
718.0723
715.3575
712.5863
709.7104
706.7357
703.7129
700.7271
697.888
695.3162
693.1279
691.4216
690.2651
689.6889
689.7363
690.0667
691.9961
3955.293
3955.622
3959.443
3973.684
4002.128
4043.032
4089.238
4129.836
4152.446
4145.45
4099.724
4009.717
3873.864
3694.445
3477.01
3229.532
2961.457
2682.788
2403.29
2131.855
1876.042
1641.78
1433.238
1252.838
1101.391
978.3249
881.9514
809.7527
758.6512
725.2571
706.089
697.7645
697.1568
701.5161
708.5487
716.4577
723.9443
730.1759
734.7261
737.4939
738.6104
738.3449
737.0198
734.9468
732.3851
729.524
726.4852
723.3375
720.1166
716.844
713.54
710.2327
706.9647
703.7944
700.7918
698.0401
695.6105
693.5922
692.038
690.7097
3935.229
3935.737
3935.247
3934.933
3937.872
3947.848
3967.757
3998.266
4037.103
4079.11
4116.892
4141.855
4145.353
4119.784
4059.46
3961.164
3824.381
3651.217
3446.072
3215.149
2965.867
2706.255
2444.36
2187.743
1943.063
1715.796
1510.072
1328.628
1172.855
1042.916
937.9138
856.0936
795.058
751.9892
723.8603
707.6268
700.3897
699.5229
702.7636
708.2623
714.5964
720.7509
726.0715
730.2015
733.0104
734.5237
734.8619
734.1922
732.6944
730.5408
727.8858
724.8624
721.5837
718.1465
714.635
711.1321
707.7059
704.4035
701.5831
697.4895
3930.278
3927.705
3926.168
3925.072
3924.108
3923.835
3925.819
3932.317
3945.588
3967.102
3996.876
4033.102
4072.095
4108.568
4136.159
4148.111
4137.994
4100.368
4031.308
3928.75
3792.644
3624.909
3429.234
3210.741
2975.575
2730.449
2482.195
2237.363
2001.881
1780.798
1578.112
1396.682
1238.221
1103.348
991.699
902.0813
832.6476
781.0879
744.8174
721.1527
707.4648
701.3037
700.4885
703.1632
707.8198
713.2933
718.7342
723.568
727.4466
730.1984
731.7831
732.2511
731.711
730.3031
728.1841
725.5047
722.4333
719.0014
715.9051
710.3586
3938.92
3924.301
3907.528
3891.286
3877.343
3866.522
3859.111
3855.363
3855.833
3861.449
3873.343
3892.514
3919.412
3953.57
3993.336
4035.794
4076.856
4111.544
4134.388
4139.902
4123.068
4079.784
4007.21
3904.012
3770.454
3608.374
3421.029
3212.848
2989.123
2755.662
2518.441
2283.274
2055.524
1839.874
1640.153
1459.239
1299.013
1160.393
1043.399
947.2728
870.6224
811.5791
767.9616
737.4307
717.6276
706.2889
701.3338
700.9245
703.4988
707.7802
712.7698
717.7241
722.1255
725.6451
728.1147
729.4627
729.784
728.963
727.9024
723.8088
4043.683
4156.364
4215.378
4230.981
4215.15
4178.769
4130.814
4078.245
4026.237
3978.549
3937.904
3906.301
3885.207
3875.609
3877.955
3892.028
3916.8
3950.319
3989.679
4031.08
4070.002
4101.464
4120.35
4121.768
4101.407
4055.849
3982.819
3881.341
3751.802
3595.913
3416.588
3217.748
3004.069
2780.707
2553.009
2326.232
2105.298
1894.576
1697.73
1517.608
1356.196
1214.622
1093.204
991.5357
908.6073
842.9322
792.6867
755.8435
730.2944
713.9557
704.8532
701.1854
701.3657
704.0442
708.1185
712.7041
717.2037
721.0125
724.1619
726.2522
998.0772
1702.769
2318.938
2836.205
3253.099
3574.457
3809.411
3969.641
4067.949
4117.176
4129.442
4115.7
4085.512
4046.995
4006.842
3970.388
3941.658
3923.407
3917.141
3923.123
3940.415
3966.939
3999.603
4034.481
4067.049
4092.467
4105.894
4102.794
4079.238
4032.149
3959.497
3860.418
3735.255
3585.524
3413.804
3223.579
3019.023
2804.765
2585.644
2366.462
2151.767
1945.658
1751.642
1572.524
1410.36
1266.438
1141.318
1034.889
946.4633
874.8854
818.644
775.9891
745.0398
723.884
710.6542
703.6104
701.1384
701.9736
704.2715
710.376
472.0273
380.3845
492.4914
761.5256
1133.98
1561.273
2003.311
2429.353
2817.696
3154.759
3433.828
3653.668
3817.15
3930.009
3999.77
4034.869
4043.949
4035.331
4016.611
3994.369
3973.967
3959.412
3953.286
3956.736
3969.529
3990.159
4016.018
4043.627
4068.891
4087.399
4094.727
4086.727
4059.8
4011.114
3938.782
3841.958
3720.882
3576.847
3412.113
3229.764
3033.531
2827.586
2616.323
2404.147
2195.276
1993.565
1802.373
1624.456
1461.913
1316.164
1187.964
1077.451
984.2129
907.3779
845.7003
797.7009
761.6383
735.8953
718.7321
705.8644
3690.231
3049.92
2460.41
1974.693
1625.271
1423.517
1363.801
1428.615
1593.357
1830.399
2112.269
2413.933
2714.212
2996.517
3249.027
3464.457
3639.564
3774.474
3871.96
3936.696
3974.561
3992.007
3995.516
3991.136
3984.125
3978.677
3977.752
3982.991
3994.716
4012.012
4032.881
4054.448
4073.212
4085.321
4086.861
4074.124
4043.863
3993.493
3921.258
3826.328
3708.84
3569.882
3411.42
3236.182
3047.5
2849.134
2645.084
2439.398
2235.992
2038.498
1850.133
1673.598
1511.018
1363.914
1233.204
1119.208
1021.904
939.6738
877.2508
801.9487
1072.909
1726.613
2115.577
2276.69
2268.156
2152.455
1987.307
1820.636
1688.156
1612.877
1606.046
1669.01
1795.513
1974.098
2190.367
2428.938
2675.017
2915.533
3139.886
3340.313
3511.958
3652.709
3762.856
3844.645
3901.768
3938.844
3960.912
3972.974
3979.605
3984.635
3990.93
4000.257
4013.234
4029.372
4047.187
4064.368
4077.996
4084.786
4081.346
4064.424
4031.135
3979.159
3906.888
3813.526
3699.136
3564.635
3411.735
3242.847
3060.952
2869.445
2671.971
2472.255
2273.946
2080.459
1894.911
1719.778
1557.964
1407.389
1286.802
1111.67
586.8241
681.0224
914.0818
1205.745
1487.334
1713.685
1863.131
1933.408
1936.233
1891.73
1823.442
1754.371
1704.178
1687.493
1713.208
1784.559
1899.789
2053.178
2236.243
2438.963
2650.901
2862.153
3064.07
3249.753
3414.31
3554.921
3670.721
3762.559
3832.655
3884.213
3921.01
3946.996
3965.936
3981.103
3995.047
4009.441
4025.004
4041.505
4057.838
4072.155
4082.039
4084.719
4077.289
4056.929
4021.112
3967.779
3895.486
3803.491
3691.813
3561.231
3413.244
3249.993
3074.154
2888.785
2697.294
2502.768
2310.192
2115.677
1954.233
1684.201
620.932
575.6512
562.2242
609.8197
723.625
889.9933
1085.074
1282.645
1459.901
1600.919
1697.979
1751.249
1767.38
1757.515
1735.122
1713.961
1706.408
1722.242
1767.94
1846.446
1957.337
2097.302
2260.811
2440.888
2629.882
2820.19
3004.853
3178.018
3335.233
3473.592
3591.732
3689.71
3768.784
3831.129
3879.519
3916.997
3946.565
3970.915
3992.206
4011.912
4030.732
4048.57
4064.582
4077.276
4084.65
4084.37
4073.958
4050.986
4013.254
3958.958
3886.812
3796.142
3686.948
3559.877
3416.36
3257.816
3088.825
2902.686
2743.545
2437.93
644.8297
631.4159
603.3066
571.473
552.926
563.3452
612.2399
701.0644
823.7628
968.8925
1122.41
1270.385
1401.186
1506.944
1584.211
1633.901
1660.663
1671.864
1676.397
1683.475
1701.572
1737.583
1796.276
1880.026
1988.829
2120.536
2271.26
2435.876
2608.579
2783.409
2954.738
3117.655
3268.245
3403.755
3522.64
3624.509
3709.986
3780.505
3838.062
3884.959
3923.54
3955.957
3983.979
4008.842
4031.162
4050.899
4067.388
4079.404
4085.278
4083.042
4070.584
4045.816
4006.84
3952.052
3880.431
3790.869
3685.535
3555.698
3441.555
3183.597
650.0451
650.053
645.446
632.1618
609.8952
583.0909
559.8532
549.6951
561.0647
599.4043
666.1335
758.5739
870.6319
993.9813
1119.468
1238.481
1344.091
1431.823
1500.019
1549.802
1584.694
1610.003
1632.072
1657.489
1692.376
1741.786
1809.291
1896.751
2004.271
2130.329
2272.033
2425.467
2586.092
2749.151
2910.04
3064.635
3209.533
3342.207
3461.082
3565.512
3655.694
3732.52
3797.392
3852.013
3898.173
3937.556
3971.57
4001.213
4026.992
4048.88
4066.329
4078.32
4083.458
4080.052
4066.4
4040.298
4001.788
3942.637
3889.218
3733.559
652.8692
653.0159
653.6836
653.3456
649.4351
639.5872
622.9456
600.9955
577.6196
558.419
549.6044
556.7957
583.9938
632.8969
702.6482
790.0139
889.9155
996.1959
1102.482
1203.009
1293.297
1370.614
1434.178
1485.121
1526.227
1561.515
1595.725
1633.774
1680.24
1738.932
1812.571
1902.595
2009.117
2130.981
2265.946
2410.929
2562.301
2716.194
2868.804
3016.646
3156.762
3286.867
3405.417
3511.619
3605.376
3687.178
3757.962
3818.95
3871.475
3916.819
3956.073
3990.014
4019.039
4043.091
4061.779
4073.966
4079.498
4073.208
4067.015
4012.198
654.1518
654.1466
654.3707
655.1019
656.0888
656.3256
654.1881
647.9501
636.4848
619.8546
599.5994
578.6755
561.0825
551.2662
553.426
570.8566
605.4405
657.3657
725.1012
805.6174
894.8014
987.9949
1080.574
1168.487
1248.695
1319.462
1380.473
1432.795
1478.681
1521.271
1564.218
1611.295
1666.012
1731.297
1809.248
1900.98
2006.574
2125.112
2254.807
2393.174
2537.259
2683.878
2829.849
2972.203
3108.363
3236.261
3354.416
3461.946
3558.541
3644.383
3720.043
3786.352
3844.266
3894.715
3938.556
3976.222
4008.452
4033.905
4055.163
4067.593
653.1622
653.5956
653.9047
654.2572
654.8857
655.9444
657.2806
658.2647
657.8228
654.6778
647.7084
636.3244
620.7697
602.2814
583.0652
566.0868
554.7149
552.2776
561.6094
584.6614
622.2331
673.8634
737.8892
811.656
891.8446
974.8666
1057.273
1136.128
1209.305
1275.677
1335.189
1388.813
1438.4
1486.452
1535.841
1589.519
1650.226
1720.244
1801.211
1893.989
1998.627
2114.375
2239.776
2372.798
2511.005
2651.742
2792.325
2930.205
3063.119
3189.193
3307.013
3415.642
3514.61
3603.855
3683.661
3754.52
3817.015
3872.468
3916.849
3976.621
651.6136
652.0588
652.4761
652.8705
653.2711
653.7854
654.587
655.8027
657.363
658.8999
659.7327
658.9509
655.5835
648.825
638.2734
624.1301
607.3154
589.4722
572.8487
560.0743
553.8626
556.6871
570.477
596.3788
634.6152
684.4583
744.3176
811.9275
884.6063
959.5541
1034.152
1106.227
1174.26
1237.517
1296.084
1350.83
1403.287
1455.471
1509.674
1568.233
1633.315
1706.719
1789.732
1883.03
1986.631
2099.915
2221.68
2350.245
2483.584
2619.465
2755.604
2889.797
3020.045
3144.646
3262.22
3371.928
3472.567
3566.651
3641.507
3755.705
651.5841
651.5241
651.5489
651.6739
651.8754
652.1233
652.4343
652.8967
653.6414
654.7738
656.2927
658.0193
659.5563
660.296
659.4857
656.348
650.2378
640.8115
628.1738
612.9737
596.4254
580.2463
566.5146
557.4662
555.2585
561.7324
578.2076
605.3353
643.0287
690.4771
746.2406
808.411
874.8193
943.2629
1011.728
1078.586
1142.738
1203.703
1261.644
1317.325
1372.015
1427.354
1485.182
1547.369
1615.641
1691.428
1775.754
1869.148
1971.612
2082.629
2201.202
2325.936
2455.13
2586.912
2719.265
2850.536
2977.81
3104.44
3207.711
3380.615
654.6656
653.8615
653.1922
652.7236
652.4836
652.4587
652.6072
652.8926
653.3117
653.9038
654.7391
655.8888
657.38
659.1457
660.9805
662.5165
663.2324
662.502
659.6809
654.223
645.8059
634.4465
620.5832
605.1068
589.3329
574.9124
563.6928
557.5449
558.1785
566.9696
584.822
612.0786
648.493
693.2637
745.1249
802.483
863.5818
926.6786
990.2126
1052.948
1114.082
1173.303
1230.803
1287.244
1343.677
1401.437
1462.008
1526.892
1597.472
1674.895
1759.976
1853.138
1954.371
2063.262
2178.908
2300.479
2425.099
2557.44
2668.717
2874.165
659.874
658.3495
656.3516
653.9546
651.3414
648.7404
646.3672
644.3907
642.9242
642.0334
641.7514
642.0924
643.0601
644.646
646.817
649.4908
652.5066
655.5974
658.3768
660.3473
660.9375
659.5675
655.7356
649.1154
639.6472
627.6078
613.6455
598.7722
584.3088
571.7895
562.8355
559.012
561.6857
571.9008
590.2851
616.9994
651.7334
693.7472
741.9549
795.0381
851.5787
910.1953
969.6717
1029.064
1087.78
1145.618
1202.773
1259.81
1317.592
1377.205
1439.848
1506.728
1578.954
1657.464
1742.837
1835.746
1934.72
2045.727
2140.974
2334.569
666.7173
674.0493
684.1018
694.253
702.5458
707.8919
709.9339
708.8385
705.1033
699.3977
692.4416
684.9242
677.453
670.5276
664.5317
659.734
656.292
654.2526
653.5477
653.9867
655.2512
656.8989
658.3818
659.0855
658.3862
655.7243
650.6843
643.0716
632.9742
620.7991
607.2756
593.4242
580.4906
569.8524
562.908
560.9607
565.1086
576.1544
594.5431
620.3343
653.2112
692.5231
737.359
786.6413
839.2316
894.037
950.1092
1006.724
1063.441
1120.131
1176.976
1234.448
1293.251
1354.277
1418.42
1486.954
1559.476
1642.202
1712.706
1866.412
581.7755
461.4399
393.9909
369.4041
376.0044
403.1612
442.0342
485.7139
529.131
568.8544
602.8334
630.1192
650.5943
664.7266
673.356
677.5214
678.3263
676.8407
674.0322
670.7182
667.535
664.9165
663.084
662.0458
661.6109
661.4174
660.978
659.7407
657.1617
652.7822
646.303
637.647
627.0016
614.8352
601.8849
589.1152
577.6522
568.6989
563.442
562.9579
568.1291
579.5787
597.629
622.2878
653.2634
690.0044
731.7626
777.6688
826.8169
878.3473
931.5217
985.7856
1040.805
1096.512
1153.003
1210.934
1269.768
1334.717
1388.267
1505.008
3638.202
2937.854
2328.603
1818.214
1406.132
1086.335
849.2233
683.1441
575.631
514.3749
487.9296
486.1736
500.561
524.2017
551.8149
579.5921
605.0028
626.5751
643.6704
656.2708
664.7869
669.89
672.3725
673.0318
672.5816
671.5851
670.4148
669.2347
668.0074
666.5241
664.4525
661.4006
656.9879
650.9166
643.0358
633.3912
622.2536
610.1251
597.7195
585.9209
575.7238
568.1614
564.229
564.8109
570.6169
582.1356
599.6069
623.0171
652.1154
686.4498
725.418
768.3305
814.4707
863.182
913.8324
966.235
1019.183
1076.424
1122.964
1219.57
4076.708
4035.846
3841.605
3533.282
3154.515
2744.232
2333.985
1947.414
1600.637
1303.101
1058.683
866.9042
724.1191
624.6063
561.5054
527.5829
515.8144
519.7952
533.9943
553.8809
575.9469
597.6557
617.3375
634.0539
647.4467
657.5835
664.8105
669.6198
672.5371
674.0333
674.4647
674.0397
672.8143
670.7111
667.558
663.1414
657.2645
649.8058
640.7686
630.3178
618.7981
606.7326
594.8025
583.8091
574.623
568.1254
565.1486
566.4194
572.5125
583.8175
600.5212
622.6086
649.8744
681.9728
718.3804
758.7567
801.751
850.0318
890.3518
974.1125
4031.479
4083.04
4122.27
4114.153
4037.374
3885.148
3662.278
3381.442
3059.747
2715.851
2367.731
2031.139
1718.695
1439.495
1199.115
999.9187
841.5506
721.5279
635.8576
579.6214
547.4912
534.1528
534.6309
544.5131
560.0845
578.382
597.1848
614.9547
630.7422
644.0718
654.8197
663.0938
669.1267
673.1866
675.5126
676.2748
675.559
673.3744
669.6784
664.4132
657.5484
649.1224
639.2768
628.2804
616.5385
604.5872
593.0737
582.7234
574.2987
568.5535
566.1868
567.8018
573.8687
584.7169
600.4653
621.2534
646.3448
677.8617
705.624
769.2973
4011.283
4019.667
4045.926
4085.079
4123.562
4144.264
4130.975
4071.357
3958.503
3791.315
3573.972
3314.826
3025.042
2717.21
2404.071
2097.47
1807.578
1542.407
1307.594
1106.409
939.9434
807.4253
706.6039
634.1621
586.1194
558.1977
546.1305
545.9062
553.9424
567.1922
583.1898
600.0453
616.3993
631.3497
644.3622
655.1768
663.7183
670.0189
674.1581
676.2214
676.2802
674.3881
670.5922
664.954
657.5753
648.6226
638.3481
627.1017
615.3328
603.5826
592.4644
582.6375
574.7723
569.525
567.465
569.191
574.7369
585.8442
596.7086
630.9949
4004.387
4001.885
4002.428
4011.357
4031.869
4063.055
4099.635
4132.845
4151.993
4146.26
4106.33
4025.573
3900.725
3732.089
3523.296
3280.755
3012.894
2729.316
2439.959
2154.354
1881.019
1627.02
1397.713
1196.655
1025.644
884.8908
773.2551
688.5387
627.7911
587.6083
564.404
554.6383
554.9971
562.5184
574.668
589.3683
604.9901
620.3152
634.4794
646.9067
657.2424
665.2909
670.9651
674.2482
675.1704
673.7969
670.2286
664.6083
657.1319
648.059
637.7212
626.5245
614.9449
603.5227
592.8229
583.4977
575.953
571.4218
568.1342
573.8142
3994.599
3993.719
3991.613
3989.382
3989.586
3995.384
4009.375
4032.506
4063.33
4097.832
4129.81
4151.628
4155.169
4132.819
4078.337
3987.522
3858.608
3692.382
3492.042
3262.849
3011.62
2746.152
2474.621
2205.025
1944.699
1699.945
1475.78
1275.802
1102.177
955.7161
836.0251
741.7124
670.6201
620.0631
587.0579
568.5256
561.462
563.0668
570.8342
582.6034
596.5771
611.3128
625.694
638.8902
650.3109
659.5604
666.3974
670.701
672.4469
671.6901
668.5561
663.2362
655.9866
647.128
637.0372
626.1716
614.9611
604.0196
594.1803
582.1072
3983.346
3983.254
3982.744
3981.399
3979.194
3976.822
3975.797
3978.245
3986.372
4001.777
4024.853
4054.387
4087.43
4119.436
4144.648
4156.66
4149.059
4116.076
4053.157
3957.39
3827.772
3665.277
3472.755
3254.684
3016.808
2765.702
2508.324
2251.572
2001.896
1764.981
1545.512
1347.034
1171.907
1021.328
895.4272
793.4136
713.7479
654.3332
612.7037
586.2009
572.1281
567.8759
571.018
579.376
591.0568
604.4657
618.3009
631.5354
643.3896
653.301
660.8939
665.9505
668.3881
668.2355
665.6262
660.7569
653.9849
645.3198
636.9271
620.5856
3971.824
3971.694
3971.538
3971.204
3970.415
3968.895
3966.55
3963.726
3961.349
3960.874
3964.041
3972.521
3987.5
4009.304
4037.101
4068.772
4100.932
4129.135
4148.212
4152.71
4137.373
4097.607
4029.894
3932.093
3803.625
3645.52
3460.339
3251.983
3025.412
2786.315
2540.747
2294.779
2054.171
1824.102
1608.961
1412.204
1236.292
1082.686
951.8998
843.6013
756.743
689.7105
640.4784
606.7603
586.1473
576.2263
574.6769
579.3445
588.2912
599.8256
612.5156
625.1873
636.9142
646.9969
654.9555
660.4451
663.4726
663.4774
662.6177
653.7281
3961.336
3961.14
3961.472
3962.337
3963.559
3964.833
3965.74
3965.846
3964.869
3962.848
3960.249
3957.994
3957.379
3959.899
3966.993
3979.755
3998.647
4023.264
4052.188
4082.958
4112.162
4135.636
4148.768
4146.848
4125.448
4080.781
4010.012
3911.487
3784.869
3631.173
3452.7
3252.887
3036.083
2807.285
2571.842
2335.168
2102.465
1878.49
1667.366
1472.449
1296.25
1140.414
1005.741
892.261
799.3196
725.7014
669.7544
629.5181
602.8463
587.5172
581.3292
582.1785
588.1183
597.4016
608.5125
620.1462
631.3514
641.0482
649.2352
655.5831
3952.032
3942.772
3930.99
3919.277
3909.541
3902.856
3899.554
3899.371
3901.631
3905.447
3909.928
3914.36
3918.358
3921.957
3925.637
3930.263
3936.955
3946.893
3961.086
3980.132
4004.007
4031.909
4062.179
4092.318
4119.09
4138.714
4147.121
4140.245
4114.331
4066.217
3993.582
3895.128
3770.68
3621.221
3448.83
3256.569
3048.294
2828.447
2601.807
2373.25
2147.517
1929.007
1721.607
1528.569
1352.422
1194.94
1057.146
939.3505
841.2216
761.8748
699.976
653.85
621.5875
601.1519
590.4569
587.4916
590.2304
597.3014
605.2825
621.4155
4033.014
4144.308
4204.855
4224.286
4213.859
4183.893
4143.028
4098.033
4053.842
4013.714
3979.478
3951.828
3930.636
3915.26
3904.833
3898.502
3895.619
3895.84
3899.162
3905.875
3916.442
3931.337
3950.859
3974.941
4002.994
4033.795
4065.447
4095.408
4120.593
4137.544
4142.635
4132.322
4103.381
4053.144
3979.692
3881.997
3760.009
3614.673
3447.89
3262.411
3061.699
2849.74
2630.848
2409.455
2189.917
1976.326
1772.364
1581.177
1405.295
1246.585
1106.239
984.7951
882.1846
797.8045
730.5791
679.1325
641.6021
616.6725
600.7854
595.3025
1127.611
1798.539
2385.459
2878.558
3276.512
3583.991
3809.763
3965.064
4062.237
4113.633
4130.812
4123.995
4101.775
4071.01
4036.879
4003.054
3971.947
3944.996
3922.951
3906.142
3894.693
3888.669
3888.154
3893.262
3904.078
3920.567
3942.454
3969.103
3999.424
4031.808
4064.122
4093.749
4117.69
4132.707
4135.504
4122.922
4092.141
4040.864
3967.471
3871.138
3751.896
3610.655
3449.157
3269.904
3076.026
2871.139
2659.17
2444.182
2230.204
2021.068
1820.273
1630.868
1455.371
1295.713
1153.222
1028.603
922.1461
832.5573
764.5643
685.4571
634.2589
556.2389
674.0077
940.8444
1304.298
1717.342
2141.621
2548.117
2916.701
3235.144
3497.82
3704.282
3857.864
3964.399
4031.119
4065.755
4075.86
4068.342
4049.187
4023.343
3994.736
3966.362
3940.441
3918.577
3901.909
3891.235
3887.084
3889.748
3899.273
3915.417
3937.597
3964.828
3995.687
4028.299
4060.358
4089.189
4111.85
4125.265
4126.371
4112.295
4080.509
4028.986
3956.323
3861.831
3745.592
3608.464
3452.051
3278.635
3091.07
2892.656
2686.995
2477.838
2268.937
2063.888
1866.067
1678.249
1503.79
1340.556
1209.632
1018.298
3550.225
2840.862
2228.19
1753.031
1435.345
1276.096
1261.817
1369.579
1571.444
1838.121
2141.77
2457.899
2766.466
3052.332
3305.206
3519.217
3692.261
3825.221
3921.163
3984.585
4020.755
4035.176
4033.196
4019.732
3999.126
3975.076
3950.648
3928.311
3910
3897.168
3890.829
3891.578
3899.595
3914.635
3936.012
3962.588
3992.777
4024.565
4055.567
4083.099
4104.282
4116.17
4115.887
4100.77
4068.506
4017.263
3945.785
3853.474
3740.424
3607.435
3455.978
3288.138
3106.531
2914.166
2714.448
2510.478
2307.465
2101.111
1929.36
1638.94
3964.307
3920.118
3713.728
3386.813
2993.369
2586.388
2211.103
1901.644
1679.898
1555.942
1529.58
1592.531
1730.836
1927.209
2163.122
2420.527
2683.146
2937.313
3172.423
3381.038
3558.718
3703.676
3816.311
3898.705
3954.117
3986.533
4000.282
3999.733
3989.068
3972.137
3952.357
3932.665
3915.495
3902.765
3895.878
3895.722
3902.663
3916.554
3936.732
3962.04
3990.857
4021.144
4050.518
4076.338
4095.816
4106.131
4104.565
4088.624
4056.161
4005.486
3935.447
3845.494
3735.724
3606.836
3460.293
3297.485
3123.072
2929.942
2764.151
2443.558
3904.003
3958.493
3998.736
3986.547
3898.563
3728.97
3487.052
3192.89
2872.653
2554.17
2263.276
2021.219
1843.133
1737.472
1706.211
1745.656
1847.608
2000.726
2191.894
2407.484
2634.413
2860.956
3077.292
3275.801
3451.142
3600.151
3721.617
3815.977
3884.969
3931.287
3958.257
3969.552
3968.949
3960.142
3946.585
3931.388
3917.229
3906.302
3900.271
3900.245
3906.77
3919.822
3938.827
3962.688
3989.83
4018.268
4045.684
4069.528
4087.124
4095.785
4092.939
4076.239
4043.678
3993.649
3925.199
3837.266
3732.225
3601.04
3485.219
3220.613
3870.207
3873.861
3893.209
3924.867
3955.323
3966.354
3940.448
3864.838
3733.856
3549.606
3321.224
3063.191
2793.214
2529.996
2291.224
2091.93
1943.368
1852.418
1821.491
1848.845
1929.221
2054.675
2215.491
2401.093
2600.871
2804.863
3004.285
3191.877
3362.087
3511.11
3636.813
3738.569
3817.038
3873.914
3911.67
3933.307
3942.126
3941.521
3934.807
3925.076
3915.074
3907.113
3903.002
3903.999
3910.784
3923.458
3941.552
3964.069
3989.527
4016.041
4041.401
4063.177
4078.828
4085.786
4081.721
4063.981
4032.479
3978.484
3929.353
3775.347
3936.155
4041.754
4103.586
4136.085
4152.714
4161.43
4163.677
4155.291
4128.561
4074.759
3986.478
3859.383
3693.233
3492.157
3264.263
3020.749
2774.7
2539.757
2328.846
2153.089
2020.999
1937.99
1906.211
1924.68
1989.646
2095.126
2233.538
2396.362
2574.779
2760.232
2944.891
3121.992
3286.067
3433.052
3560.3
3666.508
3751.585
3816.478
3862.972
3893.478
3910.824
3918.059
3918.266
3914.407
3909.182
3904.914
3903.466
3906.177
3913.821
3926.602
3944.159
3965.603
3989.575
4014.295
4037.746
4057.381
4071.78
4074.888
4077.281
4033.771
1199.211
1822.229
2363.28
2816.6
3185.296
3477.924
3705.542
3879.084
4007.409
4096.309
4148.468
4164.091
4141.971
4080.708
3979.851
3840.785
3667.26
3465.514
3244.023
3012.95
2783.388
2566.514
2372.747
2211.021
2088.216
2008.799
1974.68
1985.272
2037.731
2127.326
2247.899
2392.368
2553.223
2722.997
2894.66
3061.944
3219.58
3363.437
3490.589
3599.304
3688.968
3759.97
3813.548
3851.608
3876.545
3891.053
3897.948
3900.003
3899.798
3899.602
3901.269
3906.166
3915.131
3928.437
3945.85
3966.512
3989.407
4012.392
4033.943
4056.709
822.249
851.8252
1018.953
1288.198
1620.569
1981.982
2345.796
2693.052
3011.486
3293.979
3536.896
3738.594
3898.295
4015.405
4089.262
4119.254
4105.17
4047.664
3948.709
3811.922
3642.709
3448.194
3236.941
3018.5
2802.846
2599.758
2418.224
2265.903
2148.722
2070.599
2033.334
2036.642
2078.322
2154.535
2260.152
2389.149
2535.017
2691.144
2851.171
3009.286
3160.454
3300.581
3426.601
3536.505
3629.312
3704.989
3764.332
3808.821
3840.46
3861.604
3874.788
3882.566
3887.366
3891.352
3896.337
3903.693
3914.135
3928.939
3943.346
3977.08
881.5955
828.2591
785.7541
785.5237
846.612
974.9998
1166.451
1410.117
1691.773
1996.31
2309.435
2618.623
2913.465
3185.599
3428.425
3636.749
3806.482
3934.463
4018.428
4057.102
4050.38
3999.524
3907.318
3778.144
3617.929
3433.964
3234.591
3028.801
2825.759
2634.313
2462.524
2317.254
2203.849
2125.921
2085.261
2081.855
2114.015
2178.59
2271.248
2386.793
2519.506
2663.478
2812.92
2962.431
3107.226
3243.295
3367.518
3477.712
3572.628
3651.907
3715.985
3765.977
3803.536
3830.691
3849.705
3862.916
3872.435
3881.055
3887.202
3905.331
915.7627
902.142
872.0989
830.1684
788.5597
762.6079
766.7425
811.8917
904.2486
1045.095
1231.386
1456.744
1712.575
1989.092
2276.167
2563.943
2843.224
3105.685
3343.974
3551.751
3723.727
3855.732
3944.81
3989.344
3989.175
3945.699
3861.901
3742.306
3592.842
3420.609
3233.558
3040.12
2848.788
2667.703
2504.262
2364.781
2254.227
2176.043
2132.066
2122.537
2146.199
2200.464
2281.649
2385.235
2506.162
2639.112
2778.795
2920.187
3058.75
3190.594
3312.595
3422.461
3518.747
3600.834
3668.856
3723.622
3766.376
3799.324
3822.077
3848.385
933.2503
930.5684
924.788
911.1479
886.793
852.5653
813.2085
776.5225
751.97
749.1135
776.2484
839.4395
941.9983
1084.359
1264.273
1477.223
1716.94
1975.947
2246.067
2518.848
2785.917
3039.262
3271.463
3475.887
3646.872
3779.901
3871.76
3920.675
3926.415
3890.337
3815.367
3705.904
3567.64
3407.32
3232.43
3050.848
2870.475
2698.87
2542.911
2408.503
2300.349
2221.793
2174.744
2159.676
2175.704
2220.721
2291.591
2384.371
2494.565
2617.375
2747.955
2881.633
3014.117
3141.659
3261.142
3370.297
3467.168
3552.576
3618.488
3704.283
949.9961
946.4799
943.8493
941.1429
936.0369
925.6708
907.7093
881.2984
847.7038
810.449
774.9775
748.0012
736.6971
747.891
787.3426
859.2096
965.7224
1107.069
1281.456
1485.308
1713.547
1959.928
2217.373
2478.314
2735.001
2979.806
3205.5
3405.507
3574.151
3706.868
3800.39
3852.89
3864.065
3835.165
3768.949
3669.567
3542.379
3393.709
3230.554
3060.261
2890.196
2727.415
2578.362
2448.612
2342.664
2263.796
2213.997
2193.951
2203.101
2239.755
2301.252
2384.154
2484.458
2597.848
2719.823
2846.275
2972.2
3098.152
3202.367
3367.869
967.7443
963.4795
959.5212
956.3179
953.904
951.6265
948.0867
941.3383
929.3664
910.689
884.8862
852.9484
817.3971
782.1689
752.2967
733.4467
731.387
751.4587
798.1097
874.532
982.4216
1121.865
1291.339
1487.808
1706.894
1943.099
2190.062
2440.84
2688.201
2924.914
3144.045
3339.228
3504.934
3636.688
3731.27
3786.843
3803.04
3780.978
3723.2
3633.565
3517.058
3379.568
3227.607
3068.022
2907.686
2753.207
2610.651
2485.31
2381.51
2302.483
2250.29
2225.804
2228.751
2257.825
2310.703
2384.73
2474.931
2583.484
2680.137
2873.258
985.5827
981.1321
976.16
970.8923
965.7219
961.065
957.1659
953.8544
950.4008
945.5603
937.7824
925.5313
907.6533
883.7253
854.3188
821.1385
787.0126
755.7416
731.8285
720.1289
725.4639
752.2385
804.0987
883.6534
992.2759
1129.989
1295.433
1485.912
1697.5
1925.211
2163.208
2405.047
2643.951
2873.089
3085.866
3276.198
3438.775
3569.283
3664.592
3722.886
3743.739
3728.126
3678.365
3598.006
3491.662
3364.788
3223.436
3073.979
2922.84
2776.216
2639.833
2518.732
2417.084
2338.094
2283.812
2255.588
2252.1
2277.724
2308.915
2428.152
1002.512
1005.531
1010.493
1015.371
1018.695
1019.721
1018.356
1014.96
1010.059
1004.081
997.1562
989.017
979.0084
966.2077
949.6293
928.4771
902.4043
871.7334
837.6064
802.0398
767.8787
738.6565
718.3773
711.2459
721.3719
752.4756
807.6165
888.9648
997.6271
1133.534
1295.392
1480.701
1685.834
1906.166
2136.261
2370.089
2601.276
2823.377
3030.145
3215.802
3375.288
3504.474
3600.344
3661.116
3686.31
3676.762
3634.567
3562.975
3466.232
3349.385
3218.046
3078.15
2935.7
2796.522
2666.004
2549.077
2449.285
2371.455
2313.131
2282.027
945.6185
849.3285
794.1686
772.3333
774.7318
793.07
820.4656
851.6064
882.6888
911.2251
935.7716
955.6228
970.5136
980.3659
985.1049
984.5637
978.4775
966.5578
948.6252
924.77
895.5122
861.9303
825.739
789.3016
755.5729
727.978
710.2373
706.1534
719.3774
753.1728
810.1937
892.2914
1000.361
1134.238
1292.646
1473.205
1672.491
1886.153
2109.076
2335.58
2559.656
2775.219
2976.361
3157.607
3314.151
3442.058
3538.428
3601.516
3630.797
3626.971
3591.917
3528.598
3440.915
3333.52
3211.641
3080.682
2946.854
2812.557
2698.671
2530.718
3341.398
2793.744
2316.559
1916.023
1591.844
1339.435
1151.373
1018.609
931.4676
880.4305
856.6952
852.5252
861.4097
878.0745
898.3822
919.1657
938.035
953.1927
963.2858
967.31
964.5702
954.6921
937.67
913.9337
884.4143
850.5897
814.4986
778.7107
746.253
720.4915
704.9762
703.2598