/*--------------------------------*- C++ -*----------------------------------*\
| =========                 |                                                 |
| \\      /  F ield         | OpenFOAM: The Open Source CFD Toolbox           |
|  \\    /   O peration     | Version:  2312                                  |
|   \\  /    A nd           | Website:  www.openfoam.com                      |
|    \\/     M anipulation  |                                                 |
\*---------------------------------------------------------------------------*/
FoamFile
{
    version     2.0;
    format      ascii;
    arch        "LSB;label=32;scalar=64";
    class       volScalarField;
    location    "5100";
    object      omega;
}
// * * * * * * * * * * * * * * * * * * * * * * * * * * * * * * * * * * * * * //

dimensions      [0 0 -1 0 0 0 0];

internalField   nonuniform List<scalar> 
12000
(
52.31222
17.79636
19.29514
20.76359
21.897
22.91254
23.79781
24.58619
25.25078
25.83612
26.38041
26.90176
27.35093
27.72566
28.06263
28.40042
28.71672
28.95654
29.14886
29.34412
29.54612
29.70119
29.79641
29.89168
29.98879
30.06848
30.10072
30.11632
30.12414
30.12478
30.09802
30.06667
30.01105
29.92757
29.75341
29.59852
29.50623
29.41759
29.1639
28.73796
28.30449
28.10966
28.06801
27.6786
26.81845
26.11946
25.93821
25.90426
25.33294
23.93646
23.41736
23.12178
22.48671
21.17065
20.28502
19.33772
18.2078
17.05247
15.94152
37.93284
92.07764
20.63376
19.68063
20.5335
20.67931
20.66665
20.44621
20.19664
19.8111
19.24483
18.68914
18.14884
17.46392
16.86584
16.49105
16.05727
15.36528
14.6157
14.38328
14.23798
13.76677
13.07138
12.83365
12.77617
12.57562
12.11172
11.82797
11.78705
11.70342
11.55604
11.44088
11.33742
11.30222
11.31241
11.39737
11.44994
11.45884
11.45241
11.60368
11.94039
12.27414
12.38983
12.378
12.67493
13.44689
14.12645
14.30483
14.35079
15.16625
16.62954
17.61907
18.01642
19.24858
21.38293
23.38786
25.44243
29.41653
36.40364
49.26487
71.13461
94.82474
21.07984
18.78681
18.51819
17.8753
17.10678
16.28616
15.50717
14.69581
13.89223
13.0721
12.34351
11.74854
11.24421
10.79063
10.35208
9.966136
9.664006
9.427128
9.190116
8.960211
8.782943
8.666044
8.55868
8.449447
8.361437
8.313651
8.287703
8.266735
8.261129
8.266075
8.283785
8.320703
8.379475
8.444676
8.515062
8.59255
8.687567
8.807385
8.943097
9.080222
9.217077
9.375454
9.566846
9.784892
10.01577
10.26051
10.54919
10.86925
11.24929
11.71824
12.33304
13.01583
13.93578
15.19858
17.17576
20.65483
27.1151
43.30746
78.06908
96.81155
20.28295
16.9755
16.43382
15.53404
14.56396
13.62524
12.71251
11.88563
11.10755
10.43289
9.851675
9.336348
8.896729
8.520739
8.195965
7.920644
7.693647
7.498486
7.330008
7.189751
7.078752
6.990753
6.918773
6.862558
6.823793
6.801468
6.795208
6.79514
6.809305
6.829972
6.863125
6.912123
6.971137
7.03984
7.118607
7.208479
7.310898
7.426962
7.55736
7.702233
7.862064
8.039053
8.237134
8.461109
8.718358
9.007609
9.338119
9.72406
10.17804
10.73334
11.35528
12.03778
12.9374
14.12954
15.95981
18.9214
24.62407
39.32077
83.66462
98.66825
19.48425
15.621
14.84922
13.84384
12.81696
11.84672
10.94925
10.15939
9.472343
8.886414
8.39812
7.983987
7.615073
7.284192
7.011006
6.777721
6.582118
6.418632
6.280986
6.167565
6.075796
6.002796
5.946151
5.904593
5.87726
5.863134
5.861617
5.870238
5.887289
5.914182
5.954115
6.004231
6.064357
6.134074
6.21337
6.303361
6.404166
6.515875
6.638935
6.773866
6.921362
7.08296
7.258731
7.451218
7.662217
7.894472
8.157974
8.462462
8.817593
9.216747
9.667656
10.26566
11.08299
12.22899
13.90575
16.66402
22.09387
36.74447
87.50329
100.3856
19.50997
14.53154
13.5552
12.53658
11.53449
10.61112
9.785728
9.069036
8.453258
7.92503
7.474676
7.088505
6.766187
6.485997
6.237005
6.028152
5.852186
5.705011
5.581532
5.47946
5.396787
5.331617
5.282343
5.247703
5.226657
5.220338
5.222637
5.237018
5.262383
5.298309
5.34475
5.401657
5.469255
5.547404
5.634656
5.731903
5.841091
5.961766
6.094204
6.239144
6.397509
6.570544
6.760102
6.968188
7.193455
7.446229
7.733714
8.047253
8.386407
8.779291
9.263091
9.870272
10.64903
11.6998
13.2384
15.75983
20.71691
34.39838
90.56092
102.1045
19.49126
13.70487
12.52922
11.52617
10.57726
9.718156
8.960626
8.304349
7.740004
7.255746
6.840892
6.485307
6.179018
5.921789
5.700558
5.505998
5.340829
5.201672
5.085713
4.990616
4.914477
4.855657
4.812772
4.784659
4.770723
4.769474
4.779911
4.802255
4.835972
4.880739
4.935676
5.000711
5.076625
5.163103
5.260076
5.366935
5.484488
5.613206
5.753342
5.905251
6.069388
6.246381
6.43729
6.64276
6.867618
7.113346
7.373461
7.654137
7.972708
8.345029
8.790928
9.343625
10.06123
11.04907
12.51587
14.94619
19.75958
33.10475
92.7155
103.7895
19.66225
13.09429
11.71265
10.73204
9.845527
9.051052
8.352993
7.747607
7.225355
6.775366
6.387808
6.053815
5.765809
5.517374
5.30804
5.129508
4.974252
4.842962
4.733803
4.645065
4.575076
4.522355
4.485617
4.463752
4.457199
4.461937
4.479403
4.508917
4.549968
4.602178
4.665461
4.739244
4.823332
4.917896
5.023037
5.138816
5.265401
5.403028
5.551936
5.712395
5.884734
6.069593
6.267302
6.480897
6.709558
6.950609
7.209928
7.495393
7.816523
8.185911
8.623549
9.161988
9.855135
10.80004
12.19105
14.48076
19.0068
31.69592
94.37359
105.4964
19.73379
12.67978
11.08802
10.11091
9.276654
8.539739
7.89394
7.332248
6.845408
6.423955
6.059153
5.743349
5.470091
5.234069
5.031076
4.860254
4.716217
4.5934
4.491459
4.409173
4.345239
4.29839
4.267473
4.251465
4.249693
4.260597
4.28404
4.319484
4.366485
4.4247
4.494608
4.575586
4.666727
4.768326
4.880581
5.003639
5.137666
5.282869
5.439431
5.607437
5.786946
5.9777
6.180899
6.39685
6.624306
6.865486
7.123583
7.403413
7.713414
8.066869
8.48158
8.99106
9.649001
10.55281
11.89621
14.12654
18.55293
30.93388
95.52191
80.49819
19.27133
12.34242
10.58831
9.608732
8.821541
8.13709
7.537588
7.014049
6.558083
6.161629
5.81727
5.518429
5.259476
5.035728
4.843216
4.678947
4.54174
4.428016
4.333756
4.25807
4.199973
4.158406
4.132348
4.122093
4.12423
4.13951
4.167277
4.207001
4.258273
4.32079
4.395266
4.481226
4.577549
4.684493
4.80226
4.930999
5.070793
5.222113
5.385555
5.561
5.748471
5.94788
6.158784
6.379701
6.611198
6.855021
7.113493
7.390725
7.693193
8.032069
8.430855
8.924348
9.560662
10.4345
11.73167
13.88037
18.13868
30.09062
96.43259
82.11885
19.67323
12.22449
10.25561
9.235555
8.471848
7.826251
7.26534
6.775917
6.348867
5.976303
5.651382
5.368316
5.122329
4.909416
4.726183
4.569631
4.43763
4.328984
4.241379
4.171834
4.119204
4.082444
4.060658
4.053617
4.059236
4.077627
4.108261
4.150709
4.204639
4.269813
4.346958
4.435819
4.535461
4.646134
4.768093
4.901601
5.046926
5.203854
5.371947
5.55149
5.74257
5.945516
6.159857
6.384968
6.62012
6.865688
7.123184
7.396314
7.692537
8.024681
8.411166
8.879378
9.491625
10.3389
11.60552
13.71508
17.90378
29.62103
96.98955
109.9121
21.13759
12.28813
10.00856
8.929075
8.181119
7.570534
7.045224
6.586559
6.184533
5.832686
5.525507
5.258161
5.02606
4.82537
4.652873
4.505885
4.38196
4.279447
4.196754
4.132479
4.084602
4.051924
4.033528
4.028914
4.036925
4.057311
4.089653
4.133618
4.18897
4.25558
4.334088
4.424412
4.525791
4.638366
4.762339
4.89795
5.045453
5.205094
5.377072
5.561437
5.758102
5.966819
6.186818
6.417204
6.657477
6.906574
7.164275
7.433323
7.720712
8.039533
8.411321
8.869595
9.463061
10.29023
11.52848
13.59139
17.68486
29.13379
97.44258
85.1234
21.33297
12.36038
9.870858
8.718216
7.964262
7.372395
6.87243
6.439288
6.06117
5.730215
5.440646
5.18806
4.968847
4.779996
4.619098
4.482827
4.367547
4.271034
4.192819
4.131722
4.086051
4.055299
4.038847
4.035761
4.045132
4.06658
4.099737
4.144349
4.200252
4.267369
4.346101
4.436483
4.538206
4.651444
4.776438
4.91347
5.062843
5.224854
5.399751
5.587665
5.788534
6.00186
6.227232
6.463678
6.709443
6.962413
7.22155
7.487852
7.767234
8.073934
8.430964
8.872503
9.45281
10.26087
11.47929
13.51806
17.56887
28.86749
97.71259
85.79048
21.89784
12.49983
9.786371
8.561135
7.796816
7.220645
6.74451
6.335426
5.978802
5.666337
5.393238
5.155789
4.952086
4.777209
4.623651
4.491194
4.378242
4.283888
4.207886
4.149756
4.108671
4.082258
4.068965
4.06805
4.078852
4.100945
4.134177
4.17855
4.233929
4.300329
4.378077
4.467471
4.568587
4.681586
4.806686
4.944165
5.094334
5.257517
5.434016
5.624065
5.827675
6.044427
6.273941
6.516019
6.768837
7.028766
7.291674
7.555148
7.824723
8.11789
8.460681
8.887783
9.452584
10.24755
11.44942
13.46304
17.46492
28.61999
97.98763
86.70348
22.57981
12.7147
9.786488
8.469434
7.680307
7.108342
6.647619
6.25722
5.919427
5.625129
5.368788
5.147634
4.956057
4.789265
4.645491
4.521053
4.415151
4.326953
4.255305
4.199344
4.158201
4.131107
4.117295
4.116033
4.126592
4.148681
4.181788
4.225612
4.279955
4.344892
4.421041
4.509139
4.609405
4.721946
4.846948
4.984626
5.13523
5.298998
5.47619
5.667634
5.874102
6.095422
6.330955
6.579441
6.837744
7.100473
7.362637
7.623005
7.886376
8.167255
8.49478
8.908724
9.461863
10.24488
11.43443
13.43402
17.41387
28.49529
98.11275
87.43627
23.21672
12.94207
9.812373
8.411208
7.594002
7.021231
6.572028
6.197972
5.877302
5.599233
5.357958
5.149933
4.970221
4.813767
4.678431
4.561931
4.462753
4.379572
4.311369
4.257606
4.217775
4.191192
4.17717
4.175139
4.184357
4.205003
4.23657
4.278861
4.331749
4.395223
4.469395
4.55532
4.65434
4.766558
4.891704
5.029918
5.181546
5.34702
5.526811
5.721371
5.930941
6.155341
6.393726
6.64421
6.903474
7.166849
7.428689
7.685258
7.940677
8.211056
8.526872
8.929144
9.471699
10.2444
11.42304
13.40958
17.36785
28.40051
98.21643
87.99094
23.8013
13.1928
9.882544
8.398902
7.544889
6.962797
6.518237
6.154964
5.847169
5.582128
5.353336
5.15729
4.989264
4.843692
4.717426
4.60831
4.51485
4.436085
4.371495
4.320329
4.281944
4.255788
4.241415
4.238494
4.246407
4.265541
4.295407
4.335865
4.386834
4.448308
4.520331
4.604244
4.701868
4.813469
4.938673
5.077438
5.229976
5.396678
5.578016
5.774423
5.986091
6.212723
6.453254
6.705453
6.965449
7.227772
7.48668
7.739288
7.989612
8.252888
8.558362
8.948962
9.482003
10.24686
11.41795
13.39209
17.33245
28.32462
98.24899
88.3987
24.32592
13.45116
9.97623
8.405441
7.516055
6.923318
6.480365
6.124713
5.827087
5.572964
5.355015
5.169666
5.011262
4.874499
4.756171
4.654081
4.566657
4.492724
4.431413
4.38227
4.344946
4.319161
4.304522
4.300772
4.307402
4.324926
4.352961
4.391448
4.440351
4.499657
4.569355
4.650966
4.746754
4.857299
4.982202
5.121234
5.27449
5.442305
5.625105
5.823248
6.03683
6.265433
6.507812
6.761495
7.02239
7.28478
7.542373
7.791397
8.03569
8.291181
8.587783
8.969839
9.495952
10.25434
11.41794
13.38571
17.30952
28.26402
98.20774
88.68509
24.82639
13.71638
10.09222
8.443366
7.516262
6.904186
6.456667
6.104198
5.813574
5.568156
5.359422
5.182938
5.033087
4.904286
4.793119
4.697188
4.61478
4.544733
4.48632
4.439122
4.402771
4.377019
4.361762
4.356929
4.362179
4.37804
4.404244
4.440797
4.487736
4.545174
4.613393
4.693057
4.786447
4.895713
5.020557
5.160138
5.314371
5.483539
5.668031
5.868128
6.083798
6.314432
6.55852
6.813261
7.074218
7.335424
7.590573
7.836049
8.075758
8.325548
8.614915
8.989233
9.509203
10.26277
11.42275
13.38511
17.30448
28.24542
98.11885
88.87919
25.29158
13.98152
10.22095
8.495338
7.524183
6.896071
6.442372
6.090383
5.804224
5.56534
5.363857
5.194313
5.051184
4.928874
4.823617
4.732877
4.654854
4.588322
4.532489
4.486857
4.451222
4.425508
4.409773
4.404062
4.408194
4.422701
4.447447
4.482517
4.528013
4.584101
4.651092
4.729546
4.821778
4.930322
5.055206
5.195609
5.351282
5.522331
5.708989
5.91139
6.129331
6.361988
6.607586
6.863039
7.123633
7.38319
7.635263
7.876237
8.110267
8.353729
8.636602
9.005005
9.520363
10.27024
11.4267
13.38444
17.29444
28.20419
98.00525
89.02821
25.71737
14.24561
10.35953
8.560549
7.548838
6.897789
6.4349
6.080816
5.796745
5.562202
5.365858
5.201624
5.063672
4.946611
4.846098
4.759501
4.684962
4.621216
4.56747
4.523281
4.488476
4.463067
4.447181
4.440985
4.444446
4.458122
4.482005
4.516259
4.561056
4.616598
4.683179
4.761248
4.85313
4.961642
5.087131
5.228845
5.386399
5.559711
5.748837
5.953733
6.173998
6.408577
6.65543
6.911191
7.170908
7.428275
7.676902
7.913416
8.142352
8.380495
8.658038
9.021465
9.53289
10.27999
11.43451
13.39046
17.29418
28.18718
97.85028
89.21021
26.11793
14.50383
10.50214
8.633518
7.581136
6.906885
6.431905
6.073513
5.789456
5.557416
5.364697
5.2031
5.068503
4.955381
4.858841
4.775609
4.703885
4.642437
4.590491
4.547648
4.513783
4.488961
4.473365
4.467231
4.470616
4.484143
4.507891
4.542103
4.587014
4.642862
4.709921
4.788561
4.881
4.99018
5.116794
5.260235
5.420009
5.595847
5.787603
5.995031
6.217513
6.453755
6.70146
6.957008
7.215248
7.469785
7.714311
7.945758
8.169188
8.402046
8.675064
9.034726
9.543209
10.28856
11.4421
13.39717
17.29893
28.1737
97.71143
89.43449
26.49851
14.75968
10.64923
8.7125
7.619052
6.920551
6.432197
6.06724
5.781226
5.549894
5.359197
5.200449
5.067079
4.954803
4.859727
4.778907
4.709654
4.650487
4.600539
4.55936
4.526812
4.503034
4.488283
4.482852
4.486832
4.500951
4.525337
4.560305
4.606162
4.663205
4.731712
4.8119
4.905551
5.015819
5.144133
5.289864
5.452209
5.630756
5.825211
6.035141
6.259709
6.497377
6.7456
7.000534
7.256872
7.508196
7.748374
7.974735
8.192918
8.420977
8.690083
9.046723
9.553112
10.29749
11.45072
13.40533
17.30419
28.16727
97.5568
89.69365
26.8956
15.01732
10.79711
8.793902
7.659792
6.936426
6.433389
6.06044
5.770809
5.538514
5.348244
5.190367
5.058346
4.947563
4.854217
4.774793
4.706909
4.648798
4.599635
4.559184
4.527796
4.505459
4.492213
4.488263
4.493622
4.509132
4.534932
4.57141
4.618925
4.677827
4.748492
4.83142
4.927507
5.039349
5.169466
5.317678
5.482846
5.6643
5.861539
6.073927
6.30041
6.53922
6.787582
7.041458
7.295428
7.543101
7.778577
7.999652
8.212621
8.436186
8.70191
9.056269
9.561463
10.30579
11.45989
13.4159
17.31531
28.16884
97.44436
90.06839
27.28046
15.26227
10.94443
8.877095
7.702363
6.953397
6.434438
6.052305
5.757617
5.522924
5.331787
5.173794
5.04194
4.931229
4.837853
4.758828
4.692006
4.635829
4.589151
4.551289
4.521784
4.500884
4.488945
4.486312
4.493008
4.510091
4.537824
4.576464
4.626318
4.687772
4.761216
4.847137
4.946225
5.060793
5.193449
5.344307
5.512317
5.696674
5.89665
6.111372
6.339549
6.579187
6.827308
7.079714
7.330921
7.574622
7.805206
8.020993
8.228953
8.448413
8.711269
9.063969
9.568624
10.31342
11.46872
13.42616
17.32576
28.17075
97.32949
89.95878
27.5451
15.52343
11.09865
8.963275
7.746206
6.970414
6.43453
6.041921
5.741023
5.502781
5.309719
5.150724
5.018346
4.907342
4.813868
4.735049
4.668739
4.613367
4.567882
4.531696
4.504412
4.485917
4.476409
4.476237
4.485473
4.505221
4.535404
4.576551
4.629273
4.69384
4.770637
4.860065
4.962616
5.080402
5.216035
5.369817
5.540782
5.728018
5.930603
6.147434
6.376993
6.617077
6.864527
7.11503
7.363082
7.602512
7.828045
8.038561
8.241725
8.457466
8.717965
9.069608
9.574426
10.32045
11.47794
13.43846
17.34145
28.18465
97.2394
114.3401
28.56617
15.82378
11.25557
9.048779
7.789147
6.986408
6.433189
6.029109
5.720924
5.478149
5.282319
5.121659
4.988302
4.876773
4.783133
4.704495
4.63874
4.584336
4.540221
4.505706
4.480424
4.46429
4.457407
4.459904
4.472297
4.494962
4.528333
4.572879
4.628924
4.696996
4.777493
4.870786
4.977251
5.098709
5.237616
5.394448
5.568361
5.758357
5.963327
6.181957
6.412519
6.652621
6.898963
7.147154
7.391721
7.626669
7.8471
8.052475
8.251139
8.46357
8.722267
9.073291
9.57875
10.32636
11.4862
13.44966
17.35542
28.19564
97.14566
115.2692
29.10364
16.09212
11.40864
9.135118
7.832526
7.001763
6.430005
6.013666
5.697383
5.449324
5.250102
5.087321
4.952715
4.840565
4.746805
4.668489
4.603472
4.550215
4.507645
4.475057
4.452037
4.438453
4.434342
4.439741
4.455302
4.48128
4.518085
4.566157
4.625939
4.697873
4.782394
4.879845
4.990502
5.115793
5.258038
5.418003
5.59487
5.787464
5.994527
6.214578
6.445717
6.685397
6.930208
7.175727
7.416551
7.646898
7.862272
8.062723
8.257267
8.466607
8.723414
9.074762
9.581682
10.3315
11.49446
13.46219
17.37382
28.21941
97.09408
115.4075
29.43029
16.32865
11.55018
9.217173
7.873415
7.014839
6.424241
5.99514
5.670226
5.416381
5.213353
5.048161
4.91215
4.799358
4.705568
4.627748
4.563708
4.51188
4.471166
4.44083
4.42043
4.409746
4.408733
4.417253
4.436045
4.465334
4.505652
4.557424
4.621056
4.69696
4.78552
4.887161
5.002358
5.131828
5.277282
5.440169
5.619857
5.81485
6.023707
6.244808
6.476115
6.714962
6.957869
7.200419
7.437324
7.663044
7.873496
8.06933
8.259707
8.466929
8.723277
9.0748
9.583273
10.33539
11.50137
13.47308
17.38992
28.24053
97.05427
115.3807
29.83621
16.57784
11.69568
9.301508
7.914604
7.026831
6.416472
5.973934
5.63988
5.379874
5.172786
5.00505
4.867622
4.75428
4.660641
4.583565
4.520792
4.470699
4.432144
4.404339
4.386805
4.379231
4.381479
4.393691
4.416047
4.448835
4.492565
4.547867
4.61521
4.694975
4.787534
4.893274
5.012639
5.146165
5.295206
5.461059
5.643209
5.840191
6.050447
6.272199
6.503273
6.740916
6.981623
7.221023
7.453955
7.675123
7.880843
8.072106
8.259839
8.465381
8.721215
9.073512
9.583434
10.33825
11.5078
13.48445
17.40876
28.27058
97.0307
115.5783
30.25237
16.8344
11.8337
9.377607
7.951565
7.035836
6.405959
5.949894
5.606538
5.340233
5.129016
4.958751
4.820004
4.706288
4.613039
4.536994
4.4758
4.427767
4.391689
4.366727
4.352308
4.34811
4.353856
4.369789
4.395918
4.432476
4.479791
4.538447
4.609174
4.692483
4.78875
4.898337
5.021611
5.158952
5.311431
5.480114
5.664499
5.863146
6.07442
6.296432
6.52691
6.763024
7.001261
7.237327
7.46625
7.683024
7.884374
8.072185
8.257132
8.46119
8.716945
9.070445
9.582711
10.33991
11.51268
13.49379
17.42474
28.29706
97.00908
115.8832
30.7027
17.1091
11.9735
9.450503
7.985851
7.042545
6.393182
5.923515
5.570796
5.298177
5.082876
4.910191
4.770296
4.65643
4.563831
4.489094
4.429766
4.384072
4.350732
4.328854
4.317784
4.317143
4.326575
4.346315
4.376292
4.416684
4.467755
4.529864
4.603698
4.690102
4.789602
4.902566
5.029328
5.17019
5.325917
5.497222
5.683554
5.883517
6.095428
6.317292
6.546753
6.780996
7.016613
7.249437
7.474582
7.687307
7.884644
8.069093
8.25175
8.454901
8.711036
9.065988
9.580445
10.3403
11.51681
13.50298
17.442
28.32985
97.03092
116.0962
31.11213
17.37531
12.1055
9.514817
8.01354
7.044608
6.377088
5.894569
5.532896
5.254248
5.035118
4.860271
4.719498
4.605762
4.514104
4.440972
4.383794
4.340699
4.310327
4.291677
4.284073
4.287022
4.300344
4.323908
4.357724
4.401913
4.456691
4.522361
4.599314
4.688401
4.790606
4.906422
5.036184
5.180148
5.338802
5.512483
5.700532
5.901552
6.113813
6.335318
6.563726
6.796191
7.02914
7.25843
7.479609
7.688122
7.881995
8.063676
8.244732
8.447556
8.704489
9.061056
9.577628
10.34002
11.51977
13.51037
17.45647
28.35914
97.0904
116.543
31.56294
17.65895
12.24276
9.579827
8.039984
7.043951
6.358778
5.863794
5.493585
5.209308
4.98672
4.810066
4.668755
4.555462
4.465016
4.393729
4.338923
4.298638
4.271413
4.256143
4.252082
4.258684
4.275748
4.303074
4.34063
4.388491
4.446823
4.515887
4.596028
4.687791
4.792196
4.910258
5.042451
5.189026
5.35021
5.525949
5.715443
5.917302
6.129766
6.350732
6.577721
6.807877
7.037913
7.263951
7.481424
7.686655
7.877251
8.056368
8.235954
8.43855
8.696423
9.054784
9.573584
10.33872
11.52146
13.51713
17.47135
28.39083
97.1604
116.6359
31.93469
17.92459
12.37269
9.637888
8.060651
7.041099
6.338177
5.831304
5.453103
5.163652
4.937999
4.759884
4.61835
4.50581
4.416895
4.347749
4.295549
4.258192
4.234117
4.222206
4.221671
4.231952
4.252726
4.28376
4.32497
4.376383
4.438125
4.510409
4.593544
4.68793
4.794394
4.914174
5.048164
5.196727
5.359916
5.537324
5.727949
5.930264
6.142391
6.362205
6.587369
6.815207
7.04247
7.265383
7.479936
7.681969
7.869638
8.046425
8.224769
8.427489
8.68669
9.047073
9.568168
10.33596
11.5218
13.52177
17.48249
28.41507
97.1967
117.3084
32.35735
18.20863
12.50751
9.698477
8.083447
7.038103
6.318091
5.799641
5.413757
5.119432
4.890983
4.711649
4.570115
4.45853
4.371321
4.304407
4.2548
4.220292
4.199292
4.190663
4.193559
4.207386
4.231722
4.266299
4.310984
4.365754
4.430688
4.505956
4.591826
4.688657
4.797005
4.91814
5.053392
5.203309
5.367937
5.546554
5.737838
5.940126
6.151539
6.370042
6.593381
6.818759
7.043315
7.263395
7.474884
7.67406
7.859393
8.034708
8.212629
8.415888
8.676473
9.038815
9.562107
10.33254
11.52195
13.52635
17.49429
28.44042
97.20251
118.1267
32.83571
18.47446
12.63449
9.751087
8.098405
7.029446
6.293847
5.765078
5.3726
5.074362
4.843959
4.664112
4.523134
4.412891
4.327592
4.263033
4.216118
4.184591
4.16681
4.161584
4.167948
4.185249
4.213021
4.250956
4.298881
4.356734
4.424562
4.502501
4.590784
4.689738
4.799791
4.92209
5.058124
5.208801
5.374278
5.553602
5.745154
5.947133
6.157629
6.374626
6.595824
6.819004
7.041053
7.258474
7.467343
7.664085
7.847387
8.021372
8.198949
8.402941
8.665186
9.029735
9.555326
10.32822
11.52036
13.52813
17.50222
28.46091
97.20674
96.77698
32.61414
18.68355
12.75716
9.802813
8.112935
7.021822
6.271208
5.732516
5.333765
5.031867
4.799696
4.619467
4.47912
4.370253
4.286876
4.224675
4.180482
4.151966
4.137372
4.135399
4.145042
4.1656
4.196562
4.237587
4.288471
4.349123
4.419544
4.499834
4.59019
4.690918
4.802437
4.925656
5.06208
5.213085
5.378985
5.558637
5.750148
5.951556
6.160929
6.376265
6.595627
6.816557
7.036222
7.251233
7.45779
7.652478
7.834186
8.007266
8.18478
8.389514
8.65321
9.019661
9.547291
10.32258
11.51782
13.52953
17.51356
28.49239
97.22945
96.70731
32.82551
18.95003
12.89571
9.857237
8.126959
7.014818
6.250386
5.702728
5.298374
4.993264
4.759606
4.579146
4.439495
4.332018
4.250564
4.190685
4.149111
4.1234
4.111827
4.112803
4.125419
4.148918
4.182756
4.226547
4.280043
4.343113
4.415741
4.498013
4.590107
4.692288
4.804961
4.928859
5.065502
5.216605
5.382611
5.562238
5.753379
5.953942
6.161982
6.375682
6.593028
6.811771
7.029199
7.242029
7.446566
7.63952
7.819954
7.992429
8.17015
8.37587
8.641177
9.009577
9.539154
10.31645
11.51397
13.52903
17.51642
28.51051
97.27515
118.4117
33.75515
19.25459
13.03908
9.911917
8.140665
7.008281
6.231005
5.675182
5.265832
4.957948
4.723104
4.542612
4.403779
4.297747
4.218206
4.160576
4.121485
4.098414
4.089573
4.093319
4.10869
4.134893
4.171333
4.217591
4.273386
4.338566
4.413092
4.497023
4.590522
4.69386
4.807395
4.931793
5.068552
5.219551
5.385358
5.564607
5.755013
5.95446
6.161018
6.372875
6.588179
6.804801
7.020133
7.230985
7.43375
7.625245
7.804676
7.976766
8.154825
8.361556
8.628442
8.99877
9.530372
10.30998
11.5104
13.52931
17.52369
28.52768
97.32043
119.7665
34.21197
19.51388
13.17519
9.964996
8.154442
7.00302
6.213752
5.650431
5.236588
4.926292
4.69051
4.510143
4.372206
4.267637
4.189969
4.1345
4.097764
4.077166
4.070838
4.077119
4.094987
4.123596
4.162323
4.210719
4.268488
4.335464
4.411582
4.49688
4.591482
4.695647
4.809735
4.934401
5.071122
5.221827
5.387161
5.565697
5.755093
5.953159
6.15801
6.367945
6.581224
6.795827
7.009241
7.218351
7.419621
7.609953
7.788665
7.960611
8.139169
8.346973
8.615395
8.987503
9.520845
10.30228
11.50493
13.52747
17.52739
28.55341
97.41446
120.0014
34.45698
19.73643
13.30646
10.01853
8.169763
7.000014
6.199549
5.629308
5.211401
4.898981
4.66243
4.482256
4.345205
4.242017
4.166082
4.112589
4.077984
4.059606
4.055504
4.064025
4.084072
4.114768
4.15546
4.20568
4.265111
4.333555
4.410927
4.497244
4.59265
4.697372
4.81177
4.936507
5.073041
5.223289
5.387929
5.565506
5.753607
5.950071
6.153089
6.361066
6.572371
6.785084
6.996766
7.20436
7.404386
7.593807
7.772034
7.944024
8.123204
8.332139
8.602115
8.976021
9.511169
10.29455
11.49948
13.52499
17.52984
28.56454
97.49126
120.28
34.70427
19.95982
13.43855
10.07296
8.187235
7.000434
6.189335
5.612588
5.190871
4.876466
4.639192
4.459181
4.32292
4.220966
4.146575
4.094834
4.06211
4.045679
4.043512
4.05396
4.075865
4.108325
4.150661
4.202387
4.263153
4.332747
4.411059
4.498116
4.594034
4.699046
4.813509
4.93814
5.074372
5.224031
5.387786
5.564158
5.750738
5.94543
6.146524
6.352535
6.561935
6.772888
6.983015
7.189302
7.388304
7.577035
7.754972
7.927151
8.107026
8.317084
8.588535
8.964099
9.500858
10.28594
11.49293
13.52143
17.53134
28.58608
97.55488
121.1188
35.05573
20.17641
13.57089
10.13037
8.208009
7.004445
6.183124
5.600455
5.175249
4.859005
4.621023
4.441097
4.305479
4.204561
4.131473
4.081208
4.050059
4.035395
4.034823
4.046867
4.07031
4.104213
4.14788
4.200787
4.262575
4.332982
4.411939
4.499442
4.595605
4.700659
4.814963
4.939321
5.075139
5.224085
5.386786
5.561755
5.74663
5.939416
6.138525
6.342586
6.550163
6.759487
6.968225
7.173391
7.371566
7.559797
7.737615
7.910111
8.090755
8.301957
8.574862
8.95205
9.490395
10.27715
11.4861
13.51722
17.53151
28.5921
97.57878
101.9567
34.72372
20.33949
13.69767
10.1877
8.232604
7.014243
6.183298
5.594128
5.165206
4.846979
4.608138
4.42811
4.292913
4.19278
4.120724
4.071653
4.041791
4.028548
4.029287
4.042622
4.067294
4.10234
4.147027
4.200787
4.263218
4.33417
4.413492
4.50118
4.597345
4.702219
4.816163
4.940096
5.075395
5.223521
5.385028
5.558426
5.74144
5.932216
6.129305
6.331448
6.53729
6.745112
6.952611
7.156821
7.354337
7.542226
7.720055
7.892959
8.074403
8.286723
8.561006
8.939708
9.479503
10.26779
11.47858
13.51242
17.53184
28.60756
97.61779
102.2321
34.93253
20.542
13.83288
10.25449
8.260538
7.025812
6.187108
5.5935
5.160972
4.840491
4.600516
4.420134
4.28511
4.185503
4.114213
4.066065
4.03722
4.025029
4.026825
4.041156
4.066709
4.102472
4.147743
4.202026
4.264946
4.336189
4.415635
4.503279
4.599234
4.703736
4.81715
4.940513
5.075194
5.222415
5.382603
5.554268
5.735282
5.923971
6.119033
6.319312
6.523514
6.729958
6.936358
7.139759
7.336761
7.524444
7.702398
7.875786
8.058063
8.271488
8.547104
8.927255
9.468434
10.25815
11.47062
13.50681
17.53066
28.61228
97.65948
103.1049
35.28616
20.76675
13.97632
10.32947
8.293348
7.041271
6.195623
5.596708
5.161875
4.840197
4.599162
4.418136
4.282895
4.183418
4.112502
4.064873
4.036608
4.024963
4.027187
4.04199
4.068047
4.104363
4.150125
4.204738
4.267805
4.339066
4.418388
4.505764
4.601307
4.705255
4.818024
4.940698
5.074598
5.220822
5.379597
5.549397
5.728297
5.914847
6.107899
6.306379
6.509039
6.714219
6.919643
7.122359
7.318966
7.506549
7.684713
7.858633
8.041749
8.256243
8.533122
8.914634
9.457104
10.24816
11.46222
13.50069
17.52886
28.62379
97.72583
103.9849
35.59321
20.98424
14.12202
10.41036
8.331153
7.061478
6.209294
5.60602
5.167639
4.843212
4.600983
4.419396
4.283917
4.184404
4.113598
4.066196
4.038263
4.027068
4.029946
4.045251
4.071682
4.108226
4.154105
4.208735
4.271703
4.342742
4.421717
4.508621
4.603566
4.706795
4.818851
4.940678
5.073678
5.218972
5.376168
5.543846
5.72053
5.904954
6.09606
6.292828
6.494044
6.698063
6.902617
7.104751
7.301062
7.488631
7.667069
7.841557
8.025511
8.241039
8.519121
8.901919
9.445599
10.23789
11.45337
13.49375
17.52504
28.62745
97.79547
104.7466
35.78063
21.17511
14.2673
10.49765
8.37518
7.087315
6.228387
5.620602
5.179081
4.852612
4.608775
4.426096
4.289934
4.190038
4.119062
4.071634
4.043759
4.032638
4.035527
4.050873
4.077314
4.113802
4.159541
4.213939
4.276575
4.347175
4.425605
4.511856
4.606047
4.708423
4.819678
4.940717
5.072703
5.216649
5.372088
5.537692
5.712194
5.894513
6.083711
6.278831
6.478683
6.68163
6.885403
7.08704
7.283131
7.470751
7.649508
7.824581
8.009357
8.225876
8.505095
8.889106
9.433933
10.22742
11.44434
13.4868
17.52201
28.6346
97.86814
105.6033
35.97842
21.36013
14.41473
10.59026
8.424287
7.118985
6.253569
5.641001
5.196033
4.867078
4.621402
4.437377
4.300244
4.199657
4.128191
4.08041
4.052265
4.04092
4.043586
4.058696
4.084868
4.121035
4.166385
4.220316
4.282398
4.352356
4.430054
4.515486
4.608776
4.710255
4.820679
4.940789
5.071575
5.213989
5.367548
5.531032
5.703364
5.883626
6.070981
6.264526
6.463092
6.665043
6.868107
7.069317
7.265248
7.452966
7.63207
7.807732
7.993308
8.210768
8.491059
8.876204
9.422089
10.21665
11.43479
13.47889
17.51677
28.63591
97.91703
106.3057
36.14867
21.53826
14.56659
10.69135
8.483482
7.156043
6.282297
5.665921
5.217787
4.886291
4.638602
4.452994
4.314619
4.213051
4.140797
4.092365
4.063657
4.051805
4.053977
4.068591
4.09424
4.129842
4.174573
4.227819
4.289146
4.358278
4.435077
4.519545
4.611808
4.712355
4.821904
4.940922
5.070313
5.211012
5.362589
5.523947
5.694155
5.872423
6.058006
6.250047
6.447394
6.648414
6.850829
7.051661
7.247476
7.435321
7.614786
7.791029
7.977372
8.195725
8.477025
8.863246
9.410147
10.20578
11.42521
13.47117
17.51232
28.63852
97.95899
107.2685
36.36927
21.72458
14.72261
10.80026
8.551749
7.199115
6.315419
5.69525
5.243984
4.909888
4.660043
4.47265
4.332792
4.229981
4.156668
4.107311
4.077769
4.065153
4.066574
4.080442
4.10533
4.14014
4.184036
4.236397
4.296784
4.364919
4.440668
4.524034
4.615241
4.714823
4.823325
4.941058
5.068886
5.20775
5.35729
5.516531
5.684664
5.861007
6.044889
6.235493
6.431683
6.631826
6.833639
7.034134
7.229859
7.417848
7.597673
7.774477
7.961548
8.180737
8.46298
8.8502
9.398033
10.19462
11.41515
13.46261
17.50641
28.63944
97.99996
107.9856
36.55458
21.89756
14.88169
10.91749
8.62837
7.248314
6.353615
5.729308
5.274637
4.937715
4.685498
4.496096
4.354521
4.250222
4.175598
4.125063
4.094436
4.080809
4.081242
4.094132
4.118037
4.151844
4.194706
4.245996
4.305273
4.372258
4.44682
4.528993
4.619109
4.717631
4.82489
4.941151
5.067279
5.204229
5.351715
5.508869
5.674988
5.849478
6.03173
6.220962
6.41605
6.615363
6.81661
7.016792
7.212443
7.400577
7.58075
7.758086
7.945841
8.165813
8.448939
8.837107
9.385843
10.18338
11.40508
13.45417
17.50082
28.64038
98.04932
108.4716
36.67878
22.08186
15.04719
11.04285
8.713455
7.305106
6.396877
5.767227
5.309233
4.969406
4.714663
4.523061
4.379558
4.273551
4.197395
4.14546
4.113535
4.098563
4.097813
4.109518
4.132236
4.164844
4.206488
4.256536
4.314545
4.380238
4.453503
4.53448
4.623459
4.72071
4.826518
4.941157
5.065502
5.200511
5.345959
5.501073
5.665243
5.837952
6.018641
6.206559
6.400593
6.599111
6.799816
6.999696
7.19527
7.383534
7.564026
7.741853
7.930239
8.15093
8.434872
8.823918
9.373485
10.17189
11.3946
13.44508
17.49406
28.63942
98.08733
125.3363
37.17498
22.27899
15.21781
11.17576
8.807487
7.370552
6.445285
5.808533
5.347298
5.004542
4.747178
4.553233
4.407625
4.299715
4.221817
4.168268
4.134823
4.118262
4.116127
4.126445
4.147783
4.179011
4.219266
4.267913
4.324514
4.388824
4.460802
4.540532
4.628172