/*--------------------------------*- C++ -*----------------------------------*\
| =========                 |                                                 |
| \\      /  F ield         | OpenFOAM: The Open Source CFD Toolbox           |
|  \\    /   O peration     | Version:  2312                                  |
|   \\  /    A nd           | Website:  www.openfoam.com                      |
|    \\/     M anipulation  |                                                 |
\*---------------------------------------------------------------------------*/
FoamFile
{
    version     2.0;
    format      ascii;
    arch        "LSB;label=32;scalar=64";
    class       volScalarField;
    location    "5100";
    object      qr;
}
// * * * * * * * * * * * * * * * * * * * * * * * * * * * * * * * * * * * * * //

dimensions      [1 0 -3 0 0 0 0];

internalField   uniform 0;

boundaryField
{
    plate
    {
        type            calculated;
        value           nonuniform List<scalar> 
200
(
-9993.395
-10136.65
-10216.14
-10216.73
-10163.16
-10119.73
-10116.39
-10145.94
-10186.7
341.4332
333.0613
-10309.26
301.9611
279.2924
240.753
214.5216
200.8648
201.0664
217.5141
247.4311
276.4881
290.1957
281.3489
259.3118
241.5729
242.1042
-10280.49
-10252.3
-10229.86
-10204.1
-10170.25
-10133.96
-10101.53
-10068.71
-10035.5
-10009.94
-10002.29
25.69216
6.425132
-9886.545
-9815.671
-9751.384
-9704.953
-9672.24
-244.1808
-311.4516
-375.9693
-432.4184
-481.9673
-530.0404
-581.7836
-634.0797
-675.5812
-700.0668
-8944.931
-8843.191
-8773.808
-8725.293
-8677.404
-8624.025
-1241.186
-1293.306
-8313.047
-8190.698
-8077.503
-7993.429
-7935.772
-1723.196
-1814.297
-7704.336
-7615.167
-2085.346
-2148.297
-2184.648
-2225.642
-2301.059
-2415.932
-2541.018
-6347.758
-6635.424
-6589.142
-6453.754
-6127.842
-5563.16
-5557.575
-5928.954
-5967.615
-5760.203
-5157.378
-4344.402
-4096.875
-4177.357
-4517.614
-4958.048
-5186.378
-5144.328
-4854.728
-4464.61
-4181.83
-4059.945
-4045.368
-4076.608
-4113.692
-4132.353
-4147.081
-4196.188
-4315.666
-4518.12
-4761.458
-4966.931
-5066.757
-5054.919
-4969.45
-4869.433
-4819.614
-4849.978
-4946.828
-5066.811
-5162.039
-5205.747
-5193.555
-5141.351
-5067.132
-4987.602
-4910.296
-4834.03
-4759.59
-4691.662
-4641.247
-4620.171
-4635.204
-4680.065
-4737.557
-4787.506
-4810.757
-4801.138
-4767.475
-4727.04
-4699.027
-4694.879
-4718.375
-4760.971
-4807.685
-4843.431
-4856.159
-4845.42
-4815.689
-4776.471
-4737.807
-4707.79
-4689.694
-4680.916
-4683.212
-4696.169
-4723.016
-4765.681
-4823.074
-4887.212
-4942.43
-4974.891
-4972.761
-4938.525
-4884.881
-4831.369
-4789.886
-4759.823
-4734.437
-4704.009
-4664.416
-4624.203
-4610.665
-4646.559
-4729.237
-4829.852
-4904.31
-4917.541
-4847.929
-4699.386
-4530.776
-4433.468
-4464.091
-4598.855
-4762.588
-4884.33
-4921.817
-4895.683
-4817.873
-4690.231
-4457.458
-4075.019
-3941.836
-3670.709
-3233.96
-2392.373
-8224.203
-765.5618
-10089.27
562.9214
-11558.16
-11622.16
)
;
    }
    riser
    {
        type            calculated;
        value           nonuniform List<scalar> 
200
(
3373.266
3231.268
3194.898
3202.276
3249.504
3314.147
3401.237
3412.477
3236.235
3079.062
3218.295
3448.232
3426.415
3303.428
3386.705
3594.668
3672.346
3573.618
3437.215
3398.479
3515.065
3768.37
4042.749
4192.776
4222.92
4252.856
4254.435
4112.879
3954.237
4035.753
4315.768
4465.791
4329.605
4163.135
4323.634
4772.631
5125.599
5218.31
5192.069
5027.049
4614.599
4218.743
4202.384
4483.846
4737.518
4807.451
4685.678
4427.23
4195.311
4137.327
4194.043
4191
4110.263
4074.932
4057.168
3933.897
3836.693
4052.579
4536.549
4907.045
4970.255
4851.587
4635.893
4344.245
4176.011
4280.563
4486.743
4628.332
4776.752
4914.692
4862.191
4671.658
4609.899
4705.717
4717.099
4517.299
4251.511
4103.766
4061.253
4003.302
3931.26
3953.168
4094.495
4260.868
4356.952
4363.685
4322.328
4284.735
4281.965
4317.155
4370.789
4414.345
4431.266
4427.442
4420.329
4422.347
4434.349
4448.154
4450.557
4427.06
4369.047
4281.689
4184.487
4102.961
4057.876
4058.168
4099.444
4167.195
4243.231
4312.94
4369.617
4413.054
4444.183
4460.991
4458.967
4434.824
4390.213
4333.036
4275.56
4230.152
4204.705
4200.156
4211.236
4229.708
4248.111
4262.241
4271.572
4277.914
4283.424
4289.215
4295.255
4301.327
4308.126
4317.518
4331.689
4351.727
4376.478
4402.381
4424.524
4438.484
4441.952
4435.32
4421.087
4402.587
4382.736
4363.331
4345.114
4328.421
4313.859
4302.408
4294.852
4290.981
4289.092
4286.191
4279.033
4265.771
4247.453
4228.606
4216.397
4218.408
4239.727
4280.45
4334.665
4391.514
4438.181
4463.699
4461.783
4431.695
4377.384
4305.893
4225.239
4142.344
4062.165
3988.704
3926.366
3879.79
3852.571
3847.207
3866.582
3914.308
3991.483
4089.991
4184.851
4232.595
4185.383
4023.13
3786.086
3571.171
3471.243
3494.072
3558.955
3607.69
3703.929
3876.607
3941.835
3685.291
3213.587
2917.767
2892.185
2996.229
)
;
    }
    topAndBottom
    {
        type            calculated;
        value           nonuniform List<scalar> 
120
(
4073.938
3404.585
2880.728
2522.26
2275.699
2141.087
2085.244
2051.474
1999.971
1926.555
1847.476
1776.26
1722.429
1686.625
1664.278
1650.012
1641.322
1639.039
1645.174
1659.26
1676.927
1692.381
1701.149
1701.668
1694.738
1682.626
1667.804
1652.231
1637.065
1622.329
1607.649
1592.655
1577.234
1561.719
1547.037
1534.694
1526.422
1523.562
1526.477
1534.374
1545.573
1558.081
1570.234
1581.104
1590.555
1598.839
1606.041
1611.36
1612.593
1606.174
1588.552
1558.467
1518.759
1476.004
1437.424
1406.864
1384.537
1371.709
1383.549
1570.945
4558.725
4811.394
4833.814
4692.214
4361.695
3933.208
3541.571
3265.254
3105.624
3020.91
2972.4
2958.806
3016.656
3182.253
3443.546
3724.932
3923.77
3971.438
3869.822
3677.352
3461.042
3254.091
3047.813
2816.394
2549.858
2270.315
2023.637
1856.646
1796.169
1840.293
1962.017
2119.364
2266.271
2361.835
2378.092
2306.056
2157.963
1964.116
1764.421
1597.03
1488.775
1450.293
1477.002
1555.12
1668.525
1803.126
1947.738
2093.445
2231.955
2357.039
2463.129
2545.993
2605.89
2649.357
2684.027
2712.92
2735.918
2748.697
2772.157
2780.747
)
;
    }
    frontAndBack
    {
        type            empty;
    }
}


// ************************************************************************* //
