/*--------------------------------*- C++ -*----------------------------------*\
| =========                 |                                                 |
| \\      /  F ield         | OpenFOAM: The Open Source CFD Toolbox           |
|  \\    /   O peration     | Version:  2312                                  |
|   \\  /    A nd           | Website:  www.openfoam.com                      |
|    \\/     M anipulation  |                                                 |
\*---------------------------------------------------------------------------*/
FoamFile
{
    version     2.0;
    format      ascii;
    arch        "LSB;label=32;scalar=64";
    class       volScalarField;
    location    "5100";
    object      T;
}
// * * * * * * * * * * * * * * * * * * * * * * * * * * * * * * * * * * * * * //

dimensions      [0 0 0 1 0 0 0];

internalField   nonuniform List<scalar> 
12000
(
449.075
436.0285
434.4268
434.1929
434.1566
434.1466
434.1408
434.1354
434.1295
434.1225
434.114
434.1035
434.0903
434.0747
434.0569
434.0366
434.0128
433.9861
433.957
433.9249
433.8893
433.8505
433.8089
433.7643
433.7162
433.6649
433.6108
433.5538
433.4939
433.4312
433.3662
433.2982
433.2254
433.1471
433.0626
432.9656
432.8535
432.7327
432.608
432.48
432.3337
432.1569
431.9695
431.7923
431.6144
431.4002
431.1405
430.8566
430.6058
430.3272
429.9585
429.5256
429.0799
428.5679
427.9251
427.1328
426.1064
424.75
422.5976
418.6658
449.084
436.5396
435.1238
435.0776
435.263
435.4896
435.7234
435.9541
436.1833
436.4122
436.6234
436.8201
437
437.1781
437.3515
437.5044
437.6332
437.7564
437.8816
437.9923
438.0778
438.153
438.2302
438.2989
438.3488
438.3862
438.4203
438.4477
438.463
438.4681
438.464
438.45
438.4301
438.4001
438.3585
438.3059
438.2425
438.1686
438.084
437.9878
437.8786
437.7551
437.616
437.4593
437.2827
437.083
436.8588
436.6066
436.3218
436.0003
435.6337
435.2108
434.7251
434.1449
433.451
432.5529
431.3031
429.5252
426.6614
421.3502
449.6067
437.273
435.8001
435.8317
436.1641
436.5527
436.9474
437.3332
437.7044
438.0582
438.3913
438.7002
438.9859
439.2524
439.4998
439.7277
439.9361
440.1268
440.3014
440.46
440.6025
440.7297
440.8436
440.9443
441.0319
441.1067
441.1696
441.2209
441.2608
441.2893
441.3064
441.3124
441.309
441.2921
441.2625
441.2204
441.1658
441.0985
441.0181
440.9241
440.8161
440.6931
440.5538
440.3966
440.2206
440.0242
439.8048
439.5562
439.2732
438.9527
438.5936
438.1929
437.7291
437.1751
436.4884
435.6107
434.4303
432.6086
429.454
422.7776
450.4264
437.9831
436.4157
436.4729
436.8939
437.3872
437.883
438.3614
438.8167
439.2476
439.6561
440.0395
440.3967
440.7262
441.0302
441.3111
441.5701
441.8085
442.0272
442.2272
442.4094
442.5745
442.7234
442.8567
442.9747
443.0779
443.1665
443.2407
443.3007
443.3463
443.3778
443.3956
443.3997
443.3877
443.3604
443.3177
443.2598
443.1863
443.0967
442.9905
442.8671
442.7259
442.566
442.3864
442.1859
441.9643
441.7193
441.4469
441.1436
440.8057
440.4261
439.991
439.484
438.8966
438.1949
437.3208
436.1321
434.3414
431.1414
423.7252
451.3363
438.694
437.009
437.051
437.5162
438.0747
438.6377
439.1797
439.6929
440.1774
440.6328
441.0617
441.4643
441.8397
442.1881
442.511
442.8101
443.0868
443.3419
443.5762
443.7904
443.9853
444.1617
444.3202
444.4611
444.5848
444.6916
444.7815
444.8545
444.9107
444.9507
444.9744
444.9803
444.9683
444.9388
444.8916
444.8273
444.745
444.6441
444.5241
444.3841
444.2235
444.0414
443.8368
443.6085
443.356
443.0773
442.7711
442.4365
442.0634
441.6345
441.1511
440.6145
439.9996
439.2718
438.3762
437.1901
435.4301
432.2575
424.4601
452.3034
439.4021
437.581
437.5731
438.0441
438.6347
439.2388
439.8238
440.38
440.9053
441.3992
441.863
442.2981
442.7063
443.0882
443.4435
443.7736
444.0795
444.3622
444.6222
444.8602
445.077
445.2731
445.4492
445.6057
445.7429
445.8612
445.9606
446.0413
446.1032
446.1469
446.1719
446.1773
446.1636
446.1309
446.0791
446.0083
445.9177
445.8068
445.6746
445.5204
445.3433
445.1422
444.916
444.6637
444.3836
444.0747
443.7355
443.3636
442.9543
442.4997
441.9917
441.4222
440.7749
440.0199
439.102
437.9077
436.1653
433.0374
425.0284
453.2998
440.0987
438.1354
438.0566
438.5056
439.1036
439.7285
440.34
440.9247
441.4786
442.0011
442.4927
442.9543
443.3868
443.7921
444.1709
444.5236
444.8508
445.1532
445.4315
445.6862
445.918
446.1274
446.3151
446.4815
446.627
446.7521
446.8569
446.9417
447.0065
447.0513
447.0759
447.0803
447.0648
447.0294
446.974
446.8982
446.8016
446.6832
446.5422
446.3776
446.1884
445.9732
445.7309
445.46
445.1594
444.8276
444.4625
444.061
443.6197
443.1339
442.5973
442
441.3261
440.5474
439.6117
438.4112
436.6823
433.5922
425.4423
454.3148
440.787
438.6747
438.5102
438.9168
439.5032
440.1335
440.7589
441.3612
441.9341
442.4761
442.987
443.4676
443.9187
444.341
444.7358
445.1039
445.4456
445.7614
446.0518
446.3175
446.5589
446.7767
446.9716
447.1439
447.2943
447.4232
447.5308
447.6175
447.6834
447.7286
447.7529
447.7565
447.7397
447.7025
447.6448
447.566
447.4656
447.3427
447.1962
447.0249
446.8276
446.6029
446.3492
446.0652
445.7492
445.3994
445.0136
444.5894
444.1241
443.6136
443.0523
442.4309
441.7342
440.9356
439.9851
438.7788
437.0611
434.0108
425.7699
455.3434
441.4709
439.201
438.9416
439.2922
439.8523
440.4744
441.1016
441.7116
442.2954
442.8497
443.3737
443.8674
444.3312
444.7657
445.1715
445.5495
445.9003
446.2244
446.5222
446.7944
447.0415
447.2642
447.463
447.6386
447.7915
447.9222
448.0311
448.1186
448.1849
448.2302
448.2544
448.2578
448.2407
448.2029
448.1443
448.0644
447.9623
447.8372
447.6879
447.5129
447.3107
447.0798
446.8183
446.5246
446.1966
445.8324
445.4303
444.9881
444.5035
443.9731
443.3916
442.7508
442.0361
441.2222
440.261
439.0516
437.3447
434.3303
426.0431
456.2462
442.1415
439.7143
439.3562
439.6412
440.1629
440.7657
441.3855
441.995
442.5825
443.143
443.6744
444.176
444.6479
445.0901
445.5032
445.8875
446.2438
446.5729
446.8751
447.151
447.4012
447.6263
447.827
448.0039
448.1578
448.2891
448.3984
448.4861
448.5526
448.5981
448.6226
448.6263
448.6095
448.5721
448.5139
448.4341
448.3321
448.2067
448.0565
447.8801
447.6755
447.4409
447.1742
446.8733
446.5362
446.1611
445.746
445.2894
444.7892
444.2427
443.6454
442.9894
442.2609
441.4354
440.4662
439.2554
437.5595
434.583
426.2954
457.3032
442.8025
440.2134
439.7556
439.9698
440.4453
441.0203
441.6245
442.2263
442.8111
443.372
443.9058
444.4109
444.8869
445.3336
445.7511
446.1398
446.5
446.8323
447.1371
447.4151
447.6669
447.8932
448.0946
448.272
448.426
448.5573
448.6665
448.7541
448.8205
448.8661
448.891
448.8954
448.8794
448.8429
448.7856
448.7069
448.6059
448.4812
448.3315
448.155
447.9495
447.713
447.443
447.1372
446.7931
446.409
445.9831
445.5143
445.0011
444.4415
443.8314
443.1636
442.425
441.5917
440.6179
439.4078
437.7231
434.7817
426.5284
458.4689
443.4528
440.7001
440.1439
440.2851
440.7085
441.2485
441.8302
442.4179
442.9943
443.5506
444.0822
444.5867
445.0632
445.5113
445.9308
446.3221
446.6853
447.0207
447.3283
447.6085
447.8619
448.0892
448.2912
448.4688
448.6228
448.7538
448.8626
448.9499
449.0161
449.0616
449.0867
449.0916
449.0764
449.0409
448.9849
448.9075
448.8079
448.6847
448.5363
448.3607
448.1556
447.9185
447.6466
447.337
446.987
446.5947
446.1586
445.6785
445.1539
444.5836
443.964
443.288
442.5427
441.7045
440.7284
439.5204
437.8467
434.9401
426.7526
459.4569
444.1106
441.182
440.5218
440.5857
440.9517
441.4509
442.0043
442.5726
443.1356
443.6827
444.2078
444.7078
445.1813
445.6277
446.0471
446.4401
446.8088
447.1518
447.4656
447.7493
448.0045
448.2334
448.4366
448.6149
448.7691
448.8999
449.0082
449.0948
449.1604
449.2055
449.2304
449.2355
449.2208
449.1862
449.1312
449.0552
448.9571
448.8356
448.6888
448.5147
448.3107
448.0738
447.8008
447.488
447.1323
446.7312
446.2841
445.7921
445.2572
444.6788
444.053
443.3723
442.6235
441.7833
440.8073
439.6027
437.9396
435.0638
426.9627
460.5582
444.7629
441.656
440.8932
440.8808
441.1879
441.6425
442.1629
442.7062
443.2499
443.7817
444.2942
444.7832
445.2459
445.6853
446.1064
446.5086
446.8881
447.2401
447.5615
447.8515
448.112
448.3448
448.5509
448.7307
448.8848
449.0139
449.1202
449.2052
449.2696
449.3137
449.338
449.3427
449.3281
449.2938
449.2395
449.1645
449.0677
448.9477
448.8027
448.6304
448.428
448.1926
447.9203
447.6053
447.2429
446.8302
446.3675
445.8604
445.3168
444.7352
444.1073
443.4254
442.6762
441.8363
440.8619
439.6613
438.0078
435.1595
427.1561
461.6832
445.4166
442.1254
441.2604
441.1743
441.4228
441.8309
442.3145
442.8289
443.3496
443.8623
444.3584
444.8321
445.2862
445.726
446.1503
446.5552
446.937
447.293
447.6212
447.92
448.1885
448.4267
448.6356
448.8167
448.9713
449.1012
449.2076
449.2918
449.3546
449.3971
449.4202
449.4241
449.4089
449.3745
449.3205
449.246
449.1501
449.0314
448.8881
448.7175
448.5161
448.2802
448.0054
447.6863
447.3178
446.8971
446.4252
445.9069
445.3505
444.763
444.1367
443.456
442.7082
441.8702
440.8985
439.7023
438.0573
435.2306
427.3188
462.822
446.0709
442.59
441.6275
441.4687
441.6579
442.0177
442.4623
442.9455
443.4409
443.9331
444.4124
444.8742
445.3217
445.7582
446.1812
446.5873
446.9723
447.3328
447.6657
447.9686
448.241
448.4832
448.6958
448.8798
449.0366
449.1675
449.2742
449.3582
449.4207
449.4626
449.4847
449.4877
449.4719
449.4369
449.3824
449.3077
449.2116
449.0926
448.9487
448.7772
448.5748
448.3375
448.0607
447.7392
447.368
446.9431
446.4637
445.9358
445.3704
444.7774
444.1505
443.4719
442.7265
441.891
440.9223
439.7302
438.0922
435.2822
427.4447
463.9582
446.7207
443.0585
441.9965
441.7651
441.8953
442.2064
442.6112
443.0622
443.5318
444.0036
444.4676
444.9175
445.356
445.7873
446.2089
446.6159
447.0031
447.3657
447.7008
448.0067
448.2824
448.5277
448.743
448.9291
449.0874
449.2196
449.327
449.4113
449.4737
449.5151
449.5364
449.5384
449.5216
449.4855
449.4299
449.3539
449.2566
449.1363
448.9911
448.8182
448.6142
448.375
448.0961
447.7721
447.3981
446.9703
446.4881
445.9559
445.384
444.7842
444.1554
443.48
442.7373
441.9047
440.9392
439.7512
438.1193
435.3214
427.5328
465.0809
447.3709
443.5307
442.3682
442.0649
442.1372
442.4004
442.7657
443.1848
443.6289
444.0808
444.5294
444.9684
445.3997
445.826
446.2443
446.6493
447.0359
447.3995
447.7364
448.0442
448.3215
448.5682
448.7848
448.9722
449.1314
449.2641
449.3717
449.4559
449.5177
449.5583
449.5785
449.5793
449.5612
449.5237
449.4665
449.3889
449.2899
449.168
449.0211
448.8464
448.6405
448.3995
448.1186
447.7927
447.4166
446.9865
446.5011
445.9648
445.388
444.7839
444.1546
443.4818
442.742
441.9124
440.9504
439.7665
438.1402
435.3517
427.5901
466.1754
448.027
444.0059
442.7429
442.3691
442.3853
442.6023
442.9297
443.3181
443.7381
444.1714
444.6063
445.0352
445.4589
445.8795
446.2937
446.6961
447.0811
447.4438
447.7802
448.0877
448.3652
448.6121
448.8284
449.0153
449.1739
449.3057
449.4124
449.4954
449.5559
449.595
449.6137
449.6128
449.5931
449.5542
449.4953
449.4159
449.315
449.1912
449.0424
448.8658
448.6581
448.415
448.1321
447.8041
447.426
446.9939
446.5066
445.9678
445.3875
444.7794
444.1493
443.4792
442.7421
441.9156
440.957
439.7772
438.156
435.3751
427.626
467.2362
448.6836
444.4835
443.1211
442.6787
442.6413
442.8145
443.1062
443.4661
443.8639
444.2805
444.7035
445.1242
445.541
445.9553
446.3641
446.7621
447.1435
447.5031
447.8371
448.1427
448.4182
448.6629
448.877
449.0616
449.2179
449.3475
449.4518
449.5324
449.5906
449.6275
449.644
449.641
449.6194
449.5787
449.518
449.4368
449.3341
449.2085
449.0577
448.8792
448.6694
448.4243
448.1392
447.8091
447.4291
446.9952
446.5061
445.9654
445.3831
444.7731
444.1431
443.4749
442.7404
441.917
440.962
439.7865
438.1708
435.3982
427.6603
468.262
449.3371
444.9628
443.5031
442.9945
442.9063
443.0387
443.2975
443.6313
444.0092
444.4113
444.8241
445.2386
445.6495
446.0568
446.4591
446.851
447.2268
447.5814
447.9106
448.2115
448.4825
448.7229
448.9329
449.1133
449.2656
449.3912
449.4917
449.5687
449.6236
449.6573
449.6709
449.6654
449.6414
449.5987
449.5361
449.4531
449.3486
449.2211
449.0684
448.8879
448.676
448.4288
448.1416
447.8095
447.4275
446.9919
446.5015
445.9596
445.3762
444.7651
444.1352
443.4689
442.7374
441.9174
440.9661
439.795
438.1851
435.4214
427.6978
469.2507
449.9887
445.4441
443.8893
443.3172
443.1813
443.2759
443.5048
443.8153
444.1756
444.565
444.9693
445.3784
445.785
446.186
446.5803
446.9643
447.3323
447.6793
448.0012
448.2951
448.5592
448.793
448.9966
449.171
449.3175
449.4376
449.5331
449.6053
449.6558
449.6855
449.6956
449.6869
449.6602
449.6151
449.5505
449.4655
449.3592
449.2298
449.0753
448.8928
448.679
448.4297
448.1405
447.8063
447.4226
446.9854
446.4938
445.9512
445.3673
444.7562
444.1269
443.4625
442.734
441.9174
440.9699
439.8033
438.1993
435.4449
427.7413
470.2056
450.6397
445.9275
444.2802
443.6474
443.4668
443.5269
443.7287
444.0183
444.363
444.7412
445.1377
445.5417
445.945
446.3412
446.7273
447.1013
447.4593
447.7963
448.1084
448.3927
448.6476
448.8726
449.0679
449.2344
449.3736
449.4869
449.576
449.6425
449.6877
449.7127
449.7185
449.7061
449.6762
449.6285
449.5617
449.4747
449.3664
449.2352
449.0789
448.8947
448.679
448.4278
448.1366
447.8006
447.4152
446.9767
446.4842
445.9411
445.3572
444.7467
444.1185
443.4562
442.7308
441.9175
440.9738
439.8117
438.2138
435.4695
427.7898
471.1272
451.2901
446.4141
444.6766
443.9856
443.7633
443.7917
443.9691
444.24
444.5706
444.9383
445.3272
445.7255
446.1241
446.5162
446.8963
447.26
447.6053
447.9299
448.2298
448.5023
448.7459
448.9601
449.1453
449.3025
449.433
449.5383
449.6202
449.6801
449.7193
449.739
449.7402
449.7236
449.69
449.6394
449.5703
449.4811
449.3709
449.2379
449.0798
448.8938
448.6763
448.4234
448.1305
447.7929
447.406
446.9664
446.4732
445.93
445.3467
444.7371
444.1105
443.4505
442.728
441.918
440.9781
439.8205
438.2287
435.4946
427.8412
472.0154
451.9382
446.9036
445.0787
444.3321
444.0707
444.0701
444.2252
444.479
444.7964
445.154
445.5349
445.9263
446.3187
446.7044
447.0774
447.4329
447.7671
448.0774
448.3626
448.6212
448.8517
449.0535
449.2271
449.3736
449.4944
449.591
449.6649
449.7176
449.7504
449.7645
449.7607
449.7398
449.7024
449.6486
449.5768
449.4854
449.3731
449.2382
449.0784
448.8907
448.6715
448.417
448.1225
447.7835
447.3954
446.955
446.4614
445.9185
445.3359
444.7279
444.1032
443.4457
442.7261
441.9193
440.983
439.83
438.2444
435.5208
427.8951
472.8609
452.5842
447.397
445.4872
444.6872
444.389
444.3613
444.496
444.7339
445.0387
445.3859
445.7578
446.1411
446.5254
446.9024
447.266
447.6113
447.9343
448.2324
448.5037
448.7468
448.9621
449.1502
449.3114
449.4464
449.5567
449.6438
449.7093
449.7545
449.7807
449.789
449.7801
449.7548
449.7136
449.6564
449.5818
449.488
449.3736
449.2368
449.0751
448.8857
448.6649
448.4088
448.1129
447.7726
447.3836
446.9427
446.449
445.9067
445.3254
444.7193
444.097
443.4421
442.7253
441.9215
440.9889
439.8402
438.2608
435.5483
427.952
473.7896
453.2235
447.8933
445.9015
445.0504
444.7174
444.6645
444.78
445.0027
445.295
445.6315
445.9935
446.3672
446.7415
447.108
447.4602
447.7931
448.103
448.3875
448.6448
448.8741
449.0754
449.249
449.3965
449.5193
449.6186
449.696
449.7528
449.7904
449.8099
449.8123
449.7984
449.7687
449.7237
449.6631
449.5857
449.4895
449.3729
449.2341
449.0706
448.8794
448.657
448.3994
448.1022
447.7608
447.3711
446.9298
446.4364
445.895
445.3154
444.7115
444.0919
443.4397
442.7256
441.9249
440.9957
439.8513
438.2781
435.5772
428.0147
474.5826
453.8619
448.3947
446.3207
445.4213
445.0554
444.9786
445.0759
445.2839
445.5636
445.8887
446.2398
446.6023
446.9651
447.3193
447.6583
447.9772
448.2725
448.542
448.7842
448.9988
449.1859
449.3461
449.4807
449.5911
449.6792
449.7466
449.7947
449.8247
449.8376
449.8343
449.8155
449.7815
449.7327
449.6689
449.5887
449.4902
449.3714
449.2306
449.0653
448.8723
448.6484
448.3893
448.0909
447.7486
447.3582
446.9168
446.4239
445.8836
445.3059
444.7046
444.0878
443.4385
442.7271
441.9293
441.0034
439.8632
438.2961
435.6074
428.0853
475.3523
454.5026
448.8967
446.7426
445.7986
445.4016
445.3023
445.382
445.5755
445.8424
446.1553
446.4943
446.8444
447.1941
447.5344
447.8587
448.1621
448.4415
448.6949
448.9213
449.1204
449.2928
449.4393
449.5612
449.66
449.7373
449.7949
449.8344
449.8569
449.8635
449.8547
449.8312
449.7932
449.7408
449.6738
449.591
449.4903
449.3695
449.2268
449.0596
448.8651
448.6396
448.3792
448.0796
447.7364
447.3456
446.9041
446.4118
445.8727
445.2971
444.6986
444.0849
443.4384
442.7296
441.9346
441.0119
439.8757
438.3145
435.6384
428.1644
476.1003
455.1415
449.3987
447.1684
446.1815
445.755
445.6339
445.6966
445.8756
446.1292
446.4292
446.755
447.0913
447.4264
447.7513
448.0594
448.3463
448.6087
448.8452
449.055
449.2382
449.3956
449.5282
449.6374
449.7247
449.7918
449.8402
449.8715
449.8869
449.8873
449.8734
449.8455
449.8038
449.7481
449.6782
449.5928
449.4899
449.3673
449.2228
449.0541
448.858
448.6311
448.3694
448.0688
447.7249
447.3336
446.8922
446.4005
445.8628
445.2894
444.6937
444.0831
443.4395
442.7332
441.9408
441.021
439.8885
438.3329
435.6691
428.2492
476.8298
455.7774
449.9036
447.5964
446.5671
446.1135
445.9718
446.0178
446.1821
446.4219
446.708
447.0194
447.3405
447.6596
447.9677
448.2586
448.5277
448.7724
448.9914
449.1842
449.3513
449.4936
449.6124
449.7091
449.7852
449.8423
449.882
449.9055
449.9143
449.909
449.8903
449.8584
449.8132
449.7546
449.6821
449.5944
449.4894
449.365
449.219
449.0488
448.8514
448.6232
448.3605
448.059
447.7144
447.3229
446.8816
446.3906
445.8543
445.2831
444.6902
444.0828
443.4418
442.7377
441.9478
441.0307
439.9015
438.3509
435.6983
428.3349
477.5409
456.4092
450.4096
448.025
446.9559
446.4761
446.3144
446.3437
446.4929
446.7181
446.9892
447.2849
447.5895
447.8912
448.1814
448.4539
448.7046
448.931
449.1321
449.3079
449.4589
449.5863
449.6915
449.776
449.8412
449.8888
449.9202
449.9366
449.9391
449.9286
449.9055
449.8699
449.8217
449.7604
449.6855
449.5957
449.4889
449.3629
449.2155
449.044
448.8454
448.6163
448.3527
448.0506
447.7056
447.3139
446.8728
446.3825
445.8476
445.2785
444.6884
444.084
443.4454
442.7434
441.9556
441.041
439.9146
438.3683
435.7252
428.4149
478.2341
457.0352
450.9156
448.4532
447.3468
446.8419
446.6601
446.6724
446.8059
447.0154
447.2704
447.5491
447.8359
448.1191
448.3903
448.6436
448.8752
449.0831
449.2663
449.4251
449.5603
449.6732
449.7653
449.8381
449.893
449.9316
449.9551
449.9647
449.9615
449.9461
449.919
449.8801
449.8292
449.7656
449.6887
449.597
449.4885
449.3612
449.2125
449.04
448.8405
448.6106
448.3463
448.0435
447.6982
447.3066
446.866
446.3766
445.8432
445.276
444.6884
444.0864
443.4501
442.7499
441.9641
441.0517
439.9279
438.385
435.7495
428.4841
478.9106
457.6557
451.4207
448.881
447.738
447.2096
447.0075
447.0021
447.1189
447.3116
447.5491
447.8097
448.0775
448.3411
448.5924
448.826
449.0383
449.2275
449.393
449.5352
449.6551
449.7541
449.8337
449.8953
449.9406
449.9707
449.987
449.9904
449.9818
449.9618
449.931
449.8892
449.8359
449.7704
449.6917
449.5983
449.4884
449.3599
449.2102
449.0368
448.8364
448.6057
448.341
448.038
447.6926
447.3011
446.8609
446.3723
445.8402
445.275
444.6899
444.0903
443.4559
442.7576
441.9736
441.0631
439.9415
438.4013
435.7711
428.5387
479.5705
458.2654
451.9223
449.3074
448.1288
447.5772
447.3551
447.331
447.4298
447.6045
447.8234
448.0645
448.3122
448.5553
448.7863
448.9997
449.1927
449.3634
449.5117
449.6379
449.7432
449.8289
449.8967
449.948
449.9841
450.0064
450.016
450.0137
450.0002
449.9762
449.9419
449.8973
449.8419
449.7747
449.6945
449.5997
449.4886
449.3589
449.2083
449.034
448.8331
448.602
448.337
448.034
447.6887
447.2973
446.8575
446.3697
445.8389
445.2758
444.6933
444.0961
443.4634
442.7666
441.9843
441.0755
439.9557
438.4177
435.791
428.5785
480.2124
458.8675
452.4209
449.7313
448.5176
447.9432
447.7008
447.6576
447.7374
447.8925
448.0913
448.3118
448.5384
448.7605
448.9706
449.164
449.3377
449.4905
449.622
449.733
449.8245
449.8978
449.9546
449.9962
450.024
450.0391
450.0425
450.0349
450.0171
449.9893
449.9518
449.9047
449.8474
449.7787
449.6972
449.6013
449.4891
449.3584
449.207
449.0322
448.8308
448.5994
448.3343
448.0312
447.6861
447.2951
446.856
446.3691
445.8398
445.2787
444.6986
444.1033
443.4722
442.777
441.9961
441.0889
439.9708
438.4347
435.8101
428.6061
480.8312
459.4563
452.914
450.1529
448.9032
448.3056
448.0427
447.9797
448.0395
448.1742
448.3518
448.5506
448.7555
448.956
449.1452
449.3184
449.4733
449.6086
449.7242
449.8207
449.8992
449.961
450.0075
450.0402
450.0603
450.0688
450.0666
450.0543
450.0325
450.0013
449.961
449.9116
449.8525
449.7824
449.6999
449.6031
449.49
449.3586
449.2065
449.0312
448.8295
448.5979
448.3328
448.0299
447.685
447.2945
446.856
446.3701
445.8423
445.2832
444.7055
444.1122
443.4824
442.7886
442.0091
441.1034
439.9869
438.4524
435.8293
428.627
481.3236
460.0354
453.4043
450.5734
449.2848
448.6629
448.379
448.2951
448.3339
448.4469
448.6025
448.779
448.9618
449.1407
449.309
449.4627
449.5993
449.7179
449.8183
449.9013
449.9677
450.0189
450.0561
450.0806
450.0936
450.0961
450.0888
450.0722
450.0467
450.0125
449.9697
449.9181
449.8573
449.7862
449.7028
449.6052
449.4913
449.3593
449.2067
449.0311
448.8292
448.5977
448.3326
448.03
447.6855
447.2955
446.8577
446.3728
445.8464
445.2893
444.714
444.1225
443.4939
442.8015
442.0234
441.119
440.004
438.471
435.8494
428.6456
481.9013
460.5993
453.8873
450.9896
449.6599
449.013
448.7077
448.6024
448.6191
448.7098
448.8426
448.9966
449.1571
449.3145
449.4624
449.597
449.7161
449.8188
449.905
449.9753
450.0306
450.0719
450.1006
450.1177
450.1243
450.1213
450.1093
450.0887
450.0599
450.023
449.9779
449.9245
449.8622
449.79
449.7059
449.6076
449.4932
449.3606
449.2077
449.0318
448.83
448.5985
448.3338
448.0315
447.6874
447.298
446.8609
446.3771
445.8521
445.2969
444.7237
444.1339
443.5066
442.8154
442.0387
441.1358
440.0223
438.4909
435.8709
428.6669
482.5945
461.1511
454.3633
451.3997
450.0279
449.3551
449.0277
448.9001
448.8941
448.9617
449.0715
449.2027
449.3411
449.4774
449.6055
449.7218
449.8242
449.9119
449.9848
450.0433
450.0883
450.1207
450.1415
450.1518
450.1526
450.1446
450.1283
450.1042
450.0724
450.033
449.9859
449.9307
449.8672
449.794
449.7092
449.6103
449.4954
449.3625
449.2094
449.0334
448.8316
448.6005
448.3361
448.0342
447.6907
447.3019
446.8656
446.3827
445.8591
445.3057
444.7345
444.1463
443.5202
442.8303
442.0549
441.1533
440.0414
438.5118
435.8939
428.6912
483.1843
461.696
454.8333
451.8038
450.3882
449.6884
449.3382
449.1874
449.1581
449.2022
449.2887
449.3972
449.5139
449.6296
449.7387
449.8376
449.9243
449.9979
450.0583
450.1059
450.1414
450.1655
450.1792
450.1834
450.1789
450.1663
450.1461
450.1187
450.0842
450.0425
449.9935
449.9369
449.8722
449.7981
449.7126
449.6132
449.4979
449.3648
449.2116
449.0358
448.8342
448.6034
448.3394
448.0381
447.6952
447.3071
446.8716
446.3897
445.8674
445.3157
444.7465
444.1598
443.5348
442.846
442.0719
441.1717
440.0613
438.5334
435.9175
428.718
483.7701
462.23
455.2957
452.2006
450.7399
450.0121
449.6383
449.4637
449.4105
449.4309
449.4942
449.5803
449.6758
449.7718
449.8627
449.945
450.0168
450.0773
450.1261
450.1636
450.1903
450.2069
450.2142
450.2127
450.2034
450.1866
450.1629
450.1325
450.0955
450.0517
450.001
449.943
449.8772
449.8024
449.7162
449.6164
449.5008
449.3675
449.2144
449.0387
448.8375
448.6071
448.3437
448.043
447.7008
447.3134
446.8787
446.3978
445.8768
445.3268
444.7593
444.174
443.55
442.8624
442.0895
441.1907
440.0817
438.5555
435.9419
428.7464
484.3436
462.7544
455.7506
452.5897
451.0824
450.3255
449.9273
449.7284
449.6511
449.6478
449.6882
449.7525
449.8275
449.9045
449.9781
450.0448
450.1027
450.1508
450.1888
450.217
450.2357
450.2453
450.2466
450.2401
450.2263
450.2058
450.1788
450.1456
450.1062
450.0605
450.0083
449.9491
449.8824
449.8067
449.72
449.6198
449.504
449.3706
449.2176
449.0422
448.8414
448.6116
448.3488
448.0488
447.7073
447.3207
446.8868
446.4068
445.8871
445.3386
444.7729
444.189
443.566
442.8794
442.1077
441.2102
440.1026
438.578
435.9664
428.775
484.9039
463.2675
456.1965
452.9705
451.415
450.628
450.205
449.9814
449.8799
449.8531
449.871
449.9141
449.9694
450.0284
450.0856
450.1376
450.1824
450.219
450.2471
450.2666
450.2778
450.281
450.2768
450.2656
450.2478
450.2238
450.1939
450.1581
450.1166
450.0691
450.0155
449.9552
449.8875
449.8111
449.7239
449.6234
449.5074
449.3741
449.2213
449.0463
448.846
448.6168
448.3547
448.0554
447.7147
447.3288
446.8957
446.4168
445.8982
445.3513
444.7872
444.2045
443.5825
442.897
442.1264
441.2301
440.1239
438.6009
435.9914
428.8033
485.3446
463.7707
456.6353
453.3429
451.7376
450.9195
450.471
450.2226
450.097
450.0471
450.0432
450.0659
450.1023
450.1442
450.1859
450.2241
450.2567
450.2826
450.3013
450.3127
450.317
450.3143
450.3051
450.2896
450.2681
450.2409
450.2082
450.1701
450.1266
450.0775
450.0225
449.9612
449.8928
449.8157
449.728
449.6272
449.5111
449.3779
449.2254
449.0509
448.8512
448.6227
448.3613
448.0628
447.7228
447.3378
446.9055
446.4276
445.9102
445.3647
444.8021
444.2207
443.5995
442.915
442.1455
441.2503
440.1455
438.6241
436.0165
428.8307
485.8802
464.2585
457.0614
453.7065
452.0516
451.1987
450.7242
450.4518
450.3026
450.2303
450.2053
450.2084
450.2269
450.2525
450.2797
450.3049
450.3261
450.342
450.352
450.3559
450.3536
450.3455
450.3315
450.312
450.2871
450.257
450.2218
450.1816
450.1363
450.0857
450.0295
449.9673
449.8981
449.8204
449.7322
449.6311
449.515
449.3821
449.23
449.056
448.8569
448.6291
448.3685
448.0708
447.7317
447.3474
446.9161
446.439
445.9228
445.3786
444.8175
444.2373
443.617
442.9334
442.1649
441.271
440.1675
438.6477
436.042
428.858
486.4163
464.7349
457.4778
454.0615
452.3561
451.4663
450.9651
450.6692
450.4972
450.4031
450.3579
450.3423
450.3438
450.3541
450.3676
450.3807
450.3912
450.3977
450.3995
450.3964
450.3881
450.3747
450.3563
450.3331
450.305
450.2723
450.2348
450.1926
450.1456
450.0937
450.0364
449.9733
449.9034
449.8252
449.7366
449.6353
449.5192
449.3865
449.2349
449.0615
448.8631
448.6361
448.3763
448.0794
447.7411
447.3577
446.9272
446.4511
445.936
445.3931
444.8335
444.2543
443.6349
442.9522
442.1847
441.292
440.1898
438.6715
436.0677
428.8855
486.9492
465.2018
457.8852
454.4077
452.6507
451.7225
451.1945
450.8755
450.6813
450.5663
450.5017
450.4684
450.4538
450.4497
450.4503
450.4519
450.4524
450.4501
450.4442
450.4344
450.4204
450.4022
450.3797
450.3529
450.3219
450.2867
450.2471
450.2031
450.1547
450.1014
450.0432
449.9793
449.9087
449.83
449.741
449.6395
449.5236
449.3912
449.2401
449.0674
448.8697
448.6435
448.3845
448.0885
447.7511
447.3685
446.9389
446.4637
445.9496
445.4081
444.8497
444.2716
443.653
442.9713
442.2048
441.3131
440.2122
438.6955
436.0937
428.9136
487.4743
465.66
458.2843
454.7454
452.9356
451.9677
451.4128
451.0713
450.8556
450.7206
450.6375
450.5873
450.5575
450.5397
450.5282
450.5191
450.51
450.4994
450.4864
450.4703
450.4509
450.4281
450.4016
450.3716
450.3378
450.3002
450.2587
450.2132
450.1633
450.109
450.0499
449.9852
449.9141
449.8348
449.7454
449.6438
449.5281
449.3961
449.2456
449.0735
448.8767
448.6513
448.3932
448.098
447.7614
447.3797
446.951
446.4767
445.9637
445.4233
444.8662
444.2891
443.6713
442.9905
442.225
441.3344
440.2348
438.7196
436.1198
428.9419
487.9902
466.1086
458.6744
455.0744
453.211
452.2025
451.6205
451.2571
451.0208
450.8666
450.7659
450.6997
450.6556
450.6248
450.6018
450.5825
450.5645
450.5461
450.5262
450.5042
450.4797
450.4525
450.4224
450.3892
450.3528
450.3131
450.2698
450.2228
450.1717
450.1164
450.0565
449.9911
449.9193
449.8396
449.75
449.6483
449.5328
449.4013
449.2513
449.08
448.8839
448.6593
448.4021
448.1078
447.7721
447.3913
446.9633
446.49
445.9779
445.4387
444.8828
444.3067
443.6897
443.0097
442.2452
441.3558
440.2575
438.7438
436.1459
428.9701
488.4966
466.5473
459.056
455.3955
453.4784
452.4292
451.818
451.4327
451.1771
451.0048
450.8874
450.8062
450.7484
450.7054
450.6715
450.6426
450.6161
450.5903
450.5639
450.5362
450.5069
450.4755
450.4419
450.4058
450.367
450.3252
450.2803
450.2319
450.1798
450.1237
450.063
449.9969
449.9245
449.8444
449.7545
449.6529
449.5376
449.4066
449.2573
449.0866
448.8914
448.6676
448.4112
448.1179
447.783
447.403
446.9759
446.5034
445.9923
445.4542
444.8995
444.3244
443.7082
443.0291
442.2655
441.3772
440.2802
438.7681
436.172
428.9982
488.9928
466.9764
459.4285
455.7087
453.7384
452.6478
452.0062
451.5992
451.3252
451.1358
451.0027
450.9071
450.8365
450.782
450.7377
450.6997
450.6651
450.6322
450.5996
450.5666
450.5326
450.4973
450.4603
450.4214
450.3802
450.3366
450.2902
450.2406
450.1876
450.1307
450.0693
450.0026
449.9297
449.8492
449.7592
449.6576
449.5427
449.4121
449.2634
449.0935
448.899
448.6761
448.4206
448.1281
447.7942
447.415
446.9887
446.5171
446.0069
445.4698
444.9163
444.3421
443.7266
443.0484
442.2859
441.3987
440.303
438.7923
436.1982
429.0263
489.4755
467.3946
459.7925
456.0146
453.9912
452.8587
452.186
451.7574
451.4659
451.2602
451.1122
451.0031
450.9202
450.8547
450.8007
450.754
450.7117
450.672
450.6335
450.5953
450.5569
450.5178
450.4776
450.436
450.3927
450.3473
450.2995
450.2488
450.195
450.1374
450.0753
450.008
449.9347
449.854
449.764
449.6625
449.5479
449.4178
449.2697
449.1006
448.9069
448.6848
448.4302
448.1386
447.8055
447.4272
447.0017
446.5308
446.0215
445.4855
444.9331
444.3599
443.7451
443.0678
442.3062
441.4202
440.3257
438.8165
436.2242
429.054
489.9405
467.8026
460.1474
456.3131
454.2375
453.0629
452.359
451.9081
451.5995
451.3785
451.2165
451.0945
451
450.9241
450.8607
450.8056
450.756
450.7098
450.6656
450.6226
450.5799
450.5372
450.4939
450.4498
450.4044
450.3573
450.3082
450.2566
450.202
450.1437
450.0811
450.0134
449.9398
449.8589
449.7688
449.6675
449.5532
449.4237
449.2762
449.1078
448.9149
448.6937
448.4399
448.1492
447.817
447.4395
447.0148
446.5447
446.0363
445.5012
444.9499
444.3776
443.7636
443.0872
442.3266
441.4416
440.3484
438.8407
436.2501
429.0809
490.5009
468.2037
460.495
456.6049
454.4774
453.2613
452.526
452.052
451.7263
451.4911
451.3157
451.1817
451.0761
450.9902
450.9179
450.8549
450.7982
450.7458
450.6962
450.6484
450.6017
450.5554
450.5093
450.4627
450.4153
450.3667
450.3164
450.2638
450.2084
450.1496
450.0865
450.0185
449.9448
449.8638
449.7738