/*--------------------------------*- C++ -*----------------------------------*\
| =========                 |                                                 |
| \\      /  F ield         | OpenFOAM: The Open Source CFD Toolbox           |
|  \\    /   O peration     | Version:  2312                                  |
|   \\  /    A nd           | Website:  www.openfoam.com                      |
|    \\/     M anipulation  |                                                 |
\*---------------------------------------------------------------------------*/
FoamFile
{
    version     2.0;
    format      ascii;
    arch        "LSB;label=32;scalar=64";
    class       volVectorField;
    location    "5100";
    object      U;
}
// * * * * * * * * * * * * * * * * * * * * * * * * * * * * * * * * * * * * * //

dimensions      [0 1 -1 0 0 0 0];

internalField   nonuniform List<vector> 
12000
(
(-0.02719509 0.06277125 0)
(-0.06225332 0.06007639 0)
(-0.1007708 0.06475307 0)
(-0.1431748 0.06189803 0)
(-0.1818249 0.05612607 0)
(-0.2198787 0.06266969 0)
(-0.2586929 0.07948508 0)
(-0.3020539 0.08126333 0)
(-0.3408817 0.05365915 0)
(-0.3690979 0.02932213 0)
(-0.393816 0.05312748 0)
(-0.4289229 0.0848467 0)
(-0.4662701 0.06606853 0)
(-0.4921839 0.00937774 0)
(-0.5045412 0.005580483 0)
(-0.5253673 0.06439229 0)
(-0.5587329 0.08137018 0)
(-0.5848651 0.01674388 0)
(-0.5912928 -0.02405195 0)
(-0.5986569 0.02562026 0)
(-0.6214824 0.07026841 0)
(-0.6444281 0.02853827 0)
(-0.6499513 -0.02089396 0)
(-0.6518847 -0.000345576 0)
(-0.6633045 0.0386578 0)
(-0.677791 0.02790038 0)
(-0.6842703 -0.00355425 0)
(-0.6855498 -0.00444523 0)
(-0.6893558 0.008105737 0)
(-0.6937523 0.008109633 0)
(-0.6961243 0.005819926 0)
(-0.6989096 0.003204054 0)
(-0.6988353 -0.004551739 0)
(-0.6963848 -0.01536133 0)
(-0.6906356 -0.01336701 0)
(-0.6879652 0.005299429 0)
(-0.6874089 0.01585759 0)
(-0.6858623 -0.009131301 0)
(-0.6750565 -0.04476832 0)
(-0.65866 -0.04644543 0)
(-0.6447222 -0.0008427587 0)
(-0.6432496 0.03606984 0)
(-0.6403819 -0.006887045 0)
(-0.6219551 -0.08323206 0)
(-0.5891947 -0.07504901 0)
(-0.5728689 0.01258039 0)
(-0.5682848 0.05421736 0)
(-0.5605419 -0.03167437 0)
(-0.5259784 -0.1305421 0)
(-0.4820104 -0.06320748 0)
(-0.4653145 0.0299332 0)
(-0.4504395 -0.02282622 0)
(-0.4097876 -0.1121623 0)
(-0.3629572 -0.08637039 0)
(-0.3267207 -0.04407238 0)
(-0.2862189 -0.06266998 0)
(-0.2332153 -0.1050368 0)
(-0.1726095 -0.1051618 0)
(-0.09752122 -0.1052589 0)
(-0.03976499 -0.1005992 0)
(-0.02861217 0.1797806 0)
(-0.05733977 0.1635802 0)
(-0.1015797 0.1669652 0)
(-0.1365538 0.1698524 0)
(-0.1759706 0.1645234 0)
(-0.2122445 0.1581023 0)
(-0.2449184 0.1547812 0)
(-0.2722939 0.1536141 0)
(-0.2978796 0.1419862 0)
(-0.3331969 0.12089 0)
(-0.3622579 0.1208341 0)
(-0.383706 0.1216281 0)
(-0.3983249 0.1153026 0)
(-0.4201436 0.09974719 0)
(-0.4487962 0.09091412 0)
(-0.4694763 0.09111451 0)
(-0.4764189 0.08895965 0)
(-0.4860588 0.07574389 0)
(-0.5081046 0.06408057 0)
(-0.5290404 0.06142212 0)
(-0.5345227 0.06096547 0)
(-0.5370053 0.05296126 0)
(-0.5496029 0.04262413 0)
(-0.5657979 0.03807666 0)
(-0.5717367 0.0366602 0)
(-0.5726073 0.03228525 0)
(-0.5773388 0.02538793 0)
(-0.5850811 0.0197391 0)
(-0.5894501 0.01557615 0)
(-0.5908828 0.01162936 0)
(-0.5914683 0.008846192 0)
(-0.5916062 0.005175605 0)
(-0.5908661 -0.002403611 0)
(-0.5907136 -0.007574525 0)
(-0.5905047 -0.01185391 0)
(-0.5871526 -0.01477213 0)
(-0.578623 -0.01894913 0)
(-0.569286 -0.02604899 0)
(-0.5649385 -0.033872 0)
(-0.5639536 -0.03929203 0)
(-0.5578048 -0.0422718 0)
(-0.540035 -0.04574126 0)
(-0.5187938 -0.05349771 0)
(-0.5101622 -0.06292637 0)
(-0.5083353 -0.07010032 0)
(-0.4961855 -0.07458818 0)
(-0.4637448 -0.07897206 0)
(-0.4309182 -0.0885052 0)
(-0.4211898 -0.09918621 0)
(-0.4148307 -0.109411 0)
(-0.3851482 -0.1194331 0)
(-0.3441733 -0.1322188 0)
(-0.3212572 -0.142433 0)
(-0.303055 -0.1531656 0)
(-0.2757798 -0.1698368 0)
(-0.2192146 -0.2085957 0)
(-0.1939508 -0.2209968 0)
(-0.14274 -0.2717845 0)
(-0.08758913 -0.2954577 0)
(-0.04133588 -0.3059872 0)
(-0.02474439 0.3022783 0)
(-0.04817382 0.282213 0)
(-0.08604004 0.2771026 0)
(-0.1137712 0.2739465 0)
(-0.14445 0.2665323 0)
(-0.1724152 0.2567425 0)
(-0.199861 0.246118 0)
(-0.2242576 0.2330322 0)
(-0.2500035 0.2184613 0)
(-0.2701224 0.2119416 0)
(-0.2985446 0.1924658 0)
(-0.3182784 0.1814951 0)
(-0.3366412 0.1693963 0)
(-0.3538122 0.1562462 0)
(-0.3716514 0.1450617 0)
(-0.3875245 0.1357877 0)
(-0.400666 0.1255224 0)
(-0.4131071 0.113647 0)
(-0.4263981 0.1028753 0)
(-0.4389338 0.0946354 0)
(-0.4489903 0.08675331 0)
(-0.4576916 0.07731626 0)
(-0.4666828 0.06776231 0)
(-0.4753629 0.06004678 0)
(-0.4822804 0.05317452 0)
(-0.4876784 0.04554818 0)
(-0.4925275 0.03740073 0)
(-0.4969044 0.02983086 0)
(-0.5002661 0.02272628 0)
(-0.5024795 0.01545735 0)
(-0.5038642 0.00843578 0)
(-0.504023 0.002897808 0)
(-0.5031624 -0.006569538 0)
(-0.501828 -0.0146579 0)
(-0.4994557 -0.02231529 0)
(-0.4957868 -0.02958128 0)
(-0.4906285 -0.0371269 0)
(-0.4844915 -0.04574423 0)
(-0.4779804 -0.05506653 0)
(-0.470825 -0.06404691 0)
(-0.462178 -0.07227093 0)
(-0.4515953 -0.08075175 0)
(-0.4397015 -0.09081469 0)
(-0.4273632 -0.1021224 0)
(-0.4144338 -0.1128958 0)
(-0.3998247 -0.1230374 0)
(-0.3826316 -0.1342808 0)
(-0.3640363 -0.1466495 0)
(-0.3450127 -0.1602804 0)
(-0.3241335 -0.1729182 0)
(-0.3021664 -0.1827933 0)
(-0.2822917 -0.192472 0)
(-0.252318 -0.2140393 0)
(-0.2299794 -0.2323407 0)
(-0.1908107 -0.2717017 0)
(-0.1642796 -0.2974311 0)
(-0.1293127 -0.332018 0)
(-0.09793475 -0.3727517 0)
(-0.05832338 -0.4216834 0)
(-0.02422692 -0.4424468 0)
(-0.01854941 0.3894683 0)
(-0.04043625 0.3603728 0)
(-0.06842275 0.352235 0)
(-0.09182706 0.3441419 0)
(-0.1158985 0.3333267 0)
(-0.1380595 0.3203046 0)
(-0.1588674 0.3065037 0)
(-0.1810138 0.2922513 0)
(-0.1972611 0.2812954 0)
(-0.2191821 0.2651685 0)
(-0.2339338 0.2550873 0)
(-0.2525058 0.2373081 0)
(-0.2703058 0.2175458 0)
(-0.2864418 0.2019572 0)
(-0.3018073 0.1882893 0)
(-0.3160523 0.1752306 0)
(-0.329322 0.1623204 0)
(-0.3417157 0.1495857 0)
(-0.3534737 0.137288 0)
(-0.3643033 0.125636 0)
(-0.3739501 0.1143905 0)
(-0.382628 0.1032685 0)
(-0.390665 0.09229355 0)
(-0.3979511 0.08168027 0)
(-0.4041959 0.07136278 0)
(-0.409416 0.06114677 0)
(-0.4138119 0.05096954 0)
(-0.4174147 0.04089465 0)
(-0.4199655 0.03092942 0)
(-0.4220644 0.0209474 0)
(-0.4231879 0.01323877 0)
(-0.4231507 0.001889892 0)
(-0.4220609 -0.008770311 0)
(-0.4204516 -0.01916669 0)
(-0.4179112 -0.02956956 0)
(-0.4144695 -0.0400233 0)
(-0.410027 -0.05079883 0)
(-0.4046168 -0.06191308 0)
(-0.3983751 -0.07336263 0)
(-0.3912848 -0.08507645 0)
(-0.3831681 -0.09706311 0)
(-0.3738596 -0.1094447 0)
(-0.3634498 -0.1223739 0)
(-0.3519216 -0.1359845 0)
(-0.3398583 -0.1498499 0)
(-0.3267589 -0.1646623 0)
(-0.3119921 -0.180629 0)
(-0.2963597 -0.1972262 0)
(-0.279615 -0.2142795 0)
(-0.2612357 -0.2292348 0)
(-0.245576 -0.2420284 0)
(-0.2189861 -0.2715848 0)
(-0.1958372 -0.2981372 0)
(-0.1694879 -0.3250446 0)
(-0.1448036 -0.3516001 0)
(-0.1204549 -0.3806462 0)
(-0.09444463 -0.4155635 0)
(-0.06890396 -0.4586789 0)
(-0.04086094 -0.5086334 0)
(-0.01621833 -0.534446 0)
(-0.01398933 0.4662111 0)
(-0.03336384 0.4325741 0)
(-0.05558712 0.4204493 0)
(-0.07531227 0.4090516 0)
(-0.09511781 0.3955078 0)
(-0.113805 0.3799125 0)
(-0.1318729 0.3630904 0)
(-0.1495158 0.3452962 0)
(-0.1655073 0.3278783 0)
(-0.1812073 0.3094956 0)
(-0.1953487 0.2922977 0)
(-0.2089376 0.2779253 0)
(-0.2205604 0.2647548 0)
(-0.2354992 0.2454398 0)
(-0.2483882 0.2276201 0)
(-0.2599856 0.2133071 0)
(-0.2722764 0.196977 0)
(-0.2818144 0.1828966 0)
(-0.2920327 0.1671003 0)
(-0.3011192 0.1526267 0)
(-0.3094221 0.1386839 0)
(-0.3169165 0.1250849 0)
(-0.3236716 0.1117646 0)
(-0.329679 0.09871373 0)
(-0.3349038 0.0858815 0)
(-0.339342 0.07319146 0)
(-0.3430221 0.06059586 0)
(-0.3459141 0.04807205 0)
(-0.3481662 0.03558004 0)
(-0.3495218 0.02556069 0)
(-0.3500652 0.01225131 0)
(-0.3495991 -0.0004975303 0)
(-0.3486842 -0.01325429 0)
(-0.3469718 -0.0259848 0)
(-0.3443539 -0.0388166 0)
(-0.3411936 -0.05170833 0)
(-0.3373511 -0.06500018 0)
(-0.3324961 -0.07865539 0)
(-0.3268179 -0.09262971 0)
(-0.3203042 -0.1069556 0)
(-0.312939 -0.1216849 0)
(-0.3046837 -0.1369085 0)
(-0.2957692 -0.1527405 0)
(-0.2852236 -0.1692713 0)
(-0.2753328 -0.1834255 0)
(-0.2630322 -0.202456 0)
(-0.2505234 -0.2214402 0)
(-0.237285 -0.238717 0)
(-0.2245837 -0.2548623 0)
(-0.2089987 -0.2761333 0)
(-0.190008 -0.3036434 0)
(-0.1714154 -0.3300792 0)
(-0.1532957 -0.3553157 0)
(-0.1346507 -0.3817919 0)
(-0.1153051 -0.4110673 0)
(-0.09507258 -0.4438573 0)
(-0.07403593 -0.4811831 0)
(-0.05325895 -0.5244786 0)
(-0.03151921 -0.5762134 0)
(-0.01170793 -0.6056535 0)
(-0.01068668 0.5255626 0)
(-0.02689876 0.4886202 0)
(-0.04418033 0.4729856 0)
(-0.05991231 0.4590444 0)
(-0.0754678 0.4435697 0)
(-0.0902474 0.4264386 0)
(-0.1046229 0.4081892 0)
(-0.1185807 0.3892217 0)
(-0.131986 0.370138 0)
(-0.1449652 0.3508956 0)
(-0.1576127 0.3318199 0)
(-0.1691966 0.3129352 0)
(-0.181048 0.2946567 0)
(-0.1894556 0.2794082 0)
(-0.2012062 0.2601423 0)
(-0.2108885 0.241962 0)
(-0.2201673 0.2247241 0)
(-0.2287264 0.2078483 0)
(-0.2368177 0.1912812 0)
(-0.2443712 0.1750842 0)
(-0.251291 0.1592534 0)
(-0.2575683 0.1437329 0)
(-0.2632041 0.1284826 0)
(-0.2681941 0.1134701 0)
(-0.2725308 0.09866167 0)
(-0.2762129 0.08402223 0)
(-0.2792473 0.06952335 0)
(-0.2816304 0.05514249 0)
(-0.2834597 0.04084515 0)
(-0.2843594 0.02666504 0)
(-0.2843443 0.01237587 0)
(-0.2841356 -0.002031233 0)
(-0.2834546 -0.01675777 0)
(-0.2820188 -0.03169354 0)
(-0.2797488 -0.04686152 0)
(-0.277135 -0.05987214 0)
(-0.2734705 -0.07610968 0)
(-0.2693322 -0.09218656 0)
(-0.2644534 -0.1083873 0)
(-0.258911 -0.1248758 0)
(-0.2526812 -0.1417471 0)
(-0.2457597 -0.1590704 0)
(-0.238153 -0.176903 0)
(-0.2299415 -0.1952006 0)
(-0.2208715 -0.2143902 0)
(-0.2104605 -0.2342767 0)
(-0.2007914 -0.252899 0)
(-0.1901668 -0.2730094 0)
(-0.1766376 -0.2978233 0)
(-0.1627779 -0.3237325 0)
(-0.1484735 -0.3496686 0)
(-0.1343194 -0.3759289 0)
(-0.1196267 -0.4033518 0)
(-0.1042296 -0.4325666 0)
(-0.08824807 -0.4638644 0)
(-0.07191722 -0.497811 0)
(-0.05544374 -0.5353377 0)
(-0.03931668 -0.5780083 0)
(-0.02306332 -0.6272576 0)
(-0.008325907 -0.6563617 0)
(-0.008262242 0.5736295 0)
(-0.02163256 0.5340381 0)
(-0.03513776 0.5152313 0)
(-0.04756203 0.499034 0)
(-0.05971911 0.4818053 0)
(-0.07128756 0.4632414 0)
(-0.08253627 0.4437118 0)
(-0.09345568 0.4235816 0)
(-0.1040563 0.4032229 0)
(-0.1143376 0.3828398 0)
(-0.1243152 0.3626498 0)
(-0.1339339 0.342756 0)
(-0.1429367 0.3229627 0)
(-0.1523504 0.3036553 0)
(-0.1588453 0.2868627 0)
(-0.1677827 0.2673956 0)
(-0.1751661 0.2482766 0)
(-0.1823672 0.2297269 0)
(-0.189005 0.2115312 0)
(-0.1951545 0.1936937 0)
(-0.2007838 0.1761786 0)
(-0.205886 0.1589534 0)
(-0.210455 0.1419861 0)
(-0.2144867 0.1252464 0)
(-0.2179776 0.108703 0)
(-0.2209257 0.09232368 0)
(-0.2233299 0.07607526 0)
(-0.2251858 0.05992226 0)
(-0.2264975 0.04382312 0)
(-0.2272473 0.02776799 0)
(-0.2273446 0.01157644 0)
(-0.2271574 -0.002584757 0)
(-0.2265826 -0.01941893 0)
(-0.2253898 -0.03610539 0)
(-0.223766 -0.05276919 0)
(-0.2213546 -0.06957646 0)
(-0.2182436 -0.08677504 0)
(-0.214803 -0.1042559 0)
(-0.210826 -0.1220804 0)
(-0.206314 -0.140295 0)
(-0.2012424 -0.1589531 0)
(-0.1955945 -0.1781026 0)
(-0.1893537 -0.1977799 0)
(-0.1826831 -0.2180831 0)
(-0.1747512 -0.2387164 0)
(-0.1676623 -0.2586702 0)
(-0.1586599 -0.2811562 0)
(-0.1482746 -0.3064598 0)
(-0.1378671 -0.3319478 0)
(-0.127106 -0.3578614 0)
(-0.1161352 -0.3846805 0)
(-0.1047815 -0.4124507 0)
(-0.09299246 -0.4413266 0)
(-0.08083546 -0.4715612 0)
(-0.06840293 -0.5035134 0)
(-0.05579211 -0.5377173 0)
(-0.04308956 -0.5750576 0)
(-0.030603 -0.6171294 0)
(-0.0180704 -0.6659507 0)
(-0.006383172 -0.6958529 0)
(-0.006433051 0.6123586 0)
(-0.01718806 0.5704549 0)
(-0.02746163 0.5485493 0)
(-0.03696705 0.5302221 0)
(-0.04620919 0.5114945 0)
(-0.05505566 0.4918499 0)
(-0.06370109 0.471476 0)
(-0.07214912 0.4506352 0)
(-0.08041286 0.4295786 0)
(-0.08847839 0.4084722 0)
(-0.096322 0.3874377 0)
(-0.1039031 0.3665478 0)
(-0.1112117 0.3458348 0)
(-0.1180292 0.325246 0)
(-0.125218 0.3051509 0)
(-0.129965 0.2869777 0)
(-0.1366033 0.2669464 0)
(-0.1420268 0.2470773 0)
(-0.1473444 0.2276527 0)
(-0.1522208 0.2085393 0)
(-0.1566989 0.1897211 0)
(-0.1607591 0.1711695 0)
(-0.164396 0.1528602 0)
(-0.1676046 0.1347681 0)
(-0.1703826 0.1168663 0)
(-0.1727297 0.09912595 0)
(-0.1746465 0.08151617 0)
(-0.1761343 0.06400367 0)
(-0.177197 0.04655095 0)
(-0.1778343 0.02912107 0)
(-0.1780649 0.01166801 0)
(-0.1778471 -0.00403853 0)
(-0.1771663 -0.02201173 0)
(-0.1761498 -0.03998227 0)
(-0.174719 -0.058031 0)
(-0.1728487 -0.07621164 0)
(-0.1705503 -0.09471903 0)
(-0.1678465 -0.1135433 0)
(-0.1647159 -0.132744 0)
(-0.1611523 -0.1523712 0)
(-0.1571436 -0.1724775 0)
(-0.1526585 -0.1931085 0)
(-0.1478699 -0.2143186 0)
(-0.1419846 -0.2360651 0)
(-0.1368918 -0.2576861 0)
(-0.1295731 -0.2816872 0)
(-0.1222679 -0.3067174 0)
(-0.1144408 -0.3323045 0)
(-0.106478 -0.3584837 0)
(-0.09816995 -0.3854237 0)
(-0.08953009 -0.4131862 0)
(-0.08057746 -0.4418699 0)
(-0.07133556 -0.4716252 0)
(-0.06184452 -0.5026624 0)
(-0.05216169 -0.5352821 0)
(-0.04236598 -0.569955 0)
(-0.03254281 -0.607458 0)
(-0.02289775 -0.6491451 0)
(-0.01342511 -0.6965002 0)
(-0.004650561 -0.7255479 0)
(-0.004975512 0.6425436 0)
(-0.01338427 0.5982534 0)
(-0.02107503 0.573543 0)
(-0.02820084 0.5535306 0)
(-0.03508195 0.53379 0)
(-0.04166762 0.5134948 0)
(-0.04810292 0.4926446 0)
(-0.05440388 0.4713852 0)
(-0.06058813 0.4498835 0)
(-0.06664834 0.4282788 0)
(-0.07256853 0.4066777 0)
(-0.07832683 0.385149 0)
(-0.08390566 0.363738 0)
(-0.08929999 0.3424854 0)
(-0.09430448 0.3213472 0)
(-0.09964798 0.3006366 0)
(-0.1030185 0.2813472 0)
(-0.10786 0.2608407 0)
(-0.1117443 0.2404038 0)
(-0.1155534 0.2203005 0)
(-0.1190174 0.2004458 0)
(-0.1221671 0.180833 0)
(-0.1249883 0.1614453 0)
(-0.1274785 0.142266 0)
(-0.1296361 0.123275 0)
(-0.131462 0.1044492 0)
(-0.1329584 0.08576165 0)
(-0.1341288 0.06718211 0)
(-0.1349772 0.04867689 0)
(-0.1355053 0.03020946 0)
(-0.1357391 0.01173999 0)
(-0.1355872 -0.005292228 0)
(-0.1350581 -0.02414627 0)
(-0.1342926 -0.04307296 0)
(-0.1332227 -0.06213513 0)
(-0.1318403 -0.08139729 0)
(-0.1301402 -0.1009327 0)
(-0.1281252 -0.1207982 0)
(-0.1257861 -0.1410556 0)
(-0.1231151 -0.1617639 0)
(-0.120095 -0.1829807 0)
(-0.1167437 -0.2047526 0)
(-0.1128316 -0.2271711 0)
(-0.108987 -0.2500434 0)
(-0.1038851 -0.2743676 0)
(-0.0987975 -0.2994069 0)
(-0.09330856 -0.3250261 0)
(-0.08756692 -0.3513992 0)
(-0.08152037 -0.3784933 0)
(-0.07516291 -0.4063418 0)
(-0.06851259 -0.4349817 0)
(-0.06159617 -0.4644658 0)
(-0.05445237 -0.4948851 0)
(-0.04713102 -0.5263953 0)
(-0.03969121 -0.5592517 0)
(-0.03220201 -0.593884 0)
(-0.0247329 -0.6310428 0)
(-0.01741966 -0.6720896 0)
(-0.01026485 -0.7186657 0)
(-0.003532447 -0.7478096 0)
(-0.003390851 0.6666593 0)
(-0.009956833 0.6200617 0)
(-0.01582332 0.592843 0)
(-0.02091776 0.5711867 0)
(-0.02574803 0.5503531 0)
(-0.03038295 0.5293327 0)
(-0.03494011 0.5079793 0)
(-0.03944404 0.4863503 0)
(-0.04390606 0.4645418 0)
(-0.04831378 0.4426415 0)
(-0.05264621 0.4207229 0)
(-0.05687944 0.3988361 0)
(-0.06099289 0.3770154 0)
(-0.06497056 0.3552909 0)
(-0.06880837 0.3336937 0)
(-0.07233271 0.312182 0)
(-0.07614942 0.2910245 0)
(-0.07841007 0.2708801 0)
(-0.08178752 0.2499759 0)
(-0.08442654 0.2291072 0)
(-0.08703059 0.2084988 0)
(-0.08938373 0.1880966 0)
(-0.09150005 0.1679066 0)
(-0.09337069 0.1479208 0)
(-0.09499495 0.1281253 0)
(-0.09637433 0.1085012 0)
(-0.09751184 0.08902514 0)
(-0.09841169 0.0696672 0)
(-0.09907825 0.05039315 0)
(-0.09951163 0.03116484 0)
(-0.09974065 0.01194112 0)
(-0.09966379 -0.00619271 0)
(-0.09929375 -0.02569212 0)
(-0.09875809 -0.04530463 0)
(-0.09800515 -0.06508615 0)
(-0.09703238 -0.08509569 0)
(-0.09583048 -0.1053981 0)
(-0.09439212 -0.1260565 0)
(-0.09270805 -0.1471369 0)
(-0.09077051 -0.1687087 0)
(-0.08855364 -0.1908461 0)
(-0.08616493 -0.213637 0)
(-0.0832122 -0.2371643 0)
(-0.0804071 -0.2613133 0)
(-0.07698336 -0.2863386 0)
(-0.07342739 -0.3120832 0)
(-0.06954834 -0.3385918 0)
(-0.06536735 -0.3658358 0)
(-0.06088734 -0.3937949 0)
(-0.05612451 -0.4224584 0)
(-0.05110892 -0.4518259 0)
(-0.04587883 -0.4819292 0)
(-0.04047785 -0.5128526 0)
(-0.03495372 -0.5447453 0)
(-0.02935781 -0.5778579 0)
(-0.02374215 -0.6126138 0)
(-0.01816154 -0.6497358 0)
(-0.01270487 -0.690488 0)
(-0.007434847 -0.7362603 0)
(-0.002511855 -0.7647996 0)
(-0.002407227 0.685513 0)
(-0.007071042 0.6358083 0)
(-0.0111802 0.6058978 0)
(-0.01460984 0.5828415 0)
(-0.01785712 0.5614137 0)
(-0.02096162 0.5402038 0)
(-0.02401115 0.5188415 0)
(-0.02701434 0.4972384 0)
(-0.02997839 0.4754071 0)
(-0.03289892 0.4533946 0)
(-0.03578639 0.4312602 0)
(-0.03865971 0.4090744 0)
(-0.04151544 0.3869003 0)
(-0.0443332 0.3647829 0)
(-0.04709029 0.3427557 0)
(-0.04977099 0.3208477 0)
(-0.05221692 0.2990228 0)
(-0.05490649 0.2775091 0)
(-0.05637817 0.2567403 0)
(-0.05865778 0.2356156 0)
(-0.06033626 0.214532 0)
(-0.06198304 0.1935925 0)
(-0.06343314 0.1728234 0)
(-0.06471338 0.1522418 0)
(-0.06583106 0.1318488 0)
(-0.06679427 0.1116337 0)
(-0.0676078 0.09157799 0)
(-0.06827629 0.07165386 0)
(-0.06880307 0.05182676 0)
(-0.06918571 0.03205692 0)
(-0.06945225 0.01229989 0)
(-0.06950333 -0.006687267 0)
(-0.06935255 -0.02664661 0)
(-0.0691039 -0.04674244 0)
(-0.06871845 -0.06703132 0)
(-0.06819371 -0.08757251 0)
(-0.06752097 -0.1084286 0)
(-0.06669231 -0.1296634 0)
(-0.06569903 -0.1513402 0)
(-0.06453169 -0.1735191 0)
(-0.06318576 -0.1962523 0)
(-0.0616299 -0.219593 0)
(-0.05995254 -0.2434836 0)
(-0.0579705 -0.2683091 0)
(-0.05579053 -0.2941584 0)
(-0.0533699 -0.320775 0)
(-0.05068411 -0.3481266 0)
(-0.04771249 -0.3762019 0)
(-0.04445999 -0.4049486 0)
(-0.04095658 -0.4343195 0)
(-0.03724327 -0.4642896 0)
(-0.03336574 -0.4948762 0)
(-0.02936958 -0.5261402 0)
(-0.02530006 -0.5582179 0)
(-0.02119948 -0.591359 0)
(-0.01711046 -0.625979 0)
(-0.01307384 -0.6627927 0)
(-0.009146283 -0.7030597 0)
(-0.005372532 -0.7482001 0)
(-0.001822291 -0.7767035 0)
(-0.002193122 0.6985568 0)
(-0.005849088 0.6470841 0)
(-0.00824216 0.6153889 0)
(-0.01051231 0.5913113 0)
(-0.01240648 0.5691191 0)
(-0.01416984 0.5473335 0)
(-0.0158545 0.5254976 0)
(-0.01752789 0.5035023 0)
(-0.01921732 0.481371 0)
(-0.0209391 0.4591735 0)
(-0.02267171 0.4370935 0)
(-0.02441898 0.4151308 0)
(-0.02616126 0.393157 0)
(-0.02788825 0.3711644 0)
(-0.02958317 0.3491455 0)
(-0.0312335 0.3271042 0)
(-0.03284836 0.3050665 0)
(-0.03430665 0.2830172 0)
(-0.03588281 0.2611667 0)
(-0.03678418 0.2396973 0)
(-0.03790713 0.2181689 0)
(-0.03885903 0.1967851 0)
(-0.03976708 0.1755919 0)
(-0.04059765 0.1546527 0)
(-0.04133956 0.1339651 0)
(-0.04199388 0.1134804 0)
(-0.04256455 0.09317354 0)
(-0.04305862 0.07300549 0)
(-0.04348141 0.05293259 0)
(-0.04383249 0.03291284 0)
(-0.04414104 0.01290057 0)
(-0.04432019 -0.006637174 0)
(-0.04438166 -0.02682705 0)
(-0.04440715 -0.0471727 0)
(-0.04436528 -0.06773268 0)
(-0.04425313 -0.08856732 0)
(-0.04406266 -0.1097407 0)
(-0.04378572 -0.131319 0)
(-0.04341323 -0.1533705 0)
(-0.04293217 -0.175964 0)
(-0.04234247 -0.1991669 0)
(-0.04151842 -0.2230398 0)
(-0.04080025 -0.2476441 0)
(-0.03939639 -0.2731941 0)
(-0.03817333 -0.2994386 0)
(-0.03678989 -0.3265565 0)
(-0.03503232 -0.3546876 0)
(-0.03308426 -0.3835647 0)
(-0.03086194 -0.4130392 0)
(-0.02840603 -0.4430174 0)
(-0.02577379 -0.4734499 0)
(-0.02302728 -0.5043644 0)
(-0.02020919 -0.5358436 0)
(-0.01735645 -0.5680421 0)
(-0.01449902 -0.6012199 0)
(-0.01166376 -0.6358072 0)
(-0.008877585 -0.6725197 0)
(-0.006173147 -0.7125876 0)
(-0.003598625 -0.7573254 0)
(-0.001194683 -0.7855916 0)
(-0.001161663 0.7098327 0)
(-0.002945226 0.6554787 0)
(-0.004411677 0.6211163 0)
(-0.004675658 0.5953433 0)
(-0.005120509 0.5724374 0)
(-0.005436668 0.5504876 0)
(-0.005853366 0.5288487 0)
(-0.006376986 0.5072465 0)
(-0.007059278 0.4855627 0)
(-0.007727263 0.4637204 0)
(-0.008832873 0.4415992 0)
(-0.009650259 0.4193063 0)
(-0.01061513 0.3969797 0)
(-0.01159646 0.3746437 0)
(-0.01262037 0.3523144 0)
(-0.01364172 0.3300846 0)
(-0.01459645 0.307968 0)
(-0.01542178 0.28582 0)
(-0.01620976 0.2636571 0)
(-0.01669593 0.2418129 0)
(-0.0173177 0.220348 0)
(-0.01789292 0.1990881 0)
(-0.01847442 0.1779553 0)
(-0.0191631 0.156895 0)
(-0.01972308 0.1359629 0)
(-0.02028451 0.1152296 0)
(-0.02081618 0.09469069 0)
(-0.02133365 0.07431858 0)
(-0.0218387 0.05407386 0)
(-0.022318 0.03391476 0)
(-0.02279614 0.01379064 0)
(-0.02319632 -0.00608701 0)
(-0.02354147 -0.0263549 0)
(-0.02388618 -0.04680095 0)
(-0.02420795 -0.06747764 0)
(-0.02450044 -0.08844625 0)
(-0.02475698 -0.1097745 0)
(-0.02497083 -0.1315309 0)
(-0.02513524 -0.1537878 0)
(-0.02524228 -0.1766227 0)
(-0.02528122 -0.2001207 0)
(-0.02524105 -0.2243618 0)
(-0.02504234 -0.2494624 0)
(-0.02485097 -0.2753577 0)
(-0.02445811 -0.3021354 0)
(-0.02359002 -0.3299961 0)
(-0.02271624 -0.3586932 0)
(-0.0216069 -0.3881565 0)
(-0.02008836 -0.4183445 0)
(-0.01842683 -0.4488934 0)
(-0.01664534 -0.4796882 0)
(-0.01482366 -0.5108088 0)
(-0.01297114 -0.5423817 0)
(-0.01111081 -0.5745861 0)
(-0.00926113 -0.6076956 0)
(-0.007437372 -0.6421403 0)
(-0.005655099 -0.6786376 0)
(-0.003933137 -0.7184118 0)
(-0.002300045 -0.7627744 0)
(-0.0007774898 -0.7910366 0)
(-0.0005210486 0.7159495 0)
(-0.002032678 0.6584633 0)
(-0.002012016 0.6218438 0)
(-0.00217255 0.5952678 0)
(-0.00164714 0.5721628 0)
(-0.001166216 0.5502034 0)
(-0.0005781842 0.5286122 0)
(6.080593e-05 0.5070493 0)
(0.0006877184 0.4854362 0)
(0.001235985 0.4637688 0)
(0.001872786 0.442099 0)
(0.00206973 0.4203458 0)
(0.002131578 0.398628 0)
(0.001914138 0.3769634 0)
(0.001565615 0.3551826 0)
(0.0008998493 0.3329798 0)
(0.0003859127 0.3103873 0)
(-0.0002272591 0.2876952 0)
(-0.0007655025 0.2651382 0)
(-0.001455672 0.2430097 0)
(-0.001854176 0.2214076 0)
(-0.00219246 0.2000955 0)
(-0.002479636 0.1789637 0)
(-0.002576635 0.1579812 0)
(-0.002887239 0.1371312 0)
(-0.003188579 0.1164954 0)
(-0.003559683 0.09612302 0)
(-0.003977081 0.07590955 0)
(-0.004435746 0.05573992 0)
(-0.004928857 0.03560336 0)
(-0.005472553 0.01547868 0)
(-0.006028953 -0.004600507 0)
(-0.006581784 -0.02485139 0)
(-0.007191759 -0.04529805 0)
(-0.007816204 -0.06600978 0)
(-0.008435387 -0.0870392 0)
(-0.009051645 -0.1084456 0)
(-0.009654912 -0.1302954 0)
(-0.01024236 -0.1526613 0)
(-0.01081669 -0.175624 0)
(-0.01137437 -0.1992743 0)
(-0.01190529 -0.2237005 0)
(-0.01238661 -0.2489747 0)
(-0.01279914 -0.2752501 0)
(-0.01303027 -0.3026838 0)
(-0.01319025 -0.3311688 0)
(-0.01304567 -0.3606759 0)
(-0.01237052 -0.3911881 0)
(-0.01163941 -0.4220418 0)
(-0.01070756 -0.4527913 0)
(-0.009562992 -0.4836487 0)
(-0.008434247 -0.5148137 0)
(-0.007338003 -0.5464096 0)
(-0.006258606 -0.5786144 0)
(-0.00520108 -0.6117022 0)
(-0.004164144 -0.6461117 0)
(-0.003152376 -0.6825607 0)
(-0.002175355 -0.7222621 0)
(-0.001255762 -0.7664919 0)
(-0.0004144136 -0.7948125 0)
(-0.0004724205 0.7216365 0)
(-0.0006580453 0.6607075 0)
(-0.0007261896 0.6217744 0)
(8.514585e-05 0.5943252 0)
(0.001148221 0.570352 0)
(0.002339561 0.5478209 0)
(0.003597869 0.52587 0)
(0.004813115 0.5042051 0)
(0.006014964 0.4826787 0)
(0.007035884 0.4612886 0)
(0.008090895 0.4399458 0)
(0.009002949 0.4187074 0)
(0.009804022 0.39759 0)
(0.01046321 0.3764244 0)
(0.01098823 0.3549272 0)
(0.01154825 0.333127 0)
(0.01170911 0.311152 0)
(0.01174445 0.289099 0)
(0.01163974 0.2670143 0)
(0.0113074 0.2448577 0)
(0.01106634 0.2227403 0)
(0.01078486 0.2009194 0)
(0.0105346 0.1794631 0)
(0.01022635 0.1584152 0)
(0.009979627 0.1377294 0)
(0.009682036 0.1172739 0)
(0.009363752 0.09698901 0)
(0.009015062 0.07683455 0)
(0.008631685 0.05678177 0)
(0.008199493 0.03682473 0)
(0.007708121 0.01693625 0)
(0.00716087 -0.002992933 0)
(0.006496945 -0.02301702 0)
(0.005730389 -0.04335111 0)
(0.004915806 -0.06398219 0)
(0.004051053 -0.08496645 0)
(0.003156807 -0.106351 0)
(0.002234962 -0.1281899 0)
(0.001292116 -0.150538 0)
(0.0003360589 -0.1734545 0)
(-0.000624724 -0.1970698 0)
(-0.001578768 -0.2215404 0)
(-0.00249973 -0.2469754 0)
(-0.003358731 -0.2734953 0)
(-0.004130793 -0.3012523 0)
(-0.004783959 -0.3303836 0)
(-0.005208737 -0.3607668 0)
(-0.005512549 -0.3919174 0)
(-0.005483327 -0.4234454 0)
(-0.004982036 -0.4550362 0)
(-0.004505284 -0.4861753 0)
(-0.003903558 -0.5172043 0)
(-0.003362681 -0.5486552 0)
(-0.002846152 -0.5807358 0)
(-0.002343317 -0.6137372 0)
(-0.001846634 -0.648074 0)
(-0.001372727 -0.6844351 0)
(-0.0009271313 -0.7240136 0)
(-0.0005260212 -0.7680736 0)
(-0.0001909864 -0.796427 0)
(-0.0002065183 0.7250927 0)
(-0.0001878462 0.6606706 0)
(0.0004261868 0.6202648 0)
(0.001874891 0.5911182 0)
(0.003562924 0.5665432 0)
(0.005383453 0.543828 0)
(0.007211262 0.5219326 0)
(0.008991845 0.500415 0)
(0.01070014 0.4790691 0)
(0.01230567 0.4577917 0)
(0.01379982 0.4365909 0)
(0.01514728 0.41555 0)
(0.01632292 0.3946856 0)
(0.01734957 0.3737931 0)
(0.01814418 0.3527151 0)
(0.0188198 0.3314296 0)
(0.01941558 0.3099187 0)
(0.01993932 0.2882169 0)
(0.02033265 0.266418 0)
(0.02081262 0.2446237 0)
(0.02097013 0.2230075 0)
(0.02100015 0.2016008 0)
(0.02096226 0.1804107 0)
(0.02082118 0.1594456 0)
(0.02061614 0.1387244 0)
(0.02034543 0.1182709 0)
(0.02000824 0.09805783 0)
(0.01959874 0.07802199 0)
(0.01911515 0.05810033 0)
(0.0185607 0.03825739 0)
(0.01794396 0.01848457 0)
(0.01725087 -0.001201874 0)
(0.01643226 -0.02075254 0)
(0.01545974 -0.0407947 0)
(0.01439161 -0.0612363 0)
(0.0132507 -0.08205983 0)
(0.01204998 -0.1033019 0)
(0.01079975 -0.1250226 0)
(0.009510941 -0.1472965 0)
(0.008202843 -0.170212 0)
(0.006893086 -0.1938762 0)
(0.005601577 -0.2184155 0)
(0.004345935 -0.243966 0)
(0.003153616 -0.270672 0)
(0.002051657 -0.2986708 0)
(0.001057913 -0.3280482 0)
(0.0001891812 -0.3587887 0)
(-0.0005203549 -0.3906999 0)
(-0.0009778315 -0.4232053 0)
(-0.001289525 -0.4554167 0)
(-0.001301974 -0.4868511 0)
(-0.00121456 -0.5179772 0)
(-0.001095035 -0.549478 0)
(-0.000882841 -0.5816252 0)
(-0.0007327214 -0.6146437 0)
(-0.0005600094 -0.6489706 0)
(-0.0004009363 -0.6852976 0)
(-0.000258714 -0.724821 0)
(-0.0001420129 -0.7688258 0)
(-5.451356e-05 -0.7973754 0)
(-2.520089e-05 0.7277373 0)
(0.0001813551 0.6599413 0)
(0.001385858 0.616653 0)
(0.003256451 0.5863151 0)
(0.00541046 0.561099 0)
(0.007699105 0.5380973 0)
(0.01001517 0.5161565 0)
(0.01229759 0.4947621 0)
(0.01449926 0.4736774 0)
(0.01657859 0.4528027 0)
(0.0184983 0.4321181 0)
(0.02023685 0.4116504 0)
(0.02177134 0.3914315 0)
(0.02310213 0.3711967 0)
(0.02424931 0.350577 0)
(0.02524001 0.329503 0)
(0.02609676 0.3080882 0)
(0.0268269 0.2864958 0)
(0.02744854 0.2649038 0)
(0.02785493 0.2434799 0)
(0.02826037 0.2221988 0)
(0.02849262 0.2010902 0)
(0.02859795 0.1802026 0)
(0.02856469 0.1595748 0)
(0.02839707 0.1392135 0)
(0.0281007 0.1190985 0)
(0.02768414 0.0991889 0)
(0.02715577 0.07943253 0)
(0.02652233 0.05977858 0)
(0.02579124 0.04019224 0)
(0.02497187 0.0206689 0)
(0.02406113 0.001259621 0)
(0.02303983 -0.01788417 0)
(0.02186592 -0.03757285 0)
(0.02057675 -0.05773171 0)
(0.01920027 -0.07834448 0)
(0.01776061 -0.0994268 0)
(0.01627594 -0.1210251 0)
(0.01476243 -0.1432121 0)
(0.01323776 -0.1660843 0)
(0.01172184 -0.1897635 0)
(0.01023631 -0.2143892 0)
(0.008804524 -0.2401075 0)
(0.007451489 -0.2670662 0)
(0.006201467 -0.2953986 0)
(0.005076761 -0.3251768 0)
(0.00409516 -0.356336 0)
(0.003266139 -0.3886055 0)
(0.002595367 -0.4214806 0)
(0.002100372 -0.4542861 0)
(0.001798265 -0.4863911 0)
(0.001590459 -0.5178688 0)
(0.001436124 -0.5494567 0)
(0.001164138 -0.5816475 0)
(0.0009808881 -0.6146862 0)
(0.0007741869 -0.6490201 0)
(0.0005852776 -0.6853487 0)
(0.0004023228 -0.7248686 0)
(0.0002218878 -0.7688686 0)
(4.754384e-05 -0.7974403 0)
(1.617148e-05 0.7296608 0)
(0.0005842279 0.6578554 0)
(0.002043713 0.612158 0)
(0.004182542 0.5805257 0)
(0.006661674 0.5546251 0)
(0.009272751 0.5313201 0)
(0.01192005 0.5093236 0)
(0.01453239 0.4880488 0)
(0.01705792 0.467219 0)
(0.01945666 0.4467086 0)
(0.02169797 0.4264729 0)
(0.02376423 0.40651 0)
(0.02564276 0.3867951 0)
(0.0273375 0.3670394 0)
(0.02885007 0.3469273 0)
(0.03016648 0.3264159 0)
(0.03128179 0.305585 0)
(0.03219508 0.284555 0)
(0.03292016 0.2634408 0)
(0.03346894 0.242346 0)
(0.03384563 0.2214181 0)
(0.03406578 0.2007441 0)
(0.03411978 0.1802985 0)
(0.0340153 0.1600866 0)
(0.03375425 0.1401121 0)
(0.03334345 0.1203618 0)
(0.03279198 0.1007986 0)
(0.03210927 0.08136875 0)
(0.03130484 0.06201516 0)
(0.03038849 0.0426971 0)
(0.02936931 0.02341845 0)
(0.02824834 0.004277252 0)
(0.02708719 -0.01448663 0)
(0.02578883 -0.03380682 0)
(0.02433137 -0.05367633 0)
(0.02279321 -0.07408126 0)
(0.02120281 -0.09502226 0)
(0.01957936 -0.1165378 0)
(0.01794129 -0.1387006 0)
(0.01630785 -0.1616096 0)
(0.01469904 -0.1853852 0)
(0.01313472 -0.2101637 0)
(0.01163455 -0.2360918 0)
(0.01021781 -0.263316 0)
(0.008901932 -0.291964 0)
(0.007701489 -0.322107 0)
(0.006629884 -0.3536953 0)
(0.005702503 -0.3864688 0)
(0.004935132 -0.4198765 0)
(0.004334288 -0.4531234 0)
(0.003893336 -0.4854893 0)
(0.003530126 -0.516971 0)
(0.003181361 -0.5484064 0)
(0.002799327 -0.580525 0)
(0.002408488 -0.6135843 0)
(0.002007672 -0.6479549 0)
(0.001593239 -0.6843126 0)
(0.001161922 -0.7238401 0)
(0.0007021819 -0.7678456 0)
(0.0002194057 -0.7966416 0)
(3.100348e-05 0.7312248 0)
(0.0007669373 0.6552184 0)
(0.002378455 0.606977 0)
(0.004711285 0.5739925 0)
(0.007404906 0.5473766 0)
(0.01023494 0.5237513 0)
(0.01310604 0.5017033 0)
(0.01593986 0.480573 0)
(0.01868326 0.4600318 0)
(0.02129658 0.4399152 0)
(0.02375173 0.4201432 0)
(0.02603872 0.4006768 0)
(0.02814543 0.3814848 0)
(0.0300672 0.3622795 0)
(0.03179386 0.342735 0)
(0.03329962 0.3227972 0)
(0.03458168 0.3025349 0)
(0.03563897 0.2820676 0)
(0.03646923 0.2615273 0)
(0.03709367 0.241034 0)
(0.0374551 0.2206754 0)
(0.03769368 0.2004674 0)
(0.03769865 0.1804851 0)
(0.03753457 0.1607443 0)
(0.03718974 0.1412344 0)
(0.03667651 0.1219254 0)
(0.0360068 0.1027718 0)
(0.03519374 0.08371935 0)
(0.03425009 0.06471572 0)
(0.0331878 0.04572599 0)
(0.03201725 0.02674824 0)
(0.03075232 0.007821157 0)