/*--------------------------------*- C++ -*----------------------------------*\
| =========                 |                                                 |
| \\      /  F ield         | OpenFOAM: The Open Source CFD Toolbox           |
|  \\    /   O peration     | Version:  2312                                  |
|   \\  /    A nd           | Website:  www.openfoam.com                      |
|    \\/     M anipulation  |                                                 |
\*---------------------------------------------------------------------------*/
FoamFile
{
    version     2.0;
    format      ascii;
    arch        "LSB;label=32;scalar=64";
    class       volScalarField;
    location    "500";
    object      G;
}
// * * * * * * * * * * * * * * * * * * * * * * * * * * * * * * * * * * * * * //

dimensions      [1 0 -3 0 0 0 0];

internalField   nonuniform List<scalar> 
12000
(
20352.88
18497.14
17711.47
17259.51
16965.07
16759.35
16609.86
16494.67
16401.28
16323.44
16257.81
16201.98
16153.9
16111.92
16074.79
16041.62
16011.81
15984.85
15960.39
15938.12
15917.84
15899.35
15882.5
15867.09
15852.87
15839.61
15827.03
15814.87
15802.88
15790.81
15778.54
15766.08
15753.56
15741.16
15729.03
15717.06
15705.1
15693.04
15680.59
15666.87
15650.71
15632.19
15613.31
15596.17
15580.82
15566.09
15551.49
15536.53
15519.29
15496.36
15465.76
15428.8
15389.41
15351.82
15317.29
15281.98
15238.77
15182.84
15121.65
15047.98
21582.89
20495.43
19706.09
19143.68
18703.16
18335.71
18040.22
17808.73
17624.35
17471.02
17338.29
17220.66
17115.51
17021.47
16937.37
16861.87
16793.37
16730.22
16670.95
16614.38
16559.72
16506.49
16454.49
16403.69
16354.15
16305.95
16259.15
16213.74
16169.66
16126.81
16085.08
16044.4
16004.73
15966.16
15928.83
15892.97
15858.72
15826
15794.33
15762.94
15731.18
15698.98
15666.96
15636.11
15607.42
15581.64
15558.86
15538.33
15518.27
15495.94
15468.3
15433.34
15391.79
15347.69
15306.28
15269.81
15234.43
15191.64
15143.25
15085.21
21751.71
21120.97
20479.29
20013.69
19659.47
19317.86
18985.66
18692.62
18452.65
18259.01
18097.43
17955.85
17827.27
17709.02
17600.89
17503.45
17417.08
17341.41
17275.36
17217.29
17165.31
17117.54
17072.32
17028.31
16984.49
16940.13
16894.74
16848.03
16799.83
16750.09
16698.87
16646.26
16592.4
16537.5
16481.87
16425.96
16370.2
16314.87
16259.85
16204.79
16149.37
16093.54
16037.53
15982.14
15928.73
15878.68
15832.59
15790.08
15750.03
15710.65
15669.31
15623.23
15571.18
15515.11
15459.75
15409.37
15363.9
15316.43
15266.29
15194.49
21769.1
21400.22
20838.85
20388.31
20118.91
19896.75
19637.14
19348.55
19072.8
18836.53
18643.13
18482.96
18343.63
18215.33
18092.49
17973.44
17859.29
17752.5
17655.58
17570.34
17497.5
17436.73
17386.85
17346.2
17312.84
17284.79
17260.17
17237.29
17214.75
17191.38
17166.28
17138.72
17108.15
17074.18
17036.69
16995.82
16951.91
16905.2
16855.72
16803.43
16748.33
16690.46
16629.89
16567.26
16504.16
16442.55
16383.68
16327.65
16273.86
16221.34
16168.33
16112.31
16051.19
15985.09
15917.15
15851.75
15791.85
15733.83
15681.71
15594.56
21740.21
21565.35
21103.51
20605.77
20307.03
20163.12
20031.7
19836.79
19589.47
19333.43
19102.86
18911.39
18757.07
18629.95
18517.96
18410.76
18301.81
18188.73
18072.63
17956.7
17844.92
17740.99
17647.71
17566.75
17498.65
17443.05
17398.9
17364.72
17338.85
17319.56
17305.13
17293.9
17284.28
17274.84
17264.46
17252.33
17237.9
17220.62
17200.03
17175.83
17147.83
17115.67
17078.88
17037.57
16992.99
16947.14
16901.63
16857.12
16813.68
16771.13
16728.7
16684.58
16636.25
16582
16522.6
16461.71
16405.14
16354.09
16319.07
16248.39
21703.13
21658.74
21342.44
20838.87
20437.33
20253.18
20196.3
20129.15
19985.78
19775.4
19537.75
19309.46
19112.64
18955.12
18833.84
18738.97
18658.06
18579.57
18495.25
18400.95
18296.28
18183.63
18066.9
17950.45
17838.29
17733.65
17638.82
17555.21
17483.45
17423.55
17374.98
17336.78
17307.74
17286.44
17271.5
17261.54
17255.18
17251.07
17248.02
17245.05
17241.17
17235.08
17225.35
17211.2
17193.01
17172.2
17150.42
17129
17108.82
17090.31
17073.26
17056.29
17036.71
17011.31
16978.68
16941.34
16906.83
16881.19
16876.95
16850.47
21682.47
21702.07
21536.06
21110.45
20633.37
20327.11
20230.84
20232.64
20210.74
20110.3
19936.63
19720.63
19495.26
19286.58
19111.37
18976.36
18879.08
18810.29
18757.53
18708.44
18653.25
18585.82
18503.75
18407.64
18300.2
18185.24
18066.89
17949.13
17835.41
17728.5
17630.47
17542.69
17465.97
17400.59
17346.43
17302.91
17269.1
17243.85
17226
17214.34
17207.29
17202.82
17198.73
17193.39
17186.16
17177.49
17168.68
17161.38
17156.99
17156.19
17158.77
17163.37
17167.26
17166.57
17158.42
17144.17
17131.66
17130.22
17149.18
17160.28
21686.02
21720.51
21666.58
21372.15
20904.28
20483.41
20264.54
20230.6
20268.08
20276.79
20213.64
20079.18
19892.72
19678.63
19461.53
19263.2
19099.2
18976.48
18893.31
18841.36
18808.81
18783.3
18754.29
18714.22
18658.92
18587.23
18500.3
18400.82
18292.24
18178.19
18062.18
17947.33
17836.38
17731.61
17634.78
17547.07
17469.16
17401.4
17343.89
17296.35
17257.84
17226.78
17201.3
17179.65
17160.59
17143.66
17129.46
17119.37
17114.71
17115.95
17122.42
17132.43
17143.2
17151.04
17152.87
17149.4
17147.48
17156.22
17179.61
17200.41
21708.39
21733.09
21739.78
21577.78
21194.95
20728.89
20379.1
20232.8
20238.95
20294.23
20321.71
20289.67
20194.73
20044.98
19854.18
19641.04
19427.26
19233.25
19073.87
18956.11
18879
18835.44
18814.73
18805.23
18796.42
18780.2
18751.34
18707.3
18647.73
18573.77
18487.47
18391.39
18288.28
18180.85
18071.63
17962.86
17856.55
17754.64
17658.88
17570.65
17490.72
17419.27
17356.02
17300.33
17251.3
17208.28
17171.43
17141.75
17120.26
17107.13
17101.21
17100.3
17101.63
17102.45
17101.05
17098.42
17098.94
17106.98
17121.32
17131.74
21737.94
21746.47
21772.68
21710.22
21446.48
21013.33
20581.32
20304.97
20215.84
20245.05
20305.19
20341.39
20332.63
20273.63
20163.71
20006.48
19812.52
19599.22
19387.22
19195.71
19038.61
18922.74
18847.8
18807.87
18793.6
18794.47
18800.6
18803.9
18798.56
18780.95
18749.37
18703.53
18644.11
18572.36
18489.81
18398.16
18299.33
18195.53
18089.11
17982.37
17877.48
17776.36
17680.61
17591.18
17508.33
17432.06
17362.79
17301.58
17249.55
17207.04
17173.04
17145.45
17122.23
17102.55
17087.38
17078.45
17076.09
17076.93
17076.03
17069.78
21762.44
21757.72
21780.31
21775.67
21625.93
21279.05
20832.73
20454.99
20249.1
20203.85
20244.15
20300.65
20338.03
20344.91
20315.94
20244.74
20126.9
19964.83
19769.39
19557.79
19349.47
19162.03
19008.24
18894.5
18821.01
18782.89
18772.05
18779.05
18794.72
18811.2
18822.5
18824.51
18814.77
18792.01
18755.8
18706.38
18644.5
18571.4
18488.64
18397.99
18301.5
18201.43
18099.99
17998.85
17899.04
17801.2
17706.14
17615.17
17529.79
17451.1
17379.2
17313.47
17253.92
17202.7
17163.59
17138.44
17122.99
17106.93
17084.77
17055.56
21773.82
21761.6
21772.56
21791.44
21728.57
21488.75
21088.03
20660.4
20349.24
20207.79
20195.3
20239.04
20287.68
20322.06
20338.63
20333.11
20296.29
20218.57
20095.68
19931.56
19737.78
19530.8
19328.52
19146.9
18997.53
18886.36
18813.75
18775.47
18764.3
18771.73
18789.41
18810.14
18828.29
18839.85
18842.23
18834.04
18814.81
18784.6
18743.73
18692.76
18632.53
18564.19
18488.94
18407.67
18320.86
18228.76
18131.79
18030.83
17927.29
17822.94
17719.51
17618.94
17524.34
17440.75
17373.36
17322.8
17281.57
17236.4
17186.37
17120.99
21770.85
21756.49
21756.88
21777.97
21768.95
21630.39
21314.42
20892.87
20509.12
20269.22
20183.67
20194.7
20237.57
20277.29
20306.94
20328.69
20339.89
20330.78
20289.24
20206.45
20080.24
19915.94
19725.17
19523.44
19327.18
19150.87
19004.9
18894.54
18820.07
18777.72
18761.12
18762.84
18775.59
18793.11
18810.65
18825.04
18834.41
18837.73
18834.38
18823.93
18806.13
18780.81
18747.68
18706.19
18655.5
18594.68
18522.82
18439.46
18344.99
18240.99
18130.37
18017.46
17908.07
17808.52
17722.92
17649.28
17579.47
17501.84
17424.85
17314.09
21758.68
21745.92
21740.39
21754.36
21770.71
21711.39
21495.09
21127.07
20715.28
20391.24
20220.21
20180.29
20206.91
20246.31
20277.21
20301.24
20324.33
20345.51
20355.9
20343.01
20295.59
20207.02
20076.97
19911.6
19722.36
19523.84
19331.11
19157.29
19011.74
18899.28
18820.32
18771.7
18747.98
18742.79
18750.06
18764.69
18782.84
18801.76
18819.53
18834.83
18846.7
18854.26
18856.48
18852.08
18839.58
18817.19
18782.9
18734.76
18671.64
18594.13
18505.36
18410.88
18317.45
18230.26
18149.93
18071.28
17987.71
17891.84
17802.87
17657.46
21746.07
21736.98
21730.16
21735.74
21758.04
21750.11
21627.05
21342.57
20949.28
20570.57
20312.68
20202.79
20197.2
20232.12
20265.85
20287.97
20305.57
20326.51
20351.19
20372.38
20378.73
20358.53
20302.56
20206.14
20070.23
19901.5
19711.18
19513.14
19321.55
19148.67
19003.3
18890.05
18809.47
18758.88
18733.57
18727.91
18736.25
18753.56
18775.74
18799.75
18823.5
18845.51
18864.64
18879.94
18890.41
18894.71
18890.79
18876.15
18848.7
18808.23
18757.56
18702.25
18648.11
18597.25
18545.91
18486.3
18414.39
18327.2
18250.85
18103.38
21742.05
21737.21
21731.98
21731.75
21749.76
21767.55
21717.08
21525.34
21188.69
20794.61
20464
20271.17
20211.28
20228.47
20265.08
20291.2
20304.53
20314.94
20330.79
20353.4
20377.52
20393.97
20392.04
20361.65
20295.27
20189.66
20046.84
19874.06
19682.7
19486.33
19298.51
19130.76
18991.2
18883.98
18809.39
18764.56
18744.44
18742.95
18754.03
18772.43
18794.05
18816.04
18836.68
18855.23
18871.44
18884.92
18894.53
18898.39
18894.79
18883.73
18868.07
18852.71
18841.32
18832.49
18819.2
18793.03
18752.57
18698.02
18654.88
18543.16
21752.72
21751.49
21748.61
21745.71
21756.06
21780.51
21776.42
21668.43
21410.82
21041.39
20666.88
20392.02
20257.82
20235.41
20264.94
20298.03
20315.38
20320.13
20322.96
20331.75
20348.41
20369.76
20389.18
20397.96
20386.51
20346.04
20270.45
20157.86
20011.43
19839.04
19652.03
19463.37
19285.62
19129.18
19001.04
18904.22
18837.97
18798.62
18780.74
18778.3
18785.58
18797.88
18811.92
18825.88
18839.02
18850.97
18861.16
18868.78
18873.49
18876.61
18881.44
18891.83
18908.95
18928.87
18943.98
18947.93
18941.8
18927.45
18922.38
18867.26
21778.88
21779.62
21778.25
21774.68
21777.82
21797.66
21815.63
21770.98
21597.16
21284.04
20902.58
20563.17
20345.75
20260.93
20264.17
20297.83
20324.08
20332.42
20329.27
20324.89
20326.19
20335.4
20351.21
20369.6
20384.27
20387.11
20369.39
20323.4
20244.23
20131.04
19987.51
19821.45
19643.61
19465.89
19299.53
19153.45
19033.32
18941.29
18876.38
18835.2
18812.94
18804.35
18804.66
18810.04
18817.67
18825.54
18832.34
18837.64
18842.42
18849.27
18861.56
18881.41
18907.55
18935.23
18959.19
18977.46
18993.44
19009.11
19030.5
19025.9
21815.33
21815.97
21814.57
21810.91
21808.74
21819.41
21841.53
21836.34
21736.6
21497.58
21145.35
20771.81
20478.05
20315.61
20270.18
20289.15
20321.2
20339.03
20339.1
20329.57
20319.61
20314.92
20317.85
20328.5
20345.13
20363.83
20378.39
20380.88
20362.89
20317.22
20239.46
20129.11
19989.93
19829.42
19657.6
19485.42
19323.21
19179.32
19059.32
18965.65
18897.81
18853.06
18827.18
18815.27
18812.36
18814.03
18817.19
18820.75
18825.82
18834.91
18849.94
18870.27
18892.39
18912.28
18928.91
18945.55
18967.17
18994.58
19023.7
19045.03
21852.97
21851.74
21849.02
21844.96
21839.49
21841.08
21857.29
21870.52
21826.74
21664.83
21369.53
20997.76
20649.48
20407.31
20294.69
20279
20305.88
20332.88
20342.48
20336.37
20323.32
20310.99
20303.76
20303.75
20311.94
20328.2
20350.54
20374.51
20393.22
20398.29
20381.2
20335.04
20255.92
20143.82
20002.83
19840.55
19667.06
19493.39
19329.94
19185.2
19064.8
18971.21
18903.83
18859.44
18833.11
18819.43
18814.06
18814.86
18821.8
18835.34
18854.12
18873.78
18888.91
18897
18901.35
18909.24
18925.93
18950.05
18972.24
18993.93
21882.73
21878.81
21874.3
21869.42
21862.34
21857.41
21864.44
21881.33
21873.24
21779.47
21555.97
21219.14
20847.83
20538.27
20349.34
20279.6
20285
20314.48
20335.57
20339.23
20330.65
20318.2
20307.75
20302.18
20303.02
20311.49
20328.28
20352.66
20381.6
20409.59
20429.07
20431.57
20409.1
20355.6
20268.2
20147.95
19999.91
19832.49
19656.2
19482.09
19320.27
19178.6
19061.82
18971.18
18905.05
18860.2
18833.42
18822.61
18826.29
18841.78
18863.44
18883.2
18894.24
18895.46
18892.69
18894.35
18904.3
18919
18929.14
18937.66
21899.45
21893.2
21887.31
21881.56
21874.1
21865.88
21864.9
21877.5
21887.28
21845.51
21695.29
21417.39
21057.08
20704.42
20442.52
20305.01
20270.77
20290.72
20320.48
20337.41
20339.05
20332.34
20324.41
20319.09
20317.73
20320.99
20329.86
20345.31
20367.49
20394.81
20423.57
20447.97
20460.69
20453.94
20420.76
20356.39
20259.29
20131.71
19979.42
19811.02
19636.66
19466.49
19309.26
19171.29
19056.35
18966.39
18902.35
18864.38
18850.77
18856.39
18872.33
18888.24
18896.85
18897.63
18895.99
18898.04
18904.78
18911.48
18912.52
18908.28
21903.65
21896.22
21889.84
21883.57
21876.46
21867.58
21861.64
21867.37
21882.06
21873.98
21787.83
21580.51
21260.78
20896.11
20577.13
20367.78
20277.93
20272.72
20303.17
20333.2
20348.75
20351.78
20349.51
20347.3
20347.08
20348.81
20352.44
20358.7
20368.83
20383.87
20403.83
20427.03
20449.77
20466.48
20470.36
20454.4
20412.63
20341.26
20239.51
20109.94
19958.18
19792.04
19620.41
19452.22
19296.01
19159.6
19049.7
18970.58
18922.31
18899.79
18893.77
18894.5
18895.83
18896.9
18899.98
18906.18
18913
18915.87
18913.79
18905.05
21900.33
21892.99
21886.95
21880.63
21874.14
21866.06
21858.07
21857.55
21869.52
21878.69
21841.12
21703.94
21445.06
21099.96
20749.4
20475.61
20320.4
20273.37
20291.44
20329.3
20359.4
20374.57
20379.35
20380.39
20381.32
20382.63
20383.56
20383.78
20384.1
20386.22
20392.03
20402.84
20418.62
20437.56
20455.83
20467.92
20467.25
20447.16
20402
20328.22
20224.93
20094.2
19940.98
19772.9
19599.92
19433.52
19284.85
19162.2
19068.76
19002.18
18956.66
18926.54
18908.67
18901.83
18904.01
18910.66
18916.24
18917.38
18916.25
18911.27
21896.05
21889.54
21884.25
21878.16
21872.15
21865.18
21857
21852.15
21858.26
21872.51
21866.47
21789.83
21600.62
21301.3
20949.17
20628.91
20407.57
20304.5
20293.42
20327.94
20368.7
20396.31
20408.93
20412.57
20413.04
20412.76
20411.51
20408.45
20403.47
20397.64
20392.88
20391.45
20395.28
20405.36
20421.22
20440.55
20459.11
20471.03
20469.45
20447.45
20399.09
20320.47
20210.86
20073.55
19916.14
19749.51
19585.43
19433.61
19299.63
19185.28
19090.83
19017.22
18965.96
18936.38
18923.41
18918.68
18915.32
18911.51
18910.21
18911.57
21895.92
21890.24
21885.54
21879.7
21873.83
21867.55
21859.9
21852.75
21853
21865.2
21875.71
21844.94
21723.42
21486.66
21161.54
20819.86
20541.52
20374.18
20316.58
20331.59
20373.72
20411.12
20431.98
20438.59
20437.76
20434.54
20430.62
20425.64
20418.98
20410.73
20401.92
20394.22
20389.63
20390.08
20397.02
20410.85
20430.41
20452.64
20472.5
20483.31
20477.53
20448.05
20389.87
20301.67
20186.44
20050.72
19902.43
19748.67
19594.93
19446.18
19308.69
19190.16
19096.97
19030.36
18985.08
18952.72
18927.56
18909.45
18900.55
18902.04
21901.94
21896.47
21891.88
21886.07
21880.04
21873.92
21866.86
21859.04
21855.2
21862.6
21878.78
21878.07
21814.12
21645.67
21369.59
21033.72
20716.14
20484.95
20367.02
20344.19
20373.73
20414.59
20443.23
20454.53
20453.76
20447.94
20441.33
20435.06
20428.71
20421.69
20413.96
20406.12
20399.22
20394.71
20394.24
20399.32
20410.79
20428.28
20449.66
20470.77
20485.76
20488.05
20471.79
20433.21
20371.11
20286.16
20179.69
20053.14
19909.01
19752.8
19594.02
19444.34
19313.31
19204.55
19115.62
19041.98
18981.57
18936.07
18907.34
18893.59
21912.9
21906.81
21901.83
21895.87
21889.63
21883.44
21876.97
21869.69
21864.11
21866.99
21882.4
21897.74
21876.62
21772.13
21557.53
21251.92
20918.37
20633.36
20448.75
20371.79
20372.27
20406.65
20440.66
20458.91
20461.58
20455.65
20447.62
20440.75
20435.49
20431.11
20426.8
20422.19
20417.33
20412.7
20409.21
20408.08
20410.62
20417.75
20429.51
20444.61
20460.44
20473.58
20480.52
20477.98
20462.71
20430.68
20376.88
20296.6
20187.99
20054.42
19904.62
19749.69
19598.97
19457.48
19326.91
19208.6
19105.55
19021.44
18960.55
18910.32
21925.58
21918.32
21912.75
21906.69
21900.55
21894.6
21888.95
21883.12
21877.9
21878.01
21889.8
21910.54
21916.44
21864.28
21713.42
21455.96
21131.23
20810.81
20563.1
20421.79
20377.42
20392.62
20426.63
20452.91
20463.11
20461.04
20454.07
20447.57
20443.51
20441.58
20440.64
20439.68
20438.09
20435.63
20432.39
20428.79
20425.58
20423.63
20423.73
20426.45
20432.17
20441.19
20453.63
20468.6
20483.02
20490.74
20483.18
20451.78
20391.31
20301.85
20188.13
20056.59
19912.78
19761
19605.97
19454.16
19313.07
19187.8
19088.9
18982.66
21936.47
21928.1
21922.28
21916.49
21911.1
21906.08
21901.8
21898.03
21894.56
21893.74
21901.38
21920.55
21939.4
21924.34
21830.97
21631.1
21337.41
21005.33
20708.04
20501.08
20399.97
20382.18
20407.37
20439.78
20460.4
20466.4
20463.58
20458.69
20455.6
20455.04
20456.05
20457.35
20458.01
20457.44
20455.33
20451.5
20445.91
20438.76
20430.59
20422.6
20416.91
20416.49
20424.35
20441.96
20467.47
20495.04
20516
20521.63
20505.91
20466.36
20402.73
20314.97
20202.93
20068.08
19915.61
19753.96
19592.71
19436.73
19305.75
19135.56
21943.39
21934.8
21929.49
21924.67
21920.76
21917.48
21915.13
21913.64
21912.37
21911.75
21915.74
21929.67
21950.83
21957.57
21910
21768.77
21522.54
21203.7
20878.02
20613.76
20450.55
20387.08
20391.6
20424.09
20455
20472.07
20476.45
20474.63
20472.23
20471.64
20472.72
20474.31
20475.37
20475.25
20473.56
20469.9
20463.78
20454.77
20442.94
20429.45
20416.98
20409.51
20411.12
20424.21
20447.87
20477.79
20507.8
20532.06
20546.41
20547.62
20531.67
20493.07
20426.52
20330.02
20206.66
20063.14
19907.96
19743.46
19598.6
19375.32
21946.53
21939.18
21935.32
21932.2
21930.34
21929.28
21929.05
21929.56
21930.06
21929.86
21930.88
21938.38
21955.27
21971.11
21955.57
21867.21
21677.29
21393.44
21064.31
20759.43
20536.67
20418.38
20388.94
20411.17
20448.01
20476.62
20490.49
20493.41
20491.8
20490.04
20489.48
20489.64
20489.55
20488.57
20486.31
20482.35
20476.1
20466.93
20454.76
20440.69
20427.32
20418.34
20417.12
20425.28
20441.93
20464.4
20489.86
20516.59
20543.49
20568.17
20585.16
20586.45
20564.26
20514.14
20436.05
20332.56
20208.74
20062.48
19928.78
19681.8
21948.3
21943.77
21942.03
21941.05
21941.3
21942.29
21943.79
21945.5
21946.73
21946.43
21945.06
21946.59
21956.4
21972.6
21976.13
21930.51
21797.97
21564.47
21256.07
20932.54
20660.64
20484.07
20408.32
20406.87
20440.77
20477.88
20502.04
20511.44
20511.51
20508.25
20505.05
20502.7
20500.67
20498.25
20494.92
20490.21
20483.6
20474.68
20463.67
20451.92
20441.83
20436.04
20436.23
20442.28
20452.62
20465.73
20481.63
20501.96
20528.23
20559.33
20590.4
20614.1
20623.35
20613.33
20581.64
20526.66
20449.45
20343.11
20243.15
20011.55
21952.25
21951.49
21951.91
21952.93
21954.72
21956.94
21959.16
21960.94
21961.72
21960.59
21957.29
21954.27
21957.07
21969.03
21981.31
21966.52
21885.84
21710
21441.81
21123.1
20818.78
20587.43
20456.72
20417.36
20435.76
20474.43
20507.38
20524.69
20528.25
20524.43
20518.67
20513.57
20509.45
20505.63
20501.28
20495.73
20488.53
20479.75
20470.25
20461.84
20456.67
20456.2
20460.21
20466.85
20473.89
20480.58
20488.6
20501.2
20520.88
20547.3
20577.17
20605.83
20629.11
20643.78
20646.88
20634.4
20604.66
20547.45
20493.05
20311.81
21961.23
21964.12
21965.99
21968.2
21970.47
21972.67
21974.38
21975.12
21974.52
21972.08
21967.4
21961.67
21959.31
21965.78
21979.85
21984.38
21945.58
21826.71
21610.99
21318.25
21001.94
20726.33
20538
20448.61
20437.2
20466.97
20504.3
20529.88
20539.34
20537.25
20530.27
20523
20517.06
20512.07
20506.92
20500.62
20492.83
20484.14
20476.16
20471.07
20470.68
20475.26
20483.13
20491.4
20497.78
20502.18
20506.84
20514.81
20527.9
20545.71
20566.45
20588.53
20611.21
20633.77
20654.31
20668.91
20675.16
20662.19
20651.05
20539
21976.03
21981.24
21983.34
21985.53
21987.07
21988.06
21988.21
21987.22
21984.92
21981.22
21975.89
21969.3
21964.26
21966.15
21978.19
21992.38
21983.44
21914.43
21755.37
21504.55
21197.24
20893.6
20652.28
20505.69
20451
20459.12
20493.34
20525.55
20543.01
20545.8
20540.07
20531.93
20524.63
20518.55
20512.59
20505.61
20497.39
20489.06
20482.74
20480.71
20484.13
20492.25
20502.52
20511.98
20519.01
20524.14
20529.4
20536.55
20545.79
20556.06
20566.59
20578.04
20592.25
20610.63
20633.16
20657.7
20682.74
20699.19
20717.77
20672.98
21994.88
22000.36
22001.41
22002.41
22002.31
22001.39
21999.58
21996.81
21993.14
21988.77
21983.65
21977.73
21972.29
21971.39
21979.94
21996.67
22005.75
21975.47
21869.98
21670.17
21390.44
21078.4
20795.85
20591.82
20483.97
20457.34
20478.25
20512.65
20538.7
20549.43
20548.03
20540.89
20532.81
20525.47
20518.38
20510.63
20502.3
20494.84
20490.57
20491.37
20497.56
20507.5
20518.45
20528.14
20536.02
20543.16
20550.93
20559.45
20567.33
20572.93
20576
20578.34
20582.87
20592.16
20607.75
20629.72
20657.85
20686.15
20716.64
20720.6
22014.27
22018.02
22017.18
22016.31
22014.32
22011.54
22008.08
22004.14
21999.93
21995.75
21991.66
21987.38
21983.08
21981.11
21986.14
22000.88
22017.91
22013.8
21953.51
21806.83
21568.49
21268.19
20961.74
20707.61
20542.52
20469.92
20465.67
20494.63
20527.15
20547.56
20553.42
20549.47
20541.42
20532.62
20523.94
20515.31
20507.24
20501.35
20499.61
20503.1
20511.15
20521.61
20532.05
20541.3
20549.85
20558.97
20569.14
20579.11
20586.56
20589.77
20588.87
20585.87
20583.59
20584.74
20591.59
20605.59
20627.24
20653.45
20680.87
20708.3
22030.52
22031.33
22028.54
22025.86
22022.41
22018.51
22014.33
22010.21
22006.44
22003.27
22000.72
21998.43
21995.89
21993.94
21996.02
22006.45
22024.05
22034.43
22008.15
21910.74
21721.63
21450.79
21140.68
20850.47
20630.99
20505.17
20463.92
20477.02
20510.44
20539.77
20554.82
20556.29
20549.49
20539.4
20528.9
20519.38
20512.05
20508.38
20509.55
20515.54
20524.79
20535
20544.52
20553.24
20562.31
20572.73
20584.01
20594.13
20600.68
20602.43
20599.94
20595.03
20589.92
20586.77
20587.69
20594.23
20606.6
20623.54
20639.9
20668.84
22041.36
22039.24
22035.18
22031.42
22027.47
22023.54
22019.78
22016.49
22013.93
22012.22
22011.29
22010.72
22009.74
22008.18
22007.98
22013.43
22027.14
22042.69
22038.79
21982.64
21844.4
21616.04
21322.24
21014.43
20750.17
20569.45
20481.37
20466.65
20491.98
20526.28
20550.59
20559.31
20555.48
20545.03
20533.08
20523.02
20516.91
20515.93
20520.13
20528.27
20538.2
20547.91
20556.65
20565.17
20574.68
20585.5
20596.34
20604.97
20609.59
20609.85
20606.79
20602.02
20597.13
20593.6
20592.73
20595.13
20600
20606.77
20611.24
20629.04
22046.78
22042.85
22038.66
22034.92
22031.54
22028.61
22026.15
22024.34
22023.32
22023.04
22023.34
22023.8
22023.67
22022.27
22020.35
22021.23
22029.17
22043.61
22051.83
22026.84
21935.71
21756.8
21496
21190.61
20896.57
20665.51
20524.77
20470.66
20476.5
20508.43
20539.58
20556.48
20557.76
20548.84
20536.7
20526.85
20522.42
20524.22
20531.16
20540.96
20551.18
20560.43
20568.82
20577.5
20587.26
20597.59
20606.68
20612.62
20614.55
20613.09
20609.67
20605.83
20602.77
20601.32
20601.69
20603.14
20603.82
20603.2
20599.45
20603.35
22048.89
22044.88
22041.68
22038.99
22036.97
22035.6
22034.81
22034.58
22034.86
22035.52
22036.33
22036.94
22036.78
22035.09
22031.85
22029.17
22031.36
22041.38
22053.86
22049.62
21997.9
21869.16
21652.71
21368.27
21062.64
20791.75
20598.03
20495.58
20469.78
20489.33
20522.09
20546.53
20554.98
20550.34
20540.2
20531.81
20529.38
20533.62
20542.58
20553.34
20563.57
20572.54
20580.98
20589.94
20599.55
20608.56
20615.08
20617.85
20617
20613.87
20610.22
20607.51
20606.72
20608.08
20610.75
20612.81
20611.94
20607.61
20600.46
20594.2
22050.89
22048.44
22046.93
22045.88
22045.47
22045.63
22046.22
22047.08
22048.01
22048.84
22049.34
22049.3
22048.36
22045.96
22041.73
22036.69
22034.29
22038.9
22050.45
22057.67
22035.53
21952.34
21785.3
21536.42
21237.97
20942.42
20701.59
20546.46
20478.27
20473.91
20500.4
20529.6
20546.48
20549.2
20543.98
20538.71
20538.53
20544.44
20554.34
20565.24
20575.22
20584.09
20592.76
20601.83
20610.71
20617.74
20621.37
20621.14
20618.02
20613.77
20610.24
20608.79
20610.1
20613.77
20618.13
20620.71
20619.47
20614.19
20607.25
20596.6
22055.77
22055.85
22056.05
22056.62
22057.47
22058.55
22059.76
22060.84
22061.57
22061.76
22061.28
22060.04
22057.93
22054.62
22049.68
22043.39
22037.97
22037.69
22045.52
22056.87
22054.11
22008.14
21889.64
21685.57
21411.17
21108.8
20832.42
20626.13
20508.25
20468.7
20479
20507.67
20532.52
20545.15
20547.95
20547.75
20550.1
20556.76
20566.33
20576.51
20585.97
20594.83
20603.67
20612.44
20619.96
20624.62
20625.47
20622.88
20618.37
20613.84
20611.02
20611
20613.96
20618.88
20623.59
20625.74
20624.19
20619.32
20614.17
20603.64
22065.23
22067.78
22069.12
22070.69
22072.01
22073.11
22073.95
22074.33
22074.07
22073.04
22071.2
22068.58
22065.22
22061.04
22055.69
22048.99
22042.02
22038.06
22041.25
22051.72
22059.23
22040.47
21964.97
21809.17
21571.86
21280.7
20984.56
20734.66
20564.77
20480.81
20464.15
20484.52
20514.43
20537.95
20551.33
20558.19
20563.56
20570.22
20578.36
20587.05
20595.74
20604.49
20613.25
20621.2
20626.9
20629.1
20627.63
20623.54
20618.61
20614.69
20613.18
20614.7
20618.78
20623.8
20627.54
20628.33
20626.17
20621.96
20618.56
20610.17
22079.12
22083.2
22084.69
22086.3
22087.16
22087.39
22087.01
22086
22084.26
22081.76
22078.53
22074.65
22070.26
22065.4
22059.87
22053.27
22045.82
22039.57
22038.42
22045.24
22056
22054.57
22013.62
21904.42
21712.14
21448.03
21149.89
20869.07
20650.54
20516.73
20463.01
20465.45
20494.63
20527.55
20552.68
20568.3
20577.53
20584.07
20590.19
20596.91
20604.54
20612.92
20621.19
20627.89
20631.54
20631.52
20628.38
20623.66
20619.21
20616.62
20616.82
20619.78
20624.35
20628.54
20630.49
20629.51
20626.54
20622.76
20620.37
20614.07
22095.69
22099.83
22100.45
22101.13
22100.74
22099.49
22097.46
22094.76
22091.45
22087.58
22083.18
22078.37
22073.28
22068
22062.43
22056.15
22048.86
22041.49
22037.01
22039.31
22048.75
22056.26
22040.39
21972.09
21827.42
21602.12
21319.19
21023.45
20765.15
20580.94
20482.41
20456.65
20476.65
20514.45
20550.38
20575.68
20590.03
20597.2
20601.56
20606.24
20612.57
20620.18
20627.49
20632.59
20634.24
20632.44
20628.37
20623.83
20620.55
20619.72
20621.69
20625.72
20630.1
20632.86
20632.81
20630.21
20626.56
20622.92
20620.75
20615.53
22112.31
22115.02
22114.06
22113.1
22111.07
22108.18
22104.5
22100.27
22095.65
22090.72
22085.54
22080.17
22074.7
22069.21
22063.66
22057.72
22050.89
22043.28
22036.75
22034.98
22040.89
22051.18
22051.33
22015.79
21916.38
21736.44
21483.08
21189.52
20904.68
20674.97
20527.75
20464.4
20464.98
20500.14
20543.31
20578.01
20598.86
20608.37
20612.17
20615.3
20620.18
20626.5
20632.32
20635.63
20635.52
20632.53
20628.25
20624.52
20622.83
20623.88
20627.34
20631.85
20635.43
20636.5
20634.7
20631.02
20627
20623.37
20620.97
20615.83
22126.41
22126.68
22123.88
22121.07
22117.41
22113.11
22108.2
22102.9
22097.42
22091.86
22086.26
22080.64
22075.02
22069.45
22063.95
22058.31
22052.03
22044.8
22037.44
22032.83
22034.77
22044.01
22052.61
22040.73
21980.4
21846.95
21633.1
21357.6
21062.11
20796.84
20601.97
20494.27
20464.87
20487.52
20531.68
20573.73
20602.14
20616.3
20621.64
20624.27
20627.72
20632.21
20636.03
20637.43
20635.9
20632.35
20628.49
20626.04
20626.12
20628.84
20633.25
20637.55
20639.9
20639.35
20636.32
20632.15
20628.13
20624.47
20621.75
20616.14
22136.26
22133.8
22129.39
22124.95
22120.05
22114.82
22109.25
22103.45
22097.6
22091.79
22086.05
22080.38
22074.76
22069.23
22063.82
22058.44
22052.75
22046.26
22039.09
22033.05
22031.72
22038.09
22049.44
22052.42
22022.63
21932.1
21762.52
21517.89
21228.27
20941.34
20705.07
20550.31
20481.8
20480.99
20517.55
20562.83
20598.8
20619.93
20629.35
20633.05
20635.38
20637.62
20638.99
20638.43
20635.85
20632.3
20629.38
20628.51
20630.28
20634.24
20638.91
20642.39
20643.29
20641.41
20637.74
20633.59
20629.8
20626.16
20623.22
20617.08
22141.39
22136.62
22131.16
22125.62
22119.99
22114.37
22108.66
22102.86
22097.02
22091.23
22085.54
22079.94
22074.43
22069.04
22063.8
22058.74
22053.66
22048.11
22041.8
22035.56
22032.12
22035.16
22045.5
22055.76
22047.12
21992.48
21867.01
21661.83
21393.22
21100.75
20834.04
20634.42
20520.77
20486.05
20504.97
20547.17
20588.93
20618.46
20634.46
20641.1
20643.02
20642.92
20641.56
20639.02
20635.71
20632.64
20631.07
20631.88
20635.07
20639.65
20643.88
20646.11
20645.59
20642.81
20638.97
20635.13
20631.66
20628.1
20625.1
20618.68
22142.48
22136.27
22130.38
22124.37
22118.52
22112.92
22107.42
22101.9
22096.31
22090.71
22085.18
22079.76
22074.48
22069.35
22064.44
22059.8
22055.36
22050.79
22045.63
22039.99
22035.54
22035.58
22042.78
22054.48
22058.08
22030.52
21944.95
21783.16
21547.67
21265.97
20983.16
20745.89
20585.45
20508.6
20499.55
20530.47
20573.97
20611.6
20635.9
20647.39
20650.1
20648.06
20644.03
20639.59
20635.8
20633.56
20633.55
20635.96
20640.15
20644.7
20647.93
20648.69
20646.97
20643.68
20639.99
20636.55
20633.37
20629.92
20626.99
20620.58
22140.88
22134.23
22128.45
22122.48
22116.76
22111.38
22106.22
22101.09
22095.86
22090.57
22085.31
22080.19
22075.27
22070.58
22066.15
22062.04
22058.23
22054.53
22050.47
22045.74
22041.02
22038.67
22041.82
22051.02
22059.45
22049.89
21997.41
21878.63
21684.25
21427.82
21144.81
20881.29
20677.39
20553.84
20507.7
20517.94
20556.68
20599.76
20632.61
20650.55
20655.66
20652.76
20646.61
20640.55
20636.48
20635.2
20636.74
20640.48
20645.14
20649.08
20650.95
20650.28
20647.65
20644.19
20640.79
20637.68
20634.7
20631.36
20628.56
20622.38
22138.06
22131.79
22126.44
22120.84
22115.43
22110.33
22105.49
22100.73
22095.92
22091.04
22086.2
22081.52
22077.11
22072.98
22069.13
22065.58
22062.32
22059.24
22055.98
22052.03
22047.34
22043.16
22042.2
22046.75
22054.65
22055.06
22027.67
21948.02
21798.22
21578.14
21310.28
21034.69
20795.45
20625.25
20535.47
20515.6
20541.06
20584.29
20623.95
20649.13
20658.48
20656.5
20649.4
20642.3
20638.1
20637.7
20640.52
20645.12
20649.69
20652.61
20653.03
20651.14
20647.94
20644.5
20641.35
20638.45
20635.56
20632.3
20629.63
20623.78
22135.16
22129.78
22124.96
22119.89
22114.84
22110.01
22105.43
22101.01
22096.65
22092.3
22088.02
22083.93
22080.11
22076.58
22073.3
22070.22
22067.31
22064.52
22061.62
22058.06
22053.32
22047.71
22043.08
22042.29
22046.49
22050.69
22040.55
21993.78
21887.71
21710.61
21470.88
21198.34
20935.7
20723.79
20587.57
20529.44
20531.97
20567.64
20610.1
20642.02