/*--------------------------------*- C++ -*----------------------------------*\
| =========                 |                                                 |
| \\      /  F ield         | OpenFOAM: The Open Source CFD Toolbox           |
|  \\    /   O peration     | Version:  2312                                  |
|   \\  /    A nd           | Website:  www.openfoam.com                      |
|    \\/     M anipulation  |                                                 |
\*---------------------------------------------------------------------------*/
FoamFile
{
    version     2.0;
    format      ascii;
    arch        "LSB;label=32;scalar=64";
    class       volScalarField;
    location    "500";
    object      ILambda_14_0;
}
// * * * * * * * * * * * * * * * * * * * * * * * * * * * * * * * * * * * * * //

dimensions      [1 0 -3 0 0 0 0];

internalField   nonuniform List<scalar> 
12000
(
886.7734
803.0601
805.2803
803.264
803.3216
803.3698
803.4825
803.6154
803.7645
803.9222
804.0742
804.2057
804.3077
804.3791
804.4245
804.4494
804.4562
804.4425
804.4039
804.3375
804.2437
804.1243
803.9786
803.8001
803.5806
803.3169
803.0108
802.6646
802.2791
801.8586
801.4129
800.9474
800.4515
799.8937
799.2267
798.4284
797.5677
796.7436
795.9279
794.9228
793.5932
792.145
790.9231
789.9105
788.7079
787.1503
785.4886
783.8892
782.1538
779.9909
777.447
774.7187
771.7948
768.389
764.0453
758.2954
750.8121
741.6908
731.9356
724.3583
819.7334
796.3681
804.7694
802.9588
803.4848
803.5425
803.7011
803.8502
803.9981
804.13
804.2366
804.3143
804.3648
804.3922
804.3994
804.3863
804.3503
804.2883
804.1986
804.0812
803.9353
803.7575
803.5423
803.2847
802.9838
802.6423
802.2638
801.8515
801.4091
800.9377
800.4301
799.8664
799.221
798.4772
797.6456
796.7657
795.8568
794.8658
793.707
792.3886
791.0612
789.8512
788.6671
787.2949
785.6805
783.9567
782.1668
780.1661
777.808
775.0861
771.9934
768.3237
763.7102
757.8245
750.5993
742.4203
734.2566
727.6176
724.1048
724.2019
801.0326
800.7664
804.1902
803.1894
803.702
803.7623
803.929
804.0582
804.171
804.2553
804.3115
804.3421
804.3505
804.3382
804.3041
804.2457
804.1602
804.0459
803.9018
803.7258
803.5142
803.2627
802.9688
802.6332
802.2597
801.8519
801.4121
800.9394
800.4283
799.8662
799.2348
798.518
797.7111
796.8254
795.8781
794.8702
793.7718
792.5539
791.2442
789.9278
788.6525
787.342
785.8599
784.1629
782.3149
780.3296
778.0831
775.4186
772.2291
768.3953
763.7003
757.9181
751.0274
743.3813
735.7503
729.2041
724.8181
723.2329
724.2449
726.8164
800.3375
803.5619
803.7098
803.5953
803.8976
803.9764
804.1089
804.1953
804.2591
804.2943
804.3054
804.2944
804.2616
804.2055
804.1234
804.0128
803.8717
803.6982
803.4896
803.2429
802.9555
802.6268
802.2589
801.8551
801.4178
800.9462
800.4352
799.8748
799.2512
798.5502
797.7627
796.8895
795.9387
794.9184
793.8263
792.6518
791.3928
790.0752
788.738
787.3839
785.9504
784.3507
782.545
780.5373
778.2885
775.6636
772.4821
768.5851
763.8384
758.1383
751.5048
744.2257
736.9182
730.4424
725.6935
723.3417
723.6357
726.4055
731.3487
738.4354
802.4594
804.1097
803.6835
803.9239
804.052
804.132
804.2085
804.2471
804.2631
804.2541
804.2229
804.1685
804.089
803.9816
803.8438
803.6733
803.4678
803.225
802.9429
802.6204
802.2585
801.8593
801.4249
800.955
800.4454
799.8876
799.2698
798.5796
797.8068
796.9476
796.0049
794.9859
793.8958
792.7354
791.5041
790.2085
788.8644
787.4822
786.0421
784.4868
782.7471
780.7707
778.5097
775.8718
772.6997
768.8139
764.0792
758.4456
751.9869
744.9666
737.8932
731.4898
726.5552
723.7731
723.5615
726.033
731.0947
738.627
748.5792
760.7996
803.6179
804.0431
803.8962
804.106
804.15
804.2014
804.2224
804.2165
804.1879
804.1354
804.0582
803.9537
803.8191
803.652
803.4498
803.2108
802.9331
802.6159
802.2594
801.8649
801.4338
800.966
800.4582
799.9032
799.2906
798.6088
797.8479
797.0018
796.0705
795.0589
793.9738
792.8209
791.6037
790.3255
788.9919
787.6065
786.1598
784.6168
782.9159
780.9825
778.738
776.0898
772.9107
769.0454
764.36
758.8085
752.4833
745.6466
738.7512
732.4254
727.3928
724.3338
723.75
725.8919
730.7727
738.2347
747.9928
759.5806
772.2047
784.6959
803.9874
804.0416
804.0793
804.1689
804.1755
804.1815
804.1547
804.1053
804.0307
803.9292
803.7982
803.6347
803.4364
803.2013
802.9279
802.6154
802.2638
801.8738
801.4463
800.9809
800.475
799.9225
799.3144
798.6398
797.8889
797.0547
796.1352
795.1335
794.056
792.9101
791.702
790.4361
789.1147
787.7371
786.2935
784.7564
783.0741
781.1708
778.9531
776.3148
773.136
769.2866
764.6533
759.1929
752.9909
746.2985
739.539
733.286
728.2042
724.9533
724.0726
725.8911
730.4922
737.726
747.23
758.4178
770.4341
782.1329
792.1961
799.5148
804.0997
804.0981
804.1416
804.1457
804.1201
804.077
804.0046
803.907
803.7797
803.6205
803.4265
803.1959
802.927
802.6192
802.2723
801.8867
801.4627
801
800.4962
799.946
799.3416
798.673
797.9306
797.107
796.1989
795.2078
794.1392
793.001
791.8008
790.5443
789.2338
787.8667
786.4315
784.9023
783.2316
781.3469
779.1522
776.5341
773.3708
769.5435
764.9579
759.5827
753.4974
746.9337
740.2876
734.0973
728.9886
725.5964
724.4693
725.979
730.26
737.1872
746.3817
757.2201
768.8436
780.1915
790.1073
797.5537
801.9106
803.2514
804.1423
804.1041
804.0949
804.0465
803.9799
803.8861
803.7629
803.6086
803.4197
803.1943
802.9308
802.6281
802.2862
801.9052
801.4852
801.0256
800.5242
799.9763
799.3751
798.7115
797.9764
797.1621
796.2644
795.2837
794.2246
793.0945
791.9018
790.6534
789.3522
787.9953
786.5702
785.0504
783.3899
781.5187
779.3419
776.7454
773.6065
769.8106
765.2743
759.9765
753.997
747.5518
741.0095
734.8768
729.7505
726.2448
724.9058
726.126
730.0748
736.6587
745.5115
756.0111
767.3143
778.4197
788.2776
795.9617
800.881
802.9647
802.7188
801.0714
804.1244
804.0194
803.9594
803.8647
803.7472
803.5974
803.4142
803.1949
802.9373
802.6407
802.3046
801.9289
801.5137
801.058
800.5598
800.0149
799.4171
798.7581
798.0294
797.2234
796.3354
795.3647
794.3149
793.1932
792.008
790.7669
789.4737
788.1257
786.7101
785.2
783.5494
781.6896
779.5278
776.9518
773.8406
770.0823
765.5987
760.375
754.4917
748.1542
741.7086
735.6323
730.4948
726.8917
725.3633
726.3122
729.9319
736.1589
744.6543
754.8179
765.8342
776.7481
786.5781
794.464
799.8341
802.5467
802.9436
801.766
799.9304
798.2263
804.0282
803.8411
803.7351
803.5859
803.4087
803.1951
802.9443
802.6544
802.3247
801.9551
801.5454
801.0946
800.6006
800.0596
799.4657
798.8117
798.0893
797.2913
796.4125
795.4516
794.4114
793.2984
792.1209
790.8869
789.6008
788.2605
786.8534
785.3521
783.7109
781.8616
779.7136
777.157
774.0739
770.3558
765.9275
760.7768
754.9835
748.7446
742.3884
736.3669
731.2236
727.5347
725.8326
726.5255
729.825
735.6949
743.828
753.657
764.4015
775.1483
784.9634
793.0273
798.7754
802.0138
802.9662
802.2217
800.5774
798.8206
797.5294
796.9637
803.8423
803.5647
803.4084
803.1946
802.9505
802.667
802.3443
801.9814
801.5778
801.1325
800.6435
800.1071
799.5178
798.8688
798.1527
797.3623
796.4925
795.5416
794.5114
793.4079
792.2388
791.0124
789.7336
788.4005
787.001
785.5078
783.8753
782.0361
779.9012
777.3636
774.3087
770.6311
766.2588
761.1803
755.4729
749.326
743.0526
737.0833
731.9379
728.1725
726.3096
726.7597
729.7496
735.2682
743.0409
752.5376
763.0171
773.6061
783.4083
791.6302
797.7069
801.4013
802.8486
802.5209
801.1112
799.363
797.9023
797.1329
797.2311
798.2105
803.5561
803.1773
802.9634
802.6779
802.3624
802.0058
801.6088
801.1696
800.6862
800.1549
799.5707
798.927
798.2168
797.4336
796.5723
795.6309
794.6108
793.5171
792.3573
791.1393
789.8683
788.5428
787.1509
785.6657
784.0417
782.2127
780.091
777.5724
774.5456
770.9088
766.5923
761.5847
755.9603
749.9005
743.7046
737.7847
732.6388
728.8041
726.7914
727.0112
729.7026
734.8784
742.2963
751.4644
761.6818
772.1144
781.8985
790.2594
796.6271
800.7272
802.6233
802.6948
801.547
799.8743
798.3154
797.3474
797.2554
798.1759
800.1773
803.2997
803.156
802.6651
802.3887
802.0275
801.6377
801.2041
800.7267
800.2011
799.6225
798.9846
798.2806
797.5042
796.6508
795.7182
794.7076
793.6236
792.4732
791.2641
790.0013
788.6836
787.2995
785.8224
784.2074
782.3891
780.2814
777.7825
774.7843
771.1882
766.9268
761.9889
756.4452
750.4691
744.347
738.4738
733.3282
729.4295
727.2765
727.2776
729.6822
734.5249
741.5952
750.439
760.3958
770.6695
780.4265
788.9072
795.5348
800.0015
802.3108
802.7646
801.8937
800.3436
798.7492
797.6316
797.3488
798.1079
800.0204
803.1608
807.5861
813.2854
802.6306
802.0194
801.6775
801.2362
800.7659
800.2454
799.6728
799.0411
798.3437
797.5743
796.7284
795.8041
794.8024
793.7275
792.5863
791.3859
790.1313
788.8215
787.4451
785.976
784.3701
782.5629
780.47
777.9918
775.0231
771.4682
767.2616
762.3921
756.9269
751.0315
744.9804
739.1522
734.0078
730.0494
727.7641
727.5574
729.6867
734.2068
740.9376
749.4619
759.1589
769.2695
778.9884
787.5696
794.43
799.2313
801.9245
802.7457
802.1595
800.7649
799.1838
797.9628
797.5132
798.1003
799.8734
802.9096
807.2413
812.8473
819.6116
827.2812
801.9717
801.2332
800.8201
800.2889
799.7239
799.0976
798.4071
797.6451
796.8069
795.8905
794.8971
793.8308
792.6981
791.506
790.2594
788.9572
787.5881
786.1268
784.5298
782.7337
780.6558
778.199
775.2604
771.7472
767.5953
762.7932
757.4046
751.5878
745.6054
739.8209
734.6783
730.6642
728.254
727.8494
729.7147
733.9231
740.3229
748.5328
757.9705
767.9129
777.5821
786.2453
793.3136
798.4216
801.4743
802.6489
802.3514
801.136
799.6061
798.3214
797.7318
798.1508
799.7662
802.6689
806.8787
812.3466
818.9321
826.3711
834.2662
842.1426
801.1695
800.291
799.7938
799.1545
798.4732
797.7178
796.8879
795.9797
794.9943
793.936
792.8112
791.6268
790.3875
789.0922
787.7301
786.2761
784.6875
782.9023
780.8396
778.4042
775.4961
772.0246
767.9271
763.1915
757.8781
752.1378
746.2222
740.4805
735.3408
731.2744
728.7458
728.1527
729.7651
733.6725
739.7501
747.6509
756.8299
766.5988
776.2067
784.934
792.1872
797.5771
800.9674
802.4828
802.4755
801.4566
800.0079
798.6932
797.9897
798.2507
799.7003
802.4499
806.5194
811.8455
818.2729
825.5348
833.2427
840.9049
847.9915
854.0629
800.2038
799.1614
798.5609
797.791
796.9725
796.0719
795.0953
794.0449
792.9275
791.75
790.5172
789.2282
787.8722
786.4248
784.8442
783.0696
781.0218
778.6079
775.7302
772.3002
768.2565
763.5864
758.3466
752.6812
746.8309
741.1315
735.9957
731.8805
729.2397
728.4667
729.8364
733.4535
739.218
746.8153
755.7362
765.3266
774.8618
783.6361
791.0528
796.7019
800.41
802.254
802.5365
801.7273
800.3839
799.0679
798.2754
798.3916
799.6739
802.2578
806.1714
811.3469
817.6207
824.7258
832.2883
839.8429
846.8785
852.9116
857.578
860.7354
799.0407
797.8026
797.0808
796.1641
795.2006
794.1576
793.0479
791.8768
790.6498
789.366
788.0153
786.5736
785.0002
783.2355
781.2023
778.8097
775.9623
772.5735
768.583
763.9774
758.8097
753.2174
747.4312
741.7737
736.6431
732.4826
729.7354
728.7909
729.9278
733.2648
738.725
746.0245
754.6884
764.0955
773.5473
782.3523
789.9124
795.7996
799.8069
801.9679
802.5387
801.9491
800.7306
799.4381
798.5797
798.566
799.6844
802.0954
805.8412
810.8566
816.9757
823.9324
831.3636
838.8265
845.8371
851.9316
856.7394
860.0508
861.8586
862.3694
797.6413
796.1808
795.3325
794.2701
793.1736
792.0078
790.7862
789.5068
788.1602
786.7232
785.156
783.4005
781.3811
779.0093
776.1917
772.8436
768.9056
764.3632
759.2663
753.7457
748.0224
742.4064
737.2824
733.08
730.2324
729.1243
730.038
733.1048
738.2695
745.277
753.6852
762.9049
772.2634
781.0837
788.7684
794.8736
799.1627
801.629
802.4854
802.1228
801.0456
799.7981
798.8951
798.7672
799.7283
801.9638
805.5333
810.3803
816.3412
823.1526
830.4608
837.8397
844.8273
850.978
855.9272
859.4512
861.5077
862.2403
861.946
861.0069
795.9814
794.293
793.3308
792.1397
790.9296
789.6522
788.3089
786.8752
785.313
783.5655
781.5591
779.2072
776.4186
773.1103
769.2237
764.7433
759.7156
754.2651
748.6035
743.029
737.9127
733.6717
730.7292
729.4652
730.1651
732.9714
737.8492
744.5707
752.7251
761.7539
771.0097
779.8311
787.6225
793.927
798.4811
801.2413
802.3797
802.2495
801.3271
800.1436
799.2157
798.9895
799.802
801.8627
805.2508
809.9222
815.7204
822.387
829.5764
836.8763
843.8416
850.042
855.1185
858.8379
861.1318
862.1068
862.0199
861.2255
860.1014
858.9705
794.0677
792.17
791.1114
789.8009
788.4668
787.033
785.4744
783.7334
781.7385
779.4053
776.6445
773.3748
769.5382
765.1182
760.1579
754.7758
749.1746
743.6411
738.5336
734.2571
731.2249
729.8123
730.3071
732.8622
737.4615
743.9032
751.8058
760.6407
769.7857
778.595
786.4765
792.9625
797.7654
800.8081
802.2241
802.33
801.574
800.471
799.5364
799.2277
799.9018
801.791
804.9952
809.4859
815.1166
821.6366
828.7088
835.9321
842.8752
849.1199
854.312
858.2109
860.7269
861.9336
862.0518
861.4041
860.3526
859.2313
858.2919
857.6674
791.93
789.8386
788.6705
787.1964
785.6472
783.9082
781.9232
779.6067
776.8721
773.6394
769.8511
765.4896
760.5948
755.2793
749.737
744.2438
739.146
734.8365
731.7192
730.1649
730.4627
732.7754
737.1045
743.272
750.9253
759.564
768.5905
777.3756
785.3316
791.9823
797.0187
800.3325
802.021
802.3655
801.7852
800.7774
799.8531
799.4773
800.0242
801.7472
804.7674
809.0736
814.5325
820.9032
827.8575
835.0047
841.9247
848.2088
853.5066
857.5717
860.2958
861.7245
862.0451
861.5504
860.5824
859.4709
858.4795
857.7725
857.4058
857.343
789.5739
787.2401
785.8727
784.0902
782.1207
779.8158
777.1054
773.9073
770.1651
765.8599
761.0285
755.7774
750.2925
744.8389
739.7513
735.4111
732.2131
730.5231
730.6317
732.7103
736.7766
742.6758
750.0819
758.5224
767.4238
776.1733
784.1892
790.9886
796.2436
799.8172
801.7726
802.3568
801.9601
801.0607
800.1621
799.7344
800.1658
801.7294
804.5673
808.6871
813.9704
820.1884
827.0228
834.0927
840.9875
847.3062
852.7014
856.9208
859.8408
861.482
862.0019
861.6649
860.7925
859.7071
858.6795
857.8922
857.4257
857.2678
857.3419
857.544
786.8988
784.1377
782.3775
780.0324
777.3518
774.1822
770.4837
766.2321
761.4614
756.2726
750.8432
745.4284
740.3514
735.9827
732.7079
730.888
730.8144
732.6666
736.4775
742.1137
749.275
757.5155
766.2853
774.9887
783.0507
789.9835
795.4427
799.2648
801.4809
802.3049
802.0983
801.3188
800.4605
799.9954
800.3234
801.7357
804.3945
808.3272
813.4321
819.4939
826.2055
833.1956
840.0622
846.4106
851.8953
856.2588
859.3638
861.2086
861.924
861.7475
860.9804
859.9358
858.888
858.0344
857.4776
857.2282
857.2261
857.3726
857.5644
857.7232
783.6214
780.0827
777.6653
774.4632
770.8144
766.6092
761.8966
756.7671
751.3913
746.0142
740.9481
736.5526
733.2047
731.2603
731.0114
732.6445
736.2068
741.5853
748.5041
756.543
765.1756
773.8229
781.9179
788.9694
794.6186
798.6779
801.1481
802.2111
802.1998
801.5503
800.7455
800.2572
800.4941
801.7638
804.2482
807.9944
812.9189
818.8212
825.4065
832.3134
839.1479
845.5209
851.0878
855.5863
858.8662
860.9063
861.8129
861.7987
861.1448
860.1535
859.0999
858.1931
857.5551
857.218
857.1405
857.2353
857.401
857.55
857.628
857.6219
779.2753
774.5184
771.2239
766.9885
762.3419
757.2639
751.9395
746.5983
741.5429
737.1222
733.7046
731.6408
731.2228
732.6439
735.9643
741.0901
747.7688
755.605
764.0949
772.6768
780.7924
787.9487
793.7742
798.0593
800.7764
802.0767
802.2645
801.754
801.0151
800.5168
800.675
801.8116
804.1272
807.6888
812.4317
818.1715
824.6267
831.4464
838.2445
844.6366
850.2787
854.9036
858.3495
860.5772
861.6706
861.8192
861.2847
860.3576
859.3113
858.3639
857.6537
857.2332
857.0794
857.1184
857.2542
857.3975
857.4864
857.4981
857.4503
857.3916
773.3504
767.0528
762.8832
757.7571
752.4966
747.1835
742.1386
737.6934
734.2088
732.0301
731.4491
732.6648
735.7496
740.6276
747.0687
754.7013
763.0436
771.5516
779.676
786.9237
792.9121
797.4116
800.3681
801.9031
802.293
801.9292
801.2674
800.7719
800.8636
801.877
804.0302
807.4101
811.971
817.5458
823.8671
830.5952
837.3519
843.7573
849.4678
854.2111
857.8147
860.2228
861.4987
861.81
861.3997
860.5459
859.5187
858.5425
857.7697
857.2708
857.0411
857.0206
857.1207
857.2524
857.3488
857.3789
857.3531
857.3201
857.3567
857.5482
765.5814
757.8312
753.1723
747.7595
742.7452
738.2685
734.7196
732.4295
731.6908
732.7071
735.5623
740.1973
746.4033
753.8315
762.022
770.448
778.5702
785.8963
792.0347
796.7374
799.9254
801.6919
802.2857
802.0753
801.5008
801.0203
801.0575
801.9578
803.9559
807.1577
811.5371
816.9449
823.1287
829.7605
836.4704
842.8831
848.6551
853.5094
857.263
859.8448
861.2988
861.7723
861.49
860.7172
859.7196
858.7257
857.8995
857.3281
857.024
856.9413
857.0005
857.1149
857.2139
857.2594
857.2535
857.2378
857.2869
857.4982
857.9778
858.8142
756.2927
747.833
743.4947
738.8326
735.2488
732.8412
731.95
732.7718
735.4028
739.7992
745.7724
752.9957
761.0303
769.3667
777.4763
784.8686
791.1443
796.039
799.4504
801.4446
802.2434
802.192
801.7141
801.2599
801.2544
802.052
803.9027
806.9309
811.1301
816.3694
822.4121
828.9429
835.6005
842.0143
847.8409
852.7987
856.6951
859.4443
861.0722
861.707
861.5557
860.8708
859.9121
858.9106
858.0401
857.4023
857.026
856.8799
856.8941
856.9857
857.0823
857.14
857.1527
857.1542
857.213
857.4232
857.8931
858.732
860.0346
861.8558
746.6217
738.88
735.9384
733.2469
732.2395
732.8606
735.2728
739.4338
745.1764
752.1941
760.069
768.3088
776.3958
783.8424
790.2432
795.3189
798.9452
801.1628
802.1668
802.2791
801.9062
801.4891
801.4523
802.1577
803.869
806.7287
810.7496
815.8195
821.7182
828.1433
834.7429
841.1512
847.0256
852.0797
856.1118
859.0223
860.8202
861.6151
861.5972
861.0059
860.0946
859.095
858.1889
857.4911
857.0456
856.8355
856.8013
856.8652
856.9546
857.0207
857.0503
857.0692
857.1392
857.3495
857.8056
858.6163
859.8809
861.6763
864.0434
866.9695
738.4361
733.2335
732.6895
732.9558
735.1857
739.103
744.6172
751.4276
759.1392
767.2753
775.3302
782.8197
789.3336
794.5793
798.4121
800.848
802.0567
802.3366
802.0764
801.7064
801.6492
802.2728
803.8533
806.5502
810.3954
815.2956
821.0474
827.3624
833.8982
840.2946
846.2096
851.3529
855.5139
858.5799
860.5437
861.4975
861.6148
861.1223
860.2659
859.2771
858.3438
857.5925
857.0813
856.8073
856.722
856.7539
856.8313
856.9021
856.9463
856.9823
857.0646
857.2772
857.7219
858.5059
859.7285
861.468
863.7701
866.6391
870.0315
873.8538
733.8739
732.8549
735.2323
738.7958
744.1076
750.699
758.2436
766.2683
774.2816
781.8029
788.4181
793.8227
797.8532
800.5022
801.9143
802.3648
802.2239
801.9105
801.8436
802.3956
803.854
806.3943
810.067
814.7977
820.4004
826.6008
833.0671
839.4451
845.3937
850.6191
854.9021
858.1179
860.2436
861.3548
861.6088
861.2194
860.4249
859.455
858.5027
857.7045
857.1316
856.7946
856.6563
856.6522
856.7131
856.7843
856.8405
856.8926
856.9881
857.2049
857.6406
858.4006
859.5837
861.2694
863.5057
866.3003
869.6139
873.3596
877.4088
881.6087
734.6203
738.6095
743.6753
750.0106
757.3935
765.2921
773.2541
780.7948
787.4994
793.0518
797.2711
800.1273
801.7409
802.3642
802.3485
802.1003
802.0338
802.5244
803.8696
806.2599
809.7638
814.3257
819.7774
825.8593
832.2506
838.6035
844.5786
849.8789
854.2773
857.6372
859.921
861.1878
861.5796
861.2973
860.5708
859.6275
858.6639
857.8253
857.1951
856.7966
856.604
856.5607
856.6007
856.6682
856.7332
856.8
856.9088
857.1312
857.5604
858.299
859.4452
861.0795
863.2526
865.9759
869.2148
872.8876
876.8683
880.9966
885.0957
889.0047
741.2061
749.7816
756.542
764.3668
772.2563
779.8019
786.5827
792.2705
796.6687
799.7256
801.538
802.3356
802.4502
802.2752
802.2187
802.6579
803.8987
806.1458
809.4851
813.8796
819.1788
825.1385
831.4493
837.7706
843.7651
849.1331
853.6404
857.1387
859.5764
860.9971
861.5275
861.3557
860.7029
859.7932
858.8258
857.9533
857.2703
856.8123
856.5648
856.4796
856.4948
856.5545
856.625
856.7044
856.8262
857.0553
857.48
858.1997
859.3117
860.8971
863.0093
865.6633
868.83
872.4333
876.3537
880.4357
884.5019
888.3701
891.8767
894.9109
752.661
764.17
771.1743
778.8621
785.6734
791.4867
796.0513
799.3007
801.3081
802.2802
802.5293
802.4347
802.3973
802.7946
803.94
806.051
809.2302
813.4591
818.6048
824.4389
830.6642
836.9473
842.9542
848.3828
852.9921
856.6232
859.2109
860.7835
861.4529
861.3945
860.8205
859.9512
858.987
858.0871
857.356
856.8409
856.5385
856.4091
856.3959
856.4439
856.5164
856.6063
856.7401
856.9764
857.3982
858.1014
859.1818
860.721
862.7746
865.3614
868.4574
871.9926
875.8538
879.8922
883.9351
887.8026
891.3253
894.3628
896.8215
898.6783
766.7206
778.7774
784.6156
790.7514
795.4211
798.8617
801.0557
802.2009
802.587
802.5789
802.5689
802.9336
803.9924
805.9745
808.9986
813.064
818.0557
823.7612
829.8959
836.1347
842.1468
847.6288
852.3334
856.0916
858.8251
860.5475
861.3562
861.4137
860.9233
860.1004
859.1462
858.2251
857.4509
856.8815
856.5246
856.3494
856.3047
856.3372
856.4082
856.5059
856.6506
856.8944
857.3146
858.0033
859.0545
860.55
862.5473
865.0691
868.0961
871.5642
875.3668
879.3611
883.3801
887.2476
890.7952
893.8796
896.3972
898.2945
899.5743
900.3011
780.5453
790.8281
794.6163
798.4636
800.7805
802.1064
802.6271
802.7098
802.734
803.0745
804.055
805.9156
808.7897
812.6941
817.5317
823.106
829.1453
835.3335
841.3439
846.8721
851.6653
855.5449
858.4198
860.2897
861.2375
861.4133
861.0107
860.24
859.3022
858.3662
857.5537
856.9331
856.5226
856.3004
856.2215
856.235
856.3011
856.4039
856.5579
856.8089
857.2285
857.9047
858.929
860.3832
862.3266
864.7853
867.7449
871.1471
874.8914
878.8413
882.8351
886.7004
890.2706
893.4011
895.9842
897.9592
899.3173
900.0995
900.3902
900.3071
791.6724
798.6966
800.3489
802.0471
802.6478
802.8354
802.8954
803.2189
804.1282
805.8739
808.6032
812.3495
817.0331
822.4737
828.4133
834.545
840.5468
846.1139
850.9889
854.9839
857.9959
860.0108
861.0975
861.3934
861.0824
860.3693
859.454
858.509
857.6633
856.9949
856.532
856.2621
856.1466
856.1378
856.1956
856.3007
856.4623
856.72
857.1398
857.805
858.8046
860.2199
862.1117
864.5093
867.403
870.7402
874.4266
878.3317
882.299
886.1602
889.7501
892.9236
895.5695
897.6214
899.0626
899.9255
900.2849
900.2466
899.9327
899.4652
798.8164
802.376
802.5656
802.9943
803.0524
803.3736
804.2146
805.8514
808.4398
812.0305
816.5603
821.8654
827.7009
833.7703
839.7565
845.3555
850.3053
854.4098
857.5544
859.7115
860.9364
861.3539
861.1381
860.4877
859.6008
858.6526
857.7786
857.0658
856.5522
856.2344
856.0803
856.0463
856.0925
856.197
856.3642
856.6278
857.048
857.7037
858.6807
860.0594
861.9019
864.2404
867.0698
870.3429
873.9716
877.8313
881.771
885.6259
889.233
892.4465
895.1524
897.2786
898.8014
899.7455
900.1777
900.1972
899.9217
899.4725
898.9607
898.4736
802.2076
803.3276
803.1729
803.5636
804.3157
805.8542
808.3028
811.7397
816.1152
821.2821
827.0095
833.0107
838.9747
844.5983
849.6159
853.8238
857.0962
859.3926
860.7549
861.2953
861.1778
860.5946
859.7417
858.796
857.8988
857.1452
856.5828
856.2169
856.0228
855.9609
855.9923
856.0933
856.2639
856.5324
856.9532
857.6004
858.5567
859.9012
861.6966
863.9781
866.7447
869.9547
873.5259
877.3397
881.2503
885.097
888.7186
891.9693
894.7321
896.9302
898.5331
899.5578
900.0637
900.1436
899.9105
899.4836
898.9749
898.4782
898.0613
897.7616
803.3629
803.8148
804.4354
805.8966
808.1965
811.4831
815.7015
820.7273
826.3413
832.2682
838.2029
843.8439
848.9223
853.2273
856.6226
859.0552
860.5535
861.2177
861.2013
860.6898
859.876
858.9383
858.0228
857.2323
856.6232
856.2097
855.9743
855.882
855.8958
855.9903
856.1621
856.4341
856.8554
857.495
858.4322
859.7446
861.4952
863.7217
866.4271
869.575
873.089
876.8564
880.7367
884.5729
888.2065
891.4913
894.3082
896.5758
898.2571
899.3619
899.9421
900.0841
899.8964
899.4957
898.9941
898.4874
898.0479
897.7209
897.525
897.4557
804.4192
806.0161
808.1337
811.2706
815.3261
820.2071
825.7012
831.5466
837.4441
843.0945
848.2263
852.6219
856.1349
858.7002
860.3332
861.1217
861.2089
860.773
860.0034
859.079
858.1501
857.3265
856.673
856.2126
855.935
855.8102
855.8035
855.8887
856.0592
856.3334
856.7547
857.3874
858.307
859.5892
861.2973
863.4708
866.1167
869.2036
872.6607
876.3812
880.2297
884.0536
887.6964
891.0125
893.8805
896.2148
897.9728
899.1568
899.8119
900.0179
899.8781
899.507
899.0162
898.5035
898.0448
897.6897
897.4617
897.3614
897.3725
897.4696
807.3114
811.2602
814.9832
819.7341
825.0969
830.8527
836.7036
842.3542
847.5309
852.0098
855.6349
858.329
860.0949
861.0079
861.2008
860.8441
860.1234
859.2173
858.2798
857.427
856.7318
856.2254
855.9049
855.7459
855.716
855.7892
855.9561
856.2307
856.6515
857.2776
858.1809
859.4348
861.1023
863.225
865.813
868.8399
872.2405
875.9137
879.7293
883.5389
887.1884
890.5327
893.4489
895.8473
897.6798
898.9422
899.6723
899.9436
899.8545
899.5162
899.0397
898.5244
898.0495
897.6692
897.4115
897.2812
897.2647
897.3373
897.47
897.6366
813.107
819.6407
824.4861
830.2068
835.9882
841.6302
846.8415
851.395
855.1253
857.9436
859.84
860.8772
861.1776
860.9034
860.2359
859.3531
858.4116
857.5336
856.7992
856.248
855.8844
855.6895
855.6341
855.6925
855.8533
856.1266
856.5459
857.1657
858.0538
859.281
860.9101
862.9839
865.5157
868.4838
871.8283
875.4538
879.2354
883.0287
886.6825
890.0522
893.0135
895.4734
897.3783
898.7177
899.5228
899.8605
899.8242
899.5218
899.0632
898.5488
898.0607
897.6574
897.3715
897.2124
897.1699
897.2213
897.3376
897.4898
897.654
897.8149
821.7132
830.1011
835.2165
840.953
846.1632
850.7851
854.6112
857.5476
859.5707
860.7311
861.14
860.9512
860.341
859.4861
858.5453
857.6458
856.8752
856.2805
855.8736
855.6414
855.5583
855.5994
855.7516
856.0217
856.4386
857.052
857.9256
859.1279
860.7204
862.7472
865.2246
868.135
871.424
875.0015
878.7479
882.5232
886.1787
889.5711
892.5746
895.0931
897.0683
898.4835
899.3631
899.768
899.7863
899.5225
899.085
898.5748
898.0767
897.6528
897.3404
897.1531
897.0847
897.1151
897.2163
897.3591
897.5174
897.6718
897.8111
897.933
832.0166
840.9023
845.3866
850.2187
854.0958
857.1489
859.2917
860.5727
861.0898
860.9885
860.4391
859.6164
858.6807
857.7637
856.9596
856.3229
855.8729
855.6024
855.4895
855.5106
855.6518
855.9167
856.33
856.9367
857.7966
858.9751
860.5329
862.5146
864.9393
867.7934
871.0274
874.5567
878.267
882.0225
885.6775
889.0896
892.1324
894.707
896.7502
898.2396
899.1933
899.666
899.7405
899.5176
899.1041
898.6013
898.0961
897.6541
897.3169
897.1024
897.0082
897.0169
897.1024
897.2357
897.3898
897.5434
897.6827
897.8014
897.8999
897.9846
842.3541
850.2643
853.4627
856.7893
859.0043
860.4097
861.0308
861.0177
860.5314
859.7445
858.818
857.8873
857.0526
856.3756
855.8828
855.5729
855.4283
855.4272
855.5549
855.8125
856.2207
856.8202
857.6667
858.8227
860.3475
862.286
864.6597
867.4587
870.6383
874.1194
877.7927
881.5267
885.1789
888.6081
891.6875
894.3152
896.4242
897.9863
899.0134
899.5542
899.6863
899.5066
899.1198
898.6273
898.1177
897.66
897.2997
897.0589
896.9392
896.9261
896.9951
897.1179
897.2671
897.4203
897.5618
897.6831
897.7826
897.8634
897.9323
897.9981
851.1102
856.9352
858.6081
860.2817
860.964
861.0462
860.6211
859.8726
858.9582
858.017
857.1544
856.4389
855.9038
855.5538
855.3758
855.3501
855.4619
855.71
856.1116
856.7033
857.5366
858.671
860.1641
862.0612
864.3855
867.1306
870.2567
873.6895
877.325
881.036
884.6832
888.127
891.24
893.9183
896.0907
897.7238
898.8236
899.4328
899.6236
899.4889
899.1314
898.652
898.1408
897.6696
897.2878
897.0219
896.8769
896.8416
896.8936
897.0051
897.1487
897.3009
897.4445
897.5694
897.6723
897.755
897.8226
897.8823
897.9412
898.0066
857.2161
860.4974
860.8208
861.1068
860.7097
860.0074
859.1041
858.1548
857.2661
856.5135
855.9365
855.5459
855.3329
855.2803
855.3737
855.6102
856.0037
856.5867
857.4067
858.5202
859.9829
861.8401
864.1165
866.8092
869.8824
873.267
876.864
880.5505
884.1907
887.6464
890.7904
893.5165
895.75
897.4524
898.6241
899.3016
899.5521
899.4644
899.1385
898.6748
898.1646
897.6822
897.2807
896.9905
896.8207
896.763
896.7972
896.8967
897.034
897.1845
897.3299
897.4584
897.5654
897.6512
897.7204
897.7792
897.8341
897.8912
897.9553
898.0306
860.3887
861.3415
860.7675
860.1724
859.2589
858.3069
857.3907
856.6015
855.9822
855.5501
855.3005
855.2191
855.2917
855.5142
855.8978
856.471
857.2776
858.3708
859.8043
861.623
863.853
866.4944
869.5154
872.852
876.4097
880.0705
883.7016
887.1669
890.339
893.1104
895.4026
897.1726
898.415
899.1608
899.4718
899.4326
899.1405
898.6952
898.1885
897.6972
897.2777
896.9644
896.77
896.6897
896.7055
896.7921
896.9221
897.0705
897.2174
897.3496
897.4608
897.5504
897.622
897.6815
897.7351
897.7889
897.8471
897.9128
897.9879
898.074
861.067
860.3753
859.4275
858.488
857.5334
856.7088
856.0445
855.569
855.2805
855.1677
855.2171
855.4234
855.795
856.3572
857.15
858.2232
859.6285
861.4101
863.5953
866.1864
869.156
872.4445
875.9624
879.5961
883.2162
886.6886
889.8863
892.7003
895.0489
896.8846
898.1967
899.0105
899.3826
899.3934
899.1373
898.7126
898.2119
897.714
897.2783
896.9429
896.7245
896.6214
896.6182
896.691
896.8129
896.9583
897.1061
897.2419
897.3577
897.4516
897.5264
897.5872
897.6406
897.6925
897.7474
897.8085
897.8772
897.9535
898.0374
898.1292
860.1229
858.6256
857.7233
856.8436
856.1305
855.6086
855.2769
855.1291
855.1519
855.3391
855.6968
856.2465
857.0248
858.078
859.4559
861.2016
863.3432
865.8855
868.8044
872.045
875.5226
879.1278
882.7349
886.2121
889.4328
892.2866
894.6892
896.5888
897.9694
898.8509
899.2847
899.3467
899.1284
898.7268
898.2345
897.7321
897.282
896.9258
896.6839
896.5579
896.5352
896.5933
896.7061
896.8476
896.9958
897.1348
897.2553
897.354
897.4326
897.4957
897.5495
897.6002
897.6527
897.7105
897.7751
897.8467
897.9245
898.007
898.0935
898.1844
858.4988
856.9082
856.2806
855.6732
855.2984
855.1092
855.1006
855.2647
855.6052
856.1405
856.9032
857.9364
859.2872
860.9979
863.097
865.5915
868.4607
871.6537
875.0905
878.6661
882.2584
885.738
888.9789
891.87
894.3242
896.2856
897.7334
898.6821
899.1779
899.2924
899.1137
898.7373
898.2557
897.751
897.2884
896.9126
896.6478
896.4991
896.4562
896.4989
896.6016
896.7382
896.8861
897.028
897.153
897.2567
897.3396
897.4057
897.4608
897.5111
897.5618
897.6168
897.6781
897.7462
897.8202
897.8986
897.9797
898.0619
898.1447
898.2294
856.9257
855.6802
855.3856
855.1119
855.0726
855.2058
855.5247
856.0421
856.7871
857.7995
859.1235
860.7999
862.8576
865.3052
868.1252
871.2708
874.6664
878.2115
881.7873
885.2669
888.5255
891.451
893.9543
895.9755
897.4892
898.5045
899.0625
899.2304
899.093