/*--------------------------------*- C++ -*----------------------------------*\
| =========                 |                                                 |
| \\      /  F ield         | OpenFOAM: The Open Source CFD Toolbox           |
|  \\    /   O peration     | Version:  2312                                  |
|   \\  /    A nd           | Website:  www.openfoam.com                      |
|    \\/     M anipulation  |                                                 |
\*---------------------------------------------------------------------------*/
FoamFile
{
    version     2.0;
    format      ascii;
    arch        "LSB;label=32;scalar=64";
    class       volScalarField;
    location    "500";
    object      ILambda_9_0;
}
// * * * * * * * * * * * * * * * * * * * * * * * * * * * * * * * * * * * * * //

dimensions      [1 0 -3 0 0 0 0];

internalField   nonuniform List<scalar> 
12000
(
875.9573
870.6621
867.9992
864.9902
862.4131
860.1701
858.3314
856.8989
855.8591
855.1757
854.7979
854.6665
854.7219
854.9107
855.1908
855.5338
855.9247
856.3583
856.8324
857.3396
857.8578
858.3415
858.7166
858.8782
858.6949
858.0184
856.6992
854.6061
851.6471
847.7901
843.0769
837.6308
831.6534
825.4106
819.209
813.3654
808.1734
803.8715
800.6166
798.4663
797.3704
797.1712
797.6113
798.3461
798.9626
799.0055
798.0131
795.5658
791.3492
785.225
777.2965
767.9501
757.8479
747.8553
738.8986
731.7726
726.9417
724.399
723.6502
723.8701
885.752
880.7311
877.6825
874.1139
870.6938
867.4239
864.4319
861.7974
859.5789
857.8039
856.4696
855.5453
854.9787
854.7037
854.65
854.7521
854.9579
855.2334
855.5653
855.9586
856.43
856.9975
857.6682
858.425
859.2149
859.9422
860.4673
860.614
860.1844
858.9817
856.8379
853.6422
849.3662
844.0806
837.9602
831.2747
824.3658
817.6128
811.3934
806.0428
801.8204
798.8844
797.2783
796.9262
797.6337
799.0912
800.8789
802.4768
803.2878
802.6836
800.0833
795.0629
787.4811
777.5925
766.1029
754.1235
742.9975
734.0072
728.021
725.1734
889.9865
886.0414
883.3524
880.0939
876.7426
873.3334
869.9958
866.839
863.9629
861.4466
859.3432
857.6762
856.4398
855.6011
855.1063
854.8884
854.8762
855.0031
855.2153
855.4772
855.7729
856.105
856.4879
856.9387
857.465
858.052
858.6517
859.1755
859.4926
859.4369
858.8211
857.459
855.1923
851.9182
847.6151
842.3578
836.3226
829.7763
823.0524
816.5155
810.5211
805.3762
801.3078
798.4434
796.8037
796.3049
796.7654
797.9105
799.3726
800.6899
801.3132
800.6351
798.0572
793.1005
785.5489
775.5944
763.9309
751.735
740.4762
731.5001
893.8294
891.0843
888.9329
886.2114
883.1957
879.9287
876.518
873.0765
869.7219
866.5668
863.7096
861.227
859.1686
857.5534
856.3708
855.5838
855.1351
854.9554
854.9731
855.1225
855.3523
855.6303
855.9445
856.3009
856.7165
857.2092
857.7853
858.4261
859.0774
859.6423
859.9804
859.9161
859.2542
857.8035
855.4053
851.9631
847.4672
842.0108
835.7928
829.104
822.2997
815.7601
809.8461
804.8583
801.0055
798.3878
796.9944
796.7128
797.3414
798.5978
800.1189
801.4533
802.0589
801.3217
798.6166
793.4205
785.4716
774.9383
762.5277
749.4132
896.0016
894.4889
893.0481
891.107
888.7557
886.0177
882.9554
879.6546
876.22
872.7677
869.4173
866.2815
863.4579
861.021
859.0167
857.4599
856.3354
855.6014
855.1965
855.0487
855.0843
855.2378
855.4594
855.7197
856.0107
856.343
856.7381
857.2178
857.7903
858.4375
859.1029
859.6847
860.0357
859.9717
859.2891
857.7896
855.3108
851.7569
847.1251
841.5211
835.1609
828.3547
821.4758
814.9177
809.0462
804.1569
800.4436
797.9845
796.7457
796.5957
797.3244
798.6531
800.2324
801.6274
802.3024
801.6281
798.934
793.6256
785.3611
774.2626
896.9413
896.4238
895.6775
894.5507
893.0008
891.0187
888.6132
885.8232
882.7141
879.3751
875.9141
872.45
869.1035
865.9876
863.1988
860.809
858.8607
857.3645
856.3005
855.6226
855.2658
855.155
855.2154
855.3814
855.6045
855.8579
856.1372
856.4566
856.8414
857.3161
857.8905
858.5459
859.2234
859.8162
860.1704
860.0941
859.376
857.8118
855.237
851.5583
846.7815
841.0267
834.5285
827.6177
820.6856
814.1378
808.3423
803.5852
800.0403
797.7585
796.6779
796.6459
797.4446
798.8043
800.3986
801.8204
802.5527
801.9629
799.3593
794.1826
896.9789
897.1115
896.9223
896.4936
895.715
894.5464
892.9508
890.9167
888.458
885.6165
882.4612
879.0853
875.5997
872.1257
868.7854
865.6918
862.94
860.5991
858.7077
857.2721
856.2676
855.6436
855.3315
855.2538
855.3344
855.5083
855.7287
855.9717
856.2367
856.5422
856.9169
857.3883
857.9676
858.6354
859.3296
859.9381
860.2996
860.2136
859.4603
857.8294
855.1535
851.3423
846.411
840.4955
833.8509
826.8301
819.8448
813.3131
807.6053
802.9965
799.6371
797.547
796.6319
796.7153
797.5707
798.9407
800.5299
801.9759
802.8207
802.5558
896.5473
896.9747
897.1372
897.191
897.0162
896.5554
895.7445
894.5334
892.8893
890.8024
888.2897
885.3964
882.1955
878.7835
875.275
871.7934
868.462
865.3937
862.6818
860.3926
858.5606
857.1874
856.2435
855.6739
855.4062
855.3607
855.4603
855.6404
855.8564
856.0874
856.3369
856.6273
856.9914
857.4595
858.0442
858.7253
859.4376
860.0632
860.4332
860.3381
859.5495
857.8501
855.0698
851.1216
846.0304
839.9489
833.1542
826.0231
818.9882
812.4815
806.8746
802.4299
799.2716
797.3843
796.6378
796.8288
797.7232
799.0825
800.6648
802.2165
896.0025
896.45
896.7599
897.0581
897.2541
897.2904
897.0982
896.6099
895.7634
894.509
892.8155
890.6753
888.1083
885.1635
881.9176
878.4711
874.9414
871.4544
868.1344
865.094
862.4245
860.1891
858.4181
857.1083
856.2252
855.7095
855.4852
855.4703
855.587
855.7716
855.9815
856.1993
856.4323
856.7074
857.0612
857.5268
858.118
858.8139
859.5458
860.1901
860.5696
860.4656
859.6404
857.8697
854.9806
850.8892
845.6314
839.3776
832.4286
825.1866
818.1069
811.6355
806.145
801.8829
798.9438
797.2731
796.7006
796.9942
797.9142
799.2491
895.5709
895.883
896.1872
896.5329
896.8749
897.1688
897.3596
897.3832
897.171
896.6546
895.7718
894.4736
892.7302
890.5363
887.9152
884.9194
881.6295
878.1498
874.6008
871.1108
867.8048
864.7949
862.1703
859.9908
858.2824
857.0368
856.2147
855.7522
855.5701
855.5841
855.716
855.903
856.1051
856.3083
856.524
856.7834
857.127
857.5907
858.1897
858.902
859.6553
860.32
860.7103
860.5978
859.7351
857.8904
854.8878
850.6471
845.2153
838.7826
831.6745
824.321
817.2013
810.7761
805.4186
801.359
798.6588
797.2193
796.8243
797.1991
895.3395
895.4734
895.6904
895.963
896.287
896.6371
896.981
897.2732
897.4572
897.468
897.2355
896.6907
895.7713
894.4289
892.6353
890.3877
887.7124
884.666
881.3329
877.8211
874.2546
870.7636
867.474
864.497
861.9196
859.7981
858.1537
856.9731
856.2119
855.802
855.6606
855.7018
855.847
856.0346
856.2271
856.4142
856.6117
856.855
857.1886
857.6512
858.2591
858.9892
859.7657
860.4524
860.8549
860.7344
859.8334
857.9121
854.7913
850.3947
844.7817
838.1627
830.8909
823.4253
816.271
809.9043
804.6976
800.8613
798.415
797.1898
895.2911
895.279
895.3925
895.5492
895.7721
896.0526
896.3809
896.7348
897.0803
897.3708
897.5483
897.5464
897.2938
896.7206
895.7645
894.3778
892.5336
890.232
887.5025
884.4055
881.0298
877.4871
873.9045
870.4144
867.1434
864.2017
861.6739
859.6121
858.0331
856.9181
856.2177
855.8593
855.7572
855.8237
855.98
856.1661
856.3473
856.5171
856.6955
856.9224
857.2461
857.7082
858.3261
859.0756
859.8769
860.5875
861.0037
860.8759
859.9358
857.9353
854.6917
850.1326
844.3302
837.5176
830.0769
822.4988
815.3157
809.0184
803.9689
800.3124
895.3578
895.2615
895.2958
895.3506
895.4595
895.6242
895.8506
896.1358
896.4687
896.8266
897.1743
897.4638
897.6358
897.6219
897.3498
896.7487
895.7558
894.3242
892.4289
890.0724
887.2881
884.1403
880.722
877.1492
873.552
870.0647
866.8146
863.9105
861.4345
859.4344
857.9218
856.8727
856.2326
855.9247
855.8602
855.9498
856.1151
856.2975
856.4655
856.6165
856.7749
856.9851
857.2992
857.7615
858.3905
859.1609
859.989
860.7254
861.157
861.0229
860.0434
857.9613
854.59
849.8613
843.8614
836.847
829.2312
821.536
814.3104
808.0031
895.4674
895.3431
895.3364
895.3291
895.3538
895.4151
895.5253
895.6932
895.9235
896.2138
896.5523
896.9156
897.2672
897.5574
897.725
897.7
897.4085
896.7787
895.7479
894.27
892.3221
889.9095
887.0694
883.8704
880.4099
876.8078
873.1976
869.7154
866.4886
863.6248
861.2027
859.2658
857.8206
856.8375
856.2571
855.9983
855.9694
856.0798
856.2515
856.4281
856.5811
856.712
856.8497
857.043
857.3477
857.811
858.4524
859.2453
860.1022
860.8666
861.3156
861.1764
860.1574
857.9914
854.4878
849.5821
843.375
836.1461
828.3308
820.4396
895.5709
895.4519
895.4361
895.4065
895.3897
895.3875
895.4118
895.474
895.5862
895.7577
895.9934
896.2909
896.6374
897.0082
897.365
897.6566
897.8198
897.7828
897.4704
896.8103
895.7398
894.2139
892.2118
889.7419
886.8453
883.5951
880.0931
876.4632
872.842
869.3672
866.1662
863.345
860.9788
859.1067
857.7297
856.8128
856.2912
856.0798
856.0842
856.2129
856.3886
856.5572
856.6935
856.8032
856.9197
857.096
857.3919
857.8571
858.5121
859.3292
860.217
861.0118
861.4805
861.338
860.2797
858.028
854.3871
849.2958
842.867
835.3984
895.6492
895.5453
895.5374
895.5112
895.487
895.4621
895.4439
895.4413
895.4657
895.5299
895.6462
895.824
896.0678
896.3743
896.7296
897.1079
897.4695
897.7613
897.9186
897.8681
897.5334
896.8413
895.7297
894.1544
892.0969
889.5691
886.6157
883.3146
879.772
876.1158
872.4854
869.0202
865.8474
863.071
860.7628
858.957
857.649
856.798
856.3341
856.1683
856.2037
856.3482
856.5256
856.6841
856.8023
856.89
856.985
857.1447
857.4324
857.9004
858.5703
859.4135
860.3344
861.1622
861.6534
861.51
860.414
858.0781
854.308
849.0833
895.7045
895.6107
895.614
895.6
895.5859
895.5647
895.5394
895.514
895.4957
895.4945
895.5221
895.591
895.7132
895.8982
896.1498
896.4644
896.8276
897.2122
897.5773
897.8684
898.0189
897.9539
897.5958
896.8709
895.717
894.0914
891.9778
889.3914
886.3812
883.0294
879.4469
875.7654
872.1275
868.674
865.5318
862.8027
860.5546
858.8165
857.5779
856.7925
856.3851
856.263
856.3271
856.4852
856.662
856.8088
856.9076
856.9727
857.0463
857.1897
857.4699
857.9418
858.6282
859.4992
860.4558
861.32
861.8385
861.7029
860.5954
858.2789
895.7484
895.6553
895.6652
895.6609
895.6593
895.6514
895.6372
895.6166
895.5924
895.5691
895.5536
895.5556
895.5868
895.6598
895.787
895.9776
896.2359
896.5577
896.9279
897.3184
897.6868
897.9768
898.1201
898.0401
897.6581
896.8994
895.7024
894.0255
891.8548
889.209
886.1413
882.7388
879.1168
875.4114
871.7679
868.3283
865.2192
862.5397
860.3535
858.6845
857.516
856.7959
856.444
856.3638
856.4546
856.6238
856.7981
856.9314
857.01
857.0521
857.1044
857.2322
857.5059
857.983
858.6875
859.5891
860.5857
861.496
862.0703
862.0457
895.7906
895.6921
895.7023
895.7011
895.7066
895.7096
895.7095
895.7041
895.6927
895.6754
895.6541
895.6332
895.6197
895.6236
895.6568
895.7326
895.8635
896.0592
896.3237
896.6525
897.0297
897.4261
897.7978
898.0866
898.2225
898.1272
897.7204
896.9271
895.6857
893.9562
891.7273
889.021
885.8953
882.442
878.7812
875.0531
871.4057
867.9825
864.909
862.2816
860.1597
858.5613
857.4637
856.8086
856.5111
856.471
856.5862
856.7642
856.9339
857.0524
857.1099
857.129
857.1606
857.2739
857.5426
858.0269
858.7526
859.6912
860.747
861.7669
895.8352
895.7301
895.737
895.7335
895.7396
895.7471
895.7557
895.7632
895.7674
895.7662
895.7581
895.7431
895.7232
895.7031
895.6901
895.6945
895.729
895.8069
895.9413
896.1419
896.4127
896.7486
897.1331
897.5355
897.9106
898.1982
898.3263
898.215
897.7827
896.9536
895.6666
893.8831
891.5944
888.8267
885.6423
882.1381
878.4392
874.6898
871.0409
867.6367
864.6016
862.0293
859.974
858.4478
857.4217
856.8313
856.5868
856.5849
856.7221
856.9067
857.0699
857.1724
857.2085
857.2052
857.2173
857.3178
857.5837
858.0786
858.8329
859.8268
895.8813
895.7719
895.7751
895.7677
895.7708
895.7774
895.7882
895.8014
895.8153
895.8274
895.8352
895.8364
895.8299
895.8156
895.7959
895.7755
895.7623
895.7669
895.8022
895.8822
896.02
896.2257
896.5029
896.8462
897.2381
897.6468
898.0252
898.3115
898.4315
898.3035
897.8446
896.9784
895.6443
893.8053
891.4556
888.6253
885.3818
881.8268
878.0908
874.3219
870.6738
867.2914
864.298
861.7835
859.7972
858.3448
857.3908
856.8646
856.6717
856.7059
856.8627
857.0518
857.2069
857.2927
857.3077
857.283
857.2772
857.3666
857.6303
858.1275
895.925
895.8144
895.8157
895.8057
895.8061
895.8102
895.8193
895.8324
895.8486
895.8665
895.884
895.8988
895.9085
895.9109
895.9048
895.8905
895.8703
895.8493
895.8356
895.8401
895.8763
895.9583
896.0997
896.3106
896.5944
896.9454
897.345
897.7601
898.1419
898.4265
898.5379
898.3925
897.9059
897.0013
895.6186
893.7226
891.3106
888.4169
885.1137
881.5085
877.7364
873.9498
870.305
866.9475
863.9988
861.5451
859.6301
858.2531
857.3715
856.909
856.7663
856.8346
857.0089
857.2006
857.3465
857.4152
857.4094
857.3639
857.3392
857.4055
895.9625
895.853
895.8546
895.8447
895.8447
895.8477
895.855
895.8659
895.8802
895.8977
895.9174
895.938
895.9576
895.974
895.9847
895.9877
895.9816
895.9668
895.9459
895.9241
895.9097
895.9141
895.9511
896.0353
896.1804
896.3967
896.6874
897.0463
897.4537
897.8753
898.2604
898.5432
898.6454
898.4817
897.9664
897.0222
895.5894
893.635
891.1594
888.2013
884.8382
881.1829
877.376
873.5737
869.9349
866.6054
863.7047
861.3148
859.4736
858.1735
857.365
856.9657
856.8719
856.9723
857.1622
857.3547
857.49
857.541
857.5139
857.4441
895.9926
895.8843
895.8875
895.8798
895.882
895.8866
895.8942
895.9041
895.9164
895.9313
895.9489
895.9689
895.9908
896.0131
896.0341
896.0514
896.0627
896.0658
896.0595
896.0442
896.0223
895.9996
895.9845
895.9889
896.0267
896.1131
896.2621
896.484
896.7818
897.1487
897.5642
897.9923
898.3806
898.6613
898.7539
898.5711
898.0259
897.0407
895.5564
893.5421
891.0016
887.9783
884.5549
880.8502
877.0096
873.1939
869.564
866.2658
863.4166
861.0938
859.3291
858.1076
857.373
857.0364
856.9899
857.1205
857.3235
857.5151
857.6402
857.6788
896.0166
895.9078
895.9126
895.9077
895.9136
895.9218
895.9323
895.9438
895.9563
895.9699
895.9851
896.0023
896.0218
896.0435
896.0667
896.0903
896.1122
896.1303
896.1419
896.145
896.1383
896.1222
896.0995
896.0757
896.06
896.0642
896.103
896.1917
896.3447
896.5722
896.8774
897.2525
897.6762
898.1109
898.5024
898.7806
898.863
898.6603
898.0842
897.0566
895.5194
893.4437
890.8371
887.7476
884.2639
880.5102
876.6377
872.8109
869.193
865.9298
863.1359
860.8837
859.1984
858.0574
857.397
857.1224
857.1216
857.2805
857.4974
857.697
896.0377
895.9257
895.9309
895.928
895.9373
895.9497
895.9645
895.9798
895.9951
896.0102
896.0253
896.0411
896.0579
896.0766
896.0973
896.1201
896.1444
896.1688
896.1915
896.21
896.2219
896.2249
896.2178
896.2009
896.1771
896.1523
896.1358
896.14
896.1796
896.2707
896.4278
896.6612
896.9738
897.3574
897.7894
898.2308
898.6254
898.9009
898.9726
898.7491
898.141
897.0697
895.4781
893.3396
890.6656
887.5093
883.9651
880.1634
876.2606
872.4254
868.823
865.5989
862.8644
860.6866
859.0833
858.0243
857.4385
857.2256
857.2714
857.465
896.0589
895.9416
895.9456
895.9428
895.9541
895.9697
895.9886
896.0083
896.0279
896.0468
896.0647
896.0818
896.0985
896.1154
896.1333
896.1528
896.1744
896.1981
896.2231
896.2482
896.2715
896.2905
896.3025
896.3053
896.2976
896.2799
896.255
896.2292
896.2119
896.2159
896.2565
896.35
896.5112
896.7507
897.071
897.4632
897.9037
898.3519
898.7496
899.0221
899.0826
898.8377
898.1964
897.0801
895.4326
893.2299
890.4875
887.2637
883.6591
879.8104
875.8793
872.0388
868.4558
865.2748
862.6037
860.5037
858.9853
858.0103
857.5002
857.3473
896.0821
895.9587
895.9602
895.9558
895.9672
895.9841
896.0054
896.0286
896.0524
896.0758
896.0981
896.1189
896.1383
896.1565
896.174
896.1917
896.2102
896.2303
896.2525
896.2768
896.3025
896.3283
896.3521
896.3714
896.3835
896.3861
896.3778
896.3591
896.3331
896.3061
896.288
896.2918
896.3334
896.4294
896.5949
896.8406
897.1687
897.5698
898.019
898.4742
898.875
899.1444
899.1932
898.926
898.2506
897.0879
895.3831
893.1149
890.3029
887.0112
883.3465
879.4519
875.495
871.6522
868.0923
864.9587
862.3552
860.3365
858.9035
857.9994
896.1078
895.9787
895.9772
895.9703
895.9801
895.9963
896.0181
896.0429
896.0694
896.0963
896.1229
896.1484
896.1722
896.1942
896.2144
896.2332
896.2512
896.2692
896.2881
896.3086
896.3313
896.3561
896.3824
896.4087
896.4329
896.4525
896.4647
896.467
896.458
896.4384
896.4112
896.3831
896.364
896.3677
896.4103
896.5088
896.6788
896.9309
897.2671
897.6774
898.1356
898.5979
899.0018
899.268
899.3047
899.0145
898.3038
897.0936
895.3301
892.9949
890.1124
886.7524
883.028
879.089
875.1083
871.2665
867.7336
864.6508
862.114
860.1524
896.1353
896.0022
895.9978
895.9882
895.9957
896.01
896.0305
896.055
896.0821
896.1107
896.14
896.1692
896.1974
896.2241
896.2489
896.2715
896.2921
896.3111
896.3293
896.3475
896.3666
896.3874
896.4105
896.4357
896.4625
896.4893
896.514
896.5339
896.5461
896.548
896.5384
896.5178
896.4894
896.46
896.4401
896.4437
896.4873
896.5885
896.763
897.0217
897.3664
897.7861
898.2537
898.7234
899.1305
899.3933
899.4174
899.1034
898.3565
897.0974
895.2738
892.8706
889.9167
886.4879
882.7042
878.722
874.7198
870.8812
867.3723
864.31
896.163
896.0278
896.0215
896.0099
896.0151
896.0272
896.0456
896.0684
896.0943
896.1227
896.1526
896.1836
896.2147
896.2452
896.2744
896.3019
896.3271
896.35
896.3708
896.3899
896.4081
896.4263
896.4455
896.4665
896.4899
896.5156
896.5428
896.5701
896.5953
896.6154
896.6276
896.6292
896.6189
896.5973
896.5677
896.5371
896.5163
896.5197
896.5644
896.6684
896.8477
897.1133
897.4668
897.8963
898.3735
898.8508
899.2613
899.5205
899.5317
899.1933
898.4092
897.1
895.2151
892.7425
889.7162
886.2181
882.3754
878.3503
874.3228
870.4606
896.1894
896.0538
896.0467
896.034
896.0378
896.0482
896.0645
896.0852
896.1092
896.1358
896.1647
896.1953
896.2271
896.2595
896.2918
896.3232
896.3531
896.381
896.4064
896.4294
896.4501
896.4691
896.4872
896.5054
896.5247
896.5459
896.5695
896.5956
896.6233
896.6511
896.6767
896.6972
896.7094
896.7107
896.6997
896.677
896.6461
896.6143
896.5926
896.5959
896.6418
896.7487
896.9331
897.2059
897.5684
898.0082
898.4954
898.9807
899.3946
899.6503
899.6483
899.2849
898.4626
897.1021
895.1545
892.6112
889.5113
885.9432
882.0391
877.9588
896.2136
896.0786
896.0715
896.0588
896.0622
896.0717
896.0868
896.1058
896.1279
896.1525
896.1794
896.2083
896.239
896.2711
896.3042
896.3376
896.3707
896.4027
896.433
896.461
896.4865
896.5094
896.5299
896.5488
896.5667
896.5848
896.604
896.6254
896.6493
896.6758
896.704
896.7324
896.7585
896.7792
896.7914
896.7924
896.7807
896.757
896.7249
896.6918
896.6693
896.6726
896.7198
896.8298
897.0194
897.2997
897.6716
898.122
898.6197
899.1133
899.531
899.7833
899.7679
899.3788
898.5174
897.1044
895.0928
892.4782
889.3063
885.6774
896.2353
896.1011
896.0945
896.0824
896.0862
896.0959
896.1107
896.129
896.15
896.1731
896.198
896.2248
896.2534
896.2838
896.3158
896.3491
896.3831
896.4172
896.4508
896.4832
896.5136
896.5417
896.5671
896.5898
896.6101
896.6287
896.6464
896.6643
896.6836
896.7051
896.7293
896.7562
896.785
896.8139
896.8405
896.8615
896.8738
896.8746
896.8622
896.8374
896.8041
896.7698
896.7464
896.7498
896.7984
896.9116
897.1068
897.3949
897.7767
898.2383
898.747
899.2494
899.6714
899.9203
899.8913
899.4761
898.5751
897.1103
895.041
892.3851
896.2541
896.1208
896.1149
896.1037
896.1084
896.1189
896.1343
896.1529
896.1738
896.1963
896.2201
896.2453
896.272
896.3002
896.3301
896.3616
896.3945
896.4286
896.4632
896.4979
896.5318
896.5644
896.5949
896.6229
896.6481
896.6705
896.6905
896.7088
896.7263
896.7441
896.7633
896.785
896.8095
896.8369
896.8663
896.8958
896.9229
896.9443
896.9567
896.9572
896.9442
896.9184
896.8838
896.8483
896.8242
896.8276
896.8778
896.9946
897.1955
897.4919
897.8842
898.3576
898.878
899.39
899.8166
900.0625
900.0204
899.5814
898.6509
897.1773
896.2704
896.1379
896.1326
896.1222
896.128
896.1395
896.156
896.1756
896.1973
896.2203
896.2441
896.2687
896.2942
896.3208
896.3486
896.3779
896.4087
896.4409
896.4746
896.5092
896.5443
896.5793
896.6134
896.6461
896.6766
896.7044
896.7293
896.7515
896.7711
896.7891
896.8063
896.824
896.8433
896.8651
896.89
896.9179
896.9479
896.9781
897.0057
897.0276
897.0401
897.0404
897.0267
897
896.9642
896.9276
896.9028
896.9065
896.9584
897.0789
897.2862
897.5915
897.995
898.481
899.0139
899.5362
899.9687
900.2149
900.1711
899.7527
896.2847
896.1527
896.1481
896.1385
896.145
896.1575
896.1751
896.196
896.2189
896.243
896.2679
896.293
896.3185
896.3445
896.371
896.3985
896.4272
896.4571
896.4885
896.5214
896.5555
896.5906
896.626
896.6612
896.6955
896.7282
896.7586
896.7862
896.8109
896.8327
896.852
896.8696
896.8866
896.9042
896.9235
896.9455
896.9708
896.9993
897.0299
897.0608
897.0891
897.1114
897.1241
897.1242
897.11
897.0823
897.0455
897.0078
896.9824
896.9866
897.0406
897.1655
897.3796
897.6945
898.1101
898.6096
899.1565
899.6925
900.1411
900.4231
896.2969
896.1657
896.1617
896.1528
896.16
896.1732
896.1917
896.2137
896.2379
896.2635
896.2897
896.3162
896.3427
896.3691
896.3957
896.4224
896.4497
896.4778
896.507
896.5375
896.5694
896.6026
896.6371
896.6725
896.7082
896.7436
896.778
896.8106
896.8409
896.8683
896.8926
896.914
896.933
896.9503
896.9671
896.9845
897.0039
897.0262
897.0519
897.081
897.1124
897.144
897.173
897.1959
897.2089
897.2089
897.1942
897.1657
897.1279
897.0893
897.0637
897.0687
897.1254
897.2551
897.4769
897.8022
898.2311
898.747
899.3151
899.8864
896.3067
896.1768
896.1737
896.1656
896.1733
896.1872
896.2064
896.2291
896.2544
896.2813
896.309
896.3371
896.365
896.3928
896.4202
896.4475
896.4747
896.502
896.5297
896.5582
896.5877
896.6186
896.6508
896.6844
896.7192
896.7549
896.7908
896.8263
896.8608
896.8933
896.9234
896.9506
896.9746
896.9956
897.0142
897.0312
897.0477
897.0651
897.0846
897.1072
897.1335
897.1632
897.1954
897.2279
897.2577
897.2812
897.2946
897.2946
897.2796
897.2505
897.212
897.173
897.1476
897.154
897.2138
897.3491
897.5794
897.9172
898.3633
898.9042
896.3142
896.186
896.184
896.1768
896.1853
896.1998
896.2196
896.243
896.269
896.2969
896.3258
896.3552
896.3847
896.414
896.443
896.4715
896.4996
896.5273
896.5548
896.5825
896.6105
896.6392
896.6691
896.7002
896.7327
896.7666
896.8017
896.8376
896.8737
896.9094
896.9438
896.9763
897.0062
897.033
897.0567
897.0774
897.0956
897.1123
897.1287
897.146
897.1656
897.1886
897.2154
897.246
897.2791
897.3125
897.3433
897.3676
897.3816
897.3819
897.3669
897.3376
897.2988
897.2599
897.2352
897.2435
897.3072
897.4493
897.6899
898.0404
896.32
896.1934
896.1926
896.1865
896.1959
896.2111
896.2316
896.2556
896.2824
896.3109
896.3407
896.3711
896.4018
896.4325
896.463
896.4931
896.5227
896.5516
896.5801
896.6081
896.6358
896.6636
896.6918
896.7208
896.7508
896.7821
896.8149
896.8491
896.8845
896.9206
896.9569
896.9926
897.0271
897.0595
897.0892
897.1158
897.1391
897.1594
897.1773
897.1937
897.2099
897.2272
897.2471
897.2705
897.2981
897.3295
897.3636
897.3983
897.4302
897.4556
897.4705
897.4715
897.4571
897.4282
897.3897
897.3513
897.3278
897.3389
897.4072
897.5538
896.3259
896.1997
896.1997
896.1945
896.2048
896.2209
896.2423
896.2671
896.2946
896.3238
896.3542
896.3853
896.4169
896.4486
896.4803
896.5117
896.5429
896.5734
896.6034
896.6326
896.6613
896.6894
896.7173
896.7452
896.7736
896.8027
896.8329
896.8644
896.8975
896.9319
896.9675
897.0038
897.0403
897.0761
897.1106
897.1429
897.1724
897.1987
897.2217
897.2416
897.2592
897.2754
897.2915
897.3089
897.3291
897.3531
897.3815
897.414
897.4495
897.4856
897.5191
897.546
897.5625
897.5648
897.5514
897.5233
897.4856
897.4485
897.4272
897.4402
896.334
896.2062
896.2065
896.2014
896.2122
896.2291
896.2514
896.2772
896.3055
896.3355
896.3666
896.3983
896.4304
896.4628
896.4953
896.5278
896.5601
896.5922
896.6237
896.6546
896.6848
896.7142
896.743
896.7712
896.7992
896.8272
896.8556
896.8848
896.9152
896.947
896.9802
897.0149
897.0508
897.0873
897.1239
897.1599
897.1943
897.2265
897.2558
897.2818
897.3045
897.3241
897.3414
897.3575
897.3736
897.3912
897.4119
897.4367
897.4663
897.5002
897.5374
897.5755
897.6111
897.6403
897.6588
897.6629
897.6511
897.6247
897.5894
897.5557
896.3475
896.2155
896.2148
896.2085
896.2191
896.2362
896.2591
896.2857
896.3149
896.3458
896.3776
896.41
896.4427
896.4756
896.5087
896.5418
896.575
896.6081
896.641
896.6734
896.7052
896.7364
896.7667
896.7962
896.8251
896.8533
896.8813
896.9094
896.9379
896.9672
896.9978
897.0297
897.0632
897.0982
897.1343
897.171
897.2078
897.2438
897.2783
897.3104
897.3395
897.3653
897.3877
897.4071
897.4242
897.4402
897.4565
897.4746
897.4961
897.522
897.5531
897.589
897.6286
897.6693
897.7077
897.7395
897.7605
897.7675
897.7595
897.7395
896.3695
896.2304
896.2272
896.2183
896.2272
896.2434
896.266
896.2928
896.3226
896.3542
896.3868
896.42
896.4534
896.487
896.5207
896.5544
896.5882
896.622
896.6557
896.6892
896.7224
896.7552
896.7872
896.8185
896.849
896.8786
896.9074
896.9357
896.9637
896.9918
897.0204
897.0498
897.0805
897.1127
897.1464
897.1816
897.218
897.255
897.2919
897.3281
897.3626
897.3946
897.4236
897.4492
897.4715
897.4908
897.5079
897.5241
897.5408
897.5597
897.5824
897.6101
897.6433
897.6818
897.7242
897.7679
897.8096
897.8451
897.8713
897.8872
896.4032
896.2544
896.2471
896.2336
896.2392
896.2529
896.2738
896.2998
896.3293
896.3611
896.3942
896.4281
896.4623
896.4967
896.5311
896.5655
896.5999
896.6342
896.6686
896.7029
896.737
896.7709
896.8044
896.8374
896.8696
896.901
896.9316
896.9612
896.99
897.0183
897.0463
897.0744
897.103
897.1326
897.1634
897.1958
897.2298
897.2653
897.3019
897.3392
897.3764
897.4127
897.4472
897.4793
897.5083
897.5339
897.5562
897.5756
897.593
897.6097
897.6273
897.6476
897.6721
897.702
897.7378
897.7793
897.8251
897.873
897.9205
897.9661
896.4506
896.2904
896.2775
896.2577
896.2582
896.2675
896.2852
896.3087
896.3366
896.3675
896.4003
896.4344
896.4692
896.5043
896.5395
896.5748
896.6099
896.645
896.68
896.7149
896.7497
896.7844
896.8189
896.8531
896.8869
896.92
896.9524
896.9838
897.0144
897.044
897.0728
897.101
897.129
897.1571
897.1858
897.2155
897.2465
897.2791
897.3134
897.3492
897.3862
897.4238
897.4613
897.4978
897.5326
897.5649
897.5941
897.6199
897.6424
897.6622
897.6803
897.6981
897.7171
897.7392
897.7659
897.7984
897.8374
897.883
897.9348
897.9926
896.5118
896.3405
896.3208
896.2935
896.2872
896.2906
896.303
896.3223
896.3468
896.3753
896.4066
896.4399
896.4745
896.5099
896.5458
896.5819
896.618
896.6539
896.6897
896.7254
896.7608
896.7962
896.8314
896.8665
896.9013
896.9357
896.9697
897.0029
897.0353
897.0668
897.0974
897.1269
897.1557
897.1838
897.2118
897.2399
897.2687
897.2985
897.3298
897.3627
897.3973
897.4335
897.4709
897.509
897.5469
897.5839
897.6191
897.6518
897.6814
897.7077
897.7309
897.7515
897.7708
897.79
897.8109
897.8351
897.8646
897.9008
897.9455
898.0004
896.5845
896.4045
896.3779
896.3429
896.329
896.3249
896.3306
896.3438
896.3632
896.3875
896.4156
896.4466
896.4798
896.5145
896.5504
896.587
896.6238
896.6607
896.6975
896.7341
896.7704
896.8066
896.8425
896.8783
896.9138
896.9491
896.9841
897.0187
897.0528
897.0861
897.1185
897.15
897.1805
897.21
897.2387
897.2668
897.2948
897.323
897.3518
897.3819
897.4134
897.4467
897.4818
897.5185
897.5565
897.5952
897.6337
897.6714
897.7072
897.7405
897.7709
897.7981
897.8223
897.8443
897.8651
897.8862
897.9094
897.9369
897.9715
898.0163
896.6631
896.4798
896.4473
896.4058
896.3843
896.3725
896.3704
896.3762
896.3889
896.4073
896.4303
896.4573
896.4875
896.5202
896.5549
896.5909
896.628
896.6654
896.7031
896.7407
896.7781
896.8152
896.8521
896.8886
896.9249
896.9609
896.9966
897.0321
897.0673
897.102
897.1361
897.1694
897.2019
897.2334
897.2638
897.2933
897.3219
897.35
897.378
897.4063
897.4353
897.4656
897.4975
897.5313
897.567
897.6044
897.6432
897.6826
897.7221
897.7606
897.7974
897.8318
897.8633
897.8918
897.9175
897.9412
897.964
897.988
898.0159
898.0515
896.7376
896.5602
896.5245
896.4795
896.452
896.4333
896.4236
896.4216
896.4266
896.4377
896.4542
896.4754
896.5008
896.5297
896.5616
896.5958
896.6318
896.669
896.707
896.7453
896.7836
896.8219
896.8598
896.8974
896.9346
896.9713
897.0078
897.0439
897.0798
897.1154
897.1506
897.1854
897.2196
897.253
897.2855
897.3169
897.3473
897.3767
897.4053
897.4335
897.4615
897.4899
897.5193
897.55
897.5824
897.6169
897.6533
897.6916
897.7314
897.7719
897.8125
897.8523
897.8905
897.9264
897.9595
897.9896
898.0173
898.0437
898.071
898.1028
896.7941
896.6353
896.6011
896.5576
896.5278
896.5048
896.4892
896.4802
896.4775
896.4809
896.4899
896.504
896.5231
896.5465
896.5738
896.6045
896.6379
896.6735
896.7106
896.7487
896.7874
896.8265
896.8655
896.9042
896.9425
896.9802
897.0176
897.0545
897.091
897.1272
897.1632
897.1989
897.2342
897.2691
897.3033
897.3367
897.3692
897.4006
897.431
897.4604
897.4891
897.5173
897.5455
897.5742
897.6039
897.6352
897.6683
897.7036
897.7411
897.7805
897.8215
897.8636
897.9058
897.9473
897.9872
898.025
898.0601
898.0931
898.1252
898.1595
896.8142
896.6904
896.6642
896.63
896.6037
896.5811
896.5631
896.5496
896.541
896.5374
896.5389
896.5455
896.5571
896.5737
896.595
896.6204
896.6494
896.6816
896.7163
896.7529
896.7909
896.8299
896.8694
896.9089
896.9483
896.9872
897.0257
897.0636
897.1009
897.1379
897.1745
897.2108
897.2468
897.2826
897.318
897.3529
897.3871
897.4206
897.4531
897.4846
897.515
897.5445
897.5733
897.6017
897.6302
897.6593
897.6896
897.7216
897.7556
897.792
897.8308
897.8718
897.9146
897.9585
898.0027
898.0463
898.0886
898.1293
898.169
898.21
896.7765
896.7063
896.697
896.6818
896.6671
896.6522
896.6375
896.6242
896.6131
896.605
896.6005
896.6003
896.6046
896.6138
896.6278
896.6466
896.6697
896.6967
896.7272
896.7606
896.7963
896.8339
896.8728
896.9124
896.9523
896.9922
897.0317
897.0708
897.1093
897.1472
897.1846
897.2215
897.2582
897.2945
897.3306
897.3664
897.4019
897.4369
897.4712
897.5048
897.5374
897.569
897.5995
897.6292
897.6581
897.6869
897.7158
897.7455
897.7766
897.8095
897.8448
897.8828
897.9234
897.9664
898.0113
898.0575
898.1043
898.1511
898.1982
898.2472
896.6576
896.661
896.6788
896.6943
896.7016
896.7035
896.7005
896.6943
896.6864
896.6783
896.6713
896.6665
896.6649
896.6673
896.6741
896.6855
896.7016
896.7221
896.7468
896.7751
896.8068
896.8413
896.878
896.9163
896.9558
896.9958
897.0359
897.0759
897.1155
897.1546
897.1931
897.231
897.2684
897.3053