/*--------------------------------*- C++ -*----------------------------------*\
| =========                 |                                                 |
| \\      /  F ield         | OpenFOAM: The Open Source CFD Toolbox           |
|  \\    /   O peration     | Version:  2312                                  |
|   \\  /    A nd           | Website:  www.openfoam.com                      |
|    \\/     M anipulation  |                                                 |
\*---------------------------------------------------------------------------*/
FoamFile
{
    version     2.0;
    format      ascii;
    arch        "LSB;label=32;scalar=64";
    class       volScalarField;
    location    "500";
    object      ILambda_10_0;
}
// * * * * * * * * * * * * * * * * * * * * * * * * * * * * * * * * * * * * * //

dimensions      [1 0 -3 0 0 0 0];

internalField   nonuniform List<scalar> 
12000
(
827.3982
822.7834
820.3758
817.5167
814.8586
812.2854
809.8569
807.5898
805.5067
803.6247
801.9574
800.514
799.2993
798.3133
797.5517
797.0055
796.6613
796.5015
796.5046
796.6455
796.8957
797.2234
797.5944
797.9719
798.317
798.5895
798.7478
798.7499
798.5538
798.1189
797.4063
796.3801
795.0092
793.268
791.1384
788.6108
785.6861
782.3765
778.7065
774.7135
770.4478
765.9723
761.3608
756.6963
752.0679
747.5676
743.2867
739.3109
735.7155
732.5618
729.8927
727.7297
726.0707
724.8897
724.1376
723.7454
723.6287
723.6942
723.8477
724.0064
845.9093
841.8575
839.4234
836.4584
833.468
830.379
827.2484
824.1073
820.9934
817.9433
814.9931
812.1769
809.5264
807.0703
804.8334
802.8363
801.0948
799.6199
798.4176
797.489
796.8299
796.4317
796.281
796.3597
796.6455
797.1121
797.729
798.4615
799.2712
800.1156
800.9484
801.7198
802.3767
802.8633
803.1219
803.0943
802.7233
801.9544
800.7383
799.0333
796.8083
794.0452
790.742
786.9146
782.5993
777.8529
772.7533
767.398
761.9016
756.3916
751.0031
745.8725
741.1299
736.891
733.2496
730.27
727.9812
726.3728
725.3928
724.9437
852.8764
850.2981
848.5829
846.437
844.1414
841.6534
839.0037
836.2129
833.3083
830.3198
827.2799
824.2229
821.1841
818.1986
815.3012
812.5248
809.8998
807.4537
805.21
803.1882
801.4032
799.8653
798.5797
797.5474
796.7645
796.2232
795.9115
795.8138
795.9113
796.1816
796.5994
797.1363
797.7605
798.4369
799.1267
799.7875
800.3728
800.8325
801.113
801.1581
800.9101
800.3113
799.3064
797.8447
795.8834
793.391
790.3503
786.7619
782.6473
778.0507
773.0404
767.7089
762.171
756.5606
751.0254
745.7204
740.7986
736.401
732.6421
729.5807
857.9109
856.6863
855.7309
854.4811
853.0318
851.36
849.4695
847.3649
845.0561
842.5577
839.8888
837.073
834.1377
831.1139
828.0352
824.9372
821.8563
818.8294
815.8923
813.0793
810.4218
807.948
805.6821
803.6438
801.8479
800.3041
799.0171
797.9868
797.2083
796.6726
796.3669
796.2746
796.3765
796.6505
797.0716
797.6128
798.2441
798.9326
799.6424
800.3337
800.9632
801.4828
801.8409
801.9816
801.8463
801.3746
800.5065
799.1847
797.3579
794.9843
792.0358
788.5014
784.3918
779.7421
774.6145
769.0992
763.3137
757.3993
751.513
745.8054
859.4282
859.251
858.9776
858.562
857.9762
857.2073
856.2389
855.0593
853.6595
852.0348
850.1844
848.1124
845.8278
843.3443
840.6808
837.8606
834.9113
831.8643
828.7539
825.6167
822.4903
819.4129
816.4216
813.552
810.8372
808.3064
805.9849
803.8931
802.0465
800.455
799.1234
798.0515
797.234
796.6618
796.3216
796.1972
796.2694
796.5169
796.9163
797.4421
798.0667
798.7604
799.4903
800.2202
800.9097
801.5137
801.9822
802.2602
802.2879
802.0016
801.3361
800.2262
798.6103
796.4345
793.6565
790.2507
786.2134
781.5666
776.3637
770.6954
859.0266
859.3587
859.491
859.5973
859.6083
859.5156
859.2963
858.931
858.4002
857.6858
856.772
855.6453
854.2956
852.7166
850.9066
848.8685
846.61
844.1445
841.4901
838.67
835.712
832.6477
829.5121
826.3428
823.1785
820.0586
817.0217
814.1048
811.3421
808.7641
806.397
804.2619
802.3744
800.7445
799.3769
798.2705
797.4196
796.8142
796.4405
796.2817
796.3188
796.5308
796.8955
797.3894
797.9876
798.6637
799.3887
800.1309
800.8545
801.5187
802.0771
802.4768
802.6588
802.5581
802.1051
801.2278
799.8549
797.9211
795.3758
792.2053
857.9422
858.349
858.6084
858.9018
859.1721
859.415
859.6126
859.748
859.802
859.7548
859.5856
859.2736
858.7985
858.1411
857.2841
856.2127
854.9154
853.3845
851.6167
849.6138
847.3826
844.9353
842.2897
839.4687
836.5002
833.4162
830.2527
827.048
823.8424
820.6767
817.5911
814.6243
811.8118
809.1858
806.7732
804.596
802.6702
801.0058
799.6068
798.4717
797.5936
796.9612
796.5597
796.3714
796.3765
796.5541
796.8825
797.3398
797.9036
798.5507
799.2567
799.9948
800.7346
801.441
802.0729
802.5818
802.9118
803.0004
802.7824
802.2067
857.0129
857.2869
857.4998
857.7573
858.0313
858.3218
858.6213
858.9213
859.2108
859.4767
859.7036
859.8743
859.9696
859.969
859.8514
859.5949
859.1782
858.581
857.7844
856.7723
855.5314
854.0525
852.3308
850.3666
848.1657
845.7393
843.1044
840.2838
837.3053
834.2016
831.0091
827.7677
824.5189
821.3052
818.1687
815.1497
812.2856
809.61
807.1512
804.932
802.969
801.2721
799.845
798.685
797.7843
797.1299
796.7054
796.4915
796.4673
796.6112
796.9016
797.3175
797.8386
798.4449
799.1164
799.8319
800.5675
801.2957
801.9855
802.6059
856.4648
856.6098
856.7359
856.892
857.0675
857.267
857.491
857.7396
858.0111
858.3021
858.6068
858.9174
859.2233
859.512
859.7681
859.9745
860.1118
860.1592
860.0947
859.8958
859.54
859.0056
858.2723
857.3224
856.1409
854.7171
853.0445
851.1219
848.9537
846.5502
843.9277
841.1084
838.1204
834.9966
831.7744
828.4949
825.201
821.9371
818.7472
815.6736
812.7557
810.0288
807.5228
805.2617
803.2627
801.5357
800.0841
798.9042
797.9867
797.3168
796.876
796.643
796.5951
796.7092
796.9632
797.3363
797.8099
798.3671
798.9929
799.6729
856.1338
856.2437
856.3276
856.4246
856.5253
856.6358
856.7595
856.9007
857.0632
857.2502
857.4637
857.7046
857.972
858.2631
858.5728
858.8938
859.2163
859.5278
859.8134
860.056
860.236
860.3322
860.322
860.182
859.8887
859.4191
858.7514
857.8662
856.747
855.3811
853.7605
851.8823
849.7495
847.3711
844.7627
841.946
838.949
835.8049
832.5522
829.2328
825.8915
822.5746
819.3281
816.1966
813.2219
810.4412
807.8864
805.5827
803.5482
801.7934
800.3209
799.1264
798.1986
797.521
797.0725
796.8292
796.7661
796.8581
797.0815
797.4139
855.814
855.9401
856.0334
856.132
856.2234
856.3102
856.3939
856.4776
856.5652
856.6612
856.7703
856.8972
857.0462
857.2211
857.4246
857.6581
857.9215
858.2126
858.5271
858.8581
859.1965
859.5302
859.8447
860.1228
860.345
860.4899
860.5343
860.4539
860.2242
859.8209
859.2209
858.4029
857.3487
856.0439
854.4784
852.6477
850.5532
848.2026
845.6104
842.7978
839.7924
836.6281
833.3437
829.9826
826.5914
823.2182
819.9116
816.7187
813.6837
810.8463
808.2405
805.8932
803.8238
802.0431
800.5538
799.3504
798.4202
797.7442
797.298
797.0506
855.5348
855.6087
855.7103
855.8152
855.9236
856.0278
856.1261
856.2168
856.2999
856.3767
856.4493
856.5211
856.5961
856.6792
856.7752
856.8892
857.026
857.1898
857.3837
857.6098
857.8687
858.1588
858.4766
858.8161
859.1687
859.5229
859.8647
860.177
860.4405
860.6334
860.7321
860.7115
860.5462
860.2107
859.6802
858.9318
857.9455
856.7048
855.1978
853.4179
851.3648
849.0449
846.4713
843.6645
840.6518
837.4671
834.1503
830.7459
827.3023
823.8698
820.4995
817.2414
814.1424
811.2452
808.5862
806.1945
804.0908
802.2865
800.7826
799.5639
855.6458
855.4823
855.5195
855.5518
855.6236
855.7105
855.8095
855.9132
856.0166
856.1159
856.2084
856.2928
856.3689
856.438
856.5023
856.5651
856.6302
856.7025
856.787
856.889
857.0135
857.1654
857.3486
857.5657
857.8181
858.1053
858.4244
858.7703
859.135
859.5078
859.875
860.2198
860.5229
860.7626
860.9148
860.954
860.8537
860.5869
860.1276
859.4511
858.5354
857.362
855.9169
854.1915
852.1836
849.8977
847.3457
844.547
841.5286
838.3244
834.9749
831.526
828.0278
824.5332
821.096
817.7692
814.603
811.6427
808.9251
806.4702
856.7077
856.0742
855.9249
855.745
855.6563
855.6139
855.6176
855.6561
855.7215
855.8055
855.9012
856.0022
856.1035
856.2008
856.2911
856.3728
856.4454
856.5095
856.5674
856.6219
856.6773
856.7383
856.8103
856.899
857.0101
857.1488
857.3198
857.5266
857.7711
858.0537
858.3723
858.7224
859.0968
859.4855
859.8754
860.2503
860.5911
860.876
861.0806
861.1789
861.1435
860.9463
860.5597
859.9575
859.1155
858.0132
856.6342
854.9678
853.0096
850.762
848.2356
845.4484
842.4267
839.2046
835.8231
832.3294
828.7755
825.2165
821.7075
818.2967
859.2632
857.9784
857.5208
856.9841
856.5882
856.2683
856.0315
855.8661
855.7644
855.7174
855.7162
855.752
855.8161
855.9003
855.9968
856.0989
856.2009
856.2981
856.3872
856.4662
856.5345
856.5929
856.6433
856.6888
856.7337
856.783
856.8423
856.9177
857.0152
857.1405
857.2988
857.4941
857.7292
858.005
858.3204
858.6718
859.053
859.4546
859.8643
860.2664
860.6423
860.9702
861.2257
861.3825
861.4121
861.2857
860.9741
860.4491
859.6847
858.658
857.3502
855.7483
853.8452
851.6415
849.1458
846.3748
843.3542
840.1178
836.7076
833.173
863.5863
861.61
860.7773
859.7991
858.9898
858.2706
857.6584
857.145
856.727
856.3983
856.1521
855.9805
855.8748
855.8257
855.8238
855.8597
855.9242
856.0088
856.1055
856.2073
856.3084
856.4041
856.4908
856.5665
856.6304
856.6831
856.7265
856.7638
856.7992
856.8377
856.885
856.9473
857.0308
857.1419
857.286
857.4679
857.6912
857.9577
858.267
858.6166
859.0011
859.4123
859.8385
860.265
860.6735
861.0426
861.3481
861.563
861.6585
861.6044
861.3703
860.9262
860.244
859.2983
858.068
856.5373
854.697
852.546
850.0932
847.3646
869.5147
866.99
865.809
864.4115
863.177
862.0217
860.9717
860.0256
859.1863
858.4541
857.8274
857.3028
856.8756
856.5395
856.2872
856.1105
856.0004
855.9478
855.943
855.9766
856.0395
856.1228
856.2185
856.3196
856.4198
856.5143
856.5993
856.6727
856.7333
856.7816
856.8192
856.8492
856.8755
856.9032
856.9382
856.9868
857.0555
857.1509
857.2793
857.4459
857.655
857.9094
858.2098
858.5546
858.9396
859.3574
859.7975
860.2459
860.685
861.0939
861.4484
861.7215
861.8838
861.9042
861.7509
861.3924
860.7987
859.943
858.8052
857.382
876.4353
873.6641
872.2601
870.583
869.0277
867.5153
866.0778
864.7204
863.4531
862.283
861.2154
860.2539
859.4002
858.6544
858.0148
857.4781
857.0397
856.6934
856.4321
856.2477
856.1313
856.0737
856.0651
856.0961
856.1572
856.2395
856.3349
856.4359
856.5362
856.6305
856.7148
856.7865
856.8445
856.8887
856.9207
856.9433
856.9605
856.9772
856.9994
857.0335
857.0865
857.1653
857.2765
857.4263
857.6196
857.8601
858.1495
858.4872
858.8702
859.2921
859.7436
860.2117
860.6795
861.127
861.5303
861.8624
862.094
862.1939
862.1326
861.8899
883.4387
880.7964
879.3616
877.628
875.9512
874.2655
872.6024
870.9721
869.3886
867.8642
866.4102
865.0368
863.7527
862.5651
861.4797
860.5003
859.629
858.8664
858.211
857.6599
857.2084
856.8508
856.5798
856.3874
856.2647
856.2021
856.1901
856.2189
856.2788
856.3608
856.4563
856.5576
856.6582
856.7524
856.8361
856.9062
856.9614
857.0016
857.0279
857.0432
857.0512
857.057
857.0664
857.0861
857.1232
857.185
857.2787
857.4109
857.5873
857.8125
858.0892
858.4179
858.7969
859.221
859.6822
860.1687
860.665
861.1521
861.6089
862.016
889.5876
887.4097
886.1454
884.5954
883.0335
881.411
879.7534
878.071
876.3781
874.6883
873.0157
871.3739
869.7763
868.2356
866.7635
865.3707
864.0663
862.8582
861.7523
860.753
859.8629
859.0824
858.4106
857.8447
857.3802
857.0112
856.7307
856.5305
856.4016
856.3345
856.3192
856.3459
856.4046
856.4861
856.5815
856.683
856.7836
856.8776
856.9604
857.0291
857.0817
857.1181
857.1393
857.1478
857.1473
857.1428
857.1401
857.1459
857.1676
857.2127
857.2888
857.4031
857.5623
857.7716
858.035
858.3543
858.7287
859.155
859.627
860.1361
894.1932
892.6798
891.7354
890.554
889.3083
887.9666
886.5438
885.0467
883.4854
881.8708
880.215
878.531
876.8325
875.1336
873.4487
871.792
870.1773
868.6177
867.1254
865.7115
864.3858
863.1562
862.0293
861.0098
860.1004
859.3021
858.614
858.0333
857.5557
857.1755
856.8856
856.6775
856.5424
856.4704
856.4516
856.4758
856.533
856.6137
856.7088
856.8103
856.911
857.0049
857.0873
857.1548
857.2054
857.2387
857.2555
857.2581
857.2501
857.2362
857.2225
857.2156
857.223
857.2526
857.3125
857.4103
857.5535
857.7482
857.9994
858.309
896.9899
896.1643
895.5985
894.8663
894.0465
893.1205
892.0918
890.9616
889.7332
888.4117
887.0037
885.5175
883.9629
882.3509
880.694
879.0052
877.2987
875.5888
873.8902
872.2174
870.5847
869.0055
867.4925
866.0573
864.7099
863.4588
862.3109
861.2711
860.3425
859.5262
858.8216
858.2261
857.7354
857.3438
857.044
856.8279
856.6862
856.6091
856.5865
856.6081
856.6636
856.7434
856.8382
856.9398
857.0407
857.1347
857.217
857.2839
857.3333
857.3643
857.3779
857.376
857.3622
857.3411
857.3187
857.3016
857.2975
857.3144
857.3607
857.4438
898.1491
897.8814
897.6585
897.3438
896.9473
896.4594
895.8747
895.1886
894.3979
893.501
892.4978
891.3897
890.1801
888.874
887.4778
885.9999
884.4501
882.8395
881.1804
879.4862
877.7711
876.0498
874.3372
872.6482
870.9973
869.3985
867.8649
866.4083
865.0391
863.7664
862.5973
861.5371
860.5891
859.7548
859.0335
858.4229
857.9188
857.5154
857.2057
856.9812
856.8328
856.7505
856.7239
856.7427
856.7966
856.8754
856.97
857.0718
857.1733
857.268
857.351
857.4184
857.468
857.4988
857.5114
857.5077
857.491
857.466
857.4388
857.4166
898.1464
898.2234
898.2423
898.231
898.1642
898.0368
897.8387
897.5621
897.1992
896.7434
896.1891
895.5315
894.7675
893.8953
892.9144
891.8263
890.6339
889.342
887.9571
886.4872
884.942
883.3326
881.6714
879.972
878.2485
876.516
874.7895
873.0844
871.4155
869.7971
868.2427
866.7646
865.3736
864.0791
862.8886
861.8077
860.84
859.9872
859.249
858.623
858.1053
857.6901
857.3702
857.1373
856.982
856.8945
856.8641
856.8802
856.9326
857.0109
857.1059
857.2088
857.312
857.409
857.4945
857.5645
857.6167
857.6501
857.6657
857.6672
897.5557
897.7626
897.9015
898.0492
898.1744
898.2732
898.3359
898.3536
898.3175
898.219
898.0496
897.8013
897.4665
897.0385
896.5112
895.8799
895.1411
894.2924
893.3334
892.2649
891.0898
889.8123
888.4389
886.9773
885.4371
883.8294
882.1666
880.4622
878.7307
876.9872
875.2471
873.5259
871.839
870.201
868.6257
867.1259
865.7128
864.3962
863.184
862.0821
861.0945
860.2231
859.4677
858.8263
858.2949
857.8678
857.5379
857.2968
857.135
857.0426
857.0089
857.0233
857.0752
857.1544
857.2512
857.3569
857.4636
857.5651
857.6567
857.7367
896.8617
897.0427
897.1991
897.3803
897.5666
897.754
897.9355
898.1042
898.2526
898.3731
898.4577
898.4979
898.4852
898.411
898.2668
898.0443
897.7358
897.3342
896.8332
896.2278
895.5139
894.689
893.752
892.7036
891.5461
890.2836
888.9222
887.4696
885.935
884.3295
882.6656
880.9567
879.2175
877.4632
875.7096
873.9725
872.2675
870.6097
869.0133
867.4916
866.0563
864.7174
863.4833
862.3603
861.3527
860.4626
859.6903
859.0336
858.4888
858.0503
857.711
857.4625
857.2953
857.1994
857.1638
857.1779
857.231
857.313
857.4148
857.5294
896.3544
896.4352
896.5488
896.6859
896.8441
897.0187
897.2064
897.403
897.6042
897.805
897.9999
898.1825
898.3461
898.4832
898.5859
898.6458
898.6544
898.6029
898.4826
898.2851
898.0023
897.6269
897.1523
896.5728
895.8842
895.0834
894.169
893.1412
892.0021
890.7554
889.4067
887.9637
886.4354
884.8327
883.1681
881.4551
879.7085
877.9437
876.1768
874.4238
872.7007
871.0232
869.4057
867.8621
866.4043
865.0432
863.7872
862.6433
861.6159
860.7076
859.9188
859.2476
858.6905
858.2418
857.8944
857.64
857.4689
857.3712
857.3364
857.3542
896.1218
896.098
896.1515
896.2187
896.3113
896.4239
896.5562
896.7064
896.8733
897.0547
897.2484
897.4511
897.6591
897.8679
898.0721
898.2658
898.4422
898.594
898.7133
898.7917
898.8206
898.791
898.6942
898.5215
898.2644
897.9153
897.4671
896.914
896.2511
895.475
894.5839
893.5775
892.4574
891.2272
889.8921
888.4593
886.938
885.3388
883.6741
881.9575
880.2039
878.429
876.649
874.8803
873.1394
871.4422
869.8039
868.2384
866.7586
865.3754
864.0981
862.9338
861.8875
860.962
860.1578
859.4734
858.9053
858.448
858.0945
857.8348
896.1122
896.0183
896.024
896.0325
896.063
896.1096
896.1735
896.2544
896.3528
896.469
896.6029
896.7541
896.9219
897.1047
897.3004
897.5062
897.7186
897.9334
898.1453
898.3485
898.5365
898.702
898.837
898.9333
898.9819
898.974
898.9005
898.7524
898.5211
898.1984
897.7771
897.2508
896.6142
895.8635
894.9963
894.0121
892.912
891.699
890.3783
888.9567
887.4431
885.8481
884.184
882.4645
880.7045
878.92
877.1274
875.3435
873.5852
871.8688
870.21
868.6234
867.1222
865.7179
864.4202
863.2365
862.1724
861.2309
860.4124
859.7126
896.2187
896.0969
896.0782
896.0548
896.0475
896.0497
896.063
896.0874
896.124
896.1739
896.2383
896.3185
896.4153
896.5295
896.6613
896.8108
896.9772
897.1594
897.3555
897.563
897.7786
897.9982
898.2167
898.4286
898.6274
898.8058
898.956
899.0696
899.1377
899.1512
899.1009
898.9774
898.772
898.4761
898.0821
897.5831
896.9735
896.2488
895.4065
894.4452
893.366
892.1713
890.8658
889.4564
887.9515
886.3616
884.699
882.9774
881.2119
879.4185
877.6142
875.816
874.0411
872.3065
870.6283
869.0215
867.4999
866.0755
864.7579
863.5514
896.346
896.2265
896.2036
896.1732
896.1538
896.1388
896.129
896.124
896.1246
896.1318
896.1468
896.1712
896.2065
896.2542
896.3158
896.3926
896.4859
896.5964
896.7248
896.8712
897.0351
897.2157
897.4113
897.6196
897.8374
898.061
898.2854
898.5053
898.7142
898.905
899.0699
899.2005
899.2877
899.3225
899.2952
899.1965
899.0172
898.7485
898.3822
897.9111
897.3291
896.6314
895.8147
894.8775
893.8201
892.6448
891.3559
889.9597
888.4646
886.8811
885.2212
883.4988
881.729
879.9281
878.1133
876.302
874.5118
872.7603
871.0636
869.4346
896.442
896.337
896.3207
896.2973
896.2826
896.2698
896.2587
896.2486
896.2393
896.2313
896.2253
896.2222
896.2233
896.2298
896.2433
896.2654
896.2976
896.3417
896.3993
896.4717
896.5605
896.6666
896.7908
896.9333
897.0941
897.2724
897.4667
897.6751
897.8945
898.1214
898.3511
898.5784
898.7968
898.9996
899.1787
899.3259
899.4321
899.4879
899.4837
899.41
899.257
899.0158
898.6778
898.2353
897.6818
897.0119
896.222
895.31
894.2758
893.1212
891.8502
890.4688
888.9853
887.4098
885.7544
884.0328
882.2605
880.454
878.631
876.809
896.4976
896.4052
896.3972
896.3838
896.3791
896.3762
896.3744
896.3723
896.3693
896.365
896.3595
896.353
896.3461
896.3394
896.3338
896.3303
896.3302
896.3349
896.3459
896.3648
896.3933
896.4332
896.4862
896.5538
896.6376
896.7388
896.8582
896.9965
897.1536
897.329
897.5215
897.7294
897.9498
898.1795
898.4139
898.648
898.8755
899.0897
899.2827
899.4462
899.5711
899.6479
899.667
899.6183
899.492
899.2789
898.9698
898.5567
898.0326
897.3918
896.63
895.7447
894.7354
893.6034
892.3523
890.9879
889.5182
887.9534
886.3064
884.594
896.5282
896.4407
896.4375
896.4304
896.4333
896.439
896.4468
896.4551
896.4628
896.4693
896.4739
896.4766
896.477
896.4754
896.4719
896.4668
896.4606
896.454
896.4479
896.4433
896.4415
896.4439
896.452
896.4674
896.4919
896.5274
896.5755
896.6381
896.7166
896.8126
896.927
897.0605
897.2135
897.3856
897.5759
897.7827
898.0037
898.2356
898.4742
898.7146
898.9507
899.1759
899.3825
899.562
899.7055
899.8034
899.8457
899.8224
899.7233
899.5388
899.2596
898.8771
898.384
897.7739
897.0421
896.1856
895.2036
894.0974
892.8718
891.5375
896.5537
896.4643
896.4615
896.4556
896.4609
896.4703
896.4831
896.4976
896.513
896.5283
896.5429
896.5562
896.5678
896.5774
896.5848
896.5897
896.592
896.5919
896.5894
896.5849
896.5789
896.572
896.5651
896.5592
896.5555
896.5554
896.5605
896.5723
896.5928
896.6237
896.6669
896.7242
896.7974
896.8879
896.997
897.1256
897.2742
897.4426
897.6302
897.8356
898.0566
898.2902
898.5326
898.7788
899.0232
899.2591
899.4789
899.6744
899.8365
899.9555
900.0215
900.0242
899.9533
899.7987
899.5508
899.2007
898.7406
898.1643
897.4685
896.6566
896.5873
896.4929
896.4879
896.4796
896.4833
896.4918
896.5046
896.5202
896.5378
896.5567
896.5761
896.5956
896.6148
896.6332
896.6504
896.6661
896.6799
896.6914
896.7004
896.7068
896.7104
896.7112
896.7094
896.7053
896.6993
896.692
896.6842
896.6769
896.6714
896.6688
896.6709
896.6792
896.6956
896.722
896.7603
896.8124
896.8801
896.9651
897.0687
897.1922
897.336
897.5005
897.6851
897.8887
898.1094
898.3444
898.5901
898.8418
899.0942
899.3406
899.5737
899.7853
899.9664
900.1073
900.1979
900.2278
900.1867
900.0647
899.8536
899.5507
896.631
896.5326
896.5251
896.5138
896.5144
896.5199
896.53
896.5433
896.5591
896.5769
896.5962
896.6166
896.6377
896.6593
896.6811
896.7026
896.7237
896.7438
896.7626
896.7798
896.795
896.8079
896.8182
896.8257
896.8303
896.832
896.8308
896.827
896.8209
896.8132
896.8047
896.7961
896.7888
896.784
896.7832
896.7881
896.8006
896.8226
896.856
896.9029
896.9651
897.0445
897.1426
897.2608
897.3998
897.5601
897.7415
897.943
898.1631
898.3993
898.6483
898.9057
899.1662
899.4236
899.6706
899.8991
900.1003
900.2651
900.3847
900.4537
896.6794
896.5799
896.5713
896.5583
896.5569
896.5599
896.5671
896.5775
896.5903
896.6052
896.6217
896.6397
896.6589
896.6791
896.7004
896.7224
896.7449
896.7678
896.7908
896.8135
896.8356
896.8568
896.8768
896.8951
896.9115
896.9255
896.9369
896.9454
896.951
896.9534
896.9528
896.9494
896.9435
896.9355
896.9263
896.9167
896.9078
896.9008
896.8974
896.8992
896.9079
896.9256
896.9544
896.9962
897.053
897.127
897.2196
897.3325
897.4667
897.6229
897.8011
898.0009
898.2207
898.4586
898.7114
898.9751
899.2446
899.5145
899.7786
900.0321
896.7245
896.6271
896.6191
896.6067
896.6051
896.6075
896.6136
896.6224
896.6332
896.6458
896.6597
896.6748
896.691
896.7082
896.7265
896.7458
896.7661
896.7873
896.8093
896.832
896.8552
896.8788
896.9024
896.9259
896.9488
896.9709
896.9917
897.011
897.0284
897.0435
897.0559
897.0655
897.072
897.0753
897.0755
897.0726
897.0669
897.0589
897.0492
897.0387
897.0285
897.0197
897.0139
897.0128
897.0181
897.0319
897.0562
897.0932
897.1451
897.2138
897.3014
897.4095
897.5396
897.6924
897.8683
898.067
898.2877
898.5286
898.7876
899.0626
896.7601
896.6668
896.6609
896.6507
896.6508
896.6545
896.6616
896.6709
896.6819
896.694
896.7071
896.7208
896.7352
896.7501
896.7658
896.7821
896.7992
896.8172
896.836
896.8558
896.8764
896.8979
896.9202
896.9433
896.9668
896.9908
897.0149
897.0389
897.0624
897.0853
897.107
897.1272
897.1455
897.1617
897.1752
897.1859
897.1934
897.1977
897.1987
897.1965
897.1912
897.1834
897.1736
897.1626
897.1513
897.1411
897.1334
897.1298
897.1322
897.1426
897.1632
897.1962
897.244
897.3087
897.3924
897.4969
897.624
897.7749
897.9508
898.1522
896.7847
896.6957
896.6923
896.6849
896.6876
896.6939
896.7033
896.7147
896.7276
896.7413
896.7556
896.7701
896.7847
896.7994
896.8142
896.8292
896.8446
896.8602
896.8764
896.8931
896.9105
896.9287
896.9476
896.9674
896.9881
897.0097
897.0321
897.0553
897.079
897.1033
897.1277
897.1522
897.1763
897.1998
897.2223
897.2434
897.2628
897.28
897.2947
897.3065
897.3153
897.3207
897.3228
897.3215
897.317
897.3097
897.3001
897.2891
897.2774
897.2664
897.2575
897.2525
897.2531
897.2615
897.2798
897.3103
897.3555
897.4179
897.5001
897.6047
896.8007
896.7149
896.7135
896.7084
896.7135
896.7223
896.7344
896.7486
896.7641
896.7805
896.7972
896.814
896.8306
896.847
896.8631
896.879
896.8947
896.9102
896.9257
896.9412
896.9569
896.9728
896.9891
897.0059
897.0233
897.0414
897.0602
897.08
897.1006
897.1221
897.1445
897.1677
897.1916
897.216
897.2408
897.2657
897.2904
897.3145
897.3378
897.3599
897.3803
897.3987
897.4147
897.4279
897.438
897.4449
897.4483
897.4484
897.4452
897.4391
897.4306
897.4205
897.4097
897.3994
897.391
897.3861
897.3866
897.3949
897.4136
897.4458
896.813
896.7284
896.728
896.724
896.7305
896.741
896.7551
896.7715
896.7895
896.8085
896.8279
896.8474
896.8667
896.8858
896.9045
896.9227
896.9405
896.9579
896.9748
896.9913
897.0075
897.0234
897.0392
897.0549
897.0706
897.0866
897.1028
897.1195
897.1368
897.1547
897.1735
897.193
897.2135
897.2349
897.2573
897.2805
897.3044
897.3291
897.3541
897.3794
897.4047
897.4296
897.4538
897.4769
897.4985
897.5183
897.5358
897.5508
897.5628
897.5717
897.5773
897.5797
897.5791
897.5756
897.5698
897.5623
897.554
897.5463
897.5412
897.5414
896.8268
896.7416
896.741
896.737
896.7436
896.7545
896.7693
896.7868
896.8061
896.8267
896.848
896.8696
896.8913
896.9129
896.9343
896.9553
896.9759
896.9961
897.0157
897.0347
897.0532
897.0711
897.0885
897.1053
897.1218
897.1379
897.1537
897.1695
897.1852
897.2011
897.2172
897.2338
897.2508
897.2686
897.2871
897.3065
897.3268
897.3481
897.3704
897.3936
897.4177
897.4425
897.468
897.4938
897.5198
897.5456
897.5709
897.5954
897.6187
897.6405
897.6603
897.6778
897.6929
897.7052
897.7146
897.7209
897.7243
897.7254
897.7251
897.7256
896.8455
896.7587
896.7572
896.7521
896.7578
896.7679
896.7822
896.7994
896.8188
896.8396
896.8615
896.884
896.9069
896.93
896.9532
896.9764
896.9994
897.0222
897.0445
897.0665
897.0879
897.1087
897.1289
897.1484
897.1673
897.1856
897.2032
897.2203
897.2368
897.253
897.2689
897.2846
897.3003
897.3161
897.332
897.3484
897.3653
897.3829
897.4012
897.4204
897.4406
897.4618
897.4841
897.5075
897.5319
897.5571
897.5832
897.6099
897.6371
897.6644
897.6915
897.7183
897.7444
897.7694
897.7929
897.8145
897.834
897.8515
897.8673
897.883
896.87
896.7817
896.779
896.7724
896.7767
896.7854
896.7984
896.8144
896.8327
896.8526
896.8737
896.8958
896.9185
896.9418
896.9655
896.9896
897.0138
897.0381
897.0624
897.0865
897.1103
897.1338
897.1569
897.1794
897.2013
897.2226
897.2432
897.2631
897.2823
897.3007
897.3185
897.3357
897.3524
897.3686
897.3845
897.4002
897.4158
897.4315
897.4473
897.4636
897.4803
897.4978
897.516
897.5353
897.5555
897.5769
897.5996
897.6234
897.6485
897.6748
897.7023
897.7307
897.7601
897.7901
897.8204
897.8507
897.8809
897.9107
897.9405
897.9715
896.8989
896.8098
896.8062
896.7984
896.8013
896.8087
896.8202
896.8346
896.8512
896.8696
896.8892
896.9099
896.9314
896.9537
896.9767
897.0003
897.0243
897.0488
897.0736
897.0986
897.1237
897.1487
897.1737
897.1985
897.2229
897.2469
897.2704
897.2934
897.3157
897.3373
897.3582
897.3783
897.3977
897.4163
897.4343
897.4516
897.4684
897.4847
897.5006
897.5163
897.5319
897.5475
897.5634
897.5797
897.5966
897.6142
897.6327
897.6523
897.6732
897.6954
897.719
897.7443
897.7711
897.7996
897.8296
897.861
897.8938
897.928
897.964
898.0031
896.9296
896.8407
896.8366
896.8283
896.8304
896.8368
896.8471
896.8602
896.8754
896.8922
896.9102
896.9292
896.9491
896.9697
896.9912
897.0134
897.0363
897.0598
897.0839
897.1084
897.1333
897.1586
897.1841
897.2098
897.2355
897.2611
897.2865
897.3117
897.3365
897.3609
897.3847
897.4079
897.4305
897.4524
897.4735
897.4939
897.5135
897.5323
897.5505
897.568
897.5849
897.6014
897.6175
897.6334
897.6492
897.6652
897.6815
897.6982
897.7157
897.7341
897.7536
897.7744
897.7968
897.8209
897.8468
897.8745
897.9043
897.9365
897.9716
898.011
896.9591
896.8713
896.8674
896.8591
896.8611
896.8672
896.877
896.8893
896.9036
896.9193
896.9361
896.9538
896.9722
896.9914
897.0113
897.0319
897.0532
897.0752
897.0978
897.121
897.1448
897.1691
897.1939
897.2191
897.2447
897.2705
897.2964
897.3224
897.3484
897.3744
897.4001
897.4255
897.4506
897.4752
897.4993
897.5229
897.5457
897.5678
897.5892
897.6099
897.6298
897.649
897.6675
897.6854
897.7027
897.7197
897.7363
897.7529
897.7695
897.7863
897.8037
897.8217
897.8408
897.861
897.8826
897.9058
897.9309
897.9584
897.989
898.0244
896.9856
896.8992
896.8958
896.888
896.8904
896.8967
896.9066
896.919
896.9331
896.9484
896.9647
896.9817
896.9993
897.0176
897.0364
897.0558
897.0758
897.0963
897.1175
897.1391
897.1614
897.1843
897.2077
897.2316
897.256
897.2808
897.306
897.3315
897.3573
897.3833
897.4095
897.4357
897.462
897.4881
897.5141
897.5398
897.5651
897.59
897.6144
897.6382
897.6614
897.684
897.7058
897.727
897.7474
897.7672
897.7864
897.8051
897.8234
897.8414
897.8593
897.8772
897.8955
897.9143
897.9338
897.9543
897.9761
897.9997
898.026
898.0566
897.0084
896.9232
896.9203
896.9133
896.9162
896.9231
896.9335
896.9462
896.9607
896.9764
896.9928
897.0099
897.0275
897.0456
897.0641
897.083
897.1024
897.1221
897.1423
897.1629
897.1839
897.2054
897.2274
897.2498
897.2727
897.2961
897.3198
897.344
897.3686
897.3936
897.419
897.4446
897.4706
897.4967
897.5231
897.5495
897.5759
897.6022
897.6285
897.6544
897.6801
897.7054
897.7303
897.7546
897.7784
897.8017
897.8243
897.8463
897.8678
897.8888
897.9093
897.9296
897.9497
897.9697
897.9899
898.0105
898.0316
898.0539
898.0783
898.1063
897.0281
896.9436
896.9411
896.9344
896.9379
896.9453
896.9562
896.9695
896.9846
897.0009
897.018
897.0357
897.0538
897.0724
897.0913
897.1105
897.13
897.1498
897.1698
897.19
897.2105
897.2313
897.2524
897.2738
897.2955
897.3175
897.3399
897.3626
897.3857
897.4091
897.433
897.4573
897.4819
897.507
897.5324
897.5582
897.5842
897.6105
897.637
897.6637
897.6904
897.7171
897.7437
897.7702
897.7964
897.8224
897.848
897.8733
897.8981
897.9226
897.9466
897.9703
897.9937
898.0168
898.0398
898.0628
898.0859
898.1096
898.1348
898.1631
897.0456
896.9613
896.9588
896.9523
896.9559
896.9635
896.9748
896.9886
897.0042
897.0211
897.0389
897.0574
897.0764
897.0958
897.1155
897.1356
897.1558
897.1762
897.1967
897.2174
897.2381
897.259
897.28
897.3011
897.3224
897.3437
897.3652
897.3869
897.4088
897.431
897.4534
897.4762
897.4993
897.5228
897.5467
897.571
897.5957
897.6208
897.6463
897.6723
897.6985
897.7251
897.7519
897.7789
897.8061
897.8334
897.8607
897.8881
897.9153
897.9425
897.9695
897.9964
898.0232
898.0499
898.0764
898.1029
898.1294
898.1563
898.1844
898.2153
897.062
896.9774
896.9747
896.968
896.9715
896.9791
896.9904
897.0043
897.0202
897.0375
897.0559
897.075
897.0947
897.115
897.1356
897.1566
897.1778
897.1992
897.2207
897.2422
897.2638
897.2853
897.307
897.3286
897.3501
897.3716
897.3931
897.4145
897.436
897.4575
897.4791
897.5009
897.5228
897.545
897.5675
897.5902
897.6134
897.6369
897.6608
897.6852
897.7101
897.7354
897.7611
897.7873
897.814
897.8411
897.8685
897.8963
897.9244
897.9528
897.9815
898.0104
898.0396
898.0689
898.0984
898.1281
898.1581
898.1885
898.2203
898.2547
897.0774
896.9924
896.9895
896.9824
896.9856
896.9929
897.004
897.0179
897.0338
897.0513
897.0699
897.0894
897.1096
897.1305
897.1518
897.1736
897.1957
897.218
897.2405
897.263
897.2856
897.3082
897.3308
897.3533
897.3757
897.398
897.4201
897.4421
897.4639
897.4856
897.5072
897.5288
897.5503