/*--------------------------------*- C++ -*----------------------------------*\
| =========                 |                                                 |
| \\      /  F ield         | OpenFOAM: The Open Source CFD Toolbox           |
|  \\    /   O peration     | Version:  2312                                  |
|   \\  /    A nd           | Website:  www.openfoam.com                      |
|    \\/     M anipulation  |                                                 |
\*---------------------------------------------------------------------------*/
FoamFile
{
    version     2.0;
    format      ascii;
    arch        "LSB;label=32;scalar=64";
    class       volScalarField;
    location    "500";
    object      ILambda_13_0;
}
// * * * * * * * * * * * * * * * * * * * * * * * * * * * * * * * * * * * * * //

dimensions      [1 0 -3 0 0 0 0];

internalField   nonuniform List<scalar> 
12000
(
852.3789
800.9325
804.9297
803.1946
803.4599
803.5153
803.652
803.7894
803.9321
804.07
804.1931
804.293
804.3658
804.412
804.4346
804.436
804.4164
804.3733
804.3037
804.2053
804.0778
803.9206
803.7315
803.5062
803.2404
802.9333
802.5865
802.2012
801.7771
801.3145
800.814
800.2717
799.6756
799.0075
798.2483
797.3978
796.4961
795.5822
794.6266
793.5379
792.2847
790.9926
789.7999
788.6312
787.2557
785.6004
783.7745
781.7925
779.4845
776.6705
773.3512
769.5763
765.2894
760.3561
754.669
748.2495
741.3105
734.3291
728.1387
724.1158
800.3974
801.2815
804.0822
803.5432
803.9089
803.9776
804.1035
804.195
804.2686
804.3158
804.3365
804.3315
804.302
804.2484
804.1694
804.0627
803.9258
803.7565
803.5534
803.3152
803.04
802.7253
802.3693
801.9708
801.5301
801.047
800.5199
799.9462
799.3225
798.6442
797.9052
797.0996
796.2243
795.2822
794.2813
793.2275
792.1066
790.8845
789.5351
788.0651
786.4871
784.7505
782.7369
780.3533
777.5941
774.4699
770.924
766.8876
762.3684
757.454
752.2377
746.8081
741.3131
736.0007
731.209
727.3158
724.6644
723.4615
723.6331
724.6048
800.0753
804.2447
803.9376
804.0845
804.1879
804.2228
804.2514
804.2451
804.2125
804.1509
804.0616
803.944
803.797
803.6184
803.4059
803.1575
802.8713
802.5461
802.1805
801.7733
801.323
800.8286
800.2892
799.7038
799.0708
798.3874
797.6501
796.8544
795.9953
795.0673
794.0637
792.9777
791.8
790.5171
789.1079
787.5418
785.7814
783.7909
781.5403
778.9963
776.1125
772.8382
769.1517
765.0781
760.6678
755.9717
751.0587
746.0485
741.1053
736.4071
732.1282
728.4494
725.5525
723.5844
722.6127
722.5926
723.3567
724.6374
726.1324
727.6206
803.4285
804.4266
804.0582
804.1753
804.1116
804.0534
803.958
803.8322
803.675
803.4854
803.2622
803.0038
802.7083
802.374
801.9997
801.5842
801.1267
800.626
800.0811
799.4905
798.8523
798.1643
797.4227
796.6228
795.758
794.8198
793.7981
792.6802
791.4509
790.0916
788.5805
786.8916
784.9955
782.8594
780.4506
777.7397
774.7048
771.3341
767.6267
763.5956
759.2751
754.7294
750.0509
745.3513
740.753
736.3901
732.4092
728.9561
726.1575
724.1096
722.874
722.4712
722.8712
723.9932
725.7207
727.9314
730.5346
733.5068
736.9065
740.8409
804.125
803.9715
803.8304
803.7266
803.5489
803.355
803.1209
802.853
802.5481
802.2056
801.8238
801.4018
800.9382
800.4322
799.8824
799.287
798.6436
797.949
797.1985
796.386
795.5036
794.541
793.4855
792.3219
791.0324
789.5964
787.9912
786.1919
784.1726
781.9075
779.3721
776.5464
773.4169
769.9805
766.2471
762.2428
758.0104
753.6112
749.1244
744.6476
740.294
736.1862
732.4473
729.1936
726.5303
724.5461
723.3049
722.8389
723.148
724.2032
725.9525
728.3282
731.2582
734.6808
738.5573
742.8764
747.647
752.8776
758.5477
764.5798
803.5877
803.1868
802.9882
802.7021
802.39
802.0405
801.6519
801.2242
800.7556
800.2448
799.6899
799.0885
798.4374
797.7325
796.9679
796.1363
795.228
794.2315
793.1325
791.9147
790.5592
789.045
787.3498
785.4507
783.3248
780.951
778.3117
775.3942
772.1935
768.7144
764.9733
761.001
756.8433
752.5617
748.2327
743.9463
739.803
735.9099
732.3764
729.3084
726.8017
724.9367
723.7734
723.3502
723.6817
724.759
726.5516
729.0118
732.0818
735.6997
739.804
744.338
749.2497
754.4889
759.9983
765.7022
771.4963
777.2436
782.7834
787.9657
802.4335
801.8387
801.495
801.0478
800.5775
800.061
799.5007
798.8921
798.2314
797.5131
796.7303
795.8743
794.9344
793.898
792.7498
791.4729
790.0482
788.4556
786.6739
784.6823
782.4613
779.9941
777.2681
774.2769
771.0216
767.5129
763.7728
759.8356
755.7487
751.5731
747.3822
743.2605
739.3009
735.6014
732.261
729.3753
727.0319
725.3061
724.257
723.9247
724.3284
725.4666
727.3188
729.8472
733.0002
736.7157
740.925
745.5556
750.5326
755.7788
761.2124
766.7444
772.2754
777.6926
782.8711
787.6775
791.9805
795.6643
798.6478
800.9138
800.6761
799.8268
799.3253
798.691
798.0219
797.2869
796.4833
795.5998
794.6252
793.5456
792.3456
791.0079
789.5139
787.8445
785.9802
783.9027
781.5956
779.0461
776.2462
773.1941
769.8961
766.3676
762.6345
758.7339
754.7147
750.6374
746.5728
742.6012
738.8095
735.2887
732.1303
729.4222
727.2456
725.6704
724.7527
724.5318
725.029
726.2461
728.1667
730.7568
733.9676
737.7374
741.9948
746.6604
751.6495
756.873
762.238
767.6482
773.0034
778.1999
783.1314
787.6924
791.7824
795.3126
798.214
800.4455
802.0002
802.9091
803.2409
803.1016
798.1802
796.9716
796.2372
795.3008
794.2936
793.1684
791.9164
790.5186
788.9577
787.2153
785.2741
783.118
780.7339
778.1123
775.2492
772.147
768.8161
765.2757
761.5548
757.6928
753.7395
749.7551
745.8085
741.9765
738.3415
734.9889
732.0037
729.468
727.4568
726.0355
725.2565
725.1571
725.7577
727.0612
729.0525
731.6997
734.955
738.7572
743.0334
747.7015
752.6729
757.8533
763.1456
768.4506
773.6684
778.7002
783.4501
787.827
791.7486
795.145
797.9631
800.1718
801.765
802.7647
803.2206
803.2077
802.8203
802.1643
801.3474
800.4676
794.4926
792.6498
791.4846
789.9947
788.3759
786.5633
784.5516
782.3246
779.8724
777.1888
774.2731
771.1314
767.7772
764.233
760.5303
756.7102
752.8233
748.9292
745.0954
741.396
737.9094
734.7163
731.8968
729.5273
727.6778
726.4091
725.7698
725.7944
726.5018
727.8939
729.9558
732.656
735.9473
739.7688
744.0475
748.7005
753.6376
758.7632
763.979
769.1857
774.2851
779.1823
783.7878
788.02
791.8073
795.0917
797.8309
800.0013
801.6003
802.6475
803.1839
803.2712
802.9872
802.4208
801.6659
800.8138
799.9473
799.1346
798.4257
797.8479
788.6385
785.7113
783.8551
781.5124
779.0103
776.2709
773.3125
770.1404
766.7721
763.2321
759.554
755.7804
751.9621
748.1584
744.4353
740.8644
737.521
734.4815
731.8215
729.6128
727.9206
726.8013
726.2996
726.4471
727.2602
728.7396
730.8696
733.6185
736.9395
740.7718
745.0428
749.6699
754.5632
759.6273
764.7645
769.8768
774.8684
779.6481
784.1313
788.2428
791.9185
795.1079
797.7757
799.9039
801.4926
802.5608
803.1453
803.2996
803.0911
802.5969
801.8994
801.081
800.219
799.3811
798.6223
797.9827
797.488
797.1512
796.9745
796.9506
779.4462
775.0798
772.4271
769.1541
765.7953
762.2625
758.6159
754.893
751.1464
747.4343
743.8213
740.3769
737.173
734.2829
731.7779
729.7255
728.1867
727.2135
726.8471
727.1155
728.0327
729.5976
731.7932
734.5873
737.9331
741.7704
746.0271
750.6217
755.4651
760.4635
765.5207
770.5409
775.4311
780.1034
784.4776
788.4833
792.0617
795.1674
797.7703
799.8558
801.4261
802.5
803.1119
803.3102
803.1555
802.7168
802.0682
801.2851
800.4395
799.5973
798.8145
798.1361
797.5947
797.2123
797.001
796.9667
797.1116
797.4375
797.9473
798.6415
766.5498
760.9422
757.7964
754.0197
750.3707
746.7461
743.2447
739.9255
736.8595
734.1158
731.7621
729.8617
728.4718
727.6406
727.4057
727.792
728.811
730.4593
732.7187
735.5561
738.9246
742.7642
747.0037
751.5626
756.3535
761.2846
766.2618
771.1919
775.9849
780.5563
784.8297
788.7386
792.2283
795.2575
797.7994
799.8422
801.3894
802.4595
803.0853
803.312
803.1953
802.7986
802.1902
801.44
800.616
799.7814
798.9925
798.2964
797.7304
797.3224
797.0913
797.0493
797.2039
797.5606
798.1246
798.9033
799.9065
801.1465
802.6357
804.3785
751.4714
745.6674
742.8015
739.4802
736.5783
733.9719
731.7686
730.0175
728.7737
728.0812
727.9741
728.4744
729.5912
731.3193
733.6393
736.5173
739.9061
743.7462
747.9672
752.4898
757.2285
762.0932
766.9924
771.8356
776.5357
781.0115
785.1902
789.0086
792.4157
795.3731
797.8565
799.8562
801.3767
802.4364
803.0667
803.3107
803.2205
802.8555
802.2799
801.5591
800.7581
799.9379
799.1541
798.4551
797.8809
797.4632
797.2259
797.186
797.3553
797.7422
798.3533
799.1951
800.2747
801.6005
803.1813
805.0257
807.1404
809.5283
812.1854
815.0947
737.8082
733.4922
731.8859
730.1655
729.0917
728.5287
728.549
729.1611
730.3736
732.1787
734.556
737.4712
740.8772
744.7151
748.9155
753.4008
758.0871
762.8865
767.71
772.4697
777.0815
781.4672
785.5569
789.2907
792.62
795.5093
797.9365
799.8932
801.3848
802.4297
803.0583
803.3116
803.2395
802.8984
802.3491
801.6543
800.876
800.0737
799.3022
798.6102
798.0395
797.6243
797.3918
797.3625
797.5516
797.9698
798.6251
799.5239
800.6714
802.0727
803.7322
805.6534
807.8374
810.282
812.9799
815.9178
819.0746
822.4215
825.9221
829.534
730.0299
728.8135
729.1801
729.8338
731.1574
733.0339
735.4692
738.4204
741.8421
745.6757
749.8535
754.2996
758.9323
763.6663
768.4149
773.0932
777.6197
781.919
785.9242
789.5778
792.8339
795.659
798.0326
799.9475
801.4096
802.4371
803.0598
803.3174
803.2578
802.9351
802.4078
801.7359
800.9797
800.1971
799.4421
798.7637
798.2046
797.8007
797.5814
797.5697
797.7831
798.2343
798.9323
799.8833
801.0916
802.5597
804.2888
806.2781
808.5242
811.0204
813.7556
816.713
819.8695
823.195
826.6526
830.1985
833.7838
837.3557
840.8615
844.2574
731.3895
733.9814
736.3679
739.3618
742.8006
746.6301
750.7865
755.1933
759.772
764.4397
769.1132
773.7103
778.1525
782.3673
786.2903
789.8664
793.0519
795.8152
798.137
800.0111
801.4438
802.4531
803.0681
803.3273
803.2769
802.9694
802.4612
801.8106
801.0763
800.3148
799.5796
798.9194
798.3776
797.9912
797.7912
797.8024
798.0437
798.5293
799.269
800.2688
801.5322
803.0598
804.8502
806.8992
809.1998
811.7416
814.51
817.4855
820.6428
823.9511
827.3735
830.8675
834.386
837.8784
841.2923
844.5754
847.6777
850.5539
853.1679
855.5034
742.1636
747.929
751.6429
756.0972
760.6071
765.2145
769.8135
774.3299
778.6877
782.818
786.6588
790.158
793.2737
795.9758
798.2464
800.0798
801.4827
802.4729
803.0787
803.3378
803.295
803.0011
802.5109
801.8812
801.1692
800.4304
799.7177
799.0796
798.5598
798.1959
798.02
798.058
798.33
798.8511
799.6314
800.6773
801.9911
803.5721
805.4166
807.5178
809.8658
812.4469
815.2438
818.2343
821.3917
824.6841
828.0746
831.5218
834.9803
838.4022
841.7382
844.9392
847.9582
850.7525
853.2849
855.5256
857.4534
859.0572
860.3377
861.3154
759.3034
766.4941
770.4061
774.9823
779.2276
783.2816
787.039
790.4607
793.5052
796.1448
798.3627
800.154
801.5255
802.495
803.09
803.3472
803.3103
803.0288
802.5559
801.9472
801.2585
800.5444
799.857
799.2446
798.7507
798.4137
798.2659
798.334
798.6391
799.1966
800.0172
801.1067
802.467
804.0962
805.9886
808.1355
810.5243
813.1389
815.9594
818.9617
822.1175
825.394
828.7544
832.158
835.5611
838.9179
842.1819
845.3071
848.2497
850.97
853.4333
855.6122
857.4869
859.0464
860.2889
861.2216
861.8604
862.2292
862.3597
862.2932
777.7358
784.2676
787.318
790.8118
793.75
796.3339
798.4946
800.2412
801.5781
802.5237
803.105
803.3577
803.3246
803.0537
802.5971
802.009
801.3441
800.656
799.9962
799.4124
798.9481
798.6415
798.5255
798.627
798.9674
799.5626
800.4231
801.5547
802.9585
804.6315
806.5668
808.7536
811.1774
813.8201
816.6597
819.6704
822.8225
826.0826
829.4138
832.776
836.127
839.4228
842.6195
845.6737
848.5446
851.1951
853.5934
855.714
857.5387
859.0577
860.2694
861.1807
861.8066
862.1693
862.2973
862.2239
861.9856
861.6207
861.1678
860.6641
792.5881
796.9307
798.5599
800.378
801.6472
802.5721
803.1334
803.378
803.3448
803.0817
802.6392
802.0704
801.4287
800.767
800.1359
799.5825
799.15
798.8766
798.795
798.9323
799.31
799.944
800.8446
802.0173
803.4625
805.1762
807.1503
809.3724
811.8264
814.4926
817.3471
820.3629
823.5092
826.752
830.0544
833.3768
836.6783
839.9165
843.0496
846.0367
848.8397
851.424
853.7601
855.8247
857.6011
859.0806
860.262
861.1522
861.7655
862.1229
862.2515
862.1826
861.951
861.5931
861.1455
860.6433
860.1193
859.6025
859.1173
858.6814
801.1283
802.8462
803.1412
803.4385
803.3822
803.1267
802.6929
802.1406
801.52
800.8835
800.2807
799.7581
799.3583
799.1192
799.0733
799.2477
799.6636
800.3368
801.2774
802.4901
803.9749
805.7268
807.7365
809.9903
812.4708
815.1566
818.0228
821.0409
824.1795
827.4041
830.6778
833.9616
837.2155
840.3989
843.4716
846.3951
849.1335
851.6546
853.9311
855.9415
857.6708
859.1113
860.2623
861.1308
861.7305
862.0817
862.21
862.1453
861.9206
861.5706
861.1303
860.6334
860.1116
859.5931
859.1019
858.6574
858.2738
857.9603
857.7214
857.5562
803.502
803.2342
802.7696
802.2421
801.632
801.0185
800.4406
799.9472
799.5791
799.3739
799.3637
799.575
800.0289
800.7407
801.7202
802.9715
804.4938
806.2812
808.3235
810.6057
813.1093
815.8115
818.6864
821.7047
824.834
828.0396
831.2847
834.531
837.7392
840.8701
843.8853
846.7482
849.425
851.8856
854.1048
856.0628
857.7461
859.1479
860.2683
861.1142
861.6992
862.0427
862.1692
862.1074
861.8887
861.5464
861.1137
860.6234
860.1057
859.5881
859.0941
858.6428
858.2485
857.9209
857.6649
857.4811
857.3665
857.3152
857.319
857.369
802.1325
801.1348
800.6531
800.1656
799.827
799.6516
799.6743
799.9205
800.4106
801.1592
802.1755
803.463
805.0201
806.8401
808.9117
811.219
813.7422
816.4578
819.3386
822.3546
825.4731
828.659
831.8756
835.0851
838.2491
841.3296
844.2899
847.095
849.7129
852.1157
854.2798
856.1871
857.8255
859.1892
860.2789
861.1016
861.6707
862.0051
862.1283
862.0677
861.8537
861.5179
861.0925
860.6087
860.0959
859.5807
859.086
858.6307
858.2291
857.8909
857.6216
857.4224
857.2909
857.2217
857.2069
857.237
857.3019
857.391
857.495
857.6066
800.3636
799.9277
800.0445
800.2977
800.8222
801.6014
802.6506
803.9704
805.5585
807.4073
809.5044
811.8331
814.3723
817.0978
819.9816
822.993
826.0987
829.2638
832.4516
835.6247
838.7456
841.7776
844.685
847.4347
849.9964
852.3437
854.4548
856.3131
857.9078
859.234
860.293
861.0921
861.6445
861.9685
862.0869
862.0262
861.8154
861.485
861.0658
860.5881
860.0803
859.568
859.0737
858.616
858.209
857.8628
857.583
857.3713
857.2258
857.1417
857.1118
857.1272
857.178
857.2538
857.3445
857.4409
857.5347
857.6195
857.6912
857.7487
801.117
802.1321
803.1674
804.5103
806.1217
807.9921
810.1092
812.454
815.0049
817.7363
820.6196
823.6235
826.7144
829.8571
833.0153
836.1519
839.2304
842.2149
845.0712
847.7674
850.2748
852.5687
854.6287
856.4397
857.9918
859.2812
860.3097
861.085
861.6199
861.9326
862.045
861.9828
861.774
861.4478
861.0341
860.5619
860.0587
859.5495
859.0562
858.5969
858.1858
857.833
857.5443
857.322
857.1646
857.0679
857.025
857.0277
857.0662
857.1308
857.2114
857.299
857.3854
857.4636
857.5286
857.5768
857.6066
857.6184
857.6145
857.5999
806.0344
808.7858
810.7212
813.1061
815.6519
818.3834
821.2606
824.2529
827.3257
830.4438
833.5708
836.6704
839.7064
842.644
845.4501
848.0942
850.549
852.7911
854.8015
856.5664
858.077
859.3302
860.3285
861.0796
861.5966
861.8971
862.0026
861.9377
861.7297
861.4067
860.9975
860.5302
860.0314
859.5253
859.0332
858.573
858.1586
857.8002
857.5039
857.2723
857.1042
856.996
856.9415
856.9326
856.9604
857.015
857.0869
857.1671
857.2474
857.3209
857.3825
857.4286
857.4573
857.4687
857.4644
857.4478
857.4237
857.3983
857.3793
857.3748
815.1787
819.3489
821.8739
824.9131
827.9436
831.0347
834.1262
837.1865
840.1788
843.0691
845.8252
848.4178
850.8208
853.0122
854.9741
856.6938
858.1636
859.381
860.3492
861.076
861.5746
861.8621
861.9596
861.8911
861.6827
861.362
860.9565
860.4935
859.9986
859.4955
859.0048
858.5441
858.1271
857.764
857.461
857.221
857.0433
856.9247
856.8593
856.8398
856.8574
856.9028
856.9667
857.0402
857.1153
857.1853
857.2447
857.2901
857.3194
857.3326
857.3315
857.3192
857.3005
857.2817
857.27
857.2739
857.3024
857.3656
857.4735
857.6349
827.1916
832.0104
834.6332
837.7375
840.657
843.5006
846.2034
848.7438
851.0946
853.2353
855.149
856.8238
858.253
859.4348
860.3726
861.0748
861.5542
861.828
861.9165
861.8433
861.6337
861.3141
860.9115
860.4521
859.9608
859.4605
858.9713
858.5104
858.0913
857.7241
857.4152
857.1677
856.9812
856.8529
856.7775
856.7479
856.7559
856.7926
856.8488
856.9161
856.9865
857.0533
857.1113
857.1568
857.1879
857.2045
857.2081
857.2021
857.191
857.1812
857.1801
857.196
857.2381
857.3164
857.4409
857.6223
857.871
858.1973
858.6106
859.1167
839.8123
844.3222
846.5338
849.1104
851.3786
853.4703
855.3323
856.9613
858.349
859.4945
860.4013
861.078
861.5374
861.7963
861.8748
861.7956
861.5835
861.2641
860.8634
860.4068
859.9185
859.4207
858.9329
858.472
858.0512
857.6805
857.3664
857.112
856.9175
856.7803
856.6955
856.6565
856.6554
856.6837
856.7326
856.7939
856.8598
856.9238
856.9807
857.0269
857.0604
857.0811
857.0906
857.092
857.0902
857.0912
857.1025
857.1324
857.1902
857.2856
857.429
857.6305
857.9007
858.2495
858.6863
859.2201
859.8586
860.6084
861.4743
862.4563
850.6572
854.0384
855.4861
857.1424
858.4601
859.5696
860.441
861.0902
861.5277
861.7701
861.8369
861.7503
861.5343
861.2137
860.8137
860.359
859.8729
859.3771
858.8905
858.4295
858.0072
857.6333
857.3144
857.0539
856.852
856.7065
856.6129
856.565
856.5552
856.5756
856.6176
856.6732
856.7349
856.7963
856.8524
856.8996
856.9359
856.9613
856.9773
856.9871
856.9954
857.0083
857.0333
857.0787
857.1536
857.2678
857.4315
857.6548
857.9478
858.3203
858.7816
859.3401
860.0031
860.7767
861.6655
862.6727
863.7993
865.0447
866.4057
867.8751
858.034
859.8777
860.4783
861.1432
861.5352
861.759
861.8091
861.7124
861.49
861.1663
860.7654
860.3111
859.8262
859.3315
858.8456
858.3842
857.9602
857.5833
857.2599
856.9935
856.7847
856.6315
856.5296
856.4732
856.4554
856.4681
856.5035
856.5537
856.6114
856.6705
856.726
856.7745
856.8141
856.8446
856.8676
856.8864
856.9055
856.9312
856.9707
857.0324
857.1254
857.2594
857.4443
857.6902
858.0071
858.4044
858.8911
859.475
860.1632
860.9612
861.8732
862.9018
864.0474
865.3087
866.6824
868.1629
869.7426
871.4122
873.1604
874.9742
861.4661
861.872
861.8055
861.7083
861.463
861.1317
860.725
860.2684
859.7825
859.2875
858.801
858.3384
857.9123
857.532
857.2041
856.9321
856.7165
856.5558
856.446
856.3816
856.3559
856.3614
856.3904
856.4354
856.4894
856.5464
856.6016
856.6516
856.6947
856.7307
856.7613
856.7895
856.8201
856.8591
856.9138
856.9925
857.1043
857.2586
857.4654
857.7345
858.0757
858.4981
859.0104
859.6201
860.3338
861.1566
862.0922
863.1424
864.3074
865.5854
866.9723
868.4625
870.0478
871.7183
873.4622
875.266
877.1148
878.993
880.8845
882.7755
861.6839
861.1373
860.729
860.2531
859.7562
859.2547
858.7635
858.2972
857.8673
857.4828
857.1497
856.8716
856.6492
856.4809
856.3632
856.2908
856.2574
856.2559
856.2787
856.3187
856.3691
856.4242
856.4793
856.5311
856.578
856.6198
856.6582
856.6963
856.7388
856.7917
856.8621
856.9584
857.0894
857.2646
857.4936
857.7862
858.1519
858.5996
859.1375
859.7729
860.5119
861.3593
862.3182
863.39
864.5744
865.869
867.2696
868.7697
870.3612
872.0338
873.7755
875.5729
877.4109
879.2735
881.1439
883.0047
884.8388
886.6295
888.3621
890.0273
860.1159
859.2216
858.7819
858.2807
857.8413
857.4456
857.1037
856.8171
856.5864
856.4099
856.2838
856.2032
856.1619
856.1531
856.1696
856.2046
856.2515
856.3046
856.3597
856.4134
856.4642
856.5121
856.5587
856.607
856.6617
856.7288
856.8155
856.9297
857.0803
857.2767
857.5283
857.8446
858.2348
858.7077
859.2711
859.932
860.696
861.5675
862.5492
863.6421
864.8454
866.1563
867.5701
869.0801
870.6779
872.3529
874.093
875.8847
877.713
879.562
881.4151
883.2553
885.0656
886.8292
888.5302
890.1536
891.6861
893.1163
894.4363
895.6452
858.1857
857.4078
857.1171
856.7886
856.5452
856.3531
856.215
856.1236
856.073
856.0561
856.0658
856.0952
856.1382
856.1893
856.2441
856.2997
856.3544
856.4084
856.4632
856.522
856.5892
856.6709
856.7739
856.9064
857.0769
857.2947
857.5689
857.909
858.3238
858.8217
859.4104
860.0964
860.8851
861.7802
862.7841
863.8975
865.119
866.4455
867.872
869.3914
870.9951
872.6723
874.4108
876.197
878.0162
879.8524
881.6893
883.5101
885.2982
887.0373
888.7119
890.3074
891.8108
893.2107
894.4976
895.664
896.7049
897.618
898.4045
899.0726
856.7846
856.3177
856.2043
856.0736
856.0082
855.9759
855.9748
855.996
856.0334
856.0813
856.1352
856.1921
856.2504
856.3103
856.3732
856.4424
856.5221
856.6184
856.738
856.8888
857.0794
857.3186
857.6155
857.9793
858.4186
858.9414
859.555
860.2657
861.0784
861.9966
863.0221
864.1552
865.3942
866.7357
868.1741
869.7024
871.3114
872.9903
874.727
876.5077
878.3176
880.1413
881.9624
883.7646
885.5315
887.2473
888.8969
890.4661
891.9424
893.3147
894.5741
895.7134
896.7279
897.6149
898.3741
899.0073
899.5188
899.9148
900.2043
900.4009
856.1363
855.9417
855.939
855.9302
855.9549
855.9925
856.0411
856.0964
856.1564
856.221
856.2913
856.3702
856.4621
856.5727
856.7087
856.8778
857.0883
857.3488
857.6684
858.0557
858.5191
859.0665
859.7047
860.4396
861.2758
862.2163
863.2627
864.4148
865.6706
867.0262
868.4759
870.0123
871.626
873.3062
875.0406
876.8154
878.6161
880.4271
882.2326
884.0165
885.7627
887.4558
889.0812
890.6251
892.0755
893.4217
894.6551
895.769
896.7589
897.6224
898.3594
898.972
899.4642
899.8419
900.1128
900.2857
900.371
900.38
900.3252
900.2208
856.0206
855.9653
856.0007
856.0372
856.0906
856.1529
856.226
856.3115
856.4136
856.5372
856.6887
856.8753
857.1052
857.3867
857.7284
858.1388
858.626
859.1974
859.8596
860.6182
861.4772
862.4393
863.5059
864.6762
865.9479
867.3168
868.777
870.3207
871.9385
873.6194
875.351
877.1196
878.9107
880.7091
882.499
884.2646
885.9904
887.6612
889.2628
890.7821
892.2072
893.5281
894.7365
895.826
896.7926
897.634
898.3503
898.9438
899.4184
899.7802
900.0367
900.1967
900.2705
900.2686
900.2026
900.084
899.9245
899.7354
899.5279
899.313
856.1502
856.1535
856.2143
856.2917
856.3948
856.5245
856.6866
856.8874
857.1343
857.4351
857.7978
858.2304
858.7406
859.3353
860.0207
860.802
861.683
862.666
863.7518
864.9394
866.2262
867.6076
869.0774
870.6277
872.2489
873.9298
875.658
877.42
879.2013
880.9867
882.761
884.5084
886.2139
887.8626
889.4409
890.9358
892.3362
893.6323
894.8162
895.8821
896.826
897.646
898.3426
898.9179
899.3761
899.7232
899.9667
900.1153
900.179
900.1684
900.0946
899.9691
899.8033
899.608
899.3937
899.1702
898.9461
898.7295
898.5271
898.3448
856.4742
856.5873
856.7382
856.9398
857.1943
857.5073
857.8857
858.3367
858.867
859.483
860.1901
860.993
861.8948
862.8975
864.0014
865.2053
866.5061
867.899
869.3776
870.9336
872.5573
874.2376
875.9619
877.7167
879.4877
881.26
883.0184
884.7477
886.4328
888.0597
889.6147
891.0856
892.4616
893.7333
894.8933
895.9359
896.8576
897.6568
898.3341
898.8917
899.3341
899.6672
899.8985
900.0366
900.0913
900.0731
899.9929
899.862
899.6913
899.4917
899.2734
899.046
898.818
898.5969
898.3892
898.2
898.0335
897.8929
897.7801
897.6965
857.2772
857.6704
858.0244
858.4839
859.0238
859.6537
860.3769
861.197
862.1166
863.1367
864.257
865.4757
866.7892
868.1924
869.6785
871.2393
872.8646
874.5434
876.2631
878.0102
879.7705
881.5293
883.2716
884.9825
886.6473
888.2523
889.7843
891.2315
892.5833
893.8309
894.9672
895.9869
896.8868
897.6655
898.3238
898.8642
899.2912
899.6106
899.83
899.9579
900.0041
899.9789
899.893
899.7575
899.5831
899.3805
899.1596
898.9298
898.6993
898.4757
898.2651
898.0728
897.9027
897.7577
897.6395
897.5488
897.4856
897.4492
897.4384
897.4521
859.0631
859.9446
860.6067
861.4421
862.3667
863.3969
864.5275
865.7565
867.0795
868.4907
869.9826
871.5466
873.1724
874.8486
876.5628
878.3014
880.0504
881.7952
883.5211
885.2134
886.8578
888.4409
889.9499
891.3734
892.7013
893.925
895.0379
896.0349
896.9132
897.6718
898.3114
898.8348
899.2465
899.5525
899.7602
899.8783
899.9163
899.8843
899.7931
899.6533
899.4757
899.2706
899.0478
898.8164
898.5847
898.3598
898.1479
897.9539
897.7818
897.6343
897.5132
897.4192
897.3521
897.3112
897.2947
897.3007
897.3267
897.3704
897.4296
897.5028
862.3087
863.8177
864.829
866.0779
867.3949
868.8071
870.2987
871.8617
873.4849
875.1565
876.8636
878.5926
880.3293
882.0594
883.7683
885.4416
887.0653
888.6263
890.1123
891.5121
892.816
894.016
895.1056
896.0802
896.9372
897.6757
898.2968
898.8033
899.1999
899.4927
899.6889
899.7973
899.8271
899.7885
899.692
899.5482
899.3676
899.1603
898.9359
898.7035
898.471
898.2455
898.033
897.8383
897.6654
897.5168
897.3943
897.2984
897.2292
897.1855
897.1659
897.1685
897.1907
897.2301
897.2837
897.3488
897.4228
897.5035
897.5893
897.6798
867.2061
869.3274
870.6321
872.2171
873.8191
875.4801
877.1741
878.8896
880.6115
882.3251
884.0158
885.6693
887.2718
888.8103
890.2729
891.6488
892.9287
894.1049
895.1712
896.1234
896.9591
897.6776
898.2803
898.7702
899.1518
899.4313
899.6161
899.7148
899.7366
899.6915
899.5898
899.442
899.2584
899.049
898.8233
898.5899
898.3569
898.131
897.9183
897.7235
897.5503
897.4013
897.2781
897.1815
897.1111
897.0661
897.0449
897.0455
897.0655
897.1022
897.153
897.2151
897.2858
897.3626
897.4432
897.5257
897.6084
897.6901
897.7707
897.8509
873.5041
876.0411
877.4904
879.227
880.9129
882.6053
884.272
885.9024
887.4813
888.996
890.4344
891.7859
893.0414
894.1935
895.2363
896.166
896.9802
897.6787
898.263
898.736
899.1026
899.3689
899.5423
899.6312
899.6449
899.5933
899.4864
899.3346
899.1481
898.9367
898.7096
898.4754
898.2419
898.016
897.8032
897.6084
897.4352
897.2861
897.1628
897.0658
896.9949
896.9492
896.9272
896.9268
896.9457
896.9811
897.0304
897.0907
897.1595
897.2341
897.3124
897.3923
897.4721
897.5505
897.6263
897.6988
897.7677
897.8329
897.8954
897.957
880.5187
883.1363
884.5284
886.1763
887.7093
889.1961
890.6048
891.929
893.1582
894.2851
895.3038
896.2104
897.0029
897.681
898.2465
898.7025
899.0539
899.3067
899.4685
899.5475
899.5529
899.4946
899.3824
899.2266
899.037
898.8235
898.595
898.3601
898.1262
897.9001
897.6874
897.4928
897.3197
897.1707
897.0474
896.9503
896.8792
896.8332
896.8108
896.8099
896.8281
896.8628
896.9114
896.9709
897.0388
897.1125
897.1896
897.2682
897.3466
897.4232
897.497
897.5673
897.6336
897.6957
897.7536
897.8075
897.858
897.9058
897.9523
897.9996
887.3122
889.6347
890.7772
892.1131
893.294
894.3919
895.3812
896.262
897.031
897.6878
898.2339
898.6723
899.008
899.247
899.3967
899.4654
899.4623
899.3968
899.279
899.1188
898.9261
898.7102
898.4802
898.2443
898.01
897.7838
897.5712
897.3767
897.2039
897.0551
896.9318
896.8347
896.7636
896.7174
896.6948
896.6936
896.7114
896.7458
896.794
896.8531
896.9206
896.9939
897.0706
897.1488
897.2266
897.3026
897.3756
897.4449
897.51
897.5705
897.6265
897.6783
897.7262
897.7708
897.8126
897.8523
897.8907
897.9288
897.9678
898.01
892.975
894.701
895.4689
896.3539
897.0793
897.7108
898.2324
898.6506
898.9688
899.1929
899.3298
899.3876
899.3753
899.3024
899.1785
899.0135
898.817
898.5985
898.3666
898.1294
897.8943
897.6677
897.455
897.2606
897.0879
896.9393
896.8162
896.7192
896.648
896.6018
896.579
896.5776
896.5952
896.6294
896.6773
896.7363
896.8036
896.8768
896.9534
897.0315
897.1093
897.1852
897.2581
897.3272
897.3919
897.4519
897.5073
897.5581
897.6047
897.6476
897.6875
897.7249
897.7606
897.7952
897.8295
897.8639
897.8992
897.9361
897.9758
898.02
896.8968
897.8855
898.2536
898.6674
898.9514
899.1559
899.2752
899.3194
899.2961
899.2145
899.0836
898.9131
898.7124
898.4906
898.2562
898.0174
897.7811
897.5538
897.3406
897.1458
896.973
896.8242
896.7011
896.6041
896.5328
896.4865
896.4635
896.462
896.4794
896.5134
896.5611
896.62
896.6872
896.7604
896.8371
896.9153
896.9932
897.0693
897.1424
897.2117
897.2765
897.3366
897.3919
897.4425
897.4887
897.5311
897.5701
897.6064
897.6406
897.6735
897.7055
897.7375
897.7699
897.8032
897.8379
897.8742
897.9127
897.9537
897.998
898.0472
898.9228
899.2185
899.2565
899.2873
899.2402
899.1444
899.0019
898.8232
898.6163
898.39
898.1524
897.911
897.6729
897.4442
897.23
897.0345
896.8611
896.7118
896.5882
896.4907
896.419
896.3723
896.349
896.3471
896.3643
896.398
896.4456
896.5043
896.5714
896.6446
896.7214
896.7997
896.8778
896.9542
897.0276
897.0972
897.1624
897.2228
897.2783
897.3291
897.3755
897.4178
897.4566
897.4926
897.5262
897.5583
897.5893
897.6199
897.6506
897.6819
897.7143
897.748
897.7835
897.8207
897.86
897.9013
897.9449
897.9909
898.0399
898.0934
899.3406
899.132
898.9672
898.7673
898.5448
898.3078
898.0624
897.8157
897.5739
897.3426
897.1265
896.9294
896.7547
896.6043
896.4797
896.3813
896.3088
896.2613
896.2371
896.2344
896.2509
896.284
896.3311
896.3895
896.4565
896.5295
896.6063
896.6847
896.763
896.8396
896.9133
896.9833
897.0489
897.1097
897.1656
897.2168
897.2634
897.306
897.345
897.3809
897.4145
897.4463
897.4769
897.507
897.5369
897.5673
897.5984
897.6307
897.6643
897.6994
897.7363
897.7749
897.8154
897.8576
897.9015
897.9471
897.9943
898.0432
898.0945
898.1496
898.7213
898.2589
898.0265
897.7536
897.5008
897.2602
897.0377
896.8363
896.6584
896.5056
896.379
896.2788
896.2047
896.1556
896.1301
896.1261
896.1415
896.1735
896.2196
896.2771
896.3434
896.4159
896.4924
896.5707
896.649
896.7257
896.7997
896.87
896.9359
896.9971
897.0534
897.105
897.152
897.1949
897.2342
897.2703
897.304
897.3358
897.3664
897.3962
897.4259
897.4558
897.4864
897.5179
897.5506
897.5847
897.6202
897.6573
897.6959
897.7359
897.7774
897.8202
897.8643
897.9095
897.9557
898.0027
898.0506
898.0996
898.1502
898.2038
897.6951
897.2042
897.0063
896.7764
896.589
896.4269
896.2941
896.1891
896.1114
896.0594
896.0314
896.0252
896.0385
896.0687
896.1132
896.1693
896.2344
896.3059
896.3815
896.4591
896.5369
896.6133
896.6872
896.7576
896.8237
896.8851
896.9418
896.9937
897.0411
897.0843
897.1239
897.1603
897.1942
897.2261
897.2567
897.2866
897.3161
897.3459
897.3762
897.4074
897.4396
897.4731
897.508
897.5442
897.5819
897.6208
897.6609
897.7021
897.7443
897.7873
897.831
897.8754
897.9202
897.9654
898.0108
898.0565
898.1024
898.1488
898.1964
898.2468
896.7579
896.381
896.2665
896.1339
896.0462
895.9843
895.9495
895.938
895.9471
895.974
896.0157
896.0693
896.1322
896.2018
896.2758
896.3522
896.4289
896.5045
896.5777
896.6475
896.7133
896.7746
896.8312
896.8832
896.9308
896.9742
897.014
897.0506
897.0847
897.1168
897.1475
897.1774
897.207
897.2367
897.2669