/*--------------------------------*- C++ -*----------------------------------*\
| =========                 |                                                 |
| \\      /  F ield         | OpenFOAM: The Open Source CFD Toolbox           |
|  \\    /   O peration     | Version:  2312                                  |
|   \\  /    A nd           | Website:  www.openfoam.com                      |
|    \\/     M anipulation  |                                                 |
\*---------------------------------------------------------------------------*/
FoamFile
{
    version     2.0;
    format      ascii;
    arch        "LSB;label=32;scalar=64";
    class       volScalarField;
    location    "500";
    object      ILambda_5_0;
}
// * * * * * * * * * * * * * * * * * * * * * * * * * * * * * * * * * * * * * //

dimensions      [1 0 -3 0 0 0 0];

internalField   nonuniform List<scalar> 
12000
(
2631.696
2630.965
2630.262
2629.593
2628.957
2628.348
2627.761
2627.188
2626.624
2626.063
2625.503
2624.94
2624.373
2623.804
2623.233
2622.663
2622.099
2621.542
2620.999
2620.473
2619.969
2619.489
2619.039
2618.619
2618.233
2617.88
2617.563
2617.279
2617.029
2616.809
2616.617
2616.45
2616.305
2616.177
2616.062
2615.955
2615.852
2615.748
2615.639
2615.522
2615.393
2615.247
2615.083
2614.899
2614.693
2614.463
2614.21
2613.934
2613.635
2613.315
2612.975
2612.619
2612.248
2611.865
2611.475
2611.079
2610.685
2610.278
2609.939
2609.329
2629.219
2628.724
2628.237
2627.755
2627.268
2626.771
2626.259
2625.73
2625.185
2624.628
2624.063
2623.497
2622.936
2622.386
2621.855
2621.349
2620.873
2620.433
2620.03
2619.668
2619.348
2619.069
2618.83
2618.63
2618.464
2618.33
2618.221
2618.134
2618.063
2618.002
2617.945
2617.888
2617.823
2617.748
2617.657
2617.546
2617.411
2617.251
2617.063
2616.847
2616.6
2616.325
2616.021
2615.691
2615.337
2614.961
2614.567
2614.159
2613.741
2613.316
2612.89
2612.466
2612.049
2611.643
2611.251
2610.876
2610.523
2610.183
2609.907
2609.467
2628.929
2628.454
2627.941
2627.398
2626.831
2626.247
2625.654
2625.06
2624.473
2623.902
2623.354
2622.836
2622.352
2621.906
2621.502
2621.141
2620.823
2620.547
2620.311
2620.112
2619.947
2619.811
2619.699
2619.606
2619.527
2619.455
2619.387
2619.316
2619.237
2619.146
2619.039
2618.912
2618.762
2618.587
2618.385
2618.156
2617.898
2617.614
2617.303
2616.967
2616.61
2616.233
2615.841
2615.436
2615.023
2614.605
2614.187
2613.773
2613.367
2612.972
2612.592
2612.23
2611.889
2611.57
2611.275
2611.006
2610.762
2610.539
2610.363
2610.095
2628.208
2627.602
2626.984
2626.368
2625.765
2625.183
2624.629
2624.11
2623.629
2623.19
2622.794
2622.444
2622.137
2621.873
2621.65
2621.463
2621.309
2621.183
2621.081
2620.997
2620.926
2620.862
2620.799
2620.733
2620.658
2620.571
2620.466
2620.341
2620.192
2620.017
2619.815
2619.584
2619.325
2619.039
2618.725
2618.387
2618.026
2617.646
2617.25
2616.842
2616.426
2616.005
2615.584
2615.167
2614.759
2614.362
2613.982
2613.619
2613.279
2612.961
2612.669
2612.403
2612.163
2611.95
2611.762
2611.598
2611.456
2611.331
2611.236
2611.086
2627.063
2626.494
2625.946
2625.433
2624.959
2624.528
2624.143
2623.803
2623.507
2623.253
2623.04
2622.863
2622.718
2622.601
2622.506
2622.429
2622.363
2622.303
2622.244
2622.18
2622.107
2622.019
2621.913
2621.785
2621.633
2621.454
2621.247
2621.011
2620.746
2620.452
2620.132
2619.787
2619.419
2619.032
2618.63
2618.215
2617.793
2617.368
2616.943
2616.523
2616.113
2615.715
2615.334
2614.973
2614.634
2614.32
2614.032
2613.771
2613.537
2613.33
2613.149
2612.993
2612.86
2612.746
2612.65
2612.568
2612.498
2612.43
2612.379
2612.264
2626.264
2625.858
2625.487
2625.157
2624.87
2624.625
2624.421
2624.252
2624.115
2624.006
2623.918
2623.847
2623.787
2623.732
2623.676
2623.615
2623.544
2623.457
2623.35
2623.221
2623.067
2622.884
2622.673
2622.432
2622.161
2621.862
2621.535
2621.183
2620.81
2620.417
2620.008
2619.589
2619.162
2618.732
2618.305
2617.882
2617.47
2617.072
2616.692
2616.332
2615.995
2615.684
2615.4
2615.143
2614.914
2614.713
2614.538
2614.388
2614.261
2614.155
2614.066
2613.991
2613.926
2613.868
2613.814
2613.759
2613.7
2613.627
2613.568
2613.392
2626.211
2625.994
2625.803
2625.644
2625.515
2625.412
2625.33
2625.265
2625.21
2625.159
2625.107
2625.049
2624.979
2624.893
2624.786
2624.656
2624.5
2624.314
2624.099
2623.853
2623.577
2623.272
2622.94
2622.582
2622.202
2621.803
2621.389
2620.963
2620.532
2620.098
2619.667
2619.242
2618.829
2618.43
2618.049
2617.69
2617.356
2617.047
2616.766
2616.513
2616.289
2616.093
2615.924
2615.78
2615.659
2615.558
2615.475
2615.406
2615.347
2615.295
2615.245
2615.194
2615.139
2615.076
2615.001
2614.912
2614.808
2614.675
2614.562
2614.264
2626.892
2626.814
2626.744
2626.685
2626.634
2626.586
2626.536
2626.479
2626.41
2626.323
2626.216
2626.084
2625.924
2625.736
2625.517
2625.267
2624.986
2624.676
2624.338
2623.975
2623.589
2623.185
2622.766
2622.336
2621.9
2621.463
2621.028
2620.602
2620.187
2619.787
2619.407
2619.05
2618.717
2618.411
2618.134
2617.885
2617.666
2617.475
2617.311
2617.173
2617.058
2616.963
2616.885
2616.821
2616.767
2616.719
2616.673
2616.626
2616.573
2616.512
2616.439
2616.351
2616.247
2616.123
2615.979
2615.813
2615.629
2615.409
2615.22
2614.786
2628.037
2628.009
2627.967
2627.913
2627.843
2627.755
2627.644
2627.508
2627.345
2627.151
2626.926
2626.671
2626.384
2626.068
2625.725
2625.356
2624.966
2624.557
2624.134
2623.7
2623.262
2622.822
2622.386
2621.958
2621.543
2621.144
2620.765
2620.409
2620.079
2619.776
2619.503
2619.259
2619.044
2618.859
2618.701
2618.568
2618.459
2618.37
2618.298
2618.239
2618.189
2618.145
2618.103
2618.058
2618.007
2617.947
2617.874
2617.786
2617.68
2617.556
2617.41
2617.243
2617.054
2616.843
2616.611
2616.358
2616.089
2615.788
2615.533
2614.999
2629.258
2629.184
2629.076
2628.937
2628.768
2628.567
2628.335
2628.072
2627.777
2627.454
2627.103
2626.728
2626.331
2625.917
2625.489
2625.052
2624.61
2624.169
2623.732
2623.304
2622.889
2622.492
2622.116
2621.763
2621.437
2621.139
2620.87
2620.632
2620.423
2620.244
2620.092
2619.966
2619.862
2619.779
2619.713
2619.659
2619.614
2619.573
2619.534
2619.492
2619.442
2619.383
2619.31
2619.221
2619.113
2618.986
2618.838
2618.667
2618.474
2618.26
2618.024
2617.768
2617.494
2617.203
2616.897
2616.577
2616.251
2615.902
2615.609
2615.037
2630.172
2629.981
2629.746
2629.476
2629.173
2628.84
2628.48
2628.096
2627.692
2627.27
2626.836
2626.394
2625.948
2625.504
2625.065
2624.637
2624.223
2623.828
2623.454
2623.106
2622.784
2622.492
2622.229
2621.997
2621.796
2621.624
2621.479
2621.361
2621.265
2621.188
2621.128
2621.08
2621.04
2621.004
2620.968
2620.928
2620.88
2620.821
2620.748
2620.657
2620.548
2620.418
2620.265
2620.091
2619.893
2619.674
2619.433
2619.172
2618.893
2618.598
2618.288
2617.967
2617.636
2617.298
2616.955
2616.609
2616.266
2615.91
2615.616
2615.066
2630.548
2630.222
2629.859
2629.467
2629.054
2628.624
2628.183
2627.734
2627.283
2626.834
2626.393
2625.963
2625.549
2625.155
2624.784
2624.438
2624.121
2623.834
2623.578
2623.353
2623.158
2622.994
2622.858
2622.747
2622.659
2622.591
2622.538
2622.497
2622.463
2622.433
2622.401
2622.364
2622.319
2622.261
2622.187
2622.096
2621.984
2621.851
2621.695
2621.515
2621.313
2621.088
2620.842
2620.576
2620.291
2619.991
2619.676
2619.35
2619.016
2618.675
2618.33
2617.984
2617.638
2617.295
2616.957
2616.624
2616.3
2615.971
2615.703
2615.21
2630.393
2629.973
2629.53
2629.077
2628.62
2628.167
2627.721
2627.288
2626.873
2626.478
2626.109
2625.767
2625.454
2625.172
2624.922
2624.703
2624.516
2624.359
2624.23
2624.127
2624.047
2623.986
2623.941
2623.907
2623.88
2623.855
2623.828
2623.795
2623.753
2623.697
2623.624
2623.532
2623.419
2623.283
2623.124
2622.94
2622.733
2622.503
2622.251
2621.979
2621.689
2621.383
2621.063
2620.732
2620.393
2620.049
2619.701
2619.353
2619.006
2618.663
2618.325
2617.994
2617.67
2617.356
2617.05
2616.753
2616.467
2616.178
2615.944
2615.508
2629.93
2629.492
2629.05
2628.616
2628.199
2627.804
2627.434
2627.093
2626.783
2626.505
2626.261
2626.05
2625.871
2625.722
2625.602
2625.507
2625.435
2625.381
2625.342
2625.314
2625.293
2625.273
2625.25
2625.221
2625.181
2625.127
2625.055
2624.963
2624.849
2624.711
2624.549
2624.362
2624.151
2623.916
2623.659
2623.382
2623.086
2622.775
2622.45
2622.114
2621.771
2621.422
2621.071
2620.72
2620.371
2620.027
2619.689
2619.358
2619.036
2618.723
2618.42
2618.127
2617.844
2617.57
2617.304
2617.045
2616.794
2616.537
2616.327
2615.922
2629.494
2629.121
2628.759
2628.421
2628.114
2627.839
2627.599
2627.393
2627.221
2627.081
2626.969
2626.884
2626.821
2626.776
2626.745
2626.723
2626.707
2626.692
2626.673
2626.646
2626.607
2626.554
2626.482
2626.389
2626.273
2626.133
2625.969
2625.778
2625.563
2625.324
2625.063
2624.781
2624.48
2624.164
2623.835
2623.495
2623.147
2622.795
2622.441
2622.087
2621.737
2621.391
2621.052
2620.721
2620.4
2620.088
2619.787
2619.496
2619.216
2618.945
2618.683
2618.428
2618.181
2617.938
2617.699
2617.461
2617.227
2616.979
2616.776
2616.365
2629.409
2629.163
2628.935
2628.736
2628.57
2628.436
2628.332
2628.255
2628.201
2628.166
2628.144
2628.131
2628.122
2628.113
2628.098
2628.074
2628.037
2627.983
2627.91
2627.815
2627.696
2627.553
2627.384
2627.189
2626.97
2626.726
2626.46
2626.174
2625.869
2625.548
2625.215
2624.871
2624.52
2624.165
2623.809
2623.453
2623.101
2622.755
2622.415
2622.085
2621.764
2621.453
2621.154
2620.865
2620.587
2620.318
2620.059
2619.808
2619.563
2619.324
2619.088
2618.855
2618.622
2618.389
2618.154
2617.914
2617.673
2617.413
2617.197
2616.753
2629.88
2629.778
2629.69
2629.622
2629.576
2629.549
2629.535
2629.531
2629.531
2629.529
2629.521
2629.501
2629.467
2629.414
2629.34
2629.243
2629.122
2628.974
2628.8
2628.6
2628.375
2628.126
2627.854
2627.562
2627.252
2626.927
2626.589
2626.242
2625.888
2625.531
2625.173
2624.816
2624.463
2624.117
2623.778
2623.448
2623.128
2622.819
2622.521
2622.234
2621.958
2621.692
2621.435
2621.186
2620.944
2620.707
2620.474
2620.244
2620.013
2619.783
2619.55
2619.314
2619.073
2618.827
2618.574
2618.314
2618.05
2617.764
2617.526
2617.043
2630.911
2630.916
2630.918
2630.924
2630.931
2630.936
2630.934
2630.921
2630.891
2630.842
2630.769
2630.672
2630.548
2630.397
2630.218
2630.013
2629.781
2629.525
2629.247
2628.949
2628.633
2628.302
2627.96
2627.609
2627.252
2626.892
2626.532
2626.175
2625.822
2625.475
2625.137
2624.808
2624.49
2624.183
2623.888
2623.603
2623.33
2623.066
2622.812
2622.565
2622.326
2622.091
2621.86
2621.632
2621.403
2621.174
2620.943
2620.708
2620.468
2620.223
2619.972
2619.714
2619.449
2619.177
2618.899
2618.613
2618.324
2618.015
2617.758
2617.251
2632.288
2632.322
2632.334
2632.327
2632.302
2632.257
2632.188
2632.092
2631.969
2631.816
2631.634
2631.425
2631.188
2630.926
2630.642
2630.337
2630.015
2629.679
2629.331
2628.975
2628.614
2628.251
2627.889
2627.53
2627.176
2626.83
2626.493
2626.166
2625.85
2625.546
2625.253
2624.971
2624.7
2624.44
2624.188
2623.945
2623.708
2623.476
2623.247
2623.02
2622.793
2622.565
2622.335
2622.101
2621.861
2621.616
2621.365
2621.108
2620.843
2620.571
2620.293
2620.009
2619.719
2619.424
2619.125
2618.822
2618.52
2618.204
2617.941
2617.439
2633.667
2633.646
2633.586
2633.494
2633.372
2633.221
2633.039
2632.828
2632.589
2632.323
2632.034
2631.724
2631.397
2631.055
2630.702
2630.342
2629.977
2629.611
2629.246
2628.885
2628.531
2628.185
2627.848
2627.522
2627.208
2626.906
2626.616
2626.337
2626.07
2625.813
2625.564
2625.324
2625.09
2624.86
2624.634
2624.409
2624.184
2623.957
2623.727
2623.494
2623.255
2623.01
2622.758
2622.5
2622.234
2621.962
2621.683
2621.398
2621.108
2620.813
2620.514
2620.213
2619.911
2619.608
2619.306
2619.004
2618.708
2618.403
2618.152
2617.682
2634.723
2634.592
2634.417
2634.209
2633.97
2633.705
2633.414
2633.103
2632.773
2632.428
2632.072
2631.708
2631.34
2630.971
2630.605
2630.242
2629.887
2629.541
2629.204
2628.88
2628.567
2628.267
2627.979
2627.704
2627.439
2627.185
2626.94
2626.702
2626.471
2626.244
2626.02
2625.797
2625.574
2625.349
2625.12
2624.887
2624.648
2624.403
2624.151
2623.892
2623.625
2623.352
2623.071
2622.785
2622.493
2622.198
2621.898
2621.597
2621.294
2620.992
2620.691
2620.392
2620.097
2619.806
2619.519
2619.237
2618.963
2618.683
2618.454
2618.028
2635.291
2635.046
2634.763
2634.455
2634.128
2633.784
2633.429
2633.065
2632.697
2632.328
2631.961
2631.599
2631.244
2630.898
2630.563
2630.239
2629.928
2629.63
2629.345
2629.072
2628.81
2628.559
2628.317
2628.082
2627.853
2627.629
2627.407
2627.186
2626.965
2626.741
2626.513
2626.28
2626.042
2625.796
2625.544
2625.284
2625.016
2624.741
2624.46
2624.172
2623.879
2623.581
2623.281
2622.978
2622.675
2622.372
2622.071
2621.772
2621.478
2621.188
2620.904
2620.626
2620.354
2620.088
2619.829
2619.575
2619.329
2619.077
2618.872
2618.481
2635.414
2635.095
2634.751
2634.395
2634.033
2633.669
2633.305
2632.946
2632.594
2632.251
2631.919
2631.598
2631.29
2630.995
2630.713
2630.443
2630.184
2629.936
2629.696
2629.465
2629.238
2629.016
2628.796
2628.577
2628.357
2628.134
2627.907
2627.674
2627.436
2627.19
2626.937
2626.676
2626.407
2626.131
2625.848
2625.559
2625.264
2624.965
2624.663
2624.359
2624.054
2623.75
2623.449
2623.15
2622.856
2622.567
2622.283
2622.007
2621.737
2621.474
2621.218
2620.969
2620.726
2620.488
2620.255
2620.024
2619.799
2619.564
2619.372
2618.991
2635.294
2634.96
2634.614
2634.267
2633.925
2633.59
2633.264
2632.949
2632.647
2632.357
2632.079
2631.813
2631.559
2631.314
2631.078
2630.849
2630.626
2630.406
2630.188
2629.971
2629.752
2629.529
2629.303
2629.071
2628.832
2628.585
2628.331
2628.069
2627.799
2627.522
2627.237
2626.946
2626.649
2626.349
2626.045
2625.739
2625.434
2625.129
2624.826
2624.527
2624.233
2623.944
2623.661
2623.385
2623.116
2622.855
2622.601
2622.355
2622.115
2621.88
2621.651
2621.426
2621.203
2620.982
2620.761
2620.539
2620.317
2620.08
2619.884
2619.483
2635.174
2634.876
2634.573
2634.274
2633.984
2633.704
2633.435
2633.176
2632.928
2632.689
2632.457
2632.233
2632.013
2631.796
2631.581
2631.366
2631.148
2630.927
2630.701
2630.469
2630.229
2629.983
2629.727
2629.464
2629.192
2628.913
2628.627
2628.334
2628.035
2627.733
2627.427
2627.12
2626.813
2626.507
2626.204
2625.904
2625.609
2625.321
2625.038
2624.763
2624.495
2624.235
2623.983
2623.738
2623.5
2623.268
2623.041
2622.818
2622.599
2622.381
2622.164
2621.946
2621.726
2621.502
2621.275
2621.04
2620.802
2620.544
2620.33
2619.884
2635.235
2634.997
2634.753
2634.513
2634.278
2634.049
2633.827
2633.609
2633.395
2633.183
2632.972
2632.759
2632.544
2632.324
2632.099
2631.868
2631.628
2631.381
2631.125
2630.86
2630.587
2630.306
2630.017
2629.722
2629.422
2629.118
2628.811
2628.502
2628.193
2627.886
2627.582
2627.282
2626.987
2626.698
2626.416
2626.141
2625.874
2625.616
2625.365
2625.121
2624.885
2624.655
2624.43
2624.209
2623.991
2623.776
2623.561
2623.345
2623.127
2622.906
2622.681
2622.45
2622.213
2621.968
2621.715
2621.454
2621.187
2620.897
2620.655
2620.16
2635.538
2635.354
2635.158
2634.959
2634.758
2634.556
2634.352
2634.145
2633.934
2633.718
2633.495
2633.264
2633.026
2632.778
2632.522
2632.256
2631.982
2631.699
2631.409
2631.112
2630.81
2630.503
2630.194
2629.884
2629.574
2629.266
2628.96
2628.66
2628.364
2628.075
2627.794
2627.52
2627.254
2626.996
2626.747
2626.505
2626.27
2626.041
2625.818
2625.599
2625.383
2625.169
2624.956
2624.741
2624.525
2624.305
2624.081
2623.851
2623.615
2623.372
2623.121
2622.861
2622.593
2622.317
2622.033
2621.739
2621.442
2621.122
2620.856
2620.325
2636.028
2635.87
2635.693
2635.504
2635.305
2635.097
2634.88
2634.653
2634.417
2634.171
2633.915
2633.649
2633.374
2633.091
2632.799
2632.501
2632.197
2631.889
2631.578
2631.266
2630.955
2630.646
2630.34
2630.038
2629.742
2629.454
2629.172
2628.899
2628.634
2628.378
2628.129
2627.889
2627.656
2627.429
2627.207
2626.99
2626.775
2626.563
2626.35
2626.137
2625.922
2625.702
2625.479
2625.249
2625.013
2624.77
2624.519
2624.26
2623.993
2623.717
2623.433
2623.141
2622.842
2622.536
2622.225
2621.908
2621.589
2621.253
2620.975
2620.434
2636.58
2636.415
2636.224
2636.014
2635.789
2635.549
2635.298
2635.035
2634.761
2634.477
2634.186
2633.887
2633.582
2633.273
2632.961
2632.648
2632.336
2632.025
2631.719
2631.417
2631.121
2630.832
2630.552
2630.279
2630.015
2629.76
2629.513
2629.274
2629.042
2628.817
2628.597
2628.381
2628.168
2627.957
2627.746
2627.533
2627.318
2627.1
2626.876
2626.647
2626.41
2626.167
2625.915
2625.655
2625.387
2625.111
2624.826
2624.534
2624.235
2623.93
2623.619
2623.303
2622.984
2622.662
2622.338
2622.013
2621.691
2621.357
2621.081
2620.559
2637.063
2636.866
2636.639
2636.391
2636.127
2635.85
2635.561
2635.264
2634.96
2634.651
2634.339
2634.026
2633.713
2633.403
2633.096
2632.794
2632.499
2632.211
2631.931
2631.659
2631.397
2631.143
2630.898
2630.66
2630.43
2630.207
2629.988
2629.774
2629.563
2629.352
2629.142
2628.931
2628.716
2628.498
2628.274
2628.044
2627.808
2627.563
2627.311
2627.05
2626.78
2626.503
2626.217
2625.924
2625.623
2625.317
2625.005
2624.69
2624.37
2624.049
2623.727
2623.404
2623.082
2622.762
2622.445
2622.13
2621.822
2621.506
2621.247
2620.762
2637.393
2637.158
2636.894
2636.612
2636.318
2636.015
2635.706
2635.396
2635.084
2634.775
2634.469
2634.169
2633.874
2633.588
2633.309
2633.039
2632.778
2632.526
2632.282
2632.047
2631.819
2631.597
2631.381
2631.168
2630.958
2630.749
2630.54
2630.329
2630.115
2629.897
2629.673
2629.443
2629.205
2628.96
2628.706
2628.444
2628.173
2627.894
2627.606
2627.311
2627.01
2626.702
2626.389
2626.072
2625.752
2625.431
2625.108
2624.786
2624.465
2624.147
2623.831
2623.52
2623.213
2622.911
2622.615
2622.324
2622.04
2621.751
2621.514
2621.071
2637.573
2637.313
2637.03
2636.736
2636.435
2636.133
2635.832
2635.535
2635.243
2634.959
2634.683
2634.415
2634.157
2633.907
2633.666
2633.433
2633.207
2632.988
2632.773
2632.563
2632.354
2632.147
2631.939
2631.728
2631.515
2631.297
2631.073
2630.842
2630.604
2630.357
2630.102
2629.838
2629.566
2629.285
2628.996
2628.699
2628.395
2628.086
2627.772
2627.453
2627.132
2626.81
2626.487
2626.164
2625.844
2625.526
2625.211
2624.901
2624.597
2624.297
2624.004
2623.716
2623.435
2623.16
2622.89
2622.625
2622.368
2622.103
2621.887
2621.474
2637.681
2637.423
2637.15
2636.871
2636.592
2636.316
2636.046
2635.784
2635.53
2635.284
2635.046
2634.817
2634.594
2634.377
2634.165
2633.957
2633.751
2633.545
2633.338
2633.129
2632.916
2632.698
2632.474
2632.242
2632.003
2631.756
2631.499
2631.234
2630.959
2630.676
2630.385
2630.087
2629.781
2629.47
2629.154
2628.834
2628.511
2628.188
2627.864
2627.541
2627.22
2626.902
2626.588
2626.279
2625.975
2625.678
2625.386
2625.101
2624.822
2624.55
2624.284
2624.023
2623.768
2623.517
2623.27
2623.025
2622.784
2622.533
2622.328
2621.923
2637.833
2637.605
2637.365
2637.122
2636.882
2636.646
2636.416
2636.193
2635.975
2635.763
2635.554
2635.349
2635.145
2634.942
2634.737
2634.529
2634.317
2634.099
2633.875
2633.643
2633.403
2633.155
2632.897
2632.63
2632.354
2632.069
2631.776
2631.475
2631.167
2630.854
2630.536
2630.214
2629.891
2629.566
2629.241
2628.917
2628.596
2628.278
2627.964
2627.655
2627.353
2627.056
2626.766
2626.482
2626.205
2625.935
2625.671
2625.414
2625.161
2624.913
2624.669
2624.429
2624.19
2623.952
2623.715
2623.476
2623.239
2622.986
2622.778
2622.357
2638.126
2637.939
2637.741
2637.538
2637.335
2637.133
2636.933
2636.734
2636.535
2636.335
2636.132
2635.927
2635.716
2635.499
2635.276
2635.044
2634.804
2634.554
2634.295
2634.026
2633.748
2633.461
2633.166
2632.863
2632.554
2632.239
2631.919
2631.595
2631.27
2630.944
2630.618
2630.293
2629.972
2629.653
2629.34
2629.032
2628.729
2628.433
2628.144
2627.862
2627.587
2627.318
2627.056
2626.8
2626.55
2626.304
2626.063
2625.824
2625.588
2625.353
2625.119
2624.884
2624.647
2624.408
2624.165
2623.917
2623.667
2623.398
2623.176
2622.72
2638.587
2638.435
2638.266
2638.087
2637.903
2637.713
2637.518
2637.317
2637.11
2636.896
2636.673
2636.442
2636.202
2635.952
2635.692
2635.422
2635.143
2634.854
2634.557
2634.252
2633.941
2633.623
2633.302
2632.977
2632.65
2632.322
2631.995
2631.67
2631.348
2631.03
2630.716
2630.408
2630.106
2629.811
2629.523
2629.242
2628.968
2628.701
2628.441
2628.186
2627.937
2627.693
2627.454
2627.217
2626.982
2626.749
2626.516
2626.283
2626.048
2625.81
2625.57
2625.325
2625.075
2624.819
2624.557
2624.288
2624.015
2623.72
2623.475
2622.975
2639.162
2639.021
2638.856
2638.675
2638.482
2638.276
2638.06
2637.833
2637.594
2637.345
2637.085
2636.815
2636.535
2636.245
2635.947
2635.64
2635.327
2635.008
2634.685
2634.358
2634.03
2633.701
2633.374
2633.048
2632.725
2632.406
2632.093
2631.785
2631.484
2631.19
2630.903
2630.623
2630.35
2630.084
2629.825
2629.572
2629.325
2629.082
2628.844
2628.608
2628.375
2628.143
2627.911
2627.679
2627.445
2627.208
2626.968
2626.724
2626.475
2626.22
2625.96
2625.692
2625.418
2625.137
2624.849
2624.552
2624.251
2623.928
2623.66
2623.118
2639.745
2639.586
2639.399
2639.19
2638.964
2638.722
2638.468
2638.2
2637.921
2637.632
2637.333
2637.025
2636.711
2636.391
2636.067
2635.739
2635.41
2635.08
2634.752
2634.425
2634.102
2633.784
2633.47
2633.163
2632.863
2632.569
2632.283
2632.004
2631.733
2631.469
2631.211
2630.959
2630.713
2630.472
2630.235
2630
2629.768
2629.537
2629.306
2629.074
2628.84
2628.604
2628.364
2628.12
2627.871
2627.616
2627.355
2627.088
2626.814
2626.534
2626.246
2625.951
2625.649
2625.339
2625.024
2624.7
2624.374
2624.026
2623.737
2623.163
2640.225
2640.029
2639.801
2639.551
2639.283
2639.001
2638.707
2638.402
2638.089
2637.77
2637.445
2637.117
2636.788
2636.458
2636.129
2635.802
2635.48
2635.161
2634.848
2634.542
2634.242
2633.95
2633.665
2633.387
2633.117
2632.854
2632.598
2632.348
2632.103
2631.863
2631.627
2631.393
2631.162
2630.931
2630.701
2630.469
2630.236
2629.999
2629.759
2629.514
2629.265
2629.01
2628.748
2628.48
2628.206
2627.924
2627.636
2627.341
2627.038
2626.729
2626.414
2626.092
2625.765
2625.431
2625.093
2624.749
2624.404
2624.039
2623.736
2623.142
2640.537
2640.299
2640.031
2639.744
2639.442
2639.13
2638.811
2638.486
2638.159
2637.831
2637.503
2637.177
2636.855
2636.537
2636.226
2635.92
2635.621
2635.33
2635.047
2634.771
2634.502
2634.24
2633.986
2633.737
2633.494
2633.255
2633.02
2632.787
2632.557
2632.327
2632.097
2631.865
2631.632
2631.395
2631.155
2630.91
2630.659
2630.403
2630.141
2629.872
2629.596
2629.313
2629.023
2628.727
2628.424
2628.114
2627.798
2627.475
2627.148
2626.815
2626.477
2626.135
2625.789
2625.439
2625.086
2624.729
2624.374
2624
2623.691
2623.09
2640.687
2640.42
2640.127
2639.82
2639.505
2639.185
2638.864
2638.543
2638.224
2637.909
2637.6
2637.296
2636.999
2636.71
2636.428
2636.154
2635.887
2635.627
2635.374
2635.127
2634.885
2634.648
2634.414
2634.183
2633.953
2633.724
2633.494
2633.263
2633.029
2632.792
2632.551
2632.305
2632.054
2631.797
2631.533
2631.263
2630.986
2630.701
2630.41
2630.112
2629.807
2629.496
2629.178
2628.855
2628.526
2628.193
2627.854
2627.512
2627.166
2626.817
2626.466
2626.112
2625.755
2625.397
2625.038
2624.676
2624.318
2623.942
2623.631
2623.032
2640.743
2640.469
2640.176
2639.873
2639.568
2639.263
2638.961
2638.663
2638.371
2638.085
2637.807
2637.535
2637.271
2637.014
2636.763
2636.518
2636.278
2636.042
2635.809
2635.579
2635.35
2635.122
2634.893
2634.662
2634.428
2634.191
2633.949
2633.702
2633.45
2633.192
2632.927
2632.655
2632.376
2632.09
2631.797
2631.497
2631.191
2630.877
2630.558
2630.233
2629.903
2629.568
2629.229
2628.886
2628.539
2628.19
2627.838
2627.485
2627.129
2626.773
2626.415
2626.057
2625.698
2625.338
2624.978
2624.617
2624.26
2623.886
2623.578
2622.984
2640.805
2640.546
2640.274
2639.996
2639.718
2639.444
2639.173
2638.908
2638.649
2638.396
2638.148
2637.906
2637.668
2637.435
2637.204
2636.975
2636.748
2636.52
2636.292
2636.061
2635.827
2635.59
2635.348
2635.1
2634.847
2634.587
2634.321
2634.048
2633.767
2633.48
2633.185
2632.883
2632.574
2632.259
2631.938
2631.612
2631.28
2630.944
2630.603
2630.259
2629.911
2629.561
2629.209
2628.854
2628.499
2628.143
2627.786
2627.428
2627.07
2626.713
2626.355
2625.998
2625.64
2625.283
2624.927
2624.569
2624.215
2623.846
2623.541
2622.954
2640.958
2640.731
2640.491
2640.246
2640.002
2639.76
2639.521
2639.286
2639.053
2638.823
2638.595
2638.369
2638.143
2637.917
2637.69
2637.46
2637.226
2636.989
2636.746
2636.498
2636.244
2635.984
2635.716
2635.441
2635.159
2634.87
2634.573
2634.269
2633.959
2633.642
2633.319
2632.991
2632.657
2632.319
2631.977
2631.631
2631.283
2630.931
2630.578
2630.223
2629.867
2629.511
2629.153
2628.796
2628.439
2628.082
2627.725
2627.369
2627.014
2626.659
2626.304
2625.951
2625.597
2625.244
2624.891
2624.538
2624.189
2623.824
2623.523
2622.943
2641.249
2641.055
2640.846
2640.631
2640.414
2640.195
2639.975
2639.755
2639.533
2639.31
2639.084
2638.855
2638.623
2638.386
2638.144
2637.895
2637.641
2637.379
2637.11
2636.834
2636.551
2636.26
2635.961
2635.656
2635.344
2635.025
2634.7
2634.37
2634.035
2633.695
2633.352
2633.005
2632.655
2632.302
2631.948
2631.593
2631.236
2630.879
2630.521
2630.163
2629.806
2629.449
2629.093
2628.737
2628.383
2628.029
2627.675
2627.323
2626.972
2626.621
2626.271
2625.921
2625.572
2625.223
2624.875
2624.526
2624.18
2623.82
2623.523
2622.95
2641.668
2641.497
2641.306
2641.106
2640.898
2640.685
2640.467
2640.243
2640.013
2639.778
2639.537
2639.289
2639.034
2638.772
2638.503
2638.226
2637.941
2637.649
2637.349
2637.042
2636.728
2636.408
2636.082
2635.75
2635.413
2635.072
2634.727
2634.378
2634.027
2633.674
2633.319
2632.962
2632.605
2632.247
2631.889
2631.531
2631.174
2630.817
2630.46
2630.105
2629.75
2629.397
2629.044
2628.693
2628.342
2627.992
2627.644
2627.296
2626.948
2626.602
2626.256
2625.91
2625.565
2625.221
2624.876
2624.532
2624.191
2623.835
2623.542
2622.977
2642.159
2641.991
2641.801
2641.596
2641.379
2641.153
2640.918
2640.674
2640.421
2640.16
2639.891
2639.614
2639.328
2639.035
2638.734
2638.426
2638.111
2637.79
2637.462
2637.129
2636.791
2636.448
2636.102
2635.752
2635.4
2635.046
2634.69
2634.332
2633.975
2633.616
2633.258
2632.9
2632.542
2632.185
2631.828
2631.473
2631.119
2630.765
2630.413
2630.062
2629.711
2629.362
2629.014
2628.667
2628.32
2627.975
2627.63
2627.286
2626.943
2626.601
2626.259
2625.918
2625.577
2625.237
2624.897
2624.557
2624.221
2623.871
2623.582
2623.026
2642.641
2642.459
2642.25
2642.024
2641.783
2641.53
2641.266
2640.992
2640.708
2640.415
2640.114
2639.806
2639.49
2639.168
2638.839
2638.505
2638.166
2637.823
2637.476
2637.125
2636.772
2636.417
2636.061
2635.703
2635.344
2634.986
2634.627
2634.269
2633.911
2633.554
2633.197
2632.842
2632.487
2632.134
2631.782
2631.431
2631.081
2630.732
2630.384
2630.037
2629.691
2629.346
2629.002
2628.659
2628.317
2627.975
2627.635
2627.295
2626.956
2626.618
2626.281
2625.944
2625.608
2625.273
2624.939
2624.604
2624.274
2623.929
2623.644
2623.097
2643.042
2642.831
2642.593
2642.335
2642.063
2641.777
2641.481
2641.175
2640.861
2640.539
2640.21
2639.876
2639.537
2639.193
2638.846
2638.495
2638.142
2637.787
2637.43
2637.072
2636.714
2636.355
2635.996
2635.638
2635.28
2634.923
2634.567
2634.211
2633.857
2633.504
2633.152
2632.801
2632.451
2632.103
2631.755
2631.408
2631.062
2630.718
2630.374
2630.031
2629.689
2629.348
2629.008
2628.669
2628.331
2627.994
2627.658
2627.323
2626.988
2626.655
2626.323
2625.992
2625.661
2625.332
2625.003
2624.674
2624.348
2624.008
2623.729
2623.188
2643.314
2643.07
2642.799
2642.51
2642.206
2641.892
2641.568
2641.237
2640.899
2640.557
2640.21
2639.86
2639.507
2639.153
2638.796
2638.439
2638.081
2637.722
2637.364
2637.006
2636.649
2636.292
2635.936
2635.581
2635.227
2634.874
2634.523
2634.172
2633.822
2633.474
2633.126
2632.78
2632.434
2632.09
2631.746
2631.403
2631.061
2630.721
2630.381
2630.042
2629.704
2629.368
2629.032
2628.698
2628.364
2628.032
2627.701
2627.371
2627.043
2626.715
2626.388
2626.062
2625.737
2625.412
2625.088
2624.763
2624.442
2624.106
2623.829
2623.291
2643.449
2643.176
2642.878
2642.563
2642.237
2641.902
2641.56
2641.214
2640.863
2640.51
2640.156
2639.799
2639.443
2639.085
2638.728
2638.371
2638.015
2637.659
2637.304
2636.95
2636.597
2636.245
2635.893
2635.543
2635.194
2634.846
2634.498
2634.152
2633.807
2633.462
2633.119
2632.776
2632.434
2632.094
2631.754
2631.415
2631.077
2630.741
2630.406
2630.071
2629.739
2629.407
2629.077
2628.747
2628.42
2628.093
2627.767
2627.443
2627.119
2626.797
2626.475
2626.153
2625.832
2625.51
2625.189
2624.867
2624.547
2624.211
2623.935
2623.396
2643.471
2643.178
2642.862
2642.533
2642.194
2641.85
2641.501
2641.149
2640.795
2640.44
2640.085
2639.73
2639.376
2639.022
2638.668
2638.315
2637.964
2637.613
2637.262
2636.913
2636.565
2636.217
2635.871
2635.525
2635.18
2634.835
2634.492
2634.15
2633.808
2633.467
2633.128
2632.789
2632.451
2632.115
2631.78
2631.446
2631.113
2630.781
2630.451
2630.122
2629.795
2629.469
2629.144
2628.82
2628.497
2628.176
2627.855
2627.535
2627.215
2626.896
2626.576
2626.257
2625.937
2625.617
2625.296
2624.973
2624.652
2624.314
2624.036
2623.492
2643.422
2643.12
2642.797
2642.463
2642.122
2641.776
2641.428
2641.078
2640.727
2640.376
2640.025
2639.675
2639.325
2638.976
2638.628
2638.28
2637.933
2637.587
2637.241
2636.896
2636.552
2636.208
2635.866
2635.523
2635.182
2634.842
2634.502
2634.163
2633.826
2633.489
2633.154
2632.82
2632.487
2632.156
2631.826
2631.497
2631.17
2630.844
2630.519
2630.196
2629.874
2629.552
2629.232
2628.913
2628.594
2628.275
2627.957
2627.639
2627.321
2627.002
2626.683
2626.363
2626.042
2625.72
2625.396
2625.07
2624.746
2624.404
2624.122
2623.57
2643.346
2643.043
2642.722
2642.39
2642.052
2641.711
2641.367
2641.022
2640.677
2640.331
2639.986
2639.641
2639.296
2638.952
2638.608
2638.265
2637.922
2637.579
2637.237
2636.896
2636.556
2636.216
2635.877
2635.538
2635.201
2634.865
2634.529
2634.196
2633.863
2633.532
2633.202
2632.873
2632.546
2632.22
2631.895
2631.572
2631.25
2630.929
2630.609
2630.289
2629.971
2629.653
2629.335
2629.018
2628.7
2628.383
2628.064
2627.746
2627.426
2627.105
2626.784
2626.46
2626.135
2625.809
2625.48
2625.149
2624.819
2624.472
2624.185
2623.623
2643.274
2642.976
2642.66
2642.333
2642.002
2641.666
2641.328
2640.989
2640.649
2640.308
2639.967
2639.627
2639.286
2638.946
2638.605
2638.266
2637.926
2637.588
2637.249
2636.912
2636.575
2636.24
2635.905
2635.571
2635.239
2634.908
2634.578
2634.249