/*--------------------------------*- C++ -*----------------------------------*\
| =========                 |                                                 |
| \\      /  F ield         | OpenFOAM: The Open Source CFD Toolbox           |
|  \\    /   O peration     | Version:  2312                                  |
|   \\  /    A nd           | Website:  www.openfoam.com                      |
|    \\/     M anipulation  |                                                 |
\*---------------------------------------------------------------------------*/
FoamFile
{
    version     2.0;
    format      ascii;
    arch        "LSB;label=32;scalar=64";
    class       volScalarField;
    location    "500";
    object      k;
}
// * * * * * * * * * * * * * * * * * * * * * * * * * * * * * * * * * * * * * //

dimensions      [0 2 -2 0 0 0 0];

internalField   nonuniform List<scalar> 
12000
(
0.001451514
0.003215494
0.003915167
0.004664573
0.005254179
0.005803247
0.006316887
0.006845394
0.007375497
0.007857811
0.008257656
0.008600192
0.008912128
0.009209528
0.009511053
0.009798108
0.01004724
0.01025739
0.0104333
0.01059402
0.010753
0.01090778
0.01103243
0.01111879
0.01118038
0.01123737
0.01130026
0.01133588
0.01133803
0.01133554
0.01131421
0.01129327
0.01124283
0.0111888
0.0110842
0.01090894
0.01073685
0.01064018
0.01056962
0.01036063
0.009938588
0.009540138
0.009403153
0.009342511
0.008961085
0.008402762
0.008042796
0.007753772
0.007488447
0.00694413
0.006461661
0.006024707
0.005576338
0.005108478
0.004562352
0.004007998
0.003436923
0.003008638
0.002652893
0.002403765
0.001490803
0.003807956
0.00445439
0.005369275
0.006444606
0.007321582
0.007812647
0.008276608
0.009073366
0.01029923
0.01177108
0.01317415
0.01406947
0.01451416
0.01509092
0.01598478
0.01706747
0.01816513
0.01901037
0.01945514
0.01975274
0.02031155
0.02109081
0.02181939
0.02219506
0.02225435
0.02256104
0.02308917
0.02352166
0.02371632
0.02387584
0.02415866
0.02441825
0.02463123
0.02483275
0.0249896
0.02509579
0.02525852
0.02534918
0.02537813
0.02537393
0.02530436
0.02511016
0.02455364
0.02410741
0.02375278
0.02329387
0.0224099
0.02137707
0.02039997
0.01939592
0.01817027
0.01670608
0.01499856
0.0133559
0.01139893
0.008751986
0.006356159
0.004906628
0.004664109
0.002335664
0.004784928
0.005761023
0.00708205
0.00871976
0.01022224
0.01146335
0.01262738
0.01399567
0.01559228
0.01717854
0.01863286
0.01988027
0.02096944
0.02191819
0.02282699
0.02373859
0.02463433
0.02543052
0.02606518
0.02653538
0.02689024
0.02720968
0.02753755
0.02783366
0.02802677
0.02813313
0.02824546
0.02839737
0.02854517
0.02866766
0.02879648
0.02896788
0.02920139
0.02947403
0.02971818
0.02997495
0.03026701
0.03057825
0.03093599
0.0312844
0.03153673
0.03165001
0.03165889
0.03163079
0.03149701
0.03118657
0.03070845
0.03008915
0.02931829
0.02838489
0.02731565
0.0259415
0.02429731
0.0220926
0.01929118
0.0160672
0.01177704
0.006805264
0.006348599
0.002991004
0.005126222
0.006633677
0.008437937
0.01042466
0.01239044
0.01405202
0.01549497
0.01699555
0.01846195
0.01989196
0.021344
0.02271826
0.02398073
0.02511726
0.02616661
0.02715066
0.02803648
0.02877988
0.02935525
0.02977244
0.03003736
0.03020388
0.03033181
0.03042075
0.03043428
0.03039886
0.03035005
0.03031498
0.03028559
0.03026114
0.03025941
0.03029375
0.03039173
0.03055615
0.0307856
0.03107577
0.03136875
0.0317004
0.03207813
0.03243545
0.03274442
0.03298015
0.03312702
0.03316413
0.03311324
0.03291885
0.03255522
0.03202072
0.03134732
0.03053318
0.02938431
0.02787847
0.02615088
0.02411634
0.0217746
0.0187333
0.01473788
0.009530749
0.00767564
0.003615709
0.005344326
0.007107955
0.009056747
0.0110543
0.01293315
0.01458659
0.01606064
0.01746685
0.01885517
0.02025383
0.02166479
0.02307261
0.02445711
0.02580841
0.02711066
0.02834461
0.02946614
0.03041037
0.03115703
0.03172301
0.03208988
0.03228704
0.03234135
0.03231464
0.03218719
0.03198713
0.03175858
0.03153892
0.03134537
0.0311872
0.03107082
0.03100471
0.03100083
0.03109107
0.03128111
0.03156022
0.03191226
0.03231494
0.03274059
0.03316007
0.0335448
0.03386916
0.03411143
0.03425446
0.03428012
0.0341994
0.0339724
0.03363892
0.03310375
0.0322314
0.0311039
0.02983176
0.02833084
0.02648637
0.02414836
0.0210669
0.01689311
0.011183
0.008807011
0.004185202
0.005677627
0.007510021
0.009376557
0.01122818
0.01292075
0.01451181
0.01594932
0.01728458
0.01859968
0.01991139
0.02122211
0.02253935
0.02386594
0.02519625
0.02651677
0.02780727
0.02903275
0.03014294
0.03110335
0.03194702
0.03267689
0.03323738
0.0336037
0.03376193
0.03376439
0.03362533
0.03339614
0.03312712
0.03285934
0.03262221
0.03244063
0.03232438
0.03228873
0.03234162
0.03251648
0.03280456
0.03318187
0.03361717
0.03407462
0.03451974
0.03492137
0.03525216
0.03548879
0.03559922
0.03560321
0.03545929
0.03521175
0.03480984
0.03413896
0.03325103
0.03219289
0.03095345
0.02945984
0.02762109
0.02532076
0.02237111
0.01841428
0.01279843
0.009598725
0.004835128
0.005984487
0.007701954
0.00943817
0.01116992
0.01276716
0.01418493
0.01549986
0.01672976
0.0178999
0.01902869
0.02013838
0.02124675
0.0223723
0.0235283
0.02472293
0.02595656
0.02721967
0.0284941
0.02975451
0.03090937
0.03189828
0.03270564
0.033334
0.0338003
0.03413907
0.03432618
0.03438023
0.03435626
0.03429696
0.03424875
0.03423588
0.03426021
0.03433549
0.03449073
0.03475388
0.03511547
0.03554509
0.0360094
0.03646994
0.03688967
0.03723628
0.03748366
0.03759511
0.03759703
0.03745448
0.03719749
0.03679573
0.0361896
0.03542875
0.03452562
0.03346534
0.03221093
0.03070931
0.02888177
0.02660223
0.02365609
0.01964505
0.01384697
0.01016805
0.005393523
0.006172818
0.007782744
0.009452572
0.01114942
0.0126957
0.01409317
0.01536243
0.01652618
0.01760669
0.01862086
0.019582
0.02051101
0.02144084
0.02241073
0.02345186
0.0245783
0.02579099
0.02706856
0.02836885
0.02962917
0.03079785
0.03183845
0.03273742
0.03349523
0.03407554
0.0344749
0.03475163
0.03495496
0.03514248
0.03536294
0.03566548
0.03604306
0.03648206
0.03698076
0.03753225
0.0381322
0.03872911
0.03928405
0.03976096
0.0401314
0.04037139
0.04045494
0.04039738
0.04019047
0.03985007
0.03936021
0.03871002
0.03792819
0.03702473
0.03599501
0.03482278
0.03347596
0.03189855
0.0300058
0.02766997
0.02468295
0.02065649
0.01484191
0.0105462
0.005984054
0.00655402
0.008032935
0.009610405
0.0111909
0.01271224
0.01413025
0.01543118
0.01662537
0.01774369
0.01879329
0.01976685
0.02067183
0.02155718
0.02249493
0.02350986
0.02459867
0.02575481
0.02696295
0.02819006
0.02941722
0.03059816
0.03170048
0.03270926
0.03359383
0.03436978
0.03502995
0.03554046
0.03594626
0.03631377
0.03671685
0.03720074
0.0378017
0.03855231
0.03943816
0.04038483
0.04132648
0.04221493
0.04297659
0.04355378
0.04391543
0.04404442
0.04396231
0.04367073
0.04318804
0.04253198
0.04173084
0.04082067
0.03981911
0.03873258
0.03755536
0.03626284
0.03481092
0.03313515
0.03114355
0.02869901
0.02558549
0.02140667
0.01540852
0.01071044
0.006484094
0.006916545
0.008389156
0.009897879
0.011434
0.01294219
0.01437189
0.01574569
0.01705804
0.01831106
0.01948543
0.02057422
0.02160059
0.0225812
0.02351469
0.02440952
0.02534011
0.02635594
0.02746496
0.02862795
0.02980438
0.03094769
0.03204069
0.0330835
0.03408872
0.03501071
0.03583232
0.03653001
0.03714353
0.03774789
0.03837688
0.03908713
0.0399335
0.04093846
0.04208812
0.04333654
0.04461805
0.04582908
0.04682614
0.04751805
0.04787484
0.04790392
0.047614
0.04703975
0.04623042
0.04524979
0.04414952
0.042965
0.04173446
0.0404646
0.03913837
0.03771799
0.03614656
0.03434693
0.03221684
0.0296196
0.02634571
0.02200419
0.01586839
0.01072673
0.006981045
0.007374121
0.008779552
0.01018183
0.01167862
0.01323748
0.01479518
0.01632093
0.01781673
0.01929815
0.0207583
0.02218976
0.02348951
0.02450019
0.02528907
0.02602798
0.02680988
0.02765029
0.02855459
0.02949688
0.03045779
0.03144068
0.03243864
0.03343956
0.03443535
0.03539559
0.03628096
0.03710595
0.03790916
0.0387817
0.03981429
0.04097566
0.04221928
0.04356526
0.04504499
0.04663313
0.0482112
0.0496155
0.05068733
0.05133231
0.05155769
0.05138248
0.05083017
0.0499561
0.0488343
0.04754683
0.04617286
0.04477122
0.04337123
0.04196552
0.04052167
0.0389877
0.03729464
0.03535626
0.03306445
0.0302809
0.0268115
0.02224131
0.01591805
0.01061974
0.007410697
0.007805248
0.009119077
0.01049438
0.01201488
0.01360922
0.015271
0.01701401
0.01883761
0.02077333
0.02285369
0.0248094
0.02594434
0.02651286
0.02689299
0.02717168
0.02742207
0.02772095
0.02813635
0.0286977
0.0294135
0.03028722
0.0312948
0.0324153
0.03361134
0.03481324
0.03593554
0.03690577
0.03778383
0.03867715
0.0397328
0.04112871
0.04301615
0.04520782
0.04744003
0.04960336
0.05164788
0.0533726
0.05448716
0.05497171
0.05495108
0.05447511
0.05359907
0.05240844
0.05100435
0.0494971
0.04796764
0.0464598
0.04497431
0.04349373
0.0419728
0.04034759
0.03853926
0.03645397
0.03397146
0.03095648
0.02713546
0.02234943
0.01592343
0.01037769
0.007830374
0.008248044
0.009490395
0.01082948
0.01230343
0.01398203
0.01589132
0.01798226
0.02033054
0.02309948
0.02598395
0.02739745
0.02760866
0.02744789
0.02691639
0.02623824
0.02565118
0.02529283
0.02517517
0.02523484
0.02558085
0.02622293
0.02715931
0.02834764
0.02974709
0.03134074
0.0330427
0.03464984
0.03599253
0.0372045
0.03850354
0.04012551
0.04225092
0.04500071
0.0479656
0.05108029
0.05395553
0.0562859
0.05770651
0.05801707
0.05769646
0.05696083
0.05582717
0.05439983
0.05279267
0.05111821
0.04947316
0.04789214
0.04635856
0.0448276
0.04323063
0.04148617
0.03951113
0.03722386
0.03445724
0.031113
0.02712309
0.02211761
0.0154667
0.009975431
0.008165291
0.008649356
0.009823229
0.01111156
0.01266575
0.01456493
0.01676149
0.01932949
0.02250501
0.02636364
0.02835346
0.02829434
0.02751981
0.02618979
0.02469214
0.023367
0.02233079
0.02161252
0.02130987
0.02127873
0.02139843
0.02197186
0.0228601
0.0240642
0.02557944
0.02740918
0.02951189
0.03152641
0.03317965
0.03460675
0.03610906
0.03793161
0.04018361
0.0430349
0.04672848
0.05053078
0.05411237
0.05735178
0.05944292
0.05981332
0.05930484
0.05835594
0.05702859
0.05548398
0.05384067
0.05218278
0.05054815
0.04897779
0.04743836
0.0458727
0.04419386
0.04229049
0.04008885
0.03750285
0.03452519
0.03100738
0.02677007
0.02158715
0.01495826
0.009618034
0.008456686
0.008952781
0.01012008
0.01149947
0.01323111
0.01535631
0.01792737
0.02124312
0.02579372
0.02856301
0.02850122
0.02744955
0.02583436
0.0242174
0.02294309
0.02195961
0.02122045
0.020702
0.02038053
0.02023662
0.02023384
0.02044607
0.02109322
0.02205108
0.02334164
0.025012
0.0270389
0.0289188
0.03040606
0.03183351
0.03348674
0.03554062
0.03798981
0.04091757
0.04455645
0.04863298
0.05280479
0.05661509
0.05934801
0.05999638
0.05950546
0.05854074
0.05721923
0.05569751
0.05411132
0.05256529
0.05108723
0.04961163
0.04807911
0.04641528
0.04457074
0.0425155
0.04016135
0.03740882
0.03415884
0.03034084
0.02587878
0.02062012
0.01413046
0.009105352
0.008642259
0.009220977
0.01050466
0.01206348
0.01401729
0.01648594
0.01986237
0.02463908
0.02812797
0.02829408
0.02758549
0.02605624
0.02465121
0.02357332
0.02283068
0.02235417
0.02200226
0.02168861
0.02140312
0.02117725
0.02106506
0.02114602
0.02154662
0.0222887
0.02340141
0.02484941
0.02645242
0.02789154
0.02911981
0.03042681
0.03201433
0.03398858
0.03634322
0.03917437
0.04280327
0.04689926
0.05102531
0.0549145
0.05791089
0.05879448
0.05847484
0.05769954
0.05657509
0.05527581
0.05392281
0.0525516
0.05116009
0.04971551
0.04816693
0.04644977
0.04449592
0.04224816
0.03963576
0.03658829
0.0330816
0.02911402
0.02466165
0.01960482
0.01348052
0.008780892
0.008853439
0.009533957
0.01101898
0.01282648
0.01518916
0.01852017
0.02302546
0.02725604
0.02824218
0.02744537
0.026217
0.02518974
0.02454476
0.02425425
0.0241375
0.02403938
0.02390095
0.02370834
0.02348595
0.02328632
0.02316915
0.02320507
0.02345447
0.02396091
0.02473757
0.02577929
0.02702865
0.02829675
0.02947719
0.03072261
0.03221787
0.03409113
0.03642025
0.03928873
0.04272237
0.04637708
0.05009326
0.0536929
0.0563829
0.05714094
0.05688662
0.05625208
0.05533145
0.0542561
0.0530901
0.05185285
0.0505224
0.04906395
0.04742376
0.04554174
0.04337162
0.04088142
0.03804442
0.03483849
0.03125511
0.02734171
0.02312561
0.01843963
0.0127305
0.008344617
0.008970355
0.009885771
0.01169756
0.01398364
0.01723346
0.02165161
0.02594451
0.02793646
0.02755055
0.02638607
0.02556682
0.02515861
0.02509354
0.02520798
0.02538269
0.02553171
0.02563792
0.02570064
0.02573254
0.02574927
0.02579216
0.02591336
0.02616707
0.02659301
0.02721493
0.02802363
0.02897702
0.03004371
0.03114299
0.03234583
0.03378552
0.03554085
0.03776873
0.0405237
0.04355384
0.04685031
0.05011839
0.05291279
0.05472364
0.05513952
0.05489739
0.05435855
0.05356266
0.05258631
0.05147629
0.05023139
0.04882777
0.04723624
0.04543065
0.04339283
0.04111069
0.03857257
0.03577004
0.03269139
0.02932671
0.02570453
0.02188958
0.01764929
0.01232173
0.008141056
0.009248312
0.0104875
0.01272549
0.01583806
0.02015272
0.02463866
0.02730776
0.02754497
0.02670005
0.02575519
0.0252552
0.02514382
0.02529932
0.0256156
0.02601498
0.02644904
0.02687111
0.02727123
0.02763957
0.02798095
0.02831615
0.02867689
0.02909883
0.02961521
0.03025601
0.03103796
0.0319655
0.03304314
0.03425273
0.03560292
0.03714332
0.03893371
0.04104524
0.0434313
0.04591645
0.04830861
0.05036336
0.05192494
0.05273421
0.05272269
0.05231853
0.05168283
0.05082564
0.04979154
0.04860618
0.04727641
0.04579939
0.0441629
0.04235076
0.04035169
0.0381639
0.03578547
0.03321287
0.03043077
0.02741995
0.02419217
0.02077752
0.01688063
0.01183141
0.007827316
0.009374088
0.01102597
0.01416107
0.01844256
0.02320702
0.0265312
0.02741198
0.0268332
0.02582786
0.02508203
0.02475322
0.02477404
0.02504443
0.02548047
0.02602339
0.02663369
0.0272842
0.02795042
0.02862011
0.02928942
0.02995994
0.03064425
0.03136026
0.03212355
0.03295258
0.03387763
0.03491703
0.03607857
0.03737571
0.038784
0.04028221
0.04187004
0.04351722
0.0451471
0.04667741
0.04804612
0.04903885
0.04956201
0.0496494
0.04934181
0.04871091
0.04792206
0.04696273
0.0458629
0.0446489
0.04333106
0.04190652
0.04036685
0.03870398
0.03691364
0.034994
0.03294398
0.03075285
0.02839236
0.02582766
0.02304553
0.02003179
0.01646029
0.0116462
0.007734771
0.00977205
0.01216266
0.01636068
0.02145235
0.02562534
0.02739662
0.02713617
0.02606869
0.02502116
0.02434054
0.02406302
0.0241001
0.02437797
0.02483035
0.02540933
0.02608066
0.0268183
0.0276048
0.02842385
0.02926367
0.03012868
0.03102661
0.03195366
0.03291421
0.03391223
0.03495062
0.0360353
0.0371688
0.03833756
0.03951994
0.04071035
0.04191434
0.04312612
0.04416589
0.04497301
0.04547992
0.04574652
0.04573835
0.04545175
0.04488253
0.0441385
0.04327795
0.04230295
0.0412445
0.04011718
0.03892829
0.03767715
0.03635992
0.03497244
0.03350984
0.03196955
0.03034389
0.02860423
0.02669839
0.02456673
0.02217241
0.01945515
0.01607847
0.01137967
0.007538903
0.01015099
0.01345114
0.01888665
0.02414978
0.02715839
0.02757183
0.02657506
0.02527798
0.02420396
0.02351664
0.02321462
0.02320117
0.02341723
0.02380991
0.02434003
0.02497995
0.02570832
0.02650916
0.02737129
0.02828783
0.02924307
0.03022229
0.03122207
0.03223728
0.03326299
0.03429382
0.03532251
0.03633562
0.03731649
0.03824228
0.03908642
0.03981534
0.04037134
0.04081447
0.04110207
0.04120745
0.04112536
0.04083969
0.04036867
0.03973198
0.03899417
0.03819453
0.03733138
0.03642234
0.03548001
0.03450906
0.03351516
0.03250047
0.03146551
0.03040745
0.02931689
0.02816923
0.02690811
0.02544714
0.02370411
0.02163469
0.01915614
0.01594155
0.0113412
0.00751492
0.01081696
0.01537058
0.02164487
0.02638464
0.028101
0.02752618
0.02603751
0.02457179
0.02342526
0.02266136
0.02225765
0.02215099
0.02226329
0.02255268
0.0229827
0.02352659
0.02416327
0.02487661
0.02565316
0.02648078
0.02734766
0.02824228
0.02915355
0.03006987
0.03097846
0.03186405
0.03271352
0.03351144
0.03423901
0.03487886
0.03541504
0.03583484
0.03612487
0.03627988
0.03629514
0.03617473
0.03591192
0.03552469
0.03502911
0.03444599
0.03381605
0.03315988
0.03247816
0.03178126
0.03107756
0.03037937
0.02969245
0.0290263
0.0283888
0.02777596
0.02716629
0.02650487
0.02569009
0.0245981
0.02314225
0.02129448
0.01895796
0.01582948
0.01124782
0.007456883
0.01143747
0.01728795
0.02399624
0.02803373
0.02869039
0.02734922
0.02555093
0.02393596
0.02268027
0.02180731
0.02127919
0.02104347
0.02102626
0.02118244
0.02147855
0.02188736
0.02238732
0.02296129
0.02359479
0.02427492
0.02498952
0.02572661
0.02647373
0.02721669
0.02794154
0.02863238
0.02927184
0.02984524
0.03033835
0.03074086
0.03104689
0.03125189
0.03135082
0.03134195
0.03122841
0.03101815
0.03072089
0.03034981
0.02992161
0.02945595
0.02897867
0.02850348
0.02803441
0.02757985
0.0271475
0.02674656
0.02639036
0.0260946
0.02586933
0.02571092
0.02557599
0.02536261
0.02491884
0.02410219
0.02284566
0.02116515
0.01893318
0.0158281
0.01124757
0.007447102
0.01220899
0.0194297
0.02623733
0.02922345
0.02900856
0.02716627
0.02511017
0.02334671
0.02196801
0.02096847
0.02030648
0.01992258
0.01976848
0.01978001
0.01992876
0.02018672
0.02053179
0.0209459
0.02141391
0.02192254
0.02245943
0.02301229
0.02356938
0.02411791
0.02464377
0.02513343
0.02557295
0.02595017
0.026255
0.02648149
0.02662897
0.02669794
0.02668937
0.02660631
0.02645399
0.02624042
0.02597606
0.02567497
0.02535553
0.02503495
0.02472953
0.02444964
0.02420172
0.02399448
0.02383782
0.02374393
0.02372737
0.02380163
0.02397573
0.02424259
0.0245337
0.0246814
0.02449311
0.02385962
0.02275903
0.0211531
0.01895798
0.01587329
0.01128035
0.007445858
0.01290496
0.021339
0.02795131
0.03013332
0.02924281
0.02698581
0.02470125
0.02279691
0.02129629
0.02016947
0.01937248
0.01884838
0.01854239
0.01841436
0.01841384
0.01851951
0.01870826
0.01896147
0.0192636
0.01960144
0.01996307
0.02033703
0.02071236
0.02107843
0.02142451
0.0217396
0.02201281
0.02223627
0.02240555
0.02251762
0.02257071
0.0225676
0.02251122
0.02240677
0.02226119
0.02208313
0.02188443
0.02168191
0.02149177
0.02132608
0.02119634
0.02111234
0.02108317
0.02111933
0.02123444
0.02144193
0.02175508
0.02218239
0.02272071
0.02334635
0.02395952
0.02434883
0.02433676
0.02380877
0.02275843
0.02122216
0.01906681
0.01597823
0.01133919
0.007487681
0.01371838
0.02328687
0.02940281
0.03088011
0.02945098
0.02686274
0.02436416
0.02232156
0.02070107
0.01944765
0.01851672
0.01785433
0.01740811
0.0171329
0.016991
0.01695447
0.01699625
0.01709994
0.01724986
0.01743287
0.01763764
0.01785401
0.01807272
0.01828522
0.01848374
0.01866085
0.01880929
0.01892328
0.01899982
0.01903714
0.01903744
0.01900288
0.01893779
0.01884777
0.01873973
0.01862405
0.0185158
0.01842936
0.01837549
0.01836406
0.01840542
0.0185111
0.01869276
0.01896381
0.01933827
0.01982838
0.02044062
0.02116963
0.02199829
0.02288924
0.0237266
0.02426805
0.02432694
0.02385835
0.02286942
0.02136637
0.01921637
0.01611157
0.01143534
0.007531609
0.01438796
0.02475596
0.03044163
0.03147301
0.02968872
0.02684197
0.02412613
0.02194329
0.02020447
0.01882656
0.01776555
0.01697013
0.01639022
0.01598171
0.01570782
0.01553853
0.01544967
0.01542315
0.01544106
0.0154922
0.01556584
0.01565288
0.01574556
0.01583727
0.01592258
0.01599712
0.01605674
0.01609746
0.01611666
0.0161154
0.01609514
0.01605886
0.01601067
0.01595649
0.01590619
0.01587239
0.0158667
0.01589818
0.01597588
0.01610991
0.01631164
0.01659385
0.01697049
0.0174558
0.01806211
0.01879628
0.01965462
0.02061749
0.0216599
0.02274623
0.02370471
0.02431353
0.02442124
0.0239874
0.0230271
0.02154682
0.01940014
0.01627179
0.01153746
0.007597061
0.01505391
0.02600487
0.0313156
0.03200612
0.02995698
0.02688708
0.02397174
0.02165228
0.01980195
0.01830914
0.01712843
0.01621121
0.0155098
0.01498143
0.01458985
0.01430531
0.01410367
0.01396547
0.01387505
0.01381993
0.01379001
0.01377712
0.01377469
0.01377739
0.01378162
0.01378479
0.01378568
0.0137827
0.0137743
0.01376027
0.01374169
0.01372156
0.01370643
0.01370529
0.01372766
0.01378208
0.01387587
0.01401707
0.01421503
0.01448066
0.01482648
0.01526625
0.01581408
0.01648255
0.01727962
0.01820468
0.01924415
0.02037313
0.02156116
0.02275322
0.02379082
0.02445008
0.02459595
0.02419848
0.02326652
0.0217957
0.01963827
0.0164816
0.0117025
0.007670966
0.01560106
0.02696085
0.03196609
0.03242969
0.03021553
0.02699844
0.0239074
0.02141564
0.01945731
0.01787706
0.01659903
0.0155789
0.01477303
0.0141415
0.01364949
0.01326787
0.01297276
0.01274483
0.01256857
0.01243165
0.01232429
0.01223887
0.01216953
0.01211198
0.0120634
0.01202226
0.01198833
0.01196199
0.0119435
0.01193321
0.01193217
0.01194464
0.01197791
0.01203916
0.01213452
0.01226995
0.01245239
0.01269009
0.01299292
0.01337249
0.01384195
0.01441505
0.01510458
0.0159202
0.016865
0.01793196
0.01910319
0.02033677
0.02161102
0.02288043
0.0239678
0.02465851
0.02482697
0.02444632
0.02352314
0.02204618
0.019867
0.01667039
0.01182803
0.00773575
0.01618019
0.02784664
0.03253576
0.03284178
0.03052848
0.02720394
0.02394316
0.02126459
0.01919964
0.01754453
0.01618335
0.01507578
0.01418166
0.01346365
0.01288866
0.01242843
0.01205941
0.01176246
0.01152219
0.01132639
0.01116551
0.0110322
0.01092101
0.0108281
0.01075108
0.01068883
0.01064138
0.0106097
0.01059577
0.01060101
0.01062792
0.01068054
0.01076359
0.0108816
0.01103956
0.01124325
0.01149963
0.01181716
0.01220608
0.01267822
0.01324658
0.01392389
0.01472055
0.01564344
0.01669149
0.01785314
0.01910238
0.02040316
0.02173502
0.02305425
0.02417751
0.02489683
0.0250902
0.02472964
0.02381716
0.02233796
0.0201426
0.01691469
0.01202081
0.007823859
0.01657571
0.0282949
0.03292191
0.03321472
0.03088836
0.02750386
0.02410271
0.02123397
0.01901847
0.01728095
0.01585915
0.01468541
0.0137234
0.01293886
0.01230058
0.01178136
0.01135833
0.01101266
0.01072912
0.0104956
0.01030261
0.01014293
0.01001119
0.009903686
0.009818124
0.009753474
0.009709792
0.009688637
0.009690905
0.009719134
0.00977604
0.009864764
0.009988839
0.01015222
0.01035952
0.01061638
0.01092976
0.0113083
0.01176237
0.01230376
0.01294493
0.01369702
0.01456794
0.01556042
0.01667171
0.01788923
0.01918721
0.02052789
0.02189582
0.02325108
0.0244065
0.0251558
0.0253744
0.0250301
0.02412107
0.02262942
0.02040473
0.01712988
0.0121731
0.007887899
0.01703538
0.02890425
0.03332233
0.03354559
0.03121185
0.02780183
0.02430035
0.02127286
0.0189045
0.01708545
0.01561839
0.01439784
0.013389
0.01255902
0.01187821
0.01132059
0.01086397
0.01048985
0.0101831
0.009931607
0.009725801
0.009558319
0.009423655
0.009317907
0.009238573
0.009184375
0.009155107
0.009151665
0.009175277
0.009227848
0.009311812
0.00942998
0.009585563
0.009782307
0.01002474
0.0103185
0.01067067
0.01109002
0.01158697
0.01217304
0.01285953
0.01365565
0.01456773
0.01559869
0.01674507
0.01799327
0.01931749
0.02068106
0.02207336
0.02345901
0.02464872
0.02543309
0.02568048
0.02535328
0.02444757
0.02294492
0.02069529
0.01738148
0.01236834
0.007971938
0.01747159
0.02938163
0.03367093
0.03387927
0.03158084
0.02818334
0.02461126
0.02144211
0.01891595
0.01699605
0.01547678
0.01422195
0.0131822
0.01232516
0.01162171
0.01104622
0.01057663
0.01019434
0.009884017
0.009633205
0.009431975
0.009272585
0.009149173
0.009057437
0.00899438
0.008958244
0.008948655
0.008965559
0.009010011
0.009083689
0.009188772
0.00932789
0.009504155
0.009721288
0.009983857
0.01029757
0.01066959
0.01110868
0.01162556
0.01223142
0.01293679
0.01375022
0.01467786
0.01572244
0.01688048
0.01813893
0.01947325
0.02084858
0.02225801
0.02367069
0.02489738
0.0257211
0.02599947
0.02568835
0.02478286
0.02326384
0.02098095
0.01761696
0.01253911
0.008032707
0.01781552
0.02966718
0.03395206
0.03421599
0.03200276
0.02865207
0.02503592
0.02173683
0.01905652
0.01701221
0.01543721
0.01415959
0.01310474
0.0122399
0.01153508
0.01096373
0.01050294
0.01013339
0.009838967
0.009606438
0.009425006
0.009285911
0.009183349
0.009113369
0.009072206
0.00905788
0.009068749
0.009104765
0.009166636
0.009255767
0.009374153
0.009524333
0.00970942
0.009933226
0.01020048
0.01051711
0.01089048
0.01132951
0.01184425
0.01244602
0.01314592
0.01395309
0.01487398
0.01591153
0.01706297
0.01831659
0.01964985
0.02102977
0.02245253
0.02389205
0.02515869
0.02602466
0.02633551
0.02604034
0.02513454
0.0235977
0.02128011
0.01786567
0.01272367
0.008101022
0.0181373
0.02987321
0.03418347
0.0345248
0.0324386
0.02917646
0.02555502
0.02215109
0.0193259
0.01715177
0.0155133
0.0142171
0.01315945
0.01230452
0.01161847
0.01107176
0.01063969
0.0103016
0.01004045
0.009842312
0.009695935
0.009592463
0.009524129
0.009484536
0.009470519
0.009479227
0.00950955
0.009561288
0.009635097
0.009732346
0.009855021
0.01000566
0.01018742
0.01040414
0.01066061
0.01096283
0.01131822
0.01173581
0.01222613
0.0128009
0.01347207
0.01425036
0.01514367
0.01615588
0.01728532
0.01852208
0.01984586
0.02122556
0.02265908
0.02412444
0.02543351
0.02634638
0.02669194
0.02641088
0.02550168
0.02394223
0.02158279
0.01810861
0.01289285
0.008151383
0.01838391
0.02988819
0.03432667
0.0347834
0.03286163
0.02972725
0.02614467
0.02267293
0.01972307
0.01743719
0.0157502
0.01444617
0.0134025
0.01257654
0.01192949
0.01142733
0.01104215
0.01075129
0.0105363
0.01038219
0.01027686
0.01021059
0.01017557
0.01016623
0.01017794
0.01020795
0.01025477
0.010318
0.01039815
0.01049648
0.0106149
0.0107559
0.01092258
0.0111188
0.0113494
0.01162046
0.01193963
0.01231624
0.0127614
0.01328762
0.01390806
0.01463539
0.01548007
0.01644851
0.01754117
0.01875052
0.02005916
0.02143709
0.02288277
0.024377
0.02573055
0.02668613
0.02706445
0.02680103
0.02588787
0.02429961
0.02188969
0.01834739
0.01305238
0.008197882
0.01859981
0.02987636
0.03442056
0.03499434
0.03326544
0.03029103
0.02678573
0.02328652
0.02024509
0.01787193
0.01613689
0.01483848
0.01383367
0.01305942
0.01246993
0.01202676
0.01169953
0.01146413
0.01130133
0.0111957
0.01113478
0.01110941
0.01111021
0.01113158
0.01116894
0.01121916
0.01128042
0.011352
0.01143413
0.01152783
0.01163481
0.01175739
0.01189858
0.01206222
0.0122532
0.01247779
0.01274395
0.01306159
0.01344264
0.01390082
0.01445102
0.01510819
0.0158858
0.01679377
0.01783613
0.01900872
0.02029645
0.02167032
0.02312626
0.02464787
0.02605453
0.02706754
0.02748201
0.02722215
0.02629455
0.02467155
0.02220208
0.01858169
0.01319818
0.008233228
0.01876371
0.029777
0.03440703
0.03515725
0.0336524
0.03086046
0.02745688
0.02396289
0.02086623
0.0184397
0.01668003
0.01541149
0.01446762
0.01376121
0.01323944
0.01286117
0.01259489
0.01241622
0.01230594
0.01224869
0.01223273
0.01224689
0.01228325
0.0123353
0.01239801
0.01246777
0.01254224
0.01262018
0.01270135
0.01278633
0.01287647
0.01297382
0.01308123
0.01320252
0.01334269
0.01350833
0.01370793
0.01395221
0.01425427
0.01462944
0.01509482
0.01566818
0.0163664
0.01720327
0.01818691
0.01931689
0.02058073
0.02195138
0.02341816
0.02496425
0.02642548
0.02750172
0.02795985
0.02770707
0.02674569
0.02505216
0.02250195
0.01879679
0.01331659
0.008259695
0.01885024
0.02945658
0.03431385
0.03528742
0.03402452
0.03142143
0.02812925
0.02466843
0.02156037
0.01912257
0.01736588
0.01615092
0.01528419
0.01465295
0.01420077
0.01388591
0.01367737
0.01355156
0.01349
0.01347831
0.01350335
0.01355511
0.01362503
0.01370607
0.01379263
0.01388039
0.01396631
0.01404851
0.0141261
0.01419915
0.01426855
0.01433603
0.01440425
0.01447699
0.01455945
0.01465861
0.01478366
0.01494631
0.01516111
0.01544532
0.01581848
0.01630149
0.01691501
0.01767717
0.01860072
0.01968908
0.02093268
0.02230531
0.02378801
0.02536173
0.02687607
0.0280059
0.02849004
0.02822868
0.02722963
0.0254774
0.02283763
0.01901557
0.01342146
0.008284636
0.01889941
0.02911816
0.03420646
0.03540129
0.03437218
0.03194919
0.02877093
0.02537147
0.02230262
0.01990369
0.01818371
0.01701928
0.01622871
0.01567437
0.01528857
0.01503154
0.01487428
0.01479481
0.01477657
0.01480365
0.01486448
0.01494853
0.01504672
0.01515146
0.01525649
0.01535684
0.01544888
0.01553021
0.01559953
0.01565649
0.01570168
0.01573657
0.01576363
0.01578657
0.0158107
0.01584332
0.01589423
0.01597617
0.01610511
0.01630034
0.01658403
0.01698028
0.01751358
0.01820639
0.01907578
0.02012927
0.02136025
0.0227431
0.02424911
0.0258548
0.02742157
0.02859799
0.02909142
0.02879096
0.02771307
0.02585889
0.02312112
0.01921171
0.0135091
0.008304636
0.01897594
0.02884451
0.03408895
0.03550298
0.03470142
0.03245108
0.02938829
0.02607396
0.02308269
0.02075352
0.0190933
0.01798271
0.01725484
0.01676387
0.01643302
0.01622339
0.01610791
0.01606807
0.01608331
0.01614111
0.01622891
0.01633572
0.01645171
0.01656859
0.01668011
0.01678099
0.0168675
0.01693745
0.01698973
0.01702417
0.01704156
0.01704313
0.01703117
0.01700926
0.01698241
0.01695785
0.01694558
0.01695876
0.01701462
0.01713408
0.01734176
0.01766493
0.0181318
0.01876902
0.01959792
0.02062993
0.02186089
0.02326521
0.02480271
0.02644228
0.02805398
0.02926139
0.02974499
0.02938672
0.02821657
0.02625857
0.02340233
0.01936225
0.01354867
0.008322487
0.01906578
0.02862868
0.03405841
0.03562841
0.03503456
0.03294185
0.02999126
0.02677641
0.02388291
0.02163768
0.02004992
0.01899589
0.018311
0.01786297
0.01757197
0.0173977
0.0173144
0.01730168
0.0173413
0.01741884
0.01752099
0.01763594
0.01775304
0.01786493
0.01796487
0.01804709
0.01810991
0.01815272
0.01817571
0.01817977
0.01816625
0.01813659
0.01809287
0.01803778
0.01797549
0.01791231
0.01785755
0.01782427
0.0178297
0.01789557
0.0180492
0.01832037
0.01874092
0.01934163
0.02014809
0.02117545
0.02242169
0.02386026
0.02543775
0.02711253
0.02875938
0.02997728
0.03042475
0.02998499
0.02869962
0.02661297
0.02363491
0.01949925
0.01359941
0.008356144
0.01919386
0.02848397
0.03406385
0.03579827
0.03539515
0.03344754
0.03060624
0.02749631
0.02470207
0.02253613
0.02101444
0.02000962
0.019358
0.01893499
0.01866644
0.01851296
0.01845173
0.01845513
0.01850717
0.0185909
0.01869104
0.01879721
0.01889891
0.01898505
0.01904922
0.01909031
0.01910966
0.01910921
0.01909164
0.01905973
0.01901572
0.01896136
0.01889782
0.01882667
0.01875019
0.01867265
0.01860143
0.01854814
0.01852954
0.01856725
0.01869028
0.01893101
0.01932491
0.0199072
0.02070809
0.02174629
0.02302149
0.02450519
0.02613204
0.02784639
0.02951563
0.03072385
0.03111373
0.03056017
0.02913221
0.02692454
0.02386065
0.01964664
0.01364782
0.008401742
0.01934325
0.02837027
0.03409238
0.03602041
0.03580454
0.03399572
0.03126159
0.02825185
0.02554199
0.02343899
0.02196648
0.02099632