/*--------------------------------*- C++ -*----------------------------------*\
| =========                 |                                                 |
| \\      /  F ield         | OpenFOAM: The Open Source CFD Toolbox           |
|  \\    /   O peration     | Version:  2312                                  |
|   \\  /    A nd           | Website:  www.openfoam.com                      |
|    \\/     M anipulation  |                                                 |
\*---------------------------------------------------------------------------*/
FoamFile
{
    version     2.0;
    format      ascii;
    arch        "LSB;label=32;scalar=64";
    class       volScalarField;
    location    "500";
    object      nut;
}
// * * * * * * * * * * * * * * * * * * * * * * * * * * * * * * * * * * * * * //

dimensions      [0 2 -1 0 0 0 0];

internalField   nonuniform List<scalar> 
12000
(
3.065848e-05
0.0001873754
0.0001802772
0.0001690933
0.000170725
0.0002019705
0.0002720414
0.0002985924
0.000260098
0.0002096521
0.0001739597
0.0001707662
0.0002020303
0.0002491382
0.0002599699
0.0002253038
0.0001911582
0.0001770716
0.000186005
0.0002163554
0.0002421931
0.000218611
0.0001803213
0.0001705177
0.0001954975
0.0002264723
0.0002064891
0.0001766899
0.0001767779
0.0001955385
0.0001969931
0.0001840444
0.0001783636
0.0001756863
0.0001764921
0.000189318
0.0002021972
0.0001842042
0.0001540966
0.0001516843
0.0001921886
0.0002256204
0.0001696631
0.0001379224
0.0001516553
0.0001949511
0.0001920421
0.0001485612
0.0001390554
0.0001552807
0.0001684027
0.0001524029
0.0001324512
0.000124772
0.0001293768
0.0001177691
9.953898e-05
8.289539e-05
7.534099e-05
5.944552e-05
1.799997e-05
0.000205321
0.0002512616
0.0002829434
0.0003269302
0.000360922
0.0003893396
0.0004243827
0.0004695799
0.0005433252
0.0006374237
0.0007360305
0.000806157
0.0008513604
0.0009028606
0.000983308
0.001091705
0.00120881
0.001299372
0.001348842
0.001387879
0.001466044
0.00159481
0.001722734
0.001781823
0.001799775
0.001868887
0.001997119
0.002101298
0.002138413
0.002174524
0.002244818
0.002306647
0.002336863
0.002357204
0.002352368
0.002336675
0.002348428
0.002361402
0.002346994
0.002261818
0.002171314
0.001785223
0.002079215
0.001982819
0.00184049
0.001683495
0.001469683
0.001488067
0.001335512
0.00118407
0.001039858
0.0008948314
0.0007442185
0.0006051445
0.0004611556
0.0003069501
0.0001800911
0.0001018167
5.758754e-05
2.730048e-05
0.0002558043
0.0003359786
0.0004120568
0.000509041
0.0006172811
0.0007236882
0.0008348685
0.0009649413
0.001124914
0.001297626
0.001471319
0.001632737
0.001786884
0.001938963
0.002094075
0.002250578
0.002399833
0.002533776
0.002652893
0.002598117
0.002647775
0.00292137
0.003072105
0.002868345
0.002670099
0.002773145
0.003097095
0.003275818
0.003280284
0.003421123
0.003653283
0.003686398
0.003716955
0.003742093
0.003758841
0.003770626
0.0037783
0.00377943
0.00377139
0.003753478
0.003723661
0.00367941
0.0036153
0.003513007
0.003141219
0.002859714
0.002709481
0.002536536
0.002402834
0.002326128
0.00201101
0.001839141
0.001512336
0.001248831
0.001186746
0.0008022754
0.0004362536
0.0001582802
5.620468e-05
3.154348e-05
0.000279341
0.0004229446
0.0005449523
0.0006945125
0.0008666475
0.001049019
0.001240041
0.001443689
0.001659444
0.001881058
0.002105538
0.002324766
0.002535825
0.002738791
0.002931612
0.003112669
0.003279172
0.003429517
0.003330427
0.003178354
0.003161301
0.003248096
0.003303726
0.003272932
0.003264035
0.003363348
0.003522524
0.003667056
0.00383577
0.004131296
0.004512646
0.004534181
0.004550999
0.004566253
0.004576461
0.004583188
0.004583034
0.004576237
0.004561693
0.004536791
0.004498148
0.004443511
0.004370379
0.004274462
0.004159085
0.003905988
0.003544229
0.003334122
0.003176433
0.002589725
0.002170747
0.002059637
0.00187042
0.001834006
0.001512048
0.001083704
0.0006392188
0.0002481695
5.692326e-05
3.250495e-05
0.000294324
0.0004934907
0.0006476719
0.0008327076
0.001039788
0.001263169
0.001496562
0.001736486
0.001982551
0.002230577
0.002476423
0.002717089
0.002949923
0.003173607
0.003385857
0.00358472
0.003768094
0.003891945
0.003722287
0.003539413
0.003447477
0.003407414
0.003378334
0.00334827
0.003352632
0.003438028
0.003615578
0.003865808
0.004192802
0.004636536
0.005077931
0.005090763
0.005094652
0.005099024
0.005100984
0.005101636
0.005100054
0.005095729
0.005086599
0.005070752
0.005046049
0.005010178
0.004961036
0.004896212
0.004809554
0.00469897
0.004563843
0.00439471
0.003534616
0.003146853
0.003132108
0.002964888
0.002679943
0.002333305
0.001928194
0.00138089
0.0008145307
0.0003145074
5.742508e-05
3.349139e-05
0.0003186769
0.0005646371
0.0007430684
0.0009506437
0.001178279
0.001426666
0.001682843
0.001941732
0.002199641
0.002453727
0.002700902
0.002939011
0.003166624
0.003382872
0.003586986
0.003778316
0.003955959
0.004118608
0.004264711
0.004082247
0.003847289
0.00371389
0.003643743
0.003589866
0.003556177
0.003569595
0.00363822
0.00377792
0.004005078
0.004383316
0.005004268
0.005471909
0.005468443
0.005456599
0.005440292
0.005422301
0.005404168
0.005385458
0.0053645
0.005339139
0.005307047
0.005265834
0.005213094
0.005144561
0.005062745
0.004963356
0.004837104
0.004678843
0.00446723
0.004223484
0.003924422
0.003578498
0.003179875
0.00272112
0.00219677
0.001610487
0.0009825292
0.0003927207
5.762999e-05
3.493621e-05
0.0003356057
0.0006173029
0.0008187477
0.001042231
0.001284263
0.001534326
0.001790252
0.002045091
0.002294749
0.002537096
0.002770749
0.002994975
0.003209823
0.00341584
0.003613911
0.003804395
0.003988966
0.004167785
0.004342358
0.004506733
0.00465902
0.004800556
0.004692198
0.004505883
0.004364399
0.004306984
0.004316968
0.004394754
0.00458062
0.004769441
0.004986471
0.005502372
0.005780427
0.005771617
0.005752626
0.005728477
0.005701589
0.005672727
0.005641693
0.00560759
0.005568997
0.005523942
0.005467299
0.005401181
0.005318293
0.005214656
0.005086139
0.004928322
0.004739872
0.004517968
0.00423849
0.003891011
0.003477393
0.002990874
0.002428627
0.00179319
0.001105353
0.0004489854
5.755824e-05
3.640579e-05
0.000344757
0.0006570917
0.0008802669
0.001117248
0.001364884
0.001621078
0.001880593
0.00213714
0.002385982
0.002624094
0.002850141
0.003064614
0.003269054
0.003465599
0.003655841
0.00384068
0.00402129
0.004197479
0.004369162
0.004534601
0.004692546
0.004842261
0.0048871
0.004786219
0.004770359
0.004864206
0.005085877
0.005431517
0.005790409
0.00588494
0.005957082
0.006004547
0.006028379
0.006032055
0.006019067
0.005993444
0.005958324
0.005916253
0.005869046
0.005817982
0.005763752
0.005704697
0.005642646
0.005574152
0.005495705
0.005402215
0.005286334
0.005140123
0.004955124
0.004723127
0.004440453
0.00410403
0.003692873
0.003201461
0.002626072
0.001965305
0.001233585
0.0005124386
5.740383e-05
3.834101e-05
0.0003513288
0.0006833034
0.0009341575
0.001177952
0.001434146
0.001697877
0.001960841
0.002162585
0.002320752
0.002518116
0.002804155
0.003135364
0.003326425
0.00350784
0.003681278
0.003847498
0.003706757
0.003679566
0.003688656
0.003676399
0.003760139
0.003834692
0.003853801
0.003841889
0.003842177
0.00392937
0.004144065
0.004456139
0.004926813
0.005476693
0.006083796
0.00619666
0.006235214
0.006249832
0.006242293
0.006215134
0.006171811
0.006116622
0.006053567
0.005985563
0.005913688
0.005841907
0.005769055
0.00569519
0.0056146
0.005523432
0.005413912
0.005280332
0.005111514
0.004896793
0.004624235
0.004281744
0.003865762
0.00336704
0.002770726
0.002082979
0.001317739
0.0005554629
5.682807e-05
4.013786e-05
0.0003375801
0.0006822478
0.0009809117
0.001239141
0.001503129
0.001691724
0.001813754
0.001924125
0.002018792
0.00216301
0.002344818
0.002518429
0.002685832
0.002844371
0.002990703
0.002939812
0.002809219
0.002705688
0.00266359
0.002679468
0.002771425
0.00288703
0.003012358
0.003128814
0.003238447
0.003363465
0.003569464
0.00376941
0.003858588
0.004077519
0.004379221
0.004740761
0.005077155
0.005353707
0.005537559
0.005594055
0.005643006
0.005895348
0.006157577
0.006080222
0.006000185
0.005920172
0.005841785
0.005764007
0.00568477
0.005599327
0.005500489
0.005378877
0.005223103
0.005021463
0.004760529
0.004427273
0.0040094
0.003497907
0.002894935
0.0021912
0.001398976
0.0005976784
5.616094e-05
4.202384e-05
0.0003205443
0.000676483
0.001027207
0.00129854
0.001498191
0.001588444
0.001703586
0.001781955
0.001837669
0.001890064
0.001920115
0.002023796
0.002289216
0.002559961
0.002588589
0.002480514
0.002384103
0.00229602
0.002271472
0.002294059
0.002329035
0.002391252
0.002489643
0.002612043
0.002782545
0.003034717
0.003264788
0.003478047
0.003519349
0.003364881
0.003387496
0.00352202
0.003764174
0.004012883
0.004220583
0.004456738
0.004731199
0.005080373
0.005537868
0.00594701
0.005987709
0.005913362
0.005839874
0.005768935
0.00569899
0.005625725
0.005541809
0.00543704
0.005298376
0.005111252
0.004860339
0.004530418
0.004109714
0.003589814
0.002966583
0.002246268
0.001435066
0.000616013
5.525086e-05
4.364204e-05
0.0003182886
0.0006914541
0.001057933
0.001318751
0.001475548
0.001554616
0.001585033
0.001603301
0.001585341
0.001522833
0.0015355
0.001895426
0.002265477
0.002312334
0.002310685
0.002289246
0.002254391
0.002215953
0.002204885
0.002250387
0.002321989
0.002428148
0.00253005
0.002639416
0.002791602
0.002996961
0.003279766
0.00355694
0.003916577
0.00377053
0.003232278
0.003011172
0.00303124
0.00322589
0.003452235
0.003641954
0.003859129
0.0043806
0.005008143
0.005416907
0.005882641
0.005829066
0.005773934
0.005720956
0.005670412
0.005618622
0.005557967
0.005476894
0.00536051
0.005191553
0.004954497
0.004628686
0.004203773
0.003672141
0.003033748
0.002285588
0.001468482
0.0006414809
5.400814e-05
4.532221e-05
0.0003139608
0.000680756
0.001076191
0.001316881
0.001354116
0.001354809
0.001380896
0.001349965
0.001245039
0.001218026
0.001554075
0.002016979
0.002148549
0.002385182
0.002434099
0.002459587
0.002498678
0.002519949
0.002614389
0.002596966
0.002585926
0.002632445
0.002759641
0.002893413
0.002980278
0.003127331
0.003588322
0.004337901
0.004602763
0.004850632
0.004502971
0.003441707
0.002961638
0.002861699
0.002986613
0.003157942
0.003321486
0.003642748
0.004488073
0.005342899
0.005659905
0.005700271
0.005673741
0.005647727
0.005623523
0.005597818
0.005562504
0.005504292
0.005405887
0.005247194
0.005010435
0.00467426
0.004231807
0.003674311
0.003012275
0.002268723
0.001453132
0.000627272
5.270491e-05
4.687735e-05
0.0003166353
0.0006708955
0.001013606
0.001118224
0.001139035
0.00118262
0.001177582
0.001069473
0.001005328
0.001296897
0.001864806
0.002122721
0.002132555
0.002135044
0.002147791
0.002180093
0.002232548
0.002304535
0.002386152
0.002465234
0.002561597
0.00267026
0.002804033
0.002962625
0.002895592
0.003016157
0.003512327
0.003989818
0.004265327
0.00453109
0.004777267
0.00483465
0.003592037
0.003038548
0.002898114
0.002906277
0.002960461
0.00316725
0.004018276
0.005149893
0.005552022
0.005560865
0.005565081
0.005569981
0.00557602
0.005577289
0.005567111
0.005529891
0.005446732
0.005294561
0.005050447
0.004693359
0.004218969
0.003641474
0.002970418
0.002222023
0.001420199
0.0006189825
5.145703e-05
4.842096e-05
0.0003186881
0.0006281205
0.0008571009
0.0009516704
0.001007283
0.001031706
0.0009491207
0.0008695769
0.001115944
0.001713245
0.001937323
0.001972869
0.00202446
0.002113371
0.002227876
0.002353579
0.00247855
0.002591088
0.002681044
0.002749412
0.002798017
0.002864409
0.002931152
0.003017321
0.002880601
0.002862704
0.003512501
0.003720687
0.003961837
0.004222249
0.004483703
0.004736111
0.003834119
0.003189393
0.002960142
0.002890925
0.002817124
0.002890243
0.003703219
0.004979972
0.005401007
0.005434615
0.005468018
0.005505109
0.005544958
0.005581892
0.005598207
0.005574182
0.005485944
0.005312053
0.005042611
0.004658215
0.004155641
0.003545096
0.002853463
0.002111059
0.001342208
0.0005870597
5.005191e-05
4.941605e-05
0.0003128088
0.0005742086
0.0007622084
0.0008573425
0.0009022722
0.0008744282
0.0008165222
0.001012951
0.001519472
0.001843205
0.00194035
0.002085356
0.002281779
0.002514461
0.002758371
0.002980161
0.003156114
0.003277168
0.003339755
0.003352881
0.003342808
0.003321125
0.003310745
0.003329526
0.003135281
0.003142751
0.003598215
0.003744276
0.003922343
0.004129658
0.004353393
0.004484318
0.003400423
0.002869212
0.002722044
0.002736499
0.002729824
0.0028084
0.003628034
0.004980332
0.005296513
0.00535596
0.005416228
0.00547873
0.005538995
0.005587312
0.005608992
0.005584475
0.005490329
0.005301937
0.005005044
0.004520548
0.003946874
0.003350874
0.002680311
0.001970799
0.001258409
0.0005602127
4.932237e-05
5.038685e-05
0.0003074815
0.0005342178
0.0007040254
0.0007872404
0.0008160872
0.0008403318
0.0009340794
0.001263926
0.00179528
0.001974631
0.002229206
0.002550228
0.002902622
0.003235939
0.003512408
0.003715858
0.003845025
0.003902129
0.003907372
0.003874557
0.003811811
0.00373918
0.003677441
0.00364114
0.003444414
0.003114875
0.003354462
0.003863389
0.004015633
0.00382268
0.00356566
0.003190202
0.002832459
0.002715066
0.002706939
0.002696933
0.00266697
0.002805141
0.003705051
0.005039766
0.005231316
0.00531419
0.005399932
0.005485974
0.005564519
0.005623109
0.005644142
0.005478687
0.005174233
0.004815823
0.004410859
0.003950779
0.003437844
0.002910245
0.002395696
0.00180588
0.001164722
0.0005261478
4.83558e-05
5.057946e-05
0.0002994088
0.000511536
0.0006678224
0.000752241
0.0008222748
0.0009353818
0.001164473
0.001670485
0.002018247
0.002343816
0.002734609
0.003143475
0.003519192
0.003828452
0.004055207
0.004203099
0.004281193
0.004305688
0.004288369
0.004239263
0.0041708
0.004095793
0.004027681
0.003977791
0.003952704
0.003363207
0.003127853
0.003145325
0.00317015
0.003043536
0.002920659
0.002761303
0.002631146
0.002625098
0.002666231
0.002754358
0.002878539
0.003141358
0.004042541
0.005119154
0.005229558
0.005346673
0.005448032
0.005542886
0.005475776
0.005319101
0.005125908
0.004903888
0.004637992
0.004316617
0.003938203
0.003504296
0.003025802
0.002542941
0.002102178
0.001670074
0.001094843
0.0005035655
4.821398e-05
5.133638e-05
0.0003019999
0.0004944707
0.0006443475
0.0007655819
0.0009086036
0.001122984
0.001481538
0.002022574
0.002368919
0.00278015
0.003211416
0.003613459
0.003951973
0.004211364
0.004392136
0.004498759
0.004550568
0.004559025
0.004536537
0.004494264
0.004441741
0.004387997
0.00434114
0.004307648
0.004291649
0.003929394
0.003495026
0.003254003
0.003134604
0.00304527
0.002963945
0.002878369
0.002854048
0.002911774
0.003022632
0.003202196
0.003430931
0.003738367
0.004511403
0.005222857
0.005208064
0.005304592
0.005345111
0.005312027
0.005215935
0.005054935
0.004835277
0.004573785
0.004279294
0.0039483
0.003571991
0.003148761
0.002699235
0.002272081
0.001907662
0.001559
0.001034112
0.000480044
4.763443e-05
5.119237e-05
0.0003005782
0.000487479
0.0006589488
0.000833043
0.001043113
0.001353321
0.001847769
0.002299322
0.002710971
0.003151284
0.003574459
0.003942707
0.004235329
0.004448373
0.004587192
0.004671298
0.004711807
0.0047224
0.004712563
0.004690737
0.004664669
0.004640629
0.00462303
0.004614586
0.004617006
0.004565913
0.004244878
0.003965603
0.003778854
0.00366463
0.003564155
0.003508334
0.00354241
0.003647591
0.003836373
0.004075559
0.004288312
0.004471219
0.004980643
0.005392635
0.005427772
0.005430664
0.005412345
0.00533392
0.005177375
0.004955153
0.004685019
0.004377803
0.004038809
0.003668417
0.003265083
0.002838242
0.002420946
0.002058315
0.001765698
0.001474776
0.0009910319
0.000465054
4.788095e-05
5.190115e-05
0.0003047651
0.000502331
0.0007059916
0.0009224332
0.001192343
0.001596891
0.002165092
0.002559879
0.002993145
0.003426993
0.003820888
0.004149475
0.004402387
0.004576037
0.004694522
0.004763718
0.004797243
0.00480608
0.004800785
0.004790117
0.004780892
0.004776474
0.004779022
0.0047892
0.00480652
0.004830183
0.004859395
0.004892973
0.004859662
0.004722754
0.004625003
0.004615045
0.004678599
0.004795373
0.004931417
0.005056064
0.005146385
0.00524072
0.005461231
0.005536664
0.005612592
0.005679404
0.005629969
0.005474209
0.005238336
0.004939804
0.004593729
0.004214575
0.003813597
0.003397949
0.002974155
0.002563072
0.002202248
0.001917603
0.001689587
0.001420796
0.0009590396
0.0004512386
4.76157e-05
5.268814e-05
0.0003140894
0.0005304662
0.0007633788
0.001017359
0.001340043
0.00182439
0.002362908
0.002776373
0.003206049
0.003617924
0.003978798
0.004272657
0.004495702
0.004648828
0.004755118
0.004820744
0.00485828
0.004878388
0.004889703
0.004896848
0.004902887
0.004911674
0.00492587
0.004946767
0.004974375
0.005007852
0.005045809
0.005086686
0.005128756
0.00516939
0.0052057
0.005234487
0.005268226
0.005304397
0.005341167
0.005385523
0.005435224
0.00549196
0.005553106
0.005613315
0.005665215
0.005698773
0.005702356
0.00557567
0.005283304
0.00491134
0.004491663
0.004041737
0.00358001
0.003126966
0.002702317
0.002333672
0.002045763
0.001833488
0.001648489
0.00138255
0.0009366402
0.0004427956
4.794659e-05
5.475987e-05
0.0003341145
0.0005738141
0.0008231215
0.001090439
0.001461435
0.002025617
0.002523411
0.002938076
0.003352342
0.003736727
0.004069253
0.004336591
0.004539406
0.004679602
0.004779717
0.004844525
0.004884924
0.004909858
0.004926075
0.004938233
0.00494954
0.004962469
0.004978967
0.005000299
0.005026735
0.005057712
0.005092045
0.005128239
0.005164912
0.005200547
0.005234432
0.005267345
0.005301165
0.005338198
0.005379477
0.005424192
0.005472816
0.005522842
0.005569548
0.005606365
0.005625291
0.005616293
0.005568371
0.005470316
0.005293193
0.004892066
0.004400057
0.003869541
0.003345048
0.002868947
0.002471299
0.002168657
0.001956196
0.001801356
0.001641327
0.001360729
0.0009237902
0.000436734
4.815791e-05
5.691442e-05
0.0003592547
0.0006155114
0.0008727853
0.001155876
0.001571923
0.002151988
0.002637597
0.003043594
0.003438769
0.003799104
0.004108462
0.004356691
0.00454561
0.004680891
0.004776624
0.004842114
0.00488528
0.004913881
0.004933811
0.004949237
0.004962956
0.004976855
0.004992301
0.005010401
0.005031861
0.005056873
0.005085252
0.005116224
0.005148531
0.005181271
0.005214283
0.005247728
0.00528244
0.005318518
0.005356595
0.005396519
0.005436784
0.00547302
0.005498258
0.005505107
0.005485665
0.005431105
0.005333519
0.005184615
0.004981121
0.004723806
0.004293624
0.003696421
0.003119322
0.002651553
0.002306879
0.002069597
0.001916998
0.001800433
0.001647246
0.001347578
0.0009129811
0.0004314546
4.826832e-05
5.97276e-05
0.0003894344
0.0006532425
0.0009151002
0.001218856
0.001630633
0.002216589
0.002717136
0.003108404
0.003482752
0.003820991
0.004109741
0.004345038
0.004524985
0.004658016
0.004750342
0.004817193
0.004862776
0.004894011
0.004916199
0.004933134
0.004947349
0.004960453
0.004973443
0.004987061
0.005001981
0.005018539
0.005036503
0.005055882
0.00507703
0.005100573
0.005126616
0.005154715
0.005184601
0.005216702
0.005251066
0.005286538
0.005318722
0.005339147
0.005340079
0.005315285
0.0052583
0.005165027
0.00502704
0.004843938
0.00461729
0.004353088
0.004060011
0.003540427
0.002948335
0.002487836
0.002196843
0.002032974
0.001926447
0.001824393
0.001666001
0.001344515
0.0009114049
0.0004310022
4.850114e-05
6.2273e-05
0.0004190169
0.0006918477
0.0009517169
0.001251649
0.001666723
0.002254279
0.002766632
0.003140708
0.003494431
0.003812644
0.004084932
0.004307073
0.004481902
0.004611759
0.004706056
0.004771606
0.00481869
0.004851155
0.004873778
0.004890008
0.004902144
0.004911549
0.004918879
0.00492433
0.004928136
0.004931185
0.004934647
0.004939658
0.004948263
0.004961207
0.004979502
0.005002344
0.005029309
0.005060019
0.00509327
0.005124638
0.005144453
0.005144329
0.005119325
0.005065843
0.004978752
0.004855837
0.004696042
0.004501669
0.004277839
0.00403255
0.003776225
0.00334814
0.00278099
0.002388632
0.002164776
0.002038648
0.001952005
0.001854338
0.001684082
0.001343064
0.0009088958
0.0004287786
4.879188e-05
6.52495e-05
0.0004485651
0.0007267902
0.0009840115
0.001275982
0.001676335
0.002247683
0.002793593
0.003149603
0.003483444
0.003783252
0.004040848
0.004252892
0.004420583
0.004548261
0.004642721
0.004709835
0.004755604
0.004788155
0.004809754
0.004823612
0.004831828
0.004835607
0.004835419
0.004831189
0.004822937
0.004812305
0.004802412
0.004795916
0.004794932
0.004800885
0.00481428
0.004834414
0.004860504
0.004891107
0.004921185
0.004940295
0.004940336
0.004917625
0.004869199
0.004792684
0.004686745
0.004551483
0.004389097
0.004203972
0.004002264
0.003790929
0.00357632
0.0031784
0.002677456
0.002346762
0.002168183
0.002063449
0.001977562
0.001873301
0.001698329
0.001349525
0.0009131533
0.0004302366
4.908254e-05
6.781197e-05
0.0004781261
0.0007564706
0.00100603
0.001284241
0.001659664
0.002199481
0.002804261
0.003142979
0.00345834
0.003741203
0.003985188
0.004187621
0.004349417
0.004474227
0.004567314
0.004634437
0.004681494
0.004712728
0.00473236
0.004743797
0.004748371
0.004747323
0.004741168
0.004729909
0.004713427
0.004693319
0.004673939
0.004659169
0.004652072
0.0046539
0.00466518
0.004685019
0.004711256
0.004737213
0.004752619
0.004751227
0.00473025
0.004687826
0.004622553
0.004533849
0.004422306
0.004289919
0.004140112
0.003977391
0.003806627
0.003632052
0.003456226
0.003081883
0.002630136
0.002338387
0.002182466
0.002092628
0.002016507
0.001911974
0.001724294
0.00135585
0.0009160066
0.0004301295
4.943058e-05
7.02779e-05
0.0005038491
0.0007823863
0.0010252
0.001288281
0.001630478
0.002128494
0.002784559
0.00312987
0.00342817
0.003695366
0.003926561
0.004119702
0.004275566
0.004397176
0.004488954
0.004555888
0.004602866
0.004634222
0.00465358
0.004663701
0.004666303
0.00466354
0.004655379
0.004642251
0.004624164
0.004601755
0.004578219
0.004558902
0.004548302
0.004548606
0.004559954
0.004578041
0.004594512
0.004601915
0.004595988
0.00457478
0.00453694
0.004481587
0.004408495
0.004318276
0.004212489
0.004093579
0.003964603
0.003828708
0.003688458
0.003545136
0.00339927
0.003033279
0.002616277
0.002357366
0.002220237
0.002135174
0.002053608
0.00193901
0.001740458
0.001369601
0.0009265551
0.0004356732
4.973111e-05
7.212573e-05
0.0005249921
0.0008048732
0.001041938
0.001290892
0.001602755
0.002050483
0.002659959
0.003118763
0.003401155
0.003653698
0.003872751
0.004056869
0.004206818
0.004325175
0.004415703
0.004482711
0.004530509
0.004563033
0.004583635
0.004595005
0.0045992
0.004597723
0.004591579
0.004581473
0.004568001
0.004551932
0.004534294
0.004517975
0.004506709
0.004503324
0.00450524
0.004506209
0.004501309
0.004487604
0.004463435
0.004427608
0.00437941
0.004318664
0.004245798
0.004161859
0.004068438
0.00396746
0.003860824
0.003749915
0.00363518
0.003516286
0.00338967
0.003005991
0.002616622
0.002379802
0.002252367
0.002169229
0.002086394
0.001967563
0.001755881
0.001380706
0.0009330517
0.0004379157
5.002857e-05
7.404851e-05
0.0005458394
0.0008243588
0.001054805
0.001289671
0.00156909
0.001953759
0.002499376
0.003112522
0.003381518
0.003621296
0.003829527
0.00400548
0.004150085
0.004265671
0.004355528
0.004423421
0.004473162
0.004508297
0.004531917
0.004546574
0.004554284
0.004556582
0.004554605
0.004549202
0.004541054
0.004530736
0.004518901
0.004506546
0.0044942
0.004482535
0.004469765
0.004453371
0.004431682
0.004403357
0.004367451
0.004323407
0.004271068
0.004210678
0.004142874
0.004068608
0.003988996
0.003905091
0.003817753
0.003726489
0.003629647
0.003524783
0.003409376
0.00301108
0.002636167
0.002410364
0.00228604
0.002201065
0.002114421
0.001991026
0.001774414
0.001396331
0.0009447914
0.0004439034
5.038237e-05
7.53258e-05
0.0005642866
0.0008410162
0.001066287
0.001288633
0.001537769
0.001865116
0.002339106
0.002961115
0.003367068
0.003597589
0.003797753
0.003967751
0.004108877
0.004223393
0.00431426
0.004384797
0.004438354
0.004478069
0.004506702
0.004526558
0.004539472
0.00454684
0.004549677
0.004548693
0.004544366
0.004536676
0.004526845
0.00451415
0.004498643
0.004480087
0.004457927
0.004431478
0.004400159
0.004363554
0.004321448
0.00427385
0.004220986
0.004163285
0.004101325
0.004035832
0.003967886
0.003898435
0.00382631
0.003748489
0.003661946
0.003564494
0.003453434
0.003037545
0.002666452
0.002443351
0.002317859
0.002230158
0.002141054
0.002015133
0.001793118
0.001411117
0.0009548797
0.0004486955
5.063023e-05
7.642446e-05
0.0005754723
0.0008558074
0.001080461
0.001294505
0.001520416
0.001800466
0.002201178
0.002765114
0.003341884
0.003571395
0.003770294
0.003939689
0.00408185
0.004199313
0.004294925
0.004371664
0.00443245
0.004479984
0.00451663
0.00454436
0.004564732
0.004578913
0.004587715
0.004591661
0.004591047
0.004585723
0.004576466
0.004562775
0.00454455
0.004521723
0.004494223
0.004462025
0.004425183
0.004383851
0.004338285
0.004288827
0.004235888
0.004179883
0.004121301
0.004061242
0.004001195
0.003940926
0.00387745
0.003806187
0.003723328
0.003626862
0.003514443
0.003079586
0.002702983
0.002475525
0.002345732
0.002255004
0.002164528
0.002037651
0.001812443
0.001427154
0.0009666865
0.0004547716
5.096688e-05
7.748988e-05
0.0005890457
0.0008712603
0.001093669
0.001299868
0.001505185
0.001742442
0.002076538
0.002577898
0.003215179
0.00353225
0.003736155
0.003913256
0.004064194
0.00419165
0.004298544
0.004387545
0.004461131
0.004521526
0.004570647
0.004610084
0.004641106
0.004664677
0.00468146
0.004691827
0.004695977
0.004694119
0.004686349
0.004672609
0.004653002
0.004627695
0.004596937
0.004561059
0.004520475
0.004475658
0.004427122
0.004375386
0.004320923
0.004264262
0.00420588
0.004146928
0.004088491
0.004029476
0.003966199
0.0038937
0.003807964
0.003706938
0.003588444
0.003137539
0.002746783
0.002508324
0.002371553
0.002277933
0.002187373
0.002060459
0.001831828
0.001443184
0.0009784729
0.0004609145
5.118615e-05
7.83584e-05
0.0006017445
0.0008865819
0.001106797
0.001305759
0.001493012
0.001693862
0.001968628
0.00239488
0.002987114
0.003465547
0.003688191
0.003883086
0.004052226
0.004199785
0.004327291
0.004436941
0.004530747
0.004610379
0.004677255
0.004732517
0.004776999
0.004811868
0.004838237
0.004856402
0.004866222
0.004868711
0.004863529
0.004850895
0.00483109
0.004804475
0.004771505
0.004732726
0.004688771
0.004640328
0.004588105
0.004532785
0.004474957
0.0044149
0.004352876
0.00428934
0.004224841
0.00415854
0.004087226
0.004006259
0.003911633
0.00380103
0.003672256
0.003201487
0.002790787
0.002538695
0.002395693
0.002300632
0.002210957
0.002084175
0.001850344
0.001458588
0.0009899821
0.0004673461
5.14561e-05
7.908877e-05
0.0006058505
0.0009016323
0.001122728
0.001315462
0.001487172
0.001657861
0.001882666
0.002242304
0.002787028
0.003379791
0.003620837
0.003845674
0.004047613
0.004225332
0.004381763
0.004519613
0.004639938
0.004743942
0.004832848
0.00490786
0.004970149
0.005020311
0.0050586
0.005086045
0.005102614
0.005109722
0.005107449
0.005096272
0.005076625
0.005049044
0.005014133
0.004972543
0.004924952
0.004872073
0.004814622
0.004753276
0.004688619
0.004621072
0.004550795
0.004477636
0.004401257
0.004320958
0.004234747
0.004139054
0.004030162
0.003905458
0.003762695
0.003274747
0.002839877
0.002569454
0.002414238
0.002318074
0.002233461
0.002108444
0.001868074
0.001473601
0.001001335
0.0004732125
5.163862e-05
7.95622e-05
0.0006063003
0.0009170694
0.001140657
0.001327766
0.001486461
0.001633028
0.001817008
0.002121502
0.002625689
0.003285449
0.003581666
0.003840878
0.004081346
0.004298764
0.004493765
0.004666264
0.004817365
0.004948114
0.005059644
0.00515318
0.00522998
0.005291202
0.005338167
0.005371741
0.005392793
0.005402601
0.00540176
0.005390982
0.00537096
0.005342285
0.005305497
0.005261129
0.005209733
0.00515187
0.005088115
0.005019037
0.004945151
0.00486684
0.004784264
0.004697168
0.004605088
0.004507009
0.004401505
0.00428638
0.004158796
0.004016183
0.003856347
0.003346792
0.00288229
0.002596751
0.002443734
0.002348401
0.002256566
0.002128857
0.001883772
0.001486897
0.001011374
0.0004787714
5.18299e-05
7.991312e-05
0.0006067947
0.0009329971
0.001158356
0.001339541
0.001487063
0.001615899
0.001771625
0.002037525
0.002504363
0.003166908
0.003591254
0.00389018
0.004171827
0.004429113
0.004660684
0.004865833
0.005044669
0.005198048
0.005327398
0.005434506
0.00552175
0.005590383
0.005642531
0.005679059
0.005702871
0.005714391
0.005714651
0.005704489
0.005684586
0.00565548
0.005617603
0.005571311
0.005516919
0.005454724
0.00538503
0.005308148
0.005224387
0.005134007
0.005037175
0.004933947
0.004823741
0.004705559
0.004578661
0.00444151
0.004292294
0.004129143
0.00395046
0.003442635
0.002937555
0.002624922
0.002460761
0.002368454
0.002291601
0.002163555
0.001897989
0.001499051
0.001020578
0.0004837584
5.197619e-05
8.014767e-05
0.0006055206
0.0009472514
0.00117321
0.001348412
0.001487053
0.001604053
0.001742747
0.00198614
0.002430681
0.003094767
0.003670631
0.004011161
0.004331262
0.004624024
0.004886277
0.00511648
0.005314683
0.005482224
0.005621314
0.005734982
0.005825592
0.005896015
0.005948734
0.005985634
0.006009174
0.006020397
0.006020441
0.006010163
0.005990174
0.005960878
0.005922506
0.00587516
0.005818846
0.00575352
0.005679122
0.005595605
0.00550295
0.005401162
0.005290238
0.005170112
0.005040717
0.004901994
0.004752806
0.004592199
0.00441907
0.004232292
0.004030913
0.003555458
0.00300561
0.002660215
0.002479809
0.00238142
0.002301851
0.002179731
0.001909023
0.001508588
0.001027544
0.0004871867
5.21123e-05
8.009903e-05
0.0006016725
0.0009578319
0.001183914
0.001354431
0.001487017
0.001598435
0.001731973
0.001968412
0.002401523
0.003071497
0.003823704
0.004200563
0.004551822
0.004870655
0.005152875
0.005396979
0.005603723
0.005775475
0.005915799
0.006028078
0.006116152
0.006183461
0.006232435
0.006266899
0.006288026
0.006297369
0.006296073
0.006284929
0.006264428
0.006234805
0.006196083
0.006148111
0.006090601
0.006023171
0.005945384
0.005856791
0.005756971
0.005645555
0.005522249
0.005386832
0.005239143
0.005079048
0.004906602
0.004721982
0.004525404
0.004317058
0.004096988
0.003656372
0.003062712
0.002686668
0.002495527
0.002396901
0.002319624
0.002194753
0.001919903
0.001518109
0.001033807
0.0004896994
5.224805e-05
7.981488e-05
0.0006005129
0.0009667516
0.001193317
0.001360568
0.001489813
0.001601647
0.001741826
0.001989088
0.002428296
0.00309233
0.003878707
0.004445247
0.004814375
0.005145633
0.00543468
0.00568069
0.005885497