/*--------------------------------*- C++ -*----------------------------------*\
| =========                 |                                                 |
| \\      /  F ield         | OpenFOAM: The Open Source CFD Toolbox           |
|  \\    /   O peration     | Version:  2312                                  |
|   \\  /    A nd           | Website:  www.openfoam.com                      |
|    \\/     M anipulation  |                                                 |
\*---------------------------------------------------------------------------*/
FoamFile
{
    version     2.0;
    format      ascii;
    arch        "LSB;label=32;scalar=64";
    class       volScalarField;
    location    "500";
    object      omega;
}
// * * * * * * * * * * * * * * * * * * * * * * * * * * * * * * * * * * * * * //

dimensions      [0 0 -1 0 0 0 0];

internalField   nonuniform List<scalar> 
12000
(
47.34461
16.38817
17.83263
19.2772
20.34454
21.27878
22.10935
22.92555
23.72296
24.44038
25.02476
25.50839
25.93866
26.33699
26.73337
27.11183
27.43904
27.71311
27.93865
28.13966
28.33503
28.52733
28.68625
28.79636
28.87298
28.93931
29.01436
29.0618
29.06723
29.0631
29.037
29.01205
28.95226
28.88625
28.76854
28.55489
28.32738
28.18524
28.1027
27.87318
27.35673
26.79566
26.56791
26.48508
26.05949
25.26818
24.72648
24.28773
23.91723
23.13969
22.35341
21.6516
20.89041
20.09631
19.11529
18.04902
16.88682
15.96487
15.09812
37.84605
82.8225
18.54636
17.7281
18.9765
19.71249
19.90356
19.82148
19.5027
19.3223
18.95592
18.46665
17.89892
17.45252
17.0482
16.71456
16.25613
15.63378
15.02729
14.63043
14.42359
14.23232
13.85467
13.22465
12.66556
12.45638
12.36507
12.07191
11.56124
11.19387
11.09062
10.9798
10.76196
10.58603
10.5403
10.53483
10.62317
10.73995
10.7555
10.7348
10.81303
11.21838
11.65394
11.78535
11.80909
12.15815
12.90568
13.52881
13.89604
14.36566
15.27502
16.38072
17.47381
18.66953
20.15344
22.07059
24.71819
28.51273
35.29414
48.19081
70.9096
85.55396
18.70543
17.14699
17.18707
17.12978
16.56011
15.84018
15.12499
14.50417
13.86086
13.23844
12.66405
12.17604
11.7352
11.30407
10.90075
10.54778
10.26502
10.03661
9.825192
9.592467
9.330431
9.083136
8.895391
8.744494
8.577791
8.385481
8.219614
8.107612
8.022153
7.942766
7.882355
7.858043
7.856266
7.876349
7.906209
7.949597
8.010749
8.090705
8.202808
8.334777
8.469281
8.601925
8.756921
8.933928
9.134992
9.358954
9.604564
9.894759
10.23008
10.66368
11.24369
11.94998
12.97137
14.29613
16.25552
20.02704
26.99587
42.99505
77.45831
87.74953
18.35112
15.68451
15.48381
15.01003
14.29697
13.3954
12.49553
11.77231
11.12538
10.57488
10.13708
9.772281
9.456778
9.17093
8.925674
8.722631
8.549865
8.391818
8.232833
8.06189
7.882426
7.711673
7.557596
7.411488
7.265955
7.127159
7.006644
6.905389
6.819453
6.751196
6.705469
6.681196
6.678034
6.691733
6.726945
6.780383
6.844538
6.927178
7.032067
7.149424
7.279534
7.422092
7.579896
7.758667
7.961665
8.197603
8.47395
8.79524
9.177666
9.653403
10.17328
10.7453
11.54009
12.63698
14.40073
17.28635
23.05607
38.40419
82.20142
89.74132
18.15797
14.40342
13.98354
13.27513
12.43826
11.54761
10.73169
10.05874
9.51056
9.080089
8.74842
8.491665
8.290762
8.132203
8.00703
7.907065
7.819905
7.729338
7.625214
7.506935
7.371469
7.225742
7.075314
6.920849
6.762137
6.605394
6.461834
6.339613
6.24139
6.167981
6.118795
6.090385
6.084976
6.097456
6.132367
6.186294
6.25724
6.341574
6.436636
6.539477
6.647735
6.760073
6.875868
6.996114
7.127505
7.278064
7.443814
7.647111
7.904234
8.201314
8.558016
9.078351
9.823862
10.90543
12.52382
15.25603
20.73968
35.5572
86.05092
91.56375
17.81625
13.30061
12.6187
11.81113
10.96578
10.17183
9.4776
8.901628
8.455784
8.114752
7.857416
7.669025
7.536716
7.448184
7.392493
7.3597
7.338991
7.318719
7.293192
7.25595
7.197319
7.109418
6.993764
6.85597
6.701169
6.536646
6.374299
6.225672
6.099874
6.002841
5.938501
5.907331
5.904557
5.927065
5.976974
6.049934
6.140051
6.242211
6.351871
6.465413
6.580187
6.694505
6.807625
6.919778
7.032394
7.144216
7.279511
7.439839
7.624244
7.872891
8.203217
8.649843
9.264464
10.15063
11.52636
13.89089
18.74171
32.58912
88.64763
93.58907
17.8319
12.47678
11.52757
10.71732
9.941237
9.245056
8.657921
8.180445
7.800374
7.500184
7.268207
7.094132
6.969947
6.887998
6.841045
6.822782
6.82374
6.836749
6.852154
6.858487
6.846564
6.812886
6.757995
6.680916
6.580614
6.460235
6.329964
6.202848
6.09202
6.009031
5.955941
5.935478
5.939957
5.975922
6.041394
6.129984
6.234242
6.347811
6.464361
6.578524
6.686352
6.785673
6.87636
6.960891
7.042576
7.133259
7.234511
7.34319
7.474621
7.641848
7.89558
8.278294
8.831132
9.656633
10.95361
13.19218
17.77264
30.84057
90.46615
95.30028
17.90484
11.84423
10.7383
9.979356
9.301671
8.693704
8.168932
7.732851
7.379219
7.096109
6.870537
6.692852
6.55873
6.466625
6.414902
6.399466
6.41361
6.448766
6.492973
6.53402
6.563144
6.575119
6.566862
6.53306
6.469625
6.377735
6.268055
6.158948
6.069084
6.009057
5.987071
6.002627
6.05172
6.130706
6.235559
6.362319
6.5
6.640021
6.774689
6.897822
7.004359
7.091514
7.159297
7.210149
7.251129
7.28594
7.32266
7.378848
7.472009
7.621013
7.842169
8.156852
8.637869
9.372534
10.53663
12.55935
16.74509
28.9633
91.65603
97.07273
18.65494
11.75603
10.28778
9.500305
8.86398
8.322302
7.869675
7.498382
7.19802
6.952942
6.750796
6.59312
6.480586
6.412759
6.38633
6.39342
6.421449
6.462632
6.50989
6.554853
6.586367
6.601849
6.600289
6.583063
6.543139
6.469093
6.363411
6.246279
6.143714
6.080242
6.066229
6.100335
6.182996
6.310276
6.46955
6.649331
6.839958
7.026197
7.19473
7.336891
7.447876
7.525336
7.569824
7.583249
7.575246
7.555238
7.539957
7.541024
7.577516
7.669379
7.84191
8.130079
8.57144
9.249531
10.35794
12.28312
16.24499
27.73997
92.16862
98.53886
19.60325
11.83511
10.09049
9.22736
8.610166
8.128333
7.754508
7.462832
7.208215
6.982271
6.801776
6.679675
6.614766
6.592045
6.598324
6.642495
6.722313
6.813269
6.89514
6.956101
6.984742
6.98364
6.960596
6.920675
6.865009
6.790049
6.692619
6.587787
6.491927
6.410669
6.368328
6.381658
6.461168
6.602969
6.797971
7.032423
7.283347
7.518413
7.717005
7.873863
7.98374
8.042672
8.05229
8.020534
7.959827
7.884791
7.811124
7.758954
7.747233
7.794217
7.923066
8.16452
8.566601
9.21032
10.23152
12.02342
15.72879
26.55004
92.21973
99.97842
20.75082
12.07021
9.91215
8.993655
8.449371
8.066104
7.761583
7.517618
7.367568
7.301095
7.335646
7.436021
7.502532
7.56121
7.654634
7.78289
7.920174
8.047692
8.138141
8.188551
8.190271
8.155228
8.062685
7.934032
7.768444
7.571339
7.370807
7.190585
7.061293
6.993133
6.964147
6.971748
7.034196
7.174177
7.390759
7.657612
7.935972
8.185011
8.376627
8.507958
8.581324
8.595817
8.554312
8.465046
8.343028
8.207451
8.078809
7.976993
7.920448
7.927935
8.021602
8.232053
8.603095
9.21063
10.20733
11.93602
15.49845
25.84044
91.88905
101.2034
22.03657
12.35827
9.919701
8.928409
8.411392
8.079616
7.887059
7.845703
7.971562
8.372029
8.946698
9.180321
9.270867
9.371706
9.455062
9.500169
9.496572
9.458798
9.407047
9.339031
9.255205
9.152766
9.033214
8.891881
8.713505
8.489499
8.230343
7.967935
7.742655
7.614894
7.617019
7.696508
7.846187
8.027697
8.265654
8.560679
8.860257
9.078362
9.206939
9.267781
9.260315
9.19514
9.07673
8.915355
8.729014
8.53726
8.359136
8.211645
8.113729
8.084827
8.14363
8.326179
8.671726
9.251129
10.20404
11.87242
15.21941
24.82292
91.131
102.3837
23.55254
12.79448
9.980461
8.939397
8.453917
8.286498
8.323718
8.651621
9.534646
10.93685
11.46358
11.46246
11.37129
11.11999
10.77945
10.42906
10.12249
9.860421
9.630817
9.444926
9.296504
9.17542
9.066722
8.966926
8.866875
8.733429
8.532857
8.297222
8.083079
7.93784
7.914534
8.009777
8.314596
8.717647
9.130726
9.53223
9.896419
10.12117
10.13602
10.06769
9.954653
9.793776
9.587999
9.347597
9.090068
8.837935
8.609817
8.422257
8.292368
8.238809
8.279953
8.452917
8.796209
9.37788
10.32874
11.95522
15.22064
24.65708
89.85747
103.306
25.37533
13.37699
10.16653
9.071596
8.742377
8.791117
9.247706
10.54519
12.8153
13.69108
13.48213
12.9644
12.28094
11.56517
10.87955
10.24304
9.680649
9.246929
8.917594
8.680078
8.577409
8.561002
8.581995
8.634045
8.682234
8.66723
8.522102
8.316082
8.113504
7.969177
7.940023
8.024784
8.320647
8.812051
9.389252
10.01818
10.60517
10.95505
10.92627
10.72771
10.51075
10.25534
9.970024
9.666222
9.358429
9.063213
8.797704
8.578534
8.42206
8.34703
8.373612
8.541612
8.889104
9.481105
10.43873
12.04761
15.20008
24.16589
88.70889
104.1
27.11712
14.24919
10.68514
9.578579
9.409391
9.771042
11.27892
14.29059
15.56009
15.09489
14.1688
13.09482
11.9624
10.85616
9.85675
9.016247
8.352464
7.865627
7.548036
7.359334
7.307346
7.3639
7.523007
7.735883
7.978214
8.177129
8.233108
8.172162
8.035037
7.931021
7.926622
8.02131
8.311584
8.802783
9.411181
10.0791
10.79911
11.33853
11.33271
11.11062
10.83886
10.52866
10.18605
9.829293
9.479836
9.152315
8.862057
8.625321
8.460765
8.390491
8.431248
8.621617
9.001936
9.635518
10.63299
12.25867
15.36284
24.06988
87.03749
104.6041
28.5373
15.15841
11.4011
10.33731
10.44351
11.77205
15.056
16.84728
16.25896
14.96604
13.42863
11.8211
10.33111
9.07975
8.10412
7.38291
6.871933
6.530982
6.340957
6.282675
6.325825
6.487748
6.732231
7.02845
7.347125
7.61595
7.751494
7.777153
7.757305
7.752295
7.807377
7.983841
8.318498
8.845175
9.492819
10.16907
10.88291
11.43213
11.42336
11.18303
10.89387
10.56301
10.20559
9.84221
9.48757
9.156476
8.863538
8.625149
8.460289
8.39239
8.441116
8.664729
9.101079
9.804107
10.86218
12.51353
15.57905
24.06322
85.96024
105.1786
29.79383
16.32349
12.43817
11.56528
12.34327
14.91861
17.59377
17.21541
15.28751
13.27691
11.29987
9.624536
8.355979
7.459195
6.84413
6.432147
6.165978
6.018754
5.959586
5.979818
6.087677
6.272623
6.515647
6.793909
7.083333
7.343245
7.505099
7.589249
7.650752
7.728659
7.839655
8.068663
8.46736
8.993982
9.591306
10.24394
10.92979
11.39193
11.33964
11.05335
10.75295
10.41202
10.04755
9.677423
9.318479
8.984781
8.692898
8.461215
8.311682
8.274974
8.37027
8.669204
9.19919
10.00262
11.13749
12.80573
15.83179
24.19567
84.49286
105.5015
30.43029
17.25522
13.63749
13.46469
15.19823
17.54413
17.49204
15.53072
13.07376
10.9082
9.200075
7.982739
7.163002
6.630014
6.296032
6.099766
6.003148
5.976405
6.004444
6.084115
6.213044
6.388767
6.602561
6.84172
7.089737
7.327649
7.511424
7.625961
7.727571
7.869716
8.101715
8.436741
8.880763
9.388659
9.942232
10.47203
10.90682
11.08587
10.96265
10.66891
10.3626
10.01794
9.652351
9.28691
8.938354
8.619372
8.346766
8.143867
8.04044
8.063481
8.264918
8.675017
9.322811
10.22881
11.42729
13.10695
16.12039
24.46898
83.79745
106.2547
31.56805
18.55642
15.49151
16.08997
17.70695
17.68426
15.87776
13.20102
10.87213
9.084116
7.829514
7.001413
6.481724
6.177328
6.021908
5.973005
5.992927
6.062606
6.16791
6.300508
6.456228
6.631461
6.821988
7.023789
7.232177
7.451382
7.68153
7.904923
8.118606
8.353051
8.634687
8.971955
9.341944
9.708879
10.04901
10.34401
10.49659
10.4783
10.26659
9.981374
9.675709
9.336526
8.985149
8.639892
8.317516
8.03723
7.821529
7.696952
7.694502
7.823067
8.159806
8.712249
9.485209
10.46949
11.67854
13.32746
16.32379
24.64652
82.71464
106.5884
32.01439
20.01124
17.8543
18.41267
18.38538
16.66541
13.7994
11.23282
9.252045
7.854963
6.93085
6.352091
6.016173
5.850092
5.806099
5.840818
5.931996
6.060502
6.215179
6.387044
6.569438
6.75776
6.948593
7.140961
7.337574
7.541463
7.75631
7.980261
8.207912
8.442941
8.695299
8.968669
9.24971
9.476587
9.626975
9.673243
9.649743
9.529626
9.307535
9.032858
8.736221
8.423047
8.110497
7.817514
7.562284
7.364394
7.247138
7.237946
7.347311
7.640795
8.137898
8.830652
9.708591
10.73273
11.92418
13.56127
16.60924
25.04268
82.38991
107.6829
32.98901
22.02896
20.22994
19.83823
18.03311
14.95209
12.04045
9.774353
8.132096
7.021614
6.307459
5.874954
5.640201
5.552695
5.555552
5.6297
5.754305
5.914144
6.095602
6.289759
6.489712
6.689802
6.887226
7.08098
7.271501
7.460441
7.648854
7.835228
8.017089
8.194882
8.364339
8.508199
8.60668
8.674874
8.69817
8.671582
8.583096
8.431037
8.21839
7.972039
7.710868
7.448484
7.203241
6.990779
6.828087
6.735152
6.736579
6.843186
7.115636
7.56864
8.199946
9.009862
9.944676
10.94738
12.08158
13.69314
16.76518
25.21874
81.73063
108.6987
34.22586
24.2777
22.02718
19.94581
16.81174
13.41072
10.69783
8.717834
7.335085
6.416558
5.831201
5.480719
5.296149
5.235735
5.253278
5.332853
5.45649
5.610724
5.785184
5.971815
6.164182
6.356705
6.544484
6.724189
6.894095
7.053425
7.201148
7.336111
7.456443
7.561127
7.648413
7.712569
7.747289
7.748679
7.715065
7.636279
7.513893
7.350503
7.154911
6.946728
6.741939
6.550774
6.387244
6.26593
6.20248
6.214988
6.330169
6.575499
6.980105
7.568435
8.333807
9.228847
10.17049
11.12286
12.2195
13.85566
17.01993
25.61272
81.64786
110.4599
36.33578
26.55129
23.21327
19.77233
15.69774
12.2354
9.737532
7.972993
6.75986
5.956456
5.443503
5.133822
4.9682
4.911251
4.922173
4.987749
5.092527
5.224827
5.375634
5.537944
5.706042
5.874807
6.039379
6.195322
6.338917
6.468048
6.581136
6.676563
6.753039
6.809867
6.845986
6.85827
6.843756
6.799138
6.724582
6.620694
6.491117
6.342588
6.184701
6.031724
5.894785
5.782847
5.70746
5.681128
5.714728
5.832559
6.057528
6.419825
6.954224
7.663404
8.520014
9.439477
10.33409
11.21945
12.28323
13.93221
17.13536
25.75439
81.37415
112.0479
38.62829
28.42173
23.91247
19.31075
14.80074
11.4132
9.074911
7.451807
6.341605
5.601107
5.121982
4.826199
4.659979
4.588561
4.582182
4.623461
4.700098
4.801661
4.920116
5.049167
5.183727
5.31937
5.451732
5.576708
5.690217
5.788525
5.86898
5.929833
5.970801
5.992138
5.993518
5.974169
5.933233
5.871636
5.790646
5.692723
5.58231
5.467111
5.357325
5.263962
5.195994
5.161824
5.171041
5.236164
5.369587
5.586673
5.908727
6.372754
7.003303
7.802528
8.704621
9.603726
10.4399
11.28433
12.35324
14.04978
17.33672
26.06895
81.38498
114.0004
41.07858
30.0974
24.26745
18.81146
14.13281
10.81453
8.592397
7.067297
6.02066
5.314455
4.847648
4.549668
4.371288
4.278381
4.249531
4.262189
4.307395
4.375533
4.459245
4.552771
4.65144
4.751458
4.849339
4.941542
5.024695
5.095696
5.152417
5.192962
5.21594
5.22078
5.207712
5.177662
5.131796
5.071018
4.997161
4.913624
4.827282
4.748986
4.688124
4.652532
4.649723
4.685692
4.773082
4.921166
5.142396
5.450699
5.862454
6.398558
7.097164
7.94749
8.852794
9.700874
10.48097
11.30357
12.37996
14.10023
17.41629
26.17237
81.37874
115.7329
43.00767
31.23782
24.41379
18.42118
13.63749
10.37831
8.23995
6.78073
5.77189
5.081115
4.614124
4.305103
4.108604
3.992802
3.935251
3.920748
3.934985
3.970931
4.021816
4.08242
4.1486
4.217072
4.285211
4.350747
4.411323
4.464001
4.506152
4.53585
4.550611
4.54944
4.532099
4.500135
4.455238
4.399428
4.335747
4.270433
4.214619
4.177759
4.165799
4.184168
4.240488
4.34182
4.497262
4.717014
5.012326
5.394868
5.874222
6.470723
7.213266
8.07575
8.947897
9.749995
10.50468
11.32941
12.43177
14.1965
17.57982
26.44533
81.52477
117.7239
44.91884
32.08506
24.4717
18.1543
13.31645
10.08026
7.990271
6.572596
5.582881
4.894392
4.418461
4.093241
3.875711
3.735714
3.651839
3.608672
3.595744
3.60261
3.624482
3.656521
3.695085
3.737425
3.781518
3.825919
3.869188
3.908582
3.940371
3.961666
3.970262
3.965402
3.94719
3.917287
3.87774
3.831389
3.784465
3.747914
3.730385
3.736659
3.771474
3.840315
3.949671
4.10696
4.320663
4.6
4.95429
5.391981
5.91939
6.552902
7.314743
8.16623
9.004019
9.771946
10.51447
11.34642
12.46117
14.23936
17.64389
26.57919
81.67795
119.3154
46.45198
32.71232
24.57873
18.06119
13.16644
9.902344
7.824982
6.428447
5.443815
4.748619
4.2583
3.913968
3.674448
3.510733
3.402115
3.333668
3.294493
3.276459
3.273673
3.281305
3.296475
3.316723
3.340373
3.36636
3.393946
3.421191
3.444088
3.459127
3.464135
3.458419
3.44228
3.417419
3.386887
3.35771
3.339714
3.339494
3.360959
3.407951
3.485067
3.597747
3.752308
3.955901
4.216263
4.541196
4.937778
5.411436
5.965319
6.615146
7.379234
8.213023
9.021006
9.774274
10.5156
11.35844
12.49603
14.30846
17.76384
26.82322
81.90666
120.8918
47.56859
33.16629
24.69629
18.07254
13.12973
9.80277
7.71445
6.326766
5.340792
4.63511
4.128603
3.764786
3.503964
3.318005
3.186781
3.095702
3.034081
2.994041
2.969741
2.956881
2.95247
2.953698
2.959455
2.968735
2.981033
2.995743
3.010493
3.021406
3.025365
3.021077
3.009144
2.99395
2.982969
2.983032
2.99872
3.033123
3.089543
3.171874
3.284717
3.433426
3.624046
3.863143
4.157428
4.513173
4.935581
5.428326
5.993384
6.647723
7.407537
8.224458
9.020122
9.767598
10.51612
11.37317
12.52297
14.33867
17.78804
26.86072
82.16553
122.1725
48.12055
33.33601
24.7269
18.09408
13.14115
9.775496
7.635848
6.238792
5.256174
4.543078
4.022695
3.641486
3.361567
3.155824
3.004702
2.893954
2.813112
2.754434
2.712181
2.682107
2.661086
2.646859
2.637869
2.633082
2.631843
2.63368
2.638116
2.643552
2.647878
2.649635
2.651277
2.658089
2.67459
2.704008
2.748992
2.812441
2.89767
3.00855
3.149582
3.325907
3.543142
3.807117
4.123523
4.497434
4.932896
5.432776
5.999633
6.654421
7.412982
8.224344
9.014321
9.764913
10.52304
11.39202
12.55562
14.38901
17.86653
27.00985
82.39046
123.5093
48.8309
33.56593
24.83025
18.20077
13.23845
9.803223
7.589248
6.168516
5.188359
4.468939
3.93672
3.540564
3.244186
3.021486
2.853484
2.726264
2.629563
2.555774
2.499249
2.455807
2.422379
2.396754
2.377396
2.363288
2.353822
2.34871
2.34785
2.351196
2.358819
2.370962
2.389507
2.416954
2.455411
2.507078
2.574328
2.659853
2.766794
2.898839
3.060247
3.255801
3.490575
3.769579
4.097552
4.479145
4.918699
5.41945
5.984425
6.637325
7.394335
8.203815
8.998012
9.759975
10.53341
11.41614
12.58892
14.42538
17.9031
27.07979
82.69704
124.4068
48.98541
33.5975
24.91544
18.34883
13.39782
9.907826
7.60907
6.13158
5.132344
4.408271
3.866869
3.458734
3.149002
2.912488
2.730795
2.59039
2.481249
2.395925
2.328886
2.276037
2.234385
2.201791
2.176789
2.158449
2.146278
2.140288
2.140263
2.146784
2.160459
2.182109
2.212859
2.254065
2.307239
2.374103
2.456671
2.557356
2.679065
2.825261
2.999949
3.207501
3.45197
3.736869
4.066691
4.447581
4.885171
5.382872
5.944196
6.595509
7.354779
8.170799
8.977798
9.756669
10.54551
11.44006
12.62015
14.45999
17.93931
27.12998
82.91948
125.484
48.96949
33.54176
24.91185
18.43019
13.53243
10.03124
7.698807
6.148147
5.11252
4.37319
3.818759
3.398493
3.076795
2.828607
2.635806
2.485089
2.366603
2.273023
2.198898
2.140192
2.093949
2.058055
2.031056
2.012033
2.000497
1.996437
1.999723
2.010898
2.03053
2.059351
2.098245
2.148254
2.2106
2.286743
2.378474
2.488015
2.61811
2.77208
2.953689
3.166402
3.412894
3.696524
4.022925
4.399434
4.832578
5.326228
5.884593
6.536332
7.30207
8.131636
8.958416
9.758702
10.56583
11.4729
12.65967
14.50109
17.98047
27.19681
83.20965
126.4584
49.1328
33.52997
24.92783
18.57062
13.74047
10.23069
7.868655
6.25844
5.155587
4.381566
3.806572
3.368601
3.032621
2.772586
2.569759
2.410602
2.285147
2.185992
2.107624
2.045944
1.997926
1.961373
1.934746
1.917032
1.907642
1.906355
1.913122
1.928261
1.952221
1.985604
2.029153
2.08376
2.150502
2.230702
2.32602
2.438548
2.570905
2.726278
2.908171
3.119607
3.363154
3.642623
3.964107
4.335332
4.76342
5.253188
5.80992
6.463943
7.239185
8.08758
8.939288
9.76434
10.59029
11.50873
12.69979
14.53795
18.00454
27.20485
83.42063
127.2242
49.30195
33.53763
25.01809
18.7758
14.02174
10.50862
8.11583
6.459634
5.287925
4.454479
3.839169
3.374826
3.020538
2.746589
2.533624
2.367158
2.236583
2.134091
2.053862
1.991542
1.94388
1.908479
1.883614
1.868092
1.861378
1.862659
1.872049
1.889679
1.915875
1.951129
1.996086
2.051549
2.118514
2.198225
2.292256
2.402602
2.531759
2.68279
2.859265
3.064789
3.302632
3.57673
3.89299
4.259077
4.682595
5.169611
5.726662
6.385683
7.174453
8.046952
8.92864
9.780764
10.62674
11.55712
12.75315
14.58953
18.04645
27.22537
83.6553
127.9364
49.3079
33.52969
25.11026
19.01049
14.35465
10.85037
8.420699
6.717903
5.483418
4.590016
3.926468
3.421883
3.039945
2.749717
2.526782
2.354115
2.220203
2.116479
2.036545
1.975593
1.930015
1.89712
1.874933
1.86206
1.85772
1.86107
1.872028
1.890617
1.91709
1.951859
1.995493
2.048734
2.112535
2.188106
2.276986
2.38114
2.503041
2.645735
2.812893
3.008747
3.237792
3.504702
3.815077
4.176152
4.595865
5.08157
5.641053
6.307338
7.112082
8.012203
8.927868
9.810565
10.67715
11.61815
12.81653
14.64629
18.08447
27.24537
83.82993
128.4733
49.29601
33.4753
25.18801
19.24946
14.70798
11.2297
8.755951
6.999989
5.701291
4.746701
4.033366
3.489438
3.081469
2.775099
2.54293
2.36638
2.231778
2.129357
2.051961
1.994275
1.952319
1.923111
1.904443
1.894719
1.892886
1.898117
1.910118
1.928804
1.954303
1.98696
2.027312
2.07609
2.134236
2.202967
2.283845
2.378868
2.490569
2.622112
2.777359
2.960947
3.178091
3.434666
3.737019
4.092304
4.508643
4.994583
5.558912
6.235774
7.06113
7.993679
8.944454
9.857269
10.74676
11.69957
12.89944
14.72173
18.14105
27.26224
83.98888
128.9438
49.23636
33.37299
25.2226
19.47146
15.05978
11.62373
9.097377
7.28011
5.917451
4.897086
4.131838
3.556048
3.130384
2.815447
2.580471
2.404424
2.272523
2.174149
2.101532
2.048903
2.011936
1.987379
1.9728
1.966688
1.967284
1.974037
1.986473
2.004409
2.027911
2.057263
2.092955
2.135688
2.186405
2.246346
2.317125
2.400827
2.500119
2.618352
2.759647
2.928896
3.132048
3.375964
3.667835
4.015779
4.428569
4.915415
5.485519
6.173084
7.020057
7.991781
8.988715
9.938811
10.84569
11.80166
12.99878
14.81075
18.20703
27.2826
84.11143
129.2783
49.17586
33.2578
25.28002
19.68802
15.39925
12.00564
9.417337
7.528028
6.097791
5.009025
4.198595
3.60684
3.177183
2.863186
2.632099
2.461632
2.33621
2.244699
2.178973
2.133002
2.102257
2.083314
2.0736
2.071294
2.07479
2.083291
2.096222
2.113312
2.134551
2.160163
2.190596
2.226533
2.268924
2.319048
2.378595
2.449767
2.535405
2.639111
2.765365
2.919631
3.108324
3.338723
3.619603
3.960391
4.371257
4.862786
5.445758
6.148392
7.013949
8.021954
9.065525
10.05511
10.98447
11.94161
13.12303
14.9159
18.29293
27.33365
84.20143
129.4412
48.95782
33.09938
25.2794
19.87941
15.70655
12.34343
9.684464
7.714164
6.215811
5.059017
4.223893
3.638604
3.219139
2.915577
2.694789
2.534264
2.418313
2.335738
2.278358
2.240075
2.21628
2.203463
2.199152
2.20087
2.207432
2.217801
2.231313
2.247616
2.266632
2.288531
2.313724
2.342873
2.376939
2.41724
2.465545
2.52419
2.596211
2.685495
2.796925
2.936509
3.111481
3.33035
3.602732
3.939176
4.350789
4.848831
5.44432
6.163944
7.05476
8.104501
9.19269
10.21209
11.15014
12.10102
13.27015
15.04347
18.39374
27.40755
84.28758
129.5384
48.48881
32.83743
25.2302
20.00965
15.9404
12.59351
9.861576
7.810155
6.251326
5.052046
4.213768
3.650801
3.255744
2.971174
2.765856
2.618394
2.513774
2.441193
2.392682
2.362239
2.345273
2.338673
2.338861
2.344305
2.353473
2.365292
2.379069
2.394425
2.411257
2.42971
2.450171
2.473286
2.500009
2.531676
2.570114
2.61777
2.677868
2.754575
2.853186
2.980279
3.14383
3.353289
3.619508
3.954519
4.371049
4.881823
5.498548
6.242937
7.163144
8.254966
9.38451
10.42613
11.36001
12.28535
13.41969
15.16639
18.50716
27.48969
84.35579
129.7058
47.96459
32.53585
25.14192
20.09061
16.10443
12.75378
9.949308
7.821918
6.219557
5.008025
4.190059
3.658656
3.293288
3.031713
2.844031
2.710657
2.617659
2.554856
2.514627
2.491154
2.479953
2.477609
2.481095
2.488727
2.499021
2.510969
2.523971
2.537724
2.55219
2.567561
2.584219
2.602785
2.624171
2.649681
2.681136
2.721033
2.77273
2.840645
2.930463
3.049351
3.206094
3.411181
3.676741
4.016226
4.443801
4.973251
5.616494
6.389555
7.339441
8.467122
9.625202
10.67321
11.58981
12.48426
13.58579
15.30147
18.62178
27.61658
84.41812
129.9033
47.43337
32.20969
25.02657
20.12893
16.20336
12.83396
9.967762
7.781991
6.140616
4.957341
4.181209
3.679579
3.340267
3.100596
2.929459
2.809004
2.726304
2.671742
2.637999
2.61942
2.611977
2.61139
2.615657
2.622974
2.631888
2.641755
2.652258
2.66332
2.675114
2.68791
2.702088
2.71825
2.737207
2.760142
2.788763
2.825505
2.873756
2.938105
3.024587
3.140922
3.296689
3.503423
3.774506
4.124738
4.5695
5.123256
5.797479
6.601296
7.578648
8.732624
9.90229
10.9356
11.81676
12.66771
13.72472
15.41335
18.7516
27.80894
84.53183
130.1872
46.96806
31.91863
24.92912
20.15413
16.26044
12.85881
9.942827
7.706074
6.055084
4.920621
4.192157
3.722781
3.405682
3.182585
3.02414
2.913599
2.838617
2.789842
2.760063
2.743635
2.736575
2.735466
2.737456
2.741082
2.745645
2.750986
2.757206
2.764621
2.773603
2.784586
2.798024
2.814396
2.834365
2.858873
2.889379
2.92811
2.978349
3.044739
3.133577
3.253084
3.413612
3.627707
3.909941
4.276313
4.74302
5.324576
6.031147
6.865635
7.866051
9.03155
10.19394
11.1972
12.02635
12.81655
13.83419
15.51777
18.8795
28.02506
84.68597
130.518
46.55937
31.65275
24.83388
20.17129
16.29536
12.86198
9.916197
7.643856
6.009993
4.924381
4.238066
3.795254
3.493851
3.280886
3.130489
3.026245
2.955936
2.910213
2.88166
2.864894
2.855939
2.850883
2.847175
2.844158
2.841932
2.840901
2.841587
2.844836
2.851308
2.86162
2.87624
2.895524
2.919873
2.949878
2.986606
3.031916
3.08883
3.161909
3.257626
3.384648
3.554046
3.779317
4.076072
4.461233
4.951377
5.560183
6.2955
7.156301
8.171322
9.33286
10.47306
11.4217
12.1805
12.92428
13.92129
15.59888
18.97439
28.19814
84.9076
130.9011
46.17398
31.42786
24.78764
20.19212
16.32619
12.87476
9.917316
7.638926
6.019819
4.975572
4.321306
3.897504
3.605
3.396707
3.250079
3.148811
3.080638
3.035927
3.00715
2.988645
2.975262
2.962636
2.950048
2.938126
2.927501
2.919063
2.913933
2.913219
2.917859
2.928736
2.946313
2.970779
3.002196
3.040693
3.086808
3.141884
3.20853
3.29109
3.396084
3.532572
3.712322
3.949725
4.261317
4.664632
5.176128
5.808135
6.565514
7.443
8.462256
9.608671
10.70503
11.5885
12.29374
13.00206
13.97875
15.65137
19.04698
28.36352
85.1467
131.3365
45.88769
31.26998
24.77427
20.25511
16.39659
12.93148
9.965133
7.6771
6.093672
5.079377
4.445089
4.02841
3.737066
3.529555
3.383684
3.283211
3.215839
3.171203
3.141036
3.118909
3.09816
3.074718
3.051036
3.028991
3.00926
2.993115
2.98212
2.977887
2.981431
2.993901
3.015739
3.046922
3.087108
3.135871
3.193092
3.25945
3.336992
3.429735
3.544157
3.689628
3.87855
4.126186
4.449902
4.867641
5.395351
6.04356
6.814027
7.697819
8.71249
9.834385
10.88151
11.70702
12.36497
13.04444
14.01009
15.68517
19.09757
28.48926
85.45301
131.794
45.63517
31.15304
24.81011
20.35304
16.51428
13.05423
10.09671
7.814341
6.236365
5.231949
4.604034
4.185446
3.888982
3.677708
3.529416
3.42776
3.360205
3.315214
3.283461
3.256666
3.22566
3.188407
3.151879
3.118903
3.089679
3.065754
3.04907
3.041661
3.044608
3.059266
3.086018
3.124597
3.174211
3.233811
3.302522
3.380235
3.468295
3.57024
3.692452
3.844592
4.039705
4.29389
4.625291
5.052092
5.589592
6.246541
7.021984
7.903972
8.908432
10.00475
11.00631
11.78378
12.40617
13.06694
14.02588
15.70077
19.12056
28.56277
85.74212
132.302
45.44789
31.11642
24.86703
20.50647
16.70087
13.25568
10.30383
8.016406
6.43254
5.424115
4.791144
4.362667
4.055337
3.83605
3.682316
3.577462
3.508624
3.463365
3.430589
3.397949
3.353835
3.300899
3.250498
3.206081
3.167168
3.135472
3.113235
3.102826
3.105348
3.122292
3.153949
3.199782
3.258538
3.328514
3.408031
3.496105
3.593294
3.702571
3.830166
3.986032
4.183918
4.44081
4.775557
5.206508
5.748295
6.408104
7.182935
8.059011
9.053255
10.12966
11.09534
11.83486
12.43142
13.07985
14.03546
15.71223
19.1403
28.62827
86.0664
132.8177
45.36699
31.16962
25.00845
20.72184
16.95578
13.5271
10.5726
8.268324
6.66749
5.645992
4.996111
4.549757
4.227644
3.997289
3.835689
3.725819
3.654428
3.608117
3.57386
3.535567
3.478587
3.40901
3.343855
3.287631
3.239002
3.199609
3.171904
3.15849
3.160434
3.179297
3.215251
3.267494
3.334331
3.413438
3.502338
3.599149
3.703555
3.817946
3.948435
4.105376
4.303251
4.559963
4.894956
5.326681
5.869188
6.528469
7.300188
8.169844
9.157671
10.22222
11.16051
11.87164
12.44998
13.08974
14.04197
15.71719
19.14481
28.65218
86.36182
133.3533
45.31709
31.19637
25.19535
20.98615
17.25699
13.83928
10.87338
8.544352
6.920731
5.881748
5.208705
4.73911
4.398947
4.155
3.98361
3.867105
3.791683
3.743343
3.707341
3.664094
3.595232
3.509162
3.429039
3.361076
3.303025
3.256193
3.223155
3.20666
3.207687
3.227814
3.267083
3.324446
3.397829
3.484366
3.580861
3.684559
3.794249
3.911748
4.043178
4.199451
4.39588
4.651162
4.985192
5.41643
5.958434
6.616418
7.385356
8.250749
9.237013
10.29621
11.21438
11.90449
12.46959
13.10287
14.05241
15.72706
19.1569
28.68534
86.66272
133.9099
45.37644
31.32446
25.43283
21.29498
17.59906
14.18388
11.19579
8.833643
7.181176
6.119811
5.420132
4.92435
4.563802
4.304377
4.121635
3.997169
3.916466
3.864879
3.826388
3.779011
3.700283
3.598681
3.503882
3.424695
3.357922
3.304214
3.266196
3.24667
3.246524
3.267267
3.308854
3.370013
3.448355
3.540583
3.642897
3.751739
3.865047
3.984135
4.115326
4.270237
4.465052
4.719049
5.052352
5.4833
6.02498
6.682056
7.449301
8.314576
9.304331
10.36081
11.26312
11.93685
12.49142
13.11873
14.0646
15.73659
19.16486
28.70347
86.94037
134.4564
45.3657
31.48621
25.7061
21.63056
17.95641
14.53213
11.51422
9.116748
7.434682
6.349386
5.622064
5.099153
4.717279
4.441458
4.246398
4.112926
4.025854
3.970159
3.92842
3.877116
3.790188
3.674688
3.566413
3.477107
3.402753
3.343121
3.300822
3.278449
3.277248
3.298348
3.341606
3.405566
3.4876
3.584081
3.690759
3.803401
3.919158
4.038934
4.169435
4.323109
4.516921
4.770472
5.10391
5.535327
6.077323
6.734041
7.500298
8.370656
9.368627
10.42028
11.30857
11.96965
12.51603
13.13835
14.08122
15.75186
19.1815
28.73426
87.21199
135.0621
45.45286
31.68493
25.99936
21.97531
18.31341
14.87175
11.8201
9.387269
7.67543
6.564875
5.809705
5.259796
4.856416
4.563817
4.355878
4.212613
4.118123
4.057297
4.011731
3.956296
3.862145
3.735082
3.61527
3.517494
3.43704
3.372738
3.327153
3.302722
3.300848
3.32239
3.367084
3.433302
3.518207
3.617929
3.727896
3.843404
3.961297
4.081652
4.211358
4.364213
4.557726
4.811659
5.146081
5.578752
6.1218
6.779005
7.545287
8.421193
9.42708
10.47431
11.35062
12.0013
12.54085
13.15875
14.09871
15.76774
19.19804
28.76377
87.46954
135.6606
45.61001
31.92478
26.31926
22.33115
18.66773
15.20038
12.11201
9.643282
7.900611
6.763161
5.980182
5.403981
4.979452
4.670123
4.449016
4.29533
4.192482
4.125476
4.075106
4.015138
3.914982
3.779055
3.650262
3.546013
3.461107
3.393539
3.345814
3.32031
3.318335
3.340638
3.38682
3.455095
3.542433
3.644761
3.75729