/*--------------------------------*- C++ -*----------------------------------*\
| =========                 |                                                 |
| \\      /  F ield         | OpenFOAM: The Open Source CFD Toolbox           |
|  \\    /   O peration     | Version:  2312                                  |
|   \\  /    A nd           | Website:  www.openfoam.com                      |
|    \\/     M anipulation  |                                                 |
\*---------------------------------------------------------------------------*/
FoamFile
{
    version     2.0;
    format      ascii;
    arch        "LSB;label=32;scalar=64";
    class       volScalarField;
    location    "500";
    object      qr;
}
// * * * * * * * * * * * * * * * * * * * * * * * * * * * * * * * * * * * * * //

dimensions      [1 0 -3 0 0 0 0];

internalField   uniform 0;

boundaryField
{
    plate
    {
        type            calculated;
        value           nonuniform List<scalar> 
200
(
-5642.253
-5671.929
-5675.618
-5683.046
-5696.221
-5706.256
-5707.959
-5701.02
-5688.295
-5674.125
-5663.011
-5657.924
-5659.106
-5664.227
-5669.524
-5671.182
-5666.618
-5655.484
-5639.954
-5623.895
-5611.176
-5603.988
-5602.098
-5603.335
-5604.872
-5604.5
-5601.351
-5595.921
-5589.584
-5583.885
-5579.864
-5577.637
-5576.385
-5574.782
-5571.661
-5566.592
-5560.085
-5553.33
-5547.625
-5543.801
-5541.889
-5541.177
-5540.548
-5538.955
-5535.807
-5531.142
-5525.559
-5519.956
-5515.208
-5511.894
-5510.168
-5509.791
-5510.291
-5511.158
-5512.004
-5512.628
-5512.99
-5513.139
-5513.119
-5512.932
-5512.532
-5511.869
-5510.93
-5509.775
-5508.532
-5507.362
-5506.416
-5505.783
-5505.479
-5505.444
-5505.578
-5505.775
-5505.956
-5506.089
-5506.189
-5506.302
-5506.485
-5506.786
-5507.231
-5507.824
-5508.544
-5509.356
-5510.216
-5511.079
-5511.899
-5512.631
-5513.233
-5513.666
-5513.901
-5513.915
-5513.698
-5513.251
-5512.589
-5511.738
-5510.731
-5509.611
-5508.423
-5507.213
-5506.018
-5504.875
-5503.807
-5502.835
-5501.964
-5501.19
-5500.497
-5499.86
-5499.247
-5498.619
-5497.939
-5497.175
-5496.301
-5495.301
-5494.172
-5492.922
-5491.571
-5490.147
-5488.686
-5487.228
-5485.816
-5484.493
-5483.301
-5482.269
-5481.416
-5480.739
-5480.211
-5479.787
-5479.41
-5479.031
-5478.625
-5478.201
-5477.808
-5477.521
-5477.419
-5477.553
-5477.92
-5478.463
-5479.073
-5479.63
-5480.035
-5480.238
-5480.244
-5480.09
-5479.809
-5479.4
-5478.82
-5478.021
-5477.014
-5475.934
-5475.071
-5474.823
-5475.582
-5477.578
-5480.739
-5484.643
-5488.604
-5491.883
-5493.974
-5494.856
-5495.096
-5495.7
-5497.715
-5501.693
-5507.251
-5512.99
-5516.911
-5517.24
-5513.289
-5505.924
-5497.312
-5490.03
-5485.969
-5485.56
-5487.705
-5490.368
-5491.538
-5490.156
-5486.714
-5483.304
-5482.945
-5488.168
-5499.253
-5513.07
-5523.631
-5524.625
-5512.781
-5489.896
-5462.068
-5436.664
-5419.129
-5411.472
-5412.564
-5418.881
-5424.128
-5418.476
-5391.454
-5340.253
-5274.7
-5209.02
-5138.32
-5019.465
)
;
    }
    riser
    {
        type            calculated;
        value           nonuniform List<scalar> 
200
(
2996.59
3007.127
3050.503
3235.545
3545.008
3829.685
3972.839
3986.936
3951.18
3920.872
3913.102
3939.098
4018.151
4160.034
4345.055
4527.573
4661.482
4726.011
4732.358
4709.862
4685.799
4673.404
4672.23
4675.414
4676.775
4674.495
4671.878
4676.393
4697.374
4742.426
4813.512
4904.641
5002.808
5092.192
5159.729
5199.398
5213.284
5209.357
5197.459
5185.618
5178.12
5175.627
5176.582
5178.87
5180.936
5182.15
5182.607
5182.715
5182.859
5183.234
5183.839
5184.551
5185.221
5185.739
5186.066
5186.233
5186.319
5186.41
5186.572
5186.83
5187.166
5187.536
5187.888
5188.187
5188.421
5188.601
5188.749
5188.887
5189.024
5189.156
5189.271
5189.356
5189.411
5189.451
5189.508
5189.626
5189.848
5190.211
5190.734
5191.411
5192.202
5193.031
5193.771
5194.245
5194.222
5193.427
5191.559
5188.326
5183.486
5176.888
5168.518
5158.527
5147.244
5135.177
5122.985
5111.433
5101.321
5093.41
5088.346
5086.586
5088.358
5093.635
5102.136
5113.355
5126.609
5141.105
5156.019
5170.572
5184.096
5196.08
5206.198
5214.31
5220.445
5224.768
5227.539
5229.065
5229.665
5229.636
5229.233
5228.659
5228.061
5227.536
5227.136
5226.874
5226.733
5226.676
5226.657
5226.63
5226.563
5226.441
5226.271
5226.072
5225.866
5225.666
5225.468
5225.249
5224.977
5224.631
5224.207
5223.731
5223.249
5222.808
5222.434
5222.114
5221.793
5221.397
5220.864
5220.187
5219.434
5218.748
5218.305
5218.242
5218.563
5219.079
5219.409
5219.129
5218.058
5216.597
5215.926
5217.756
5223.496
5232.964
5243.222
5248.343
5240.708
5213.726
5164.95
5098.017
5022.188
4949.4
4890.111
4849.932
4828.507
4820.857
4820.1
4820.203
4817.988
4814.209
4813.326
4820.883
4838.012
4855.392
4852.177
4804.562
4701.532
4556.835
4405.5
4284.439
4211.46
4180.539
4176.663
4190.978
4211.422
4195.796
4078.675
3841.679
3569.699
3384.735
3312.848
3277.388
)
;
    }
    topAndBottom
    {
        type            calculated;
        value           nonuniform List<scalar> 
120
(
963.3949
1233.266
1389.963
1496.455
1573.854
1635.664
1686.253
1729.861
1767.49
1795.407
1812.928
1822.721
1828.724
1830.161
1828.304
1826.038
1824.996
1825.877
1829.402
1836.335
1847.066
1861.719
1880.187
1902.018
1926.392
1952.235
1978.407
2003.821
2027.52
2048.757
2067.034
2082.088
2093.925
2102.895
2109.653
2114.978
2119.603
2124.157
2129.143
2134.919
2141.696
2149.636
2159.053
2170.52
2184.612
2201.382
2220.068
2239.13
2256.553
2270.296
2278.965
2282.539
2282.586
2281.308
2279.877
2277.025
2269.656
2256.932
2253.532
2383.735
2480.039
2883.733
2936.114
2941.864
2940.088
2937.513
2934.919
2932.344
2929.94
2927.869
2926.167
2924.721
2923.384
2922.082
2920.839
2919.725
2918.788
2918.038
2917.458
2917.018
2916.676
2916.373
2916.04
2915.622
2915.096
2914.435
2913.569
2912.403
2910.857
2908.89
2906.482
2903.66
2900.547
2897.372
2894.476
2892.391
2891.24
2890.264
2888.242
2884.844
2881.347
2878.834
2876.443
2873.03
2870.049
2870.037
2872.625
2875.124
2875.326
2873.211
2868.929
2862.52
2855.686
2851.615
2852.643
2857.839
2863.925
2869.484
2881.313
2920.283
)
;
    }
    frontAndBack
    {
        type            empty;
    }
}


// ************************************************************************* //
