/*--------------------------------*- C++ -*----------------------------------*\
| =========                 |                                                 |
| \\      /  F ield         | OpenFOAM: The Open Source CFD Toolbox           |
|  \\    /   O peration     | Version:  2312                                  |
|   \\  /    A nd           | Website:  www.openfoam.com                      |
|    \\/     M anipulation  |                                                 |
\*---------------------------------------------------------------------------*/
FoamFile
{
    version     2.0;
    format      ascii;
    arch        "LSB;label=32;scalar=64";
    class       volScalarField;
    location    "500";
    object      T;
}
// * * * * * * * * * * * * * * * * * * * * * * * * * * * * * * * * * * * * * //

dimensions      [0 0 0 1 0 0 0];

internalField   nonuniform List<scalar> 
12000
(
468.2092
447.3934
444.2807
443.7364
443.669
443.6802
443.7075
443.7397
443.7741
443.8099
443.8453
443.8781
443.9065
443.9295
443.947
443.9598
443.9687
443.9741
443.9752
443.9713
443.9621
443.9483
443.9311
443.9107
443.8853
443.8537
443.8162
443.7741
443.7278
443.6768
443.6221
443.5661
443.51
443.4525
443.3853
443.2868
443.1516
443.0121
442.9085
442.8246
442.6777
442.4376
442.2006
442.0625
441.9462
441.7288
441.431
441.1562
440.9334
440.6671
440.3105
439.9059
439.4864
439.0312
438.4824
437.7874
436.8968
435.7479
434.1507
431.208
467.1196
447.18
444.5098
444.0491
444.0327
444.1166
444.2138
444.2909
444.3527
444.4234
444.5205
444.6452
444.7768
444.8911
444.9808
445.0591
445.1461
445.2517
445.3672
445.4714
445.5497
445.6123
445.6867
445.7836
445.8804
445.9507
446.0018
446.0616
446.1337
446.1948
446.235
446.266
446.2942
446.3151
446.3268
446.3269
446.315
446.2918
446.2576
446.2102
446.1456
446.0623
445.9619
445.8412
445.7016
445.5416
445.3599
445.1565
444.9236
444.6576
444.3465
443.9869
443.5753
443.0795
442.4792
441.7194
440.6859
439.2363
437.027
433.0576
467.9651
447.9996
445.0757
444.5376
444.5197
444.6299
444.7686
444.8977
445.0095
445.116
445.2269
445.3468
445.4704
445.5909
445.7042
445.8115
445.9176
446.0268
446.1395
446.2529
446.3659
446.4789
446.5906
446.7003
446.8094
446.9165
447.0177
447.1107
447.197
447.2779
447.3519
447.4172
447.4744
447.524
447.5657
447.6002
447.6263
447.6426
447.6486
447.6431
447.6254
447.5942
447.5485
447.4843
447.4004
447.2961
447.1657
447.0072
446.8174
446.5943
446.3327
446.0281
445.6659
445.227
444.675
443.9623
442.9993
441.5319
439.0308
433.9983
469.8805
449.0903
445.8202
445.188
445.1705
445.3099
445.4878
445.6616
445.8159
445.9505
446.0709
446.1833
446.2877
446.3831
446.4703
446.5519
446.6308
446.7101
446.7927
446.8815
446.9803
447.0873
447.1978
447.3099
447.424
447.5383
447.6488
447.7528
447.8502
447.9415
448.0255
448.1011
448.17
448.2321
448.2858
448.3322
448.3706
448.4005
448.4214
448.4324
448.4324
448.4205
448.3956
448.3561
448.3004
448.2265
448.1302
448.0059
447.8487
447.6577
447.4277
447.1446
446.7988
446.3786
445.8569
445.1894
444.2596
442.8288
440.273
434.5813
471.6347
450.1355
446.659
445.9814
445.9869
446.1686
446.392
446.6127
446.8116
446.9806
447.1212
447.2352
447.3239
447.3888
447.434
447.465
447.4867
447.5042
447.523
447.549
447.5864
447.6383
447.7057
447.787
447.8795
447.9793
448.0815
448.1819
448.2776
448.3669
448.4491
448.5241
448.5941
448.6584
448.7154
448.7638
448.805
448.8386
448.8642
448.8814
448.8893
448.887
448.8732
448.8463
448.8042
448.7447
448.6652
448.5623
448.4325
448.2653
448.0481
447.7822
447.4617
447.0645
446.5621
445.9105
445.0095
443.6213
441.0796
434.9543
472.8248
451.1526
447.5802
446.8815
446.923
447.1675
447.4585
447.7434
447.9996
448.2167
448.3917
448.5219
448.6074
448.6501
448.655
448.6291
448.5804
448.5176
448.4498
448.3856
448.329
448.2858
448.2631
448.264
448.2891
448.3363
448.4005
448.4753
448.5545
448.6332
448.7079
448.7761
448.8382
448.8958
448.9487
448.9954
449.0354
449.0694
449.0971
449.1184
449.1326
449.1388
449.1355
449.1208
449.0925
449.0476
448.9829
448.8947
448.7787
448.629
448.4371
448.1946
447.8912
447.5101
447.0245
446.3868
445.5026
444.1479
441.6421
435.2404
473.9536
452.2482
448.5738
447.84
447.9153
448.2371
448.6205
448.9983
449.3399
449.629
449.8573
450.0197
450.1146
450.1441
450.1134
450.031
449.9072
449.7539
449.5835
449.4086
449.2407
449.0879
448.9567
448.8507
448.7741
448.7307
448.7196
448.7354
448.7703
448.8161
448.8665
448.9179
448.9671
449.0132
449.0569
449.0976
449.1345
449.1675
449.1968
449.2223
449.2434
449.2591
449.2678
449.2672
449.2546
449.2265
449.1792
449.1081
449.008
448.873
448.696
448.4684
448.1783
447.8087
447.3329
446.7046
445.8324
444.4981
442.0215
435.4351
475.2799
453.4549
449.6485
448.8668
448.9715
449.3745
449.8623
450.3446
450.7781
451.1416
451.4249
451.6227
451.733
451.7556
451.6972
451.5674
451.3771
451.1401
450.8739
450.5928
450.3106
450.04
449.7905
449.5677
449.3761
449.223
449.1131
449.0454
449.0118
449.0025
449.0091
449.0259
449.0487
449.0751
449.1036
449.1332
449.1632
449.193
449.2225
449.2517
449.2796
449.3052
449.3265
449.3406
449.3444
449.3337
449.3041
449.2504
449.1671
449.0476
448.8845
448.6687
448.3881
448.0258
447.5552
446.9307
446.0631
444.7396
442.285
435.5683
476.8615
454.7604
450.7976
449.9729
450.1042
450.5724
451.1324
451.676
452.1595
452.5676
452.89
453.1181
453.2459
453.2762
453.2143
453.0673
452.8445
452.5575
452.2264
451.8727
451.5083
451.1472
450.8013
450.4768
450.1778
449.9103
449.6823
449.5005
449.3641
449.2682
449.2056
449.168
449.1483
449.1415
449.1444
449.155
449.1719
449.1942
449.2212
449.252
449.2855
449.32
449.3529
449.381
449.4002
449.4059
449.3926
449.3549
449.2863
449.1801
449.0286
448.8223
448.5488
448.1907
447.7216
447.0962
446.2259
444.9014
442.4535
435.6319
478.7009
456.097
451.9785
451.1335
451.2756
451.756
452.3278
452.8925
453.397
453.8184
454.1469
454.3772
454.5131
454.5559
454.5069
454.3729
454.1644
453.8898
453.5602
453.1916
452.7979
452.3921
451.9857
451.5866
451.2009
450.8349
450.4973
450.1987
449.9439
449.7289
449.554
449.4212
449.3266
449.263
449.2235
449.2032
449.1987
449.2077
449.2281
449.2573
449.2932
449.3339
449.3762
449.4158
449.448
449.4671
449.4673
449.4421
449.385
449.2888
449.1455
448.9453
448.6756
448.3186
447.8471
447.2154
446.3358
445.0012
442.5484
435.6464
480.6858
457.462
453.2011
452.3294
452.4401
452.8862
453.4404
453.9917
454.4777
454.8786
455.1906
455.4118
455.5349
455.5519
455.4732
455.3193
455.1063
454.8465
454.5475
454.2159
453.8589
453.4801
453.0822
452.6698
452.2481
451.825
451.415
451.0315
450.6825
450.3708
450.0901
449.844
449.6434
449.4909
449.3824
449.3107
449.2701
449.2558
449.263
449.2875
449.3235
449.3674
449.4155
449.4631
449.5044
449.5328
449.5418
449.5248
449.4746
449.3841
449.2449
449.0471
448.7776
448.418
447.9403
447.2975
446.4009
445.0446
442.5728
435.6099
482.7786
458.9108
454.4738
453.5178
453.5496
453.9291
454.4245
454.9245
455.3745
455.7437
456.02
456.1836
456.2043
456.0948
455.8888
455.6219
455.333
455.046
454.7686
454.4941
454.2155
453.9275
453.6224
453.2933
452.9346
452.5462
452.1364
451.7233
451.3262
450.9651
450.6422
450.34
450.058
449.8159
449.6262
449.49
449.4012
449.3533
449.3404
449.3544
449.3871
449.4311
449.4812
449.5326
449.5782
449.6111
449.6243
449.6108
449.5638
449.4755
449.3377
449.14
448.8686
448.5043
448.0178
447.361
446.4431
445.0576
442.5573
435.5471
484.98
460.4444
455.7476
454.6557
454.5708
454.8528
455.2863
455.7371
456.1324
456.4429
456.6262
456.6196
456.4284
456.1076
455.7232
455.3306
454.9618
454.6391
454.3711
454.1537
453.9664
453.789
453.604
453.3955
453.1492
452.8515
452.4949
452.0992
451.7078
451.3401
451.0053
450.7047
450.4178
450.14
449.8974
449.7082
449.5765
449.4972
449.4633
449.4659
449.4928
449.5334
449.5822
449.6327
449.6773
449.7086
449.7196
449.7034
449.653
449.5611
449.4188
449.2153
448.936
448.5602
448.0567
447.3752
446.4241
444.9994
442.4539
435.4008
487.2066
462.0463
457.0207
455.7293
455.5094
455.7126
456.0824
456.4619
456.7784
456.9642
456.9178
456.6341
456.2045
455.7019
455.1949
454.7367
454.3568
454.0623
453.8475
453.6966
453.5877
453.4975
453.4051
453.2897
453.1332
452.9139
452.615
452.2629
451.8979
451.5379
451.197
450.8894
450.6189
450.3653
450.1226
449.9183
449.7676
449.6714
449.6251
449.6198
449.6411
449.6764
449.7199
449.7642
449.8014
449.8246
449.8269
449.8019
449.7428
449.6421
449.4908
449.2773
448.9857
448.5932
448.0669
447.3552
446.3661
444.8953
442.3037
435.2275
489.3144
463.6638
458.2727
456.757
456.4221
456.5524
456.8404
457.1214
457.2823
457.1791
456.7923
456.2411
455.6049
454.9788
454.4361
454.0112
453.7067
453.5058
453.3837
453.3151
453.2769
453.2475
453.2081
453.1407
453.0296
452.8541
452.5929
452.2805
451.9535
451.6193
451.2968
451.0017
450.7462
450.5141
450.2912
450.0985
449.9538
449.8604
449.8147
449.8087
449.8259
449.8544
449.8884
449.9207
449.9443
449.9528
449.9404
449.9012
449.8287
449.7152
449.551
449.3233
449.0142
448.5989
448.0422
447.292
446.2575
444.7388
442.1032
434.9967
491.2761
465.2388
459.4786
457.773
457.3412
457.3871
457.5621
457.6563
457.4729
456.9642
456.2712
455.4991
454.7631
454.152
453.6977
453.3919
453.2062
453.1072
453.0644
453.0526
453.0515
453.0449
453.0194
452.962
452.8611
452.6999
452.4653
452.1917
451.9063
451.6144
451.3315
451.0723
450.8453
450.6355
450.4341
450.2629
450.1368
450.0584
450.0235
450.0215
450.0345
450.0534
450.0732
450.0881
450.0924
450.0813
450.0499
449.993
449.9041
449.775
449.5948
449.3494
449.018
448.5707
447.9714
447.1727
446.0902
444.531
441.8693
434.7598
493.0345
466.7222
460.6632
458.7807
458.2555
458.1858
458.1515
457.8685
457.2207
456.3711
455.476
454.6411
453.9658
453.476
453.1526
452.9596
452.8604
452.823
452.8208
452.8327
452.8418
452.8373
452.8092
452.7489
452.6503
452.5038
452.2996
452.0575
451.8125
451.5745
451.3423
451.1207
450.9154
450.7256
450.5568
450.4215
450.3258
450.2694
450.2469
450.2455
450.2492
450.2531
450.2534
450.246
450.2275
450.1943
450.1427
450.0679
449.9634
449.8186
449.6199
449.3503
448.987
448.4995
447.8493
446.9946
445.8703
444.2924
441.6253
434.5207
494.6266
468.0951
461.8186
459.7889
459.1284
458.8429
458.4199
457.6381
456.6361
455.6188
454.6843
453.9275
453.3726
452.9972
452.7636
452.6345
452.5787
452.569
452.5826
452.6013
452.613
452.608
452.5784
452.5192
452.428
452.3041
452.1434
451.9491
451.7431
451.5358
451.3377
451.1505
450.9783
450.824
450.6942
450.5951
450.5282
450.4896
450.4702
450.4578
450.4435
450.4262
450.4028
450.3716
450.3309
450.2779
450.2083
450.1159
449.9925
449.8273
449.6057
449.309
448.9126
448.3845
447.6866
446.7816
445.626
444.0491
441.3937
434.3076
496.0173
469.398
462.9516
460.7735
459.8829
459.22
458.3038
457.1408
455.9752
454.9297
454.0636
453.4094
452.9461
452.6396
452.4532
452.3526
452.3113
452.3079
452.3239
452.3461
452.3633
452.3652
452.3448
452.2983
452.225
452.1263
452.0023
451.8541
451.691
451.5232
451.3571
451.2047
451.0683
450.9507
450.8548
450.7814
450.7279
450.6882
450.6543
450.6199
450.583
450.5431
450.498
450.4471
450.3885
450.3192
450.2341
450.1262
449.9861
449.8012
449.5561
449.2307
448.7993
448.2302
447.4901
446.5534
445.39
443.8264
441.1908
434.1236
497.1395
470.5814
464.0383
461.6836
460.4424
459.2815
457.937
456.5915
455.3972
454.3969
453.6121
453.0401
452.639
452.368
452.1949
452.0948
452.0475
452.0361
452.0479
452.0702
452.0916
452.1027
452.0971
452.0709
452.0227
451.9534
451.8651
451.7597
451.6406
451.5144
451.387
451.2685
451.1615
451.0676
450.987
450.9185
450.8591
450.8051
450.7523
450.6987
450.6444
450.589
450.5307
450.468
450.3989
450.3194
450.2235
450.1034
449.9485
449.7454
449.477
449.122
448.6543
448.0454
447.2723
446.3232
445.1707
443.6296
441.0179
433.9744
498.2316
471.7651
465.1149
462.486
460.7956
459.1564
457.546
456.135
454.9575
454.0249
453.3192
452.7987
452.4228
452.158
451.9783
451.8639
451.7998
451.7733
451.7722
451.7852
451.8029
451.8171
451.8217
451.8124
451.7868
451.7445
451.6863
451.6142
451.5319
451.4429
451.3511
451.2608
451.1746
451.0939
451.0192
450.9499
450.8848
450.8224
450.7614
450.7011
450.6407
450.5795
450.5164
450.4497
450.3761
450.2909
450.1875
450.0574
449.889
449.6675
449.3745
448.9879
448.4834
447.8403
447.0499
446.1104
444.9842
443.4701
440.8822
433.8618
499.4268
473.0243
466.183
463.1549
460.9736
458.9702
457.2247
455.8134
454.6865
453.8073
453.1409
452.6423
452.2723
452.0014
451.8076
451.6749
451.59
451.5416
451.5198
451.5155
451.5207
451.5286
451.5334
451.5311
451.5188
451.4951
451.4598
451.4135
451.358
451.2951
451.228
451.1594
451.091
451.0238
450.9586
450.8955
450.8344
450.775
450.7169
450.6594
450.6015
450.5421
450.4796
450.4117
450.3356
450.246
450.1359
449.996
449.8138
449.573
449.2538
448.8347
448.2967
447.6316
446.8428
445.9285
444.8337
443.3443
440.7784
433.7831
500.7318
474.3788
467.2307
463.7085
461.0604
458.8011
457.0133
455.628
454.5369
453.691
453.0452
452.5541
452.1813
451.8997
451.6898
451.5369
451.4295
451.3579
451.3136
451.2889
451.2771
451.2725
451.27
451.2658
451.2571
451.242
451.2196
451.1897
451.1528
451.1098
451.0623
451.0122
450.9607
450.9087
450.8571
450.8061
450.7558
450.7062
450.6567
450.6066
450.5546
450.4991
450.4381
450.3689
450.2883
450.1925
450.0747
449.9244
449.7279
449.467
449.121
448.6715
448.1092
447.4381
446.6665
445.7849
444.7211
443.2532
440.7079
433.739
502.0796
475.7827
468.2246
464.1747
461.1297
458.7087
456.8995
455.5312
454.4647
453.639
453.0038
452.5144
452.1361
451.8437
451.619
451.4485
451.3217
451.2298
451.1654
451.1219
451.0934
451.075
451.0624
451.0521
451.0416
451.0288
451.0125
450.9922
450.9676
450.939
450.9069
450.8724
450.8364
450.7994
450.7619
450.724
450.6856
450.6463
450.6055
450.5621
450.5147
450.4615
450.4001
450.3278
450.2411
450.1357
450.0062
449.8439
449.6334
449.3531
448.9825
448.5099
447.937
447.2746
446.5284
445.6788
444.6417
443.1914
440.6635
433.7202
503.3525
477.1575
469.1278
464.5679
461.212
458.6734
456.8407
455.486
454.4394
453.6273
452.9982
452.5084
452.125
451.8238
451.5876
451.4036
451.2619
451.1546
451.0747
451.0164
450.9744
450.9445
450.9228
450.9062
450.8924
450.8794
450.8658
450.851
450.8342
450.8154
450.7946
450.772
450.7479
450.7225
450.696
450.668
450.6383
450.6062
450.5708
450.531
450.4851
450.4312
450.3669
450.2892
450.1945
450.0782
449.9347
449.7573
449.5325
449.237
448.849
448.3641
447.7935
447.1493
446.4295
445.6067
444.5899
443.1533
440.6425
433.7322
504.5602
478.4662
469.9514
464.9291
461.3113
458.6722
456.818
455.4731
454.4421
453.6402
453.0154
452.5253
452.138
451.8306
451.5862
451.3927
451.2405
451.1222
451.0314
450.9627
450.9112
450.873
450.8446
450.8233
450.8066
450.7928
450.7806
450.7688
450.7568
450.744
450.7302
450.7152
450.6987
450.6806
450.6606
450.6383
450.6131
450.5842
450.5505
450.5107
450.4632
450.406
450.3365
450.2516
450.1476
450.02
449.8635
449.6721
449.4343
449.1266
448.7283
448.2435
447.6852
447.0607
446.3628
445.5598
444.5578
443.1323
440.6363
433.7567
505.7356
479.6934
470.7001
465.2715
461.4319
458.6987
456.8126
455.473
454.4575
453.6654
453.0451
452.5556
452.1662
451.8548
451.605
451.4051
451.2459
451.1202
451.022
450.9462
450.8883
450.8446
450.8119
450.7872
450.7686
450.7541
450.7423
450.7321
450.7225
450.713
450.7029
450.6917
450.679
450.6643
450.647
450.6266
450.6024
450.5734
450.5385
450.4963
450.445
450.3826
450.3065
450.2135
450.1001
449.9618
449.7943
449.5926
449.3452
449.0295
448.6296
448.1521
447.6084
447.0007
446.3185
445.5293
444.5387
443.1235
440.6427
433.8026
506.7958
480.7804
471.3538
465.5813
461.5573
458.7376
456.8109
455.4732
454.4742
453.6928
453.0784
452.5911
452.2015
451.888
451.635
451.4309
451.267
451.1363
451.0331
450.9525
450.8904
450.843
450.8072
450.7803
450.7602
450.7449
450.733
450.7233
450.7146
450.7063
450.6975
450.6875
450.6758
450.6616
450.6445
450.6236
450.5981
450.567
450.529
450.4828
450.4266
450.3581
450.2751
450.1744
450.0527
449.9065
449.7315
449.5235
449.271
448.9523
448.5547
448.0852
447.5533
446.9593
446.2907
445.5131
444.5309
443.1231
440.6545
433.8558
507.6451
481.6634
471.8859
465.8472
461.6808
458.7834
456.8086
455.4676
454.4843
453.7151
453.1083
452.6251
452.2371
451.9233
451.6687
451.4621
451.295
451.1609
451.0541
450.97
450.9047
450.8545
450.8163
450.7876
450.7661
450.7499
450.7373
450.7272
450.7183
450.7098
450.7007
450.6903
450.6779
450.6628
450.6443
450.6215
450.5936
450.5595
450.5179
450.4673
450.4061
450.3322
450.2431
450.1364
450.0089
449.8574
449.6784
449.4679
449.2139
448.8954
448.5023
448.0417
447.5209
446.938
446.2793
445.5094
444.5336
443.1343
440.6794
433.9153
508.3521
482.3868
472.3346
466.0911
461.81
458.8414
456.817
455.4517
454.4766
453.7255
453.1295
452.6527
452.2678
451.9551
451.7001
451.492
451.3229
451.1862
451.0767
450.9899
450.922
450.8693
450.8291
450.7985
450.7754
450.7578
450.7441
450.7329
450.7231
450.7135
450.7033
450.6917
450.6779
450.6612
450.6408
450.6159
450.5853
450.5482
450.5031
450.4488
450.3834
450.3051
450.2118
450.101
449.9702
449.8164
449.6363
449.4262
449.1733
448.8566
448.4688
448.0161
447.5039
446.9293
446.2782
445.5144
444.5439
443.1515
440.7076
433.9728
508.9383
482.9848
472.7218
466.3196
461.9471
458.9161
456.8365
455.4279
454.4535
453.7217
453.1387
452.6698
452.2894
451.9788
451.7243
451.5156
451.3451
451.2066
451.095
451.006
450.9357
450.8809
450.8386
450.8061
450.7812
450.762
450.7468
450.7341
450.7228
450.7119
450.7003
450.6873
450.6721
450.6538
450.6317
450.6047
450.5721
450.5325
450.4849
450.4278
450.3596
450.2786
450.1828
450.0702
449.9383
449.7843
449.6052
449.3972
449.1467
448.8332
448.4505
448.0042
447.4983
446.9293
446.2832
445.5236
444.5572
443.1707
440.7373
434.0315
509.3227
483.4258
473.0285
466.5225
462.0882
459.007
456.8738
455.4178
454.4259
453.7037
453.1351
452.6747
452.2992
451.9912
451.7376
451.5288
451.3575
451.2178
451.1046
451.0138
450.9417
450.885
450.8408
450.8065
450.7798
450.7589
450.7421
450.7279
450.7152
450.703
450.6902
450.676
450.6596
450.6402
450.6168
450.5887
450.5547
450.5138
450.4647
450.4062
450.3367
450.2547
450.1583
450.0456
449.9143
449.7618
449.5849
449.3799
449.1328
448.8231
448.4452
448.0039
447.5024
446.9373
446.2947
445.5384
444.5753
443.1937
440.7694
434.0872
509.6483
483.7947
473.3102
466.7356
462.2542
459.1281
456.9433
455.4344
454.4032
453.6762
453.1183
452.6654
452.2944
451.9888
451.7364
451.528
451.3565
451.2162
451.1022
451.0104
450.9371
450.8791
450.8335
450.7977
450.7697
450.7474
450.7293
450.7139
450.7002
450.6869
450.6733
450.6585
450.6415
450.6216
450.5978
450.5693
450.5351
450.4939
450.4448
450.3863
450.317
450.2354
450.1399
450.0285
449.8991
449.749
449.575
449.3735
449.1302
448.8246
448.4509
448.0131
447.5144
446.9513
446.3106
445.5561
444.5949
443.2163
440.7997
434.1402
510.0395
484.1919
473.6277
466.9846
462.4527
459.2802
457.0419
455.4743
454.3938
453.6477
453.091
452.6423
452.2738
451.9696
451.7181
451.5103
451.3392
451.1993
451.0855
450.9938
450.9203
450.8619
450.8158
450.7794
450.7506
450.7276
450.7088
450.6928
450.6786
450.665
450.6512
450.6362
450.6194
450.5997
450.5764
450.5485
450.5151
450.4749
450.4268
450.3696
450.3018
450.222
450.1285
450.0195
449.8927
449.7454
449.5747
449.3767
449.1375
448.8362
448.4661
448.0306
447.533
446.9705
446.3303
445.5762
444.6153
443.2387
440.829
434.189
510.3877
484.5472
473.9213
467.2257
462.6551
459.4452
457.1609
455.5386
454.4052
453.6211
453.0517
452.6031
452.2349
451.9313
451.6806
451.474
451.3045
451.1662
451.054
450.9636
450.8913
450.8338
450.7882
450.7522
450.7236
450.7006
450.6819
450.666
450.6518
450.6385
450.6251
450.6107
450.5947
450.576
450.554
450.5275
450.4957
450.4575
450.4116
450.3567
450.2916
450.2145
450.1239
450.0179
449.8942
449.7502
449.5829
449.3887
449.1537
448.8563
448.4889
448.0544
447.5564
446.9929
446.3518
445.5966
444.6344
443.2584
440.8546
434.2328
510.7055
484.8264
474.1571
467.4404
462.8494
459.6125
457.2886
455.6141
454.4244
453.5943
453.0045
452.5499
452.1789
451.8749
451.6254
451.421
451.2543
451.119
451.0098
450.9222
450.8523
450.7968
450.7528
450.718
450.6903
450.6681
450.65
450.6347
450.6212
450.6086
450.5961
450.5828
450.568
450.5509
450.5307
450.5064
450.477
450.4414
450.3985
450.3468
450.285
450.2115
450.1246
450.0221
449.902
449.7617
449.5981
449.4077
449.1766
448.883
448.5177
448.0827
447.5823
447.0161
446.3727
445.6149
444.6503
443.2741
440.8766
434.2712
511.0088
485.0278
474.3271
467.6149
463.0193
459.7645
457.4071
455.6836
454.4374
453.5591
452.9452
452.4821
452.1081
451.8043
451.5573
451.3566
451.1942
451.0633
450.9583
450.8744
450.8077
450.7547
450.7127
450.6795
450.653
450.6319
450.6146
450.6001
450.5875
450.5758
450.5644
450.5524
450.5392
450.524
450.506
450.4842
450.4576
450.4253
450.3859
450.338
450.2803
450.211
450.1283
450.0301
449.9143
449.778
449.6184
449.4318
449.2046
448.9138
448.5486
448.1113
447.6077
447.0376
446.3901
445.6285
444.6606
443.2843
440.8934
434.3042
511.2869
485.1468
474.4263
467.74
463.1542
459.8892
457.5032
455.7355
454.4381
453.5151
452.873
452.4006
452.0277
451.7276
451.4855
451.2902
451.1331
451.0071
450.9064
450.8261
450.7622
450.7115
450.6712
450.6392
450.6138
450.5934
450.5767
450.5629
450.551
450.5402
450.5298
450.5192
450.5077
450.4944
450.4787
450.4597
450.4363
450.4074
450.3719
450.3284
450.2752
450.2107
450.1328
450.0396
449.9286
449.797
449.6417
449.4589
449.2355
448.9478
448.5816
448.1392
447.6283
447.0517
446.4004
445.6349
444.6634
443.288
440.9052
434.3322
511.5043
485.1653
474.4458
467.8078
463.2447
459.976
457.5649
455.7578
454.4169
453.4571
452.7918
452.3155
451.9489
451.6558
451.4206
451.2314
451.0795
450.9576
450.8601
450.7822
450.7201
450.6705
450.631
450.5994
450.5741
450.5538
450.5374
450.5238
450.5124
450.5023
450.4929
450.4835
450.4734
450.4621
450.4486
450.4322
450.4119
450.3867
450.3551
450.3159
450.2675
450.2081
450.1357
450.0478
449.9421
449.8153
449.6641
449.4843
449.264
448.9792
448.6118
448.1634
447.6435
447.0577
446.3994
445.6298
444.6567
443.2846
440.9116
434.356
511.5675
485.0659
474.3861
467.8188
463.2903
460.0224
457.589
455.7493
454.3769
453.3933
452.714
452.2408
451.8845
451.6003
451.3721
451.1882
451.0398
450.9202
450.824
450.7465
450.6843
450.6343
450.5942
450.5619
450.5359
450.515
450.4982
450.4845
450.4731
450.4633
450.4545
450.446
450.4372
450.4275
450.416
450.4021
450.3847
450.3627
450.3351
450.3003
450.2566
450.2023
450.1351
450.0526
449.9518
449.8295
449.6817
449.5039
449.2852
449.0014
448.6306
448.1745
447.6452
447.051
446.3869
445.6142
444.6416
443.275
440.9136
434.3774
511.4481
484.8802
474.281
467.7954
463.3041
460.0359
457.5818
455.7185
454.331
453.3416
452.6608
452.1897
451.8424
451.5685
451.3465
451.1658
451.0186
450.8987
450.8011
450.7219
450.6577
450.6056
450.5634
450.5293
450.5018
450.4796
450.4617
450.4472
450.4353
450.4254
450.4168
450.4089
450.4009
450.3924
450.3826
450.3707
450.3557
450.3367
450.3124
450.2814
450.242
450.1922
450.1297
450.0517
449.9552
449.8363
449.6907
449.5134
449.2944
449.0095
448.6332
448.1679
447.6282
447.0256
446.3574
445.5856
444.6187
443.2622
440.9146
434.398
511.22
484.6662
474.1692
467.7617
463.3003
460.0272
457.5552
455.6798
454.2939
453.3142
452.6415
452.1747
451.8343
451.5677
451.3492
451.1687
451.0194
450.8962
450.7947
450.7114
450.6431
450.5873
450.5418
450.5047
450.4747
450.4504
450.4308
450.415
450.4022
450.3916
450.3827
450.3748
450.3673
450.3595
450.3507
450.3401
450.327
450.3102
450.2884
450.2604
450.2241
450.1777
450.1187
450.0439
449.9501
449.833
449.6877
449.5086
449.2869
448.9985
448.6152
448.1404
447.5916
446.9829
446.313
445.5456
444.589
443.246
440.914
434.4185
510.9438
484.4553
474.0689
467.73
463.2879
460.0073
457.5241
455.6503
454.2808
453.3218
452.6648
452.2062
451.8689
451.6041
451.3851
451.2008
451.0459
450.9162
450.8081
450.7183
450.6439
450.5827
450.5324
450.4912
450.4577
450.4304
450.4084
450.3906
450.3762
450.3645
450.3548
450.3464
450.3387
450.3309
450.3225
450.3126
450.3004
450.2848
450.2645
450.2381
450.2038
450.1592
450.1019
450.0285
449.9352
449.8175
449.67
449.4867
449.2599
448.9661
448.5754
448.0926
447.5383
446.9281
446.2605
445.5016
444.5592
443.2308
440.9133
434.44
510.6597
484.2659
473.9881
467.7072
463.2778
459.9919
457.5082
455.6495
454.3065
453.3739
452.7356
452.2868
451.952
451.6844
451.4591
451.2661
451.1016
450.962
450.8443
450.7454
450.6629
450.5942
450.5374
450.4906
450.4524
450.4212
450.3959
450.3755
450.359
450.3456
450.3345
450.3251
450.3166
450.3083
450.2996
450.2896
450.2774
450.2619
450.2419
450.2158
450.1817
450.1372
450.0795
450.0052
449.9101
449.7893
449.6371
449.4473
449.2132
448.9125
448.5158
448.0287
447.4734
446.8666
446.2079
445.4624
444.5347
443.2202
440.916
434.4686
510.3867
484.1047
473.9295
467.6989
463.282
459.9989
457.5276
455.6952
454.3842
453.4793
452.8594
452.4193
452.085
451.8098
451.5723
451.3661
451.1881
451.0354
450.9052
450.7949
450.7018
450.6231
450.5565
450.5021
450.458
450.4221
450.3929
450.3692
450.35
450.3344
450.3216
450.3108
450.3011
450.2918
450.2822
450.2714
450.2584
450.2421
450.2212
450.194
450.1586
450.1123
450.0523
449.9748
449.8755
449.7492
449.5902
449.3925
449.1501
448.8427
448.4438
447.9576
447.4071
446.8107
446.1659
445.4345
444.5207
443.2194
440.927
434.5032
510.1403
483.9824
473.9034
467.7177
463.3167
460.0473
457.6001
455.8006
454.5223
453.6425
453.0381
452.6038
452.2648
451.9764
451.722
451.4988
451.3043
451.136
450.9912
450.8675
450.7603
450.6661
450.5864
450.5226
450.4719
450.4306
450.3969
450.3696
450.3475
450.3295
450.3147
450.3021
450.291
450.2804
450.2695
450.2574
450.243
450.2251
450.2024
450.173
450.1349
450.0854
450.0214
449.9389
449.8336
449.7002
449.5333
449.3279
449.0794
448.7696
448.3724
447.8915
447.3519
446.7694
446.1381
445.4199
444.5186
443.2283
440.9454
434.5424
509.9382
483.9096
473.9203
467.7786
463.3997
460.1532
457.7375
455.9727
454.7233
453.8623
453.2672
452.8331
452.4824
452.1753
451.9011
451.6583
451.4453
451.2602
451.0991
450.957
450.8298
450.7167
450.622
450.5482
450.4903
450.4433
450.405
450.3739
450.3488
450.3284
450.3116
450.2974
450.2848
450.2728
450.2604
450.2467
450.2306
450.2106
450.1854
450.1531
450.1115
450.0578
449.9887
449.9003
449.7884
449.6483
449.4755
449.2655
449.0144
448.705
448.3119
447.8397
447.3127
446.744
446.1259
445.4191
444.5275
443.2457
440.9711
434.5857
509.7764
483.8867
473.983
467.8866
463.5374
460.3219
457.9411
456.2079
454.9802
454.1296
453.5351
453.093
452.7245
452.3942
452.097
451.8323
451.5992
451.3962
451.2169
451.0538
450.9037
450.769
450.6583
450.5743
450.5093
450.4566
450.4139
450.3795
450.3516
450.3291
450.3105
450.2948
450.2808
450.2675
450.2537
450.2385
450.2204
450.1983
450.1704
450.1349
450.0894
450.0314
449.9575
449.864
449.747
449.6022
449.4258
449.2139
448.9634
448.6567
448.2692
447.8066
447.2915
446.7351
446.1282
445.4305
444.546
443.2709
441.0033
434.6311
509.6768
483.9237
474.1017
468.0521
463.7375
460.5559
458.2072
456.4971
455.2801
454.4293
453.8256
453.3664
452.9735
452.6158
452.2928
452.0044
451.7501
451.5287
451.3317
451.1476
450.973
450.8168
450.6907
450.597
450.5255
450.4679
450.4215
450.3843
450.3543
450.33
450.3101
450.2932
450.2782
450.2637
450.2488
450.232
450.2123
450.188
450.1577
450.1194
450.0708
450.0092
449.9316
449.8345
449.7143
449.5671
449.3896
449.1785
448.9309
448.6284
448.2462
447.7917
447.2863
446.7397
446.1415
445.4503
444.5706
443.3005
441.039
434.6771
509.6438
484.0187
474.2746
468.2726
463.9943
460.8452
458.5217
456.8235
455.6045
454.7422
454.1208
453.6349
453.2108
452.8226
452.4715
452.1582
451.8824
451.643
451.4296
451.2274
451.0324
450.8568
450.7164
450.6138
450.5369
450.4756
450.4265
450.3872
450.3558
450.3305
450.3097
450.2921
450.2763
450.261
450.2451
450.2273
450.2061
450.1802
450.148
450.1075
450.0566
449.9928
449.913
449.8141
449.6926
449.5452
449.3688
449.1603
448.9168
448.6184
448.24
447.7912
447.2928
446.7531
446.161
445.4744
444.5982
443.3323
441.0768
434.7226
509.6787
484.1731
474.502
468.5459
464.3019
461.1796
458.8704
457.1701
455.9352
455.0498
454.4022
453.8829
453.4223
453.0008
452.6206
452.2824
451.986
451.7299
451.503
451.2876
451.0772
450.8862
450.7337
450.6239
450.5429
450.4793
450.4285
450.3881
450.356
450.3301
450.3089
450.2909
450.2747
450.2591
450.2426
450.224
450.2019
450.1748
450.1412
450.0993
450.0472
449.9823
449.9018
449.8027
449.6816
449.5356
449.3615
449.1564
448.9171
448.622
448.2454
447.7999
447.3061
446.7709
446.183
445.4996
444.6262
443.364
441.1143
434.7665
509.7776
484.3885
474.7843
468.8691
464.6536
461.5475
459.2381
457.5205
456.2562
455.3372
454.6558
454.0983
453.5984
453.1429
452.734
452.3725
452.0575
451.7871
451.5499
451.326
451.1062
450.9044
450.7428
450.6275
450.544
450.4792
450.4278
450.3871
450.3548
450.3289
450.3077
450.2896
450.2734
450.2576
450.2409
450.2219
450.1992
450.1713
450.1369
450.0944
450.0419
449.977
449.8968
449.7985
449.6789
449.535
449.3637
449.162
448.9261
448.6328
448.2567
447.813
447.3219
446.7896
446.2045
445.5238
444.6529
443.3946
441.1508
434.8088
509.9284
484.6572
475.1131
469.2318
465.0357
461.9332
459.6086
457.8598
456.5554
455.5949
454.8746
454.2763
453.7368
453.2483
452.8128
452.4303
452.0995
451.8176
451.5736
451.3455
451.1207
450.9124
450.7449
450.6259
450.5412
450.4763
450.425
450.3845
450.3525
450.3269
450.306
450.2882
450.2721
450.2564
450.2397
450.2206
450.1975
450.1692
450.1344
450.0919
450.0396
449.9752
449.896
449.7991
449.6813
449.5397
449.3713
449.1729
448.9386
448.645
448.2691
447.8267
447.3374
446.8071
446.2243
445.5459
444.6778
443.4236
441.1858
434.8493
510.1398
484.9794
475.4865
469.6296
465.4409
462.3272
459.9724
458.1798
456.8268
455.8196
455.0573
454.4181
453.8408
453.3221
452.863
452.4626
452.1187
451.8276
451.5794
451.3503
451.1238
450.9126
450.7418
450.6209
450.5359
450.4714
450.4208
450.381
450.3496
450.3246
450.3041
450.2866
450.2708
450.2553
450.2387
450.2196
450.1965
450.1679
450.133
450.0908
450.0391
449.9755
449.8974
449.8019
449.6859
449.5464
449.3804
449.1846
448.9512
448.6565
448.2805
447.8391
447.3513
446.8227
446.2419
445.566
444.7009
443.4508
441.2191
434.8883
510.401
485.3435
475.8928
470.0505
465.8569
462.7184
460.3211
458.4756
457.0691
456.0134
455.2083
454.5296
453.9178
453.3723
452.8927
452.4773
452.1225
451.8241
451.5733
451.3451
451.1192
450.9076
450.7356
450.6139
450.5293
450.4658
450.416
450.3771
450.3465
450.322
450.3021
450.285