/*--------------------------------*- C++ -*----------------------------------*\
| =========                 |                                                 |
| \\      /  F ield         | OpenFOAM: The Open Source CFD Toolbox           |
|  \\    /   O peration     | Version:  2312                                  |
|   \\  /    A nd           | Website:  www.openfoam.com                      |
|    \\/     M anipulation  |                                                 |
\*---------------------------------------------------------------------------*/
FoamFile
{
    version     2.0;
    format      ascii;
    arch        "LSB;label=32;scalar=64";
    class       volScalarField;
    location    "4500";
    object      alphat;
}
// * * * * * * * * * * * * * * * * * * * * * * * * * * * * * * * * * * * * * //

dimensions      [1 -1 -1 0 0 0 0];

internalField   nonuniform List<scalar> 
12000
(
3.060631e-05
0.0001572384
0.0001765522
0.0001864131
0.0001809043
0.0001725288
0.0001813817
0.0002176777
0.0002270598
0.0001816338
0.0001559785
0.0001733724
0.0002268435
0.000225697
0.0001691318
0.0001470239
0.0001746747
0.000227449
0.0001960721
0.0001522798
0.0001552106
0.0001914718
0.0001944352
0.0001641183
0.0001570072
0.0001699567
0.0001742794
0.0001672887
0.0001662866
0.0001664373
0.000162745
0.0001601856
0.0001629297
0.0001708861
0.0001701111
0.0001583295
0.0001473131
0.0001490912
0.0001734558
0.0001951585
0.0001612284
0.0001276097
0.0001311211
0.0001776882
0.0002152567
0.0001530619
0.0001140239
0.0001203248
0.0002004397
0.0002431036
0.0001132195
9.996691e-05
0.0001457262
0.0001730084
0.0001152175
9.536311e-05
9.439183e-05
8.109629e-05
7.00395e-05
5.723369e-05
1.88944e-05
0.0001864861
0.0002134358
0.0002656006
0.0003003703
0.0003442951
0.0003942534
0.0004446122
0.0004942425
0.0005596861
0.0006439866
0.0007184577
0.0007627077
0.0008154773
0.0009077437
0.00101943
0.001088479
0.001112789
0.00117647
0.001295568
0.00139521
0.001426585
0.001465928
0.00156129
0.001658947
0.001710904
0.001750822
0.00180795
0.001860393
0.001901693
0.001946502
0.001979665
0.002000314
0.002007322
0.002018607
0.002036125
0.002051424
0.002041207
0.001998561
0.001951556
0.001809822
0.001926343
0.001880867
0.001776214
0.001679508
0.001313183
0.001554047
0.001449816
0.001304223
0.001087388
0.000874435
0.0009764328
0.0008281001
0.0007044313
0.0005866062
0.0004469459
0.0003073904
0.0001895051
9.73582e-05
5.277313e-05
2.713727e-05
0.0002477375
0.0003412521
0.0004167036
0.0005126189
0.0006258339
0.0007531679
0.0008875887
0.001026729
0.001173271
0.00132242
0.001469092
0.001605255
0.001741841
0.001884351
0.002023184
0.002145749
0.00225803
0.0023716
0.002484278
0.002584826
0.002672091
0.002756556
0.002838853
0.00291295
0.002976867
0.003034801
0.003087562
0.00313371
0.00317267
0.003208743
0.003236989
0.003260475
0.003278232
0.003291214
0.003298024
0.003298751
0.003293003
0.003281259
0.003262552
0.003236347
0.003200677
0.003158757
0.003109002
0.003047651
0.002933001
0.002855455
0.002689077
0.002410007
0.002209068
0.002237915
0.001942791
0.001697908
0.001403427
0.001190012
0.001109288
0.0007797696
0.0004355715
0.0001614229
5.226421e-05
2.815003e-05
0.0002753677
0.0004253447
0.0005504785
0.0007097728
0.0008904288
0.001084911
0.001288286
0.001498195
0.001713088
0.001926671
0.002130513
0.002259249
0.002505745
0.002672735
0.002830139
0.002975372
0.003109577
0.00323347
0.003347985
0.003453081
0.003549445
0.00363804
0.003719026
0.003792576
0.00385913
0.0039191
0.003971682
0.004018685
0.004059386
0.004092747
0.004119612
0.004140923
0.004155299
0.004161878
0.004160923
0.00415216
0.004135104
0.004109035
0.004073116
0.004026565
0.003968521
0.003898077
0.003813997
0.003715402
0.003602662
0.003472045
0.003322735
0.003153613
0.002962997
0.002595198
0.002125577
0.001981414
0.001763342
0.001665188
0.001324963
0.0009575326
0.0005801126
0.0002372448
5.290826e-05
2.836533e-05
0.0003055725
0.000512929
0.0006897802
0.0009046074
0.001141423
0.00139138
0.001647525
0.00190408
0.002154152
0.002397691
0.002630417
0.002851592
0.00305489
0.003238457
0.003405404
0.003558937
0.003701605
0.00383289
0.003953978
0.004066046
0.00416974
0.004265481
0.0043536
0.00443446
0.00450832
0.004575258
0.004633935
0.004687988
0.004733317
0.004771058
0.004801902
0.004825472
0.004841413
0.004849339
0.004848997
0.004840115
0.004822318
0.00479513
0.00475803
0.004710448
0.004651822
0.004581304
0.004497726
0.004400778
0.004286422
0.004157249
0.004008919
0.003840394
0.00352352
0.003021642
0.002945534
0.002776703
0.002475858
0.002120915
0.001705944
0.001236268
0.0007415276
0.0002923717
5.264976e-05
2.885491e-05
0.0003282214
0.0005886277
0.0008099971
0.001066107
0.001344139
0.001633906
0.001926208
0.002212919
0.002487621
0.002747204
0.002990477
0.003218563
0.003433442
0.003635108
0.003822446
0.003991483
0.004146368
0.004289109
0.004420997
0.004543035
0.004655981
0.004760408
0.004856753
0.004945326
0.00502629
0.005098695
0.005164773
0.005223195
0.005273242
0.005315331
0.005349089
0.005374525
0.005391064
0.005397964
0.005395178
0.00538228
0.005358894
0.005324433
0.005278306
0.005219886
0.00514846
0.005063212
0.004963178
0.004847005
0.004712841
0.004558035
0.004385914
0.004191527
0.003968804
0.003712411
0.00341962
0.003091593
0.002726342
0.002319423
0.001867089
0.001371551
0.0008469598
0.0003500998
5.281563e-05
2.968789e-05
0.0003350123
0.0006517294
0.0009127472
0.001199341
0.001504608
0.001817196
0.002127878
0.002430463
0.002720717
0.002996994
0.003259508
0.00350289
0.003728106
0.003936547
0.004128105
0.004306634
0.004472291
0.004626234
0.004769634
0.004903432
0.005028309
0.005144726
0.005252952
0.005353094
0.005445114
0.005527433
0.005603543
0.005670434
0.005728068
0.005776293
0.005814615
0.005843225
0.005861545
0.005869154
0.005865804
0.005850912
0.005824127
0.005785094
0.005733411
0.005668611
0.005590134
0.005497301
0.005389271
0.005264922
0.005123174
0.00496066
0.00477939
0.004572016
0.004334583
0.004064532
0.003758643
0.003412271
0.003020019
0.002577115
0.002080694
0.001532129
0.0009466844
0.0003904452
5.281554e-05
3.035731e-05
0.0003411437
0.0007015568
0.0009955867
0.001301455
0.001620582
0.001947309
0.002275007
0.002592881
0.002896305
0.003182602
0.003449254
0.003699621
0.003933076
0.004150303
0.004353652
0.004545183
0.004724998
0.004893626
0.00505193
0.005200667
0.005340361
0.00547131
0.005593626
0.00570729
0.005810077
0.005906171
0.005992501
0.006068462
0.006133716
0.006188377
0.006232078
0.006264786
0.006285722
0.006294362
0.006290295
0.006273118
0.006242476
0.006198013
0.006139344
0.006066036
0.00597758
0.005873377
0.005752655
0.005614298
0.005456994
0.005276372
0.005075068
0.004847176
0.004589717
0.004299556
0.003972439
0.0036041
0.003189863
0.002725335
0.002207227
0.001635995
0.001024202
0.0004327319
5.287545e-05
3.208588e-05
0.0003431671
0.0007347174
0.001057061
0.001377243
0.001710988
0.002047624
0.002378641
0.002700693
0.003009584
0.003302686
0.003579078
0.003839344
0.004084091
0.004314283
0.004531136
0.00473656
0.00493185
0.005117159
0.005292773
0.005458877
0.005615412
0.005762249
0.005899108
0.006025506
0.006139678
0.006246893
0.006343879
0.00643004
0.006504812
0.006567212
0.006616806
0.006653628
0.006676977
0.006686311
0.006681194
0.006661247
0.006626128
0.006575504
0.006509026
0.006426276
0.006326741
0.006210039
0.00607571
0.005923417
0.005751605
0.005555875
0.005339037
0.005096611
0.004825919
0.004522463
0.004180517
0.003796354
0.003363582
0.002876854
0.002332168
0.001730038
0.001084528
0.0004602792
5.28607e-05
3.176776e-05
0.0003560473
0.000760887
0.00110558
0.001440576
0.001777355
0.002115635
0.002449417
0.00277452
0.003087782
0.003387342
0.003672511
0.003943444
0.004200726
0.004445228
0.004677949
0.004899612
0.00511054
0.005310929
0.005499971
0.0056798
0.005850769
0.006012596
0.006165059
0.006307999
0.00643989
0.006560831
0.006669506
0.006765471
0.006848187
0.006917071
0.006971699
0.007011831
0.00703676
0.007045921
0.007038847
0.007015153
0.006974522
0.006916704
0.006841524
0.006748716
0.006636532
0.006505304
0.006354923
0.006184754
0.005994755
0.00578304
0.005549759
0.005290966
0.005003761
0.004684723
0.004330328
0.0039317
0.003483071
0.002980625
0.002420075
0.001801442
0.001137146
0.0004891564
5.286877e-05
3.11059e-05
0.0003515096
0.0007710983
0.001135535
0.001477841
0.001817953
0.002157357
0.002492643
0.002820324
0.003137785
0.003443491
0.003736868
0.004017982
0.004287216
0.004545027
0.004790932
0.005026209
0.0052518
0.005468598
0.005677598
0.005876735
0.006065604
0.006244103
0.006411891
0.006568446
0.006712829
0.006844941
0.006963714
0.007068463
0.007158533
0.007233305
0.007292313
0.007335131
0.007360974
0.007369246
0.007359445
0.007331144
0.007283967
0.007217573
0.007131639
0.007026038
0.006902293
0.006759368
0.006596477
0.006412955
0.006208008
0.005980122
0.005730151
0.005455862
0.005154704
0.004822548
0.004453682
0.004042895
0.00358373
0.003068136
0.002491942
0.001855473
0.001172312
0.0005065117
5.278579e-05
3.486321e-05
0.0003343755
0.0007691829
0.001157341
0.001510893
0.001853894
0.002192833
0.002527137
0.002854752
0.003173961
0.003483789
0.003783873
0.004074165
0.004354696
0.004624862
0.004885749
0.005136703
0.005378114
0.005610292
0.005833287
0.006046877
0.006250382
0.006443146
0.006624544
0.006793339
0.006949728
0.007092421
0.00722052
0.007333219
0.007429743
0.007509353
0.007571394
0.007615348
0.007640783
0.007647279
0.007634426
0.007601842
0.007549182
0.007476135
0.007382417
0.007267751
0.007131834
0.006974572
0.006795877
0.0065956
0.006373538
0.006128889
0.005862281
0.005573018
0.005259633
0.004918405
0.004542693
0.004124436
0.003656105
0.003131121
0.002545343
0.001898675
0.001203927
0.0005240378
5.277802e-05
3.47482e-05
0.0003304724
0.0007629974
0.001161244
0.00152214
0.001866796
0.002204563
0.002537563
0.002865399
0.003187134
0.003501824
0.003808492
0.004106111
0.00439322
0.004632083
0.004795055
0.004977009
0.005168966
0.005437566
0.005725468
0.006051865
0.00636184
0.006611522
0.006806023
0.006987014
0.007154104
0.007305844
0.007441377
0.007560068
0.007661262
0.007744336
0.007808744
0.007853939
0.007879273
0.007884196
0.00786822
0.007830928
0.007771976
0.007691088
0.007588064
0.007462772
0.007315144
0.007145164
0.006952768
0.006738025
0.006493405
0.006081586
0.005722151
0.005431211
0.00520433
0.004980454
0.004602509
0.00418112
0.00370837
0.003177619
0.002583999
0.001927806
0.001222834
0.0005335813
5.26712e-05
3.49521e-05
0.000321802
0.0007520594
0.001160673
0.001529159
0.00187658
0.002214316
0.002546467
0.002873729
0.003195457
0.003510504
0.003817437
0.004114137
0.004283661
0.004385891
0.004483985
0.004602747
0.004785481
0.005039022
0.005341412
0.005662476
0.005943537
0.00622174
0.006517073
0.006842974
0.007190097
0.007473876
0.007615135
0.007739087
0.007844707
0.007931216
0.007997897
0.008044057
0.008069037
0.008072246
0.008053183
0.008011443
0.007946725
0.007858829
0.007747639
0.0076131
0.007455276
0.007274511
0.006998256
0.006591302
0.006215643
0.005871971
0.005548303
0.005282985
0.00510562
0.004948849
0.004642058
0.004220565
0.003745885
0.003211473
0.002612978
0.001951072
0.001239508
0.0005426597
5.266164e-05
3.542686e-05
0.0003122803
0.0007370755
0.00115159
0.001528011
0.001879599
0.002218289
0.002549683
0.002875504
0.00319563
0.003509033
0.003813864
0.00405135
0.00416107
0.004238504
0.004360348
0.00453454
0.004727654
0.004920782
0.005147816
0.005404839
0.005715954
0.006029766
0.00634162
0.006652446
0.006961479
0.007267991
0.007570204
0.007841796
0.007979957
0.008069792
0.008138825
0.008186123
0.008210954
0.008212754
0.008191039
0.00814543
0.008075688
0.007981725
0.007863635
0.007676135
0.007401204
0.007096093
0.006768973
0.006416414
0.006037768
0.005673885
0.005373183
0.005144549
0.004975363
0.004840538
0.004667899
0.004247453
0.003771799
0.003234841
0.002632509
0.001965701
0.001248747
0.0005469667
5.257362e-05
3.592532e-05
0.0003037125
0.0007216126
0.001141035
0.001522783
0.001877715
0.002217147
0.002547463
0.002871251
0.003188902
0.003499439
0.003800752
0.003967723
0.004079246
0.004213668
0.004348914
0.004488972
0.004643063
0.004824845
0.005051653
0.005313747
0.005586285
0.005878613
0.006181847
0.006488876
0.006788243
0.007062292
0.007306593
0.007523962
0.007729562
0.007939613
0.008180512
0.008267481
0.008196449
0.008150796
0.008107476
0.008038728
0.007936558
0.00779936
0.007627588
0.007420276
0.007176164
0.006895612
0.00658139
0.006243945
0.005900208
0.005566811
0.005258794
0.005012625
0.004857304
0.004774539
0.004658173
0.00426467
0.003788939
0.003250707
0.002646373
0.001976691
0.001256346
0.0005505986
5.253393e-05
3.637138e-05
0.0002965149
0.0007058126
0.001126074
0.001512147
0.001870608
0.002211211
0.0025407
0.002862401
0.003177358
0.003485159
0.003784413
0.003991392
0.004116802
0.004217791
0.004326178
0.004454125
0.004618242
0.004827279
0.005047109
0.005289736
0.005545345
0.005822696
0.006106072
0.006388968
0.006663019
0.00691912
0.007150039
0.007353014
0.007537774
0.007733239
0.007987298
0.008089374
0.008013014
0.0079571
0.007898727
0.007829404
0.00773598
0.00761066
0.007448789
0.007247457
0.007007416
0.006733279
0.006430998
0.006108037
0.005777141
0.005457948
0.005173764
0.004946001
0.004786638
0.00469316
0.004591591
0.004276624
0.003802428
0.00326385
0.002657665
0.001985739
0.001262693
0.0005534762
5.246408e-05
3.673235e-05
0.0002901048
0.0006906029
0.001110089
0.001499941
0.001861027
0.002202481
0.002531096
0.002850703
0.003162878
0.003467639
0.003763892
0.00396706
0.004097268
0.004212244
0.004335581
0.004477077
0.004641875
0.004827018
0.005042331
0.005284843
0.005553717
0.005824187
0.006097973
0.006367984
0.00662516
0.006860491
0.007068409
0.007250384
0.007419513
0.007609733
0.007888847
0.008051836
0.007964845
0.007857742
0.007790287
0.007720219
0.00762641
0.007499345
0.007335427
0.007133873
0.006895925
0.006625074
0.006327195
0.006010919
0.005688185
0.005374789
0.005091022
0.004861605
0.004707961
0.004627151
0.00454955
0.004282266
0.003808535
0.003269244
0.002661877
0.001988478
0.001263864
0.0005537905
5.242199e-05
3.702015e-05
0.0002848229
0.0006768262
0.001093771
0.001484992
0.001847922
0.002190532
0.002518752
0.002836717
0.003146518
0.003448701
0.003742742
0.00397402
0.004116664
0.004235868
0.004359211
0.004500633
0.004666828
0.004859661
0.005081466
0.005324124
0.005584631
0.005848986
0.006117563
0.006380857
0.006629916
0.00685708
0.007058504
0.007237107
0.007404719
0.007581023
0.007786207
0.008018702
0.008028573
0.00786734
0.007769449
0.007684029
0.007582161
0.007449354
0.007279758
0.007072557
0.00683019
0.006557417
0.006260765
0.005948643
0.005632144
0.00532602
0.005048732
0.004822441
0.004667429
0.004585217
0.00451783
0.004286783
0.003813756
0.003274339
0.002666325
0.001991954
0.001266357
0.0005551313
5.237461e-05
3.725885e-05
0.0002806828
0.0006642834
0.001077687
0.001469419
0.00183432
0.002177365
0.002505089
0.002821676
0.003129568
0.003429817
0.003722537
0.003997351
0.00415526
0.004286103
0.004419858
0.004569035
0.004740163
0.00493611
0.005157233
0.00539716
0.005650253
0.00591492
0.006179835
0.006436318
0.006676507
0.006893709
0.007084936
0.007253751
0.007412344
0.007580544
0.007778728
0.008018645
0.008051616
0.007892502
0.007777938
0.00767327
0.007555924
0.007411565
0.007233108
0.007019141
0.006772218
0.006497448
0.006201591
0.005892826
0.005581293
0.005280302
0.005007025
0.00478351
0.004631125
0.004553763
0.004497732
0.004288472
0.003815723
0.003275896
0.002667195
0.001992318
0.001266423
0.0005549594
5.231656e-05
3.744717e-05
0.0002776979
0.0006537509
0.001062739
0.001453661
0.001819109
0.002162811
0.002490405
0.002806201
0.003112956
0.003412218
0.003704677
0.003989566
0.004214534
0.00436485
0.004508596
0.00466448
0.004840302
0.005038754
0.005257822
0.005496597
0.005748907
0.006009202
0.006267079
0.006515481
0.006746685
0.006954604
0.007136549
0.007295397
0.007441378
0.007592641
0.007773843
0.008016297
0.008076385
0.007927774
0.007797693
0.007673063
0.0075393
0.007382776
0.007195284
0.006974661
0.006723412
0.006446895
0.006151967
0.005846489
0.005539838
0.005244232
0.004975502
0.004754673
0.004602991
0.004526316
0.004476666
0.004289007
0.00381658
0.003276539
0.002667405
0.001992049
0.001266445
0.0005550634
5.227894e-05
3.762837e-05
0.0002759507
0.0006450731
0.001048981
0.001438435
0.001803963
0.002148143
0.002475676
0.002790987
0.003097027
0.003395607
0.003687653
0.003974364
0.004255679
0.004459794
0.004617184
0.004781615
0.004962272
0.005161869
0.005381162
0.005618718
0.005866752
0.006119685
0.006367997
0.00660738
0.006829188
0.007027481
0.007199702
0.00734811
0.007481002
0.007614471
0.007776439
0.008014164
0.008097034
0.007957291
0.007814436
0.007674691
0.007526715
0.007358358
0.007161833
0.006934871
0.006679856
0.006402102
0.006108333
0.005806013
0.005503804
0.005213031
0.004948623
0.00473113
0.004581932
0.00450805
0.004464216
0.004288812
0.003816421
0.003276033
0.002666516
0.001991058
0.001265352
0.000554379
5.221295e-05
3.779539e-05
0.000275304
0.0006381711
0.001036742
0.001423831
0.001788947
0.002133317
0.002461086
0.002776368
0.00308227
0.003380892
0.003673571
0.00396119
0.004244319
0.004524152
0.004749773
0.004922001
0.005105796
0.005309378
0.005529039
0.005760043
0.005998993
0.006242454
0.006487002
0.006718299
0.006929828
0.007117123
0.007278645
0.007417268
0.007541227
0.007663355
0.007797755
0.007951915
0.008105755
0.008045976
0.007836962
0.007675225
0.007516825
0.007339851
0.007135511
0.006902421
0.006643592
0.006364494
0.006071666
0.00577213
0.005473907
0.005187568
0.004927238
0.004712896
0.004565762
0.004493583
0.004453504
0.004288
0.003815477
0.003274657
0.002664667
0.001989163
0.001263898
0.0005538276
5.218802e-05
3.796553e-05
0.0002750012
0.0006329192
0.001026659
0.001411225
0.001775239
0.002119423
0.002447356
0.002762859
0.003069052
0.003368217
0.003661939
0.00395133
0.004237205
0.004520251
0.004800868
0.005079139
0.005279826
0.005474183
0.005687025
0.005913092
0.006151757
0.006391771
0.006624694
0.006843391
0.007043719
0.00722039
0.007371054
0.007497983
0.007608954
0.007716336
0.007832773
0.007962793
0.008105625
0.008065905
0.007864969
0.00769056
0.007516517
0.007326964
0.007113579
0.006874394
0.006612041
0.00633178
0.006039875
0.005742908
0.005448323
0.005166077
0.004909721
0.004698853
0.004554569
0.004484912
0.004447971
0.004287382
0.003814565
0.003273293
0.002662989
0.001987315
0.001262326
0.0005528719
5.212898e-05
3.807449e-05
0.0002763842
0.0006296662
0.001017961
0.001399273
0.001762343
0.002106452
0.002434715
0.002750732
0.003057605
0.003357724
0.003652838
0.003944206
0.004232735
0.004519073
0.004803637
0.005086638
0.005368141
0.005647487
0.00587729
0.0060906
0.006312393
0.006540491
0.006763814
0.006976145
0.007168021
0.007334441
0.007474219
0.00758935
0.007685942
0.007774004
0.007866298
0.007977765
0.008117891
0.008087833
0.007889105
0.007704244
0.007517448
0.007316753
0.007094879
0.006849908
0.0065843
0.00630307
0.006012135
0.005717613
0.005426418
0.005147995
0.004895443
0.004688014
0.00454657
0.004479148
0.004444314
0.004286719
0.003813365
0.003271389
0.002660617
0.001984889
0.001260466
0.0005521615
5.211802e-05
3.811679e-05
0.0002779986
0.0006271166
0.001010872
0.001389327
0.001751013
0.002094908
0.002423575
0.00274034
0.003048233
0.003349689
0.003646552
0.003940172
0.004231503
0.004521178
0.004809534
0.005096619
0.005382159
0.005665484
0.005945563
0.00622094
0.006489635
0.006709959
0.006913425
0.007110252
0.00729246
0.007451074
0.007581424
0.007684796
0.007767527
0.007839192
0.007911898
0.007999539
0.008119407
0.008094704
0.00790738
0.007716583
0.007518756
0.007307731
0.00707799
0.006827803
0.006559426
0.006277575
0.005987777
0.005695679
0.005407718
0.00513293
0.004884115
0.004680282
0.004542063
0.004477242
0.004444084
0.00428671
0.00381278
0.00327017
0.002658816
0.001982877
0.001258722
0.0005511366
5.207026e-05
3.923932e-05
0.000275436
0.0006245735
0.00100491
0.001380988
0.001741578
0.002085214
0.002414353
0.002732092
0.003041355
0.00334457
0.003643622
0.003939904
0.004234381
0.004527645
0.004819936
0.005111148
0.005400814
0.005688092
0.005971763
0.00625025
0.006521655
0.00678385
0.007034459
0.007258508
0.007425239
0.007568163
0.007688253
0.007782137
0.007852403
0.007907448
0.007958309
0.00802075
0.008119893
0.008107632
0.007928454
0.007723522
0.007516878
0.007298675
0.007062922
0.006808375
0.006537634
0.006255367
0.005966766
0.005677013
0.005392093
0.005120705
0.004875465
0.004675184
0.004540198
0.004477815
0.004445663
0.004287489
0.003812445
0.00326882
0.002656775
0.00198059
0.001256818
0.0005502094
5.207006e-05
4.07752e-05
0.0002784183
0.000616384
0.001001689
0.001374568
0.001733657
0.002077326
0.002407241
0.002726316
0.003037391
0.003342873
0.003644658
0.003944143
0.004242272
0.004539573
0.004836172
0.005131815
0.00542586
0.005717287
0.006004713
0.006286426
0.006560434
0.006824513
0.007076281
0.007313292
0.007533284
0.007700175
0.007808462
0.007887854
0.007945771
0.007988673
0.008024986
0.008060326
0.008092093
0.008101755
0.007968802
0.007735271
0.007516286
0.007291103
0.007050181
0.006791936
0.006519241
0.006236766
0.005949382
0.005661825
0.00537968
0.005111385
0.004869539
0.004672812
0.004541242
0.004481487
0.004449959
0.004288627
0.003812794
0.003268143
0.002655419
0.001978911
0.001255282
0.0005493372
5.203761e-05
4.134644e-05
0.0002819265
0.0006057207
0.001000245
0.001369913
0.001727775
0.002071461
0.002402451
0.002723325
0.003036777
0.003345162
0.003650348
0.003953704
0.004256117
0.00455802
0.004859408
0.005159865
0.005458568
0.005754318
0.006045561
0.006330445
0.006606867
0.006872543
0.007124993
0.007361892
0.007581179
0.007779947
0.007945732
0.008019009
0.008058912
0.008083471
0.008100153
0.008112667
0.00811718
0.008106123
0.007976493
0.007748199
0.007522969
0.007289627
0.007042155
0.006779656
0.006504852
0.006222068
0.005935771
0.005650262
0.00537071
0.005105154
0.004866446
0.004673078
0.004544795
0.004487492
0.004456054
0.004290476
0.003813492
0.00326808
0.002654295
0.001977219
0.001253659
0.0005484752
5.204479e-05
4.164712e-05
0.0002854359
0.0005964193
0.0009937164
0.001367188
0.001723911
0.002068143
0.002400465
0.002723586
0.003040013
0.003351995
0.003661326
0.003969295
0.004276687
0.0045838
0.00489047
0.005196094
0.005499659
0.005799776
0.006094726
0.006382522
0.00666097
0.006927581
0.00718024
0.00741648
0.007634011
0.007830506
0.008004078
0.008145623
0.00818547
0.008192365
0.008186461
0.008172379
0.008151744
0.008121747
0.007988061
0.007761479
0.007531098
0.007290979
0.007037623
0.006771152
0.006494454
0.006211509
0.005926192
0.005642263
0.005364578
0.005101223
0.004865386
0.004675436
0.004550681
0.004496034
0.004464515
0.004293565
0.003815204
0.003268443
0.002653857
0.001976342
0.001252699
0.0005477872
5.202046e-05
4.169871e-05
0.0002884332
0.0005880433
0.0009791718
0.001366839
0.001722321
0.002066947
0.002401351
0.002727452
0.003047634
0.003364038
0.003678348
0.003991731
0.004304823
0.004617752
0.004930159
0.005241239
0.005549778
0.005854201
0.00615264
0.006442917
0.006722585
0.006989732
0.007241795
0.007476612
0.007691676
0.007885092
0.008055047
0.008199982
0.008306673
0.008313692
0.008289128
0.008251624
0.008203492
0.008144793
0.008000353
0.007775955
0.007542011
0.007296092
0.007037322
0.006766946
0.006487975
0.006204096
0.005919208
0.005637098
0.005361978
0.005101432
0.004868166
0.004680928
0.004558993
0.004506523
0.004474562
0.004297587
0.003817757
0.003269674
0.002654071
0.001975595
0.001251573
0.0005470796
5.2031e-05
4.190543e-05
0.0002918217
0.0005809649
0.0009658576
0.001368151
0.001722862
0.002068602
0.002405523
0.002735261
0.003060013
0.003381707
0.003701853
0.00402144
0.004340915
0.004660193
0.004978697
0.005295404
0.005608904
0.00591731
0.006218421
0.006510452
0.006791241
0.007058169
0.007308935
0.007541551
0.00775351
0.007943164
0.008108877
0.008249273
0.008363255
0.008428421
0.00840159
0.008342819
0.008267894
0.008179226
0.008020443
0.007795404
0.007557157
0.007305608
0.007041637
0.006767749
0.006487902
0.006205123
0.005922184
0.005640332
0.005364343
0.005103364
0.004872607
0.004689171
0.004571686
0.00452179
0.004488553
0.004302596
0.003821099
0.003271522
0.00265473
0.001975491
0.001251068
0.0005466877
5.202941e-05
4.22131e-05
0.0002949136
0.0005748218
0.0009534114
0.001371652
0.001726235
0.002073557
0.002413572
0.002747733
0.00307777
0.003405603
0.003732473
0.004059107
0.004385697
0.004711879
0.005036734
0.00535887
0.005676462
0.005988243
0.006292207
0.006585765
0.006866651
0.007132563
0.007381331
0.007610765
0.007818976
0.008004279
0.008165231
0.008300653
0.00840963
0.008491512
0.008507223
0.008441865
0.008342702
0.008222075
0.008045576
0.007817113
0.007573682
0.007317558
0.007050528
0.006775143
0.006492924
0.006206805
0.005920347
0.005639609
0.005368291
0.005112541
0.00488397
0.004701615
0.004584071
0.004535145
0.004501334
0.004308392
0.003825218
0.00327409
0.002655916
0.001975726
0.001250763
0.0005462778
5.204192e-05
4.241553e-05
0.0002984806
0.0005699388
0.0009424981
0.001376154
0.001731384
0.002081169
0.002425273
0.002764999
0.003102019
0.003437091
0.003771428
0.004105457
0.004438908
0.00477131
0.005101939
0.005429373
0.00575199
0.006067303
0.006373204
0.00666744
0.006947747
0.007211917
0.007457933
0.007683698
0.007887559
0.008068012
0.008223808
0.008353953
0.008457711
0.00853459
0.00858432
0.008535434
0.008421251
0.008271369
0.008075872
0.007841998
0.007592639
0.007329965
0.007056129
0.006774377
0.006489896
0.006205955
0.005923963
0.005645648
0.005375132
0.005120183
0.004892189
0.004710577
0.004594874
0.004548192
0.004513509
0.004315038
0.003830123
0.003277373
0.002657804
0.00197652
0.001250835
0.0005461019
5.205822e-05
4.289679e-05
0.0003017009
0.0005663937
0.0009344836
0.001382651
0.001739581
0.00209265
0.002441495
0.002787041
0.003130435
0.003473081
0.003815395
0.004157513
0.004499187
0.00483944
0.005176741
0.005509528
0.005835907
0.006153739
0.006460818
0.006754926
0.007033882
0.007295595
0.007538141
0.007759696
0.007958747
0.008133987
0.008284358
0.008409049
0.008507488
0.008579327
0.008624414
0.008619209
0.008501882
0.008327554
0.008112058
0.007868422
0.007609242
0.007339637
0.007063307
0.006782277
0.006498878
0.00621482
0.005932251
0.005652238
0.005380457
0.005125177
0.004900538
0.00472382
0.004612379
0.004565129
0.004527184
0.004322553
0.003835748
0.003281257
0.002660183
0.001977766
0.0012511
0.0005460399
5.206536e-05
4.276437e-05
0.0003051778
0.0005633693
0.00092456
0.001388297
0.001749186
0.002106345
0.002461039
0.002813841
0.003165594
0.003516978
0.0038682
0.00421899
0.004568606
0.004915837
0.005259108
0.005596588
0.005926258
0.00624598
0.006553579
0.006846904
0.007123878
0.007382551
0.007621146
0.007838084
0.008032015
0.008201829
0.008346655
0.008465852
0.008559003
0.008625888
0.008666458
0.008680813
0.008577154
0.00838907
0.00815257
0.007896921
0.007630995
0.007358626
0.0070804
0.006797776
0.006511842
0.00622602
0.005942372
0.005663386
0.005392752
0.005138275
0.004913362
0.004736692
0.00462667
0.004583539
0.004546472
0.00433089
0.003842086
0.003285781
0.002663082
0.001979235
0.001251791
0.0005462349
5.208095e-05
4.39455e-05
0.0003081042
0.0005625853
0.0009198873
0.001388166
0.001763063
0.002125472
0.002487102
0.002848071
0.003208762
0.003569366
0.003929671
0.004289022
0.004646335
0.00500016
0.005348766
0.005690215
0.006022442
0.006343319
0.006650724
0.0069426
0.007216983
0.007472114
0.007706379
0.007918396
0.008107009
0.008271295
0.008410559
0.00852432
0.008612295
0.008674373
0.008710591
0.008721103
0.008651308
0.008458587
0.008203138
0.007934725
0.007660917
0.007382524
0.007100125
0.006814714
0.006528205
0.006242135
0.005958084
0.00567818
0.00540675
0.005152117
0.004928035
0.004753024
0.004644578
0.004601249
0.004561346
0.004339808
0.003848956
0.003290747
0.002666357
0.001981102
0.001252533
0.0005463858
5.21071e-05
4.302587e-05
0.0003152359
0.0005624373
0.0009150527
0.001384065
0.001778744
0.002146932
0.002516168
0.00288601
0.00325628
0.00362663
0.003996377
0.004364466
0.004729497
0.005089793
0.005443471
0.005788515
0.006122849
0.006444392
0.006751115
0.007040976
0.007312391
0.007563645
0.007793334
0.008000273
0.008183498
0.008342267
0.008476049
0.008584506
0.008667476
0.008724942
0.008757008
0.008763869
0.008724397
0.008528055
0.00825563
0.007974567
0.007692733
0.007409822
0.0071246
0.006837122
0.006548651
0.006260876
0.00597549
0.00569465
0.005422621
0.005167665
0.004943679
0.004769485
0.004662729
0.004621143
0.004580086
0.004349634
0.003856642
0.003296439
0.002670225
0.001983367
0.001253539
0.0005467217
5.21297e-05
4.266078e-05
0.0003184885
0.0005623535
0.0009099149
0.001379618
0.001796712
0.002171685
0.002549382
0.002928795
0.003309147
0.00368954
0.004068822
0.004445563
0.004818081
0.005184507
0.005542844
0.005891029
0.006226993
0.006548715
0.006854273
0.007141777
0.007409838
0.007656933
0.007881855
0.008083614
0.008261435
0.008414746
0.008543165
0.00864648
0.008724626
0.008777661
0.008805739
0.008809084
0.008784788
0.008586125
0.008301606
0.008011639
0.007723807
0.007436909
0.007148936
0.006859506
0.006569596
0.006280643
0.005994137
0.005712202
0.005439237
0.005183722
0.004959769
0.00478629
0.004680723
0.004640004
0.004597544
0.004359861
0.003864734
0.003302523
0.002674455
0.001985962
0.001254884
0.0005469308
5.215957e-05
4.338884e-05
0.0003175079
0.0005634286
0.0009059961
0.001375618
0.001817545
0.002200259
0.00258722
0.002976825
0.003367684
0.003758344
0.004147188
0.004532426
0.004912119
0.005284235
0.005646699
0.005997436
0.006334427
0.006655754
0.006959643
0.007244406
0.0075088
0.007751524
0.00797157
0.008168137
0.00834062
0.008488599
0.00861182
0.008710179
0.008783693
0.008832479
0.008856727
0.008856674
0.008832588
0.00863775
0.008346198
0.008049653
0.007756915
0.007466703
0.007176405
0.006885099
0.006593486
0.006302914
0.006014869
0.005731519
0.005457344
0.005200967
0.004976701
0.004803627
0.004699098
0.004659263
0.004615402
0.004370632
0.003873314
0.003309047
0.002679071
0.001988814
0.001256119
0.0005473324
5.219274e-05
4.444304e-05
0.000320744
0.0005654113
0.0009031658
0.001373152
0.001840826
0.002232099
0.002629033
0.003029365
0.003431065
0.003832121
0.004230463
0.004623964
0.005010459
0.005387792
0.005753847
0.006106585
0.00644408
0.006764554
0.0070664