/*--------------------------------*- C++ -*----------------------------------*\
| =========                 |                                                 |
| \\      /  F ield         | OpenFOAM: The Open Source CFD Toolbox           |
|  \\    /   O peration     | Version:  2312                                  |
|   \\  /    A nd           | Website:  www.openfoam.com                      |
|    \\/     M anipulation  |                                                 |
\*---------------------------------------------------------------------------*/
FoamFile
{
    version     2.0;
    format      ascii;
    arch        "LSB;label=32;scalar=64";
    class       volScalarField;
    location    "4500";
    object      G;
}
// * * * * * * * * * * * * * * * * * * * * * * * * * * * * * * * * * * * * * //

dimensions      [1 0 -3 0 0 0 0];

internalField   nonuniform List<scalar> 
12000
(
23718.18
21299.18
20221.4
19426.24
18606.72
17790.34
17102.5
16607.99
16285.56
16073.46
15920.67
15818.7
15800.96
15902.93
16110.62
16343.47
16490.65
16473.82
16288.81
15996.8
15676.53
15376.05
15096.56
14812.09
14503.57
14180.95
13881.18
13647.95
13508.8
13462.77
13482.35
13525.74
13551.58
13530.44
13450.36
13316.48
13146.4
12963.64
12791.01
12646.25
12540.25
12477.86
12459.7
12483.11
12543.62
12635.44
12751.82
12885.55
13027.89
13168.53
13297.58
13407.53
13493.73
13554.42
13589.33
13595
13565.11
13489.08
13391.12
13171.65
25873.23
24315.91
23037.22
21854.41
20674.84
19646.63
18891.05
18375.72
17993.46
17658.37
17350.29
17113.56
17013.63
17070.96
17222.62
17347.84
17338.3
17157.51
16847.68
16486.08
16129.45
15787.06
15434.41
15048.85
14637.31
14238.72
13903.97
13669.54
13540.81
13491.73
13477.77
13453.55
13387.26
13267.6
13102.96
12915.16
12731.11
12575.12
12463.83
12404.57
12396.62
12434.31
12510.24
12617.1
12747.91
12894.95
13049.12
13200.26
13338.4
13454.57
13541.06
13591.81
13604.02
13580.04
13526.88
13451.53
13356.66
13234.46
13105.04
12885.4
26247.91
25258.66
24029.46
22852.91
21805.93
20917.16
20190.11
19584.95
19051.56
18569.19
18169.2
17919.51
17866.49
17976.38
18131.99
18193.75
18076.75
17786.57
17394.78
16980.65
16584.51
16200.83
15805.87
15391.98
14983.06
14624.28
14357.25
14198.17
14130.49
14113.51
14099.69
14051.73
13952.58
13806.73
13634.35
13462.21
13315.07
13209.94
13153.91
13145.26
13176.32
13236.97
13317.54
13410.33
13509.31
13608.72
13701.81
13780.89
13838.84
13870.5
13872.63
13843.2
13781.7
13690.92
13578.23
13453.33
13322.93
13180.62
13041.33
12820.43
26244.24
25562.35
24287.17
23070.19
22222.73
21586.09
20953.02
20269.97
19593.32
19012.97
18619.35
18469.04
18536.49
18698.74
18786.65
18673.21
18334.22
17842.21
17306.89
16809.25
16371.62
15973.5
15590.54
15224.39
14905.64
14673.78
14551.8
14531.45
14575.78
14634.55
14663.27
14636.91
14554.33
14433.83
14303.59
14191.31
14116.74
14088.32
14103.95
14154.3
14226.72
14308.7
14390.11
14464.12
14526.53
14574.22
14603.45
14609.52
14588.05
14536.77
14455.83
14346.94
14212.46
14055.79
13882.74
13700.92
13517.78
13328.87
13160.81
12893.93
26057.71
25552.27
24300.5
23036.57
22221.15
21689.68
21152.49
20512.54
19847.97
19299.95
18984.6
18927.9
19037.43
19140.02
19072.36
18765.1
18264.29
17683.98
17131.2
16654.85
16244.23
15865.21
15500.62
15166.99
14902.32
14739.38
14683.87
14709.5
14769.59
14816.54
14818.87
14769.3
14682.57
14586.41
14510.13
14475.33
14491.04
14553.71
14650.85
14766.01
14883.2
14989.53
15076.27
15138.67
15174.94
15184.71
15167.41
15121.67
15046.08
14940.81
14808.72
14654.8
14484.29
14300.98
14107.42
13906.13
13703.83
13501.83
13338.87
13082.22
25848.69
25356.67
24249.15
22990.98
21974.41
21277.6
20778.29
20329.5
19886.65
19514.07
19293.82
19229.51
19224.23
19140.69
18889.75
18480.13
17998.52
17543.76
17166.29
16851.37
16548.25
16216.71
15856.98
15506.87
15215.01
15011.24
14891.79
14824.5
14767.03
14686.61
14572.04
14434.67
14300.6
14199.25
14153.05
14171.41
14249.76
14372.71
14519.61
14670.05
14807.68
14921.6
15005.92
15058.45
15079.51
15070.73
15034.18
14971.51
14883.99
14773.42
14643.51
14500.18
14349.58
14195.02
14036.14
13871.91
13708.83
13555.82
13448.9
13292.46
25698.85
25028.03
24050.88
22795.69
21507.42
20558.52
20048.91
19799.88
19630.44
19494.62
19409.76
19350.47
19233.8
18983.23
18593.54
18138.28
17718.57
17396.88
17163.8
16955.42
16702.61
16375.42
15996.01
15618.17
15292.63
15041.12
14851.31
14690.54
14526.7
14344.44
14150.08
13966.18
13820.5
13735.35
13720.91
13773.69
13879.12
14016.51
14164.47
14305.28
14426.94
14523.04
14591.11
14630.76
14642.69
14628.6
14591.25
14533.94
14459.73
14371.21
14271.52
14165.21
14057.19
13949.98
13842.74
13735.17
13635.38
13557.2
13522.29
13491.34
25440.27
24252.25
23214.22
21966.2
20627.2
19598.96
19041.89
18840.18
18833.91
18932.93
19070.91
19149.07
19058.56
18748.76
18266.04
17725.9
17241.48
16862.44
16563.1
16278.83
15958.68
15598
15235.07
14921.61
14690.64
14541.05
14443.83
14361.51
14267.65
14156.65
14041.65
13944.78
13886.05
13875.99
13913.51
13988.21
14084.71
14187.2
14282.68
14362.71
14423.38
14463.87
14484.49
14485.18
14465.38
14425.14
14366.26
14292.48
14208.18
14117.12
14022.28
13926.6
13833.19
13744.13
13660.23
13584.31
13525.81
13496.96
13504.11
13539.34
24368.66
22600.77
21602.13
20676.36
19705.05
18799.21
18129.31
17817.42
17872.02
18184.22
18567.4
18821.95
18809.23
18503.01
17986.45
17394.15
16836.81
16356.57
15934.61
15534.56
15145.14
14793.91
14529.14
14387.93
14373.63
14454.49
14580.44
14705.47
14803.06
14869.08
14914.46
14953.96
14997.33
15045.79
15093.5
15131.6
15152.15
15150.48
15125.61
15079.48
15015.41
14936.61
14844.88
14740.2
14621.46
14488.25
14342.64
14189.62
14035.95
13887.94
13749.84
13623.77
13510.87
13412.53
13331.17
13271.03
13238.21
13236.07
13255.56
13299.21
11385.41
14162.67
15491.61
16190.77
16412.09
16168.5
15779.77
15660.08
15986.16
16628.13
17302.93
17761.63
17892.95
17727.96
17380.96
16971.12
16565.89
16171.5
15765.9
15343.87
14941.04
14623.4
14453.79
14459.84
14622.2
14886.58
15188.6
15476.69
15722.98
15921.12
16076.6
16196.57
16283.91
16336.54
16350.2
16321.92
16252.22
16145.13
16006.67
15843.03
15659.28
15458.83
15243.63
15014.79
14773.62
14523.02
14268.72
14019.47
13785.75
13577.02
13398.95
13252.46
13135.77
13048.26
12992.44
12971.18
12982.36
13016.14
13049.67
13098.93
11059.07
13215.96
14386.14
15063.68
15313.59
15151.43
14851.93
14795.42
15153.32
15786.68
16405.79
16789.11
16885.01
16775.16
16575.9
16356.24
16112.73
15800.25
15387.84
14899.33
14414.39
14033.89
13834.49
13839.29
14017.1
14304.6
14635
14958.55
15248.74
15497.2
15704.3
15871.56
15998.31
16082.22
16121.45
16116.48
16070.4
15987.71
15872.6
15727.67
15554
15352.19
15123.81
14872.44
14604.21
14327.84
14054.55
13797.34
13569.45
13381.5
13238.49
13138.67
13076.47
13048.23
13055.11
13097.73
13166.19
13239.61
13292.92
13352.74
22699.93
19323.22
18098.03
17405.57
16753.41
16133.34
15657.93
15468.26
15604.12
15926.62
16210.91
16308.15
16219.81
16046.6
15883.91
15750.2
15587.78
15319.93
14915.77
14419.22
13929.06
13549.74
13345.64
13322.57
13439.39
13635.97
13859.24
14076.26
14273.7
14449.95
14606.95
14745.43
14863.91
14959.86
15031.18
15076.89
15096.87
15090.79
15057.17
14993.28
14896.3
14765.14
14602.27
14414.29
14211.47
14006.33
13812.24
13642.15
13507.04
13413.81
13363.26
13349.86
13364.99
13402.41
13460.67
13537.7
13621.07
13687.73
13726.46
13743.98
10899.14
11996.21
12825.31
13392.41
13595.78
13604.04
13642.08
13827.79
14150.04
14503.15
14760.17
14857.12
14828.51
14767.19
14745.6
14763.81
14761.75
14677.72
14502.25
14288.16
14116.74
14049.69
14099.4
14231.2
14388.95
14524
14612.1
14653.86
14664.6
14662.43
14660.54
14664.81
14675.11
14687.78
14697.81
14700.33
14691.12
14666.58
14623.53
14559.45
14473.31
14366.79
14245.15
14117.01
13992.87
13883.1
13796.17
13737.67
13709.75
13710.68
13734.86
13773.95
13819.25
13864.15
13904.34
13934.55
13946.2
13924.63
13884.03
13766.09
10039.96
10845.73
11660.85
12453.9
13024.44
13352.18
13573.74
13771.81
13942.35
14062.94
14125.42
14135.25
14112.96
14088.98
14081.37
14079.19
14057.55
14013.49
13986.1
14038.98
14218.48
14520.08
14885.86
15231.83
15485.1
15609.59
15610.59
15521.87
15386.72
15242.55
15113.41
15009.46
14930.2
14868.76
14815.85
14762.76
14703.29
14634.58
14557.03
14473.61
14389.21
14310.17
14243.8
14197.44
14176.84
14184.44
14218.31
14272.25
14336.92
14401.56
14456.12
14493.15
14508.25
14497.87
14456.9
14378.92
14263.76
14110.36
13962.21
13675.2
9832.584
10222.67
10740.73
11418.16
12203.7
12934.5
13462.54
13696.08
13645.21
13435.55
13232.1
13140.12
13169.81
13265.49
13352.89
13378.69
13338.94
13287.64
13313.98
13494.83
13850.01
14327.86
14828.24
15246.34
15511.9
15606.4
15556.2
15412.02
15227.34
15044.04
14887.1
14765.81
14678.1
14615.55
14567.75
14525.84
14484.84
14444.59
14409.29
14385.89
14382.09
14404.58
14457.88
14543.47
14659.04
14797.65
14947.59
15093.49
15218.83
15309.42
15356.69
15359.08
15319.77
15240.97
15120.05
14952.93
14747.43
14512.85
14310.18
13951.3
9815.06
10025.57
10355.32
10878.31
11730.98
12759.34
13585.67
13904.7
13685.94
13156.88
12635.1
12350.79
12361.4
12575.36
12840.89
13041.3
13150.59
13229.23
13371.76
13642.63
14037.95
14489.82
14902.86
15197.21
15335.4
15325.21
15204.71
15022.02
14819.58
14626.8
14459.74
14324.43
14220.94
14146.59
14098.22
14073.59
14072.42
14096.62
14149.72
14235.45
14355.89
14510.02
14693.25
14897.74
15113.03
15326.22
15522.17
15684.61
15798.91
15856.11
15855.87
15806.14
15718.29
15600.27
15453.43
15277.23
15081.15
14876.75
14715.39
14450.63
9831.307
9918.99
10154.48
10639.74
11532.21
12684.43
13648.8
14033.56
13766.26
13080.9
12343.36
11860.49
11757.84
11968.79
12325.11
12680.07
12982.76
13269.19
13599.12
13995.07
14422.35
14811.27
15096.38
15245.29
15264.48
15186.25
15049.49
14885.39
14712.32
14538.35
14366.98
14202.33
14051.76
13925.65
13835.42
13791.21
13800.19
13865.77
13987.3
14159.93
14374.37
14617.19
14872.01
15121.57
15349.79
15542.78
15688.87
15778.83
15807.7
15777.78
15700.15
15591.95
15470.14
15345.62
15222.3
15101.38
14987.58
14887.69
14822.25
14739.45
9864.097
9858.028
10047.53
10605.11
11573.67
12716.71
13623.25
13980.25
13738.23
13092.15
12361.32
11837.95
11662.02
11791.27
12082.45
12412.5
12744.99
13109.34
13535.34
14006.39
14461.6
14832
15077.28
15199.05
15229.31
15207.5
15161.64
15101.31
15021.61
14912.71
14769.19
14595.63
14407.37
14227.14
14079.62
13986.03
13960.37
14007.8
14124.76
14300.08
14516.5
14752.48
14984.74
15191.32
15354.57
15462.82
15510.43
15497.13
15428.39
15316.44
15179.69
15038.66
14909.97
14803.05
14721.61
14666.76
14637.59
14633.72
14645.86
14696.21
9890.469
9832.995
10033.33
10708.64
11735.24
12767.65
13497.8
13776.02
13611.3
13145.89
12606.73
12206.56
12042.29
12075.09
12205.38
12368.71
12572.13
12858.06
13245.05
13699.37
14152.46
14540.63
14834.43
15041.89
15191.1
15308.25
15404.11
15472.9
15499.75
15470.8
15381.08
15238
15060.1
14872.59
14701.57
14568.75
14488.15
14464.92
14495.97
14571.66
14677.58
14796.34
14909.45
14999.72
15053.7
15063.78
15028.79
14953.54
14847.84
14725.52
14602.39
14492.7
14405.69
14345.5
14314.01
14312.34
14337.53
14383.64
14426.73
14511.11
9897.991
9850.717
10146.31
10921.23
11896.99
12728.22
13274.06
13535.49
13542.27
13353.31
13075.53
12818.23
12633.3
12512.81
12438.05
12421.48
12503.9
12718.54
13059.67
13480.97
13919.99
14327.18
14680.39
14980.59
15237.63
15457.46
15637.39
15768.8
15843.3
15857.85
15817.06
15732.22
15618.34
15490.62
15361.58
15239.48
15128.18
15028.15
14937.92
14855.54
14779.34
14707.82
14638.99
14569.97
14497.59
14420.1
14338.85
14258.68
14186.59
14129.14
14090.3
14070.53
14067.8
14080.25
14108.54
14154.79
14216.74
14286.34
14337.5
14412.85
9892.322
9934.789
10401.24
11201.57
11990.7
12585.51
13030.32
13393.66
13661.95
13786.32
13742.16
13539.83
13222.83
12871.87
12592.7
12478.34
12569.9
12844.59
13235.91
13668.67
14087.02
14463.95
14794.44
15081.97
15328.24
15530.14
15683
15785.55
15843
15866.47
15869.39
15862.85
15851.93
15834.36
15801.86
15743.22
15648.03
15509.89
15328.55
15110.71
14869.3
14621.06
14383.03
14169
13987.71
13843.75
13740.02
13679.29
13662.93
13687.67
13744.02
13818.79
13900.63
13984.47
14071.46
14164.76
14262.48
14358.05
14426.32
14523.25
9896.813
10120.16
10772.29
11498.15
12048.55
12480.97
12939.02
13462.22
13978.97
14363.06
14485.37
14278.1
13799.34
13234.9
12812.65
12686.57
12873.55
13275.08
13751.1
14189.91
14539.04
14797.1
14987.14
15133.01
15248.75
15339.86
15409.85
15465.69
15518.93
15582.63
15665.99
15769.7
15883.84
15989.45
16062.92
16081.48
16028.26
15895.5
15685.94
15412.57
15096.78
14765.06
14444.38
14157.39
13919.47
13738.88
13619.51
13562.99
13567.82
13625.92
13721.52
13835.6
13954.03
14072.24
14192.52
14317.52
14444
14569.51
14668.41
14829.9
9946.517
10437.11
11222.99
11831.1
12238.38
12646.63
13164.54
13782.81
14431.64
14971.84
15212.91
15029.06
14481.48
13816.24
13327.47
13196.51
13420.36
13855.55
14321.06
14686.01
14902.64
14990.06
14997.74
14975.05
14957.12
14964.56
15008.85
15096.96
15232.44
15413.76
15631.78
15868.78
16100.06
16297.96
16436.9
16497.93
16471.31
16357.04
16163.9
15907.68
15609.29
15292.4
14980.38
14693.1
14444.68
14243.55
14094.5
14000.53
13962.16
13974.49
14025.8
14101.47
14191.07
14292.19
14406.52
14533.74
14667.97
14811.26
14936.7
15163.41
10081.52
10922.25
11802.29
12377.58
12805
13246.3
13744.97
14326.89
14986.74
15595.06
15923.66
15811.62
15308.86
14661.09
14158.86
13978.07
14116.12
14437.55
14772.58
15000.66
15082.96
15048.1
14956.77
14870.12
14832.93
14870.3
14991.06
15192.06
15460.66
15775.94
16110.31
16432.48
16712.09
16924.38
17053.87
17095.54
17053.65
16938.88
16764.99
16546.28
16296.37
16028.01
15753.16
15482.82
15226.63
14992.69
14787.99
14618.9
14490.73
14406.01
14363.17
14357.63
14385.16
14443.91
14531.82
14643.76
14771.03
14917.87
15055.11
15312.47
10493.22
11899.21
12927.1
13586.85
14066.26
14433.57
14775.97
15228.71
15829.83
16430.36
16788.82
16754.53
16371.83
15838.98
15381.2
15136.81
15115.75
15231.19
15367.5
15441.16
15428.14
15356.09
15277.6
15243.31
15286.3
15418.65
15635.3
15919.4
16246.46
16587.28
16911.06
17189.27
17399.93
17530.78
17580.2
17555.61
17470.02
17337.88
17171.49
16979.02
16764.44
16529.35
16275.59
16007.64
15733.37
15463.01
15207.15
14975.26
14775.61
14615.87
14502.73
14440.18
14427.92
14461.52
14533.35
14634.46
14755.39
14899.4
15035.11
15282.95
11760.15
13743.51
14764.62
15341.64
15649.45
15777.12
15913.81
16235.76
16737.65
17241.28
17549.13
17573.97
17356.32
17005.69
16635.21
16322.61
16097.24
15946.7
15838
15743.18
15656.17
15593.2
15580.13
15637.11
15769.26
15966.26
16207.58
16468.76
16725.69
16956.93
17145.25
17279.04
17353.6
17371.2
17339.7
17270.01
17173.16
17057.65
16927.87
16783.52
16620.73
16434.56
16222.55
15987.78
15739.6
15491.27
15255.59
15041.85
14856.39
14705.72
14598.17
14540.62
14533.18
14567.67
14632.51
14719.34
14822.7
14944.07
15055.93
15247.32
24188.21
22152.11
21088.58
20362.07
19665.97
19041.4
18665.7
18605.73
18741.78
18890.04
18943.25
18888.02
18736.36
18480.48
18109.08
17642.52
17139.59
16672.4
16296.34
16036.82
15894.24
15855.5
15901.93
16011.82
16160.73
16323.02
16475.03
16598.26
16681.19
16719.47
16715.18
16675.57
16611.29
16534.03
16454.19
16378.91
16311.24
16250.27
16191.73
16128.89
16053.91
15959.91
15843.83
15708.8
15564.16
15422.21
15293.02
15180.98
15086.02
15008.58
14953.01
14924.75
14923.37
14940.03
14964.01
14991.94
15026.81
15070.94
15111.87
15178.96
25405.47
23958.31
22868.73
22013.07
21156.83
20400.01
19929.33
19740.45
19674.94
19614.95
19561.82
19550.05
19543.24
19432
19118.17
18594.02
17953.27
17338.49
16871.2
16607.7
16535.39
16597.58
16725.29
16859.96
16962.52
17012.44
17002.75
16935.3
16817.76
16662.18
16484.01
16300.62
16129
15982.96
15870.99
15795.5
15753.59
15738.93
15743.53
15758.9
15776.89
15790.72
15796.55
15794.74
15789.33
15785.34
15784.65
15783.77
15775.44
15753.67
15717.68
15670.79
15614.6
15545.57
15459.33
15358.63
15254.74
15153.76
15067.99
14943
25750.48
24874.67
23884.16
23037.37
22279.38
21650.43
21206.1
20873.56
20554.34
20264.69
20103.67
20114.4
20207.27
20208.87
19976.65
19486.84
18843.8
18218.24
17760.16
17536.7
17520.88
17624.34
17746.5
17812.85
17789.36
17676.36
17493.29
17264.67
17012.68
16755.51
16508.75
16286.45
16100.82
15960.69
15870.19
15828.54
15831.22
15871.8
15943.34
16039.03
16152.2
16276.32
16405.3
16533.84
16657.08
16769.4
16863.1
16928.06
16953.24
16929.78
16854.04
16728.5
16559.51
16353.55
16116.25
15854.96
15584.33
15313.12
15082.69
14750.76
25797.81
25265.97
24290.88
23350.87
22733
22400.26
22116.21
21678.68
21097.14
20563.04
20271.41
20272.36
20450.03
20603.56
20558.27
20248.03
19735.3
19166.08
18688.88
18384.62
18242.69
18186.81
18125.71
17996.6
17782.42
17503.62
17197.52
16899.49
16633.46
16411.36
16237.45
16112.71
16037.23
16010.51
16030.87
16095.18
16199.14
16338.09
16507.4
16702.46
16918.12
17148.04
17384.08
17615.93
17831.18
18016.17
18157.41
18243.06
18263.51
18211.34
18082.43
17878.71
17610.32
17293.13
16942.46
16568.27
16182.67
15791.51
15461.99
14985.71
25731.45
25436
24501.88
23461.48
22914.17
22807.67
22659.18
22154.75
21390.93
20684.84
20294.66
20288.44
20560.69
20910.68
21131.82
21090.71
20770.92
20260.65
19692.51
19173.02
18742.21
18378.28
18033.21
17670.9
17286.54
16903.35
16555.88
16273.3
16070.53
15948.3
15898.37
15909.41
15970.98
16075.06
16215.77
16388.61
16589.71
16815.35
17061.87
17325.46
17601.77
17885.02
18166.81
18435.26
18675.44
18871.74
19011.17
19085.42
19090.01
19021.36
18875.79
18653.28
18363.19
18024.29
17656.27
17269.39
16870.03
16455.65
16107.37
15585.18
25603.87
25411.92
24597.52
23626.77
23099.3
22949.53
22708.09
22127.02
21354.77
20698.94
20378.21
20442.18
20798.66
21266.65
21637.62
21745.24
21521.07
21007.12
20319.78
19589.22
18909.01
18317.74
17811.65
17371.33
16983.69
16649.67
16379.64
16184.05
16066.53
16022.21
16040.29
16108.17
16214.82
16352.34
16515.76
16701.79
16907.38
17128.92
17362.19
17602.87
17846.78
18089.22
18323.47
18539.61
18725.25
18868.4
18961.17
19001.36
18990.2
18927.86
18811.22
18637.28
18409.81
18141.75
17848.87
17538.64
17212.6
16859.18
16557.1
16061.11
25449.07
25224.61
24606.38
23911.24
23364.46
22868.17
22273.33
21606.25
21027.27
20685.55
20640.57
20861.51
21250.06
21663.37
21945.51
21970.06
21679.49
21102.43
20339.64
19525.02
18779.36
18177.09
17737.28
17437.05
17235.36
17093.94
16987.87
16905.99
16845.69
16807.19
16790.3
16793.85
16816.55
16857.83
16917.75
16995.96
17090.61
17197.95
17313.12
17431.52
17549.78
17665.24
17774.41
17871.69
17950.03
18003.57
18030.52
18033.63
18017.4
17983.83
17930.14
17850.52
17740.83
17602.04
17439.02
17254.07
17047.54
16803.01
16582.47
16153.52
25281.43
24935.61
24557.74
24181.23
23516.42
22527.24
21533.32
20857.19
20594.98
20663.88
20933.06
21288.73
21636.62
21892.96
21985.17
21859.2
21491
20900.94
20161.93
19388.34
18703.07
18196.92
17901.33
17787.34
17788.05
17829.72
17856.41
17840.04
17777.14
17678.9
17561.12
17438.01
17319.92
17213.48
17122.26
17047.03
16985.96
16935.22
16890.61
16849.2
16810.42
16775.36
16745.13
16719.57
16697.64
16679.22
16666.54
16663.81
16674.99
16701.29
16739.55
16781.91
16816.91
16832.71
16821.76
16781.58
16714.71
16605.37
16490.9
16176.43
25088.49
24588.18
24397.18
24144.74
23266.98
21935.16
20782.65
20225.67
20242.76
20584.07
21013.28
21392.16
21660.52
21799.69
21805.13
21665.77
21359.3
20872.2
20231.34
19518.86
18852.75
18341.93
18043.1
17943.63
17976.59
18055.18
18106.56
18090.83
18001.76
17855.57
17676.54
17486.48
17299.87
17123.69
16959.32
16804.72
16656.25
16510.25
16364.67
16220.23
16080.64
15951.56
15838.88
15747.66
15681.92
15645.31
15641.2
15672.1
15738.88
15840.51
15973.33
16128.88
16291.91
16442.75
16565.99
16656.88
16720.84
16746.35
16748.74
16594.88
24729.48
23944.08
23745.55
23374.27
22385.01
21112.1
20135.13
19750.85
19880.62
20266.56
20674.62
20979.49
21157.89
21244.45
21277.8
21256.67
21130.28
20831.17
20328.66
19664.73
18947.17
18305.19
17835.39
17568.29
17469.07
17465.49
17483.69
17474.04
17418.91
17325.36
17211.31
17093.46
16980.97
16874.84
16770.67
16662.17
16544.04
16413.86
16272.8
16125.48
15979.1
15842.15
15723.25
15630.45
15570.67
15549.02
15568.02
15627.47
15725.52
15860.08
16028.61
16225
16436.08
16643.04
16829.83
16991.09
17132.21
17247.18
17340.21
17344.24
23715.88
22697.79
22504.67
22123.64
21384.55
20547.49
19905.8
19621.82
19685.03
19948.82
20228.97
20408.04
20481.67
20525.09
20612.96
20750.59
20859.62
20821.08
20544
20017.54
19319.6
18582.13
17936.04
17464.91
17186.88
17066.72
17044.81
17065.91
17095.25
17119.85
17140.13
17159.6
17178.05
17190.06
17187.31
17162.21
17110.85
17034.11
16937.04
16827.18
16712.74
16601.72
16501.84
16420.66
16364.86
16338.75
16343.05
16375.61
16433.92
16517.31
16626.58
16760.85
16914.35
17076.54
17236.39
17387.41
17530.46
17664.6
17791.56
17896.8
13067.14
16054.29
17678.83
18401.01
18711.3
18804.58
18765.05
18723.54
18804.21
19012.12
19241.4
19394.11
19474.37
19575.04
19789.33
20130.37
20511.91
20789.61
20829.93
20569.22
20038.09
19345.37
18633.45
18027.49
17600.37
17364.33
17286.36
17314.22
17399.26
17507.75
17620.91
17728.72
17823.61
17897.57
17942.85
17954.53
17932.7
17882.53
17812.41
17731.04
17645.37
17560.28
17479.72
17407.84
17348.4
17303.07
17270.47
17247.53
17232.58
17227.36
17236.2
17263.59
17312.22
17381.94
17468.71
17564.97
17665.42
17771.9
17885.71
18026.74
13122.28
15980.02
17410.2
18054.45
18522.57
18893.02
19037.6
18972.49
18855.76
18804.97
18817.38
18843.03
18879.98
18988.06
19232.01
19619.69
20080.34
20486.74
20702.91
20635.11
20266.7
19664.04
18951.61
18267.83
17721.19
17364.61
17194.71
17170.43
17238
17350.32
17475.23
17594.37
17697.76
17779.16
17834.43
17862.28
17865.48
17850.52
17825.45
17797.07
17769.07
17742.36
17716.78
17692.55
17669.99
17648.17
17624.31
17595.34
17560.45
17522.35
17486.38
17459.31
17448.79
17461.69
17499.85
17557.2
17625.22
17704.68
17794.25
17934.42
23440.65
22195.96
21548.7
21026.16
20741.18
20647.42
20507.38
20189.52
19756.18
19339.74
19023.39
18824.21
18734.86
18756.62
18899.78
19163.04
19511.66
19868.97
20129.31
20190.75
19994.43
19551.01
18939.53
18278.62
17684.07
17232.91
16948.4
16807.98
16765.19
16772.61
16796.17
16818.53
16834.67
16845.45
16853.07
16859.58
16867.23
16878.67
16896.28
16920.9
16951.27
16984.77
17018.81
17051.73
17082.5
17109.76
17131.42
17145.48
17151.23
17149.84
17144.3
17139.69
17143.57
17164.3
17206.63
17268.06
17340.44
17420
17496.4
17625.41
24194.03
22990.39
22180.61
21685.13
21308.57
20994.73
20696.83
20330.48
19857.37
19338.21
18885.43
18578.26
18425.11
18391.85
18451.65
18606.34
18866.5
19214.32
19582.9
19869.76
19976.67
19852.17
19513
19034.44
18516.77
18046.34
17669.47
17388.25
17174.87
16993.49
16818.03
16639.43
16463.19
16301.67
16166.68
16065.26
15998.76
15964.05
15955.1
15964.71
15985.87
16013.07
16042.89
16073.88
16105.96
16139.65
16175.55
16213.75
16253.36
16292.74
16330.94
16369.45
16412.81
16467.03
16536.67
16622.03
16716.16
16809.79
16877.97
16987.44
24206.83
23047.03
22204.37
21884.45
21625.53
21248.96
20841.2
20418.94
19913.72
19332.15
18790.71
18405.9
18200.09
18116.79
18101.07
18154.04
18320.22
18632.8
19066.79
19532.61
19909.92
20098.14
20055.3
19807.72
19429.64
19006.94
18603.74
18246.2
17926.73
17621.54
17310.06
16986.84
16662.85
16358.71
16095.36
15886.71
15736.48
15639.07
15582.92
15554.69
15542.75
15539.01
15539
15541.08
15545.74
15555.26
15572.9
15601.04
15639.31
15684.55
15733.35
15784.81
15841.04
15905.61
15981.92
16071.31
16167.62
16258.11
16309.54
16383.66
23860.94
22459.84
21434.33
21056.81
20959.06
20828.36
20580.81
20186.26
19617.04
18934.64
18299.8
17859.64
17645.26
17581.48
17578.18
17607.82
17711.66
17947.63
18329.71
18800.92
19251.13
19563.81
19663.76
19542.5
19252.55
18877.66
18496.1
18154.26
17860.09
17594.51
17331.35
17054.67
16766.4
16483.65
16229.7
16024.12
15876.46
15784.79
15738.74
15724.39
15728.75
15741.94
15757.36
15770.97
15781.25
15789.55
15799.56
15814.96
15836.82
15863.04
15890.84
15919.63
15951.61
15990.41
16039.58
16100.74
16168.37
16230.25
16259.62
16298.43
22888.86
21224.52
20155.47
19692.95
19764.67
20031.96
20136.97
19896.62
19319.56
18555
17816.94
17284.6
17024.37
16986.47
17071.7
17209.64
17392.54
17652.45
18010.14
18436
18847.16
19139.16
19231.49
19101.79
18792.62
18390.22
17988.09
17653.34
17409.89
17242.2
17113.71
16988.78
16848
16692.37
16537.67
16404.15
16307.3
16253.15
16238.69
16255.44
16293.29
16342.65
16394.95
16442.71
16480.46
16506.06
16520.85
16528
16529.88
16526.99
16519.19
16507.98
16497.56
16493.73
16501.43
16522.03
16550.36
16579.52
16596.36
16630.9
13539.8
15046.84
15592.04
15959.57
16652.85
17547.32
18228.76
18432.87
18168.5
17607.05
16960.48
16417.75
16105.09
16058.55
16232.12
16544.84
16933.01
17370.14
17847.31
18338.42
18781.37
19090.21
19190.04
19052.9
18714.07
18260.82
17800.13
17421.61
17171.59
17047.42
17010.77
17010.69
17005.2
16973.38
16915.81
16846.78
16784.16
16741.85
16726.71
16739.28
16775.79
16829.69
16892.56
16955.02
17008.38
17046.51
17066.95
17070.41
17059.22
17035.78
17002.35
16962.23
16921.2
16886.71
16864.33
16854.64
16853.55
16863.53
16881.61
16943.75
12847.71
13930.73
14568.82
14958.99
15573.94
16444.81
17236.85
17662.67
17669.1
17351.93
16844.57
16292.97
15851.04
15638.37
15692.52
15968.83
16387.42
16882.17
17414.43
17952.77
18447.1
18823.53
19006.05
18950.45
18669.22
18232.93
17747.33
17317.51
17015.32
16862.79
16835.68
16882.34
16947.46
16990.62
16994.12
16960.6
16904.8
16844.8
16795.95
16768.2
16765.67
16787.27
16827.73
16879.03
16932.1
16978.68
17012.83
17031.81
17035.96
17027.39
17008.54
16982.18
16952.5
16924.8
16902.44
16885.59
16874.14
16880.99
16907.31
16998.29
12815.3
13453.69
14100.85
14508.9
14910.61
15484.22
16137.51
16676.95
16980.2
17011.79
16787.86
16380.35
15924.26
15574.23
15433.18
15516.3
15775.28
16150.28
16602.38
17107.96
17632.4
18112.4
18464.41
18614.67
18532.29
18246.18
17837.15
17409.54
17056.01
16830.34
16738.02
16745.14
16798.6
16847.7
16858.79
16819.98
16737.55
16628.42
16512.36
16406.53
16322.65
16266.46
16238.67
16236.33
16254.06
16285.12
16322.7
16361.65
16399.57
16436.26
16471.81
16505.25
16534.68
16557.91
16572.72
16579.44
16584.08
16606.38
16645.16
16748.07
12942.89
13314.84
14020.6
14579.19
14837.5
15014.82
15345.73
15852.95
16386.64
16763.97
16868.53
16690.32
16322
15913.02
15599.17
15450.74
15470.9
15633.06
15917.87
16320.25
16827.64
17394.28
17935.64
18350.25
18556.91
18526.79
18294.22
17942.24
17570.86
17263.04
17061.83
16965.54
16939.13
16933.95
16906.67
16831.13
16701.14
16526.4
16325.12
16116.91
15918.29
15741.13
15593.21
15479.21
15401.12
15358.08
15346.87
15363.45
15404.67
15468.49
15552.18
15649.66
15750.63
15842.69
15916.44
15971.94
16019
16076.69
16134.25
16242.44
13090.18
13296.45
14016.69
14740.42
14992.44
14900.76
14916.8
15291.13
15919.08
16527.94
16894.29
16933.96
16692.47
16295.49
15886.25
15570.34
15393.56
15360.05
15467.3
15725.12
16143.95
16706.02
17345.63
17956.27
18423.3
18664.92
18660.61
18454.6
18134.88
17798.96
17521.75
17337.04
17236.89
17185.11
17136.63
17054.37
16918.44
16726.8
16490.02
16224.18
15945.59
15668.55
15405.6
15168.08
14965.81
14805.96
14692.41
14626.44
14608.18
14637.16
14710.6
14820.02
14949.55
15079.71
15196.21
15297.92
15392.58
15491.09
15569.63
15690.76
13253.7
13407.13
14060.46
14813.42
15140.27
15036.43
14924.73
15148.14
15701.36
16342.54
16821.71
17007.82
16899.3
16585
16192.33
15834.65
15576.55
15435.07
15409.74
15511.67
15765.99
16186.91
16747.25
17367.44
17934.04
18338.63
18516.86
18468.85
18253.64
17962.57
17684.93
17480.3
17366.43
17324.08
17313.08
17291.06
17227.14
17107.18
16931.34
16708.12
16448.99
16165.8
15870.67
15576.46
15296.37
15042.66
14825.52
14652.83
14530.87
14464.44
14454.98
14496.94
14576.13
14674.17
14777.8
14884.67
14995.59
15110.34
15196.3
15331.42
13460.36
13660.55
14186.7
14808.92
15220.37
15323.99
15305.6
15424.78
15779.7
16267.24
16702.17
16942.14
16940.51
16740.41
16439.25
16140.03
15909.14
15763.45
15692.2
15691.86
15783.76
16000.92
16355.91
16815
17297.75
17703.35
17949.23
18002.05
17887.13
17674.32
17448.76
17280.35
17203.92
17215.65
17283.71
17365.75
17424.75
17437.54
17395.31
17299.04
17154.21
16967.67
16746.84
16500.19
16237.44
15969.26
15706.73
15461.05
15243.47
15064.54
14931.9
14847.25
14805.47
14798.19
14819.39
14866.77
14933.73
15012.11
15071.21
15191.63
13724.18
14043.74
14437.47
14872
15345.08
15718.01
15897.28
15972.45
16105.86
16360.81
16663.09
16884.13
16936.45
16816.37
16591.64
16356.5
16181.96
16088.84
16057.12
16059.99
16094.22
16184.47
16360.64
16627.15
16946.45
17247.86
17456.29
17524.56
17452.9
17287.43
17100.04
16960.49
16913.02
16966.25
17097.77
17268.46
17438.56
17578.78
17673.65
17718.83
17716
17668.51
17579.17
17450.07
17283.38
17082.52
16853.29
16604.31
16346.69
16092.65
15853.55
15638.46
15454.36
15307.25
15201.34
15135.63
15100
15085.12
15074.39
15122.31
14131.1
14654.48
14968.51
15256.26
15730.57
16262.7
16595.14
16665.64
16635.09
16681.37
16839.51
17013.99
17086.95
17006.75
16808.86
16581.91
16412.77
16343.89
16364.3
16433.73
16518.47
16612.89
16734.24
16898.46
17096.68
17289.02
17419.46
17442.41
17345.8
17158.94
16942.01
16763.33
16675.49
16700.19
16826.54
17020.98
17242.37
17455.37
17637.51
17779.58
17881.29
17945.79
17975.13
17968.3
17921.63
17830.97
17694.19
17512.81
17291.94
17039.15
16763.78
16477.89
16197.42
15940.01
15718.01
15532.28
15374.73
15240.55
15135.69
15058.17
14902.02
15617.08
15832.42
15966.44
16317.74
16820.11
17196.33
17284.9
17178.6
17086.03
17126.47
17259.31
17357.61
17319.46
17130.86
16860.87
16612.63
16466.88
16449.24
16534.09
16674.64
16834.87
17002.54
17179.32
17360.26
17519.97
17615.69
17605.55
17470.8
17229.36
16933.58
16653.45
16453.56
16373.59
16419.68
16568.36
16779.17
17009.91
17228.34
17417.21
17572.68
17698.55
17799.69
17877.42
17928.2
17945.23
17921.22
17850.44
17729.31
17556.44
17334.14
17071.6
16786.45
16499.81
16226.43
15968.85
15725.04
15496.18
15311.73
15100.15
19946.56
19070.74
18428.16
18009.38
17899.1
18047.53
18231.38
18241.08
18060.01
17842.37
17744.49
17791.61
17878.82
17866.43
17677.36
17336.23
16944.05
16618
16435.97
16414.04
16520.32
16706.95
16935.77
17183.94
17432.61
17652.59
17800.55
17830.05
17711.32
17448.38
17084.04
16689.52
16343.38
16108.34
16015.11
16058.24
16204.17
16406.47
16621.85
16821.02
16991.69