/*--------------------------------*- C++ -*----------------------------------*\
| =========                 |                                                 |
| \\      /  F ield         | OpenFOAM: The Open Source CFD Toolbox           |
|  \\    /   O peration     | Version:  2312                                  |
|   \\  /    A nd           | Website:  www.openfoam.com                      |
|    \\/     M anipulation  |                                                 |
\*---------------------------------------------------------------------------*/
FoamFile
{
    version     2.0;
    format      ascii;
    arch        "LSB;label=32;scalar=64";
    class       volScalarField;
    location    "4500";
    object      ILambda_15_0;
}
// * * * * * * * * * * * * * * * * * * * * * * * * * * * * * * * * * * * * * //

dimensions      [1 0 -3 0 0 0 0];

internalField   nonuniform List<scalar> 
12000
(
847.1812
784.9815
781.0305
774.5482
764.0804
752.1867
742.2677
735.7685
732.1657
730.2165
729.1377
729.1801
731.312
736.1307
742.8458
749.2827
752.995
752.6556
748.6854
742.7252
736.4549
730.6658
725.1596
719.3502
712.9937
706.5262
700.8706
696.9348
695.1537
695.3119
696.6735
698.2834
699.2776
699.0803
697.509
694.759
691.2827
687.618
684.1958
681.2846
679.0281
677.5674
676.9858
677.1053
677.7299
678.6961
679.9677
681.6136
683.302
684.492
685.091
685.2592
684.7832
683.2743
680.706
676.9699
671.5696
663.5863
649.0128
617.9662
824.5483
777.6085
777.5823
768.4523
757.0478
746.1209
738.1236
733.3471
730.7465
729.276
728.7795
730.0039
733.7558
739.8131
746.5127
751.4543
752.8238
750.3427
745.1859
739.0388
733.0557
727.4298
721.7232
715.5538
709.0896
703.0637
698.3953
695.7154
695.0782
695.965
697.5124
698.8124
699.1597
698.1932
695.9403
692.7468
689.1221
685.5579
682.4005
679.856
678.0609
677.1096
676.9466
677.3607
678.1822
679.3309
680.8097
682.4809
683.9083
684.777
685.1283
684.9405
683.9092
681.8257
678.7157
674.3838
667.78
655.5402
631.8001
597.26
807.3355
773.1117
773.0561
761.7354
750.4652
741.0852
734.9686
731.5239
729.5933
728.6293
729.0722
731.7854
736.9999
743.6057
749.4301
752.362
751.485
747.4076
741.6408
735.5741
729.791
724.1005
718.0905
711.7063
705.457
700.1932
696.67
695.1848
695.4608
696.7793
698.2452
699.0553
698.687
696.9898
694.1726
690.6853
687.044
683.6733
680.8466
678.7296
677.4259
676.9405
677.1239
677.7758
678.7857
680.1228
681.7148
683.2695
684.4028
684.984
685.0357
684.3916
682.7982
680.2256
676.6583
671.2814
661.3343
642.1399
612.8933
586.9615
794.8206
769.6288
767.3769
754.9314
744.7052
737.141
732.6285
730.1037
728.706
728.5001
730.2518
734.5018
740.6802
746.9937
751.2443
751.9956
749.2395
744.1453
738.1767
732.2561
726.5062
720.5992
714.3328
707.9887
702.2827
698.0137
695.6731
695.2278
696.1473
697.6091
698.7617
698.948
697.8431
695.4945
692.2541
688.6253
685.0899
681.999
679.5676
677.9208
677.0982
677.0123
677.4755
678.3344
679.5312
681.0155
682.6006
683.9422
684.7787
685.0638
684.7323
683.5796
681.505
678.5467
674.1947
666.2609
650.6956
625.3036
597.786
586.877
785.6784
765.8475
760.9196
748.5904
739.9765
734.1592
730.8514
728.9802
728.2294
729.135
732.3871
737.8827
744.2954
749.5393
751.8256
750.5501
746.4138
740.7819
734.8143
728.9666
723.0945
716.9429
710.596
704.5938
699.7035
696.5471
695.3144
695.6881
696.9707
698.3176
698.9757
698.4619
696.6519
693.7662
690.2546
686.626
683.3039
680.5695
678.585
677.4197
677.0337
677.2764
677.9725
679.0249
680.3873
681.9384
683.4072
684.4853
685.0184
684.9572
684.1777
682.5595
680.1237
676.5978
670.3551
657.8983
636.1911
608.8555
590.2463
596.0604
778.5376
761.2346
754.2918
743.108
736.2736
731.9035
729.4551
728.2074
728.3889
730.6805
735.3307
741.4984
747.3681
750.9889
751.2481
748.3112
743.2842
737.4273
731.4964
725.5993
719.5287
713.2304
707.0573
701.6825
697.7887
695.749
695.4642
696.402
697.7791
698.7939
698.8318
697.5994
695.1624
691.8782
688.2464
684.745
681.7287
679.4131
677.9026
677.1965
677.1849
677.6971
678.5994
679.8294
681.3062
682.828
684.0988
684.8832
685.0818
684.62
683.4047
681.4336
678.5767
673.6994
663.8953
645.7717
620.1451
596.9459
591.6434
610.3884
772.328
755.8887
748.084
738.6429
733.4302
730.1549
728.4051
727.9598
729.3724
733.1018
738.7526
744.88
749.553
751.289
749.7178
745.5618
740.0282
734.0923
728.1392
722.0996
715.8614
709.6106
703.8855
699.3617
696.5408
695.526
695.9745
697.2131
698.4434
698.9572
698.3063
696.3902
693.4408
689.9085
686.2989
683.0353
680.4005
678.5447
677.5054
677.2116
677.512
678.2528
679.3431
680.7179
682.2335
683.634
684.6474
685.1051
684.9299
684.0654
682.5074
680.2046
676.4065
668.8053
654.0251
631.0301
606.0039
592.3643
600.5366
625.1188
766.4222
750.2496
742.6935
735.14
731.2322
728.8046
727.8048
728.4311
731.2343
736.1783
742.2305
747.6291
750.6815
750.5451
747.4882
742.5212
736.7227
730.7319
724.6793
718.4814
712.2066
706.2462
701.2133
697.6766
695.9065
695.7543
696.6938
697.9813
698.8612
698.758
697.4058
694.8869
691.5638
687.9344
684.4754
681.542
679.3441
677.9625
677.3644
677.4251
677.9864
678.9298
680.1845
681.6485
683.1158
684.3147
685.0214
685.1197
684.5667
683.373
681.5369
678.5879
672.77
660.979
641.0574
616.1857
597.0267
595.7625
613.5858
635.1141
760.6018
744.8163
738.2707
732.4264
729.5229
727.8776
727.8226
729.7357
733.8599
739.5612
745.352
749.485
750.7509
748.9523
744.7916
739.3219
733.3712
727.2921
721.1036
714.8224
708.71
703.2831
699.121
696.6141
695.7917
696.2948
697.4776
698.5875
698.9594
698.1781
696.164
693.1583
689.612
686.0286
682.8311
680.2997
678.5692
677.6484
677.4436
677.8036
678.5898
679.7138
681.0935
682.5719
683.9023
684.8316
685.1934
684.9283
684.0573
682.6175
680.3384
675.9363
666.7232
649.9801
626.6079
604.3475
595.2444
605.4838
625.6731
634.8329
754.9191
739.9621
734.7685
730.3225
728.2563
727.4928
728.6004
731.8499
736.9886
742.8584
747.7933
750.3417
749.8775
746.7272
741.799
736.0186
729.9444
723.7467
717.4569
711.2438
705.5186
700.8281
697.6337
696.1139
696.0771
697.0062
698.1962
698.9379
698.6949
697.2288
694.6362
691.283
687.6649
684.2563
681.4107
679.3287
678.0691
677.5737
677.7081
678.3229
679.3078
680.5827
682.0277
683.4346
684.5467
685.1559
685.1645
684.5858
683.4845
681.7348
678.4397
671.383
657.6953
636.6643
613.2815
598.1795
600.4402
617.1095
631.2922
626.9937
749.5458
735.871
732.044
728.721
727.4906
727.7892
730.1834
734.6052
740.2766
745.7159
749.3603
750.2259
748.2364
744.0574
738.611
732.6167
726.4176
720.1156
713.8328
707.8837
702.7557
698.9392
696.7264
696.0821
696.6317
697.7541
698.7392
698.9661
698.0545
695.9469
692.8932
689.3434
685.7967
682.6729
680.2457
678.634
677.8239
677.7055
678.1292
678.9652
680.1222
681.5018
682.9358
684.185
685.0157
685.2861
684.9805
684.1727
682.8411
680.398
675.097
664.1962
645.951
622.9891
603.8454
598.6312
609.5452
625.2541
629.9656
623.886
744.6512
732.5674
729.9574
727.6136
727.339
728.8535
732.4883
737.7247
743.371
747.8737
749.9898
749.2511
746.0078
741.0771
735.2722
729.1067
722.7968
716.466
710.3529
704.871
700.5048
697.6252
696.3344
696.4046
697.3233
698.4174
699.0198
698.6343
697.0532
694.3902
691.0154
687.4201
684.0732
681.3211
679.3521
678.2055
677.8057
678.013
678.6848
679.7129
681.0051
682.4259
683.7658
684.785
685.3016
685.2572
684.7123
683.7135
681.9156
678.0069
669.543
654.2206
632.7907
611.4685
600.0184
604.1849
618.2299
628.1021
627.6405
630.0596
740.3411
729.9926
728.4341
727.0688
727.903
730.6712
735.3139
740.8834
745.9725
749.1884
749.7223
747.5681
743.3423
737.8668
731.7971
725.4926
719.1287
712.8998
707.143
702.3064
698.804
696.8515
696.3652
696.9582
698.0264
698.8935
698.9773
697.9335
695.7306
692.6313
689.0862
685.5884
682.5487
680.2288
678.7306
678.0219
677.9839
678.47
679.3556
680.5434
681.9195
683.3069
684.4762
685.2178
685.4252
685.126
684.4001
683.0857
680.2538
673.8441
661.3568
642.1693
620.27
604.178
601.6064
611.7609
623.9818
628.43
628.9081
636.6965
736.658
728.0791
727.4772
727.1801
729.2173
733.1157
738.3828
743.7698
747.874
749.6245
748.6612
745.3243
740.347
734.469
728.1982
721.8086
715.4961
709.5339
704.3126
700.2514
697.6478
696.5506
696.7102
697.6194
698.6283
699.1019
698.5785
696.8816
694.1464
690.7518
687.1874
683.9133
681.263
679.4077
678.3679
678.0553
678.3297
679.0546
680.1217
681.4273
682.8235
684.1019
685.0406
685.4885
685.4269
684.9381
683.9888
681.9712
677.2379
667.3487
650.7719
629.5539
610.4842
601.8976
606.8002
618.6928
627.0474
629.1167
632.2749
639.7976
733.6049
726.7965
727.1411
728.0104
731.2205
735.9689
741.3957
746.1334
748.9691
749.2268
746.9327
742.6406
737.091
730.9122
724.5062
718.1225
712.0042
706.4801
701.9408
698.7264
696.9941
696.632
697.2534
698.2709
699.0332
698.9871
697.818
695.5207
692.3746
688.8361
685.3938
682.4469
680.2397
678.8538
678.2409
678.2763
678.8185
679.7471
680.9596
682.33
683.6757
684.7767
685.4482
685.62
685.3516
684.6876
683.277
679.8722
672.2602
658.3942
638.758
618.2534
604.8219
603.9825
613.3331
623.78
628.6137
630.4664
635.8633
646.7664
731.1787
726.159
727.4857
729.5511
733.7568
738.963
744.0814
747.8086
749.2391
748.0846
744.6564
739.6063
733.622
727.2311
720.779
714.5272
708.7622
703.8288
700.0698
697.7142
696.773
696.9919
697.8789
698.8072
699.1665
698.5203
696.7169
693.9122
690.4978
686.9656
683.7686
681.2251
679.4857
678.5511
678.3218
678.6581
679.4293
680.5277
681.8412
683.213
684.4365
685.307
685.7061
685.6528
685.2263
684.2666
681.8877
676.1987
664.9509
647.4687
626.8396
609.9379
603.586
608.8846
619.4067
626.8915
629.4887
632.5805
641.9052
661.528
729.3903
726.203
728.5315
731.707
736.6024
741.8271
746.2302
748.7149
748.7261
746.3016
741.9318
736.2872
729.9841
723.4796
717.0993
711.1266
705.8669
701.6398
698.7052
697.1666
696.8964
697.5204
698.4764
699.1389
698.9779
697.6999
695.3195
692.1316
688.6003
685.2136
682.3604
680.2669
678.9937
678.4757
678.5831
679.1777
680.143
681.3727
682.732
684.035
685.072
685.6859
685.8465
685.6324
685.0127
683.4081
679.2905
670.4418
655.4083
635.6838
616.7043
605.5827
606.0463
614.7996
623.9517
628.4386
630.6838
637.2223
652.7042
677.4237
728.2672
726.9523
730.2317
734.3064
739.5045
744.326
747.7079
748.8415
747.5044
743.9755
738.838
732.7394
726.2327
719.7336
713.5648
708.0198
703.3909
699.9386
697.8207
697.0134
697.2649
698.1083
698.9471
699.1973
698.4432
696.5505
693.6895
690.2616
686.7624
683.6403
681.2009
679.5755
678.7459
678.601
678.9999
679.8152
680.9386
682.2515
683.5913
684.7559
685.5634
685.9347
685.9216
685.5679
684.538
681.6659
674.9234
662.4127
644.3332
624.5555
609.7184
605.2166
610.7699
620.1601
626.6783
629.4634
633.9149
645.9465
666.1137
686.0159
727.8389
728.386
732.4666
737.1292
742.2201
746.2833
748.4506
748.2241
745.6581
741.1913
735.4428
729.0239
722.441
716.0855
710.2741
705.2879
701.3761
698.719
697.3644
697.1688
697.7747
698.6521
699.2076
698.9369
697.5649
695.119
691.903
688.3858
685.0546
682.2906
680.3053
679.1414
678.7191
678.9016
679.5508
680.5504
681.7891
683.1263
684.3767
685.348
685.9199
686.1028
685.9691
685.3627
683.4501
678.4892
668.4099
652.4445
632.9532
615.5903
606.5157
607.9702
616.1024
624.0406
628.2043
631.6364
640.6009
657.6851
677.0926
685.5279
728.1162
730.4216
735.0581
739.941
744.545
747.5877
748.4498
746.922
743.2686
738.0242
731.814
725.215
718.6984
712.6328
707.314
702.9859
699.834
697.9476
697.2663
697.5384
698.3228
699.0586
699.1942
698.3379
696.3704
693.4704
690.0427
686.5826
683.5339
681.1922
679.6741
678.9467
678.8884
679.3542
680.2149
681.3584
682.6598
683.9549
685.0543
685.8083
686.1817
686.2413
685.9501
684.7581
681.2531
673.4002
659.7817
641.4246
622.719
609.833
606.837
612.4208
620.7171
626.4595
629.941
636.4948
650.4385
669.0418
682.2112
680.6292
729.0723
732.9162
737.796
742.5251
746.329
748.1853
747.7322
745.0035
740.4122
734.548
728.0292
721.4016
715.1024
709.4666
704.7498
701.1402
698.7482
697.5703
697.4441
698.0241
698.8118
699.2502
698.8663
697.4064
694.909
691.6813
688.1906
684.9195
682.2415
680.3574
679.2968
678.9688
679.2294
679.9364
680.9685
682.2083
683.5112
684.7003
685.6106
686.1644
686.4019
686.3519
685.6902
683.3374
677.4373
666.206
649.5846
630.6113
614.8902
607.5776
609.6925
617.1224
624.0634
628.3547
633.448
644.3807
661.2286
676.7313
682.0292
677.867
730.6323
735.6835
740.4677
744.7029
747.4763
748.0658
746.3443
742.5387
737.1649
730.8436
724.179
717.6825
711.7476
706.6604
702.62
699.7492
698.0798
697.5181
697.8079
698.529
699.1544
699.1684
698.2082
696.1725
693.2464
689.8334
686.4228
683.4504
681.2025
679.7853
679.1555
679.1836
679.7182
680.6244
681.7831
683.0636
684.3056
685.3409
686.0594
686.4633
686.6066
686.3305
684.8618
680.6103
671.661
657.1449
638.8057
621.3047
610.1906
608.3528
613.7707
621.1162
626.5039
631.1005
639.5432
654.0532
670.188
679.7812
680.2786
681.6046
732.6757
738.5179
742.882
746.3432
747.9384
747.2473
744.3424
739.6006
733.6093
727.0036
720.3645
714.1565
708.7152
704.2637
700.9367
698.7882
697.7732
697.7116
698.2654
698.9617
699.2785
698.777
697.229
694.6867
691.4588
688.0069
684.804
682.2137
680.427
679.4647
679.2277
679.5657
680.3298
681.3914
682.6258
683.8881
685.0158
685.8777
686.437
686.7431
686.7469
685.9371
683.0282
676.1551
663.9105
646.9017
628.6466
614.5057
608.658
611.1659
617.9214
624.2134
629.04
635.7641
647.7872
663.3577
675.699
680.0512
681.1921
691.0848
735.0474
741.219
744.8832
747.3603
747.7013
745.7658
741.7906
736.2697
729.839
723.1321
716.6895
710.9127
706.0652
702.3003
699.6874
698.2141
697.7602
698.0657
698.7252
699.2406
699.1306
698.0641
695.961
693.0151
689.6267
686.2754
683.3855
681.2323
679.913
679.3768
679.488
680.0891
681.0379
682.2072
683.4626
684.6517
685.6325
686.3341
686.7834
686.9936
686.6613
684.808
679.7445
669.7707
654.5757
636.4838
620.231
610.6826
609.7202
614.8906
621.525
626.9369
632.746
642.5268
656.7196
670.5082
678.2606
680.7962
686.3644
700.5938
737.575
743.6106
746.3558
747.7065
746.7756
743.6701
738.7626
732.6383
725.9603
719.3383
713.2515
708.0215
703.8326
700.7696
698.8407
697.97
697.965
698.493
699.1014
699.2987
698.6788
697.0417
694.4559
691.2334
687.8283
684.7014
682.2035
680.5148
679.648
679.4981
679.9093
680.7266
681.8138
683.0401
684.2628
685.3372
686.166
686.7452
687.1129
687.1188
686.0664
682.5184
674.6875
661.587
644.4164
627.0022
614.3411
609.7089
612.4506
618.6502
624.6149
630.1585
638.2
650.6112
664.7065
675.0867
679.888
684.0762
693.6317
705.4514
740.0855
745.5496
747.2214
747.3631
745.1899
741.0222
735.3457
728.8128
722.0872
715.7281
710.1316
705.5294
702.0279
699.6504
698.3502
697.9895
698.3063
698.9074
699.318
699.0873
697.9148
695.7441
692.7797
689.4205
686.1351
683.3339
681.279
680.0575
679.6119
679.8012
680.4635
681.4504
682.628
683.8601
685.0037
685.9435
686.6425
687.1376
687.3799
686.9136
684.5864
678.6819
667.7779
652.1001
634.4257
619.4214
611.2569
610.9746
615.9019
622.0616
627.7232
634.6171
645.2136
658.7456
670.8208
678.0185
682.4197
689.4258
699.826
706.6904
742.421
746.9285
747.4326
746.3345
742.9897
737.9
731.6436
724.9106
718.334
712.3943
707.3886
703.4579
700.6399
698.9062
698.1592
698.2
698.7017
699.2282
699.3126
698.5785
696.8532
694.2237
691.0076
687.6531
684.6076
682.207
680.6187
679.8462
679.779
680.2575
681.1224
682.232
683.4516
684.6415
685.675
686.4856
687.0912
687.5008
687.4487
686.0674
681.821
673.0684
659.2624
642.1151
625.6237
614.3454
610.7389
613.6281
619.4039
625.2653
631.5406
640.5551
652.9779
665.8335
675.1485
680.6644
686.4131
695.2237
703.8252
706.1938
744.4431
747.6721
746.9671
744.6447
740.2385
734.3998
727.7738
721.0532
714.8055
709.4091
705.0561
701.8056
699.6404
698.4888
698.2034
698.5246
699.0701
699.384
699.0407
697.7671
695.5298
692.5468
689.2173
686.0008
683.2926
681.3395
680.2167
679.8588
680.1207
680.8378
681.8581
683.0439
684.2578
685.3672
686.2809
686.9889
687.523
687.7561
687.0798
684.2031
677.4461
665.7089
649.7213
632.5995
618.8318
611.9003
612.157
616.8685
622.7341
628.7528
636.5529
647.628
660.4851
671.3966
678.4573
683.9819
691.4572
700.3184
705.4671
702.2739
746.0386
747.7328
745.8248
742.3387
737.0209
730.6356
723.8628
717.3569
711.5882
706.8191
703.1428
700.5523
698.9888
698.3421
698.4137
698.8855
699.3356
699.3173
698.4783
696.6701
693.998
690.7878
687.484
684.522
682.2218
680.7359
680.0568
680.0679
680.6072
681.5139
682.6436
683.8592
685.0252
686.0318
686.8388
687.4747
687.9026
687.7326
685.9434
680.953
671.3235
656.953
639.9883
624.4792
614.4916
611.7539
614.7325
620.1963
626.1021
633.0686
642.8008
655.0813
666.9638
675.6297
681.6752
688.2902
696.7083
703.5864
703.819
696.0519
747.1186
747.0873
744.0282
739.4845
733.4425
726.7352
720.037
713.9232
708.744
704.6454
701.637
699.664
698.6362
698.4045
698.7175
699.2064
699.4316
698.9875
697.623
695.3248
692.3241
689.0235
685.8755
683.2613
681.4117
680.3877
680.1147
680.4439
681.2096
682.2591
683.4528
684.6541
685.7406
686.6434
687.3717
687.937
688.1192
687.161
683.6698
676.0606
663.5891
647.4489
630.9896
618.4316
612.5936
613.276
617.8082
623.5242
629.9574
638.5085
649.8534
662.0869
672.153
679.1915
685.4901
693.233
700.8179
703.6475
699.5978
695.5056
747.6162
745.736
741.6244
736.1748
729.6276
722.8317
716.412
710.8307
706.308
702.8856
700.5108
699.0973
698.5274
698.6102
699.0416
699.4163
699.3049
698.374
696.4939
693.7852
690.582
687.3276
684.4479
682.2477
680.8639
680.2765
680.3622
680.957
681.9005
683.0477
684.2609
685.4102
686.4031
687.2211
687.8914
688.3141
687.9679
685.6997
679.9327
669.4813
654.6828
638.0378
623.5444
614.7486
612.7431
615.7797
621.041
627.1036
634.7035
644.9535
657.0021
668.0955
676.3457
682.8469
690.0083
697.7186
702.3275
700.8016
697.356
706.0443
747.4857
743.7058
738.6876
732.5251
725.712
719.0535
713.0839
708.1308
704.2895
701.5187
699.7255
698.8026
698.6034
698.8906
699.3142
699.453
698.9189
697.4774
695.1299
692.1179
688.8472
685.7657
683.2431
681.4949
680.5677
680.3768
680.7692
681.5792
682.6543
683.8545
685.046
686.1186
687.0248
687.7843
688.3724
688.462
687.1546
682.9961
674.5504
661.4497
645.3009
629.5861
618.1907
613.3145
614.3391
618.7472
624.4396
631.3103
640.4627
651.9185
663.5856
673.0453
680.1704
687.0121
694.5508
700.3767
701.1166
698.3199
701.6996
721.7146
746.7039
741.0527
735.3187
728.6688
721.833
715.5135
710.1227
705.8474
702.6761
700.5106
699.2358
698.7264
698.8015
699.1769
699.4687
699.2676
698.2564
696.319
693.5858
690.3959
687.1918
684.3914
682.2873
681.0017
680.5026
680.6596
681.3069
682.284
683.446
684.6562
685.7933
686.7832
687.6253
688.3319
688.7235
688.1439
685.3348
678.7763
667.5731
652.4818
636.2719
622.8012
615.0916
613.7028
616.7913
621.955
628.2511
636.4059
647.0052
658.7817
669.2694
677.3042
684.1654
691.4224
697.9716
700.6832
699.2407
700.008
711.7086
731.6587
745.2725
737.8638
731.6422
724.7479
718.1187
712.3009
707.5691
703.9788
701.439
699.8191
698.9921
698.8118
699.0572
699.4014
699.4475
698.8273
697.3208
694.9389
691.9279
688.6936
685.6787
683.2435
681.5909
680.755
680.6424
681.0957
681.948
683.0466
684.2515
685.4337
686.4987
687.4195
688.2174
688.8146
688.7668
687.0479
682.1857
672.9404
659.3263
643.3022
628.3879
618.0899
614.0501
615.3545
619.6981
625.4657
632.7678
642.3875
653.8547
665.0552
674.1246
681.3615
688.3906
695.2581
699.5304
699.7131
699.5211
706.3389
721.6561
733.8601
743.2213
734.2557
727.7977
720.902
714.6774
709.4763
705.4359
702.5039
700.5392
699.3976
698.9425
698.9997
699.3053
699.5021
699.2057
698.1184
696.1357
693.393
690.2288
687.0807
684.3587
682.3448
681.1501
680.7334
680.9585
681.6569
682.6671
683.8426
685.0491
686.1762
687.171
688.0451
688.7822
689.1093
688.2387
684.8396
677.4976
665.6331
650.3856
634.7057
622.2397
615.5025
614.6271
617.7711
622.9281
629.5086
638.1438
648.9744
660.4927
670.5487
678.4713
685.467
692.3828
697.763
699.6006
699.4467
703.0413
714.1488
728.0152
738.0335
740.6106
730.3688
723.9302
717.2571
711.5905
707.0697
703.712
701.3876
699.9319
699.1972
699.0327
699.2289
699.4826
699.4253
698.7142
697.1472
694.7429
691.7475
688.5609
685.6174
683.267
681.7027
680.9503
680.9103
681.4224
682.3173
683.4399
684.649
685.8228
686.8847
687.8265
688.6609
689.2431
689.007
686.8213
681.2404
671.2581
657.2583
641.4795
627.3944
618.109
614.7829
616.3181
620.6578
626.5835
634.3061
644.2913
655.7178
666.5506
675.3584
682.6085
689.473
695.5221
698.8601
699.4349
701.1629
708.524
720.7713
733.8278
752.3443
737.5306
726.3577
720.1779
713.9158
708.9082
705.0837
702.3682
700.5867
699.5698
699.1676
699.2065
699.4381
699.5309
699.1302
697.963
695.9395
693.1987
690.0736
686.9915
684.3509
682.4232
681.3114
680.9693
681.258
682.0072
683.052
684.2424
685.4461
686.5662
687.5704
688.4764
689.2264
689.4455
688.227
684.2054
676.1145
663.6979
648.4265
633.3458
621.8393
615.9547
615.5049
618.7239
623.9622
630.8682
639.9186
650.893
662.1733
671.9078
679.7166
686.6101
692.9779
697.5045
699.199
700.1943
704.7126
714.4262
727.2985
744.1354
771.9662
734.0961
722.3784
716.6609
710.9511
706.6505
703.4984
701.3642
700.0545
699.4049
699.2571
699.4066
699.5682
699.401
698.5918
696.961
694.5385
691.5689
688.4419
685.5776
683.3131
681.8321
681.1551
681.1812
681.7493
682.6879
683.8368
685.0527
686.221
687.2835
688.2472
689.1056
689.6365
689.1572
686.4601
680.1689
669.5337
655.278
639.8432
626.5857
618.2148
615.4947
617.2391
621.6471
627.803
635.9237
646.1805
657.5243
668.0571
676.6583
683.8012
690.3015
695.6297
698.5331
699.6549
702.299
709.4039
720.9262
736.5566
759.0037
786.8116
730.4418
718.5759
713.4725
708.4039
704.8105
702.2781
700.6536
699.7437
699.3888
699.4128
699.5752
699.5652
699.056
697.803
695.7362
693.0008
689.9232
686.9165
684.3628
682.5206
681.4862
681.2117
681.5595
682.3587
683.44
684.6485
685.8531
686.9704
687.9862
688.916
689.6502
689.7111
688.093
683.435
674.6507
661.7975
646.6165
632.1731
621.5625
616.4228
616.3446
619.6826
625.0841
632.3303
641.7167
652.7547
663.8158
673.3029
680.9724
687.613
693.3993
697.355
699.1486
700.8503
705.6737
715.1647
729.3592
749.2568
774.0967
793.6086
726.7107
715.0712
710.6745
706.2846
703.3604
701.3779
700.1885
699.6073
699.4725
699.5805
699.6573
699.3838
698.4746
696.7758
694.3327
691.391
688.3296
685.551
683.3756
681.9761
681.3696
681.4568
682.0786
683.0614
684.2393
685.4656
686.633
687.7
688.682
689.5436
689.9802
689.2045
685.9648
678.9902
667.7942
653.3988
638.3766
625.9218
618.3743
616.188
618.1546
622.7054
629.1322
637.5971
648.0302
659.2656
669.563
677.9939
684.9438
690.9893
695.7107
698.3968
699.9436
703.0928
710.3374
722.6225
740.513
763.6506
785.4822
791.9764
723.0403
711.9541
708.2963
704.5781
702.2587
700.7492
699.9218
699.599
699.6059
699.7064
699.603
698.9914
697.653
695.5397
692.8067
689.7771
686.8489
684.3856
682.6304
681.6717
681.4616
681.8656
682.7139
683.8329
685.0622
686.2718
687.3908
688.4185
689.3594
690.0444
689.8973
687.8381
682.5451
673.1314
659.9468
644.9429
631.1487
621.3701
616.8999
617.1799
620.6935
626.312
633.8721
643.502
654.5442
665.423
674.7275
682.2323
688.5254
693.7352
697.2677
699.1965
701.3946
706.5872
716.6405
732.4373
753.9355
777.0079
790.0441
779.2728
719.5546
709.2786
706.3378
703.2503
701.4569
700.3433
699.8079
699.6722
699.7384
699.7395
699.3713
698.3702
696.6054
694.1391
691.2217
688.2238
685.5312
683.4461
682.1287
681.5921
681.7393
682.4138
683.4406
684.6483
685.8875
687.0577
688.1317
689.1264
689.9682
690.2688
689.1515
685.3513
677.7289
666.0572
651.6135
637.0449
625.3614
618.5716
616.8884
619.1117
623.86
630.5552
639.2861
649.8161
660.9462
671.0744
679.3558
686.0436
691.584
695.7711
698.3278
700.235
703.8611
711.6365
725.0993
744.6731
767.8051
785.6749
784.974
759.421
716.3543
707.0629
704.7755
702.2551
700.9046
700.1139
699.8025
699.7801
699.8201
699.6341
698.9334
697.5195
695.3627
692.6297
689.6427
686.7886
684.4135
682.7451
681.863
681.7184
682.1796
683.077
684.2333
685.4831
686.6991
687.8225
688.8611
689.7998
690.4042
690.0071
687.477
681.5596
671.5772
658.146
643.3788
630.2332
621.2402
617.4017
618.0537
621.7893
627.6378
635.4535
645.2414
656.2606
667.0085
676.1791
683.4876
689.3661
694.0095
697.1977
699.2769
701.9454
707.6984
718.687
735.9892
758.2386
778.8765
786.1131
771.7161
745.3919
713.5117
705.294
703.5693
701.5414
700.5529
700.017
699.8619
699.8755
699.8039
699.3532
698.2751
696.4553
693.9692
691.0727
688.1314
685.5182
683.5197
682.2841
681.8196
682.0296
682.7589
683.8296
685.0652
686.3155
687.489
688.5706
689.5717
690.3731
690.5029
689.0101
684.6414
676.4072
664.3306
649.906
635.816
624.8806
618.8136
617.6308
620.1432
625.1084
632.0329
640.9501
651.5299
662.5853
672.6047
680.7395
687.1046
692.1057
695.8009
698.2723
700.5416
704.7489
713.3506
728.1093
748.7562
770.6456
783.7125
778.1972
757.5865
745.3578
711.0674
703.935
702.67
701.0575
700.3562
700.0104
699.9424
699.9125
699.6482
698.8719
697.3981
695.2092
692.4792
689.5305
686.7419
684.4471
682.8613
682.0564
681.9812
682.5038
683.4522
684.644
685.9106
687.1302
688.257
689.3038
690.2284
690.7266
690.047
687.0267
680.4997
670.0009
656.3895
641.9023
629.4062
621.1741
617.9548
618.9947
622.9693
629.0236
637.0278
646.919
657.9276
668.6049
677.6696
684.7359
690.1384
694.2149
697.1022
699.3618
702.5768
709.1193
721.2451
739.7159
761.6336
778.8152
781.0501
766.4101
750.1271
755.2229
709.0342
702.9329
702.0254
700.7547
700.2723
700.0534
700.0003
699.848
699.3203
698.1791
696.32
693.825
690.9517
688.0613
685.518
683.5978
682.4407
682.0504
682.3286
683.1169
684.2316
685.4912
686.7473
687.9204
689.0071
690.008
690.7518
690.6834
688.7904
683.8518
675.0395
662.6165
648.265
634.6763
624.4798
619.1202
618.4383
621.2477
626.4136
633.5151
642.5665
653.1965
664.2316
674.1844
682.1423
688.1081
692.5309
695.7629
698.2018
700.9101
705.879
715.5236
731.4412
752.3453
772.0358
780.7665
772.9984
756.8158
751.3784
765.705
707.3994
702.227
701.585
700.5882
700.2616
700.1053
699.9937
699.6445
698.7986
697.2786
695.0726
692.3554
689.4459
686.7163
684.4923
682.982
682.2527
682.2505
682.8398
683.8419
685.0668
686.3441
687.5613
688.6875
689.7381
690.6373
691.0078
690.0202
686.4968
679.3769
668.409
654.6752
640.5084
628.6708
621.1882
618.5772
619.9999
624.1977
630.4181
638.5675
648.5579
659.6029
670.2578
679.199
685.9402
690.7965
694.3138
696.9679
699.4992
703.4087
710.9368
724.1872
743.2603
763.9658
777.7149
776.8914
763.8585
753.2039
757.8229
769.2656
706.1303
701.7558
701.3025
700.5174
700.286
700.1263
699.8833
699.273
698.0747
696.1892
693.6988
690.8567
688.0172
685.5371
683.6868
682.603
682.2873
682.6379
683.4892
684.6479
685.9264
687.1812
688.3482
689.4357
690.4289
691.0986
690.8079
688.4949
682.9884
673.6316
660.9179
646.6928
633.6332
624.1745
619.5063
619.3076
622.3921
627.7259
634.9714
644.1541
654.8758
665.9394
675.8178
683.516
688.9897
692.8173
695.658
698.174
701.4526
707.3436
718.0817
734.8031
755.2182
772.3945
777.9337
769.8176
757.6655
755.3784
763.4144
762.2733
705.1817
701.4622
701.1363
700.5049
700.3085
700.078
699.6357
698.715
697.1542
694.9422
692.2492
689.3854
686.7143
684.5553
683.114
682.4575
682.5299
683.1893
684.2465
685.5013
686.7828
687.9909
689.1118
690.1606
691.0222
691.2434
689.9239
685.8877
678.1939
666.8053
653.0089
639.2074
628.0424
621.2959
619.2663
621.0409
625.4297
631.7907
640.0866
650.2146
661.3434
671.9749
680.7147
687.0245
691.293
694.3154
696.8602
699.7913
704.5219
713.1036
727.2806
746.3845
765.4068
776.2492
773.8708
762.9982
756.101
759.7313
762.9209
747.0082
704.5012
701.2959
701.0498
700.515
700.2927
699.9251
699.2249
697.9644
696.0564
693.5796
690.7779
687.9945
685.5773
683.7931
682.7788
682.5367
682.961
683.8764
685.0772
686.3693
687.6165
688.7724
689.8566
690.8331
691.4102
690.8718
688.1196
682.0499
672.1857
659.2414
645.2004
632.7015
623.977
619.9706
620.2152
623.5383
629.0174
636.412
645.7633
656.6224
667.719
677.4524
684.7794
689.6982
692.9785
695.5566
698.2833
702.2366
709.1098
720.8415
737.9679
757.4087
772.1816
775.5776
768.0104
758.9255
757.8514
761.5676
754.9126
730.6997
704.0356
701.2143
701.0093
700.5136
700.2039
699.6374
698.6355
697.0281
694.8121
692.1497
689.3388
686.7306
684.6376
683.2641
682.679
682.8257
683.555
684.6649
685.9449
687.2248
688.4194
689.5322
690.5735
691.3828
691.4298
689.7528
685.1949
676.95
665.1946
651.4007
638.0127
627.5318
621.4965
620.0036
622.0868
626.6419
633.1496
641.6285
651.9387
663.16
673.707
682.1353
687.9353
691.6428
694.2937
696.8688
700.2958
705.8928
715.4789
730.3249
749.0419
766.252
774.8122
771.7997
762.8858
757.9989
759.7316
758.053
742.408
719.5144
703.7337
701.1817
700.9831
700.4675
700.0104
699.1922
697.8629
695.9253
693.4617
690.7045
687.9829
685.6335
683.9182
682.9745
682.8061
683.3031
684.2794
685.5167
686.8163
688.0516
689.1952
690.2736
691.2235
691.6863
690.8713
687.6599
681.034
670.7046
657.5949
643.7989
631.8894
623.8861
620.4979
621.1369
624.6684
630.296
637.8743
647.4377
658.4468
669.5249
679.0101
685.8785
690.2478
693.0896
695.5463
698.5794
703.2421
711.0704
723.6392
740.8533
759.0866
771.7408
773.7482
766.9946
759.9047
758.6732
758.8068
749.6445
730.0389
714.0029
703.549
701.1676
700.9407
700.3452
699.6854
698.576
696.9148
694.6863
692.0519
689.296
686.756
684.7348
683.434
682.9231
683.144
683.9397
685.096
686.3936
687.6667
688.8469
689.9522
690.9814
691.7217
691.5662
689.504
684.4165
675.6474
663.5836
649.8594
636.9298
627.136
621.7764
620.7693
623.1246
627.843
634.5278
643.2315
653.7396
665.012
675.3807
683.4075
688.6848
691.9199
694.334
697.0373
700.991
707.4363
717.937
733.2352
751.3191
766.7676
773.5583
770.3633
762.9444
758.9083
758.6515
753.9435
738.9217
720.5577
711.4754
703.4403
701.1451
700.8523
700.1182
699.2086
697.7857
695.8103
693.3498
690.6327
687.974
685.6978
684.0588
683.1922
683.1004
683.6682
684.6988
685.9636
687.2634
688.4848
689.6181
690.6911
691.6043
691.9285
690.8059
687.1153
679.9435
669.1949
655.9864
642.4922
631.1926
623.8878
621.0705
622.0625
625.7917
631.5919
639.3927
649.1865
660.3131
671.2901
680.439
686.8218
690.708
693.2324
695.6654
699.0371
704.3967
713.1323
726.4067
743.4983
760.4388
771.2499
772.316
766.3294
760.4516
758.5833
756.1811
745.8268
728.4087
714.3465
711.0062
703.3731
701.0891
700.6892
699.7622
698.5684
696.8294
694.5787
691.9611
689.2549
686.7839
684.8408
683.6212
683.1911
683.4878
684.3451
685.5382
686.844
688.1056
689.2729
690.3742
691.3879
692.0417
691.654
689.179
683.5568
674.2938
661.981
648.3893
635.9539
626.8407
622.1175
621.5533
624.1622
629.0603
635.9571