/*--------------------------------*- C++ -*----------------------------------*\
| =========                 |                                                 |
| \\      /  F ield         | OpenFOAM: The Open Source CFD Toolbox           |
|  \\    /   O peration     | Version:  2312                                  |
|   \\  /    A nd           | Website:  www.openfoam.com                      |
|    \\/     M anipulation  |                                                 |
\*---------------------------------------------------------------------------*/
FoamFile
{
    version     2.0;
    format      ascii;
    arch        "LSB;label=32;scalar=64";
    class       volScalarField;
    location    "4500";
    object      k;
}
// * * * * * * * * * * * * * * * * * * * * * * * * * * * * * * * * * * * * * //

dimensions      [0 2 -2 0 0 0 0];

internalField   nonuniform List<scalar> 
12000
(
0.001994041
0.004352586
0.005216902
0.006158906
0.006941981
0.007648242
0.00825553
0.008813244
0.009331648
0.009822127
0.01024451
0.01061118
0.01095995
0.01130251
0.0116226
0.01187894
0.01209802
0.01230983
0.01252905
0.0127141
0.01284379
0.01296246
0.01307827
0.0131849
0.01324684
0.01328916
0.01332086
0.01333862
0.01333958
0.01333167
0.01329839
0.01325606
0.01319587
0.01307953
0.01300001
0.01296375
0.01286558
0.01266359
0.01231849
0.01200652
0.01189162
0.01187268
0.01158776
0.01094194
0.01046873
0.01029651
0.01025634
0.009819929
0.008951888
0.008315662
0.008257316
0.008021926
0.007104141
0.006395483
0.005983222
0.005331555
0.004645991
0.003987983
0.003414762
0.003242569
0.002151183
0.005326
0.006114435
0.007013982
0.007995607
0.009231421
0.01051396
0.01158203
0.01254036
0.01384236
0.01542628
0.0166573
0.01723201
0.01789212
0.01917555
0.02056602
0.02142264
0.0215999
0.02223835
0.02338409
0.0243121
0.02468021
0.02500313
0.02576084
0.02648911
0.02697353
0.0273424
0.02779797
0.0282273
0.02859292
0.02896327
0.02930772
0.02960715
0.0298123
0.03001717
0.03025126
0.03044672
0.03058208
0.03062589
0.03065295
0.03065252
0.0303471
0.03008893
0.02987573
0.02958478
0.02905198
0.02800857
0.02717078
0.02652899
0.0258483
0.02424845
0.02228911
0.02095319
0.01954716
0.01763235
0.01445251
0.01159913
0.008795406
0.00601323
0.005967384
0.003204435
0.006770352
0.0083769
0.009937433
0.01180753
0.01380794
0.01590655
0.01780181
0.0194524
0.02089156
0.02225509
0.02352105
0.02443353
0.02532981
0.02626636
0.02720834
0.02800014
0.02860465
0.02916349
0.02977039
0.03038477
0.03091226
0.03136084
0.03181072
0.03229208
0.03276653
0.03320368
0.03361969
0.03403153
0.03443575
0.03483762
0.03521272
0.03560666
0.03600734
0.03635363
0.03667856
0.03701805
0.03738123
0.03771915
0.03797045
0.03811892
0.03823582
0.03840543
0.03856055
0.03858225
0.03843959
0.03812749
0.03773163
0.03718189
0.03635033
0.03528596
0.0340808
0.03248195
0.03042445
0.02776757
0.02448483
0.02045507
0.01497495
0.008824553
0.008037146
0.003991454
0.007237681
0.009443562
0.01171547
0.01426923
0.01680054
0.01913957
0.02117599
0.02292724
0.02462366
0.02609237
0.02729005
0.02824822
0.02899135
0.02970521
0.03035356
0.03092235
0.03138557
0.03181631
0.03225014
0.03268077
0.03309095
0.03348565
0.03388397
0.03429349
0.03470767
0.03512119
0.03553582
0.03595393
0.03637387
0.03676158
0.0371593
0.03759351
0.03801521
0.03841686
0.03880948
0.03919492
0.03956684
0.03991612
0.04023154
0.04050102
0.04071637
0.04087373
0.04096495
0.04099275
0.04093035
0.04073238
0.0403924
0.0398987
0.03919291
0.03828581
0.03697576
0.03514437
0.03295937
0.03029761
0.0271471
0.0231756
0.01815759
0.01174862
0.009678186
0.004767148
0.007736087
0.01046516
0.01328558
0.0162295
0.01896716
0.02134825
0.02334131
0.02501616
0.02644491
0.02772434
0.02880608
0.02973346
0.03040277
0.03087811
0.03128313
0.03165087
0.03198665
0.03230536
0.03263605
0.03297414
0.03331981
0.03367625
0.03404764
0.0344363
0.03484151
0.03526161
0.03569599
0.03614402
0.03657704
0.03701366
0.03748255
0.03796085
0.03844434
0.03892647
0.03941043
0.03989388
0.04037048
0.04083396
0.04127711
0.04169209
0.04207356
0.04240416
0.04266581
0.04285021
0.04291621
0.04289757
0.04272799
0.04243711
0.04197423
0.04110018
0.03978013
0.03816681
0.03619902
0.03372595
0.03054454
0.02637421
0.020831
0.01353795
0.01085582
0.005461852
0.008093968
0.01116293
0.01426841
0.01735118
0.02012745
0.02249771
0.02445745
0.02606012
0.02734981
0.02836665
0.02916149
0.02981522
0.03040065
0.03087735
0.03123972
0.0315303
0.03180302
0.03207114
0.03234384
0.03262795
0.03292949
0.03325302
0.03360175
0.03397728
0.03437973
0.03480835
0.03526191
0.03573831
0.03623521
0.03675451
0.03729545
0.03785886
0.03844247
0.03902533
0.03961272
0.04021504
0.04081831
0.04141363
0.04199356
0.04254948
0.04307128
0.0435481
0.04396329
0.0442794
0.04448823
0.04456498
0.04455529
0.04433334
0.04375359
0.04282593
0.04156956
0.03996076
0.03790537
0.03528819
0.03198109
0.0277909
0.02236637
0.01516565
0.01179516
0.006113898
0.008382284
0.01166209
0.01489531
0.0179873
0.02070409
0.02297079
0.02480539
0.026276
0.02744339
0.02836772
0.02911138
0.02967542
0.03011139
0.03048581
0.03077562
0.03100281
0.03121785
0.03143694
0.03167316
0.03193488
0.03222834
0.03255772
0.03292547
0.03333265
0.03377917
0.03426415
0.03478628
0.0353438
0.03593485
0.03655825
0.03720404
0.03787407
0.03857239
0.0392909
0.04002081
0.04075977
0.04150284
0.0422424
0.04296952
0.0436734
0.04434112
0.04495728
0.04550414
0.04595754
0.04630568
0.0465042
0.04651031
0.04623378
0.04567194
0.04480453
0.04358759
0.04196461
0.03986639
0.03720252
0.03383692
0.02954175
0.02390614
0.01630647
0.01248799
0.006667645
0.008611907
0.01199418
0.01521716
0.01821438
0.02080377
0.022981
0.02478487
0.02621511
0.02732583
0.02817113
0.02879296
0.02926774
0.02962815
0.02990748
0.03016637
0.03041198
0.03063196
0.03085824
0.03110631
0.03138769
0.03170957
0.03207652
0.03249113
0.03295462
0.03346712
0.03402686
0.03463147
0.03527849
0.03596538
0.0366922
0.03745602
0.03825282
0.03907759
0.03992585
0.04079203
0.0416701
0.04255313
0.04343257
0.04429803
0.04513698
0.04593428
0.04667163
0.04732645
0.0478687
0.04827234
0.04847209
0.04845999
0.04818104
0.04760142
0.04667952
0.0453723
0.04363064
0.04139276
0.03857506
0.03505371
0.0306236
0.02490557
0.0172931
0.0130377
0.007380808
0.008806827
0.01218486
0.01533204
0.01820774
0.0207505
0.02286124
0.02455291
0.02590047
0.02695295
0.02775884
0.02836835
0.02883174
0.02919026
0.02947909
0.02972889
0.02998441
0.03025361
0.03052778
0.03082674
0.03116199
0.03154038
0.0319661
0.03244114
0.03296539
0.03354071
0.03417473
0.03486384
0.03560485
0.03639443
0.03722655
0.03810276
0.03901845
0.03996215
0.04093015
0.04191708
0.0429163
0.04391966
0.04491714
0.04589647
0.04684268
0.04773754
0.04856016
0.04928326
0.04989017
0.05033916
0.05055199
0.05053126
0.05021683
0.04957199
0.04855869
0.04713725
0.04526398
0.0428847
0.03992363
0.03626177
0.03169179
0.02581832
0.0179924
0.01341997
0.007573298
0.008965485
0.01229544
0.01533582
0.01813383
0.02054227
0.02255979
0.02420131
0.02551551
0.02655265
0.02736266
0.02799395
0.02849139
0.02889431
0.02923665
0.02954587
0.02984578
0.03016212
0.03050062
0.0308523
0.03124139
0.0316793
0.03217127
0.0327212
0.03333204
0.03400286
0.03472604
0.03550183
0.03632868
0.03720393
0.03812404
0.03909284
0.04010486
0.04114578
0.04221103
0.04329468
0.04438932
0.0454859
0.04657338
0.04763835
0.04866466
0.04963315
0.05052071
0.0513033
0.05193793
0.05237757
0.05257119
0.05250311
0.05211742
0.05137374
0.05023549
0.0486694
0.0466396
0.04409956
0.04098046
0.03716947
0.03246634
0.02648752
0.01860119
0.01372809
0.007606615
0.009034202
0.01234097
0.0152828
0.01792589
0.02023609
0.02219099
0.02380723
0.02512372
0.02618594
0.02703994
0.02772945
0.02829431
0.02876974
0.02918602
0.02956258
0.02992505
0.03029677
0.03070156
0.03115331
0.03163987
0.03216782
0.03274427
0.03337394
0.03405916
0.03480031
0.03559626
0.03644546
0.03734577
0.03829441
0.03928799
0.04033007
0.04141545
0.0425302
0.04366882
0.04482464
0.04598957
0.04715374
0.04830519
0.0494294
0.05050878
0.05152188
0.0524427
0.05323808
0.05387208
0.05430275
0.05447442
0.05435271
0.05388298
0.05302465
0.05174771
0.05002863
0.04784202
0.04514971
0.04188723
0.0379429
0.03311467
0.02701279
0.01899401
0.01390759
0.008688864
0.00913512
0.01235654
0.01520616
0.01774244
0.01996413
0.02186286
0.02345562
0.02477598
0.02586414
0.02676147
0.02751083
0.02815106
0.02871548
0.02922555
0.02970986
0.03018178
0.03065726
0.03115369
0.03168333
0.03225496
0.03286839
0.03352769
0.03423592
0.03499525
0.0358066
0.03666971
0.03758343
0.03854594
0.03955473
0.04060671
0.04170368
0.04284097
0.044007
0.04519563
0.04639962
0.04761024
0.04881693
0.05000687
0.05116446
0.05227072
0.05330267
0.05423272
0.05503038
0.05565407
0.05605717
0.05618608
0.05599268
0.05541953
0.05443101
0.0530088
0.05114128
0.04881199
0.04598652
0.04260134
0.03854515
0.03361691
0.02743036
0.019349
0.01406301
0.008790688
0.009182015
0.01233863
0.01506546
0.01748485
0.01961642
0.02146275
0.02304076
0.02438031
0.02551797
0.02649188
0.02733452
0.02807437
0.0287357
0.02934642
0.02993076
0.03051046
0.03110048
0.03170978
0.03234623
0.03301479
0.03371858
0.03446149
0.03524857
0.03608186
0.0369605
0.03788352
0.03885012
0.03985962
0.04091037
0.04200026
0.04312964
0.04429503
0.04548771
0.04670097
0.04792689
0.04915634
0.05037833
0.05157975
0.0527448
0.05385432
0.05488474
0.05580726
0.05658492
0.0571787
0.0575424
0.05761708
0.05734175
0.05665856
0.05554062
0.0539926
0.05200955
0.04956989
0.04663991
0.04315575
0.03900551
0.03398694
0.02771164
0.01954261
0.01412456
0.008907302
0.009196078
0.01230635
0.01494452
0.01727505
0.01934221
0.02115796
0.02273921
0.02411103
0.02530175
0.02633877
0.02724531
0.02805047
0.02878842
0.02949475
0.03018924
0.03088449
0.03158737
0.03230244
0.03303612
0.03379578
0.03459072
0.03542596
0.03630077
0.03721082
0.03815042
0.03911796
0.04012057
0.04116295
0.0422418
0.04335518
0.04450188
0.04567944
0.04688267
0.04810429
0.04933563
0.05056686
0.05178656
0.05298119
0.05413462
0.05522747
0.05623653
0.05713382
0.0578875
0.05845806
0.05878994
0.05881673
0.05847035
0.05769116
0.05645466
0.05478551
0.0526995
0.05017013
0.0471547
0.0435901
0.03936535
0.03427969
0.0279465
0.01972918
0.0141871
0.00909099
0.009197158
0.012256
0.01483052
0.01709257
0.0191091
0.0209023
0.02248785
0.02388358
0.02510946
0.0261885
0.02714983
0.02802368
0.02884722
0.02965143
0.03044649
0.03123737
0.03203245
0.03284195
0.03367176
0.03452548
0.03540421
0.03631036
0.03724622
0.03821159
0.03920519
0.04022585
0.04127209
0.04234186
0.04343875
0.04456742
0.04572512
0.04690977
0.04811729
0.04933991
0.05056929
0.05179485
0.05300456
0.0541843
0.05531746
0.05638661
0.05737394
0.05825452
0.05899277
0.05954407
0.05985077
0.05984127
0.05943586
0.0585736
0.05723351
0.05544162
0.05324777
0.05063295
0.04754019
0.04390592
0.03961763
0.03447276
0.02808241
0.01980795
0.01419228
0.009261515
0.009199208
0.01221554
0.01473166
0.01693201
0.01890229
0.02067071
0.02225271
0.02366333
0.02492034
0.02604478
0.02706052
0.02800209
0.02890742
0.02979288
0.030669
0.0315457
0.03243059
0.03332851
0.03424081
0.03516859
0.03611494
0.0370821
0.03807085
0.03908158
0.04011457
0.04117085
0.04225155
0.04335703
0.04448604
0.04563399
0.04679247
0.04796465
0.04916227
0.05038034
0.05160342
0.05281939
0.0540172
0.05518463
0.05630732
0.05736818
0.05834599
0.05921323
0.05993404
0.06046143
0.06073511
0.06068301
0.06022696
0.05929758
0.05786477
0.05596455
0.05367185
0.05097935
0.0478246
0.04413686
0.03980211
0.03461732
0.02819394
0.01988999
0.01419653
0.009400197
0.009208538
0.01217806
0.01464616
0.0167951
0.01872418
0.02046712
0.02204053
0.02345852
0.02473739
0.02589676
0.0269593
0.02795611
0.02892241
0.02987962
0.03083595
0.03179597
0.03276159
0.03373277
0.0347126
0.03570396
0.03670885
0.03772796
0.03876216
0.03981277
0.04088099
0.04196811
0.04307515
0.04420233
0.0453479
0.04650639
0.04766735
0.04883549
0.05002715
0.05123986
0.05245878
0.05367058
0.05486285
0.05602322
0.0571378
0.05818969
0.05915729
0.06001203
0.0607163
0.06122132
0.0614653
0.06137464
0.06086896
0.05988195
0.05838492
0.05640869
0.05402976
0.05126856
0.04806555
0.04433442
0.0399593
0.03473612
0.02827551
0.01992886
0.01418009
0.009510403
0.009223295
0.01215018
0.01457686
0.01668103
0.01857116
0.02028739
0.02184858
0.02326912
0.02456447
0.0257527
0.02685448
0.0278992
0.02892068
0.02993858
0.03095863
0.03198319
0.03301291
0.03404843
0.03508983
0.03613705
0.03719031
0.03825174
0.03932354
0.04040728
0.04150459
0.04261721
0.04374645
0.04489245
0.04605302
0.04722185
0.04838635
0.04954886
0.05073075
0.05193746
0.05315312
0.05436099
0.0555484
0.05670331
0.05781197
0.05885721
0.05981672
0.06066108
0.0613516
0.06183816
0.06205775
0.06193641
0.0613915
0.06035393
0.05879234
0.05674105
0.05428632
0.05146684
0.04821973
0.04444844
0.04003662
0.03478105
0.02829482
0.01993212
0.01414437
0.0095948
0.00925187
0.01214382
0.01452792
0.01658756
0.01843891
0.02012669
0.021672
0.02309027
0.0243969
0.02560904
0.02674562
0.02783145
0.0288972
0.02996268
0.03103525
0.0321145
0.03319901
0.03428714
0.03537736
0.0364692
0.03756313
0.03866121
0.03976539
0.04087741
0.04199937
0.04313327
0.04428043
0.04544073
0.04661162
0.04778759
0.04896105
0.05012627
0.0512977
0.05249365
0.05370464
0.05491016
0.05609573
0.05724869
0.05835513
0.05939758
0.06035304
0.06119094
0.06187116
0.06234208
0.06253947
0.06238912
0.06180754
0.0607267
0.05911536
0.05700764
0.05449378
0.05162749
0.0483459
0.04454565
0.04010962
0.03483273
0.02832183
0.01993932
0.0141182
0.009664352
0.009296373
0.01215129
0.01449464
0.01651188
0.01832471
0.01998221
0.02150879
0.02292129
0.0242354
0.02546751
0.02663472
0.02775496
0.02885439
0.02995793
0.03107
0.03219087
0.03331745
0.03444678
0.03557641
0.03670538
0.03783411
0.03896343
0.04009507
0.04123142
0.04237495
0.04352786
0.04469157
0.04586597
0.04704859
0.04823408
0.04941495
0.05058369
0.05175338
0.0529451
0.05415315
0.05535835
0.0565456
0.05770118
0.05881028
0.05985465
0.06081033
0.06164555
0.06231883
0.06277718
0.06295535
0.06277898
0.06216363
0.06104159
0.05938199
0.057221
0.05465438
0.05174552
0.04843026
0.04460036
0.04013853
0.03484189
0.02831953
0.0199264
0.01406653
0.009721166
0.009361387
0.01218622
0.01448375
0.01645447
0.01822607
0.01985096
0.02135586
0.02275901
0.02407638
0.02532357
0.02651598
0.02766805
0.02879765
0.02992664
0.03106683
0.032217
0.03337516
0.03453624
0.03569737
0.03685678
0.03801402
0.03916979
0.04032589
0.04148474
0.04264882
0.04382034
0.04500077
0.04619009
0.04738615
0.04858409
0.04977649
0.05095406
0.05212754
0.05331932
0.05452783
0.05573607
0.05692841
0.05808997
0.05920486
0.0602538
0.06121175
0.06204569
0.06271273
0.06315868
0.06331741
0.06311474
0.06246611
0.06130526
0.05960253
0.05739555
0.05478362
0.05183958
0.04849823
0.04464634
0.04016538
0.0348492
0.02831738
0.0199123
0.01403458
0.009777883
0.009454352
0.01224628
0.01449014
0.01641356
0.0181421
0.01973192
0.02121217
0.02260245
0.02391897
0.02517664
0.02638943
0.02756977
0.02872781
0.02987771
0.03103581
0.03220626
0.03338421
0.03456846
0.03575396
0.03693768
0.03811883
0.03929796
0.04047673
0.04165721
0.04284163
0.0440322
0.04523035
0.0464362
0.04764788
0.0488611
0.05006862
0.05125975
0.05244218
0.05363853
0.0548513
0.05606566
0.05726558
0.05843524
0.05955767
0.06061251
0.06157351
0.06240638
0.06306699
0.06350002
0.06363872
0.0634092
0.06272705
0.06152763
0.05978313
0.0575336
0.05488194
0.05190634
0.04854019
0.04466721
0.04016912
0.03484089
0.02829343
0.01987992
0.01397913
0.009835139
0.009574812
0.01233
0.01451775
0.01638742
0.01807023
0.01962287
0.02107594
0.02245001
0.0237614
0.02502435
0.02625148
0.02745367
0.02863947
0.02981492
0.03098806
0.03216982
0.03336332
0.03456194
0.0357627
0.0369651
0.03816681
0.03936729
0.04056706
0.04176789
0.04297225
0.04418227
0.04539924
0.04662313
0.04785199
0.04908164
0.05030606
0.05151898
0.05271789
0.05391818
0.05513568
0.05635987
0.05757008
0.05874935
0.05988014
0.06094121
0.06190521
0.0627366
0.06339004
0.06380928
0.06392714
0.06367017
0.06295464
0.06171792
0.05993447
0.05764682
0.05496061
0.05195835
0.048572
0.0446823
0.04016964
0.03483161
0.02827774
0.01985958
0.01394799
0.009897054
0.009725299
0.01244757
0.01457232
0.01638445
0.0180148
0.01952547
0.02094743
0.02230123
0.02360278
0.02486544
0.02610058
0.02731763
0.02852393
0.02972446
0.03092204
0.03211755
0.03331656
0.03452557
0.03574141
0.0369589
0.03817662
0.0393948
0.04061337
0.04183396
0.04305838
0.04428828
0.04552481
0.04676792
0.0480158
0.04926448
0.05050819
0.0517409
0.05295804
0.05417173
0.05539888
0.05663233
0.05785261
0.05904193
0.0601815
0.06124885
0.06221543
0.06304452
0.06368973
0.06409405
0.06419
0.06390473
0.06315544
0.06188172
0.06006071
0.05773783
0.05502123
0.05199534
0.04859051
0.04468562
0.04016107
0.03481068
0.0282467
0.01982258
0.01389678
0.009949025
0.009912843
0.01259002
0.01464565
0.01639263
0.01797168
0.01943888
0.02082691
0.02215669
0.02344375
0.02470055
0.02593727
0.02716206
0.02838104
0.02959836
0.03081635
0.03203575
0.03325643
0.03447736
0.03570032
0.03692895
0.03816228
0.0393973
0.04063457
0.04187448
0.04311839
0.0443679
0.04562404
0.04688673
0.04815432
0.04942324
0.05068811
0.05194218
0.05317869
0.05440787
0.05564716
0.05689152
0.05812247
0.05932179
0.06046967
0.06154248
0.06251053
0.06333598
0.06397149
0.06435945
0.06443232
0.06411789
0.06333473
0.06202479
0.06016817
0.05781321
0.05507006
0.05202404
0.04860374
0.04468609
0.04015269
0.03479593
0.02822764
0.01980168
0.01387041
0.009988185
0.0101179
0.01276189
0.01474378
0.01642336
0.01794358
0.01936355
0.0207146
0.02201705
0.02328567
0.02453199
0.02576507
0.02699194
0.02821769
0.0294457
0.03067777
0.03191449
0.0331555
0.03439985
0.03564648
0.03689436
0.03814218
0.03939162
0.0406458
0.04190477
0.04316835
0.04443742
0.04571293
0.04699501
0.04828223
0.04957125
0.05085684
0.05213222
0.05338971
0.05463683
0.05588965
0.05714506
0.05838625
0.05959475
0.0607498
0.06182668
0.06279455
0.06361458
0.06423862
0.06460863
0.06465715
0.06431274
0.06349559
0.06215009
0.06025951
0.05787519
0.05510897
0.05204562
0.048612
0.04468391
0.04014032
0.0347746
0.02819843
0.01976733
0.01382689
0.0103172
0.01035615
0.01296601
0.01486853
0.01647646
0.01793556
0.01930359
0.02061371
0.02188523
0.02313186
0.02436402
0.02558973
0.02681499
0.02804402
0.02927946
0.0305226
0.03177361
0.0330319
0.03429636
0.03556564
0.03683828
0.038113
0.03938894
0.0406654
0.04194241
0.04322304
0.04451044
0.04580454
0.047105
0.0484106
0.04971846
0.05102381
0.05232007
0.05359873
0.05486361
0.0561293
0.05739563
0.05864683
0.05986349
0.06102414
0.06210322
0.06306898
0.06388169
0.06449252
0.06484315
0.06486637
0.06449152
0.06364074
0.06226089
0.06033842
0.05792764
0.05514157
0.05206369
0.04861896
0.0446822
0.04013234
0.03476184
0.02818235
0.01974994
0.013807
0.0107625
0.01065305
0.0131925
0.01501966
0.01654891
0.01794121
0.019257
0.02052471
0.02176331
0.02298577
0.02420158
0.02541782
0.02663959
0.02787032
0.02911197
0.03036526
0.03162994
0.03290502
0.03418904
0.03548028
0.03677699
0.03807775
0.03938103
0.04068555
0.04199008
0.04329389
0.04459847
0.04590789
0.04722421
0.04854606
0.04987038
0.05119247
0.05250658
0.05380734
0.05509218
0.05636899
0.05764391
0.058904
0.06012759
0.06129228
0.06237181
0.06333366
0.06413734
0.06473352
0.06506374
0.06506118
0.06465575
0.0637721
0.06235936
0.06040718
0.05797271
0.05516981
0.05207946
0.0486248
0.04467981
0.04012308
0.03474618
0.02816038
0.01972344
0.01377384
0.01096329
0.01094851
0.01342974
0.01519078
0.01664003
0.0179661
0.0192262
0.02044953
0.02165376
0.02285084
0.0240493
0.02525527
0.026473
0.0277051
0.02895285
0.03021636
0.03149488
0.03278696
0.03409077
0.03540422
0.03672525
0.03805164
0.03938139
0.04071216
0.04204338
0.04337379
0.04470237
0.04602886
0.04735722
0.04869159
0.0500295
0.05136623
0.05269621
0.05401414
0.05531602
0.0566066
0.05789108
0.05915795
0.0603863
0.06155322
0.06263158
0.06358801
0.06438136
0.0649619
0.06527121
0.06524312
0.06480676
0.06389172
0.06244808
0.06046867
0.05801335
0.05519652
0.05209621
0.04863383
0.04468332
0.04012177
0.03474065
0.02815147
0.01971253
0.01376112
0.01109932
0.01125431
0.01368711
0.01538192
0.0167513
0.01800885
0.01921296
0.0203909
0.02156021
0.0227318
0.02391316
0.02510943
0.02632389
0.0275583
0.02881313
0.0300878
0.0313809
0.03269045
0.03401408
0.0353492
0.03669344
0.03804394
0.03939756
0.04075369
0.04211003
0.04346501
0.0448173
0.0461657
0.04750961
0.04885304
0.05020016
0.0515477
0.05289038
0.05422253
0.05553882
0.05684177
0.05813507
0.05940772
0.06063941
0.06180696
0.06288258
0.06383217
0.06461402
0.06517815
0.0654663
0.06541297
0.06494732
0.06400227
0.06252953
0.06052504
0.0580513
0.05522293
0.05211421
0.04864471
0.04468812
0.04012092
0.03473618
0.02814267
0.0196964
0.01373695
0.01117618
0.01156067
0.01395391
0.01558493
0.01688083
0.01806787
0.01921547
0.02034972
0.02148564
0.02263327
0.02379915
0.0249874
0.0262003
0.02743867
0.02870208
0.02998914
0.03129776
0.03262529
0.03396878
0.03532523
0.03669111
0.03806252
0.03943927
0.0408181
0.04219679
0.04357353
0.04494678
0.04631516
0.04767741
0.04903312
0.05038616
0.05173997
0.05309077
0.05443307
0.05576111
0.05707512
0.05837623
0.05965335
0.06088687
0.0620535
0.06312495
0.0640665
0.06483599
0.06538322
0.06565006
0.06557168
0.06507839
0.06410493
0.06260536
0.06057842
0.05808892
0.05525132
0.05213596
0.04866087
0.04470009
0.04013004
0.03474098
0.02814224
0.01969243
0.01373042
0.01130067
0.01188435
0.01423785
0.01580415
0.01702684
0.0181442
0.01923747
0.02032952
0.02143384
0.02255984
0.02371271
0.02489534
0.02610891
0.02735315
0.02862665
0.02992715
0.03125175
0.03259723
0.03395928
0.03533355
0.03671858
0.03811204
0.03950928
0.0409082
0.0423065
0.04370219
0.04509359
0.04647915
0.0478575
0.04922737
0.05058878
0.05194556
0.05330015
0.05464854
0.05598497
0.0573076
0.05861482
0.05989504
0.06112906
0.06229347
0.06335947
0.06429176
0.06504783
0.0655776
0.06582361
0.06572166
0.06520275
0.06420266
0.06267794
0.06063042
0.05812733
0.05528255
0.0521614
0.04868056
0.04471487
0.04014015
0.03474647
0.02814202
0.0196892
0.01371812
0.01146037
0.01220657
0.01453068
0.01603624
0.01718766
0.01823725
0.01927894
0.02033206
0.02140891
0.02251596
0.02365894
0.02483922
0.02605656
0.02730947
0.02859532
0.02991031
0.03124996
0.03260915
0.0339876
0.0353818
0.03678602
0.03819705
0.03961205
0.04102821
0.04244313
0.04385473
0.04526118
0.04666089
0.04805237
0.04943428
0.05080527
0.05216627
0.05352135
0.05487171
0.05621293
0.05754153
0.05885303
0.060135
0.06136832
0.06252928
0.06358874
0.06451126
0.06525429
0.06576755
0.06599305
0.06586699
0.06532239
0.06429761
0.06275109
0.06068611
0.05817071
0.05531885
0.0521923
0.04870674
0.04473727
0.04015925
0.03476248
0.02815539
0.01969465
0.01371616
0.01159693
0.01254255
0.01484052
0.01628637
0.01736737
0.01835018
0.01934242
0.02036036
0.02141498
0.02251247
0.0236505
0.0248311
0.02605272
0.02731162
0.02860518
0.02993134
0.03128579
0.03266505
0.03406211
0.03547285
0.03689336
0.03831996
0.03974985
0.04118018
0.04260857
0.04403292
0.04545138
0.04686225
0.048264
0.04965519
0.05103441
0.05240026
0.05375537
0.05510471
0.05644723
0.05777878
0.05909233
0.06037441
0.06160588
0.06276282
0.06381565
0.06472813
0.06545706
0.06595229
0.06615692
0.06600817
0.06544007
0.06439217
0.06282451
0.06074236
0.05821559
0.05535782
0.052227
0.04873698
0.04476306
0.04018043
0.03477837
0.02816488
0.01969867
0.01371267
0.0118159
0.01287097
0.01515468
0.0165438
0.01755946
0.01848216
0.01943068
0.02041702
0.02144941
0.02253098
0.02366491
0.02484807
0.02607763
0.0273506
0.0286618
0.03000504
0.03137589
0.03276953
0.03418087
0.03560537
0.03703902
0.0384785
0.03992053
0.04136236
0.04280156
0.04423603
0.04566385
0.0470833
0.04849275
0.04989067
0.05127557
0.05264599
0.05400188
0.05534792
0.05668843
0.05801977
0.05933305
0.06061373
0.06184207
0.06299329
0.06403719
0.06493751
0.06565145
0.06612928
0.06631451
0.06614454
0.06555391
0.0644829
0.06289421
0.06079649
0.05826113
0.05539943
0.05226535
0.04877176
0.04479452
0.04020832
0.03480269
0.0281847
0.01971198
0.01371247
0.01187217
0.01319837
0.01548135
0.01682151
0.01777498
0.01863832
0.01954518
0.02050551
0.02152391
0.02260149
0.02373698
0.02492691
0.02616675
0.02745138
0.02877511
0.03013198
0.03151632
0.03292246
0.03434528
0.0357804
0.03722414
0.03867314
0.04012424
0.04157464
0.04302191
0.04446384
0.04589848
0.04732401
0.04873874
0.05014107
0.05152944
0.05290234
0.05425821
0.05560057
0.05693642
0.05826455
0.05957521
0.06085233
0.0620752
0.0632186
0.06425222
0.06513994
0.06583896
0.06629961
0.06646549
0.06627502
0.06566376
0.06457317
0.06296692
0.06085479
0.05830993
0.05544454
0.0523074
0.04880998
0.04482922
0.04023945
0.03482845
0.02820406
0.01972442
0.01371206
0.01229758
0.01354084
0.01581888
0.01711046
0.01800576
0.01882263
0.01969617
0.02063627
0.02164468
0.02272022
0.02385926
0.02505659
0.02630618
0.02760157
0.02893623
0.03030391
0.03169866
0.0331148
0.03454713
0.03599129
0.0374435
0.03890017
0.04035822
0.04181491
0.04326779
0.0447147
0.04615368
0.04758294
0.04900075
0.05040537
0.0517951
0.05316827
0.05452332
0.05586173
0.0571906
0.05851273
0.05981829
0.06108983
0.06230583
0.06344057
0.06446344
0.06533809
0.06602189
0.06646559
0.06661321
0.06640376
0.06577327
0.06466415
0.06304164
0.06091745
0.0583656
0.05549672
0.05235603
0.0488542
0.04486875
0.04027428
0.03486002
0.02823097
0.01974266
0.01371944
0.01214414
0.01386679
0.01615705
0.01740606
0.01825033
0.01902518
0.01986796
0.02079139
0.02179327
0.02286949
0.02401413
0.02522022
0.02648027
0.02778677
0.02913241
0.03051044
0.03191462
0.0333394
0.03477979
0.03623149
0.03769052
0.03915335
0.04061683
0.04207827
0.04353527
0.04498569
0.04642744
0.04785859
0.04927737
0.05068218
0.0520714
0.05344333
0.05479631
0.05612977
0.05745068
0.05876547
0.06006442
0.06132899
0.06253678
0.06366162
0.06467276
0.06553394
0.06620271
0.06663002
0.06676015
0.06653261
0.065884
0.06475753
0.06311959
0.06098334
0.05842415
0.05555232
0.05240886
0.04890339
0.04491423
0.04031481
0.03489271
0.02825557
0.0197602
0.01372272
0.01214469
0.01415799
0.0164951
0.01771313
0.01851412
0.01925507
0.02007366
0.02098627
0.0219863
0.02306658
0.02421886
0.02543445
0.02670472
0.02802138
0.02937671
0.03076356
0.03217557
0.03360732
0.03505402
0.03651119
0.03797478
0.03944141
0.04090807
0.04237201
0.04383073
0.045282
0.04672394
0.04815472
0.04957253
0.05097565
0.05236239
0.05373107
0.05507987
0.05640708
0.05771972
0.05902624
0.06031707
0.06157297
0.06277098
0.06388464
0.0648831
0.06573014
0.06638346
0.06679432
0.06690729
0.06666229
0.06599637
0.06485346
0.06320103
0.06105357
0.05848736
0.05561201
0.05246499
0.04895518
0.04496197
0.04035918
0.03493422
0.02829108
0.01978275
0.01373351
0.01246073
0.01445156
0.01683681
0.01803501
0.01880229
0.01951741
0.02031805
0.02122478
0.02222653
0.02331306
0.02447405
0.02569934
0.02697934
0.02830516
0.02966879
0.03106306
0.03248164
0.03391887
0.03536981
0.03683008
0.03829594
0.03976401
0.04123129
0.04269509
0.04415313
0.04560319
0.04704333
0.04847172
0.04988664
0.05128622
0.05266862
0.05403197
0.05537445
0.05669419
0.0579981
0.05929505
0.06057602
0.06182144
0.06300799
0.06410899
0.06509358
0.06592568
0.06656318
0.06695757
0.06705371
0.06679181
0.06610935
0.06495085
0.0632847
0.06112657
0.05855363
0.05567488
0.05252436
0.04900997
0.04501169
0.04040297
0.03497106
0.02832093
0.01980621
0.01374295
0.0128789
0.01478416
0.01718897
0.01837258
0.01911376
0.01980971
0.02059765
0.02150242
0.0225086
0.02360307
0.02477355
0.02600862
0.02729789
0.02863201
0.03000276
0.0314029
0.0328261
0.03426682
0.03572022
0.03718205
0.03864854
0.04011638
0.04158262
0.04304471
0.0445004
0.04594769
0.04738451
0.04880891
0.05021898
0.05161288
0.05298877
0.05434481
0.05567916
0.05699001
0.05828416
0.05957044
0.06084017
0.06207352
0.06324705
0.06433406
0.0653038
0.06612032
0.06674172
0.06711971
0.0671994
0.06692121
0.06622295
0.06504966
0.06337051
0.06120221
0.05862275
0.05574059
0.05258658
0.04906794
0.04506544
0.04045248
0.03501593
0.02835966
0.01983558
0.01375764
0.01328187
0.01511129
0.0175449
0.01872558
0.01945028
0.02013429
0.02091457
0.02182089
0.02283362
0.02393699
0.02511705
0.02636134
0.02765886
0.02899998
0.03037637
0.03178082
0.03320703
0.03464956
0.03610363
0.03756516
0.03903045
0.04049632
0.04195993
0.04341886
0.04487076
0.04631348
0.04774501
0.04916339
0.05056676
0.05195323
0.05332098
0.05466815
0.05599291
0.0572935
0.05857674
0.05985144
0.06110871
0.0623286
0.06348772
0.06455957
0.06551358
0.06631401
0.06691914
0.06728086
0.06734451
0.0670506
0.06633724
0.06514985
0.06345827
0.06128016
0.0586942
0.05580836
0.05265048
0.049127
0.0451193
0.04050056
0.03505734
0.02839312
0.01985964
0.01376628
0.0133766
0.01540653
0.01790399
0.01909551
0.019813
0.02049171
0.02126883
0.02217964
0.02320058
0.0243135
0.02550299
0.02675577
0.02806041
0.02940712
0.03078757
0.03219459
0.03362203
0.03506457
0.0365176
0.03797703
0.03943945
0.04090172
0.04236115
0.04381517
0.04526149
0.04669798
0.04812261
0.04953342
0.05092851
0.05230602
0.0536641
0.05500094
0.05631476
0.05760378
0.05887508
0.06013731
0.06138104
0.06258624
0.06372977
0.06478545
0.065723
0.06650691
0.06709564
0.06744122
0.06748914
0.06717999
0.06645207
0.06525113
0.06354759
0.06135994
0.05876755
0.05587791
0.05271618
0.04918809
0.04517568
0.04055203
0.03510344
0.02843266
0.01988953
0.01377958
0.01375791
0.01571894
0.0182731
0.01948503
0.0202041
0.02088364
0.02166116
0.02257861
0.02360879
0.02473137
0.02592975
0.02719001
0.02850046
0.02985125
0.03123411
0.03264201
0.03406897
0.03550981
0.03696015
0.03841607
0.03987417
0.04133134
0.04278493
0.04423246
0.04567164
0.04710031
0.04851644
0.04991807
0.05130331
0.0526703
0.05401722
0.05534228
0.05664375
0.05792015
0.05917872
0.06042762
0.06165675
0.06284612
0.06397298
0.06501161
0.06593207
0.0666991
0.0672713
0.06760079
0.06763326
0.06730926
0.06656725
0.0653532
0.06363804
0.061441
0.05884208
0.05594837
0.05278242
0.04924924
0.04523144
0.04060194
0.03514675
0.02846812
0.01991519
0.01378681
0.01363932
0.01599231
0.01864657
0.0198945
0.02062398
0.02130925
0.02209156
0.02301696
0.02405688
0.02518885
0.02639529
0.02766184
0.02897669
0.03033006
0.03171382
0.0331211
0.0345461
0.03598383
0.03742995
0.03888076
0.04033296
0.04178359
0.0432299
0.04466945
0.04609996
0.04751927