/*--------------------------------*- C++ -*----------------------------------*\
| =========                 |                                                 |
| \\      /  F ield         | OpenFOAM: The Open Source CFD Toolbox           |
|  \\    /   O peration     | Version:  2312                                  |
|   \\  /    A nd           | Website:  www.openfoam.com                      |
|    \\/     M anipulation  |                                                 |
\*---------------------------------------------------------------------------*/
FoamFile
{
    version     2.0;
    format      ascii;
    arch        "LSB;label=32;scalar=64";
    class       volScalarField;
    location    "4500";
    object      qin;
}
// * * * * * * * * * * * * * * * * * * * * * * * * * * * * * * * * * * * * * //

dimensions      [1 0 -3 0 0 0 0];

internalField   uniform 0;

boundaryField
{
    plate
    {
        type            calculated;
        value           nonuniform List<scalar> 
200
(
2291.693
2247.252
2220.426
2195.876
2168.073
2145.56
2137.646
2144.111
2156.984
2169.497
2177.952
2178.634
2169.474
2154.012
2139.408
2130.934
2130.671
2139.529
2156.906
2178.663
2197.995
2209.368
2211.919
2210.067
2210.762
2218.304
2231.01
2243.954
2254.587
2263.587
2270.786
2273.797
2271.782
2267.593
2264.216
2261.641
2259.936
2262.913
2274.469
2292.048
2307.583
2314.766
2312.846
2304.741
2294.978
2288.795
2289.878
2297.945
2309.321
2319.767
2326.599
2329.301
2329.116
2327.747
2326.006
2323.984
2322.298
2322.134
2323.824
2326.169
2327.528
2327.21
2325.782
2324.51
2324.635
2326.697
2330.114
2333.461
2335.492
2336.114
2336.484
2338.095
2341.577
2346.066
2349.572
2350.072
2346.673
2340.121
2332.405
2325.734
2321.505
2319.837
2319.823
2320.261
2320.38
2320.176
2320.23
2321.203
2323.336
2326.253
2329.145
2331.212
2332.09
2332.052
2331.868
2332.439
2334.384
2337.787
2342.195
2346.833
2350.911
2353.869
2355.476
2355.782
2355.002
2353.404
2351.268
2348.886
2346.586
2344.71
2343.549
2343.264
2343.827
2345.03
2346.566
2348.136
2349.547
2350.753
2351.822
2352.866
2353.96
2355.099
2356.208
2357.194
2358.009
2358.686
2359.34
2360.11
2361.093
2362.287
2363.574
2364.76
2365.655
2366.152
2366.27
2366.14
2365.931
2365.756
2365.603
2365.345
2364.815
2363.947
2362.886
2362.014
2361.85
2362.835
2365.095
2368.271
2371.527
2373.758
2373.936
2371.481
2366.512
2359.876
2352.916
2347.052
2343.284
2341.776
2341.709
2341.524
2339.555
2334.892
2328.091
2321.326
2317.767
2320.308
2330.168
2346.048
2364.309
2380.207
2389.687
2390.975
2385.308
2376.486
2369.407
2368.045
2373.512
2382.952
2390.063
2387.828
2372.861
2349.096
2327.658
2321.563
2337.956
2373.509
2416.656
2454.506
2478.526
2485.53
2476.106
2454.772
2433.005
2430.634
2467.655
2546.118
2641.079
2721.408
2797.533
2928.946
)
;
    }
    riser
    {
        type            calculated;
        value           nonuniform List<scalar> 
200
(
4863.209
4742.273
4727.311
4782.624
4893.419
5011.12
5124.208
5141.243
4965.882
4807.679
4942.308
5175.652
5179.805
5105.328
5249.832
5521.849
5653.9
5585.326
5447.809
5380.737
5449.963
5643.097
5851.509
5939.448
5914.488
5896.159
5872.708
5750.657
5645.507
5780.877
6105.632
6312.241
6252.013
6148.786
6320.114
6736.252
7061.765
7148.207
7115.026
6953.296
6580.785
6228.349
6211.25
6467.026
6711.416
6787.923
6665.78
6373.901
6045.182
5838.303
5777.079
5762.212
5738.603
5756.359
5844.402
5960.565
6090.282
6256.974
6432.564
6549.538
6581.517
6549.456
6480.886
6396.624
6321.078
6281.287
6294.96
6362.192
6464.611
6569.323
6639.65
6650.955
6601.863
6512.391
6410.561
6317.352
6239.712
6174.168
6116.188
6067.784
6038.408
6039.288
6075.58
6141.621
6222.083
6297.994
6354.007
6383.18
6387.464
6374.555
6353.431
6330.967
6310.809
6294.197
6281.448
6272.927
6269.029
6269.575
6273.337
6278.225
6282.146
6284.04
6284.496
6285.586
6289.963
6299.671
6315.195
6335.146
6356.642
6376.157
6390.476
6397.398
6396.044
6386.767
6370.825
6350.007
6326.316
6301.779
6278.313
6257.627
6241.107
6229.702
6223.848
6223.469
6228.045
6236.749
6248.605
6262.634
6277.982
6294.001
6310.29
6326.681
6343.156
6359.7
6376.136
6392.007
6406.55
6418.8
6427.798
6432.798
6433.407
6429.569
6421.45
6409.309
6393.482
6374.531
6353.49
6332.05
6312.474
6297.161
6287.895
6285.074
6287.27
6291.431
6293.839
6291.626
6284.344
6274.876
6269.077
6273.917
6294.592
6331.668
6379.568
6427.354
6461.766
6471.335
6449.813
6397.636
6321.31
6231.504
6140.569
6059.803
5996.925
5954.576
5930.357
5918.134
5910.552
5903.525
5901.895
5921.245
5979.763
6080.728
6195.685
6264.092
6221.856
6049.725
5802.159
5578.238
5448.326
5403.294
5393.114
5419.629
5556.302
5781.196
5881.499
5636.934
5126.705
4744.946
4627.743
4670.303
)
;
    }
    topAndBottom
    {
        type            calculated;
        value           nonuniform List<scalar> 
120
(
7466.188
6623.746
6048.761
5689.697
5433.233
5242.74
5107.289
5009.312
4930.333
4860.851
4799.905
4748.836
4706.94
4671.451
4639.733
4610.854
4585.516
4564.965
4549.892
4539.884
4533.468
4528.593
4523.268
4516.109
4506.562
4494.759
4481.148
4466.139
4449.954
4432.695
4414.552
4395.963
4377.656
4360.536
4345.471
4333.044
4323.367
4316.016
4310.15
4304.772
4299.033
4292.452
4284.977
4276.947
4268.999
4261.936
4256.389
4252.24
4248.037
4241.007
4228.123
4208.036
4182.7
4157.103
4136.257
4120.865
4106.023
4085.268
4062.011
4053.407
6473.115
6496.071
6490.871
6359.466
6065.976
5690.299
5352.153
5118.611
4987.071
4918.85
4879.779
4868.193
4914.11
5046.098
5252.444
5471.68
5622.705
5651.638
5559.459
5391.79
5203.15
5024.71
4856.246
4681.679
4491.703
4296.373
4121.544
3995.009
3932.74
3932.53
3976.168
4036.887
4087.899
4109.12
4090.883
4034.577
3950.633
3854.673
3762.981
3688.675
3639.657
3618.626
3624.557
3654.524
3705.032
3772.584
3853.733
3944.843
4041.672
4139.032
4231.097
4312.747
4381.22
4436.34
4478.423
4505.316
4513.361
4497.503
4475.147
4404.818
)
;
    }
    frontAndBack
    {
        type            empty;
    }
}


// ************************************************************************* //
