/*--------------------------------*- C++ -*----------------------------------*\
| =========                 |                                                 |
| \\      /  F ield         | OpenFOAM: The Open Source CFD Toolbox           |
|  \\    /   O peration     | Version:  2312                                  |
|   \\  /    A nd           | Website:  www.openfoam.com                      |
|    \\/     M anipulation  |                                                 |
\*---------------------------------------------------------------------------*/
FoamFile
{
    version     2.0;
    format      ascii;
    arch        "LSB;label=32;scalar=64";
    class       volScalarField;
    location    "4500";
    object      qr;
}
// * * * * * * * * * * * * * * * * * * * * * * * * * * * * * * * * * * * * * //

dimensions      [1 0 -3 0 0 0 0];

internalField   uniform 0;

boundaryField
{
    plate
    {
        type            calculated;
        value           nonuniform List<scalar> 
200
(
-8404.74
-8563.027
-8651.571
-8647.083
-8579.677
-8525.82
-8523.233
-8586.028
-8675.302
-200.966
-223.8012
-8696.14
-428.2401
-493.4059
-558.4981
-595.6317
-616.1566
-621.7993
-607.0252
-576.3164
-545.2163
-530.9043
-540.909
-564.4592
-583.8188
-584.3962
-8458.576
-8421.99
-8389.835
-8349.17
-8289.526
-8223.039
-8161.727
-8111.433
-8071.846
-8052.509
-8052.903
-1065.784
-1096.545
-7838.637
-7693.045
-7565.967
-7487.954
-7464.185
-1525.489
-1680.683
-1816.444
-1907.363
-1970.277
-2027.478
-2105.208
-2204.78
-2331.19
-2476.488
-5626.386
-6075.025
-5947.411
-5745.279
-5258.075
-4281.089
-4018.432
-4188.618
-4505.757
-4761.151
-4839.148
-4779.042
-4633.514
-4476.369
-4376.87
-4345.508
-4347.526
-4335.866
-4286.056
-4209.607
-4143.741
-4125.934
-4173.529
-4275.765
-4399.38
-4504.817
-4566.829
-4583.056
-4568.45
-4543.485
-4522.729
-4509.181
-4496.258
-4475.079
-4442.016
-4402.102
-4366.848
-4348.056
-4351.454
-4373.504
-4402.759
-4424.887
-4428.789
-4410.855
-4375.588
-4332.902
-4293.744
-4266.212
-4253.801
-4255.866
-4269.432
-4290.937
-4317.236
-4345.606
-4373.385
-4397.776
-4416.208
-4427.119
-4430.578
-4428.448
-4423.691
-4419.385
-4417.559
-4418.73
-4421.927
-4425.507
-4427.879
-4428.293
-4426.818
-4424.251
-4421.367
-4418.722
-4416.21
-4413.501
-4410.01
-4405.568
-4400.126
-4393.881
-4387.175
-4379.963
-4372.221
-4364.065
-4356.104
-4349.62
-4346.365
-4347.961
-4355.093
-4366.851
-4380.633
-4392.79
-4399.852
-4399.812
-4392.882
-4381.371
-4368.751
-4358.357
-4352.314
-4351.216
-4354.605
-4361.815
-4372.45
-4386.145
-4401.77
-4416.789
-4427.347
-4429.566
-4421.456
-4404.786
-4384.819
-4368.259
-4359.696
-4359.477
-4362.498
-4361.653
-4349.869
-4326.942
-4301.862
-4289.085
-4299.591
-4332.476
-4374.004
-4402.631
-4398.076
-4352.678
-4280.587
-4216.091
-4193.26
-4220.819
-4278.822
-4338.201
-4376.474
-4389.868
-4376.731
-4331.799
-4252.853
-4154.53
-4105.552
-4099.835
-4152.376
-4092.832
-6134.164
-1411.384
-8721.265
608.3847
-10211.83
-10280.24
)
;
    }
    riser
    {
        type            calculated;
        value           nonuniform List<scalar> 
200
(
3008.112
2906.96
2889.418
2915.394
2975.608
3043.763
3121.613
3133.967
2994.488
2868.096
2977.796
3164.783
3160.443
3086.262
3186.665
3391.293
3485.931
3423.674
3311.701
3260.218
3318.961
3476.473
3644.972
3715.069
3693.802
3678.943
3660.438
3561.029
3473.552
3579.626
3837.644
3997.325
3938.473
3845.386
3978.438
4313.545
4576.671
4646.686
4620.926
4491.25
4189.166
3902.16
3887.825
4095.869
4294.43
4356.247
4257.116
4020.462
3753.484
3585.097
3535.067
3522.724
3503.316
3517.788
3589.497
3683.826
3788.994
3924.453
4067.481
4162.81
4188.738
4162.517
4106.742
4038.285
3976.922
3944.672
3955.926
4010.683
4093.949
4179.006
4236.129
4245.371
4205.62
4133.091
4050.483
3974.803
3911.694
3858.366
3811.172
3771.763
3747.815
3748.445
3777.847
3831.442
3896.799
3958.529
4004.182
4028.136
4031.994
4022.027
4005.54
3988.111
3972.678
3960.206
3950.898
3944.985
3942.723
3943.903
3947.469
3951.681
3954.811
3955.993
3955.723
3955.72
3958.195
3964.877
3976.232
3991.204
4007.51
4022.334
4033.091
4038.003
4036.354
4028.413
4015.184
3998.097
3978.758
3958.795
3939.749
3922.992
3909.632
3900.42
3895.697
3895.391
3899.08
3906.099
3915.672
3927.019
3939.457
3952.455
3965.676
3978.963
3992.281
4005.612
4018.824
4031.568
4043.259
4053.139
4060.434
4064.524
4065.055
4061.946
4055.311
4045.372
4032.442
4017.033
4000.028
3982.804
3967.151
3954.922
3947.457
3945.003
3946.397
3949.248
3950.699
3948.597
3942.675
3935.22
3930.737
3934.502
3950.389
3978.765
4015.451
4052.391
4079.914
4089.663
4076.919
4041.537
3987.532
3922.017
3853.746
3791.357
3741.377
3706.781
3686.564
3676.43
3670.566
3665.242
3663.484
3676.922
3719.935
3796.407
3886.316
3944.129
3919.458
3794.758
3609.679
3440.286
3341.743
3307.172
3296.764
3312.91
3417.512
3599.266
3693.174
3521.326
3137.635
2847.135
2756.142
2788.034
)
;
    }
    topAndBottom
    {
        type            calculated;
        value           nonuniform List<scalar> 
120
(
3447.576
2875.338
2460.091
2208.525
2025.463
1892.692
1803.287
1743.933
1695.46
1651.613
1615.006
1586.814
1563.124
1543.315
1526.64
1512.715
1501.204
1492.708
1487.926
1487.487
1490.301
1494.143
1496.829
1497.241
1495.205
1490.961
1484.824
1477.19
1468.401
1458.581
1447.903
1436.755
1425.774
1415.767
1407.516
1401.535
1397.908
1396.257
1395.816
1395.656
1394.982
1393.367
1390.761
1387.439
1383.952
1381.071
1379.392
1378.791
1377.93
1374.333
1365.339
1349.723
1329.231
1308.358
1291.674
1279.854
1268.644
1253.784
1250.945
1376.58
3768.699
4011.893
4032.492
3917.881
3654.386
3316.5
3012.325
2802.252
2684.024
2622.996
2588.325
2578.167
2619.411
2738.075
2924.066
3122.208
3259.183
3285.955
3203.148
3052.101
2882.462
2722.717
2572.609
2417.172
2247.453
2072.245
1915.025
1801.303
1745.917
1747.061
1788.187
1844.846
1892.577
1913.215
1898.205
1849
1775.119
1690.595
1610.133
1545.649
1504.41
1488.659
1496.939
1526.929
1575.842
1640.809
1718.697
1805.27
1896.779
1989.942
2079.68
2160.176
2229.005
2287.586
2336.492
2373.681
2397.715
2405.654
2419.813
2416.437
)
;
    }
    frontAndBack
    {
        type            empty;
    }
}


// ************************************************************************* //
