/*--------------------------------*- C++ -*----------------------------------*\
| =========                 |                                                 |
| \\      /  F ield         | OpenFOAM: The Open Source CFD Toolbox           |
|  \\    /   O peration     | Version:  2312                                  |
|   \\  /    A nd           | Website:  www.openfoam.com                      |
|    \\/     M anipulation  |                                                 |
\*---------------------------------------------------------------------------*/
FoamFile
{
    version     2.0;
    format      ascii;
    arch        "LSB;label=32;scalar=64";
    class       volVectorField;
    location    "4500";
    object      U;
}
// * * * * * * * * * * * * * * * * * * * * * * * * * * * * * * * * * * * * * //

dimensions      [0 1 -1 0 0 0 0];

internalField   nonuniform List<vector> 
12000
(
(-0.02843632 0.06287295 0)
(-0.06561447 0.05616172 0)
(-0.1048279 0.0629723 0)
(-0.1488604 0.07644766 0)
(-0.1943322 0.08585066 0)
(-0.2421512 0.07860616 0)
(-0.2848234 0.05622169 0)
(-0.3213755 0.04875309 0)
(-0.354988 0.0764034 0)
(-0.3967385 0.09647915 0)
(-0.4396738 0.06516631 0)
(-0.4679126 0.0172091 0)
(-0.4869058 0.0181424 0)
(-0.5122038 0.06651508 0)
(-0.5478765 0.08657713 0)
(-0.5798325 0.03726653 0)
(-0.5940586 -0.01340531 0)
(-0.6028464 0.01271306 0)
(-0.6242468 0.06757628 0)
(-0.6520962 0.05453629 0)
(-0.6672351 -0.001995391 0)
(-0.6714925 -0.007497913 0)
(-0.6819066 0.03327264 0)
(-0.6995181 0.04111096 0)
(-0.7116276 0.01079355 0)
(-0.7163671 -0.002261014 0)
(-0.7215193 0.008405355 0)
(-0.7282305 0.01042139 0)
(-0.7325801 0.004899736 0)
(-0.735642 0.00629555 0)
(-0.7394924 0.003373338 0)
(-0.7399369 -0.00342111 0)
(-0.7391547 -0.01230785 0)
(-0.7350412 -0.008438673 0)
(-0.7346464 0.00787967 0)
(-0.7342605 0.01113778 0)
(-0.7331905 -0.008035513 0)
(-0.7244346 -0.04040213 0)
(-0.7088371 -0.0475067 0)
(-0.6971765 -0.0008366982 0)
(-0.6957986 0.04040351 0)
(-0.6951388 0.006307025 0)
(-0.6811325 -0.07546857 0)
(-0.6508775 -0.08301707 0)
(-0.6282398 -0.007924144 0)
(-0.6232345 0.04089354 0)
(-0.6143488 -0.01171355 0)
(-0.5876765 -0.1102067 0)
(-0.5443589 -0.1109366 0)
(-0.5153253 0.01956032 0)
(-0.5101972 0.03156088 0)
(-0.4808311 -0.09577231 0)
(-0.4270707 -0.1266755 0)
(-0.3862987 -0.04514525 0)
(-0.3527508 -0.04387899 0)
(-0.3051123 -0.09056546 0)
(-0.2451477 -0.1150657 0)
(-0.1824547 -0.1017937 0)
(-0.1039759 -0.1100971 0)
(-0.04175803 -0.1072529 0)
(-0.03053905 0.1937551 0)
(-0.06234071 0.1765729 0)
(-0.1124248 0.1755202 0)
(-0.1500331 0.1787468 0)
(-0.1882584 0.1804768 0)
(-0.2216234 0.1798135 0)
(-0.2576767 0.1695254 0)
(-0.2937943 0.1534615 0)
(-0.3284249 0.1416418 0)
(-0.3530278 0.1442581 0)
(-0.3737875 0.1377255 0)
(-0.4016468 0.1194611 0)
(-0.4335816 0.1095797 0)
(-0.4580503 0.1088858 0)
(-0.4702666 0.1070855 0)
(-0.4825171 0.09443899 0)
(-0.5050362 0.07992617 0)
(-0.5303709 0.07449451 0)
(-0.5430393 0.07394301 0)
(-0.5470144 0.06858425 0)
(-0.5578978 0.05732852 0)
(-0.5760668 0.05005507 0)
(-0.5880713 0.04756378 0)
(-0.5912996 0.04433209 0)
(-0.595871 0.03750288 0)
(-0.6048751 0.03080888 0)
(-0.6123191 0.02594647 0)
(-0.6161721 0.02151391 0)
(-0.6193416 0.01709086 0)
(-0.6219672 0.01323364 0)
(-0.6228343 0.008919568 0)
(-0.6236 0.003232571 0)
(-0.6246577 -0.002612431 0)
(-0.6249994 -0.004903529 0)
(-0.6221838 -0.008819216 0)
(-0.6148769 -0.014055 0)
(-0.6068604 -0.0216201 0)
(-0.6041798 -0.02709462 0)
(-0.6038721 -0.03301347 0)
(-0.5992546 -0.03665175 0)
(-0.5826301 -0.04050962 0)
(-0.5608244 -0.0481384 0)
(-0.5512425 -0.05720847 0)
(-0.5497279 -0.06527904 0)
(-0.5405415 -0.06945437 0)
(-0.5139209 -0.07347455 0)
(-0.4823399 -0.08287898 0)
(-0.4676848 -0.09453585 0)
(-0.4636239 -0.1041574 0)
(-0.4439629 -0.1149239 0)
(-0.3984073 -0.1262122 0)
(-0.3636804 -0.1413812 0)
(-0.3521458 -0.1514899 0)
(-0.3263013 -0.164884 0)
(-0.2885999 -0.1818101 0)
(-0.2332206 -0.2235408 0)
(-0.2088329 -0.2367916 0)
(-0.15395 -0.2883317 0)
(-0.092508 -0.3145192 0)
(-0.04364458 -0.3249746 0)
(-0.02597335 0.3216812 0)
(-0.05087105 0.3038082 0)
(-0.09233259 0.2981659 0)
(-0.123411 0.2933291 0)
(-0.1565336 0.2849923 0)
(-0.1847923 0.2732857 0)
(-0.2113506 0.2596699 0)
(-0.238993 0.2483718 0)
(-0.2637669 0.2403615 0)
(-0.2925452 0.2202075 0)
(-0.3135297 0.2045264 0)
(-0.3365914 0.1882447 0)
(-0.3579457 0.1751101 0)
(-0.376352 0.164587 0)
(-0.3919961 0.1528179 0)
(-0.4064594 0.1395504 0)
(-0.4217133 0.1270454 0)
(-0.4366819 0.1171104 0)
(-0.4493471 0.1082695 0)
(-0.4600182 0.09830834 0)
(-0.4704939 0.08772292 0)
(-0.4810427 0.07865486 0)
(-0.4902441 0.07103618 0)
(-0.4976643 0.06309914 0)
(-0.5042186 0.05446482 0)
(-0.5103863 0.04619183 0)
(-0.515726 0.03860211 0)
(-0.5199698 0.03112554 0)
(-0.5232375 0.02365497 0)
(-0.5254006 0.01640094 0)
(-0.5268786 0.008866779 0)
(-0.5272965 0.003265594 0)
(-0.5268964 -0.006286738 0)
(-0.5254422 -0.01390026 0)
(-0.5225612 -0.02115738 0)
(-0.5185615 -0.02894752 0)
(-0.5138046 -0.03749304 0)
(-0.5084326 -0.04667227 0)
(-0.5020994 -0.0556584 0)
(-0.4942535 -0.06384168 0)
(-0.4846536 -0.07234006 0)
(-0.4736945 -0.08255112 0)
(-0.4622815 -0.09435047 0)
(-0.4503964 -0.1058057 0)
(-0.436916 -0.1167053 0)
(-0.4209988 -0.1284342 0)
(-0.4033785 -0.1412953 0)
(-0.3849271 -0.1548946 0)
(-0.3651343 -0.1686179 0)
(-0.3432865 -0.1813139 0)
(-0.3192683 -0.1948061 0)
(-0.299209 -0.2060187 0)
(-0.2676589 -0.2283646 0)
(-0.2441794 -0.2472681 0)
(-0.2027969 -0.28997 0)
(-0.1749554 -0.3180019 0)
(-0.138036 -0.3545166 0)
(-0.1045804 -0.3973922 0)
(-0.06221264 -0.4489097 0)
(-0.02603152 -0.4703781 0)
(-0.0193574 0.4145131 0)
(-0.04228326 0.3883908 0)
(-0.07203775 0.3800605 0)
(-0.09690193 0.3703331 0)
(-0.1225069 0.3573953 0)
(-0.1452315 0.3414707 0)
(-0.1687504 0.3248095 0)
(-0.1897379 0.3099138 0)
(-0.2113397 0.2952788 0)
(-0.2245583 0.2872731 0)
(-0.2474049 0.2660795 0)
(-0.2618154 0.2502644 0)
(-0.283721 0.2257338 0)
(-0.2996216 0.2091359 0)
(-0.3152596 0.1946399 0)
(-0.3294687 0.180646 0)
(-0.3433863 0.1668707 0)
(-0.3566378 0.1535962 0)
(-0.3684508 0.1411074 0)
(-0.3790624 0.1290078 0)
(-0.3889078 0.117129 0)
(-0.3980199 0.105664 0)
(-0.4061381 0.09464361 0)
(-0.413177 0.0838764 0)
(-0.4193266 0.07323157 0)
(-0.4246954 0.06274318 0)
(-0.4292041 0.05243465 0)
(-0.4327858 0.04224251 0)
(-0.4353114 0.03213302 0)
(-0.4374252 0.02201973 0)
(-0.4385769 0.01420778 0)
(-0.4386177 0.002614033 0)
(-0.4376226 -0.008172034 0)
(-0.4360484 -0.0186664 0)
(-0.4334453 -0.0291777 0)
(-0.4298703 -0.04003036 0)
(-0.4253367 -0.05117805 0)
(-0.4199588 -0.06264222 0)
(-0.4137201 -0.07440489 0)
(-0.4064477 -0.08651736 0)
(-0.397971 -0.09906713 0)
(-0.388355 -0.1121881 0)
(-0.3776154 -0.1260263 0)
(-0.3663883 -0.1401603 0)
(-0.3541682 -0.1552268 0)
(-0.3403774 -0.1713658 0)
(-0.3252888 -0.1883252 0)
(-0.3092457 -0.2065207 0)
(-0.2920479 -0.2257213 0)
(-0.2723147 -0.2429111 0)
(-0.2566802 -0.2558061 0)
(-0.2291029 -0.2869171 0)
(-0.2054068 -0.3155674 0)
(-0.1779311 -0.3448297 0)
(-0.1521585 -0.3735749 0)
(-0.1267786 -0.4048659 0)
(-0.09962342 -0.4422474 0)
(-0.07283657 -0.4881837 0)
(-0.04336301 -0.5413067 0)
(-0.01716705 -0.5686169 0)
(-0.01475409 0.4940752 0)
(-0.03508351 0.4630422 0)
(-0.05845481 0.4503753 0)
(-0.07892577 0.4370865 0)
(-0.0994504 0.4211987 0)
(-0.1185865 0.4030882 0)
(-0.1377795 0.3835705 0)
(-0.1554884 0.3642299 0)
(-0.172462 0.3439241 0)
(-0.1878318 0.3235901 0)
(-0.201648 0.3066891 0)
(-0.2150895 0.2917885 0)
(-0.2274909 0.2760531 0)
(-0.2432319 0.2547436 0)
(-0.2561423 0.2356155 0)
(-0.2692179 0.2179828 0)
(-0.2796211 0.204332 0)
(-0.29135 0.1873775 0)
(-0.3011223 0.1714725 0)
(-0.3102446 0.1563209 0)
(-0.3186146 0.1417907 0)
(-0.3261748 0.1277472 0)
(-0.3329326 0.1140989 0)
(-0.3388731 0.1007468 0)
(-0.3440238 0.08762045 0)
(-0.348409 0.07468706 0)
(-0.3520341 0.06191063 0)
(-0.3548604 0.04923626 0)
(-0.3570412 0.03660761 0)
(-0.3583462 0.02651542 0)
(-0.3588316 0.01305856 0)
(-0.3583176 0.0001892825 0)
(-0.3573822 -0.01267595 0)
(-0.3555299 -0.02551957 0)
(-0.3531614 -0.03841475 0)
(-0.3501312 -0.05170347 0)
(-0.3461058 -0.06534581 0)
(-0.3412724 -0.07932459 0)
(-0.3356126 -0.09368351 0)
(-0.3291113 -0.1084837 0)
(-0.3217326 -0.1238199 0)
(-0.3136854 -0.1398079 0)
(-0.3040413 -0.1565379 0)
(-0.2949775 -0.1708125 0)
(-0.2834003 -0.1900837 0)
(-0.2717398 -0.209447 0)
(-0.2592698 -0.2292105 0)
(-0.2449407 -0.2490351 0)
(-0.2324254 -0.2666976 0)
(-0.2166796 -0.2893863 0)
(-0.1975255 -0.3185313 0)
(-0.178335 -0.3471448 0)
(-0.159646 -0.3746331 0)
(-0.1403949 -0.4034983 0)
(-0.120355 -0.4353572 0)
(-0.09934791 -0.4708712 0)
(-0.07746992 -0.5110314 0)
(-0.05577679 -0.557311 0)
(-0.033076 -0.6121574 0)
(-0.01234447 -0.643401 0)
(-0.01101372 0.5571937 0)
(-0.02771355 0.5224512 0)
(-0.04561386 0.5055927 0)
(-0.06170435 0.4892608 0)
(-0.07762455 0.4710915 0)
(-0.09268098 0.4513303 0)
(-0.1074491 0.430599 0)
(-0.1216373 0.4095759 0)
(-0.13535 0.3882856 0)
(-0.1487498 0.3670088 0)
(-0.1614745 0.345886 0)
(-0.1734979 0.3254062 0)
(-0.1843575 0.3069127 0)
(-0.1931745 0.2898526 0)
(-0.2048911 0.2691036 0)
(-0.2149531 0.2493662 0)
(-0.2244918 0.2310085 0)
(-0.2330975 0.2132535 0)
(-0.2412006 0.1958498 0)
(-0.2487447 0.1789017 0)
(-0.2556376 0.1624262 0)
(-0.2618659 0.146366 0)
(-0.2674221 0.1306719 0)
(-0.2723055 0.1152919 0)
(-0.2765247 0.1001798 0)
(-0.2800899 0.08529634 0)
(-0.2830087 0.07060616 0)
(-0.2852778 0.05607489 0)
(-0.2870014 0.04165681 0)
(-0.2878001 0.02737282 0)
(-0.2876934 0.01297708 0)
(-0.2874089 -0.001550017 0)
(-0.2867075 -0.01641476 0)
(-0.2850903 -0.03152841 0)
(-0.2830898 -0.04446562 0)
(-0.2801254 -0.06066536 0)
(-0.2766592 -0.07669925 0)
(-0.2724824 -0.09287476 0)
(-0.2676519 -0.1093762 0)
(-0.2621454 -0.1263184 0)
(-0.2559531 -0.1437894 0)
(-0.2490776 -0.1618655 0)
(-0.2416083 -0.1805238 0)
(-0.2330673 -0.2001206 0)
(-0.2238339 -0.2208039 0)
(-0.2138668 -0.242132 0)
(-0.2033964 -0.2630356 0)
(-0.1935408 -0.2838573 0)
(-0.1797798 -0.3100216 0)
(-0.1660534 -0.3376451 0)
(-0.1516499 -0.3656117 0)
(-0.1373324 -0.3941519 0)
(-0.1224357 -0.4239915 0)
(-0.1067731 -0.4557637 0)
(-0.09048652 -0.4897151 0)
(-0.07381831 -0.5263868 0)
(-0.05698185 -0.566766 0)
(-0.04046749 -0.612482 0)
(-0.02382392 -0.665021 0)
(-0.008608476 -0.6962967 0)
(-0.008343409 0.6058293 0)
(-0.02190417 0.5683652 0)
(-0.03570552 0.5481783 0)
(-0.04831069 0.529552 0)
(-0.06067491 0.5096428 0)
(-0.07244477 0.4884687 0)
(-0.08391776 0.4664797 0)
(-0.09502281 0.4440825 0)
(-0.1057849 0.4215338 0)
(-0.1162346 0.3990655 0)
(-0.1263674 0.3769235 0)
(-0.135983 0.3551384 0)
(-0.1451418 0.3336047 0)
(-0.1540609 0.3135984 0)
(-0.160425 0.2956609 0)
(-0.169289 0.2749274 0)
(-0.1765569 0.2546519 0)
(-0.1836439 0.2350577 0)
(-0.1901404 0.2159243 0)
(-0.196138 0.1972641 0)
(-0.2016063 0.179043 0)
(-0.2065404 0.1612247 0)
(-0.2109346 0.1437692 0)
(-0.2147876 0.126635 0)
(-0.2181011 0.1097799 0)
(-0.2208779 0.09316218 0)
(-0.2231206 0.07673935 0)
(-0.2248284 0.06046509 0)
(-0.2260095 0.04428607 0)
(-0.2266511 0.02818212 0)
(-0.226664 0.01195858 0)
(-0.2264252 -0.002230542 0)
(-0.2258222 -0.0190745 0)
(-0.224726 -0.0357601 0)
(-0.2228796 -0.05249533 0)
(-0.220362 -0.06958708 0)
(-0.2175527 -0.08696314 0)
(-0.2142456 -0.1046981 0)
(-0.2104439 -0.1228585 0)
(-0.2061243 -0.1415148 0)
(-0.2012747 -0.1607291 0)
(-0.1958824 -0.1805507 0)
(-0.1899238 -0.2010006 0)
(-0.1834109 -0.222035 0)
(-0.1760524 -0.2438117 0)
(-0.168691 -0.2657984 0)
(-0.1602048 -0.2895745 0)
(-0.1500889 -0.3162623 0)
(-0.1398148 -0.3435536 0)
(-0.1291042 -0.3714802 0)
(-0.118112 -0.4005401 0)
(-0.1066894 -0.4307294 0)
(-0.09479307 -0.4621615 0)
(-0.08249335 -0.4950683 0)
(-0.06988782 -0.5298007 0)
(-0.05707162 -0.5668935 0)
(-0.04413108 -0.6072423 0)
(-0.03137757 -0.6524758 0)
(-0.01857239 -0.7046458 0)
(-0.006591225 -0.7368266 0)
(-0.00639178 0.645132 0)
(-0.01705006 0.6054984 0)
(-0.02735499 0.5821184 0)
(-0.03681612 0.5613636 0)
(-0.04607029 0.5399841 0)
(-0.05494497 0.5177334 0)
(-0.06363199 0.4948742 0)
(-0.07210311 0.4716887 0)
(-0.0803705 0.4483944 0)
(-0.08842521 0.4251479 0)
(-0.09624353 0.402083 0)
(-0.1037735 0.3792937 0)
(-0.1110798 0.3567944 0)
(-0.1177619 0.3346531 0)
(-0.124802 0.3132509 0)
(-0.1292176 0.2938478 0)
(-0.1356802 0.2726892 0)
(-0.1408464 0.2517743 0)
(-0.145933 0.2314201 0)
(-0.1505746 0.2114925 0)
(-0.1548204 0.1919771 0)
(-0.1586517 0.1728421 0)
(-0.162065 0.1540572 0)
(-0.165058 0.1355894 0)
(-0.1676314 0.1174037 0)
(-0.1697879 0.09946237 0)
(-0.1715312 0.08172522 0)
(-0.1728654 0.06414792 0)
(-0.1737971 0.04668179 0)
(-0.1743293 0.02927841 0)
(-0.1744815 0.01188029 0)
(-0.1742116 -0.00379495 0)
(-0.173498 -0.02167945 0)
(-0.1724859 -0.03957579 0)
(-0.1710683 -0.05754783 0)
(-0.1692623 -0.07581638 0)
(-0.1670881 -0.09439098 0)
(-0.164524 -0.1133506 0)
(-0.1615626 -0.132766 0)
(-0.15819 -0.1527128 0)
(-0.1543922 -0.1732682 0)
(-0.1501494 -0.1945178 0)
(-0.1454318 -0.2165605 0)
(-0.1403435 -0.239613 0)
(-0.1343017 -0.2636317 0)
(-0.1284502 -0.2881945 0)
(-0.1213047 -0.3144737 0)
(-0.1139517 -0.3417198 0)
(-0.1062741 -0.3698793 0)
(-0.09818158 -0.3990302 0)
(-0.0896832 -0.4291843 0)
(-0.08081802 -0.4604049 0)
(-0.07161863 -0.4928161 0)
(-0.06213467 -0.5266092 0)
(-0.05243278 -0.562072 0)
(-0.04260048 -0.5996715 0)
(-0.03273363 -0.6401962 0)
(-0.02303588 -0.6850349 0)
(-0.01353538 -0.7357128 0)
(-0.004700085 -0.7672133 0)
(-0.004813037 0.6748607 0)
(-0.01298226 0.6325094 0)
(-0.02050576 0.6063659 0)
(-0.02746326 0.5840952 0)
(-0.03422066 0.5618421 0)
(-0.04071185 0.5390233 0)
(-0.04706047 0.5157179 0)
(-0.05326609 0.4920895 0)
(-0.05933845 0.4683145 0)
(-0.06526877 0.4445406 0)
(-0.07104513 0.4208842 0)
(-0.07664421 0.3974334 0)
(-0.08206245 0.3742493 0)
(-0.08728129 0.3514172 0)
(-0.09206155 0.3288418 0)
(-0.09721296 0.3068399 0)
(-0.1002645 0.2863729 0)
(-0.1048798 0.2648354 0)
(-0.1084826 0.2434653 0)
(-0.1120311 0.2225505 0)
(-0.1152375 0.2020057 0)
(-0.1181374 0.1818248 0)
(-0.120719 0.1619863 0)
(-0.1229823 0.1424657 0)
(-0.1249287 0.1232338 0)
(-0.1265622 0.1042568 0)
(-0.1278877 0.08549755 0)
(-0.1289109 0.06691563 0)
(-0.1296386 0.04846501 0)
(-0.130075 0.03009599 0)
(-0.1302474 0.0117552 0)
(-0.1300626 -0.005196183 0)
(-0.1295269 -0.0238899 0)
(-0.12879 -0.04267686 0)
(-0.1277759 -0.06163369 0)
(-0.1264881 -0.08084917 0)
(-0.1249257 -0.1003978 0)
(-0.123079 -0.1203602 0)
(-0.1209393 -0.1408158 0)
(-0.1184952 -0.1618433 0)
(-0.1157357 -0.1835189 0)
(-0.112627 -0.2059121 0)
(-0.1093291 -0.2290883 0)
(-0.1051493 -0.2530352 0)
(-0.1017387 -0.2773071 0)
(-0.09661607 -0.3035937 0)
(-0.09172127 -0.331001 0)
(-0.08627161 -0.3594172 0)
(-0.08050156 -0.388776 0)
(-0.07436899 -0.4190594 0)
(-0.06790175 -0.4502718 0)
(-0.0611297 -0.4824396 0)
(-0.05409869 -0.5156305 0)
(-0.04686716 -0.5499796 0)
(-0.03950095 -0.5857348 0)
(-0.03207389 -0.6233292 0)
(-0.024659 -0.6635345 0)
(-0.01738799 -0.7077584 0)
(-0.01027595 -0.7576954 0)
(-0.003556026 -0.7893199 0)
(-0.003352567 0.6984395 0)
(-0.009498011 0.653973 0)
(-0.01506366 0.6253773 0)
(-0.01987307 0.6015169 0)
(-0.024467 0.5782278 0)
(-0.02886938 0.5546862 0)
(-0.0331997 0.5308351 0)
(-0.03747562 0.5067715 0)
(-0.04171123 0.4826165 0)
(-0.04589808 0.4584795 0)
(-0.05001922 0.4344494 0)
(-0.05405026 0.4105953 0)
(-0.05796738 0.386964 0)
(-0.06174449 0.3635922 0)
(-0.06536825 0.3405019 0)
(-0.06865169 0.3176324 0)
(-0.07224923 0.2952751 0)
(-0.07420626 0.2740493 0)
(-0.07732891 0.2522401 0)
(-0.07967933 0.2305861 0)
(-0.08201288 0.2093199 0)
(-0.08410641 0.188385 0)
(-0.08598062 0.1677841 0)
(-0.08763023 0.1475026 0)
(-0.08905701 0.12752 0)
(-0.09026489 0.1078082 0)
(-0.09125929 0.08833245 0)
(-0.09204604 0.06905223 0)
(-0.09263117 0.04992114 0)
(-0.09301624 0.03088746 0)
(-0.09323274 0.01189547 0)
(-0.09317568 -0.006064583 0)
(-0.09286047 -0.02528955 0)
(-0.09241782 -0.04464054 0)
(-0.09179818 -0.06418818 0)
(-0.09100246 -0.08400939 0)
(-0.09002426 -0.1041813 0)
(-0.08885752 -0.1247844 0)
(-0.0874955 -0.1459009 0)
(-0.08593017 -0.1676138 0)
(-0.08414968 -0.1900054 0)
(-0.08215802 -0.213156 0)
(-0.07979627 -0.2371434 0)
(-0.07752742 -0.2619964 0)
(-0.07427113 -0.288441 0)
(-0.07103883 -0.3158849 0)
(-0.06742108 -0.344193 0)
(-0.0635183 -0.3734751 0)
(-0.05930333 -0.4037011 0)
(-0.05477299 -0.4348332 0)
(-0.04995155 -0.4668283 0)
(-0.04488482 -0.4996709 0)
(-0.03962673 -0.5334068 0)
(-0.03423224 -0.5681701 0)
(-0.028758 -0.6042088 0)
(-0.02326093 -0.6419519 0)
(-0.0177981 -0.6821465 0)
(-0.01245267 -0.7261039 0)
(-0.007303493 -0.7752645 0)
(-0.002478602 -0.8064496 0)
(-0.002149264 0.7161375 0)
(-0.006477188 0.668315 0)
(-0.01008478 0.6371 0)
(-0.01318373 0.6119505 0)
(-0.01609634 0.5881092 0)
(-0.01891664 0.5644162 0)
(-0.02170246 0.5406036 0)
(-0.02446661 0.5166368 0)
(-0.02721009 0.4925568 0)
(-0.02992426 0.4684235 0)
(-0.03259753 0.4442984 0)
(-0.03523155 0.4202388 0)
(-0.03783862 0.3963045 0)
(-0.04040908 0.3725493 0)
(-0.04291537 0.3490065 0)
(-0.04534027 0.3257021 0)
(-0.04751635 0.3026027 0)
(-0.04995529 0.27997 0)
(-0.05113671 0.2582154 0)
(-0.05316106 0.2363078 0)
(-0.05457572 0.2145898 0)
(-0.05598065 0.1931661 0)
(-0.05721274 0.1720566 0)
(-0.05830036 0.1512626 0)
(-0.05924614 0.1307719 0)
(-0.0600585 0.1105623 0)
(-0.06074585 0.09060222 0)
(-0.06131499 0.07085094 0)
(-0.06177185 0.0512615 0)
(-0.06211683 0.03178076 0)
(-0.06237879 0.01234936 0)
(-0.06245553 -0.006377904 0)
(-0.06235939 -0.02597043 0)
(-0.06219194 -0.04570846 0)
(-0.06191493 -0.06566222 0)
(-0.06152615 -0.08590632 0)
(-0.06101683 -0.1065196 0)
(-0.06037852 -0.1275846 0)
(-0.05960183 -0.1491877 0)
(-0.05867622 -0.1714191 0)
(-0.05759049 -0.1943737 0)
(-0.05632045 -0.2181514 0)
(-0.05493889 -0.2428602 0)
(-0.05311321 -0.26864 0)
(-0.0514955 -0.2954165 0)
(-0.04947386 -0.3234011 0)
(-0.04732022 -0.3524879 0)
(-0.044858 -0.3826397 0)
(-0.042061 -0.4137921 0)
(-0.03892542 -0.4458055 0)
(-0.03550066 -0.4785462 0)
(-0.03185949 -0.5119604 0)
(-0.02807475 -0.5460948 0)
(-0.02420268 -0.5810743 0)
(-0.02029355 -0.617146 0)
(-0.01639108 -0.654745 0)
(-0.01253642 -0.6946198 0)
(-0.00878094 -0.7380843 0)
(-0.005174856 -0.7866117 0)
(-0.001767086 -0.8177289 0)
(-0.002025633 0.7282038 0)
(-0.00511743 0.6788958 0)
(-0.007358822 0.6459129 0)
(-0.009151731 0.6197703 0)
(-0.01068699 0.5953176 0)
(-0.01207274 0.5711614 0)
(-0.01340839 0.5469578 0)
(-0.01473933 0.5226434 0)
(-0.01609887 0.4982488 0)
(-0.01750505 0.4738463 0)
(-0.01896693 0.4495238 0)
(-0.02046346 0.4254599 0)
(-0.0219783 0.4016688 0)
(-0.02348559 0.3780177 0)
(-0.024972 0.3544786 0)
(-0.02641098 0.3310559 0)
(-0.02779004 0.3077874 0)
(-0.02897977 0.2846651 0)
(-0.03028456 0.2619148 0)
(-0.03090296 0.239692 0)
(-0.03174887 0.217587 0)
(-0.03243206 0.1957911 0)
(-0.03309838 0.1743309 0)
(-0.03373129 0.1532182 0)
(-0.03432886 0.1324459 0)
(-0.03488846 0.1119943 0)
(-0.03541265 0.09182665 0)
(-0.03589992 0.07188955 0)
(-0.03634632 0.05213424 0)
(-0.03674276 0.03249773 0)
(-0.03711521 0.01290179 0)
(-0.03737458 -0.0062902 0)
(-0.03753336 -0.0260445 0)
(-0.03767098 -0.04596964 0)
(-0.0377559 -0.06613366 0)
(-0.03778649 -0.08661516 0)
(-0.03775543 -0.1074945 0)
(-0.03765571 -0.1288556 0)
(-0.03747959 -0.1507857 0)
(-0.03721872 -0.173374 0)
(-0.03686174 -0.1967101 0)
(-0.03641182 -0.2208799 0)
(-0.03574851 -0.2459622 0)
(-0.03525474 -0.2719833 0)
(-0.0340984 -0.2992681 0)
(-0.03315295 -0.327692 0)
(-0.03204825 -0.3573962 0)
(-0.03053182 -0.3884881 0)
(-0.02873487 -0.4206197 0)
(-0.02657235 -0.4535133 0)
(-0.02414871 -0.4869406 0)
(-0.02157403 -0.5208029 0)
(-0.01894672 -0.5552022 0)
(-0.01628519 -0.5903269 0)
(-0.01361816 -0.6264631 0)
(-0.01096832 -0.6640663 0)
(-0.008359303 -0.7038883 0)
(-0.005820259 -0.7472151 0)
(-0.003403425 -0.7954189 0)
(-0.001139539 -0.8264554 0)
(-0.0007976598 0.7386665 0)
(-0.002471858 0.6858634 0)
(-0.00289001 0.6500501 0)
(-0.003039408 0.6221705 0)
(-0.002926716 0.5969339 0)
(-0.002818849 0.5725903 0)
(-0.002780434 0.5485607 0)
(-0.002867112 0.5246453 0)
(-0.003105264 0.5007852 0)
(-0.003535578 0.4769633 0)
(-0.004001278 0.4531534 0)
(-0.004879136 0.4292097 0)
(-0.005533364 0.4051673 0)
(-0.006382485 0.3812388 0)
(-0.007262535 0.3574346 0)
(-0.008135614 0.3337374 0)
(-0.008932174 0.3101631 0)
(-0.009590237 0.2867486 0)
(-0.01020294 0.2635861 0)
(-0.01052097 0.2409387 0)
(-0.0109749 0.2188442 0)
(-0.01138037 0.1971917 0)
(-0.01183165 0.1759143 0)
(-0.01230504 0.1549354 0)
(-0.01279493 0.1342338 0)
(-0.01330296 0.113809 0)
(-0.01384305 0.09363254 0)
(-0.01439904 0.07364419 0)
(-0.01500552 0.05377927 0)
(-0.01556719 0.03401263 0)
(-0.01614786 0.01429723 0)
(-0.01666307 -0.005233336 0)
(-0.01711555 -0.02505281 0)
(-0.017603 -0.04506239 0)
(-0.01806352 -0.0653273 0)
(-0.01851203 -0.0859148 0)
(-0.01893827 -0.1069104 0)
(-0.01933824 -0.1283995 0)
(-0.01970769 -0.1504728 0)
(-0.02004195 -0.1732266 0)
(-0.02033484 -0.1967656 0)
(-0.02057576 -0.2212024 0)
(-0.0207617 -0.2466435 0)
(-0.02081008 -0.2732349 0)
(-0.02085875 -0.3009187 0)
(-0.02067612 -0.3297549 0)
(-0.01996867 -0.3601532 0)
(-0.01923198 -0.3920508 0)
(-0.0182369 -0.4251199 0)
(-0.01680308 -0.4589518 0)
(-0.01521275 -0.4928425 0)
(-0.01352065 -0.5268079 0)
(-0.01181963 -0.5612374 0)
(-0.01013285 -0.5963422 0)
(-0.008452319 -0.6324044 0)
(-0.006793731 -0.6698716 0)
(-0.005169883 -0.7094872 0)
(-0.003599471 -0.7525257 0)
(-0.002109885 -0.8003495 0)
(-0.0007209192 -0.8313262 0)
(-0.0004927153 0.7436448 0)
(-0.001313272 0.6877471 0)
(-0.001256747 0.6498247 0)
(-0.0007368948 0.6213531 0)
(1.243167e-05 0.5959105 0)
(0.0008421653 0.5715618 0)
(0.001711256 0.5476405 0)
(0.002586386 0.5238966 0)
(0.003455418 0.5002283 0)
(0.004315142 0.4765783 0)
(0.005008658 0.4529146 0)
(0.005903319 0.4293117 0)
(0.006111957 0.4060616 0)
(0.006154726 0.3829355 0)
(0.006003886 0.3596473 0)
(0.005524329 0.3360498 0)
(0.005178147 0.3121933 0)
(0.004684907 0.2884058 0)
(0.004219272 0.2649495 0)
(0.003571557 0.2421025 0)
(0.003162042 0.2199513 0)
(0.002764061 0.1982624 0)
(0.002440099 0.1769163 0)
(0.002153342 0.1558817 0)
(0.001882603 0.1351778 0)
(0.001611563 0.114842 0)
(0.001317827 0.0948443 0)
(0.001012811 0.07504707 0)
(0.0006481326 0.05533169 0)
(0.0001874308 0.03565683 0)
(-0.0003379748 0.01600321 0)
(-0.0008914889 -0.003651395 0)
(-0.00150011 -0.02340872 0)
(-0.002131151 -0.04335233 0)
(-0.00283956 -0.06358992 0)
(-0.003546903 -0.08418099 0)
(-0.004277805 -0.1051978 0)
(-0.005016344 -0.1267229 0)
(-0.005758904 -0.1488444 0)
(-0.006505643 -0.1716577 0)
(-0.007258607 -0.1952668 0)
(-0.00801132 -0.2197774 0)
(-0.00874402 -0.2452758 0)
(-0.009425859 -0.2719179 0)
(-0.01003361 -0.3000688 0)
(-0.0104213 -0.329902 0)
(-0.01070671 -0.3611596 0)
(-0.01065945 -0.3937767 0)
(-0.0100923 -0.4276723 0)
(-0.009517544 -0.462062 0)
(-0.008691047 -0.4962921 0)
(-0.007696527 -0.5303864 0)
(-0.006654884 -0.5647958 0)
(-0.005671849 -0.5998964 0)
(-0.004702427 -0.6359555 0)
(-0.003758329 -0.6734116 0)
(-0.002842398 -0.7130043 0)
(-0.001964116 -0.7560015 0)
(-0.001136458 -0.8037439 0)
(-0.0003851229 -0.8348687 0)
(-0.0004938867 0.748663 0)
(-0.0002456242 0.6885504 0)
(0.0002077252 0.6488676 0)
(0.001488956 0.619113 0)
(0.002970908 0.5929396 0)
(0.004567331 0.5681762 0)
(0.006180244 0.544004 0)
(0.007765292 0.5201015 0)
(0.009279391 0.4963632 0)
(0.01070374 0.4728156 0)
(0.01195754 0.4496058 0)
(0.01292609 0.426906 0)
(0.01380557 0.404468 0)
(0.01455103 0.3819343 0)
(0.0151028 0.3590447 0)
(0.01586433 0.335781 0)
(0.01610379 0.3125704 0)
(0.01624011 0.289504 0)
(0.01621363 0.2666138 0)
(0.01596042 0.2438678 0)
(0.01578218 0.2213714 0)
(0.01555587 0.1993516 0)
(0.01533806 0.1778077 0)
(0.01510117 0.1566888 0)
(0.01482706 0.1359548 0)
(0.01450635 0.1155757 0)
(0.01415592 0.09551733 0)
(0.01373325 0.07575253 0)
(0.01330259 0.05625305 0)
(0.01280942 0.03687663 0)
(0.01225804 0.017484 0)
(0.01163755 -0.001965261 0)
(0.01089961 -0.02142692 0)
(0.01001552 -0.04123561 0)
(0.009100136 -0.06133738 0)
(0.008113447 -0.08182314 0)
(0.007090247 -0.1027593 0)
(0.006026735 -0.12422 0)
(0.004929267 -0.1462809 0)
(0.003805251 -0.1690133 0)
(0.002665351 -0.1925295 0)
(0.00152176 -0.2170229 0)
(0.0004017883 -0.242676 0)
(-0.0006520134 -0.2696246 0)
(-0.001618773 -0.2980305 0)
(-0.002484898 -0.3280854 0)
(-0.003233902 -0.3599614 0)
(-0.003747482 -0.3935213 0)
(-0.004143486 -0.4281482 0)
(-0.004190428 -0.4632274 0)
(-0.003801597 -0.4982534 0)
(-0.003373512 -0.5327055 0)
(-0.002848329 -0.5670362 0)
(-0.00236668 -0.6020249 0)
(-0.001916788 -0.6379658 0)
(-0.001492058 -0.6753004 0)
(-0.001095857 -0.7147639 0)
(-0.0007354394 -0.7576158 0)
(-0.0004186577 -0.805192 0)
(-0.0001747597 -0.8362938 0)
(-9.829661e-05 0.7516131 0)
(7.163196e-05 0.6881687 0)
(0.001382444 0.645676 0)
(0.003227779 0.6146806 0)
(0.005354206 0.5879839 0)
(0.007558224 0.5630686 0)
(0.009749147 0.5389902 0)
(0.01185957 0.5153664 0)
(0.01383707 0.4920582 0)
(0.0156412 0.4690449 0)
(0.01725589 0.4463445 0)
(0.01867441 0.4239753 0)
(0.01992754 0.4017059 0)
(0.02100934 0.3792244 0)
(0.02197962 0.3565291 0)
(0.02265272 0.3338875 0)
(0.02330938 0.311203 0)
(0.023852 0.2884976 0)
(0.02424738 0.2658667 0)
(0.02476651 0.2434052 0)
(0.02487918 0.2213156 0)
(0.02502127 0.1995871 0)
(0.02501357 0.1782664 0)
(0.02491349 0.157367 0)
(0.02471194 0.1368777 0)
(0.02440827 0.1167662 0)
(0.02400584 0.0969678 0)
(0.02351038 0.07738639 0)
(0.02294196 0.05794278 0)
(0.02231269 0.03859154 0)
(0.0216281 0.01931338 0)
(0.02086118 0.0001447397 0)
(0.01996253 -0.01881276 0)
(0.0189131 -0.03827515 0)
(0.01774522 -0.05818735 0)
(0.01650655 -0.07851331 0)
(0.01519899 -0.09929651 0)
(0.01383455 -0.1206163 0)
(0.01242152 -0.1425693 0)
(0.01097618 -0.1652635 0)
(0.009521916 -0.1888224 0)
(0.008081213 -0.213392 0)
(0.006675591 -0.2391404 0)
(0.00532796 -0.2662542 0)
(0.00406933 -0.2949301 0)
(0.002926062 -0.3253214 0)
(0.001910046 -0.357488 0)
(0.001023915 -0.3913642 0)
(0.0002855742 -0.4266752 0)
(-0.0002147827 -0.4627128 0)
(-0.0005838809 -0.4984161 0)
(-0.0006548414 -0.5331507 0)
(-0.0006490201 -0.5675465 0)
(-0.0005907794 -0.6025248 0)
(-0.0005377698 -0.6384655 0)
(-0.0004663593 -0.6758034 0)
(-0.0003832269 -0.7152659 0)
(-0.0002936276 -0.7581064 0)
(-0.0001935142 -0.8056704 0)
(-8.083672e-05 -0.8371268 0)
(-5.829404e-05 0.7536823 0)
(0.000585221 0.6858961 0)
(0.00226808 0.6409934 0)
(0.004488584 0.608748 0)
(0.007032585 0.5814595 0)
(0.009659568 0.5563489 0)
(0.01228138 0.5323362 0)
(0.01482345 0.5089643 0)
(0.01723632 0.4860456 0)
(0.01948436 0.4635164 0)
(0.02154787 0.4413667 0)
(0.02341388 0.4196012 0)
(0.02506721 0.3980198 0)
(0.02649972 0.3762913 0)
(0.02771303 0.354261 0)
(0.02873264 0.3319289 0)
(0.02960931 0.3093898 0)
(0.03033486 0.2868266 0)
(0.0309547 0.2644232 0)
(0.03132392 0.2423682 0)
(0.0317206 0.2206205 0)
(0.03188371 0.1992295 0)
(0.03193968 0.178252 0)
(0.03185042 0.1576901 0)
(0.03162662 0.1375225 0)
(0.03127455 0.1177092 0)
(0.03080285 0.09819127 0)
(0.03021923 0.07889442 0)
(0.02953004 0.05974047 0)
(0.02874389 0.04066215 0)
(0.02787031 0.02164032 0)
(0.02690611 0.002749715 0)
(0.02584488 -0.01582005 0)
(0.02461218 -0.03493556 0)
(0.02326092 -0.0545225 0)
(0.02181003 -0.07460007 0)
(0.02029249 -0.09519378 0)
(0.01872038 -0.1163634 0)
(0.01710884 -0.1382011 0)
(0.01547529 -0.160824 0)
(0.01384154 -0.184374 0)
(0.01223279 -0.2090171 0)
(0.01067607 -0.2349316 0)
(0.009198634 -0.2622972 0)
(0.007824812 -0.2912898 0)
(0.006574031 -0.3220566 0)
(0.00546334 -0.3546576 0)
(0.004505561 -0.3889777 0)
(0.003704221 -0.4246437 0)
(0.003055951 -0.4610023 0)
(0.002570695 -0.4972204 0)
(0.002264937 -0.532581 0)
(0.002056159 -0.5673082 0)
(0.001871556 -0.6023526 0)
(0.001645304 -0.6383533 0)
(0.001404898 -0.6757406 0)
(0.001141384 -0.7152368 0)
(0.0008406124 -0.7580934 0)
(0.0005309099 -0.8056629 0)
(9.325699e-05 -0.8371113 0)
(-3.765013e-05 0.7552781 0)
(0.0008451874 0.6830227 0)
(0.002750825 0.6355397 0)
(0.005249313 0.601971 0)
(0.008081476 0.5740572 0)
(0.01100487 0.5487439 0)
(0.0139268 0.5248005 0)
(0.01676897 0.5016856 0)
(0.01948163 0.4791535 0)
(0.0220303 0.4570947 0)
(0.02439714 0.4354638 0)
(0.02657232 0.4142429 0)
(0.02854795 0.3932121 0)
(0.03032032 0.3720292 0)
(0.03187415 0.3505478 0)
(0.03320971 0.3288012 0)
(0.03432556 0.3068852 0)
(0.03522052 0.2849313 0)
(0.0359135 0.2630619 0)
(0.03640689 0.2413707 0)
(0.03677082 0.2199846 0)
(0.03688904 0.1990309 0)
(0.0368759 0.1784896 0)
(0.03669006 0.1583519 0)
(0.03634956 0.1385929 0)
(0.03586082 0.1191666 0)
(0.03523405 0.1000062 0)
(0.03448052 0.08103102 0)
(0.03361156 0.06215983 0)
(0.03263694 0.0433314 0)
(0.03156317 0.0245393 0)
(0.03038902 0.005893999 0)
(0.02917907 -0.01231418 0)
(0.02784027 -0.0309358 0)
(0.02633352 -0.05023928 0)
(0.024742 -0.07011475 0)
(0.02308965 -0.09055142 0)
(0.02139419 -0.1116092 0)
(0.01967374 -0.1333895 0)
(0.01794777 -0.1560197 0)
(0.01623793 -0.1796463 0)
(0.01456679 -0.2044325 0)
(0.01295649 -0.2305532 0)
(0.01142819 -0.2581876 0)
(0.01000076 -0.2875045 0)
(0.008688632 -0.3186359 0)
(0.007501024 -0.3516321 0)
(0.006444577 -0.3863906 0)
(0.005528198 -0.422557 0)
(0.00476207 -0.4594406 0)
(0.004146614 -0.4960891 0)
(0.003668055 -0.5317035 0)
(0.003252983 -0.5664419 0)
(0.002846386 -0.601341 0)
(0.002407821 -0.6372058 0)
(0.001962755 -0.6744604 0)
(0.00150741 -0.7138225 0)
(0.001058045 -0.7565467 0)
(0.0005863874 -0.8040237 0)
(0.0001803819 -0.8357873 0)
(-5.228396e-05 0.7565143 0)
(0.0009519032 0.6795482 0)
(0.002977389 0.6294174 0)
(0.005635945 0.5944891 0)
(0.008640265 0.5659243 0)
(0.01174783 0.5403898 0)
(0.01486116 0.5165093 0)
(0.01789885 0.4936532 0)
(0.02081072 0.4715124 0)
(0.02356291 0.449929 0)
(0.0261367 0.4288173 0)
(0.02853487 0.4081222 0)
(0.03073574 0.3876642 0)
(0.03272811 0.3671299 0)
(0.03447908 0.3463156 0)
(0.03598483 0.3252214 0)
(0.03724511 0.3039362 0)
(0.0382629 0.2825871 0)
(0.03904405 0.2613072 0)
(0.03959203 0.2402191 0)
(0.0398952 0.2194379 0)
(0.04001537 0.1990244 0)
(0.03992614 0.1789815 0)
(0.03965145 0.1593117 0)
(0.03920304 0.1399928 0)
(0.03859344 0.1209767 0)
(0.03783614 0.1021958 0)
(0.03694442 0.08357198 0)
(0.03593068 0.06503028 0)
(0.03480546 0.04651844 0)
(0.03357656 0.02802827 0)
(0.03225464 0.00960601 0)