/*--------------------------------*- C++ -*----------------------------------*\
| =========                 |                                                 |
| \\      /  F ield         | OpenFOAM: The Open Source CFD Toolbox           |
|  \\    /   O peration     | Version:  2312                                  |
|   \\  /    A nd           | Website:  www.openfoam.com                      |
|    \\/     M anipulation  |                                                 |
\*---------------------------------------------------------------------------*/
FoamFile
{
    version     2.0;
    format      ascii;
    arch        "LSB;label=32;scalar=64";
    class       volScalarField;
    location    "5550";
    object      alphat;
}
// * * * * * * * * * * * * * * * * * * * * * * * * * * * * * * * * * * * * * //

dimensions      [1 -1 -1 0 0 0 0];

internalField   nonuniform List<scalar> 
12000
(
2.351342e-05
0.000150301
0.0001569726
0.0001550084
0.0001579799
0.0001885504
0.0002233421
0.000191773
0.0001472139
0.0001461841
0.0002146092
0.0002450965
0.0001641852
0.0001341103
0.0001659929
0.0002320026
0.0001875013
0.0001409589
0.000148971
0.000192241
0.0001834508
0.0001484865
0.000150557
0.0001763189
0.0001707413
0.0001501786
0.0001538606
0.0001671892
0.0001597435
0.0001513082
0.0001536728
0.0001559452
0.0001591976
0.0001585714
0.0001507508
0.0001437941
0.0001479131
0.0001669481
0.0001738978
0.0001441818
0.000123678
0.0001343729
0.0001784628
0.0001911793
0.0001356219
0.0001054297
0.000121961
0.0002149155
0.0002011827
0.0001024626
9.642004e-05
0.0001483943
0.0001852929
0.0001069901
8.937619e-05
0.0001030784
9.730634e-05
7.281371e-05
6.254369e-05
5.065158e-05
1.473989e-05
0.0001759477
0.0002117771
0.0002437826
0.0002801435
0.0003149294
0.0003493671
0.000395312
0.0004615874
0.0005348556
0.0005776039
0.0006134911
0.000688795
0.000791141
0.0008587963
0.0008826306
0.0009455518
0.001058981
0.00115221
0.001183677
0.001233525
0.001337439
0.001426373
0.001459979
0.001507979
0.001597952
0.001666618
0.001695442
0.001742492
0.001809838
0.001847613
0.001871182
0.001888482
0.001904606
0.00192627
0.001942221
0.001936779
0.001907914
0.001880366
0.001879261
0.001869462
0.00181919
0.001728171
0.00165272
0.001279607
0.001559525
0.001458714
0.001316464
0.001030244
0.0009062483
0.001032104
0.0008857254
0.0007684276
0.0006589995
0.0005358694
0.0004066448
0.0002833844
0.0001731755
8.775546e-05
4.839283e-05
2.182912e-05
0.0002192501
0.0003058126
0.0003726063
0.0004633083
0.0005675876
0.0006813239
0.0008042275
0.0009406042
0.001084934
0.001166801
0.001350998
0.001487534
0.001630436
0.001760496
0.001880343
0.002003891
0.002128733
0.002241786
0.002341415
0.002439788
0.002536052
0.002622015
0.002697455
0.002769899
0.002838158
0.002897142
0.002948414
0.002996033
0.00303726
0.00307275
0.003100653
0.003123843
0.003142167
0.003154683
0.003160256
0.003159046
0.003151185
0.003136835
0.003115524
0.003086448
0.003049331
0.003004015
0.002947908
0.002881212
0.00279671
0.00270725
0.002517902
0.002279793
0.002196726
0.002147594
0.001771831
0.001590501
0.001333838
0.001104287
0.001001661
0.0007244602
0.0004025537
0.0001464013
4.76047e-05
2.607503e-05
0.0002458858
0.0003889999
0.0005030411
0.0006514841
0.0008194463
0.001000415
0.001192353
0.001394779
0.00160027
0.001802587
0.001999471
0.00218727
0.002364184
0.002529394
0.002684423
0.002829928
0.002965005
0.003089509
0.003204293
0.003310572
0.003408411
0.003497939
0.003579848
0.003654827
0.003722885
0.003784099
0.003837303
0.003887301
0.003929404
0.003964679
0.003993594
0.004016682
0.004032786
0.004041231
0.004041811
0.004034206
0.004017819
0.003991917
0.003955762
0.003908626
0.003849727
0.003778164
0.003691336
0.003591372
0.003475877
0.003343294
0.003192116
0.003020983
0.002828553
0.002346943
0.001988998
0.001846236
0.001652086
0.001548911
0.001220097
0.0008741419
0.0005272074
0.0002142947
4.861547e-05
2.652752e-05
0.0002754806
0.0004743741
0.0006387007
0.0008406342
0.001065019
0.001303362
0.001548315
0.001794178
0.002037997
0.002274031
0.002500985
0.002717082
0.002919328
0.003104476
0.003274074
0.003431243
0.003575779
0.003708882
0.0038318
0.003945235
0.004049818
0.004146267
0.004235155
0.004316833
0.004391549
0.004458392
0.004519851
0.004574821
0.00462193
0.004661963
0.004695314
0.004721469
0.004739786
0.004749754
0.004751415
0.004744232
0.004727647
0.004701066
0.004663886
0.00461548
0.004555163
0.004482222
0.004395551
0.004292108
0.004175698
0.004040969
0.00388697
0.003713075
0.003124942
0.002856981
0.002814088
0.002646144
0.002347108
0.002006548
0.001598472
0.001151254
0.0006838051
0.0002654908
4.865468e-05
2.725758e-05
0.0002905477
0.0005503774
0.0007597997
0.001003004
0.001268848
0.001547201
0.0018294
0.002108141
0.002378732
0.002636984
0.002880221
0.003107796
0.003321078
0.00352036
0.003703523
0.003871718
0.004027026
0.004170818
0.004304223
0.004428056
0.004542996
0.004649603
0.004748259
0.004839168
0.004922424
0.004996455
0.005065581
0.00512627
0.005178766
0.005223369
0.005259616
0.005287423
0.005306291
0.005315475
0.005314897
0.005303944
0.005282095
0.005248679
0.005202998
0.005144301
0.005071749
0.004984399
0.004881213
0.004761073
0.004621541
0.004463084
0.004284144
0.004081069
0.003848995
0.003583346
0.003284134
0.002952597
0.002586893
0.002183742
0.001741895
0.001266577
0.0007737596
0.0003158851
4.893826e-05
2.816592e-05
0.0003047759
0.000616123
0.0008657218
0.001140019
0.001434265
0.001737701
0.002041208
0.002337979
0.002623964
0.002896512
0.003154042
0.003396295
0.00362377
0.003835324
0.004032259
0.00421477
0.004383602
0.004540116
0.004685537
0.004820833
0.004946742
0.00506383
0.005172497
0.005272794
0.005362628
0.005446832
0.005522756
0.005589872
0.00564799
0.005696907
0.005736191
0.005765968
0.005785607
0.005794643
0.005792774
0.00577935
0.00575393
0.005716048
0.005665172
0.005600681
0.005521846
0.005427796
0.005317538
0.005189748
0.005041486
0.004875834
0.004686562
0.004470004
0.004223617
0.003945598
0.003633207
0.003282564
0.00288962
0.002451146
0.00196572
0.001435989
0.0008782512
0.0003569501
4.912018e-05
2.908617e-05
0.000313914
0.0006681112
0.0009528284
0.001248273
0.001558362
0.00187506
0.002191959
0.002503888
0.002805522
0.00309196
0.003362097
0.003615307
0.003851177
0.004072525
0.004280616
0.004476629
0.004660415
0.00483227
0.004992945
0.005143081
0.005282895
0.005412483
0.00553189
0.005642979
0.005744405
0.005838914
0.005923417
0.005997817
0.006061903
0.006115399
0.006158027
0.006189989
0.006210528
0.006219114
0.006215315
0.006198687
0.006168813
0.006125254
0.006067518
0.005995018
0.005907018
0.005802599
0.005680607
0.005540165
0.005378115
0.005195596
0.004987572
0.004751701
0.004485503
0.00418633
0.00385082
0.003475542
0.003057257
0.002593277
0.002082491
0.001527999
0.0009449147
0.000392908
4.923032e-05
3.077274e-05
0.0003239472
0.000706197
0.001020191
0.001331456
0.001653795
0.001982832
0.002309701
0.002628238
0.002935149
0.003229341
0.003508919
0.003773267
0.004022593
0.004257761
0.004479547
0.004689451
0.004888408
0.005075822
0.005250799
0.005415111
0.005569618
0.005714714
0.005850667
0.005973409
0.006088721
0.006193134
0.006286418
0.006368315
0.006438528
0.006496732
0.006542732
0.006576603
0.006597641
0.006605301
0.006599127
0.006578676
0.006543561
0.00649345
0.006428019
0.00634694
0.006249898
0.006135684
0.006002766
0.005850691
0.005676786
0.005481471
0.005261391
0.005013867
0.004735086
0.004423471
0.004074285
0.003683318
0.00324647
0.00275998
0.002221777
0.001634367
0.001013628
0.0004236144
4.936585e-05
2.989602e-05
0.0003394642
0.000735687
0.001073293
0.001397912
0.00172766
0.002059911
0.002390139
0.002713557
0.003027051
0.00332881
0.003617692
0.003893293
0.004155751
0.004405518
0.004643019
0.004867327
0.005079398
0.005281793
0.005475037
0.00565755
0.005829038
0.005989523
0.006138842
0.006275434
0.006401952
0.006516385
0.006618398
0.006707652
0.006783798
0.006846478
0.006895499
0.006930805
0.006951805
0.00695806
0.006949245
0.006924415
0.006883048
0.006824976
0.006749888
0.006657346
0.00654677
0.006418317
0.006272312
0.006106994
0.00591998
0.0057108
0.005476788
0.005215843
0.004925921
0.004600435
0.004234746
0.003825915
0.003370553
0.002864935
0.002307443
0.001700902
0.001060546
0.0004485133
4.935678e-05
2.945216e-05
0.0003378855
0.0007486794
0.001108129
0.001445231
0.00177916
0.002113644
0.002445877
0.002772456
0.003090835
0.003399373
0.003697084
0.003983493
0.004258457
0.004521974
0.004772925
0.005013814
0.005244692
0.005464612
0.005673963
0.005872339
0.006059255
0.00623428
0.006397021
0.006546755
0.006684106
0.00680814
0.006918441
0.007014599
0.007096205
0.007162849
0.007214261
0.00725019
0.007269996
0.007273165
0.007259245
0.007228575
0.00718108
0.007116251
0.00703366
0.006932902
0.006813548
0.006675154
0.00651705
0.006338506
0.006138415
0.005915899
0.005668761
0.005394345
0.005089226
0.004750216
0.004374408
0.003955278
0.003487478
0.002967159
0.002392481
0.001766014
0.001103497
0.0004691786
4.940881e-05
3.354724e-05
0.0003176743
0.0007477892
0.001130745
0.001480113
0.001818826
0.002154347
0.002486967
0.002815029
0.003136789
0.003450882
0.003756342
0.004052569
0.004339195
0.00461544
0.004882674
0.005139712
0.005386227
0.005621731
0.005845966
0.006058655
0.006259322
0.006447406
0.006621395
0.006783004
0.006930636
0.007063801
0.007182001
0.007284745
0.007371555
0.007441956
0.007495564
0.007532058
0.007551082
0.007552303
0.007535383
0.007499996
0.007445845
0.007372688
0.007280298
0.007168473
0.007037019
0.006885704
0.006714247
0.006521417
0.006308328
0.006073178
0.00581448
0.005529826
0.005215686
0.004867538
0.00448028
0.004049284
0.003569439
0.003036339
0.002448814
0.001809427
0.001133746
0.0004852638
4.933681e-05
3.29793e-05
0.0003188852
0.0007448846
0.001141283
0.001500035
0.001842481
0.002179102
0.002512537
0.00284231
0.003167208
0.00348614
0.003798346
0.004103233
0.004400214
0.004689003
0.004968265
0.00523708
0.005495417
0.005743244
0.005980228
0.006205964
0.006420172
0.006622644
0.00681079
0.006984451
0.007142534
0.007284422
0.007409563
0.007517597
0.007608196
0.007681016
0.007735787
0.007772221
0.007789846
0.00778828
0.007767183
0.007726264
0.007665278
0.007584031
0.007482373
0.007360203
0.007217456
0.007054103
0.006870071
0.006664679
0.006438665
0.006191434
0.005922314
0.005629173
0.005308024
0.004953685
0.004560507
0.004122772
0.003635309
0.003094455
0.002497202
0.001846351
0.001158073
0.000497293
4.933986e-05
3.302645e-05
0.0003114854
0.0007347363
0.001141359
0.001508598
0.001855115
0.002192612
0.002525799
0.002855829
0.003182493
0.003505069
0.0038226
0.00413382
0.004436405
0.004728475
0.004876854
0.004993277
0.005154523
0.005358701
0.005636671
0.005918462
0.006202245
0.006423687
0.006631476
0.006856719
0.007133551
0.007417852
0.007590862
0.007703473
0.007797879
0.00787344
0.007929638
0.007966075
0.007982377
0.007978207
0.007953273
0.007907342
0.007840233
0.00775181
0.007641957
0.007510636
0.007357909
0.007183926
0.006972354
0.006667958
0.006350676
0.006085047
0.005898402
0.005693943
0.005370161
0.005013391
0.004617166
0.004175426
0.00368278
0.003135016
0.002530222
0.001871565
0.001175327
0.000506329
4.926382e-05
3.355129e-05
0.0003029853
0.0007206722
0.001133825
0.001510267
0.001862461
0.002202533
0.002536809
0.002867687
0.003195456
0.003519338
0.003837821
0.004148774
0.004407314
0.004561033
0.004705088
0.004846752
0.004981511
0.005134504
0.00531568
0.005560639
0.005832975
0.006115234
0.006376242
0.00663046
0.006868572
0.00710283
0.007329666
0.007550221
0.0077688
0.007969239
0.008075296
0.008111808
0.008127062
0.008120744
0.008092599
0.008042461
0.007970254
0.007875998
0.007717913
0.007514432
0.007276014
0.007001546
0.006688455
0.006373936
0.006103237
0.005877749
0.005689242
0.005546839
0.005407153
0.00505198
0.004655754
0.004212475
0.003716916
0.003165047
0.002555115
0.001890296
0.001187316
0.0005120429
4.922077e-05
3.408167e-05
0.0002952385
0.0007060305
0.001124047
0.00150786
0.001865066
0.002207778
0.002543145
0.002874295
0.003201968
0.003525553
0.003843639
0.004154279
0.004420861
0.004563157
0.00466363
0.00476018
0.00487947
0.005054941
0.005264259
0.005479552
0.005698951
0.005947063
0.006203739
0.006456414
0.006701698
0.006932366
0.007142301
0.007334068
0.007518529
0.007706422
0.007901375
0.007962784
0.007907411
0.007872095
0.007830824
0.007771156
0.007686273
0.00757164
0.007423505
0.007240337
0.007023431
0.006775834
0.00650142
0.006208965
0.005915251
0.005666459
0.005502243
0.005413732
0.005329861
0.005076738
0.004681783
0.004237991
0.003740494
0.003185655
0.002572032
0.001903131
0.00119587
0.000516169
4.916668e-05
3.453193e-05
0.0002884316
0.0006912614
0.001110194
0.001498331
0.001861253
0.00220742
0.002544172
0.002875311
0.003202158
0.003524495
0.003841127
0.004150112
0.004387466
0.004497308
0.004580473
0.004691123
0.004855178
0.005031805
0.005210366
0.005403794
0.005623023
0.005849872
0.00608974
0.006326514
0.006552012
0.006761413
0.006952926
0.007129225
0.007298642
0.007478373
0.007695822
0.007776915
0.00770664
0.007654961
0.007607101
0.00755103
0.007475951
0.007373076
0.007236322
0.007063061
0.006853744
0.006611235
0.006343361
0.006065918
0.005801029
0.005571502
0.005395928
0.005292193
0.005230638
0.00509375
0.004700285
0.00425647
0.003757791
0.003200867
0.002584545
0.001912786
0.001201895
0.0005184735
4.912172e-05
3.490889e-05
0.0002827756
0.0006768373
0.001095141
0.001488535
0.001855028
0.002203859
0.002541754
0.002872673
0.003198292
0.003518724
0.003832991
0.004139383
0.004364702
0.004492857
0.004596915
0.00471187
0.004843688
0.005001236
0.005191601
0.005394675
0.005611117
0.005832659
0.006058902
0.006281152
0.006493157
0.006689507
0.006867452
0.007029059
0.007184586
0.007358973
0.007601265
0.007711104
0.007630648
0.00755913
0.00749895
0.007436612
0.007358472
0.007254619
0.00711881
0.006947971
0.00674189
0.006503331
0.006239234
0.005962816
0.005695283
0.005463871
0.005296484
0.005206914
0.005170496
0.005082053
0.004711839
0.004268807
0.003769879
0.00321185
0.002593774
0.001919423
0.001206753
0.0005206583
4.906392e-05
3.52217e-05
0.0002778925
0.0006632949
0.001079496
0.001475179
0.001845203
0.002197246
0.002536454
0.002867158
0.00319149
0.003509978
0.003822014
0.004125989
0.004352832
0.004486395
0.00459768
0.004721091
0.004867713
0.005035814
0.005217665
0.005419534
0.005635505
0.005863725
0.006087705
0.006302756
0.006504836
0.006690462
0.006858639
0.007012787
0.007161888
0.007319455
0.007498203
0.007692675
0.007683895
0.007532164
0.007446468
0.007375624
0.007292615
0.007184278
0.007044202
0.006869674
0.006660842
0.006421033
0.00615787
0.005884572
0.005620536
0.005389326
0.005216933
0.005120913
0.005086937
0.005024397
0.004716931
0.004274888
0.00377562
0.003216464
0.002596991
0.001921609
0.001207659
0.0005208149
4.902364e-05
3.549172e-05
0.0002742353
0.0006513319
0.001063855
0.001460788
0.001834301
0.002187765
0.002528344
0.002859202
0.003182645
0.003499593
0.00380988
0.004112566
0.004368241
0.004519319
0.004644498
0.00477527
0.004923706
0.005092434
0.005280424
0.005485265
0.005702174
0.005923362
0.006138899
0.006346748
0.006541363
0.006718658
0.00687743
0.007021081
0.007158883
0.007305218
0.007475042
0.007680606
0.007693398
0.007535346
0.00742978
0.007340612
0.007244979
0.007128592
0.006983449
0.006806003
0.006596149
0.006357125
0.006096227
0.005825985
0.005564952
0.005336653
0.005167202
0.005075066
0.005048512
0.00500112
0.004721242
0.004279652
0.003780138
0.003220347
0.002600084
0.001923847
0.001208861
0.0005217244
4.897842e-05
3.572586e-05
0.000271205
0.0006407112
0.001049294
0.001446508
0.001821866
0.00217806
0.002519313
0.002850199
0.003173085
0.003489135
0.003798612
0.004100778
0.004395235
0.004574079
0.004714925
0.004857428
0.005013709
0.00518791
0.005378946
0.005584337
0.005795327
0.006008329
0.006218319
0.006418995
0.006604517
0.006771638
0.006919439
0.007050734
0.00717378
0.007303538
0.007461438
0.007675056
0.007704088
0.007542678
0.007420746
0.007314745
0.007205978
0.007080325
0.006928947
0.006747662
0.006536122
0.006297519
0.006038984
0.005772425
0.005515115
0.005289664
0.005121428
0.005029864
0.005006941
0.00497305
0.00472267
0.004281571
0.003781787
0.003221313
0.002600305
0.001923664
0.001208924
0.0005214557
4.892014e-05
3.593176e-05
0.0002695102
0.0006323606
0.001036189
0.001432119
0.001808759
0.002166557
0.002509299
0.002840689
0.003163494
0.003479199
0.003788406
0.004091375
0.004387069
0.004653564
0.004817172
0.004971357
0.005135995
0.00531394
0.00550531
0.005706429
0.00591376
0.006120882
0.006322741
0.006512528
0.006686597
0.006842039
0.006977778
0.007095952
0.00720395
0.007316884
0.007459432
0.007666563
0.0077087
0.007554566
0.007420182
0.007298162
0.007175846
0.007040367
0.006882471
0.006697376
0.00648437
0.006246417
0.005990339
0.005727508
0.005474362
0.005252817
0.005087623
0.004998336
0.004978606
0.004953293
0.004723599
0.004282671
0.003782497
0.003221388
0.002599763
0.001922641
0.001208134
0.0005212422
4.888168e-05
3.615368e-05
0.0002682959
0.0006250957
0.001024202
0.00141879
0.001796
0.002154958
0.002498866
0.002831114
0.00315438
0.00347039
0.003780066
0.004083747
0.004381891
0.004674346
0.00493961
0.005109761
0.00527915
0.005462222
0.005654638
0.005852717
0.006053673
0.006252531
0.006443584
0.006621908
0.006783997
0.006927416
0.007051219
0.007156777
0.007249303
0.007341278
0.007459356
0.007654318
0.007729057
0.007582234
0.007419521
0.007283944
0.007151745
0.007007855
0.006843384
0.00665399
0.006439058
0.006201424
0.005947604
0.005688447
0.005439603
0.0052222
0.005060391
0.004973765
0.004957257
0.004938899
0.00472382
0.004282852
0.003782193
0.003220468
0.002598392
0.001921268
0.001206925
0.0005205303
4.882378e-05
3.634944e-05
0.0002681283
0.0006200696
0.001014504
0.00140691
0.001783762
0.002143686
0.002488756
0.002822062
0.003146222
0.003463099
0.003773855
0.004079118
0.004379164
0.004673911
0.00496345
0.005247823
0.005453263
0.005631387
0.005819906
0.006016258
0.006212147
0.006401449
0.006580727
0.006746931
0.00689663
0.007027272
0.007138499
0.007232633
0.007315505
0.007396921
0.007489307
0.00760122
0.007718104
0.007644377
0.007436579
0.007278828
0.007134223
0.006981823
0.006811033
0.006617399
0.006400433
0.006162939
0.005911187
0.005655583
0.005411118
0.005198247
0.005040521
0.004957242
0.00494383
0.004930156
0.004724086
0.004282769
0.003781416
0.003218935
0.002596311
0.001919085
0.001205244
0.0005198104
4.87994e-05
3.636765e-05
0.0002687087
0.0006165258
0.001006143
0.001396098
0.001772541
0.002133041
0.002479306
0.0028139
0.003139349
0.003457579
0.003769905
0.004077136
0.004379693
0.004677724
0.004971216
0.005259987
0.005543392
0.005820993
0.006014739
0.006194145
0.006382593
0.006566661
0.006737829
0.006889305
0.007024981
0.007141979
0.007239829
0.0073205
0.007389328
0.007455325
0.007528927
0.007615388
0.007716393
0.007654813
0.007453026
0.007284495
0.007126211
0.006962682
0.006784185
0.006585846
0.006366723
0.006129295
0.005879515
0.005627383
0.005387322
0.005179202
0.005026023
0.004946712
0.004936694
0.004926455
0.004724721
0.004282824
0.003780649
0.003217366
0.002594199
0.001916881
0.001203506
0.0005189365
4.875546e-05
3.642213e-05
0.0002711123
0.0006141381
0.0009993712
0.001386962
0.001762834
0.002123912
0.002471221
0.002807214
0.003134254
0.003454259
0.003768624
0.004078259
0.00438368
0.004685082
0.004982389
0.005275271
0.005563144
0.005844819
0.006119443
0.006385588
0.006586978
0.006747518
0.006901106
0.007048594
0.007174107
0.007276602
0.007358874
0.007424102
0.007476499
0.007522383
0.007571005
0.007635681
0.007726046
0.007667554
0.007467849
0.007290631
0.007120953
0.006947297
0.006761346
0.006558372
0.006337171
0.006099888
0.005852128
0.005603493
0.005367913
0.005164758
0.005016512
0.004941603
0.004935013
0.004926942
0.004725977
0.00428322
0.003780002
0.003215743
0.002591895
0.001914391
0.001201522
0.0005180086
4.8744e-05
3.796477e-05
0.0002658062
0.0006108714
0.0009935837
0.001379254
0.001754523
0.002116036
0.002464654
0.002802353
0.003131383
0.003453644
0.003770564
0.004083106
0.004391812
0.004696865
0.004998111
0.005295091
0.005587052
0.005872957
0.006151555
0.006421271
0.006680498
0.006927279
0.007091826
0.007217211
0.007323817
0.007411757
0.007479225
0.007529292
0.007566109
0.007595088
0.007623891
0.007663043
0.007728335
0.007669551
0.007479185
0.007296276
0.007116411
0.006933484
0.00674081
0.006533784
0.006310931
0.006074066
0.005828452
0.00558333
0.005352248
0.0051542
0.005011227
0.004941179
0.004938228
0.004931447
0.004728159
0.004284347
0.003779946
0.003214622
0.002590043
0.001912296
0.001199774
0.0005171239
4.871693e-05
3.967888e-05
0.0002683047
0.0005996237
0.0009911109
0.001373837
0.001748112
0.002110051
0.002459974
0.002799703
0.003131204
0.00345631
0.003776426
0.004092509
0.004405088
0.004714292
0.005019882
0.00532128
0.005617601
0.005907679
0.006190098
0.00646314
0.006725087
0.006973995
0.007208087
0.007392675
0.007487075
0.00755432
0.007604682
0.007638779
0.007659525
0.007670711
0.007678323
0.007693344
0.007734455
0.007672643
0.007487468
0.007299046
0.007111309
0.006920952
0.006722621
0.006512133
0.00628797
0.006051734
0.005808423
0.005566944
0.005340466
0.00514762
0.005010072
0.004945084
0.004945749
0.004939405
0.004731686
0.004286337
0.003780474
0.003213873
0.002588375
0.001910242
0.001197914
0.0005161772
4.872061e-05
4.056501e-05
0.0002720762
0.0005910299
0.0009901994
0.001369978
0.001743481
0.002106191
0.002457981
0.002800024
0.003134494
0.00346306
0.003787055
0.004107378
0.004424487
0.004738425
0.005048834
0.005355001
0.005655892
0.005950194
0.006236194
0.00651235
0.006776722
0.007027313
0.007262441
0.007479424
0.007671038
0.007734199
0.007760845
0.007772689
0.007773678
0.007766869
0.007755067
0.007739852
0.007717749
0.007675425
0.007524169
0.007303834
0.007105133
0.006909727
0.006707743
0.006494745
0.00626968
0.006034207
0.005792997
0.005554554
0.005332052
0.00514422
0.005012452
0.004953125
0.004957743
0.004951145
0.004736359
0.004289445
0.003781917
0.00321393
0.002587421
0.001908764
0.001196492
0.0005153712
4.870893e-05
4.066241e-05
0.0002753903
0.0005826784
0.0009810723
0.001368367
0.001740904
0.002104421
0.0024582
0.002803417
0.003141603
0.003474428
0.003803131
0.004128506
0.004450901
0.004770229
0.005085985
0.00539731
0.005702873
0.006001014
0.006290491
0.006569337
0.006835584
0.007087245
0.007322352
0.007538701
0.007734517
0.00790369
0.007932136
0.007922045
0.007899736
0.007870281
0.007835487
0.007794852
0.00774395
0.00767846
0.007527335
0.007311158
0.007106488
0.0069041
0.006697151
0.006481356
0.006255132
0.006019842
0.005780779
0.005546164
0.005328789
0.005146108
0.005019579
0.00496535
0.004973637
0.004966242
0.004742012
0.004293413
0.003784157
0.003214639
0.002586931
0.001907547
0.001195181
0.0005145801
4.871695e-05
4.05729e-05
0.000278307
0.0005756358
0.000968962
0.001368673
0.001740586
0.00210534
0.002461753
0.002810704
0.003153615
0.003491573
0.003825868
0.004157172
0.004485631
0.004810903
0.005132173
0.005448185
0.005758096
0.006060425
0.006353081
0.00663415
0.006901633
0.007153639
0.007387958
0.007602788
0.007796353
0.00796705
0.008096793
0.008090498
0.008046423
0.007990767
0.007928188
0.007858265
0.007780622
0.007693801
0.007536296
0.007320929
0.007111605
0.006903981
0.006692993
0.006475055
0.006249484
0.006016905
0.005780614
0.005546476
0.005329398
0.005151018
0.005031671
0.004985044
0.004997371
0.004987486
0.004749447
0.004298734
0.003787691
0.003216413
0.002587346
0.001907071
0.001194351
0.0005139881
4.872035e-05
4.090817e-05
0.0002814727
0.0005698535
0.0009565814
0.001371381
0.001742945
0.002109264
0.002468865
0.00282219
0.003170307
0.003514518
0.003855404
0.004193081
0.00452767
0.004858917
0.005185998
0.005507839
0.005822575
0.006128527
0.006423805
0.00670643
0.006974394
0.007225893
0.007458688
0.007671154
0.007861655
0.008028745
0.00817119
0.008247057
0.008203795
0.00812489
0.008033875
0.00793572
0.007828718
0.00771207
0.007543103
0.007329933
0.007117859
0.006906477
0.006693765
0.006475921
0.006249275
0.006013871
0.005775067
0.005546713
0.005338739
0.005166608
0.005050604
0.005005712
0.005020615
0.005009227
0.004758024
0.004305091
0.003791915
0.003218873
0.00258832
0.001906966
0.001193716
0.0005135217
4.874163e-05
4.104788e-05
0.0002845497
0.0005649686
0.0009470237
0.001375438
0.001747647
0.002116408
0.002479998
0.002838531
0.003192763
0.003543485
0.003891245
0.004236389
0.004578499
0.004916725
0.005250027
0.005577015
0.00589599
0.006205093
0.006502359
0.006785793
0.007053431
0.007303521
0.007533976
0.00774329
0.007929992
0.008092815
0.008230709
0.008342853
0.008354418
0.008267591
0.008149643
0.008020397
0.00788296
0.007734416
0.007549795
0.007336148
0.007121621
0.006907467
0.006690003
0.006466958
0.006238214
0.006007859
0.005777852
0.005554059
0.005348735
0.005178545
0.005064927
0.005024041
0.005042804
0.005029849
0.00476793
0.004312738
0.003797397
0.003222406
0.002590211
0.001907607
0.001193585
0.0005131862
4.876366e-05
4.150932e-05
0.0002879377
0.0005615655
0.0009390387
0.001381712
0.001755172
0.002126964
0.002495292
0.002859944
0.003221321
0.003579855
0.003935734
0.004288782
0.00463838
0.004983516
0.005322856
0.005654802
0.005977549
0.006289171
0.006587699
0.006871181
0.007137757
0.007385574
0.007612977
0.007818477
0.008000785
0.008158818
0.008291719
0.008398848
0.008479779
0.008406282
0.008270135
0.008112719
0.007945191
0.007764139
0.007562032
0.007344659
0.007124208
0.006904042
0.006684845
0.006464556
0.006241319
0.006012756
0.005782764
0.005558065
0.005353842
0.005189098
0.005083856
0.00504989
0.005068046
0.005049748
0.004779093
0.004321504
0.003803878
0.00322685
0.002592746
0.00190868
0.001193704
0.0005130129
4.880192e-05
4.15724e-05
0.0002912596
0.0005590446
0.0009310727
0.001388955
0.001764775
0.002140917
0.002515121
0.00288703
0.003256588
0.003623789
0.003988406
0.00434988
0.004707283
0.005059335
0.005404475
0.005740938
0.006066841
0.006380249
0.006679246
0.006961961
0.007226617
0.007471518
0.007695165
0.007896247
0.008073655
0.0082265
0.008354108
0.008456014
0.008531952
0.008529347
0.00839173
0.008209696
0.008016055
0.007805244
0.007578648
0.007351604
0.007129211
0.006911415
0.006695325
0.006476363
0.006251905
0.006022231
0.005792218
0.005570414
0.00536931
0.005206971
0.00510388
0.005073246
0.005097277
0.005078568
0.004791545
0.004331269
0.003811148
0.003231866
0.002595957
0.001910416
0.001194347
0.0005130784
4.88254e-05
4.186745e-05
0.0002945023
0.0005576112
0.0009275333
0.001398702
0.001778084
0.002159484
0.002540612
0.002920573
0.00329892
0.003675225
0.004048844
0.004418828
0.004783911
0.005142552
0.005493018
0.005833453
0.00616194
0.006476557
0.00677543
0.007056769
0.007318916
0.007560356
0.007779765
0.007976024
0.008148222
0.008295659
0.008417842
0.008514469
0.008585453
0.008630796
0.008503234
0.008304339
0.008089828
0.007851999
0.007601181
0.007366289
0.007142492
0.00692488
0.006707817
0.006488447
0.006264583
0.006036847
0.005808679
0.005588252
0.005389238
0.005230387
0.00513201
0.005105861
0.005130945
0.005106932
0.004805408
0.00434234
0.003819619
0.003237978
0.002600026
0.001912429
0.001194885
0.0005129927
4.887056e-05
4.296447e-05
0.0002972707
0.0005581465
0.0009235533
0.001405013
0.001794046
0.002181627
0.002570768
0.002959928
0.003348085
0.003734255
0.004117306
0.004495896
0.004868472
0.005233308
0.005588564
0.005932342
0.006262732
0.006577848
0.006875797
0.007155103
0.007414152
0.007651622
0.007866384
0.008057518
0.008224307
0.008366241
0.008482996
0.008574426
0.008640512
0.008681408
0.008601512
0.008400338
0.008170412
0.007907993
0.007633081
0.007386266
0.00715816
0.006939893
0.00672449
0.006506627
0.006283622
0.00605591
0.005827919
0.005608294
0.005410881
0.005254513
0.005159723
0.00513822
0.005167303
0.005140954
0.004820561
0.004354604
0.0038292
0.003245088
0.002604877
0.001915575
0.001196519
0.0005133994
4.891213e-05
4.161695e-05
0.0003064489
0.0005587346
0.0009211482
0.001406012
0.001812448
0.002206991
0.002604828
0.00300378
0.003402194
0.003798531
0.004191191
0.004578455
0.004958495
0.005329391
0.005689188
0.006035935
0.006367732
0.006682778
0.006979305
0.007256038
0.00751154
0.007744685
0.007954548
0.008140406
0.008301732
0.008438186
0.0085496
0.008635985
0.008697428
0.008734148
0.008694624
0.008493103
0.008251163
0.007966738
0.007668694
0.00741095
0.007179334
0.006960886
0.006745976
0.006528485
0.006305644
0.006077982
0.00585007
0.005630812
0.005434448
0.00528013
0.00518837
0.005170111
0.005200604
0.005170179
0.004836435
0.004367578
0.003839438
0.003252777
0.002610236
0.001918893
0.001198236
0.0005141191
4.896228e-05
4.078784e-05
0.0003104221
0.0005599272
0.0009192681
0.001405364
0.001834106
0.002236568
0.002643923
0.003053335
0.003462497
0.003869289
0.004271632
0.004667443
0.00505463
0.005431111
0.005794855
0.006143913
0.006476459
0.006790822
0.007085413
0.007359113
0.007610705
0.007839269
0.008044082
0.008224614
0.008380517
0.008511613
0.008617879
0.008699399
0.008756389
0.00878913
0.008776558
0.008572869
0.008320993
0.008020197
0.007703819
0.007436885
0.007202238
0.006983876
0.006770035
0.006553452
0.006330937
0.00610312
0.005874925
0.005655674
0.005459994
0.00530736
0.005218407
0.005203604
0.005236259
0.005202228
0.004853354
0.004381477
0.003850481
0.003261145
0.002616126
0.001922549
0.001199951
0.0005144994
4.901286e-05
4.170718e-05
0.0003082373
0.0005622662
0.0009185359
0.001406896
0.001858727
0.002270101
0.002687793
0.00310828
0.00352857
0.003945951
0.004357877
0.004761929
0.005155796
0.005537288
0.005904355
0.006255106
0.006587828
0.006900999
0.00719326
0.007463603
0.007711062
0.007934918
0.008134644
0.00830989
0.008460472
0.008586348
0.008687695
0.008764618
0.008817395
0.008846359
0.008843311
0.00863926
0.008382359
0.008067895
0.007737494
0.00746421
0.007228014
0.007010304
0.006797535
0.006581573
0.006359031
0.006130721
0.005901895
0.00568228
0.005486909
0.005335588
0.005249043
0.00523721
0.005271559
0.005233952
0.004870934
0.004396003
0.003862118
0.003270074
0.002622549
0.001926691
0.001202173
0.000515282
4.907553e-05
4.349994e-05
0.0003098147
0.000565761
0.0009189342
0.001409253
0.001886429
0.002307479
0.002736105
0.003168048
0.003599629
0.004027556
0.004448844
0.004860775
0.005260865
0.00564686
0.006016738
0.006368702
0.006701186