/*--------------------------------*- C++ -*----------------------------------*\
| =========                 |                                                 |
| \\      /  F ield         | OpenFOAM: The Open Source CFD Toolbox           |
|  \\    /   O peration     | Version:  2312                                  |
|   \\  /    A nd           | Website:  www.openfoam.com                      |
|    \\/     M anipulation  |                                                 |
\*---------------------------------------------------------------------------*/
FoamFile
{
    version     2.0;
    format      ascii;
    arch        "LSB;label=32;scalar=64";
    class       volScalarField;
    location    "5550";
    object      ILambda_6_0;
}
// * * * * * * * * * * * * * * * * * * * * * * * * * * * * * * * * * * * * * //

dimensions      [1 0 -3 0 0 0 0];

internalField   nonuniform List<scalar> 
12000
(
3955.432
3961.232
3965.127
3963.842
3957.603
3952.66
3958.641
3981.117
4014.193
4038.429
4025.99
3950.645
3797.86
3570.43
3287.436
2977.546
2669.931
2386.546
2138.222
1925.053
1739.885
1572.983
1416.134
1265.126
1120.373
985.9972
868
772.1295
701.9993
657.8253
636.0073
629.6163
629.6888
627.0676
614.4082
587.92
548.4574
501.7158
457.4874
428.1428
426.6629
464.6269
550.5338
688.7251
879.021
1117.014
1394.842
1702.211
2027.429
2358.301
2682.806
2989.581
3268.275
3509.865
3707.08
3854.371
3950.515
3988.513
3999.903
3884.025
3982.82
3984.367
3976.849
3964.485
3960.367
3977.421
4014.364
4047.998
4038.789
3947.194
3751.547
3458.208
3099.561
2721.822
2368.998
2070.062
1833.706
1651.03
1503.308
1370.849
1239.71
1104.726
969.0171
841.1514
731.414
648.3615
596.3813
574.5405
576.7232
592.8781
611.0894
620.0803
611.6864
582.8141
536.4729
481.6429
431.9848
403.65
412.6437
472.2696
591.1378
772.0535
1011.888
1302.312
1631.126
1983.825
2345.109
2700.093
3035.152
3338.42
3600.059
3812.435
3970.299
4070.986
4114.653
4104.164
4046.421
3943.717
3836.364
3594.738
3991.779
3977.946
3961.826
3961.291
3988.746
4031.757
4049.958
3992.287
3822.935
3539.835
3176.162
2786.009
2423.086
2122.861
1894.903
1726.309
1592.249
1467.866
1336.854
1194.71
1047.192
905.9934
783.8248
690.4704
630.5022
602.6327
600.3511
613.4296
629.9594
638.6328
630.9784
603.2132
557.3611
501.364
448.0907
413.3833
413.5056
462.4993
569.9634
739.6605
969.1419
1250.352
1570.968
1916.126
2270.148
2617.992
2946.256
3243.726
3501.55
3713.22
3874.478
3983.275
4039.777
4046.391
4007.725
3930.322
3822.833
3691.164
3564.705
3345.612
3976.95
3957.651
3962.668
4002.187
4046.011
4031.819
3900.882
3632.72
3256.415
2835.593
2439.439
2116.282
1880.939
1717.952
1595.413
1481.127
1354.26
1209.526
1054.729
904.6737
774.6909
675.9267
613.1302
584.5703
583.2685
598.811
619.3155
633.4003
632.0972
610.5771
569.4247
515.1388
459.6083
418.5242
408.9547
446.5427
542.8958
703.6967
927.8773
1207.942
1531.265
1881.995
2243.129
2598.346
2933.335
3236.519
3499.232
3715.531
3881.848
3996.662
4060.293
4074.822
4044.089
3973.632
3870.545
3743.089
3600.417
3449.976
3312.902
3117.162
3950.733
3961.255
4013.909
4049.406
3977.482
3742.11
3357.881
2898.891
2457.628
2103.239
1859.688
1708.278
1606.564
1511.134
1394.044
1248.539
1085.321
923.861
783.5271
677.6011
611.0566
581.2797
580.2696
597.0701
619.8113
637.3237
640.5602
623.9951
586.9138
534.2619
476.6533
429.2732
409.7137
435.1025
519.1245
669.5876
887.0531
1164.777
1489.891
1845.462
2212.937
2574.431
2914.476
3220.995
3485.537
3702.935
3870.66
3988.154
4056.319
4077.266
4054.28
3991.903
3896.003
3773.695
3633.128
3482.984
3332.104
3188.207
3064.454
2920.246
3950.521
4019.826
4035.342
3870.275
3494.639
2988.626
2481.41
2078.368
1820.341
1684.492
1612.33
1543.579
1439.969
1292.912
1117.605
940.4107
786.5111
672.1184
602.2481
572.6098
573.2635
592.0729
617.0163
637.4108
644.6416
632.9746
600.6492
550.9864
492.9741
440.8087
412.1726
425.4446
496.4212
635.3127
844.7285
1119.1
1445.615
1806.362
2181.127
2550.198
2896.609
3207.489
3474.422
3692.994
3861.848
3981.615
4054.034
4081.448
4066.689
4013.27
3925.69
3809.687
3672.299
3521.649
3366.583
3215.948
3078.224
2960.728
2869.582
2795.959
4004.218
3998.876
3689.664
3132.914
2522.379
2036.397
1750.986
1637.501
1610.213
1581.485
1497.646
1348.432
1156.476
958.3574
787.3374
663.3597
591.0857
563.513
567.6537
589.4231
616.4123
638.6952
648.6695
641.0134
613.3344
567.3988
510.295
454.74
417.9905
419.3187
476.5471
602.4883
802.2024
1071.762
1398.793
1764.589
2147.225
2524.908
2878.812
3194.908
3464.557
3684.01
3853.171
3974.091
4049.644
4082.678
4075.762
4031.431
3952.748
3843.892
3710.587
3560.18
3401.386
3243.683
3096.634
2968.859
2867.673
2798.47
2759.356
2771.183
3963.993
3412.519
2621.052
1969.883
1625.483
1547.384
1594.704
1629.8
1575.001
1420.734
1203.713
976.5578
783.6059
648.9246
575.7163
552.7238
562.5989
588.5233
617.4961
640.6317
651.9308
647.1455
623.7558
582.155
527.3471
470.1015
426.6737
416.7499
459.9524
571.7855
760.1201
1023.17
1349.475
1719.843
2110.702
2497.993
2860.676
3183.156
3456.234
3676.649
3845.587
3966.71
4044.324
4082.095
4082.562
4047.399
3978.19
3877.402
3749.216
3599.961
3438.06
3273.49
3116.9
2978.524
2867.216
2789.259
2748.324
2744.568
2768.103
2855.269
3097.52
1885.438
1368.894
1360.86
1553.999
1701.875
1689.955
1520.776
1261.509
991.8813
771.023
625.8548
555.0771
540.5069
558.9001
590.1965
620.9401
643.7487
654.8257
651.6048
631.9244
595.0417
543.7877
486.5924
438.1438
417.9924
447.2139
543.9718
719.232
973.8478
1297.82
1671.897
2071.041
2468.826
2841.673
3171.973
3449.548
3671.349
3839.77
3960.23
4038.752
4080.171
4087.302
4061.131
4001.794
3909.921
3787.926
3640.863
3476.646
3305.599
3139.462
2990.079
2868.012
2781.272
2734.494
2727.956
2758.676
2817.749
2892.486
3003.253
493.2174
897.6009
1478.756
1849.545
1890.454
1670.862
1330.367
994.9613
740.1262
589.0052
528.375
528.4491
558.5322
595.7288
627.189
647.9818
657.1461
654.205
637.6423
605.745
559.1414
503.6446
451.8926
422.7531
438.3285
519.289
679.8733
924.026
1243.785
1620.356
2027.534
2436.533
2820.954
3160.722
3444.187
3668.132
3835.993
3955.016
4033.218
4076.975
4089.747
4072.104
4022.824
3940.624
3825.941
3682.275
3516.766
3339.891
3164.407
3003.785
2870.468
2774.251
2721.038
2712.047
2743.764
2807.597
2892.973
2980.505
3066.374
3113.029
1475.341
2275.449
2297.789
1900.313
1390.648
955.9831
670.3115
530.724
496.9542
521.3796
565.8713
607.4302
636.6344
652.7277
658.1817
654.5863
640.9175
614.422
573.4917
521.1845
467.7631
430.9515
433.436
498.1438
642.643
874.3305
1187.837
1565.392
1980.032
2400.724
2798.056
3149.05
3440.055
3667.213
3834.732
3951.669
4028.268
4072.836
4089.91
4079.985
4040.666
3968.738
3862.469
3723.513
3557.919
3376.066
3191.588
3019.58
2874.473
2768.008
2707.615
2695.416
2727.944
2796.458
2888.075
2986.175
3075.772
3130.317
3168.702
3062.231
3345.36
2180.876
1320.944
787.4148
526.075
449.6582
472.8988
531.7856
588.6066
627.8965
648.5706
656.036
656.1796
651.8062
641.5771
621.3026
587.0858
539.2564
485.5877
442.3504
432.4161
480.6635
607.9315
825.3134
1130.515
1507.364
1928.608
2361.196
2772.611
3136.604
3436.981
3668.717
3836.417
3950.839
4024.616
4068.368
4088.173
4084.877
4055.181
3993.989
3897.247
3764.456
3600.217
3414.494
3221.591
3038.163
2880.717
2763.117
2694.548
2678.223
2710.955
2783.569
2882.012
2988.903
3085.627
3153.15
3178.801
3136.552
3075.785
2773.473
456.1117
313.1635
322.0488
406.666
506.07
585.825
634.4387
655.2356
658.1883
653.6598
648.5934
644.9091
639.6789
626.8484
600.3449
558.0197
505.2428
456.6572
434.9779
466.7118
575.8345
777.2759
1072.208
1446.581
1873.344
2317.738
2744.158
3122.804
3434.451
3672.352
3841.055
3952.805
4022.697
4063.995
4084.805
4086.81
4066.163
4016.026
3929.921
3804.903
3643.729
3455.56
3255.092
3060.418
2890.162
2760.493
2682.608
2661.059
2693.148
2769.338
2874.542
2989.998
3095.461
3171.364
3201.039
3171.269
3078.644
2906.285
2728.973
2265.348
634.4169
660.7999
681.3553
687.9985
681.3898
666.9557
651.2343
639.5339
634.4531
635.0266
636.6363
632.0313
613.7247
577.5843
526.6747
473.7716
441.04
456.2741
546.4484
730.448
1013.249
1383.38
1814.455
2270.324
2712.395
3107.138
3431.894
3677.661
3848.438
3957.64
4022.791
4060.051
4080.013
4085.731
4073.25
4034.23
3959.745
3844.139
3687.915
3498.986
3292.077
3086.523
2903.063
2760.34
2671.838
2643.759
2674.151
2753.279
2865.067
2989.278
3104.045
3188.411
3224.571
3199.599
3106.71
2944.957
2723.219
2438.845
2173.844
1652.695
627.7385
626.1551
623.1299
620.1344
618.3844
618.8727
622.4803
629.0704
636.0382
637.7066
626.6487
597.0835
549.3566
493.6392
450.8511
449.6662
520.0151
684.9913
953.7871
1317.952
1752.138
2219.067
2677.249
3089.325
3428.898
3684.262
3858.38
3965.458
4025.3
4057.102
4074.342
4081.978
4076.464
4048.299
3986.183
3881.551
3732.246
3544.441
3332.448
3116.564
2919.575
2762.741
2662.124
2625.933
2653.288
2734.483
2852.545
2985.712
3110.355
3203.9
3247.364
3227.256
3136.705
2975.818
2751.325
2475.367
2166.05
1833.884
1544.415
1093.806
629.0757
630.0071
630.8417
631.4243
632.2746
634.6151
638.6739
641.3407
635.6852
613.7595
571.913
516.2172
465.1746
447.8095
497.1465
641.0675
893.6741
1250.084
1686.293
2163.986
2638.746
3069.264
3425.189
3691.792
3870.602
3976.234
4030.534
4055.744
4068.514
4076.2
4076.217
4058.34
4009.088
3916.879
3776.521
3591.931
3376.494
3151.094
2940.418
2768.438
2654.087
2607.973
2630.684
2712.838
2836.707
2978.986
3114.134
3217.733
3269.384
3254.826
3167.101
3006.799
2781.448
2504.321
2192.687
1866.295
1544.858
1245.92
1000.578
717.1368
630.0663
630.3757
630.0289
630.0641
632.1124
635.8967
636.52
624.9657
593.2584
541.9312
485.4914
452.456
479.12
599.1066
832.5936
1179.129
1616.378
2104.875
2596.96
3047.084
3420.737
3699.991
3884.717
3989.654
4038.427
4056.217
4062.984
4068.877
4072.813
4064.356
4028.159
3949.626
3820.231
3641.12
3424.174
3190.398
2966.136
2778.104
2648.38
2590.395
2606.656
2688.473
2817.571
2969.12
3115.519
3230.248
3291.21
3283.123
3198.793
3039.246
2812.902
2534.044
2220.876
1893.511
1571.856
1274.734
1015.731
812.2224
656.6132
572.2343
630.4141
629.7524
629.6793
632.1168
635.7538
633.2291
613.6451
570.8753
512.8638
465.4832
467.742
560.0183
770.3162
1104.101
1541.327
2041.127
2551.894
3023.171
3415.933
3708.974
3900.518
4005.357
4048.71
4058.515
4058.021
4060.403
4066.545
4066.344
4043.013
3979.093
3862.525
3691.207
3474.909
3234.196
2996.726
2791.903
2645.183
2573.257
2581.052
2661.014
2794.602
2955.528
3113.997
3241.12
3312.767
3312.344
3232.206
3073.741
2846.298
2565.324
2250.085
1921.352
1599.32
1302.007
1043.928
836.4533
683.5595
598.2299
543.5695
631.2493
629.1259
628.7141
631.4036
634.5779
627.7019
598.4655
545.3785
487.7758
465.2764
525.6756
707.2674
1024.009
1459.541
1971.477
2503.15
2997.938
3411.533
3719.328
3918.155
4023.119
4061.073
4062.54
4053.883
4051.327
4058.029
4064.733
4053.722
4004.969
3902.835
3741.574
3528.235
3282.315
3032.323
2810.198
2644.937
2556.909
2554.007
2630.323
2767.403
2937.633
3108.927
3249.751
3333.59
3342.181
3267.179
3110.21
2881.575
2598.02
2280.072
1949.39
1626.503
1329.144
1071.246
862.6106
708.8277
612.6766
570.5301
590.9765
623.3009
831.1714
627.2677
630.3227
633.1931
621.2162
581.4077
521.0089
475.6628
499.903
645.2659
938.2658
1368.949
1893.782
2449.572
2971.48
3408.437
3732.027
3938.126
4042.835
4075.058
4067.889
4050.529
4042.034
4047.908
4060.136
4060.618
4027.199
3940.785
3791.716
3583.752
3334.642
3073.188
2833.58
2648.433
2542.171
2526.209
2596.851
2736.164
2915.409
3100.158
3255.973
3353.574
3372.645
3303.829
3148.825
2918.878
2632.162
2310.676
1977.204
1652.806
1355.079
1097.271
888.1449
732.3962
631.4353
584.0618
588.0098
636.8948
737.08
836.3309
1121.411
628.7797
632.2808
615.2346
564.7526
502.9851
487.8167
587.2702
846.5327
1266.853
1804.874
2389.105
2943.456
3407.635
3748.482
3961.411
4064.67
4090.159
4073.847
4047.49
4032.519
4036.561
4053.036
4063.979
4045.667
3975.857
3840.879
3640.713
3390.668
3119.181
2862.293
2656.197
2529.687
2498.244
2561.001
2701.047
2888.8
3087.501
3259.582
3372.614
3403.81
3342.44
3190.056
2958.794
2668.361
2342.438
2005.191
1678.445
1379.828
1121.96
912.563
755.2026
650.3647
596.5382
591.1363
630.9427
712.9492
831.4436
991.7023
1144.539
1482.834
632.281
612.8966
552.461
498.695
539.3027
749.1958
1149.718
1700.37
2318.864
2913.297
3410.377
3770.631
3989.562
4089.214
4106.055
4079.646
4044.111
4022.588
4024.273
4043.951
4064.215
4060.416
4007.66
3888.352
3698.322
3449.756
3169.998
2896.411
2668.608
2519.98
2470.601
2523.063
2662.056
2857.519
3070.451
3259.976
3390.156
3435.285
3382.861
3234.01
3001.654
2707.096
2375.897
2033.867
1703.858
1403.732
1145.591
936.1168
777.6506
669.6266
609.9539
596.0757
625.5468
696.1656
805.6042
951.3957
1128.17
1338.763
1536.286
1907.637
622.6545
550.8551
516.7142
648.7041
1010.95
1572.328
2234.289
2880.529
3418.736
3801.161
4024.544
4117.207
4122.422
4084.448
4039.636
4011.957
4011.297
4033.452
4061.878
4071.7
4036.039
3933.654
3755.98
3511.432
3225.468
2936.14
2686.195
2513.764
2443.984
2483.563
2619.416
2821.446
3048.579
3256.52
3405.488
3466.419
3424.599
3280.397
3047.354
2748.386
2411.098
2063.209
1728.885
1426.463
1167.685
958.2332
799.164
688.7184
624.0404
602.4435
622.0424
681.7496
780.7656
917.8278
1090.334
1294.105
1521.331
1769.939
1995.44
2362.23
576.2972
563.7049
837.9515
1401.996
2125.51
2845.387
3437.775
3844.98
4068.914
4148.929
4138.271
4086.996
4033.178
4000.354
3997.898
4022.071
4057.442
4079.692
4060.788
3976.285
3813.089
3575.214
3285.389
2981.623
2709.419
2511.7
2419.106
2443.105
2573.499
2780.659
3021.68
3248.798
3418.103
3496.736
3467.316
3329.073
3095.939
2792.401
2448.237
2093.324
1753.445
1447.699
1187.671
978.144
818.8598
706.7402
637.9742
609.5402
619.9316
669.0729
757.5976
885.7736
1052.391
1253.916
1484.007
1733.845
1991.474
2249.079
2469.677
2772.403
622.1598
1132.176
1962.016
2808.908
3481.37
3913.693
4126.985
4183.158
4150.456
4084.763
4023.693
3987.966
3984.86
4010.61
4051.368
4084.389
4081.503
4015.622
3869.02
3640.644
3349.576
3032.96
2738.609
2514.257
2396.465
2402.113
2524.574
2735.227
2989.62
3236.524
3427.654
3525.95
3510.893
3380.161
3147.796
2839.748
2488.05
2124.96
1778.188
1467.915
1205.831
995.9652
836.7659
723.7306
651.8986
617.6788
619.7209
658.7985
736.8957
855.8367
1015.849
1214.411
1445.639
1700.305
1966.451
2230.547
2478.416
2698.912
2871.268
3048.941
1479
2764.854
3597.438
4039.909
4207.037
4214.071
4150.154
4072.005
4009.695
3976.113
3974.354
4000.747
4044.329
4085.547
4097.405
4050.781
3923.106
3707.423
3418.087
3090.464
2774.195
2521.866
2376.42
2360.837
2472.758
2685.115
2952.209
3219.371
3433.729
3553.643
3555.009
3433.523
3203.016
2890.745
2531.02
2158.671
1803.635
1487.519
1222.42
1011.819
852.9386
739.7751
666.0258
627.2716
622.0537
651.7809
719.6651
829.0735
981.7541
1176.369
1407.643
1666.283
1939.644
2212.96
2470.949
2699.319
2886.734
3023.558
3111.713
3134.083
4213.117
4329.745
4300.635
4208.722
4111.953
4037.096
3990.091
3968.869
3971.241
3995.729
4037.34
4082.441
4106.936
4080.209
3974.343
3775.276
3491.252
3154.783
2816.853
2535.042
2359.266
2319.385
2418.038
2630.236
2909.287
3197.086
3435.966
3579.363
3599.17
3488.699
3261.241
2945.165
2577.034
2194.393
1829.685
1506.284
1237.034
1025.121
866.6564
754.0945
679.6105
637.6831
626.4449
647.679
705.6591
805.2516
949.8047
1139.336
1369.407
1630.883
1910.595
2192.708
2460.533
2698.411
2893.465
3036.588
3124.433
3153.588
3147.263
3036.091
4042.529
4013.936
3991.571
3980.893
3978.437
3979.471
3984.644
4000.174
4031.295
4073.495
4107.436
4101.382
4021.13
3843.786
3569.636
3226.978
2867.633
2554.489
2345.275
2277.713
2360.249
2570.46
2860.825
3169.705
3434.389
3603.055
3643.235
3545.502
3322.311
3002.944
2626.153
2232.289
1856.533
1524.355
1249.695
1035.732
877.6264
766.2931
692.2259
648.5271
632.5949
646.2879
694.7337
784.2226
919.7691
1102.93
1330.353
1593.329
1878.383
2168.742
2446.36
2694.088
2897.669
3047.198
3138.034
3170.635
3151.584
3085.739
3007.182
2831.258
4048.174
4043.91
4038.758
4029.752
4018.092
4012.174
4023.408
4055.678
4095.604
4111.196
4061.333
3912.291
3653.965
3308.589
2928.131
2581.275
2334.782
2235.569
2298.892
2505.364
2806.647
3137.301
3429.202
3624.915
3687.304
3603.938
3386.211
3064.147
2678.603
2272.778
1884.763
1542.41
1261.083
1044.263
886.3603
776.7961
704.2619
660.2244
641.0153
648.2418
687.6407
766.816
892.4919
1067.944
1291.178
1554.198
1843.483
2141.489
2428.863
2686.907
2899.871
3056.702
3152.061
3186.519
3166.084
3100.925
3004.949
2889.558
2784.637
2630.17
4043.093
4033.769
4020.593
4007.489
4006.352
4028.834
4071.83
4108.367
4092.84
3979.494
3744.63
3401.409
3000.566
2617.068
2328.398
2192.589
2233.076
2434.05
2746.183
3099.7
3420.491
3645.069
3731.364
3663.792
3452.572
3128.372
2734.081
2315.738
1914.453
1560.668
1271.467
1050.931
892.9517
785.549
715.542
672.5403
651.4908
653.4124
684.3765
753.154
868.1896
1034.64
1252.134
1513.706
1806.066
2111.097
2408.214
2677.118
2900.417
3065.694
3166.737
3203.849
3183.296
3116.096
3016.419
2899.805
2781.578
2674.919
2593.151
2525.197
4034.457
4021.32
4009.399
4014.53
4047.74
4095.112
4112.341
4041.414
3840.088
3506.783
3087.804
2664.493
2327.399
2148.555
2161.657
2355.218
2678.546
3056.618
3408.428
3663.848
3775.626
3725.003
3521.067
3195.141
2792.112
2360.831
1945.45
1579.138
1280.927
1055.764
897.2649
792.1862
725.4629
684.6828
663.1265
660.8971
684.1086
742.5153
846.2505
1002.478
1212.702
1471.299
1765.515
2076.881
2383.686
2663.995
2898.627
3073.576
3181.52
3222.28
3202.273
3133.18
3030.126
2909.694
2788.023
2679.344
2594.095
2541.556
2514.943
2549.342
4022.048
4009.744
4020.334
4063.557
4108.275
4087.659
3935.204
3625.45
3194.028
2727.943
2334.245
2103.557
2083.154
2267.013
2602.419
3007.621
3393.32
3681.91
3820.72
3787.944
3591.772
3264.335
2852.552
2408.036
1977.955
1598.252
1290.05
1059.39
899.8385
797.0579
734.1452
696.5677
675.7142
670.4723
686.7023
734.9231
826.8749
971.8026
1173.302
1427.39
1722.166
2039.062
2355.381
2647.553
2894.475
3080.332
3196.435
3241.892
3223.107
3152.353
3045.741
2920.98
2795.246
2683.412
2596.767
2542.412
2522.171
2537.319
2567.869
2667.084
4009.148
4022.674
4075.401
4107.911
4024.264
3759.584
3326.522
2814.863
2353.085
2057.804
1995.254
2166.559
2515.755
2951.952
3375.442
3700.011
3867.38
3853.053
3664.782
3335.809
2915.173
2457.204
2011.998
1618.253
1299.265
1062.332
901.1788
800.5474
741.7874
708.2118
689.1572
682.0423
692.1873
730.6311
810.5827
943.3782
1134.862
1382.964
1676.951
1998.444
2323.944
2628.293
2888.374
3086.353
3211.912
3263.188
3246.38
3174.256
3063.924
2934.316
2803.779
2688.09
2599.055
2543.75
2524.383
2538.607
2580.045
2641.22
2702.652
2797.022
4013.095
4077.592
4086.829
3906.126
3494.903
2936.837
2390.206
2011.031
1893.82
2049.288
2415.679
2888.827
3355.41
3719.214
3916.454
3920.711
3740.06
3409.282
2979.616
2507.997
2047.323
1638.988
1308.513
1064.586
901.2598
802.5193
748.0705
719.0853
702.7536
694.8315
699.8446
729.0978
797.0836
917.168
1097.532
1338.243
1630.036
1955.032
2289.168
2605.804
2879.764
3091.015
3227.35
3285.654
3271.694
3198.597
3084.45
2949.492
2813.402
2693.04
2600.883
2544.217
2525.032
2540.476
2583.829
2645.319
2714.453
2777.918
2830.233
2853.514
4055.022
4041.666
3716.098
3120.163
2460.192
1963.08
1770.948
1907.26
2298.129
2818.1
3335.109
3741.547
3969.137
3991.22
3817.412
3484.47
3045.716
2560.387
2083.965
1660.503
1317.842
1066.219
900.1712
803.0442
752.9766
729.0189
716.1635
708.3748
709.1841
729.9277
786.1706
893.1862
1061.506
1293.493
1581.629
1908.856
2250.832
2579.607
2867.965
3093.538
3241.97
3308.6
3298.487
3224.943
3106.971
2966.184
2823.744
2697.8
2601.691
2543.055
2523.747
2540.441
2585.701
2649.275
2719.632
2784.74
2835.592
2858.154
2867.585
2788.234
3996.946
3436.082
2605.653
1914.609
1607.311
1722.758
2155.761
2741.2
3319.414
3771.065
4027.059
4064.26
3895.801
3560.595
3113.298
2614.651
2122.324
1683.078
1327.362
1067.263
897.9868
802.3088
756.7861
738.3075
729.6165
722.8068
720.2865
733.2423
778.1107
871.9113
1027.47
1249.53
1532.553
1860.617
2209.42
2549.948
2853.024
3093.862
3255.729
3332.101
3327.018
3253.74
3132.081
2985.058
2835.467
2702.954
2601.95
2540.621
2520.795
2538.678
2586.108
2652.091
2724.39
2790.963
2841.358
2866.932
2864.494
2824.011
2778.227
2610.371
3131.376
1887.273
1344.884
1448.308
1973.268
2665.046
3321.36
3816.727
4092.644
4137.899
3972.174
3635.633
3181.927
2671.416
2163.259
1707.21
1337.041
1067.317
894.2313
799.9862
759.3946
747.0031
743.1884
738.1152
733.0176
738.8391
772.7403
853.3241
995.5999
1206.706
1483.236
1810.69
2165.149
2516.819
2834.73
3091.657
3268.293
3355.938
3357.27
3285.202
3160.199
3006.67
2849.176
2709.084
2602.166
2537.339
2516.542
2535.553
2585.442
2654.339
2729.237
2797.618
2848.761
2874.629
2870.525
2834.539
2770.258
2673.558
2584.375
2373.927
564.0244
928.8068
1733.394
2625.255
3378.726
3898.566
4168.45
4205.666
4039.109
3705.383
3251.088
2732.343
2208.803
1734.161
1347.076
1065.823
888.0963
795.435
760.5106
755.1202
757.0216
754.3734
747.2588
746.3988
769.6305
837.0218
965.6335
1164.934
1433.722
1759.14
2117.965
2479.951
2812.568
3086.205
3278.849
3379.329
3388.593
3318.873
3191.055
3030.881
2864.774
2716.049
2602.093
2532.832
2510.498
2530.516
2583.151
2655.539
2733.75
2804.605
2857.088
2883.268
2878.731
2842.546
2776.95
2686.229
2578.036
2452.573
2345.266
2140.893
1537.106
2769.334
3583.358
4044.6
4244.11
4245.626
4079.406
3762.528
3321.391
2801.614
2263.087
1766.259
1357.866
1061.974
878.4489
787.8186
759.8486
762.8763
771.6168
772.1065
763.3623
756.0238
768.6836
822.8434
937.5032
1124.348
1384.36
1706.443
2068.334
2439.661
2786.613
3077.338
3287.058
3401.887
3420.678
3354.603
3224.682
3057.864
2882.491
2724.033
2601.787
2526.981
2502.366
2523.123
2578.701
2655.128
2737.375
2811.416
2865.794
2892.57
2887.689
2850.817
2784.767
2694.661
2586.985
2468.431
2346.197
2221.401
2118.028
1945.976
4105.196
4225.201
4243.003
4195.908
4062.079
3801.515
3400.605
2889.797
2333.62
1806.487
1369.002
1053.845
863.3193
775.8536
756.9386
770.4228
787.4608
791.8713
781.7573
767.9076
769.8558
810.6068
911.0467
1084.957
1335.408
1653.082
2016.844
2396.48
2757.207
3065.153
3292.814
3423.418
3453.388
3392.437
3261.369
3088.138
2903
2733.757
2601.913
2520.325
2492.536
2513.641
2572.291
2653.302
2740.356
2818.374
2875.27
2902.982
2897.777
2859.944
2793.027
2702.795
2596.111
2479.893
2360.249
2241.941
2128.405
2019.398
1927.758
1787.083
3941.626
3973.971
3978.974
3847.327
3519.81
3019.601
2430.903
1855.811
1376.734
1036.982
839.6294
758.1954
751.6361
778.1427
805.0265
814.0554
802.7002
782.1493
773.061
800.0527
885.9167
1046.465
1286.744
1599.157
1963.749
2350.666
2724.448
3049.482
3295.676
3443.31
3486.102
3431.905
3300.906
3121.775
2926.601
2745.638
2602.883
2513.179
2481.186
2502.126
2563.912
2650.063
2742.785
2825.71
2885.911
2915.049
2909.655
2870.667
2802.456
2711.56
2605.376
2490.993
2374.319
2259.603
2149.281
2044.405
1944.785
1849.619
1765.458
1645.454
3978.831
3982.319
3728.574
3214.543
2557.587
1905.105
1369.399
1002.94
803.7217
734.7897
745.4349
787.4926
825.0937
838.8628
826.1868
798.7904
778.4089
791.247
862.05
1008.711
1238.245
1544.702
1909.268
2302.531
2688.57
3030.314
3295.321
3460.972
3518.11
3472.359
3342.852
3158.609
2953.36
2759.866
2604.872
2505.58
2468.142
2488.186
2553.006
2644.771
2744.026
2832.861
2897.258
2928.421
2923.054
2882.762
2812.837
2720.73
2614.515
2501.573
2387.677
2276.552
2169.899
2067.853
1969.605
1874.458
1781.789
1693.38
1613.28
1517.535
3926.896
3458.077
2703.018
1935.566
1328.628
941.3147
753.9629
709.2456
743.0124
801.5996
848.6109
865.7801
851.3465
817.3689
786.0137
784.6088
839.8029
971.7996
1189.819
1489.636
1853.514
2252.406
2649.996
3007.974
3291.819
3476.192
3549.015
3513.403
3386.987
3198.696
2983.612
2776.955
2608.42
2497.946
2453.602
2471.769
2539.307
2637.023
2743.629
2839.399
2908.947
2942.792
2937.698
2895.932
2823.801
2729.824
2622.919
2510.9
2399.491
2291.922
2189.104
2090.252
1993.782
1898.299
1803.364
1710.392
1621.656
1544.002
1477.56
1433.446
3146.241
1983.189
1232.376
836.1146
690.2265
689.9274
752.9832
825.1459
876.0118
892.7529
875.743
836.4487
795.7706
780.8901
820.0334
936.1553
1141.353
1433.556
1796.144
2200.238
2608.951
2982.773
3285.34
3488.87
3578.478
3554.613
3433.013
3242.023
3017.675
2797.486
2614.231
2490.944
2438.075
2453.18
2522.941
2626.849
2741.627
2845.452
2921.246
2958.582
2954.122
2910.773
2835.945
2739.386
2631.04
2519.318
2410
2305.864
2207.001
2111.649
2017.318
1921.956
1824.914
1727.579
1633.414
1548.082
1477.035
1431.3
1401.291
1445.365
682.4197
581.4164
612.5298
700.9252
793.9744
865.4898
906.3655
915.2817
894.9765
853.6193
807.5346
781.4272
804.4025
902.8485
1092.995
1375.927
1736.456
2145.597
2565.43
2954.982
3276.14
3498.995
3606.147
3595.413
3480.349
3288.214
3055.492
2821.702
2622.718
2484.986
2421.829
2432.467
2503.75
2613.963
2737.717
2850.805
2934.106
2975.932
2972.648
2927.745
2849.813
2749.99
2639.45
2527.379
2419.735
2318.897
2224.12
2132.599
2040.842
1946.054
1847.258
1745.942
1646.159
1554.113
1477.19
1423.369
1397.842
1411.615
1440.442
1590.156
853.376
884.0535
908.999
923.4019
927.7822
921.6254
901.58
865.9655
821.7695
788.4807
795.4582
873.6184
1045.231
1316.201
1673.496
2087.764
2519.283
2924.955
3264.736
3506.882
3631.934
3635.351
3528.394
3336.781
3096.865
2849.725
2634.214
2480.436
2405.076
2409.58
2481.398
2597.803
2731.218
2854.768
2946.912
2994.346
2992.897
2946.551
2865.141
2761.366
2647.836
2534.708
2428.266
2330.553
2239.984
2152.642
2063.938
1970.238
1870.145
1765.21
1659.989
1561.478
1478.072
1418.301
1389.421
1396.854
1440.975
1528.086
1620.609
1854.51
864.5833
872.235
880.7339
889.267
890.5908
875.496
842.5814
806.2019
796.4651
850.3647
998.4782
1253.618
1605.983
2025.662
2470.099
2892.976
3251.779
3513.102
3656.021
3674.172
3576.648
3387.275
3141.639
2881.785
2649.261
2477.958
2388.401
2384.872
2455.955
2578.197
2721.815
2857.001
2959.388
3013.657
3014.808
2967.2
2881.953
2773.49
2656.082
2541.076
2435.24
2340.372
2254.046
2171.182
2086.001
1993.922
1893.036
1784.889
1674.501
1569.663
1479.722
1414.094
1380.8
1385.281
1429.555
1512.429
1627.493
1774.421
1910.993
2173.531
882.3661
893.7288
904.5152
902.989
878.9751
838.3674
809.1072
833.6364
952.3108
1186.968
1532.379
1958.008
2417.285
2859.212
3237.897
3518.277
3678.648
3711.626
3624.542
3439.118
3189.52
2918.008
2668.358
2478.247
2372.47
2358.813
2427.629
2555.128
2709.38
2857.392
2971.549
3034.07
3038.78
2990.248
2900.897
2787.035
2664.83
2547.053
2441.139
2348.745
2266.631
2188.508
2107.316
2017.426
1916.315
1805.444
1690.241
1579.274
1482.837
1411.263
1373.291
1374.758
1417.8
1500.659
1617.976
1761.857
1921.39
2091.379
2236.755
2464.729
900.0536
910.5933
904.1362
870.7026
828.2765
822.5673
906.5364
1115.371
1451.312
1883.645
2360.398
2823.976
3223.83
3523.089
3700.063
3747.421
3671.41
3491.601
3240.056
2958.358
2691.845
2481.826
2357.757
2331.639
2396.336
2528.231
2693.383
2855.4
2982.973
3055.351
3064.786
3015.839
2922.23
2802.308
2674.376
2552.885
2446.146
2355.795
2277.817
2204.681
2127.966
2040.885
1940.195
1827.18
1707.61
1590.785
1487.935
1410.323
1367.436
1365.555
1406.924
1489.574
1607.764
1752.877
1914.587
2082.127
2244.901
2396.463
2517.433
2668.802
917.6437
909.0009
867.3748
831.0984
869.4952
1040.744
1361.113
1800.521
2298.675
2787.857
3210.744
3528.476
3720.537
3781.159
3716.483
3543.98
3292.849
3002.906
2720.181
2489.332
2344.816
2303.625
2361.993
2497.104
2673.23
2850.388
2993.101
3077.096
3092.577
3043.839
2945.864
2819.195
2684.532
2558.28
2449.854
2361.017
2287.03
2219.09
2147.333
2063.708
1964.135
1849.612
1726.166
1603.776
1494.58
1410.781
1362.643
1356.947
1396.107
1478.019
1596.584
1742.724
1905.663
2074.236
2238.087
2388.371
2518.796
2624.498
2703.246
2769.377
923.0341
872.0084
851.0815
961.7908
1253.41
1700.731
2228.785
2751.719
3201.177
3536.406
3740.551
3812.077
3758.52
3595.248
3347.513
3051.921
2754.084
2501.623
2334.37
2275.186
2324.663
2461.535
2648.576
2842.036
3001.761
3099.327
3122.361
3074.573
2972.156
2838.01
2695.517
2563.344
2452.265
2364.329
2294.133
2231.579
2165.276
2085.79
1988.08
1872.74
1745.958
1618.317
1502.834
1412.645
1358.832
1348.738
1385.029
1465.554
1583.936
1730.693
1894.635
2064.269
2229.021
2380.105
2511.092
2617.743
2699.047
2752.482
2788.293
2785.859
897.7367
893.6961
1117.308
1568.459
2143.518
2718.067
3201.736
3552.03
3761.552
3838.667
3795.001
3643.493
3403.411
3105.893
2794.624
2519.786
2327.16
2246.586
2284.189
2421.101
2618.93
2829.954
3008.778
3122.123
3154.432
3108.473
3001.583
2859.199
2707.7
2568.365
2453.611
2365.944
2299.359
2242.427
2182.138
2107.549
2012.523
1897.132
1767.614
1635.089
1513.405
1416.636
1356.714
1341.621
1374.365
1452.85
1570.516
1717.548
1882.375
2053.17
2219.132
2371.391
2503.507
2611.546
2693.947
2750.774
2784.644
2794.639
2796.671
2750.349
944.6134
1355.991
2017.355
2688.729
3226.143
3586.852
3787.107
3857.968
3820.722
3684.813
3459.316
3165.795
2843.72
2545.566
2324.162
2217.96
2240.096
2375.04
2583.508
2813.521
3013.774
3145.352
3188.843
3145.68
3034.271
2882.793
2720.991
2573.143
2453.622
2365.581
2302.456
2251.435
2197.771
2128.871
2037.369
1922.689
1791.028
1653.969
1526.155
1422.596
1356.117
1335.406
1363.922
1439.731
1556.191
1703.229
1868.933
2041.131
2208.747
2362.742
2496.612
2606.463
2690.764
2749.878
2785.594
2800.313
2797.883
2777.969
2756.934
2686.417
1636.133
2658.877
3315.644
3670.58
3825.522
3863.934
3825.312
3711.616
3512.911
3233.5
2904.912
2582.007
2326.922
2189.4
2191.598
2322.301
2541.418
2792.176
3016.534
3169.072
3225.823
3186.471
3070.438
2908.876
2735.308
2577.455
2451.996
2362.92
2303.14
2258.371
2211.973
2149.548
2062.355
1949.067
1815.758
1674.422
1540.473
1429.856
1356.325
1329.346
1352.919
1425.389
1540.133
1686.902
1853.476
2027.332
2197.062
2353.366
2489.576
2601.729
2688.294
2749.686
2787.696
2804.932
2804.401
2788.96
2762.06
2723.34
2687.298
2603.783
3815.197
3894.092
3874.098
3829.552
3784.186
3709.958
3560.991
3312.887
2984.458
2634.125
2337.686
2160.678
2137.161
2261.189
2491.452
2765.361
3017.03
3193.593
3265.848
3231.372
3110.564
2937.812
2750.868
2581.391
2448.766
2358.026
2301.572
2263.512
2225.118
2169.99
2087.869
1976.582
1842.039
1696.62