/*--------------------------------*- C++ -*----------------------------------*\
| =========                 |                                                 |
| \\      /  F ield         | OpenFOAM: The Open Source CFD Toolbox           |
|  \\    /   O peration     | Version:  2312                                  |
|   \\  /    A nd           | Website:  www.openfoam.com                      |
|    \\/     M anipulation  |                                                 |
\*---------------------------------------------------------------------------*/
FoamFile
{
    version     2.0;
    format      ascii;
    arch        "LSB;label=32;scalar=64";
    class       volScalarField;
    location    "5550";
    object      ILambda_13_0;
}
// * * * * * * * * * * * * * * * * * * * * * * * * * * * * * * * * * * * * * //

dimensions      [1 0 -3 0 0 0 0];

internalField   nonuniform List<scalar> 
12000
(
835.2644
798.2874
793.1539
781.7333
770.949
761.749
755.6396
752.6089
752.0289
753.3029
756.1701
760.5486
766.0904
771.8055
776.1471
777.6139
775.4743
770.0933
762.6268
754.3261
745.9691
737.7729
729.7401
722.0906
715.4359
710.5883
708.163
708.2405
710.2727
713.2407
715.9546
717.3607
716.769
713.9739
709.279
703.3942
697.2657
691.8543
687.9307
685.9364
685.9347
687.6442
690.571
694.163
697.9433
701.5398
704.6012
706.8041
707.9493
707.9596
706.7776
704.2771
700.3779
695.0768
688.2728
679.7499
669.4226
657.5975
645.0951
633.6967
775.3441
764.2529
760.7948
756.4423
755.3789
756.1988
758.4392
761.3713
764.5176
767.4391
769.6053
770.3583
769.0728
765.4318
759.6323
752.3528
744.4854
736.8035
729.7748
723.5996
718.3832
714.2752
711.4689
710.0751
709.974
710.7551
711.7841
712.3658
711.9271
710.16
707.0873
703.0485
698.6163
694.4643
691.213
689.3006
688.9056
689.9395
692.1
694.9589
698.0551
700.971
703.3691
704.988
705.6155
705.0725
703.24
700.0776
695.5969
689.8366
682.878
674.8853
666.0948
656.8006
647.4189
638.5467
630.9097
625.208
621.909
620.8309
756.9477
756.3521
757.4062
759.169
761.6133
763.7598
765.1707
765.4582
764.3891
761.7933
757.6144
751.9834
745.2728
738.0625
731.0081
724.6675
719.3795
715.2498
712.2273
710.1974
709.0256
708.5396
708.4873
708.5263
708.2717
707.389
705.6926
703.2065
700.1685
696.9786
694.1093
692.0004
690.9645
691.1227
692.3851
694.4791
697.0121
699.5488
701.6799
703.0685
703.4678
702.7179
700.7287
697.4657
692.9474
687.2527
680.5278
672.9761
664.8462
656.4308
648.0663
640.1185
632.9543
626.9198
622.3084
619.2934
617.8495
617.7122
618.4091
619.3815
758.3213
760.3676
761.0893
761.3129
760.3911
758.2228
754.8053
750.2539
744.7867
738.7132
732.4229
726.3421
720.8634
716.2718
712.6967
710.1095
708.3642
707.2535
706.5534
706.0438
705.5161
704.7823
703.6991
702.2024
700.3351
698.2544
696.2082
694.4849
693.3494
692.9819
693.4327
694.6051
696.2686
698.0982
699.7285
700.8085
701.0449
700.2273
698.2346
695.0293
690.645
685.1759
678.7691
671.6209
663.9723
656.0993
648.298
640.8676
634.0947
628.2358
623.4971
620.0135
617.8333
616.9072
617.087
618.1417
619.8037
621.8384
624.1118
626.6128
757.3478
754.9631
752.1203
748.2728
743.5843
738.323
732.7651
727.218
721.9758
717.2948
713.3588
710.2518
707.9491
706.331
705.2173
704.4079
703.7177
702.9985
702.1484
701.1159
699.9036
698.5705
697.2279
696.025
695.121
694.6498
694.6846
695.2111
696.1165
697.1983
698.1893
698.7962
698.7398
697.7918
695.7981
692.6899
688.4803
683.2552
677.159
670.3825
663.1516
655.717
648.3439
641.2986
634.8336
629.1717
624.4911
620.9154
618.5051
617.2547
617.0942
617.8989
619.505
621.7322
624.4101
627.4071
630.6501
634.125
637.8497
641.824
744.1627
737.0847
732.5805
727.3943
722.4739
717.9021
713.8725
710.4896
707.7919
705.7458
704.2553
703.1811
702.3683
701.6736
700.9869
700.2434
699.4246
698.5531
697.6834
696.8905
696.2565
695.8539
695.7274
695.876
696.2403
696.6984
697.0735
697.1519
696.709
695.5393
693.4831
690.4467
686.4118
681.4356
675.6415
669.2055
662.3408
655.2833
648.278
641.5671
635.3785
629.9144
625.3405
621.7765
619.2903
617.8952
617.5531
618.18
619.6565
621.8411
624.5844
627.7451
631.2015
634.8604
638.6589
642.5584
646.5298
650.5325
654.5026
658.3678
724.9498
717.5721
714.2456
710.5961
707.7208
705.3899
703.6134
702.298
701.3382
700.6175
700.0296
699.4924
698.9574
698.4109
697.8684
697.3644
696.9394
696.628
696.4465
696.3839
696.3946
696.3945
696.2632
695.8515
694.9955
693.5348
691.3332
688.2973
684.3908
679.6417
674.1418
668.0387
661.5231
654.8134
648.1398
641.7304
635.7987
630.5335
626.0906
622.586
620.0913
618.6323
618.1892
618.7016
620.0755
622.193
624.9227
628.1308
631.6906
635.4899
639.4352
643.4524
647.4831
651.4785
655.3919
659.1705
662.7491
666.0514
669.0086
671.6002
709.323
704.7144
703.2784
701.6479
700.5912
699.8053
699.2515
698.8344
698.4919
698.1811
697.8825
697.595
697.3276
697.0896
696.8801
696.6809
696.4501
696.1214
695.6048
694.792
693.5646
691.8053
689.4111
686.307
682.4582
677.8785
672.6349
666.8446
660.6689
654.3005
647.9501
641.8315
636.1481
631.0812
626.7818
623.3642
620.9027
619.43
618.9385
619.3837
620.6891
622.7539
625.4608
628.6847
632.3009
636.1916
640.2507
644.3855
648.517
652.5771
656.5046
660.2402
663.7223
666.8839
669.6513
671.9447
673.6831
674.7955
675.2405
675.0399
700.8314
699.003
698.7017
698.2641
698.0553
697.8926
697.7659
697.6371
697.4901
697.3106
697.0829
696.7825
696.3709
695.7937
694.9812
693.8516
692.3175
690.2937
687.7064
684.5026
680.6589
676.1885
671.1459
665.6271
659.7665
653.7296
647.7027
641.8804
636.4529
631.5943
627.4526
624.143
621.743
620.2918
619.7906
620.2057
621.4731
623.504
626.1919
629.4193
633.0643
637.0069
641.1332
645.3386
649.5286
653.6186
657.5313
661.1947
664.5386
667.493
669.9861
671.946
673.3019
673.9897
673.9563
673.1676
671.6186
669.3443
666.4266
663.0018
697.8915
697.5312
697.5693
697.5135
697.4519
697.3084
697.0649
696.6852
696.1322
695.3594
694.312
692.9286
691.1448
688.8996
686.1418
682.8373
678.9754
674.5746
669.6854
664.3919
658.8098
653.0818
647.3708
641.8498
636.6924
632.0615
628.0998
624.922
622.6094
621.2074
620.7252
621.1379
622.3906
624.4035
627.0775
630.3003
633.9526
637.913
642.0626
646.2881
650.4841
654.5533
658.4064
661.9612
665.1411
667.8741
670.0932
671.7368
672.7511
673.0947
672.7429
671.6944
669.9773
667.6558
664.835
661.666
658.3476
655.1196
652.2432
649.9503
697.4051
697.1122
696.8505
696.39
695.7204
694.7891
693.5528
691.964
689.9767
687.549
684.648
681.2553
677.3718
673.0217
668.2555
663.151
657.8116
652.3635
646.9502
641.7256
636.8455
632.459
628.7
625.6795
623.4799
622.1512
621.7096
622.1382
623.3901
625.3929
628.0531
631.2626
634.9033
638.8533
642.99
647.1947
651.3546
655.3642
659.127
662.5547
665.5682
668.0974
670.0816
671.4717
672.2317
672.3424
671.8052
670.6465
668.9222
666.7208
664.1659
661.416
658.6616
656.1193
654.022
652.6055
652.0883
652.6454
654.3781
657.2614
695.6858
694.0193
692.7228
690.9409
688.791
686.2148
683.1984
679.7354
675.8367
671.5324
666.8741
661.9357
656.8124
651.6182
646.4817
641.5406
636.9348
632.7995
629.258
626.4146
624.3493
623.1138
622.729
623.1845
624.4409
626.4323
629.0711
632.2527
635.8613
639.7745
643.8679
648.0196
652.1123
656.0366
659.6921
662.9888
665.848
668.2037
670.0031
671.2085
671.7993
671.7743
671.1544
669.9851
668.3388
666.3157
664.0435
661.6747
659.3822
657.3509
655.7673
654.8065
654.6166
655.3027
656.9108
659.411
662.6851
666.5239
670.6385
674.6975
688.8685
684.6714
681.8583
678.2728
674.381
670.1209
665.5647
660.7793
655.8545
650.8945
646.0161
641.3435
637.003
633.1171
629.798
627.1423
625.2254
624.0975
623.7816
624.2718
625.5342
627.5094
630.1153
633.2522
636.807
640.6586
644.6826
648.7555
652.7587
656.5808
660.1208
663.2892
666.0102
668.2225
669.8811
670.9585
671.4459
671.3553
670.7205
669.5984
668.0693
666.2361
664.2226
662.1694
660.2281
658.554
657.2958
656.5851
656.524
657.1733
658.5426
660.5816
663.1771
666.1538
669.282
672.2913
674.8957
676.8291
677.8866
677.9878
675.0853
668.3901
664.4527
659.6821
654.964
650.213
645.5752
641.1539
637.0654
633.4203
630.3206
627.8546
626.092
625.0801
624.8417
625.373
626.6443
628.6012
631.1671
634.2472
637.7325
641.5049
645.4415
649.4197
653.3208
657.034
660.4588
663.508
666.1089
668.2055
669.7594
670.7512
671.1811
671.0699
670.4594
669.4122
668.011
666.3567
664.5654
662.7642
661.0855
659.6596
658.6068
658.0285
657.9982
658.5533
659.6888
661.3535
663.4495
665.8368
668.3422
670.773
672.9362
674.6594
675.8146
676.3437
676.2809
675.7666
675.0455
674.4438
656.5777
649.0596
645.2944
640.9371
637.1142
633.6841
630.7943
628.5113
626.9017
626.008
625.8515
626.4292
627.7138
629.6548
632.1805
635.2008
638.6115
642.2982
646.1413
650.0204
653.8188
657.4271
660.7468
663.693
666.1964
668.2055
669.6871
670.6277
671.0337
670.9317
670.3677
669.4065
668.1299
666.6344
665.0276
663.4239
661.9392
660.6846
659.7599
659.2462
659.1998
659.6464
660.5774
661.9481
663.6794
665.6625
667.7671
669.8531
671.785
673.4476
674.7622
675.7013
676.2999
676.6609
676.9546
677.41
678.2948
679.8829
682.4156
686.052
639.1608
633.4338
631.3185
629.0499
627.6175
626.8292
626.7572
627.3844
628.6878
630.6185
633.1089
636.0733
639.4121
643.0154
646.7678
650.5522
654.2549
657.769
660.9985
663.8611
666.2907
668.2389
669.6767
670.5945
671.0026
670.9306
670.4264
669.5548
668.3951
667.0383
665.5838
664.135
662.7945
661.6587
660.8126
660.3242
660.2396
660.5795
661.3369
662.4761
663.9358
665.6326
667.4684
669.3399
671.1488
672.814
674.2822
675.538
676.6095
677.5711
678.5398
679.6668
681.1223
683.0761
685.6746
689.0151
693.1196
697.9176
703.2445
708.8674
629.1545
627.3258
627.6262
628.2129
629.558
631.4784
633.9419
636.8575
640.1317
643.6582
647.326
651.0223
654.6368
658.0662
661.2176
664.0114
666.3843
668.2906
669.7039
670.6173
671.0431
671.0124
670.5731
669.7886
668.735
667.4981
666.1697
664.8439
663.6128
662.5619
661.7656
661.2831
661.1549
661.4002
662.0153
662.9744
664.2311
665.7224
667.3746
669.1102
670.8564
672.5529
674.1604
675.6666
677.0903
678.4822
679.9214
681.5084
683.3543
685.566
688.2311
691.401
695.0773
699.2005
703.6445
708.2185
712.6781
716.7496
720.1663
722.7262
629.9454
632.3844
634.7206
637.595
640.8074
644.2614
647.8498
651.4627
654.9938
658.3433
661.4217
664.1526
666.4754
668.3469
669.7429
670.6579
671.1053
671.1161
670.7378
670.0314
669.0695
667.933
666.7073
665.479
664.3319
663.3434
662.5804
662.0965
661.929
662.0973
662.6021
663.426
664.5352
665.8827
667.4132
669.068
670.7915
672.5371
674.2732
675.987
677.6878
679.4067
681.1941
683.1145
685.238
687.6309
690.3438
693.4014
696.7924
700.4633
704.3156
708.2087
711.9675
715.3956
718.2926
720.4751
721.8003
722.1873
721.6326
720.2167
640.1445
645.2365
648.3317
651.9377
655.3625
658.6333
661.636
664.3027
666.5741
668.4094
669.7859
670.6994
671.1636
671.2094
670.8825
670.2418
669.3562
668.3021
667.1593
666.0084
664.9269
663.9858
663.247
662.7603
662.5615
662.6711
663.094
663.8202
664.8259
666.077
667.5315
669.1447
670.8731
672.6791
674.5352
676.427
678.3547
680.3338
682.3924
684.568
686.9011
689.4285
692.1756
695.1487
698.3285
701.6661
705.0814
708.4654
711.6859
714.5976
717.0536
718.92
720.0901
720.4979
720.1287
719.026
717.2922
715.0818
712.5838
709.9842
654.2936
659.377
661.8039
664.4996
666.6835
668.4798
669.8287
670.7344
671.2086
671.2814
670.9968
670.4111
669.5898
668.6051
667.5321
666.4463
665.42
664.5196
663.803
663.3175
663.0983
663.1673
663.5333
664.1923
665.1286
666.3178
667.7283
669.3255
671.0746
672.944
674.9084
676.9511
679.0648
681.2522
683.5243
685.8978
688.3911
691.0193
693.7892
696.6938
699.7082
702.7867
705.8621
708.8476
711.6412
714.1326
716.2123
717.7813
718.7622
719.1078
718.8093
717.9002
716.4575
714.5992
712.4771
710.2673
708.1566
706.3263
704.9323
704.0752
665.9206
668.8484
669.8146
670.7744
671.2273
671.3225
671.0715
670.5339
669.7701
668.8481
667.8389
666.8133
665.8394
664.9799
664.2899
663.8148
663.5894
663.6371
663.9697
664.5881
665.4831
666.6374
668.0274
669.6258
671.4039
673.3343
675.3927
677.5598
679.8225
682.173
684.6093
687.132
689.7428
692.4405
695.218
698.0583
700.9325
703.7973
706.5954
709.2564
711.7005
713.8435
715.6036
716.9084
717.7029
717.9564
717.6682
716.8707
715.6305
714.0462
712.2436
710.3689
708.5793
707.0344
705.8851
705.2653
705.2832
706.0146
707.4995
709.7428
671.1822
671.4305
671.1005
670.6198
669.8956
669.0318
668.0817
667.1148
666.1941
665.3792
664.7224
664.2679
664.0503
664.0944
664.4143
665.0149
665.8918
667.0332
668.4213
670.034
671.8469
673.8351
675.9748
678.2444
680.6254
683.1022
685.6622
688.2942
690.9868
693.7268
696.4962
699.2712
702.0194
704.6999
707.2627
709.6502
711.7999
713.6479
715.1341
716.2074
716.8312
716.9889
716.688
715.9626
714.8742
713.5102
711.9804
710.4114
708.9397
707.7043
706.8382
706.4615
706.675
707.5547
709.1486
711.4745
714.5193
718.2418
722.5839
727.4922
670.5398
669.1267
668.3116
667.3687
666.4982
665.7257
665.1049
664.6773
664.4772
664.5299
664.8518
665.4505
666.3254
667.4689
668.8674
670.5027
672.3531
674.3955
676.6057
678.96
681.4355
684.0103
686.6637
689.3751
692.1234
694.886
697.6373
700.3478
702.9831
705.5039
707.8663
710.0226
711.9239
713.5225
714.7758
715.6499
716.1239
716.1936
715.8744
715.2035
714.24
713.064
711.7736
710.4809
709.3058
708.3702
707.7912
707.6743
708.1081
709.1591
710.8685
713.2497
716.2875
719.9385
724.1322
728.7733
733.7455
738.9203
744.1738
749.4093
667.451
665.9623
665.5149
665.0643
664.8881
664.9497
665.2794
665.8831
666.7637
667.9161
669.3299
670.9893
672.875
674.9643
677.2329
679.655
682.2042
684.8536
687.5759
690.3436
693.1281
695.8999
698.6275
701.2774
703.8139
706.1992
708.3941
710.3589
712.0554
713.4489
714.5107
715.2211
715.5723
715.5705
715.2388
714.6176
713.7651
712.7563
711.6804
710.6375
709.7335
709.0754
708.7649
708.8933
709.5363
710.7491
712.5639
714.987
717.9984
721.5518
725.5762
729.9779
734.6444
739.4484
744.2532
748.9182
753.3075
757.3014
760.8048
763.7587
665.6849
665.3508
665.7652
666.332
667.2215
668.3773
669.8037
671.4824
673.3958
675.5215
677.8343
680.3067
682.9093
685.6113
688.3807
691.1843
693.9882
696.7577
699.4571
702.0501
704.5003
706.7713
708.8277
710.6364
712.1677
713.3969
714.3069
714.8892
715.1465
715.0942
714.7616
714.1923
713.4443
712.5887
711.7074
710.8904
710.2315
709.8241
709.7561
710.1053
710.9348
712.2889
714.1907
716.6398
719.6116
723.0582
726.91
731.078
735.4582
739.9352
744.3879
748.6954
752.7428
756.4281
759.6679
762.4044
764.6107
766.2931
767.4833
768.2291
667.5754
668.9559
670.3254
672.0018
673.9292
676.0743
678.4151
680.9196
683.5565
686.2914
689.0884
691.9104
694.7193
697.4766
700.1437
702.6825
705.0564
707.2302
709.1721
710.8538
712.2527
713.3522
714.1438
714.6285
714.8172
714.7327
714.4095
713.8939
713.244
712.5276
711.8209
711.2051
710.7638
710.5782
710.7241
711.2671
712.2587
713.7337
715.7072
718.1731
721.104
724.4517
728.1492
732.1135
736.2497
740.4551
744.6243
748.6548
752.4518
755.9335
759.036
761.7169
763.9582
765.767
767.1756
768.238
769.0243
769.6091
770.0574
770.4137
673.8011
676.8607
678.9792
681.528
684.168
686.9169
689.7236
692.5491
695.3515
698.0894
700.7222
703.2106
705.5176
707.6098
709.4577
711.0375
712.3316
713.33
714.0313
714.4431
714.5833
714.4803
714.1726
713.709
713.1473
712.553
711.9973
711.5545
711.2992
711.3029
711.6306
712.3373
713.4652
715.0406
717.072
719.5494
722.4434
725.7069
729.2764
733.0753
737.0171
741.0101
744.962
748.7841
752.3962
755.7307
758.7357
761.3772
763.6404
765.5294
767.0647
768.2802
769.218
769.9219
770.4304
770.7691
770.9421
770.9268
770.679
770.1558
683.6801
687.852
690.2712
693.1574
695.9187
698.6334
701.2284
703.6699
705.9191
707.9436
709.7163
711.2162
712.43
713.3525
713.9874
714.3478
714.4567
714.3466
714.0591
713.6447
713.1609
712.6712
712.2428
711.9443
711.8432
712.0027
712.4792
713.3191
714.5566
716.2113
718.2867
720.7697
723.6302
726.8225
730.287
733.9528
737.7414
741.5699
745.3558
749.0208
752.4944
755.7173
758.6438
761.2432
763.4997
765.4119
766.9902
768.2535
769.2248
769.9264
770.3749
770.5766
770.5247
770.1972
769.5581
768.5604
767.154
765.2991
762.9876
760.2731
695.286
699.5233
701.6351
704.1216
706.2858
708.256
709.9637
711.4002
712.5522
713.4185
714.0066
714.3333
714.4253
714.3179
714.0552
713.6884
713.2747
712.8759
712.5558
712.3784
712.4053
712.6932
713.2914
714.2396
715.5655
717.2833
719.3928
721.8783
724.7097
727.8428
731.2214
734.7798
738.4457
742.1436
745.7983
749.3385
752.7002
755.829
758.6819
761.2285
763.4508
765.342
766.9043
768.1464
769.0797
769.7151
770.0595
770.1136
769.8702
769.315
768.4289
767.1923
765.5925
763.6317
761.3363
758.7674
756.0309
753.2842
750.734
748.6131
705.7845
708.8873
710.1621
711.6213
712.6899
713.5143
714.0631
714.3661
714.4489
714.3498
714.1137
713.7924
713.4425
713.124
712.898
712.8246
712.9607
713.3578
714.0596
715.1001
716.5021
718.2754
720.4166
722.9084
725.7203
728.8096
732.1228
735.5981
739.168
742.7625
746.3117
749.7494
753.0154
756.058
758.8354
761.3165
763.4805
765.3165
766.8215
767.9978
768.8511
769.3876
769.6119
769.5256
769.1275
768.4141
767.383
766.0365
764.3871
762.4643
760.3205
758.0371
755.7284
753.5434
751.6629
750.2939
749.6565
749.9647
751.3979
754.0555
712.5708
713.8209
714.1319
714.4483
714.5006
714.4093
714.1935
713.9113
713.6163
713.3672
713.2223
713.2386
713.4691
713.9609
714.7532
715.8756
717.3466
719.1727
721.3479
723.8534
726.6584
729.7208
732.9893
736.4049
739.9037
743.4192
746.8854
750.2394
753.4233
756.387
759.0886
761.4961
763.5867
765.3466
766.7693
767.8545
768.6056
769.0285
769.1297
768.9158
768.3937
767.5714
766.4609
765.081
763.4617
761.6484
759.7062
757.7227
755.8097
754.1019
752.7528
751.9268
751.7881
752.4862
754.1394
756.8165
760.518
765.1621
770.5828
776.5439
714.8505
714.5446
714.3239
714.0576
713.7977
713.6027
713.5232
713.6141
713.924
714.4966
715.3669
716.561
718.0939
719.9694
722.179
724.7027
727.5093
730.5571
733.796
737.1689
740.6144
744.0686
747.4679
750.7515
753.8632
756.7533
759.3802
761.7107
763.7208
765.3948
766.7248
767.7095
768.3528
768.6623
768.6489
768.3255
767.7076
766.8143
765.6694
764.3044
762.7606
761.0923
759.3693
757.6779
756.1209
754.8156
753.8892
753.4714
753.6848
754.6333
756.3891
758.9801
762.3779
766.4897
771.1538
776.1416
781.1668
785.9081
790.0447
793.3161
714.4591
713.8503
713.8908
713.9981
714.3731
715.0063
715.94
717.1931
718.778
720.6957
722.9358
725.4768
728.2869
731.3245
734.5402
737.8783
741.2788
744.6796
748.0188
751.2371
754.2792
757.096
759.6459
761.8953
763.8194
765.4021
766.6351
767.5178
768.0558
768.26
768.1462
767.7341
767.0476
766.1149
764.9698
763.6528
762.2128
760.7085
759.2096
757.7971
756.5621
755.6037
755.0241
754.9234
755.3907
756.4961
758.2801
760.7453
763.8482
767.4941
771.5367
775.7812
779.9939
783.917
787.2884
789.8657
791.4549
791.9375
791.2905
789.6003
714.9961
715.5795
716.5684
717.8298
719.4554
721.3986
723.66
726.2115
729.0214
732.0474
735.2404
738.5451
741.9027
745.2521
748.5326
751.6858
754.6571
757.398
759.867
762.0307
763.8644
765.352
766.4863
767.268
767.7054
767.8133
767.6127
767.1298
766.3956
765.4465
764.3239
763.0749
761.7529
760.4184
759.1383
757.9865
757.0415
756.3848
756.0966
756.2509
756.9098
758.1166
759.8888
762.212
765.0351
768.2674
771.7796
775.408
778.9627
782.2407
785.0418
787.1873
788.5405
789.0254
788.6438
787.4873
785.7415
783.676
781.6171
779.8904
719.6666
722.2876
724.3886
726.9426
729.7366
732.7407
735.9059
739.1746
742.4884
745.7868
749.0094
752.0983
754.9997
757.6652
760.0537
762.1322
763.8764
765.2712
766.3105
766.9973
767.3427
767.3657
767.0919
766.5534
765.7877
764.8374
763.7497
762.5765
761.3739
760.2019
759.1239
758.2058
757.5143
757.1148
757.068
757.4265
758.2302
759.5014
761.2407
763.4222
765.9915
768.8647
771.9295
775.0501
778.0747
780.8456
783.2126
785.0473
786.2584
786.8059
786.7122
786.0701
785.0443
783.8669
782.825
782.2421
782.4491
783.7507
786.3887
790.4857
729.355
733.7427
736.5057
739.7859
743.0315
746.276
749.4388
752.4644
755.2985
757.8928
760.2062
762.2061
763.8688
765.1802
766.1359
766.7408
767.009
766.9631
766.6331
766.0559
765.2741
764.3352
763.2909
762.196
761.1076
760.0844
759.1857
758.4697
757.9923
757.8049
757.952
758.4685
759.3765
760.6825
762.3743
764.419
766.7618
769.3263
772.0167
774.7221
777.3228
779.699
781.7407
783.3589
784.497
785.1407
785.326
785.1436
784.7385
784.3052
784.0764
784.3066
785.2522
787.1474
790.1792
794.4624
800.0187
806.7672
814.53
823.054
742.2093
747.1503
749.7682
752.8194
755.5547
758.0826
760.3228
762.2506
763.8405
765.0796
765.9646
766.5026
766.71
766.6125
766.2437
765.6444
764.8611
763.945
762.9506
761.9343
760.9536
760.065
759.3232
758.7797
758.4808
758.466
758.7665
759.403
760.3838
761.7034
763.3406
765.258
767.4022
769.7046
772.0844
774.4519
776.7146
778.7835
780.581
782.0489
783.1566
783.9083
784.3474
784.5593
784.6698
784.8401
785.2569
786.1194
787.6227
789.9387
793.198
797.4718
802.7575
808.9704
815.9398
823.4147
831.0808
838.5891
845.5981
851.8485
754.71
758.6581
760.3759
762.323
763.8088
764.9841
765.8025
766.2822
766.4389
766.301
765.9049
765.2941
764.518
763.6304
762.6874
761.7465
760.8641
760.0946
759.4885
759.0909
758.9399
759.0655
759.488
760.2168
761.2498
762.5724
764.1571
765.9641
767.9421
770.03
772.1595
774.2591
776.2579
778.0918
779.7084
781.0735
782.1762
783.0335
783.6929
784.2337
784.7642
785.4173
786.342
787.6931
789.6179
792.2423
795.6563
799.9014
804.9609
810.7538
817.1347
823.8998
830.7983
837.5506
843.8697
849.4883
854.1866
857.8183
860.3306
861.7969
763.3609
765.1763
765.6559
766.1272
766.2084
766.0335
765.6093
764.9882
764.2195
763.3584
762.4619
761.5874
760.7904
760.1225
759.6303
759.3535
759.3234
759.5621
760.0812
760.8817
761.9534
763.2751
764.8153
766.5329
768.379
770.299
772.2353
774.1306
775.9316
777.5934
779.0831
780.3845
781.5011
782.4591
783.3083
784.1216
784.9929
786.0322
787.3588
789.093
791.3458
794.2082
797.7411
801.9661
806.8584
812.3436
818.2982
824.5549
830.9118
837.1466
843.0326
848.3572
852.9402
856.6489
859.4108
861.2202
862.1362
862.2693
861.7627
860.7752
766.3181
765.888
765.3936
764.747
763.9685
763.1244
762.2632
761.4428
760.716
760.132
759.7334
759.555
759.6224
759.9512
760.5465
761.4026
762.5033
763.823
765.3273
766.9748
768.7192
770.5115
772.3028
774.0471
775.7049
777.2457
778.6516
779.9197
781.0643
782.1176
783.1305
784.1707
785.3203
786.6713
788.3202
790.3608
792.8767
795.9331
799.5693
803.7923
808.572
813.8392
819.4868
825.3736
831.3322
837.1791
842.7271
847.798
852.2358
855.9175
858.7604
860.7258
861.8172
862.0739
861.5591
860.3443
858.4891
856.0244
852.9423
849.2115
764.491
762.8831
762.1657
761.3323
760.6624
760.1406
759.8165
759.7169
759.8625
760.2634
760.919
761.8185
762.9415
764.259
765.7349
767.3282
768.995
770.6911
772.3745
774.0085
775.5637
777.021
778.3737
779.6286
780.8077
781.9476
783.0995
784.3268
785.7023
787.3044
789.2121
791.4994
794.2291
797.447
801.1761
805.4121
810.1204
815.2348
820.6588
826.2689
831.9206
837.4561
842.7133
847.5358
851.7821
855.3336
858.1003
860.0237
861.076
861.2562
860.5836
859.0885
856.8035
853.7551
849.957
845.4078
840.0948
834.0069
827.1535
819.5919
761.2902
760.1335
759.9793
759.8827
760.0916
760.5418
761.2423
762.1737
763.3123
764.6268
766.0799
767.6311
769.2388
770.8628
772.4669
774.0211
775.5043
776.9058
778.227
779.4819
780.6978
781.9145
783.1827
784.5625
786.1194
787.9216
790.0348
792.5181
795.4188
798.768
802.5762
806.8302
811.4911
816.4936
821.7477
827.141
832.5441
837.8158
842.8108
847.3871
851.413
854.7733
857.3749
859.1486
860.0506
860.0605
859.1779
857.4184
854.8084
851.3814
847.1756
842.235
836.6128
830.3781
823.6253
816.486
809.1424
801.8353
794.8595
788.517
760.5163
760.8895
761.5909
762.5152
763.6542
764.9567
766.3862
767.9016
769.4628
771.0327
772.5793
774.0783
775.5143
776.8829
778.1912
779.4583
780.7151
782.003
783.3721
784.8792
786.5844
788.5475
790.8243
793.4627
796.4982
799.9506
803.8209
808.0887
812.7111
817.6228
822.7371
827.9487
833.1377
838.1743
842.9247
847.2572
851.0479
854.186
856.5785
858.1529
858.859
858.6689
857.5758
855.5921
852.7472
849.0857
844.6665
839.5634
833.8671
827.6888
821.1646
814.4605
807.7751
801.3409
795.4215
790.3041
786.2852
783.6463
782.6191
783.3155
763.7033
765.4503
766.6724
768.1681
769.6725
771.1984
772.7014
774.1636
775.5727
776.9285
778.2418
779.5348
780.8403
782.2002
783.6634
785.2836
787.116
789.2138
791.625
794.3886
797.5312
801.064
804.9803
809.2542
813.8392
818.6692
823.6594
828.7089
833.7041
838.5232
843.0407
847.1328
850.6824
853.5838
855.7471
857.1009
857.5946
857.1998
855.9099
853.7398
850.7253
846.9212
842.4018
837.2599
831.6077
825.5777
819.3239
813.022
806.8686
801.0785
795.8781
791.4969
788.1543
786.0441
785.316
786.0566
788.2707
791.8669
796.6553
802.3646
769.4364
771.5995
772.8262
774.2993
775.6743
777.0331
778.3635
779.6941
781.0562
782.4912
784.046
785.7709
787.7167
789.9309
792.4552
795.3214
798.549
802.1427
806.0901
810.3604
814.9047
819.6557
824.5297
829.4287
834.2438
838.8586
843.1543
847.0135
850.3252
852.9893
854.9202
856.0501
856.3316
855.739
854.2696
851.9432
848.8023
844.911
840.3541
835.2368
829.6831
823.8357
817.8545
811.9146
806.2036
800.9169
796.2515
792.3968
789.5243
787.7756
787.2494
787.9893
789.9738
793.1097
797.2299
802.0983
807.4217
812.8733
818.1293
822.9385
775.4787
777.4274
778.5678
779.9687
781.3703
782.879
784.5177
786.3368
788.3813
790.6937
793.31
796.2562
799.5464
803.1799
807.1401
811.3928
815.887
820.5549
825.3136
830.0674
834.7108
839.1321
843.2176
846.8554
849.9402
852.3773
854.0859
855.0031
855.086
854.3135
852.6876
850.2339
847.0012
843.0606
838.505
833.4469
828.0171
822.3621
816.6423
811.0279
805.6958
800.8234
796.5835
793.1357
790.6187
789.1404
788.7692
789.5255
791.3757
794.2288
797.9367
802.3004
807.0789
812.0043
816.7997
821.2
824.9734
827.9428
830.0067
831.1698
781.4584
783.5819
785.1109
787.0178
789.127
791.5117
794.1927
797.1915
800.5173
804.165
808.1147
812.33
816.7585
821.3323
825.9695
830.5765
835.0511
839.2853
843.17
846.5982
849.4698
851.695
853.1983
853.9216
853.8269
852.8982
851.1425
848.5907
845.297
841.3383
836.8127
831.8373
826.5459
821.0861
815.6157
810.2987
805.301
800.7847
796.9026
793.7913
791.5648
790.3069
790.065
790.8444
792.6042
795.2561
798.6655
802.6565
807.0201
811.5251
815.9325
820.0099
823.5469
826.3686
828.3461
829.4033
829.5174
828.7153
827.0658
824.6713
789.3188
792.6464
795.1329
798.1638
801.4837
805.1128
809.0243
813.1783
817.5219
821.987
826.4929
830.9483
835.2535
839.3044
842.9957
846.2251
848.897
850.9264
852.2426
852.7923
852.5422
851.4809
849.6202
846.9957
843.6661
839.7125
835.2365
830.358
825.2117
819.9442
814.7099
809.6659
804.968
800.7651
797.1935
794.3715
792.3938
791.3256
791.1984
792.0058
793.7013
796.1981
799.3705
803.0585
807.0747
811.2133
815.2611
819.0094
822.2662
824.8665
826.6822
827.6274
827.6614
826.7885
825.0531
822.5324
819.3282
815.5586
811.3459
806.8013
801.2495
806.4078
809.8764
813.9857
818.2078
822.5466
826.9099
831.2077
835.3432
839.2149
842.7213
845.7637
848.2508
850.1019
851.2505
851.6476
851.2642
850.0931
848.15
845.4743
842.1282
838.1959
833.7811
829.005
824.0022
818.9173
813.9005
809.1026
804.6704
800.7412
797.438
794.8643
793.0991
792.1932
792.1653
792.9996
794.6449
797.0146
799.989
803.4196
807.1348
810.9478
814.6656
818.0987
821.0714
823.4312
825.0565
825.8629
825.8068
824.8859
823.1375
820.6345
817.4804
813.8019
809.7427
805.4572
801.1059
796.851
792.8465
789.214
817.1601
823.5363
827.1952
831.4187
835.3533
839.0509
842.3783
845.2459
847.564
849.2555
850.2576
850.5248
850.0316
848.7741
846.7712
844.0651
840.7205
836.8234
832.4787
827.8075
822.9436
818.0289
813.2093
808.6297
804.4288
800.7344
797.6583
795.2919
793.7022
792.928
792.9782
793.8294
795.4262
797.6819
800.4813
803.6844
807.132
810.6526
814.0698
817.2111
819.9161
822.0451
823.4857
824.1592
824.0238
823.0765
821.3523
818.9219
815.8865
812.3726
808.5255
804.5022
800.4654
796.5763
792.9893
789.8465
787.2723
785.367
784.1992
783.7921
833.6857
839.3809
841.9186
844.7414
846.8603
848.413
849.2839
849.4417
848.8604
847.5388
845.4979
842.7817
839.4561
835.6079
831.3421
826.7791
822.0505
817.2955
812.6556
808.27
804.2703
800.7761
797.8901
795.694
794.2448
793.5725
793.6778
794.5316
796.0752
798.222
800.8601
803.8564
807.0619
810.3175
813.4612
816.3355
818.7945
820.711
821.9831
822.5394
822.3422
821.3896
819.7155
817.3871
814.5019
811.1816
807.5664
803.8077
800.0606
796.4767
793.197
790.3455
788.0227
786.3008
785.2188
784.779
784.9444
785.6403
786.7624
788.2011
845.3404
848.0077
848.2976
848.4617
847.7644
846.4003
844.3336
841.6221
838.3281
834.5389
830.358
825.9043
821.307
816.7016
812.2254
808.0121
804.1873
800.8634
798.1356
796.0778
794.7392
794.1427
794.2832
795.127
796.6134
798.6558
801.1453
803.9547
806.9432
809.9624
812.8624
815.4987
817.7381
819.4657
820.5896
821.0462
820.8026
819.8591
818.2484
816.0344
813.3089
810.1864
806.7984
803.2864
799.7947
796.4627
793.4178
790.769
788.6003
786.9667
785.8905
785.3593
785.3262
785.7117
786.4075
787.2827
788.1935
788.9962
789.5664
789.835
847.2973
845.4845
843.308
840.6266
837.3424
833.6153
829.5148
825.1648
820.6888
816.2188
811.8874
807.8234
804.1467
800.964
798.3639
796.4143
795.1585
794.6141
794.7716
795.5945
797.0207
798.9643
801.3194
803.9634
806.7628
809.5779
812.269
814.7024
816.7562
818.3257
819.3282
819.7071
819.4343
818.5119
816.9719
814.8745
812.3053
809.3706
806.1919
802.8997
799.6261
796.4981
793.6304
791.1196
789.0384
787.4319
786.3148
785.6708
785.4536
785.5896
785.9834
786.5244
787.0952
787.5813
787.8806
787.914
787.6345
787.0329
786.142
785.0361
838.3847
832.5998
828.9203
824.5646
820.1951
815.8338
811.6215
807.6789
804.1207
801.0479
798.5442
796.6725
795.4717
794.9557
795.112
795.9025
797.2648
799.1142
801.3473
803.8465
806.4838
809.1272
811.6452
813.9131
815.8179
817.2636
818.175
818.5013
818.2184
817.3297
815.8661
813.8843
811.4636
808.7023
805.712
802.6122
799.5234
796.561
793.829
791.4141
789.3813
787.7702
786.5933
785.8355
785.4559
785.3909
785.5594
785.8691
786.224
786.5324
786.7153
786.7132
786.4922
786.0475
785.404
784.6138
783.7497
782.8936
782.1237
781.4909
822.3752
815.0786
811.6018
807.5639
804.1202
801.1121
798.6734
796.8487
795.676
795.1656
795.3035
796.0507
797.345
799.1034
801.2256
803.5976
806.0969
808.5973
810.9743
813.1104
814.8997
816.2528
817.1004
817.3962
817.1189
816.2726
814.887
813.0151
810.7307
808.1246