/*--------------------------------*- C++ -*----------------------------------*\
| =========                 |                                                 |
| \\      /  F ield         | OpenFOAM: The Open Source CFD Toolbox           |
|  \\    /   O peration     | Version:  2312                                  |
|   \\  /    A nd           | Website:  www.openfoam.com                      |
|    \\/     M anipulation  |                                                 |
\*---------------------------------------------------------------------------*/
FoamFile
{
    version     2.0;
    format      ascii;
    arch        "LSB;label=32;scalar=64";
    class       volScalarField;
    location    "5550";
    object      nut;
}
// * * * * * * * * * * * * * * * * * * * * * * * * * * * * * * * * * * * * * //

dimensions      [0 2 -1 0 0 0 0];

internalField   nonuniform List<scalar> 
12000
(
2.980839e-05
0.0001848769
0.0001923443
0.0001898276
0.0001934491
0.0002308777
0.0002734767
0.000234819
0.0001802562
0.0001789929
0.000262771
0.0003000944
0.0002010223
0.0001641947
0.0002032223
0.0002840254
0.0002295347
0.0001725493
0.0001823461
0.0002352947
0.0002245196
0.0001817133
0.0001842313
0.0002157352
0.0002088899
0.0001837133
0.0001881964
0.0002044751
0.0001953444
0.000185005
0.0001878707
0.000190622
0.0001945694
0.0001937714
0.0001841792
0.0001756425
0.0001806335
0.0002038308
0.0002122584
0.0001759307
0.0001508596
0.0001638478
0.0002175329
0.0002329395
0.0001651624
0.0001283246
0.0001483741
0.0002613279
0.0002444696
0.0001244081
0.000116977
0.000179884
0.000224377
0.0001293881
0.0001079265
0.0001242544
0.0001170183
8.728212e-05
7.458533e-05
5.983835e-05
1.868974e-05
0.0002166648
0.0002598913
0.0002991135
0.000343856
0.0003867396
0.0004292496
0.0004859444
0.0005676895
0.0006581146
0.0007110496
0.0007555643
0.0008486384
0.0009750926
0.001058874
0.001088643
0.001166595
0.001306876
0.001422292
0.001461491
0.001523342
0.001651942
0.001762066
0.001803841
0.001863351
0.001974692
0.002059698
0.002095441
0.002153655
0.002236914
0.0022836
0.00231269
0.002333988
0.002353777
0.002380356
0.00239982
0.002392798
0.002356791
0.002322365
0.002320548
0.00230794
0.002245318
0.002132375
0.00203862
0.001577818
0.001922184
0.00179709
0.001620986
0.001267798
0.001114459
0.00126824
0.001087385
0.0009423923
0.0008071789
0.0006553731
0.0004963418
0.0003449257
0.0002099319
0.0001056784
5.75407e-05
2.771033e-05
0.0002704329
0.0003758497
0.0004579262
0.0005697887
0.0006986102
0.0008393111
0.0009915367
0.001160604
0.001339717
0.00144185
0.001670593
0.001840574
0.002018558
0.002180753
0.00233037
0.002484619
0.002640506
0.002781791
0.002906418
0.003029466
0.003149864
0.003257431
0.003351877
0.003442541
0.003527938
0.003601739
0.003665879
0.003725397
0.003776883
0.003821154
0.003855908
0.003884722
0.003907376
0.003922702
0.003929292
0.003927345
0.003917028
0.003898545
0.003871311
0.003834328
0.003787262
0.003729912
0.003659067
0.003574997
0.003468753
0.003356278
0.00311995
0.002823284
0.002718639
0.002655885
0.002189388
0.001963437
0.001644684
0.001359657
0.00123097
0.0008880152
0.00049144
0.0001774471
5.679889e-05
3.315733e-05
0.0003037687
0.0004787414
0.0006190963
0.0008024859
0.001010439
0.001234899
0.00147334
0.001725159
0.001981168
0.002233612
0.002479633
0.002714635
0.002936307
0.003143578
0.003338297
0.003521234
0.003691226
0.003848061
0.003992768
0.004126836
0.004250325
0.004363378
0.00446684
0.004561557
0.00464753
0.004724842
0.004792029
0.00485508
0.004908131
0.00495251
0.004988805
0.005017676
0.005037649
0.005047891
0.005048144
0.005038014
0.005016756
0.004983459
0.004937211
0.004877109
0.00480219
0.004711347
0.004601353
0.004474886
0.004329
0.004161779
0.003971378
0.003756151
0.003514477
0.002913821
0.00246721
0.002287741
0.002044668
0.001914157
0.001505006
0.001075502
0.0006461006
0.000260735
5.813714e-05
3.379832e-05
0.0003408735
0.0005845832
0.0007870523
0.001036882
0.00131521
0.001611485
0.001916579
0.002223381
0.002528169
0.002823755
0.003108461
0.003379999
0.003634556
0.003868001
0.004082186
0.004280946
0.004463976
0.004632725
0.004788713
0.004932787
0.005065708
0.00518835
0.005301409
0.005405305
0.005500336
0.005585341
0.005663426
0.005733194
0.005792915
0.00584357
0.005885648
0.005918478
0.005941254
0.005953337
0.00595479
0.005944936
0.005923078
0.005888477
0.005840385
0.005778029
0.005700564
0.005607117
0.005496326
0.005364417
0.005216188
0.005044987
0.004849679
0.004629548
0.003893245
0.003556236
0.00349938
0.003286911
0.002911757
0.002485491
0.001976274
0.001419745
0.0008400483
0.0003238468
5.828605e-05
3.480131e-05
0.0003600887
0.0006791128
0.0009373624
0.001238592
0.001568838
0.001915476
0.002267697
0.002616355
0.002955531
0.003279911
0.00358606
0.003873067
0.004142549
0.004394784
0.004627035
0.004840668
0.005038224
0.00522136
0.005391443
0.005549457
0.005696217
0.005832395
0.005958448
0.006074608
0.00618097
0.006275543
0.006363734
0.006441092
0.006507909
0.006564555
0.006610435
0.006645426
0.0066689
0.006679926
0.00667841
0.006663581
0.006634788
0.006591193
0.00653193
0.00645607
0.00636258
0.006250299
0.006117959
0.005964194
0.005785998
0.005584013
0.005356356
0.005098526
0.004804526
0.004468723
0.004091289
0.003673949
0.003214593
0.002709359
0.002156996
0.001564422
0.0009521043
0.000385995
5.870492e-05
3.603831e-05
0.0003783149
0.0007611861
0.001069192
0.001409227
0.001775195
0.002153634
0.002533115
0.002905065
0.003264325
0.00360747
0.003932409
0.004238702
0.00452687
0.004795392
0.00504581
0.005278279
0.00549366
0.005693594
0.005879561
0.006052731
0.006213989
0.006364009
0.006503267
0.006631797
0.006746944
0.006854764
0.006951907
0.007037685
0.007111848
0.007174122
0.007223951
0.007261485
0.00728593
0.0072967
0.007293415
0.007275262
0.007241685
0.007192107
0.007125867
0.0070422
0.006940206
0.006818819
0.006676825
0.006512601
0.006322513
0.006110493
0.005868795
0.005592918
0.005279789
0.004927284
0.004532135
0.004089685
0.003595103
0.003044642
0.002436893
0.001775656
0.001081937
0.0004367292
5.898186e-05
3.729682e-05
0.0003902617
0.0008264215
0.001177973
0.001544463
0.001930505
0.002325956
0.002722716
0.003114221
0.003493711
0.003854943
0.0041964
0.004517174
0.004816627
0.005098173
0.005363311
0.005613439
0.005848291
0.00606817
0.006273958
0.006466407
0.006645743
0.006812044
0.006965331
0.007107919
0.007238084
0.007359263
0.007467541
0.007562775
0.007644681
0.007712893
0.007767047
0.007807391
0.007832969
0.007843112
0.007837277
0.007814906
0.007775474
0.007718436
0.007643183
0.007548989
0.007434948
0.007299932
0.007142527
0.006961679
0.006753481
0.006519436
0.00625331
0.005952279
0.005613365
0.005233408
0.004808381
0.004334203
0.003807076
0.003223941
0.002583786
0.001890975
0.001165051
0.0004811823
5.916033e-05
3.954608e-05
0.0004033544
0.0008745747
0.001262487
0.00164878
0.002050335
0.002461526
0.002871175
0.003271453
0.003658099
0.004029603
0.004383462
0.004718774
0.005035679
0.005335147
0.005618052
0.005886191
0.006140661
0.006380642
0.006604943
0.006815734
0.007014044
0.007200327
0.007374879
0.007532537
0.007680559
0.00781454
0.007934168
0.00803909
0.008128915
0.008203214
0.008261723
0.00830453
0.008330747
0.008339682
0.008330762
0.008303424
0.008257187
0.008191636
0.008106371
0.008000996
0.007875131
0.007727284
0.007555567
0.007359459
0.007135667
0.006884799
0.006602741
0.006286254
0.005930702
0.00553428
0.005091252
0.004596581
0.004045415
0.003433383
0.002758307
0.002023858
0.001250582
0.000519173
5.936269e-05
3.849321e-05
0.0004233131
0.0009121586
0.001329455
0.001732451
0.002143428
0.00255891
0.00297309
0.003379836
0.00377511
0.004156502
0.004522445
0.004872303
0.005206126
0.005524369
0.005827465
0.006114154
0.006385556
0.006644816
0.006892526
0.007126642
0.007346735
0.007552782
0.007744532
0.007919976
0.008082426
0.008229314
0.008360188
0.008474595
0.008572073
0.008652153
0.008714571
0.008759249
0.008785437
0.00879258
0.008780263
0.008747293
0.008693013
0.008617217
0.008519519
0.008399384
0.008256103
0.008089902
0.007901233
0.007687933
0.007447073
0.007178153
0.006877933
0.006543913
0.006173683
0.005759171
0.005294786
0.004777099
0.004202163
0.003565663
0.002865995
0.002107228
0.001309115
0.0005500112
5.938779e-05
3.800742e-05
0.0004219709
0.0009293218
0.001373859
0.001792446
0.002208755
0.002627202
0.003044103
0.003455047
0.0038567
0.004246866
0.004624173
0.004987899
0.005337742
0.005673589
0.005993931
0.006301816
0.006597226
0.00687889
0.007147229
0.007401664
0.007641524
0.007866208
0.008075175
0.008267467
0.008443833
0.00860306
0.008744592
0.008867885
0.0089724
0.0090576
0.009123125
0.009168648
0.009193354
0.009196592
0.009177786
0.009137363
0.00907523
0.008990748
0.008883384
0.008752638
0.00859799
0.008418911
0.008214597
0.007984188
0.007726371
0.007440137
0.007122851
0.006771323
0.00638143
0.005949373
0.005471731
0.004940595
0.004349573
0.003694216
0.002972656
0.002188666
0.001362652
0.0005756225
5.948427e-05
4.340159e-05
0.0003973113
0.000929244
0.001403143
0.00183704
0.002259376
0.002679221
0.003096739
0.003509689
0.003915739
0.004313043
0.004700257
0.005076506
0.00544121
0.005793282
0.006134343
0.006462807
0.006778175
0.007079748
0.007367122
0.007639877
0.007897345
0.008138761
0.008362163
0.008569668
0.008759219
0.008930162
0.009081833
0.009213586
0.009324795
0.009414839
0.009483213
0.009529502
0.009553248
0.009554026
0.009531403
0.009484967
0.009414341
0.009319222
0.009199331
0.009054423
0.008884273
0.008688619
0.008467146
0.008218365
0.007943763
0.007641179
0.007308882
0.006944008
0.006542313
0.006098329
0.005605898
0.005059492
0.004453023
0.003781346
0.003043438
0.002243062
0.001400413
0.0005955804
5.942973e-05
4.275572e-05
0.0003994134
0.0009266473
0.001417448
0.001863066
0.002290071
0.002711316
0.003129895
0.003545041
0.003955088
0.004358534
0.004754299
0.00514152
0.005519348
0.005887323
0.006243672
0.006587149
0.006917621
0.007234957
0.007538645
0.007828096
0.008102884
0.008362686
0.008604174
0.0088271
0.009030034
0.009212156
0.009372734
0.009511287
0.00962738
0.009720555
0.009790458
0.009836712
0.009858713
0.00985597
0.009828051
0.009774583
0.009695258
0.009589831
0.009458118
0.009300001
0.009115416
0.008904353
0.008666759
0.00840183
0.008110583
0.007792393
0.007446576
0.007070641
0.006659774
0.006207678
0.005707506
0.005152359
0.00453608
0.00385445
0.003104161
0.002289285
0.001430779
0.0006105251
5.946385e-05
4.29179e-05
0.0003907167
0.0009150058
0.001418746
0.001874976
0.002307043
0.002729357
0.003147602
0.003563048
0.003975288
0.004383286
0.004785717
0.005180881
0.005565748
0.005937842
0.006129728
0.006281496
0.006489648
0.006751862
0.007107086
0.00746715
0.007829695
0.008113431
0.00837974
0.008667886
0.009021009
0.009383317
0.009604528
0.009748944
0.009869914
0.009966609
0.01003836
0.01008464
0.01010498
0.01009894
0.01006616
0.01000633
0.009919214
0.009804655
0.009662506
0.009492725
0.009295406
0.009070765
0.008798229
0.008408219
0.008001736
0.00766018
0.007417915
0.007153198
0.006738781
0.006283414
0.005779218
0.005218864
0.004595918
0.003905487
0.00314563
0.00232088
0.001452337
0.0006217626
5.939996e-05
4.370139e-05
0.0003806052
0.0008984398
0.001410558
0.001878315
0.002317444
0.002742926
0.003162475
0.00357892
0.003992475
0.004402036
0.004805584
0.005200322
0.00552984
0.00572812
0.005914407
0.006097775
0.006272484
0.006470128
0.006703241
0.007016744
0.007364751
0.007725217
0.008058714
0.008383451
0.008687593
0.008986587
0.009275888
0.009556906
0.009835063
0.01008987
0.01022475
0.01027114
0.01029016
0.01028139
0.01024453
0.01017935
0.01008576
0.009963787
0.009760596
0.00949955
0.009193924
0.008842368
0.008441716
0.008038994
0.007691298
0.007400353
0.007155783
0.006969077
0.006785757
0.006332294
0.005827992
0.005265606
0.00463891
0.003943243
0.003176873
0.002344349
0.00146733
0.0006288887
5.937157e-05
4.449398e-05
0.0003714068
0.0008811036
0.00139955
0.001876582
0.002321949
0.002750666
0.003171494
0.003588182
0.004001513
0.004410595
0.004813536
0.005207781
0.005547297
0.005731171
0.005862647
0.005989231
0.006144428
0.006370372
0.006638976
0.006915088
0.007196305
0.007513668
0.00784171
0.008164512
0.008477741
0.008772209
0.009040133
0.00928472
0.009519689
0.009758618
0.01000608
0.010084
0.01001358
0.009968122
0.00991467
0.009837472
0.009727898
0.009580216
0.009389693
0.00915442
0.008876069
0.008558542
0.008206791
0.007831969
0.00745532
0.007135096
0.006921177
0.006802277
0.006689066
0.006363578
0.005860832
0.005297754
0.004668579
0.003969144
0.003198109
0.002360438
0.001478035
0.0006340384
5.932446e-05
4.518331e-05
0.0003633591
0.0008635614
0.001383443
0.001865976
0.002318465
0.002751427
0.003173887
0.003590444
0.004002616
0.004410005
0.004810997
0.005203044
0.005505778
0.005648785
0.00575841
0.005902659
0.006114175
0.006341576
0.006571416
0.00681996
0.007100988
0.007391522
0.007698349
0.008001071
0.008289291
0.008556863
0.008801479
0.00902649
0.009242417
0.009471018
0.009746986
0.009849833
0.009760532
0.00969435
0.009632564
0.009559939
0.009462798
0.009330025
0.009153933
0.008931225
0.008662508
0.008351454
0.008008011
0.007652186
0.007311936
0.007016031
0.006787861
0.006649868
0.006564717
0.006385027
0.00588413
0.005321001
0.004690321
0.00398825
0.003213813
0.002372542
0.001485582
0.0006369306
5.928302e-05
4.577697e-05
0.0003567326
0.0008464172
0.001365814
0.00185503
0.002311984
0.002748212
0.003172
0.003588164
0.003998671
0.004403545
0.00480145
0.005190132
0.005477668
0.00564359
0.005779428
0.005929082
0.006100022
0.006303398
0.006548146
0.006808897
0.007086454
0.007370337
0.007659996
0.007944398
0.008215589
0.008466677
0.008694142
0.008900567
0.009098916
0.00932076
0.009628208
0.009767463
0.009665243
0.009573912
0.009496507
0.009415933
0.009314908
0.009180893
0.009005996
0.008786357
0.008521743
0.008215697
0.00787705
0.007522554
0.007179019
0.006880797
0.006662996
0.006542867
0.006489319
0.006370405
0.005898637
0.005336492
0.004705499
0.004002039
0.003225399
0.002380878
0.00149167
0.0006396651
5.922193e-05
4.628611e-05
0.0003510593
0.0008303407
0.001347418
0.001839636
0.002301026
0.002741217
0.003166559
0.003582344
0.003991126
0.004393449
0.004788449
0.005174009
0.005463372
0.005636012
0.005780884
0.005941153
0.006130739
0.006347445
0.006581506
0.006840797
0.00711782
0.007410201
0.00769706
0.007972412
0.008231091
0.008468641
0.008683764
0.008880759
0.009070976
0.009271518
0.009498478
0.009744932
0.009733475
0.009540505
0.009430752
0.009339376
0.009232161
0.009092447
0.008912133
0.008687814
0.008419716
0.008112094
0.007774639
0.007424104
0.007085012
0.00678709
0.006563043
0.006434868
0.006384456
0.006298093
0.005904976
0.005344098
0.004712701
0.004007847
0.003229471
0.002383665
0.001492856
0.0006398968
5.917877e-05
4.673789e-05
0.0003469187
0.0008162095
0.001328999
0.001822941
0.002288735
0.002730679
0.003157666
0.003573558
0.003981132
0.004381439
0.00477417
0.005158055
0.005483551
0.005678156
0.005840485
0.006010033
0.006201941
0.006419489
0.006661354
0.006924461
0.007202738
0.007486297
0.007762535
0.008028817
0.008278079
0.008505101
0.008708321
0.008892018
0.009067913
0.00925421
0.009469849
0.009730338
0.009746174
0.00954515
0.009410188
0.009295571
0.009172338
0.009022404
0.008835654
0.008607625
0.008338222
0.008031586
0.007696995
0.007350328
0.007015044
0.006720817
0.006500506
0.006377249
0.006336187
0.006268851
0.005910321
0.005350038
0.004718355
0.004012727
0.003233376
0.002386507
0.001494402
0.0006410532
5.912951e-05
4.714108e-05
0.0003435586
0.0008037318
0.001311905
0.001806376
0.002274548
0.002719905
0.003147697
0.003563567
0.003970383
0.004369511
0.00476119
0.005144406
0.005518573
0.005748056
0.005930101
0.006114448
0.006316293
0.006540809
0.006786589
0.007050464
0.00732133
0.007594598
0.007863862
0.008121096
0.008358861
0.008572999
0.008762311
0.008930331
0.009087501
0.009252762
0.009453259
0.00972392
0.009760285
0.009554953
0.009399214
0.009263236
0.009123338
0.008961643
0.008766977
0.00853407
0.008262522
0.007956414
0.00762481
0.007282804
0.006952236
0.006661629
0.006442884
0.006320389
0.006283932
0.006233571
0.005912034
0.005352402
0.004720416
0.004013961
0.003233703
0.002386343
0.00149454
0.000640762
5.906484e-05
4.750501e-05
0.0003418816
0.0007940799
0.001296609
0.00178967
0.002259542
0.002706936
0.003136585
0.003553063
0.003959753
0.004358434
0.004749774
0.005134017
0.005509776
0.005849419
0.006060135
0.006259247
0.006471691
0.006701004
0.00694728
0.007205831
0.007472128
0.007738004
0.007997007
0.008240469
0.008463725
0.008663048
0.008837042
0.008988392
0.009126443
0.009270331
0.009451321
0.009713717
0.009766628
0.009570451
0.009398883
0.009242571
0.009085476
0.008911309
0.008708366
0.00847062
0.008197203
0.007891909
0.007563409
0.007226117
0.006900818
0.006615157
0.006400272
0.006280674
0.006248263
0.006208699
0.005913112
0.005353735
0.004721296
0.00401408
0.003233077
0.002385134
0.001493622
0.000640539
5.902489e-05
4.788845e-05
0.0003408081
0.0007857725
0.001282695
0.001774286
0.002244994
0.002693903
0.003125041
0.003542607
0.003949889
0.004348974
0.004740939
0.005126127
0.005505031
0.005877375
0.00621602
0.006435303
0.006653807
0.006889656
0.007137319
0.007392083
0.007650362
0.007905805
0.008151137
0.008380071
0.008588121
0.008772164
0.008930976
0.009066268
0.009184637
0.009301891
0.009451802
0.009698713
0.009792864
0.009605878
0.009398362
0.009224827
0.009055173
0.008870323
0.008659031
0.008415825
0.00813996
0.007835062
0.007509414
0.007176769
0.006856912
0.006576492
0.006365898
0.006249678
0.006221347
0.006190543
0.005913303
0.005353916
0.004720909
0.004012957
0.00323142
0.002383492
0.001492186
0.0006397048
5.896212e-05
4.823532e-05
0.0003410609
0.0007802683
0.001271639
0.001760717
0.002231125
0.002681338
0.003113994
0.003532937
0.003941389
0.004341618
0.004735005
0.005122256
0.005503634
0.005878947
0.006248216
0.006611394
0.006875397
0.007105067
0.007347857
0.007600466
0.007852351
0.0080957
0.008326102
0.008539645
0.008731939
0.008899721
0.00904251
0.009163233
0.009269271
0.009373049
0.009490313
0.009631908
0.009779384
0.009684931
0.00942023
0.009218549
0.009033139
0.008837475
0.008618158
0.008369565
0.008091114
0.007786387
0.007463352
0.0071352
0.00682088
0.006546192
0.006340761
0.00622878
0.006204367
0.006179471
0.005913555
0.005353772
0.004719935
0.004011075
0.003228883
0.002380846
0.001490168
0.0006388613
5.894022e-05
4.834419e-05
0.0003422639
0.0007766205
0.001262249
0.001748492
0.002218558
0.002669618
0.00310387
0.003524511
0.003934662
0.004336672
0.004732121
0.005121938
0.005506565
0.005886095
0.006260414
0.00662919
0.006991507
0.007346697
0.007596102
0.007827305
0.008069761
0.008306445
0.00852652
0.008721338
0.008895781
0.009046175
0.009171904
0.009275453
0.00936358
0.009447708
0.009541066
0.009650313
0.009777583
0.009698438
0.009441277
0.009225879
0.009023094
0.0088133
0.008584195
0.008329628
0.008048435
0.007743785
0.007423244
0.007099483
0.006790732
0.006522051
0.006322368
0.006215403
0.006195283
0.006174726
0.005914278
0.005353809
0.004718981
0.004009153
0.00322631
0.002378176
0.001488081
0.0006378302
5.889504e-05
4.849735e-05
0.0003457927
0.000774428
0.001254855
0.001738377
0.002207921
0.002659858
0.003095545
0.003518057
0.003930313
0.004334661
0.004732776
0.005125719
0.005514044
0.005897899
0.006277085
0.006651082
0.007019042
0.007379358
0.007730846
0.008071597
0.008330352
0.008537198
0.008734929
0.008924586
0.009086035
0.009217928
0.00932379
0.009407639
0.009474816
0.009533333
0.00959492
0.009676459
0.009790155
0.009714835
0.009460232
0.009233765
0.009016496
0.008793837
0.008555265
0.008294811
0.008010976
0.007706503
0.007388515
0.007069177
0.006766093
0.006503688
0.00631024
0.006208834
0.006193047
0.006175241
0.005915791
0.005354282
0.004718187
0.004007171
0.003223505
0.002375155
0.001485693
0.0006367339
5.888945e-05
5.064538e-05
0.0003394755
0.0007711238
0.001248696
0.001730068
0.002199066
0.002651727
0.003089211
0.003514003
0.003928888
0.004336195
0.004737641
0.005134348
0.005526904
0.005915432
0.006299633
0.006678818
0.007051928
0.007417546
0.007773985
0.008119153
0.00845093
0.008766757
0.008978224
0.009139753
0.009277107
0.00939041
0.009477363
0.009541853
0.009589146
0.009626108
0.00966246
0.009711543
0.009793372
0.009717595
0.009474744
0.009241002
0.009010776
0.008776335
0.00852922
0.008263615
0.007977674
0.007673725
0.00735845
0.007043554
0.006746159
0.006490209
0.00630342
0.006208152
0.006196961
0.006180803
0.005918477
0.005355683
0.00471814
0.004005824
0.003221267
0.002372629
0.001483599
0.0006356929
5.886581e-05
5.301487e-05
0.0003431255
0.0007577272
0.0012467
0.001724646
0.002192629
0.002646023
0.003085323
0.003512824
0.003930963
0.004341985
0.004747577
0.005148853
0.005546375
0.005940202
0.00632992
0.006714687
0.007093277
0.007464109
0.007825289
0.008174552
0.008509636
0.008828005
0.009127347
0.009363678
0.009485398
0.00957231
0.00963742
0.009681515
0.009708292
0.009722568
0.009731939
0.009750331
0.00980142
0.009721719
0.009485367
0.009244575
0.009004327
0.008760434
0.008506125
0.008236115
0.007948502
0.00764534
0.007332975
0.007022686
0.006731112
0.006481735
0.006301796
0.006212912
0.006206287
0.006190705
0.005922862
0.005358176
0.004718835
0.004004947
0.003219265
0.002370157
0.001481369
0.0006345772
5.888042e-05
5.428119e-05
0.0003484148
0.0007476613
0.001246676
0.001721197
0.002188458
0.002643038
0.003084878
0.003515466
0.003937502
0.004353024
0.004763629
0.005170353
0.005573672
0.005973527
0.006369352
0.006760134
0.007144456
0.007520553
0.00788616
0.008239235
0.008577242
0.008897581
0.009198066
0.009475252
0.009719952
0.00980151
0.009836393
0.00985212
0.009853706
0.009845037
0.009829677
0.009809636
0.009780518
0.009725425
0.009531972
0.009250692
0.008996504
0.008746175
0.008487209
0.008213998
0.00792523
0.007623023
0.007313311
0.007006859
0.006720312
0.006477268
0.006304622
0.006222877
0.006221237
0.006205362
0.005928696
0.00536208
0.004720682
0.004005085
0.003218156
0.002368403
0.001479681
0.0006336354
5.887765e-05
5.449182e-05
0.0003531289
0.0007378823
0.001236309
0.001720588
0.002186896
0.002642726
0.003087278
0.003522049
0.003948933
0.004369969
0.004786635
0.005199835
0.005609899
0.006016603
0.006419195
0.006816473
0.007206645
0.00758751
0.0079574
0.00831374
0.008653963
0.008975486
0.009275767
0.00955197
0.009801815
0.01001754
0.01005453
0.01004229
0.01001419
0.009976674
0.009932049
0.009879681
0.009813968
0.009729439
0.00953608
0.009260005
0.008998207
0.008738999
0.008473716
0.008196941
0.00790669
0.007604706
0.007297704
0.006996089
0.006716014
0.006479471
0.006313432
0.006238111
0.006241097
0.006224243
0.005935774
0.005367072
0.004723535
0.004006042
0.003217629
0.002366974
0.001478129
0.0006327111
5.889946e-05
5.445005e-05
0.0003573414
0.0007297451
0.001222168
0.001722406
0.002188202
0.002645835
0.003093924
0.003533597
0.003966609
0.004394268
0.004818113
0.005238893
0.005656681
0.006070928
0.006480488
0.006883659
0.007279263
0.007665326
0.008039111
0.008398115
0.008739735
0.009061519
0.009360618
0.009634711
0.009881525
0.01009901
0.01026423
0.01025663
0.01020079
0.01012993
0.01004996
0.009960365
0.009860669
0.009749029
0.009547517
0.00927241
0.00900467
0.008738792
0.008468365
0.008188856
0.007899411
0.007600841
0.007297331
0.006996315
0.006716617
0.0064855
0.006328507
0.006262748
0.006270815
0.006250852
0.005945101
0.005373769
0.004728014
0.004008334
0.00321823
0.002366466
0.001477172
0.0006320293
5.89158e-05
5.497677e-05
0.0003618809
0.0007231917
0.001207662
0.001727271
0.002192905
0.002652763
0.003105098
0.003550486
0.003990241
0.004425939
0.004858224
0.005287142
0.005712732
0.006134555
0.006551449
0.006961945
0.007363572
0.007754111
0.008131077
0.008491892
0.008833949
0.009154907
0.009451889
0.009722802
0.009965552
0.01017829
0.01035945
0.01045586
0.01040091
0.01030044
0.01018431
0.01005882
0.00992183
0.009772317
0.009556218
0.009283839
0.009012572
0.0087419
0.008469262
0.008189848
0.007899026
0.007596875
0.007290187
0.006996468
0.006728249
0.006505002
0.006352216
0.006288639
0.006299946
0.006278106
0.005955877
0.005381778
0.004733363
0.004011486
0.003219531
0.002366417
0.001476452
0.0006314983
5.895298e-05
5.523969e-05
0.0003663125
0.0007177639
0.0011967
0.001733856
0.002200587
0.002663781
0.003121378
0.00357354
0.004021187
0.004465252
0.004906334
0.005344767
0.005779908
0.006210565
0.006635305
0.007052254
0.007459156
0.007853562
0.008232902
0.008594578
0.008936043
0.009255031
0.00954886
0.009815595
0.01005335
0.01026051
0.01043575
0.01057801
0.01059243
0.01048179
0.01033141
0.01016642
0.009990765
0.009800762
0.00956477
0.009291739
0.009017325
0.008743112
0.008464436
0.008178426
0.007884942
0.007589166
0.007293583
0.007005618
0.006740737
0.006519936
0.006370154
0.006311618
0.006327777
0.006303978
0.005968334
0.005391412
0.004740294
0.004015983
0.003221976
0.002367295
0.001476353
0.0006311241
5.898957e-05
5.593494e-05
0.000371152
0.0007142084
0.001187709
0.001743255
0.002211854
0.002679132
0.003142938
0.003603026
0.004059867
0.004513939
0.004965386
0.005413881
0.005858527
0.006297923
0.006730266
0.007153419
0.007564996
0.007962464
0.008343251
0.00870482
0.009044758
0.009360681
0.009650457
0.009912178
0.01014419
0.01034512
0.01051387
0.01064964
0.01075189
0.01065803
0.01048447
0.01028368
0.01006981
0.009838547
0.009580345
0.009302548
0.009020595
0.008738743
0.008457854
0.008175314
0.007888782
0.007595261
0.007299693
0.007010581
0.00674709
0.00653315
0.006393907
0.006344069
0.006359464
0.006328969
0.005982384
0.005402463
0.004748485
0.004021625
0.003225227
0.002368711
0.001476562
0.0006309456
5.904379e-05
5.609304e-05
0.0003759109
0.0007117654
0.001178724
0.001753897
0.002225765
0.002698795
0.00317025
0.003639701
0.004107043
0.004572198
0.005034789
0.005494
0.00594854
0.006396674
0.006836309
0.007265101
0.007680563
0.008080158
0.008461383
0.008821809
0.009159137
0.00947118
0.009756015
0.01001196
0.0102376
0.01043179
0.01059369
0.01072271
0.01081851
0.01081443
0.01063891
0.01040683
0.01015979
0.009890748
0.009601466
0.009311377
0.00902693
0.008748051
0.00847107
0.008190191
0.0079021
0.007607163
0.007311558
0.007026093
0.006766528
0.00655561
0.006419069
0.006373414
0.006396183
0.006365168
0.005998075
0.005414782
0.004757676
0.004027989
0.003229325
0.002370952
0.00147742
0.0006310581
5.907812e-05
5.656278e-05
0.0003805726
0.000710697
0.001175329
0.00176772
0.002244374
0.002724306
0.003204737
0.003684555
0.004163164
0.004639952
0.005114011
0.005584033
0.006048299
0.006504745
0.00695106
0.007384788
0.007803405
0.008204391
0.008585301
0.008943814
0.009277785
0.009585262
0.009864549
0.01011421
0.01033308
0.01052028
0.01067516
0.01079736
0.01088678
0.0109434
0.01078054
0.01052701
0.01025344
0.009950106
0.009630086
0.009330015
0.009043758
0.008765085
0.008486851
0.008205438
0.007918082
0.007625581
0.007332295
0.007048555
0.006791612
0.006585075
0.006454453
0.006414422
0.006438501
0.006400826
0.006015556
0.005428753
0.004768381
0.004035732
0.003234498
0.002373542
0.001478149
0.0006309829
5.913691e-05
5.811657e-05
0.0003846235
0.0007121336
0.001171367
0.001777211
0.002266353
0.002754354
0.003245136
0.003736772
0.004227935
0.004717311
0.005203374
0.005684318
0.006158064
0.00662231
0.007074616
0.007512476
0.007933375
0.008334848
0.008714428
0.009070195
0.009400066
0.009702339
0.009975565
0.01021857
0.01043043
0.01061051
0.01075839
0.01087389
0.01095699
0.01100789
0.01090539
0.01064889
0.01035573
0.01002117
0.009670578
0.009355366
0.009063621
0.008784095
0.008507939
0.008228413
0.007942128
0.007649643
0.007356566
0.007073824
0.006818886
0.006615463
0.006489339
0.006455134
0.006484219
0.006443601
0.006034676
0.005444237
0.004780489
0.004044731
0.003240654
0.002377543
0.001480236
0.0006315136
5.919047e-05
5.634799e-05
0.0003969803
0.0007136369
0.001169394
0.001779982
0.002291432
0.00278849
0.003290486
0.003794683
0.004298959
0.004801297
0.005299577
0.005791519
0.006274694
0.006746559
0.007204531
0.007646039
0.008068588
0.008469824
0.008847442
0.009199782
0.00952499
0.009821614
0.01008847
0.01032463
0.01052942
0.01070242
0.01084342
0.01095241
0.01102954
0.01107506
0.01102367
0.01076667
0.01045822
0.01009573
0.009715781
0.00938669
0.009090471
0.00881069
0.008535137
0.008256064
0.00796997
0.007677531
0.007384537
0.007102245
0.006848613
0.006647756
0.00652543
0.006495286
0.006526129
0.006480386
0.006054717
0.005460626
0.004793432
0.004054464
0.003247452
0.002381766
0.001482431
0.0006324314
5.925417e-05
5.528914e-05
0.0004026025
0.0007159042
0.001168075
0.00178065
0.002320639
0.002827963
0.003342208
0.00385981
0.004377814
0.004893469
0.00540405
0.005906817
0.00639901
0.006877882
0.007340758
0.007785075
0.008208436
0.008608654
0.008983662
0.009331997
0.009652086
0.009942744
0.01020304
0.01043231
0.01063009
0.01079618
0.01093053
0.01103327
0.01110466
0.01114506
0.01112778
0.01086797
0.01054688
0.01016359
0.009760373
0.009419608
0.009119525
0.00883983
0.00856561
0.008287667
0.008001967
0.007709317
0.007415949
0.007133647
0.00688086
0.006682105
0.006563292
0.006537474
0.006571016
0.006520732
0.006076085
0.005478186
0.004807393
0.004065053
0.003254918
0.002386414
0.001484628
0.0006329335
5.931863e-05
5.661499e-05
0.0004002324
0.0007196333
0.0011682
0.001784058
0.002353605
0.002872449
0.003399977
0.003931754
0.00446396
0.004993092
0.005515839
0.006029032
0.006529641
0.007014784
0.007481766
0.007928103
0.008351545
0.008750103
0.009122002
0.009465925
0.009780619
0.01006516
0.01031887
0.01054129
0.01073221
0.01089156
0.01101957
0.01111639
0.01118236
0.01121791
0.01121264
0.01095232
0.0106248
0.01022415
0.009803136
0.009454298
0.009152228
0.008873337
0.008600456
0.00832328
0.008037528
0.007744237
0.007450055
0.007167275
0.006914857
0.006717735
0.00660193
0.006579828
0.006615478
0.006560691
0.006098297
0.005496544
0.004822108
0.004076353
0.003263056
0.00239167
0.001487453
0.0006339321
5.939813e-05
5.911886e-05
0.0004027405
0.0007248409
0.00116975
0.001788491
0.002390485
0.002921811
0.003463372
0.0040098
0.004556404
0.00509895
0.00563357
0.006156721
0.006665156
0.007155919
0.007626351
0.008074095
0.008497096
0.008893129
0.009261616
0.009600905
0.009910087
0.0101885
0.0104357
0.01065148
0.01083579
0.01098886
0.01111074
0.01120189
0.0112627
0.01129363
0.0112823
0.01102063