/*--------------------------------*- C++ -*----------------------------------*\
| =========                 |                                                 |
| \\      /  F ield         | OpenFOAM: The Open Source CFD Toolbox           |
|  \\    /   O peration     | Version:  2312                                  |
|   \\  /    A nd           | Website:  www.openfoam.com                      |
|    \\/     M anipulation  |                                                 |
\*---------------------------------------------------------------------------*/
FoamFile
{
    version     2.0;
    format      ascii;
    arch        "LSB;label=32;scalar=64";
    class       volScalarField;
    location    "5550";
    object      omega;
}
// * * * * * * * * * * * * * * * * * * * * * * * * * * * * * * * * * * * * * //

dimensions      [0 0 -1 0 0 0 0];

internalField   nonuniform List<scalar> 
12000
(
51.68214
17.05274
18.55084
20.01791
21.13647
22.10463
22.94454
23.73297
24.41836
24.97653
25.47841
25.96388
26.43998
26.83058
27.14853
27.4589
27.76915
28.04686
28.24765
28.43433
28.61606
28.78327
28.89596
28.9891
29.08033
29.15194
29.18577
29.20221
29.21135
29.20989
29.17228
29.12498
29.05335
28.97158
28.94704
28.84314
28.67154
28.36221
28.07359
27.96067
27.8776
27.51436
26.89403
26.27336
26.10807
26.07706
25.58867
24.40551
23.79049
23.63399
23.46696
22.24722
21.20014
20.69114
19.97093
18.90033
17.67558
16.69714
15.686
37.59775
91.45415
19.74692
18.73586
19.74438
20.08496
20.12244
19.79858
19.43446
19.1269
18.59418
18.07033
17.55379
17.00781
16.23769
15.78294
15.49779
15.02802
14.30619
13.77887
13.62939
13.33388
12.80137
12.39682
12.29898
12.10756
11.73663
11.49953
11.45236
11.30879
11.08512
11.01572
11.00351
11.00208
11.00344
10.98585
10.98598
11.09208
11.30307
11.49895
11.50832
11.50328
11.7831
12.33958
12.82669
12.91314
12.93793
13.50585
14.63884
15.50138
15.649
16.00095
17.70492
19.35275
20.51648
21.94782
24.58132
28.91193
35.42405
47.8189
69.95891
94.18799
20.25744
17.90327
17.6701
17.23201
16.53149
15.75328
14.98307
14.20594
13.44736
12.69566
11.96528
11.35663
10.85259
10.43712
10.03817
9.656122
9.335048
9.089744
8.880223
8.671254
8.491329
8.361206
8.259711
8.161376
8.081553
8.034892
8.00666
7.983502
7.978574
7.991073
8.015177
8.051821
8.102222
8.159329
8.233965
8.326732
8.431081
8.537048
8.644891
8.77213
8.930392
9.107778
9.289562
9.477182
9.702578
9.955223
10.24278
10.57756
10.96572
11.42311
11.97018
12.64475
13.61866
14.86059
16.57772
19.70539
26.00111
41.94152
76.49759
96.10373
19.57583
16.26559
15.77823
14.98469
14.05719
13.11175
12.23083
11.47261
10.75064
10.10542
9.530178
9.023443
8.600983
8.244073
7.930602
7.657182
7.431197
7.244243
7.08479
6.949313
6.839619
6.753229
6.684792
6.631921
6.595352
6.574186
6.568497
6.569295
6.584545
6.606889
6.641177
6.689857
6.74767
6.815214
6.89373
6.983798
7.085356
7.198489
7.323731
7.462922
7.618962
7.794091
7.989161
8.205636
8.452036
8.731313
9.053586
9.427257
9.865265
10.39394
10.98517
11.65301
12.53019
13.71204
15.5693
18.54858
24.07445
38.2041
81.71834
97.91237
18.86504
14.98899
14.26893
13.33757
12.35675
11.41759
10.55953
9.811621
9.15816
8.593881
8.120153
7.721136
7.367529
7.04897
6.785184
6.560226
6.369227
6.211079
6.079044
5.969581
5.880813
5.810513
5.756485
5.717209
5.691651
5.680235
5.678999
5.688611
5.706639
5.734255
5.774263
5.823948
5.883058
5.951207
6.029258
6.117315
6.215242
6.323246
6.44173
6.571403
6.713217
6.86871
7.037693
7.222605
7.425054
7.647975
7.90113
8.19378
8.532537
8.909688
9.348633
9.933071
10.72998
11.83866
13.4491
16.10734
21.40637
35.73145
85.45513
99.56321
18.9435
13.95895
13.02714
12.06628
11.10976
10.22536
9.438539
8.756348
8.168754
7.663321
7.231006
6.86051
6.551369
6.282395
6.042885
5.842123
5.673225
5.531627
5.413281
5.31566
5.236815
5.174989
5.128643
5.096516
5.077559
5.072491
5.076231
5.09153
5.117394
5.153409
5.19945
5.255408
5.321442
5.395948
5.479594
5.574072
5.678731
5.793687
5.919457
6.05674
6.206485
6.369974
6.54905
6.745729
6.958179
7.197684
7.468681
7.764185
8.092311
8.482896
8.963666
9.563027
10.33162
11.37212
12.89984
15.39738
20.26601
33.61184
88.39064
101.2289
18.94782
13.1702
12.03547
11.08364
10.18012
9.361355
8.640833
8.016771
7.479197
7.017097
6.6207
6.28086
5.988166
5.742446
5.531162
5.345211
5.187239
5.054403
4.944204
4.854225
4.782549
4.727574
4.687953
4.662541
4.652153
4.651774
4.663369
4.686426
4.720334
4.764707
4.818717
4.882175
4.955665
5.03883
5.131031
5.232812
5.344464
5.466122
5.598022
5.740505
5.894059
6.059358
6.2375
6.429066
6.639255
6.86743
7.110133
7.377721
7.683325
8.041866
8.472761
9.009183
9.708046
10.67184
12.10414
14.48039
19.19627
32.26338
90.53483
102.9525
19.16135
12.60682
11.25591
10.3176
9.472186
8.715394
8.051463
7.475896
6.979187
6.551039
6.182166
5.864374
5.59059
5.354784
5.156439
4.98776
4.841176
4.717094
4.614106
4.530762
4.465542
4.417019
4.383937
4.365221
4.360794
4.367531
4.386349
4.416591
4.457723
4.50932
4.571322
4.643075
4.724192
4.814814
4.914929
5.024591
5.143907
5.272988
5.411984
5.561116
5.720724
5.891551
6.07404
6.271203
6.482721
6.707412
6.952051
7.223671
7.531236
7.887676
8.313633
8.841504
9.524876
10.45995
11.8386
14.10547
18.56937
31.01748
92.10806
104.4978
19.2051
12.21008
10.65043
9.712737
8.917921
8.217518
7.60465
7.071886
6.610058
6.21015
5.86405
5.56462
5.305765
5.082396
4.890592
4.729756
4.594981
4.480591
4.385814
4.309647
4.250992
4.208713
4.181691
4.170711
4.170912
4.183837
4.208742
4.245006
4.292124
4.34969
4.418174
4.496871
4.584707
4.681914
4.78861
4.904909
5.030893
5.166601
5.312043
5.467197
5.632026
5.807029
5.99413
6.192038
6.400398
6.622053
6.860824
7.122395
7.416444
7.752961
8.152926
8.648026
9.291004
10.17723
11.49653
13.68826
18.03933
30.19873
93.31572
79.14835
18.80017
11.91202
10.18393
9.235117
8.480696
7.82782
7.2575
6.760501
6.328364
5.953062
5.627345
5.344922
5.100492
4.889668
4.708747
4.554703
4.426676
4.321537
4.235191
4.166512
4.114614
4.078574
4.057393
4.050949
4.056506
4.074441
4.104118
4.144996
4.196627
4.258658
4.331788
4.415446
4.508337
4.610606
4.722304
4.843913
4.975651
5.117477
5.269414
5.431515
5.603908
5.785882
5.976512
6.176813
6.387193
6.609759
6.847331
7.10434
7.387087
7.71226
8.101199
8.58369
9.210432
10.07464
11.35912
13.48474
17.68615
29.43211
94.14951
80.88235
19.19015
11.81065
9.857438
8.866011
8.133898
7.519419
6.987455
6.523959
6.119625
5.766963
5.459767
5.192738
4.96136
4.761813
4.590836
4.445541
4.323801
4.224508
4.145615
4.084097
4.038512
4.007912
3.991486
3.988679
3.998164
4.019643
4.052584
4.096537
4.151142
4.216124
4.292218
4.379094
4.47567
4.582127
4.698639
4.824877
4.960729
5.10634
5.261766
5.42701
5.602016
5.786939
5.981163
6.184044
6.395911
6.617876
6.852403
7.104359
7.382086
7.697445
8.067539
8.526218
9.126638
9.960636
11.20861
13.28675
17.41138
28.93762
94.79048
108.8855
20.73218
11.89282
9.641414
8.58286
7.859675
7.274304
6.772816
6.33676
5.956429
5.624898
5.336023
5.084842
4.867208
4.679599
4.519001
4.382838
4.268785
4.175267
4.101219
4.045092
4.004707
3.978633
3.966649
3.966724
3.97895
4.002771
4.037745
4.083515
4.13981
4.206451
4.284078
4.372536
4.47093
4.579318
4.697802
4.826499
4.965517
5.114911
5.27467
5.44467
5.624643
5.814043
6.012469
6.219443
6.434414
6.657065
6.889051
7.13472
7.402302
7.705388
8.064896
8.511896
9.098485
9.916586
11.1415
13.17956
17.21512
28.47074
95.17905
83.77116
20.86266
11.96266
9.499776
8.37278
7.643323
7.075692
6.599413
6.188536
5.830771
5.518493
5.24611
5.009104
4.803745
4.627209
4.477108
4.351198
4.246692
4.161209
4.09306
4.04095
4.003798
3.980097
3.96987
3.971947
3.985912
4.011238
4.04751
4.094432
4.151799
4.219486
4.297891
4.386977
4.486306
4.595967
4.716088
4.846806
4.988253
5.140526
5.303637
5.477459
5.661674
5.855887
6.059347
6.270794
6.489025
6.713226
6.943601
7.183444
7.441588
7.732633
8.078097
8.510461
9.081322
9.879005
11.08146
13.09167
17.08224
28.20011
95.52671
84.57738
21.47577
12.13224
9.437764
8.226674
7.481136
6.925724
6.470436
6.081051
5.742851
5.447557
5.190175
4.967039
4.775474
4.613138
4.474503
4.354112
4.252768
4.16952
4.103443
4.053944
4.020069
4.001009
3.994803
4.000083
4.016238
4.042833
4.0797
4.126855
4.184204
4.251693
4.329624
4.418217
4.517421
4.62732
4.748024
4.879677
5.022433
5.176445
5.341825
5.518559
5.706357
5.904415
6.111673
6.327768
6.55151
6.779484
7.008818
7.242172
7.490165
7.769305
8.102285
8.522011
9.080135
9.86606
11.05391
13.04088
16.98235
27.94559
95.7544
85.39785
22.16941
12.35545
9.443053
8.141886
7.368902
6.814334
6.371906
6.000079
5.679976
5.402121
5.160821
4.952534
4.773936
4.6191
4.486438
4.374996
4.281221
4.203961
4.142228
4.09525
4.062626
4.043662
4.037455
4.042971
4.059618
4.086789
4.124138
4.17141
4.22841
4.295098
4.371898
4.459566
4.558405
4.668378
4.789502
4.921831
5.06543
5.220347
5.386924
5.565608
5.756397
5.958944
6.172544
6.395203
6.623026
6.851951
7.079981
7.308683
7.545941
7.811246
8.13153
8.539571
9.086326
9.860452
11.03515
13.00688
16.92631
27.82307
95.93401
86.0429
22.81912
12.59688
9.479163
8.088525
7.285399
6.728382
6.295873
5.938664
5.63433
5.37152
5.143755
4.947174
4.77835
4.634682
4.51177
4.407518
4.319831
4.247307
4.18936
4.145432
4.114794
4.096652
4.090452
4.095485
4.111486
4.13791
4.174455
4.220894
4.27706
4.34289
4.418483
4.504852
4.603211
4.713571
4.835564
4.969141
5.114419
5.271597
5.440912
5.6225
5.816234
6.021538
6.237198
6.461107
6.690057
6.919535
7.145411
7.36833
7.597438
7.852167
8.160491
8.557822
9.094941
9.859899
11.02491
12.98378
16.87967
27.7106
96.02623
86.53602
23.41845
12.85629
9.556885
8.083893
7.239463
6.670723
6.241213
5.893481
5.60092
5.350155
5.134037
4.948831
4.791738
4.657946
4.543334
4.445487
4.36302
4.295291
4.241426
4.200478
4.171693
4.154567
4.148598
4.153251
4.16856
4.19407
4.229544
4.274796
4.329696
4.394178
4.468256
4.55322
4.650779
4.761072
4.883591
5.018098
5.164583
5.323198
5.494149
5.677548
5.873234
6.08055
6.298046
6.523091
6.75171
6.979246
7.202263
7.421264
7.644342
7.889509
8.186778
8.574719
9.103785
9.861554
11.0193
12.9677
16.85137
27.66188
96.07137
86.90994
23.96688
13.12765
9.65855
8.094396
7.216032
6.634536
6.204546
5.862706
5.578943
5.338022
5.131947
4.956484
4.808086
4.68214
4.574829
4.483741
4.407258
4.344158
4.293568
4.254928
4.227655
4.211314
4.205525
4.209816
4.224382
4.248859
4.283106
4.327003
4.380458
4.443394
4.515748
4.598977
4.695234
4.804963
4.927611
5.062754
5.210256
5.370197
5.542724
5.727881
5.92542
6.134558
6.353671
6.579943
6.809146
7.036102
7.256564
7.470789
7.687377
7.925104
8.214421
8.594721
9.116891
9.868054
11.01876
12.96074
16.82282
27.5831
96.03926
87.18702
24.48399
13.40607
9.782368
8.137406
7.217748
6.616409
6.181274
5.841768
5.564025
5.33079
5.132951
4.965881
4.825262
4.706386
4.605448
4.519947
4.448176
4.388939
4.341344
4.304681
4.278507
4.262519
4.25658
4.260333
4.274054
4.297465
4.330487
4.373059
4.42515
4.4868
4.558225
4.640041
4.734463
4.843461
4.966515
5.102591
5.251386
5.412929
5.587315
5.774501
5.974112
6.185176
6.405813
6.632892
6.861884
7.087439
7.305258
7.515539
7.726886
7.958334
8.240314
8.613266
9.130101
9.877349
11.02476
12.96143
16.82079
27.57599
95.95167
87.38597
24.96413
13.68666
9.92168
8.197356
7.232708
6.613971
6.170051
5.829245
5.554626
5.326862
5.135508
4.974742
4.840206
4.727125
4.631489
4.550708
4.482939
4.426869
4.381579
4.346461
4.321169
4.305539
4.299507
4.302815
4.315818
4.338345
4.370406
4.412014
4.463196
4.524036
4.594761
4.675851
4.769571
4.878314
5.001853
5.139127
5.289649
5.453254
5.629875
5.819315
6.021021
6.233813
6.455568
6.682898
6.911032
7.134416
7.348646
7.554047
7.759663
7.985133
8.261174
8.628761
9.141445
9.885283
11.02942
12.96197
16.81279
27.5291
95.85154
87.58053
25.42228
13.96714
10.07081
8.270385
7.262883
6.618616
6.165389
5.821639
5.548078
5.323734
5.136838
4.980901
4.851024
4.742513
4.651024
4.57386
4.509138
4.455507
4.412064
4.378265
4.353841
4.33866
4.332708
4.335839
4.348488
4.370583
4.402212
4.443461
4.494417
4.555196
4.625991
4.707162
4.800991
4.910147
5.034685
5.173583
5.32621
5.492211
5.671328
5.86318
6.067014
6.281427
6.504049
6.731256
6.958099
7.178954
7.38949
7.590261
7.790679
8.010819
8.281561
8.644416
9.153766
9.895324
11.03774
12.96806
16.8125
27.51844
95.69466
87.7929
25.85572
14.24442
10.22621
8.352543
7.302041
6.633387
6.166457
5.81718
5.542646
5.31995
5.136048
4.982736
4.855708
4.750358
4.662238
4.587899
4.525501
4.473771
4.43185
4.399236
4.375674
4.361095
4.355541
4.358924
4.371758
4.394027
4.425888
4.467494
4.518986
4.580504
4.652213
4.734377
4.829165
4.939366
5.065363
5.206259
5.361294
5.52991
5.711637
5.905885
6.111688
6.327412
6.550452
6.776969
7.00187
7.219517
7.425756
7.621528
7.816787
8.032121
8.298567
8.657939
9.165103
9.905479
11.04737
12.97724
16.81954
27.50479
95.56762
88.08233
26.27663
14.52036
10.3863
8.441157
7.347564
6.653272
6.171604
5.814669
5.537184
5.314356
5.131825
4.980778
4.85487
4.749975
4.662877
4.590533
4.53016
4.480277
4.439996
4.408789
4.386405
4.372805
4.368115
4.372263
4.385881
4.408975
4.441758
4.484442
4.537228
4.600301
4.673815
4.757875
4.854271
4.965969
5.093945
5.237303
5.395029
5.566396
5.750764
5.947346
6.154952
6.371718
6.594812
6.820207
7.042715
7.256759
7.45845
7.649195
7.839511
8.050469
8.31326
8.669879
9.175468
9.915162
11.05687
12.98627
16.82583
27.49995
95.4091
88.31341
26.69922
14.798
10.54794
8.532836
7.396523
6.675955
6.17843
5.81245
5.530415
5.305854
5.123181
4.97268
4.847887
4.744342
4.658338
4.586787
4.527422
4.47844
4.43887
4.408221
4.386525
4.374064
4.370719
4.376256
4.391369
4.416002
4.450402
4.494845
4.549574
4.614815
4.690817
4.777956
4.877017
4.990471
5.120544
5.266651
5.427322
5.601584
5.788608
5.987416
6.196608
6.414094
6.636833
6.860639
7.080273
7.29028
7.487124
7.672769
7.858367
8.065465
8.325385
8.680195
9.185177
9.925304
11.06833
12.99962
16.8403
27.506
95.30951
88.80513
27.10788
15.06053
10.70933
8.627317
7.448278
6.700544
6.185967
5.80962
5.521636
5.293959
5.109874
4.958874
4.833984
4.730305
4.644166
4.572725
4.51384
4.466069
4.428293
4.399791
4.380131
4.369112
4.367029
4.373816
4.390323
4.416528
4.452955
4.499719
4.556997
4.625036
4.704085
4.794495
4.896815
5.013212
5.146011
5.294909
5.458493
5.635623
5.82524
6.026125
6.236651
6.454517
6.676492
6.898271
7.114611
7.320244
7.512048
7.692602
7.873709
8.077361
8.334974
8.688565
9.193372
9.934167
11.07844
13.01109
16.85175
27.50854
95.19254
88.71815
27.39622
15.33954
10.87674
8.723859
7.500959
6.725391
6.192948
5.80522
5.510159
5.278228
5.091675
4.939274
4.813574
4.709394
4.622979
4.551537
4.492989
4.445809
4.408911
4.381652
4.363631
4.354642
4.354735
4.363772
4.382742
4.411672
4.450643
4.500066
4.56039
4.631753
4.714393
4.80855
4.914556
5.034373
5.17032
5.322254
5.488814
5.668743
5.86078
6.06348
6.274995
6.492825
6.713581
6.932877
7.14552
7.346482
7.533117
7.708668
7.885598
8.086309
8.342261
8.695368
9.200779
9.943189
11.09008
13.02638
16.87138
27.52818
95.1156
113.725
28.55562
15.67115
11.05068
8.82188
7.553939
6.749717
6.198582
5.79861
5.495573
5.258509
5.068699
4.914256
4.787298
4.682385
4.595633
4.524211
4.46604
4.419608
4.383842
4.358008
4.341665
4.334637
4.336873
4.348695
4.370338
4.402083
4.444229
4.497097
4.560871
4.63595
4.72251
4.820756
4.930895
5.054571
5.193919
5.348954
5.51843
5.700992
5.895182
6.099344
6.311426
6.528756
6.747826
6.96421
7.172813
7.368894
7.550321
7.721021
7.894108
8.09236
8.347142
8.700179
9.206489
9.950612
11.09989
13.03905
16.88659
27.54005
95.02095
114.6421
29.04465
15.94276
11.2097
8.916848
7.605946
6.773111
6.202744
5.789733
5.477922
5.235006
5.041344
4.884425
4.755947
4.65021
4.563176
4.491932
4.434356
4.388908
4.354492
4.330355
4.316023
4.311291
4.315953
4.330454
4.354943
4.389792
4.435287
4.491711
4.55934
4.638381
4.729096
4.831647
4.946119
5.073824
5.216683
5.374842
5.547134
5.732097
5.928102
6.133311
6.345503
6.561867
6.77881
6.991912
7.196219
7.387317
7.563609
7.729704
7.899339
8.095203
8.349368
8.703287
9.211193
9.957787
11.11058
13.05467
16.90922
27.57042
94.98385
114.7747
29.3811
16.18633
11.36099
9.009504
7.656247
6.794346
6.204007
5.77774
5.456765
5.2076
5.009749
4.850113
4.719999
4.61344
4.526234
4.455361
4.398636
4.354476
4.321754
4.299682
4.287756
4.285688
4.293147
4.310563
4.337962
4.375802
4.4246
4.484622
4.556084
4.639183
4.734105
4.841033
4.960226
5.092162
5.238216
5.399332
5.574402
5.76156
5.959023
6.164843
6.376685
6.591643
6.806087
7.015648
7.215543
7.401691
7.573023
7.73479
7.900908
8.095514
8.349619
8.70443
9.214216
9.963235
11.11915
13.06726
16.92692
27.5929
94.94647
114.7486
29.77125
16.44473
11.51116
9.09855
7.704604
6.813917
6.203653
5.763275
5.432632
5.176856
4.974583
4.812121
4.680373
4.573101
4.485915
4.415673
4.360103
4.317554
4.286847
4.26714
4.25789
4.258697
4.269378
4.290039
4.320752
4.361758
4.413637
4.477021
4.552148
4.639162
4.738189
4.849366
4.972877
5.10898
5.258654
5.422685
5.600076
5.78898
5.98749
6.193511
6.404602
6.617795
6.829444
7.035252
7.230649
7.411958
7.578698
7.736367
7.900566
8.094213
8.348596
8.704562
9.216371
9.968212
11.12803
13.08177
16.95019
27.62977
94.93658
114.9486
30.18482
16.71366
11.6576
9.181427
7.748449
6.829869
6.199992
5.745657
5.405343
5.142959
4.9363
4.771109
4.637893
4.530136
4.443253
4.37396
4.31988
4.279287
4.250931
4.233915
4.227602
4.231523
4.245585
4.269696
4.303911
4.348408
4.403504
4.469894
4.548266
4.638827
4.74166
4.856831
4.984401
5.124427
5.277569
5.44437
5.623837
5.814138
6.013282
6.219074
6.428975
6.639983
6.848529
7.050522
7.241599
7.418274
7.580462
7.735145
7.897182
8.090147
8.34523
8.70294
9.216579
9.971326
11.1347
13.09307
16.96815
27.65831
94.92145
115.2508
30.62046
16.9909
11.80095
9.25804
7.787914
6.842632
6.19351
5.725568
5.375674
5.106734
4.895795
4.728037
4.593562
4.485567
4.399265
4.331219
4.278937
4.240591
4.214866
4.200803
4.197688
4.204951
4.222516
4.250194
4.288
4.336061
4.394603
4.464061
4.545246
4.638835
4.744972
4.863683
4.994926
5.138629
5.2951
5.464498
5.645786
5.837167
6.036591
6.241792
6.450248
6.659018
6.864557
7.06267
7.249247
7.421505
7.580001
7.731763
7.892217
8.084867
8.340835
8.700439
9.216633
9.974252
11.14157
13.10565
16.99015
27.69843
94.95714
115.4612
31.02757
17.2693
11.94427
9.33092
7.822125
6.850386
6.182843
5.70205
5.34326
5.068313
4.853524
4.683569
4.548188
4.440302
4.354914
4.288435
4.238251
4.202444
4.179582
4.168604
4.16876
4.179469
4.200609
4.231915
4.27335
4.324987
4.386999
4.459651
4.543555
4.639651
4.748546
4.870288
5.004758
5.151768
5.311291
5.483069
5.665949
5.858149
6.05763
6.262113
6.468984
6.675162
6.877167
7.071235
7.25367
7.421834
7.576941
7.726228
7.885397
8.078027
8.335128
8.696643
9.215127
9.975492
11.14626
13.11508
17.00699
27.73068
95.02197
115.898
31.45943
17.54671
12.08
9.397259
7.852415
6.855648
6.170253
5.676866
5.309395
5.028712
4.810418
4.638647
4.502732
4.395292
4.311139
4.246531
4.198732
4.165703
4.145885
4.138132
4.141631
4.155894
4.180572
4.215445
4.260426
4.315538
4.380904
4.456742
4.543357
4.641642
4.752718
4.876868
5.01397
5.163754
5.32588
5.499672
5.683838
5.876573
6.075733
6.278948
6.483629
6.686942
6.885646
7.07614
7.254708
7.419291
7.571102
7.718071
7.876347
8.06936
8.327831
8.691448
9.21243
9.975657
11.15065
13.12511
17.02633
27.76954
95.1115
115.9875
31.82976
17.82267
12.22231
9.465703
7.880461
6.857353
6.154836
5.6498
5.274562
4.98887
4.767592
4.594368
4.458223
4.351544
4.268904
4.206365
4.161019
4.130724
4.1139
4.10939
4.116349
4.134167
4.162408
4.20081
4.249243
4.307687
4.376222
4.455021
4.544348
4.64482
4.757575
4.883503
5.022571
5.174462
5.338653
5.514071
5.6991
5.891792
6.09001
6.291508
6.493872
6.694381
6.889877
7.076774
7.251876
7.413205
7.562493
7.707892
7.865583
8.059032
8.319011
8.684991
9.208697
9.975122
11.1534
13.13222
17.04085
27.79808
95.15353
116.6451
32.22916
18.09751
12.3536
9.52517
7.904028
6.856987
6.137876
5.621764
5.239208
4.948959
4.725187
4.551063
4.415194
4.309674
4.228825
4.168524
4.125738
4.098264
4.084489
4.083205
4.093507
4.114722
4.146372
4.188143
4.239855
4.301446
4.372956
4.454518
4.546343
4.64877
4.762931
4.890148
5.030578
5.183942
5.349611
5.526125
5.711548
5.903843
6.100926
6.300628
6.500609
6.698246
6.890486
7.074137
7.246039
7.404505
7.551581
7.695744
7.853344
8.047713
8.309468
8.677766
9.203906
9.973063
11.15457
13.13983
17.05849
27.83952
95.17185
117.4403
32.69679
18.35861
12.48328
9.582047
7.923512
6.853146
6.118392
5.592059
5.203058
4.909062
4.683506
4.509028
4.373826
4.269674
4.190728
4.132764
4.092709
4.068263
4.057748
4.05975
4.073358
4.09786
4.132744
4.17766
4.232392
4.296839
4.371001
4.454977
4.548972
4.653261
4.768715
4.896727
5.037907
5.192116
5.358687
5.535849
5.721349
5.91301
6.10874
6.306461
6.503992
6.698836
6.888223
7.068975
7.238137
7.394245
7.539583
7.682826
7.840388
8.035507
8.298833
8.669351
9.197844
9.969671
11.15461
13.14337
17.06974
27.87264
95.19556
95.40789
32.43345
18.56011
12.60662
9.636333
7.940832
6.848808
6.099786
5.564137
5.169339
4.87201
4.64489
4.470106
4.335549
4.23277
4.155774
4.100211
4.062874
4.041354
4.033906
4.03903
4.05577
4.083368
4.121269
4.169086
4.226575
4.293607
4.370156
4.456267
4.552111
4.657948
4.774411
4.902916
5.044465
5.19908
5.366106
5.543501
5.728717
5.919462
6.113671
6.309343
6.504446
6.696705
6.883399
7.061526
7.228289
7.382413
7.526403
7.669123
7.827032
8.023242
8.288315
8.661024
9.19177
9.966032
11.15382
13.14617
17.07729
27.88798
95.23371
95.35498
32.63642
18.81927
12.74345
9.692183
7.957392
6.84479
6.082447
5.538275
5.138255
4.838048
4.609712
4.434918
4.301236
4.200001
4.125031
4.071829
4.037075
4.018289
4.013652
4.021638
4.041234
4.071638
4.11226
4.162683
4.222618
4.291896
4.370452
4.458344
4.555706
4.662774
4.779997
4.908824
5.050528
5.205239
5.372324
5.549545
5.734123
5.923672
6.1161
6.309642
6.502372
6.692114
6.876305
7.052067
7.216738
7.369196
7.512115
7.654498
7.812819
8.010078
8.276827
8.651686
9.184668
9.96145
11.15244
13.14959
17.09011
27.92311
95.27955
117.7278
33.51384
19.10577
12.88127
9.746712
7.972895
6.840792
6.066202
5.514395
5.109838
4.807243
4.578042
4.403474
4.270804
4.171149
4.098164
4.047234
4.014946
3.998746
3.996726
4.007363
4.029575
4.062524
4.105591
4.158315
4.220386
4.29161
4.37186
4.4612
4.55975
4.667733
4.785513
4.914535
5.056185
5.210706
5.37749
5.554136
5.7377
5.925698
6.116265
6.30761
6.497974
6.685325
6.867221
7.040895
7.203793
7.354917
7.497082
7.639392
7.79831
7.996708
8.265119
8.642011
9.177014
9.955913
11.14934
13.14985
17.09601
27.94643
95.35686
119.0445
34.0628
19.36282
13.01309
9.799247
7.987888
6.837556
6.051727
5.493068
5.084552
4.779977
4.550182
4.376004
4.244424
4.146353
4.075296
4.026521
3.996526
3.982899
3.98325
3.99628
4.020835
4.056039
4.101229
4.15592
4.219772
4.292536
4.374189
4.464692
4.564147
4.672757
4.79089
4.919981
5.061394
5.21543
5.381538
5.557222
5.739419
5.925736
6.11424
6.303332
6.491387
6.676498
6.856322
7.02818
7.189602
7.339687
7.481351
7.623774
7.783392
7.98296
8.25302
8.631926
9.168972
9.950109
11.14622
13.15019
17.10358
27.9696
95.44783
119.2664
34.24647
19.56613
13.13539
9.850561
8.004057
6.836887
6.040445
5.475407
5.063301
4.757002
4.526757
4.353015
4.222491
4.125906
4.056631
4.009836
3.981948
3.970481
3.972993
3.988143
4.014746
4.051888
4.098883
4.155223
4.220502
4.294572
4.377283
4.468619
4.568671
4.677638
4.795908
4.924899
5.065906
5.219248
5.384405
5.558831
5.739416
5.923773
6.110114
6.296964
6.482821
6.665877
6.843872
7.014191
7.174424
7.323743
7.465142
7.607849
7.768257
7.969001
8.240639
8.621427
9.160322
9.943451
11.14207
13.15005
17.10963
27.99571
95.55828
119.5373
34.45823
19.77092
13.25841
9.902481
8.021552
6.838187
6.032368
5.461707
5.046436
4.738628
4.508012
4.334684
4.205119
4.109871
4.042188
3.997149
3.971112
3.961512
3.965899
3.982874
4.011212
4.049979
4.098457
4.156051
4.222506
4.297533
4.380998
4.472877
4.573254
4.682325
4.800546
4.929315
5.069778
5.222232
5.386184
5.55906
5.737782
5.920039
6.104172
6.28883
6.472616
6.653806
6.830197
6.99922
7.15851
7.30729
7.448613
7.591738
7.75301
7.954944
8.228126
8.610724
9.151385
9.936362
11.13713
13.14799
17.11283
28.01052
95.62066
120.3469
34.78266
19.96601
13.37849
9.955294
8.041858
6.843845
6.029014
5.452905
5.0346
4.725326
4.494288
4.321252
4.192471
4.098344
4.032008
3.988459
3.963985
3.955949
3.961903
3.980391
4.010148
4.050146
4.099702
4.158364
4.225668
4.301358
4.385291
4.477438
4.577881
4.68682
4.804817
4.933238
5.073018
5.224422
5.386957
5.558067
5.734728
5.914768
6.096668
6.279198
6.461047
6.640549
6.81554
6.983482
7.142037
7.290465
7.431864
7.575511
7.737695
7.940813
8.215474
8.599775
9.142085
9.928826
11.13177
13.14587
17.11667
28.03125
95.67252
100.4287
34.40205
20.10682
13.49371
10.00932
8.065411
6.853647
6.030153
5.449245
5.027857
4.71704
4.485486
4.312607
4.184434
4.091218
4.025994
3.983683
3.960518
3.953781
3.960975
3.980535
4.011231
4.05221
4.102675
4.162037
4.229887
4.305953
4.390086
4.482252
4.582533
4.691129
4.808742
4.936688
5.075673
5.225917
5.386872
5.555992
5.730415
5.90815
6.087826
6.268313
6.448363
6.626346
6.800124
6.967173
7.125172
7.273402
7.414994
7.559244
7.722388
7.926706
8.202801
8.588688
9.132506
9.92081
11.12557
13.1421
17.1171
28.04107
95.71287
100.6582
34.58293
20.28592
13.61397
10.0671
8.092718
6.867962
6.036974
5.451136
5.02762
4.715208
4.482786
4.309677
4.181746
4.089087
4.024599
3.983077
3.96063
3.954512
3.962437
3.982869
4.014456
4.056139
4.107158
4.166937
4.235058
4.311241
4.395334
4.487299
4.58722
4.695296
4.812399
4.939711
5.077699
5.226684
5.385955
5.552928
5.724978
5.900358
6.077848
6.256393
6.434784
6.611412
6.784145
6.950464
7.108052
7.256203
7.398071
7.542964
7.707082
7.912649
8.190177
8.577507
9.122734
9.912574
11.11926
13.13864
17.11873
28.05822
95.77896
101.51
34.91518
20.49024
13.74267
10.13385
8.123848
6.884852
6.047887
5.457731
5.030715
4.716854
4.483794
4.310453
4.182544
4.090093
4.025966
3.984968
3.963263
3.958022
3.966689
3.987706
4.019756
4.061816
4.1131
4.17302
4.24115
4.317204
4.401027
4.492584
4.591958
4.699392
4.81586
4.942273
5.079213
5.227049
5.384408
5.548919
5.71849
5.891552
6.066955
6.243681
6.42055
6.595964
6.767795
6.933521
7.09082
7.238985
7.381186
7.526751
7.691857
7.89869
8.1776
8.56621
9.112696
9.903888
11.11222
13.13403
17.11843
28.06716
95.85075
102.3134
35.19134
20.68298
13.87179
10.20636
8.159551
6.905915
6.063649
5.469824
5.040403
4.724686
4.490436
4.316428
4.188228
4.095749
4.031773
3.991027
3.969586
3.964582
3.973519
3.99477
4.026987
4.06913
4.1204
4.180196
4.248084
4.323775
4.407111
4.498057
4.596704
4.703477
4.819321
4.944818
5.080493
5.22668
5.381957
5.544098
5.711248
5.882028
6.055396
6.230388
6.405841
6.580159
6.751209
6.916455
7.073561
7.221817
7.364408
7.510677
7.676767
7.884812
8.165022
8.554838
9.10252
9.895026
11.10502
13.12937
17.11895
28.08126
95.94296
103.1318
35.37521
20.855
14.00124
10.28459
8.200486
6.931954
6.084567
5.487155
5.055161
4.737551
4.501955
4.327028
4.198233
4.105396
4.041225
4.000383
3.978896
3.973862
3.982768
4.003955
4.036053
4.078005
4.129001
4.188429
4.25585
4.330973
4.413639
4.503821
4.601612
4.707638
4.822772
4.947215
5.081435
5.22578
5.378854
5.538584
5.703334
5.871892
6.043311
6.216668
6.39081
6.564138
6.734507
6.899365
7.056355
7.204762
7.347782
7.494767
7.66182
7.871022
8.152445
8.543369
9.092133
9.885802
11.09722
13.12361
17.11684
28.08816
96.02322
103.8306
35.53123
21.01353
14.1312
10.36868
8.247306
6.96363
6.110975
5.50977
5.074991
4.755291
4.51812
4.34201
4.212331
4.118829
4.054148
4.012902
3.991069
3.985721
3.994306
4.015149
4.046861
4.088368
4.138848
4.197681
4.264425
4.338786
4.42061
4.509872
4.606781
4.712042
4.826292
4.949484
5.082044
5.224355
5.375129
5.532458
5.694873
5.861294
6.030855
6.202671
6.375595
6.548024
6.717796
6.882339
7.039275
7.187877
7.33135
7.479048
7.647032
7.857329
8.139896
8.531864
9.08166
9.876467
11.08933
13.1179
17.1153
28.09766
96.09151
104.6974
35.70587
21.17267
14.26644
10.45939
8.300363
7.000897
6.142709
5.537711
5.099915
4.77784
4.538796
4.361201
4.230331
4.135857
4.070364
4.028415
4.005947
4.000011
4.008005
4.028243
4.059318
4.100143
4.149883
4.207916
4.273793
4.347224
4.428056
4.51627
4.612273
4.716718
4.829871
4.951588
5.08231
5.222473
5.370904
5.525854
5.685998
5.850366
6.018159
6.188522
6.360314
6.531922
6.701167
6.865452
7.022378
7.171203
7.315138
7.463533
7.632403
7.843729
8.127356
8.520285
9.071017
9.866831
11.08093
13.11126
17.11174
28.10151
96.14209
105.4321
35.8817
21.33447
14.40592
10.55822
8.36352
7.043334
6.177598
5.569695
5.129186
4.804729
4.563654
4.38434
4.252011
4.156285
4.089696
4.046762
4.023385
4.016599
4.023745
4.043132
4.073336
4.113257
4.162052
4.219092
4.283927
4.356268
4.435967
4.523133
4.61822
4.721634
4.833446
4.953489
5.082239
5.220182
5.366262
5.518876
5.676824
5.839226
6.005341
6.174335
6.345071
6.515923
6.684695
6.848765
7.005709
7.154773
7.299166
7.448232
7.617939
7.830228
8.114849
8.508681
9.060308
9.857116
11.07248
13.10474
17.10883
28.10778
96.2023
106.2616
36.06042
21.48458
14.54714
10.66457
8.435167
7.091764
6.217019
5.605926
5.162579
4.83562
4.592348
4.411111
4.277092
4.179867
4.111928
4.067755
4.043217
4.035338
4.041398
4.059705
4.088822
4.127635
4.175296
4.23117
4.294808
4.365921
4.444413
4.530518
4.62457
4.726713
4.836951
4.955154
5.081845
5.217549
5.361305
5.511643
5.667472
5.827994
5.992514
6.160216
6.329961
6.500111
6.66845
6.832333
6.98931
7.138612
7.283445
7.433144
7.60363
7.816809
8.102347
8.497007
9.049445
9.847142
11.0636
13.09742
17.10422
28.1099
96.26322
106.7555
36.15157
21.64766
14.69676
10.77997
8.514777
7.146059
6.261241
5.646543
5.200123
4.870413
4.624703
4.441303
4.305354
4.206388
4.136859
4.091208
4.065274
4.056077
4.060829
4.077845
4.105673
4.143191
4.189543
4.244091
4.306386
4.376175
4.453485
4.538473
4.631242
4.73186
4.840331
4.956582
5.081182
5.214665
5.356148
5.504277
5.658066
5.816791
5.979794
6.146271
6.31508
6.484568
6.6525
6.816205
6.973212
7.122737
7.267981
7.418266
7.589471
7.803473
8.089862
8.485301
9.038525
9.837114
11.05474
13.0903
17.10028
28.1133
96.32059
124.3165
36.64869
21.82595
14.85134
10.90256
8.603251
7.209388
6.310088
5.689724
5.240715
4.908402
4.660226
4.474543
4.336493
4.235589
4.164258
4.116913
4.089367
4.078643
4.081882
4.097411
4.123766
4.159814
4.204694
4.257772
4.31865
4.387153
4.463222
4.546861
4.638111
4.737008
4.843568
4.957811