/*--------------------------------*- C++ -*----------------------------------*\
| =========                 |                                                 |
| \\      /  F ield         | OpenFOAM: The Open Source CFD Toolbox           |
|  \\    /   O peration     | Version:  2312                                  |
|   \\  /    A nd           | Website:  www.openfoam.com                      |
|    \\/     M anipulation  |                                                 |
\*---------------------------------------------------------------------------*/
FoamFile
{
    version     2.0;
    format      ascii;
    arch        "LSB;label=32;scalar=64";
    class       surfaceScalarField;
    location    "5550";
    object      phi;
}
// * * * * * * * * * * * * * * * * * * * * * * * * * * * * * * * * * * * * * //

dimensions      [1 0 -1 0 0 0 0];

oriented        oriented;

internalField   nonuniform List<scalar> 
23740
(
-0.0001068344
0.0001072381
-0.0002033144
9.64814e-05
-0.0003096656
0.000106353
-0.0004231142
0.0001134505
-0.0005282591
0.000105146
-0.0006206829
9.242392e-05
-0.000716602
9.591786e-05
-0.000829871
0.0001132666
-0.0009398842
0.0001100103
-0.001012045
7.215809e-05
-0.001067537
5.548998e-05
-0.001148517
8.097851e-05
-0.0012485
9.998311e-05
-0.00131968
7.118007e-05
-0.001356096
3.641568e-05
-0.001403596
4.749981e-05
-0.00147841
7.481374e-05
-0.001542168
6.37579e-05
-0.001572664
3.04957e-05
-0.001600818
2.815367e-05
-0.001648616
4.779676e-05
-0.001692076
4.345994e-05
-0.001712672
2.059595e-05
-0.001730908
1.823576e-05
-0.001761053
3.014392e-05
-0.001785868
2.481434e-05
-0.001796185
1.031671e-05
-0.001807111
1.092564e-05
-0.001823229
1.611711e-05
-0.001832162
8.931897e-06
-0.001834037
1.873682e-06
-0.001833079
-9.603047e-07
-0.001830956
-2.125432e-06
-0.001831435
4.721957e-07
-0.001829437
-2.009361e-06
-0.001817661
-1.178583e-05
-0.001792999
-2.467216e-05
-0.001767746
-2.5273e-05
-0.001758079
-9.691113e-06
-0.00175605
-2.047307e-06
-0.001730233
-2.583555e-05
-0.001675376
-5.486889e-05
-0.001622501
-5.288489e-05
-0.001600626
-2.188749e-05
-0.001591366
-9.26863e-06
-0.001549831
-4.153692e-05
-0.001458435
-9.139423e-05
-0.001381899
-7.653125e-05
-0.001353421
-2.847233e-05
-0.001319129
-3.428497e-05
-0.001221409
-9.771324e-05
-0.00110815
-0.0001132526
-0.001031241
-7.690325e-05
-0.0009529533
-7.828319e-05
-0.0008351479
-0.0001178017
-0.0006921952
-0.0001429493
-0.0005512967
-0.0001408956
-0.0003841799
-0.0001671127
-0.0001930278
-0.0001911435
-0.000193027
-0.0001099824
0.0002172189
-0.000215586
0.0002020832
-0.0003108892
0.0002016543
-0.0004020394
0.0002045983
-0.0004972627
0.0002003663
-0.0005958821
0.0001910396
-0.0006833847
0.0001834162
-0.0007503491
0.000180227
-0.0008125592
0.0001722168
-0.0008962334
0.0001558296
-0.0009817125
0.000140968
-0.001036729
0.0001359957
-0.001069628
0.0001328827
-0.001119787
0.0001213403
-0.001191142
0.0001077715
-0.001244824
0.0001011822
-0.001267557
9.754742e-05
-0.001293591
8.979222e-05
-0.001341816
7.872147e-05
-0.001385011
7.13483e-05
-0.001404038
6.682284e-05
-0.001421092
6.051404e-05
-0.001452716
5.221819e-05
-0.00148039
4.590786e-05
-0.00149143
4.118223e-05
-0.001501858
3.524032e-05
-0.001520029
2.848457e-05
-0.001532355
2.324854e-05
-0.001535062
1.882078e-05
-0.001539236
1.310249e-05
-0.001544168
6.802745e-06
-0.001547024
1.891388e-06
-0.001545813
-3.342728e-06
-0.001536706
-8.643093e-06
-0.001524159
-1.456943e-05
-0.001514599
-2.136156e-05
-0.00151091
-2.837992e-05
-0.001502066
-3.4137e-05
-0.001473208
-3.8565e-05
-0.001431374
-4.389316e-05
-0.001404943
-5.227315e-05
-0.001398556
-6.125568e-05
-0.001382863
-6.856913e-05
-0.001330447
-7.429087e-05
-0.001258965
-8.073858e-05
-0.001210638
-8.985455e-05
-0.001201649
-0.0001003766
-0.001169008
-0.0001091691
-0.001080819
-0.0001166601
-0.0009883697
-0.0001267352
-0.0009478248
-0.0001382608
-0.0009128322
-0.0001482489
-0.000827559
-0.0001621802
-0.0007297513
-0.0001760939
-0.0006472064
-0.0002003483
-0.000561764
-0.0002283926
-0.0004476423
-0.0002550169
-0.0003140599
-0.0003006926
-0.0001665512
-0.0003386489
-0.000359578
-9.085411e-05
0.0003080719
-0.0001794521
0.00029068
-0.0002630358
0.0002852365
-0.0003395594
0.0002811196
-0.0004124676
0.000273271
-0.0004837468
0.0002623143
-0.000551656
0.0002513209
-0.0006140338
0.0002426012
-0.0006723538
0.0002305347
-0.0007346402
0.000218115
-0.000798059
0.000204387
-0.0008529706
0.0001909081
-0.0008974146
0.0001773275
-0.0009406481
0.0001645743
-0.0009853301
0.0001524535
-0.001026039
0.0001418908
-0.001060375
0.0001318824
-0.001092059
0.0001214753
-0.001124299
0.0001109607
-0.001154282
0.0001013303
-0.00117988
9.242004e-05
-0.001202772
8.34052e-05
-0.001224835
7.427974e-05
-0.001244595
6.566697e-05
-0.001260898
5.74838e-05
-0.001274849
4.918975e-05
-0.0012872
4.083457e-05
-0.001296775
3.282139e-05
-0.001302983
2.502538e-05
-0.001307001
1.711748e-05
-0.001310134
9.93297e-06
-0.00131037
2.122575e-06
-0.001306865
-6.856194e-06
-0.001300477
-1.504074e-05
-0.001291752
-2.330688e-05
-0.001281198
-3.193055e-05
-0.001268762
-4.083151e-05
-0.001253187
-4.972748e-05
-0.001233278
-5.848877e-05
-0.001209656
-6.752905e-05
-0.001184566
-7.737281e-05
-0.00115807
-8.775964e-05
-0.001128458
-9.818262e-05
-0.001094168
-0.0001085784
-0.001055558
-0.0001193418
-0.001014286
-0.0001311187
-0.0009708645
-0.0001437898
-0.0009234167
-0.0001566083
-0.0008705039
-0.0001695655
-0.0008155271
-0.0001817059
-0.0007605342
-0.000193249
-0.0006969778
-0.0002118021
-0.0006259619
-0.000233194
-0.0005476951
-0.000254359
-0.000462682
-0.0002853599
-0.0003792717
-0.0003118018
-0.0002901017
-0.000344186
-0.000206074
-0.0003847196
-0.0001087222
-0.0004359995
-0.0004683
-7.382696e-05
0.0003818926
-0.0001441405
0.0003609883
-0.0002118748
0.0003529667
-0.0002754491
0.0003446908
-0.0003359921
0.0003338117
-0.000394214
0.0003205347
-0.0004484294
0.0003055354
-0.0004972919
0.0002914631
-0.0005449322
0.0002781749
-0.0005899384
0.0002631216
-0.0006361141
0.0002505631
-0.0006814425
0.0002362369
-0.0007252574
0.0002211426
-0.000765829
0.0002051459
-0.0008039841
0.0001906083
-0.0008403939
0.0001783001
-0.0008735409
0.0001650287
-0.0009042757
0.0001522092
-0.0009330821
0.0001397663
-0.0009595637
0.0001278111
-0.0009834227
0.0001162782
-0.00100502
0.0001050017
-0.001024657
9.391515e-05
-0.001042046
8.305538e-05
-0.001056961
7.239751e-05
-0.001069623
6.184932e-05
-0.001080166
5.137569e-05
-0.001088341
4.099474e-05
-0.001094015
3.069752e-05
-0.001098369
2.146958e-05
-0.001100175
1.173733e-05
-0.001098719
6.630295e-07
-0.00109552
-1.005996e-05
-0.001089934
-2.063267e-05
-0.001082039
-3.12084e-05
-0.001071886
-4.209028e-05
-0.001059534
-5.318986e-05
-0.001044782
-6.448444e-05
-0.001027281
-7.599344e-05
-0.001007008
-8.780286e-05
-0.0009843633
-0.0001000167
-0.0009594626
-0.0001126576
-0.000931934
-0.0001257075
-0.0009011949
-0.0001393137
-0.0008686146
-0.0001519186
-0.0008326677
-0.0001670624
-0.0007936621
-0.0001827925
-0.0007519088
-0.0001983591
-0.00070807
-0.0002134025
-0.0006599296
-0.0002298453
-0.0006039945
-0.0002491833
-0.0005409836
-0.0002748121
-0.0004761134
-0.0002980635
-0.0004082823
-0.0003221894
-0.0003456349
-0.0003480064
-0.0002804482
-0.000376987
-0.0002131234
-0.0004115091
-0.0001442235
-0.0004536179
-7.468668e-05
-0.0005055348
-0.0005429866
-5.947864e-05
0.000441365
-0.0001173385
0.0004188429
-0.0001721382
0.0004077623
-0.0002240729
0.0003966223
-0.0002737238
0.0003834607
-0.000321696
0.0003685059
-0.000368592
0.0003524313
-0.0004127688
0.0003356404
-0.0004535033
0.0003189103
-0.0004924231
0.0003020425
-0.0005270852
0.0002852262
-0.0005606622
0.0002698145
-0.0005951098
0.0002555902
-0.0006299777
0.0002400131
-0.0006622346
0.0002228643
-0.0006924074
0.0002084715
-0.0007208102
0.0001934302
-0.0007472352
0.0001786331
-0.0007717055
0.000164236
-0.0007942024
0.0001503075
-0.0008146809
0.0001367562
-0.000833171
0.0001234914
-0.0008497143
0.0001104578
-0.0008642877
9.762798e-05
-0.0008768622
8.4971e-05
-0.0008874592
7.244505e-05
-0.0008961035
6.001845e-05
-0.0009027823
4.767195e-05
-0.000907446
3.535967e-05
-0.0009101917
2.42133e-05
-0.0009100155
1.155898e-05
-0.0009084179
-9.369176e-07
-0.0009049103
-1.35701e-05
-0.0008992458
-2.629994e-05
-0.0008924114
-3.804543e-05
-0.0008831371
-5.136706e-05
-0.0008715968
-6.473195e-05
-0.0008578512
-7.823107e-05
-0.0008418816
-9.196312e-05
-0.0008236797
-0.0001060038
-0.0008032711
-0.0001204231
-0.0007806532
-0.0001352723
-0.0007557525
-0.0001506045
-0.000728701
-0.0001663617
-0.0006991427
-0.0001814735
-0.0006670296
-0.0001991723
-0.0006337661
-0.0002160534
-0.0005986072
-0.0002335157
-0.0005593174
-0.0002526906
-0.0005141006
-0.0002750606
-0.0004652483
-0.0002980346
-0.0004187136
-0.000321346
-0.0003715723
-0.0003452044
-0.0003229228
-0.0003708387
-0.0002719748
-0.0003989543
-0.0002186797
-0.0004302821
-0.0001643017
-0.0004658871
-0.000110182
-0.0005077373
-5.639574e-05
-0.0005593205
-0.0005993822
-4.802795e-05
0.0004893878
-9.455956e-05
0.0004653711
-0.0001380695
0.0004512707
-0.0001792427
0.0004377953
-0.0002185929
0.0004228114
-0.0002565049
0.0004064188
-0.0002931761
0.0003891035
-0.0003287312
0.0003711964
-0.0003629304
0.0003531102
-0.000395919
0.0003350318
-0.0004278048
0.0003171125
-0.0004575165
0.0002995265
-0.0004840723
0.000282146
-0.0005105466
0.0002664869
-0.0005378893
0.0002502061
-0.000562469
0.0002330501
-0.0005855547
0.0002165149
-0.0006072766
0.0002003542
-0.000627601
0.0001845599
-0.0006463913
0.0001690975
-0.0006635662
0.0001539309
-0.0006790947
0.0001390197
-0.0006929657
0.0001243285
-0.0007051661
0.0001098279
-0.0007156856
9.549003e-05
-0.0007245278
8.128651e-05
-0.0007317013
6.719122e-05
-0.0007372088
5.317855e-05
-0.0007410657
3.921546e-05
-0.0007421902
2.533674e-05
-0.000741936
1.130363e-05
-0.0007410371
-1.837095e-06
-0.0007382465
-1.636185e-05
-0.0007336495
-3.089797e-05
-0.0007272291
-4.446689e-05
-0.0007189942
-5.960286e-05
-0.0007090015
-7.472515e-05
-0.0006972352
-8.999742e-05
-0.0006836824
-0.0001055155
-0.0006683349
-0.0001213504
-0.0006511982
-0.0001375584
-0.0006322826
-0.0001541859
-0.0006116122
-0.0001712726
-0.0005891253
-0.0001888462
-0.0005635734
-0.000207023
-0.0005376067
-0.0002251367
-0.0005096471
-0.0002440109
-0.000478177
-0.000264984
-0.000443205
-0.0002876609
-0.0004074399
-0.0003108243
-0.0003710074
-0.000334466
-0.0003333838
-0.0003589687
-0.0002939057
-0.0003846818
-0.0002527269
-0.0004120169
-0.0002103565
-0.0004413243
-0.0001674188
-0.0004732194
-0.0001245423
-0.0005087634
-8.232789e-05
-0.0005499511
-4.161604e-05
-0.0006000315
-0.0006409981
-3.843142e-05
0.0005278161
-7.566415e-05
0.0005026023
-0.0001101053
0.0004857115
-0.0001425252
0.0004702157
-0.0001734478
0.0004537349
-0.0002032119
0.0004361839
-0.0002320015
0.0004178939
-0.0002599575
0.0003991532
-0.0002870741
0.0003802275
-0.0003133419
0.0003613001
-0.000338738
0.0003425087
-0.0003631496
0.0003239379
-0.0003865671
0.0003055629
-0.0004074879
0.0002874069
-0.0004280048
0.0002707223
-0.0004486933
0.0002537382
-0.0004681173
0.0002359386
-0.0004862068
0.0002184437
-0.0005029418
0.0002012949
-0.0005183368
0.0001844926
-0.0005323813
0.0001679755
-0.0005450612
0.0001516997
-0.0005563634
0.0001356307
-0.0005662755
0.0001197399
-0.0005747864
0.0001040007
-0.0005818871
8.838698e-05
-0.0005875672
7.287102e-05
-0.0005918127
5.742367e-05
-0.0005946102
4.201249e-05
-0.0005958859
2.661208e-05
-0.0005957221
1.113938e-05
-0.0005949489
-2.610762e-06
-0.0005926863
-1.862486e-05
-0.0005890171
-3.456755e-05
-0.0005829706
-5.051365e-05
-0.0005758454
-6.672827e-05
-0.0005674248
-8.314576e-05
-0.0005576002
-9.982194e-05
-0.0005463128
-0.0001168025
-0.0005335254
-0.0001341373
-0.0005192094
-0.0001518736
-0.0005033394
-0.0001700549
-0.000485897
-0.0001887137
-0.0004667808
-0.000207961
-0.0004465823
-0.0002272201
-0.0004244048
-0.0002473128
-0.0003991989
-0.0002692153
-0.000372431
-0.0002917506
-0.0003451539
-0.0003149367
-0.0003171691
-0.0003388081
-0.0002881233
-0.0003635107
-0.0002579275
-0.0003891636
-0.0002266752
-0.0004159333
-0.0001946163
-0.0004440752
-0.0001619821
-0.0004739579
-0.0001290406
-0.0005061602
-9.613039e-05
-0.0005416729
-6.369178e-05
-0.0005823887
-3.212211e-05
-0.0006315999
-0.0006731201
-3.018766e-05
0.0005580001
-5.932813e-05
0.0005317407
-8.593243e-05
0.000512315
-0.0001108304
0.0004951135
-0.0001345878
0.0004774924
-0.0001575358
0.0004591322
-0.0001798449
0.0004402034
-0.0002016036
0.0004209122
-0.0002228217
0.000401446
-0.0002434674
0.0003819461
-0.0002634751
0.0003625165
-0.0002827604
0.000343223
-0.0003012952
0.0003240973
-0.000319054
0.0003051652
-0.0003348015
0.0002864693
-0.0003499921
0.0002689284
-0.0003653198
0.0002512663
-0.000379851
0.000232975
-0.0003934363
0.0002148804
-0.0004059758
0.0001970323
-0.0004174172
0.0001794169
-0.0004277396
0.0001620222
-0.0004369312
0.0001448224
-0.0004449862
0.0001277948
-0.000451901
0.0001109156
-0.000457675
9.416086e-05
-0.0004623095
7.750545e-05
-0.0004658078
6.09218e-05
-0.0004681752
4.437974e-05
-0.0004694114
2.784817e-05
-0.0004695626
1.12905e-05
-0.0004683838
-3.789723e-06
-0.0004662221
-2.078661e-05
-0.000462975
-3.781472e-05
-0.0004585566
-5.493198e-05
-0.0004530364
-7.22484e-05
-0.0004463887
-8.979335e-05
-0.0004385918
-0.0001076186
-0.0004296218
-0.0001257721
-0.0004194567
-0.000144302
-0.0004080766
-0.0001632531
-0.0003954686
-0.0001826623
-0.0003815853
-0.0002025963
-0.0003666905
-0.0002228552
-0.0003501812
-0.0002437287
-0.0003315114
-0.0002659819
-0.0003119516
-0.0002887743
-0.0002915349
-0.0003121665
-0.000270228
-0.0003362428
-0.0002479947
-0.0003610407
-0.0002248793
-0.0003866254
-0.0002009487
-0.0004130936
-0.000176292
-0.0004405894
-0.0001510393
-0.0004693273
-0.0001253641
-0.0004996326
-9.948796e-05
-0.0005320357
-7.36965e-05
-0.0005674636
-4.839211e-05
-0.000607692
-2.417533e-05
-0.0006558153
-0.0006972953
-2.366706e-05
0.0005816657
-4.612446e-05
0.0005541976
-6.62882e-05
0.0005324787
-8.500546e-05
0.0005138309
-0.000102798
0.000495285
-0.0001199739
0.0004763082
-0.0001367076
0.0004569371
-0.0001530923
0.0004372969
-0.0001691591
0.0004175127
-0.0001848957
0.0003976826
-0.0002002602
0.0003778809
-0.0002151964
0.0003581592
-0.0002296485
0.0003385495
-0.0002435568
0.0003190736
-0.0002568293
0.000299742
-0.0002684868
0.0002805861
-0.0002795267
0.0002623064
-0.0002906057
0.000244054
-0.0003010663
0.000225341
-0.0003107735
0.0002067394
-0.0003196662
0.0001883095
-0.0003277202
0.0001700762
-0.000334913
0.0001520152
-0.0003412325
0.0001341143
-0.0003466735
0.0001163565
-0.0003512354
9.872271e-05
-0.0003549217
8.119167e-05
-0.000357738
6.373802e-05
-0.0003596917
4.633333e-05
-0.00036079
2.894644e-05
-0.0003610432
1.154369e-05
-0.0003601514
-4.681532e-06
-0.0003585227
-2.241534e-05
-0.0003560996
-4.023775e-05
-0.000352833
-5.819849e-05
-0.0003487269
-7.635443e-05
-0.000343765
-9.47551e-05
-0.0003379303
-0.0001134531
-0.0003312017
-0.0001325005
-0.000323554
-0.0001519495
-0.0003149545
-0.0001718523
-0.0003053611
-0.0001922554
-0.0002947216
-0.0002132354
-0.0002828806
-0.0002346958
-0.0002694675
-0.0002571415
-0.0002552823
-0.0002801667
-0.000240282
-0.0003037742
-0.0002244453
-0.0003280029
-0.0002078092
-0.0003528786
-0.0001904173
-0.0003784323
-0.0001723328
-0.0004047096
-0.0001536412
-0.0004317848
-0.0001344531
-0.0004597772
-0.0001149054
-0.0004888746
-9.515767e-05
-0.0005193799
-7.539355e-05
-0.0005517993
-5.582739e-05
-0.0005870292
-3.672415e-05
-0.0006267944
-1.839691e-05
-0.0006741414
-0.0007156921
-1.814277e-05
0.00059981
-3.501579e-05
0.0005710719
-4.980586e-05
0.0005472696
-6.328826e-05
0.0005273138
-7.603356e-05
0.0005080306
-8.838301e-05
0.0004886577
-0.0001005013
0.0004690553
-0.00011245
0.0004492455
-0.0001242304
0.000429293
-0.0001358182
0.0004092702
-0.0001471777
0.0003892404
-0.0001582675
0.000369249
-0.0001690451
0.0003493272
-0.000179467
0.0003294958
-0.0001894927
0.0003097679
-0.0001990518
0.0002901454
-0.0002073728
0.0002706274
-0.0002151036
0.0002517848
-0.000222772
0.0002330093
-0.0002299858
0.0002139531
-0.0002366573
0.0001949808
-0.0002427212
0.0001761399
-0.0002481512
0.000157445
-0.0002529361
0.0001388991
-0.0002570724
0.0001204926
-0.0002605605
0.0001022108
-0.0002634044
8.403554e-05
-0.0002656096
6.594322e-05
-0.0002671821
4.790584e-05
-0.0002681273
2.989163e-05
-0.0002684495
1.186597e-05
-0.0002678463
-5.284648e-06
-0.0002667002
-2.35614e-05
-0.0002649813
-4.195663e-05
-0.0002626621
-6.051753e-05
-0.0002597222
-7.92943e-05
-0.0002561391
-9.833804e-05
-0.0002518907
-0.0001177014
-0.0002469536
-0.0001374374
-0.0002413038
-0.0001575992
-0.0002349181
-0.0001782378
-0.0002277547
-0.0001994187
-0.0002198852
-0.0002211047
-0.0002111007
-0.0002434801
-0.0002016167
-0.0002666254
-0.0001914165
-0.0002903667
-0.0001804543
-0.0003147363
-0.0001687359
-0.0003397211
-0.0001562979
-0.0003653165
-0.0001432028
-0.0003915272
-0.0001295322
-0.0004183801
-0.0001153821
-0.0004459347
-0.0001008613
-0.0004742979
-8.608605e-05
-0.0005036496
-7.117868e-05
-0.000534287
-5.627125e-05
-0.0005667065
-4.151802e-05
-0.000601782
-2.713093e-05
-0.0006411808
-1.34505e-05
-0.0006878211
-0.0007291425
-1.349515e-05
0.0006133059
-2.56903e-05
0.0005832675
-3.600553e-05
0.000557585
-4.525173e-05
0.0005365596
-5.390149e-05
0.0005166797
-6.216599e-05
0.0004969214
-7.017955e-05
0.0004770682
-7.80301e-05
0.0004570954
-8.582199e-05
0.0004370844
-9.361694e-05
0.0004170649
-0.0001013943
0.0003970176
-0.0001091089
0.0003769636
-0.0001167062
0.0003569246
-0.0001241302
0.0003369198
-0.0001313279
0.0003169655
-0.0001382556
0.000297073
-0.0001448788
0.0002772504
-0.0001506215
0.0002575273
-0.0001558926
0.0002382802
-0.0001610786
0.0002191389
-0.0001659384
0.0001998403
-0.0001703798
0.0001805812
-0.0001743604
0.0001614254
-0.0001778728
0.0001424113
-0.0001809304
0.0001235501
-0.0001835433
0.0001048236
-0.0001857234
8.621564e-05
-0.0001874816
6.770135e-05
-0.0001888256
4.924981e-05
-0.0001897613
3.082726e-05
-0.0001902919
1.239663e-05
-0.0001901407
-5.435791e-06
-0.0001896366
-2.406552e-05
-0.0001887606
-4.283257e-05
-0.0001874934
-6.178465e-05
-0.0001858157
-8.097195e-05
-0.000183707
-0.0001004467
-0.000181146
-0.0001202623
-0.0001781102
-0.0001404732
-0.0001745758
-0.0001611336
-0.0001705166
-0.0001822969
-0.0001659317
-0.0002040036
-0.0001606898
-0.0002263466
-0.0001547034
-0.0002494664
-0.0001481328
-0.0002731959
-0.0001408707
-0.0002976288
-0.0001329018
-0.0003227052
-0.0001242541
-0.0003483689
-0.0001149881
-0.0003745825
-0.0001051875
-0.0004013278
-9.494581e-05
-0.0004286218
-8.436363e-05
-0.0004565169
-7.354439e-05
-0.0004851171
-6.259122e-05
-0.0005146028
-5.160697e-05
-0.0005452712
-4.069818e-05
-0.0005776151
-2.998216e-05
-0.0006124978
-1.960287e-05
-0.0006515597
-9.758858e-06
-0.0006976646
-0.0007389013
-1.041304e-05
0.000623723
-1.920372e-05
0.0005920616
-2.608531e-05
0.0005644688
-3.192477e-05
0.0005424001
-3.712772e-05
0.0005218829
-4.19694e-05
0.0005017628
-4.667618e-05
0.0004817744
-5.135534e-05
0.0004617739
-5.606111e-05
0.0004417896
-6.081395e-05
0.0004218173
-6.559162e-05
0.000401795
-7.037452e-05
0.0003817463
-7.513589e-05
0.0003616859
-7.98494e-05
0.0003416333
-8.450547e-05
0.0003216216
-8.907713e-05
0.0003016446
-9.350329e-05
0.0002816764
-9.770211e-05
0.0002617258
-0.0001012648
0.0002418424
-0.0001044125
0.000222286
-0.0001074232
0.0002028505
-0.0001102154
0.0001833729
-0.0001127722
0.0001639819
-0.0001150728
0.0001447117
-0.000117115
0.0001255922
-0.0001189016
0.0001066101
-0.0001204457
8.775973e-05
-0.0001217596
6.901525e-05
-0.0001228522
5.034252e-05
-0.000123732
3.170708e-05
-0.000124406
1.307062e-05
-0.0001246308
-5.210969e-06
-0.0001246755
-2.40208e-05
-0.0001245213
-4.298673e-05
-0.0001241476
-6.215832e-05
-0.000123531
-8.158857e-05
-0.0001226462
-0.0001013313
-0.0001214661
-0.0001214424
-0.0001199595
-0.0001419797
-0.0001180903
-0.0001630028
-0.0001158173
-0.0001845698
-0.0001130789
-0.000206742
-0.0001099006
-0.000229525
-0.0001064229
-0.0002529441
-0.0001024445
-0.0002771745
-9.784772e-05
-0.0003022256
-9.262345e-05
-0.0003279296
-8.67442e-05
-0.0003542482
-8.028867e-05
-0.0003810382
-7.338128e-05
-0.0004082353
-6.613829e-05
-0.0004358649
-5.866207e-05
-0.0004639932
-5.104164e-05
-0.0004927376
-4.335483e-05
-0.0005222896
-3.567263e-05
-0.0005529534
-2.806384e-05
-0.0005852238
-2.060161e-05
-0.0006199599
-1.338386e-05
-0.0006587772
-6.584637e-06
-0.0007044634
-0.0007454859
-6.983209e-06
0.0006307104
-1.214382e-05
0.0005972254
-1.533787e-05
0.0005676647
-1.716518e-05
0.0005442281
-1.85719e-05
0.0005232892
-2.015451e-05
0.0005033445
-2.201234e-05
0.0004836312
-2.421791e-05
0.0004639784
-2.658453e-05
0.0004441553
-2.893155e-05
0.0004241635
-3.131873e-05
0.0004041815
-3.377231e-05
0.0003841994
-3.632082e-05
0.0003642339
-3.89669e-05
0.0003442789
-4.168983e-05
0.0003243441
-4.440343e-05
0.0003043579
-4.697078e-05
0.0002842434
-4.931614e-05
0.0002640709
-5.141593e-05
0.0002439419
-5.306486e-05
0.0002239347
-5.449447e-05
0.0002042799
-5.602991e-05
0.0001849081
-5.768978e-05
0.0001656415
-5.937387e-05
0.0001463956
-6.096226e-05
0.0001271804
-6.245187e-05
0.0001080996
-6.387016e-05
8.917792e-05
-6.523243e-05
7.037744e-05
-6.652513e-05
5.163517e-05
-6.773937e-05
3.292128e-05
-6.887814e-05
1.420937e-05
-6.974146e-05
-4.347656e-06
-7.055193e-05
-2.321033e-05
-7.128909e-05
-4.224957e-05
-7.193312e-05
-6.151428e-05
-7.246363e-05
-8.105806e-05
-7.286114e-05
-0.0001009338
-7.310561e-05
-0.000121198
-7.317416e-05
-0.0001419111
-7.303651e-05
-0.0001631404
-7.265095e-05
-0.0001849554
-7.197856e-05
-0.0002074144
-7.092034e-05
-0.0002305833
-6.930766e-05
-0.0002545569
-6.71681e-05
-0.0002793141
-6.456322e-05
-0.0003048306
-6.129069e-05
-0.0003312022
-5.735949e-05
-0.0003581795
-5.29848e-05
-0.000385413
-4.83027e-05
-0.0004129175
-4.340944e-05
-0.0004407583
-3.838681e-05
-0.000469016
-3.3302e-05
-0.0004978225
-2.820801e-05
-0.0005273837
-2.314942e-05
-0.0005580121
-1.816951e-05
-0.0005902037
-1.331611e-05
-0.0006248132
-8.652482e-06
-0.0006634406
-4.28205e-06
-0.0007088335
-0.0007497679
-4.603209e-06
0.0006353198
-6.888555e-06
0.0005995161
-7.102105e-06
0.0005678815
-6.642071e-06
0.000543769
-5.799497e-06
0.0005224463
-4.586457e-06
0.0005021304
-3.218046e-06
0.0004822614
-1.819982e-06
0.000462579
-6.584502e-07
0.0004429924
5.791216e-08
0.000423446
3.461867e-07
0.0004038924
1.894891e-07
0.0003843554
-4.301083e-07
0.000364853
-1.522359e-06
0.0003453708
-2.905463e-06
0.0003257268
-4.410519e-06
0.0003058625
-5.979269e-06
0.0002858116
-7.528998e-06
0.00026562
-8.990694e-06
0.0002454031
-1.0332e-05
0.0002252756
-1.142638e-05
0.000205374
-1.230784e-05
0.0001857893
-1.310579e-05
0.0001664394
-1.395748e-05
0.0001472472
-1.494695e-05
0.0001281698
-1.605114e-05
0.0001092037
-1.724827e-05
9.0375e-05
-1.851693e-05
7.164605e-05
-1.984054e-05
5.295872e-05
-2.121676e-05
3.429746e-05
-2.266234e-05
1.565492e-05
-2.404525e-05
-2.964785e-06
-2.552179e-05
-2.173382e-05
-2.703255e-05
-4.073885e-05
-2.853801e-05
-6.000884e-05
-3.001516e-05
-7.958093e-05
-3.144795e-05
-9.950107e-05
-3.282748e-05
-0.0001198185
-3.415232e-05
-0.0001405863
-3.541106e-05
-0.0001618817
-3.656642e-05
-0.0001838001
-3.755154e-05
-0.0002064294
-3.826909e-05
-0.0002298658
-3.863833e-05
-0.0002541877
-3.848315e-05
-0.0002794694
-3.755076e-05
-0.0003057631
-3.590103e-05
-0.0003328521
-3.372132e-05
-0.0003603594
-3.103592e-05
-0.0003880986
-2.808652e-05
-0.0004158671
-2.510207e-05
-0.0004437429
-2.21248e-05
-0.0004719934
-1.916038e-05
-0.0005007871
-1.621049e-05
-0.0005303337
-1.328389e-05
-0.0005609387
-1.039864e-05
-0.000593089
-7.58338e-06
-0.0006276284
-4.882117e-06
-0.0006661417
-2.377256e-06
-0.0007113381
-0.0007521451
-3.199037e-06
0.0006385266
-3.905806e-06
0.0006002287
-2.919992e-06
0.0005668984
-1.023436e-06
0.0005418732
1.502471e-06
0.0005199198
4.288994e-06
0.0004993426
7.136261e-06
0.0004794125
9.930955e-06
0.0004597827
1.263233e-05
0.0004402896
1.521319e-05
0.0004208639
1.762861e-05
0.0004014759
1.9834e-05
0.0003821491
2.175914e-05
0.0003629271
2.332518e-05
0.0003438042
2.436968e-05
0.0003246818
2.483898e-05
0.0003053927
2.48039e-05
0.0002858464
2.432682e-05
0.0002660968
2.357809e-05
0.0002461516
2.267837e-05
0.0002261751
2.173544e-05
0.0002063167
2.089663e-05
0.000186628
2.017246e-05
0.0001671634
1.949617e-05
0.0001479234
1.878763e-05
0.0001288782
1.799977e-05
0.0001099915
1.71377e-05
9.123697e-05
1.620246e-05
7.258122e-05
1.517229e-05
5.398882e-05
1.402482e-05
3.544488e-05
1.272634e-05
1.695336e-05
1.126919e-05
-1.507676e-06
9.510092e-06
-1.997476e-05
7.570537e-06
-3.879933e-05
5.510954e-06
-5.794929e-05
3.367987e-06
-7.743799e-05
1.164309e-06
-9.729742e-05
-1.082291e-06
-0.0001175719
-3.354539e-06
-0.0001383141
-5.632069e-06
-0.0001596043
-7.88563e-06
-0.0001815466
-1.00708e-05
-0.0002042443
-1.212909e-05
-0.0002278076
-1.395565e-05
-0.0002523613
-1.540075e-05
-0.0002780244
-1.636381e-05
-0.0003048001
-1.670359e-05
-0.0003325124
-1.621677e-05
-0.0003608463
-1.502444e-05
-0.000389291
-1.352443e-05
-0.0004173672
-1.200391e-05
-0.0004452636
-1.053172e-05
-0.0004734657
-9.072313e-06
-0.0005022466
-7.618872e-06
-0.0005317872
-6.18144e-06
-0.0005623761
-4.77782e-06
-0.0005944925
-3.435032e-06
-0.000628971
-2.190984e-06
-0.0006673854
-1.092922e-06
-0.0007124357
-0.000753238
-2.030247e-06
0.0006405668
-1.389645e-06
0.0005995952
9.265021e-07
0.0005645849
4.544197e-06
0.000538256
8.700765e-06
0.0005157623
1.306496e-05
0.0004949766
1.746157e-05
0.0004750139
2.178736e-05
0.0004554549
2.596558e-05
0.0004361096
2.992509e-05
0.0004169028
3.358662e-05
0.000397813
3.687326e-05
0.0003788614
3.970232e-05
0.0003600972
4.201311e-05
0.0003414927
4.388893e-05
0.0003228054
4.550698e-05
0.0003037742
4.693239e-05
0.0002844206
4.818056e-05
0.0002648483
4.90784e-05
0.0002452535
4.95159e-05
0.0002257375
4.960908e-05
0.0002062234
4.94524e-05
0.0001867846
4.911313e-05
0.0001675025
4.862312e-05
0.0001484132
4.798221e-05
0.000129519
4.717451e-05
0.000110799
4.618882e-05
9.222254e-05
4.502125e-05
7.374869e-05
4.367261e-05
5.533738e-05
4.215128e-05
3.696613e-05
4.046602e-05
1.863855e-05
3.856549e-05
3.928112e-07
3.62807e-05
-1.769002e-05
3.371542e-05
-3.623408e-05
3.094146e-05
-5.517537e-05
2.800708e-05
-7.450366e-05
2.494703e-05
-9.423741e-05
2.179332e-05
-0.0001144183
1.858722e-05
-0.0001351081
1.537289e-05
-0.00015639
1.219241e-05
-0.0001783662
9.098899e-06
-0.0002011509
6.156659e-06
-0.0002248655
3.427104e-06
-0.0002496318
9.535573e-07
-0.000275551
-1.191504e-06
-0.0003026552
-2.867978e-06
-0.0003308361
-3.973028e-06
-0.0003597414
-4.459238e-06
-0.000388805
-4.338842e-06
-0.0004174878
-3.884625e-06
-0.0004457179
-3.35164e-06
-0.0004739988
-2.804016e-06
-0.0005027943
-2.265534e-06
-0.0005323257
-1.752235e-06
-0.0005628894
-1.274793e-06
-0.0005949699
-8.441478e-07
-0.0006294015
-4.763977e-07
-0.0006677529
-1.969655e-07
-0.0007127148
-0.0007534349
-1.198967e-06
0.0006417745
3.105392e-07
0.0005980916
4.090362e-06
0.0005608085
8.970873e-06
0.0005333763
1.442245e-05
0.0005103098
2.01239e-05
0.0004892734
2.586741e-05
0.0004692683
3.149767e-05
0.0004498225
3.689331e-05
0.000430712
4.19572e-05
0.0004118373
4.660486e-05
0.000393164
5.076987e-05
0.0003746953
5.441378e-05
0.0003564524
5.757685e-05
0.0003383289
6.035673e-05
0.000320025
6.27858e-05
0.0003013447
6.487102e-05
0.0002823351
6.658243e-05
0.0002631367
6.794717e-05
0.0002438886
6.906038e-05
0.0002246241
6.983521e-05
0.0002054484
7.022094e-05
0.0001863987
7.024784e-05
0.0001674755
6.99289e-05
0.000148732
6.927895e-05
0.0001301688
6.831309e-05
0.0001117648
6.705015e-05
9.348538e-05
6.55097e-05
7.528905e-05
6.371114e-05
5.713587e-05
6.167658e-05
3.900062e-05
5.942363e-05
2.089145e-05
5.693437e-05
2.882028e-06
5.409864e-05
-1.485433e-05
5.094673e-05
-3.308221e-05
4.75503e-05
-5.177897e-05
4.397803e-05
-7.093141e-05
4.028356e-05
-9.054298e-05
3.651192e-05
-0.0001106467
3.270722e-05
-0.0001313034
2.891611e-05
-0.0001525989
2.518862e-05
-0.0001746388
2.158045e-05
-0.0001975428
1.815416e-05
-0.0002214393
1.497658e-05
-0.0002464544
1.210958e-05
-0.0002726841
9.597465e-06
-0.0003001432
7.461737e-06
-0.0003287005
5.743115e-06
-0.000358023
4.511114e-06
-0.0003875731
3.757709e-06
-0.0004167345
3.242819e-06
-0.0004452031
2.767911e-06
-0.000473524
2.332335e-06
-0.0005023588
1.931825e-06
-0.0005319252
1.563398e-06
-0.000562521
1.218928e-06
-0.0005946254
8.881851e-07
-0.0006290706
5.606388e-07
-0.0006674249
2.377679e-07
-0.0007123912
-0.000753197
-6.938048e-07
0.0006424773
1.704093e-06
0.0005957002
6.248341e-06
0.0005562676
1.196359e-05
0.0005276617
1.829051e-05
0.0005039819
2.488716e-05
0.0004826748
3.15277e-05
0.0004626255
3.804665e-05
0.0004433013
4.431898e-05
0.0004244376
5.02498e-05
0.0004059047
5.576856e-05
0.0003876438
6.082888e-05
0.0003696339
6.540991e-05
0.0003518705
6.951732e-05
0.0003342208
7.314041e-05
0.0003164013
7.624643e-05
0.0002982383
7.882419e-05
0.0002797569
8.09044e-05
0.0002610562
8.255663e-05
0.0002422362
8.378451e-05
0.000223396
8.460642e-05
0.0002046263
8.503558e-05
0.0001859693
8.502821e-05
0.0001674826
8.45932e-05
0.0001491669
8.374899e-05
0.0001310128
8.251851e-05
0.0001129951
8.092666e-05
9.507712e-05
7.899992e-05
7.721569e-05
7.67657e-05
5.937001e-05
7.425155e-05
4.15147e-05
7.148472e-05
2.365823e-05
6.849961e-05
5.867094e-06
6.536733e-05
-1.172209e-05
6.179459e-05
-2.95095e-05
5.796665e-05
-4.795108e-05
5.398427e-05
-6.694907e-05
4.990883e-05
-8.646758e-05
4.579013e-05
-0.000106528
4.167666e-05
-0.00012719
3.761733e-05
-0.0001485397
3.366108e-05
-0.0001706826
2.985722e-05
-0.000193739
2.625479e-05
-0.0002178369
2.290047e-05
-0.0002431002
1.983824e-05
-0.000269622
1.7113e-05
-0.0002974181
1.477123e-05
-0.0003263589
1.284788e-05
-0.0003560998
1.134155e-05
-0.0003860669
1.020309e-05
-0.0004155962
9.303109e-06
-0.0004443033
8.452618e-06
-0.0004726736
7.558801e-06
-0.000501465
6.631355e-06
-0.0005309978
5.669273e-06
-0.0005615589
4.664898e-06
-0.0005936209
3.604861e-06
-0.0006280103
2.469113e-06
-0.0006662887
1.23978e-06
-0.0007111612
-0.0007519572
-3.732371e-07
0.0006428605
2.50941e-06
0.0005928247
7.57253e-06
0.0005512081
1.384882e-05
0.0005213862
2.076779e-05
0.0004970619
2.797044e-05
0.0004754702
3.521559e-05
0.000455378
4.232996e-05
0.0004361846