/*--------------------------------*- C++ -*----------------------------------*\
| =========                 |                                                 |
| \\      /  F ield         | OpenFOAM: The Open Source CFD Toolbox           |
|  \\    /   O peration     | Version:  2312                                  |
|   \\  /    A nd           | Website:  www.openfoam.com                      |
|    \\/     M anipulation  |                                                 |
\*---------------------------------------------------------------------------*/
FoamFile
{
    version     2.0;
    format      ascii;
    arch        "LSB;label=32;scalar=64";
    class       volScalarField;
    location    "5550";
    object      qin;
}
// * * * * * * * * * * * * * * * * * * * * * * * * * * * * * * * * * * * * * //

dimensions      [1 0 -3 0 0 0 0];

internalField   uniform 0;

boundaryField
{
    plate
    {
        type            calculated;
        value           nonuniform List<scalar> 
200
(
2399.893
2342.536
2310.372
2286.72
2263.202
2244.429
2238.93
2247.291
2261.735
2275.385
2284.664
2285.941
2277.319
2262.936
2250.304
2244.164
2245.961
2256.953
2277.501
2303.666
2327.422
2341.283
2343.179
2338.321
2336.278
2343.784
2359.426
2376.745
2391.833
2404.866
2415.097
2419.476
2417.913
2415.474
2416.291
2418.716
2420.295
2424.245
2435.446
2451.713
2464.781
2469.368
2466.748
2460.656
2454.2
2450.164
2450.552
2455.247
2462.167
2468.491
2472.278
2474.636
2479.653
2489.571
2500.454
2505.525
2502.441
2494.413
2485.382
2477.969
2475.163
2479.264
2488.656
2498.686
2505.418
2506.807
2502.59
2495.521
2490.145
2488.209
2487.901
2488.503
2491.756
2497.283
2500.839
2499.339
2494.58
2489.883
2485.684
2480.952
2476.838
2475.606
2476.612
2476.305
2472.67
2467.661
2464.525
2464.183
2465.077
2465.506
2464.962
2463.724
2462.376
2461.909
2463.463
2467.464
2473.099
2478.812
2483.309
2486.188
2487.897
2489.229
2490.691
2492.074
2492.486
2490.904
2486.948
2481.352
2475.785
2472.087
2471.347
2473.349
2476.723
2479.698
2481.02
2480.501
2478.937
2477.542
2477.28
2478.453
2480.726
2483.474
2486.202
2488.787
2491.419
2494.331
2497.512
2500.59
2502.945
2503.983
2503.413
2501.375
2498.37
2495.065
2492.079
2489.86
2488.686
2488.709
2489.991
2492.46
2495.837
2499.594
2503.038
2505.526
2506.711
2506.685
2505.905
2504.898
2503.904
2502.648
2500.433
2496.53
2490.709
2483.601
2476.639
2471.533
2469.438
2470.233
2472.289
2472.973
2469.79
2461.74
2450.228
2438.946
2432.553
2434.603
2445.736
2463.13
2481.64
2496.095
2503.537
2504.219
2500.946
2497.295
2495.733
2496.494
2497.542
2495.56
2487.573
2472.598
2452.697
2433.074
2421.13
2424.151
2445.575
2481.419
2520.261
2548.889
2560.403
2557.404
2547.018
2534.408
2524.311
2528.361
2562.584
2628.545
2701.392
2751.308
2782.21
2829.598
)
;
    }
    riser
    {
        type            calculated;
        value           nonuniform List<scalar> 
200
(
5361.326
5187.575
5149.694
5183.59
5279.939
5393.051
5514.68
5527.043
5306.345
5115.004
5292.606
5581.255
5559.349
5417.557
5537.715
5816.777
5934.183
5825.863
5659.672
5606.11
5743.862
6057.241
6406.297
6607.689
6659.973
6705.933
6708.284
6526.301
6322.864
6423.73
6777.867
6973.872
6814.449
6615.512
6819.451
7378.338
7816.229
7931.394
7899.583
7693.608
7177.438
6682.034
6660.353
7010.272
7328.731
7424.727
7287.286
6982.187
6711.658
6656.362
6737.306
6735.484
6631.452
6579.454
6539.871
6357.726
6208.743
6466.38
7075.37
7546.173
7627.734
7478.58
7207.609
6844.447
6646.229
6798.579
7072.898
7257.486
7452.545
7631.82
7552.862
7291.073
7212.037
7355.376
7386.1
7124.329
6773.761
6598.091
6573.294
6513.516
6415.883
6440.279
6623.381
6822.139
6904.216
6872.818
6814.157
6784.838
6788.5
6820.095
6871.509
6911.931
6914.923
6893.809
6884.132
6904.999
6946.732
6983.724
6990.93
6951.879
6863.47
6738.872
6604.469
6491.807
6427.969
6426.93
6484.757
6581.535
6690.52
6790.09
6870.638
6932.038
6975.736
6999.458
6998.179
6968.926
6915.059
6847.232
6780.448
6728.634
6699.458
6692.094
6698.864
6709.575
6716.205
6715.844
6710.847
6706.587
6708.348
6719.108
6739.048
6766.393
6798.556
6832.885
6866.884
6898.114
6924.09
6942.434
6951.416
6950.623
6941.35
6926.409
6909.349
6893.361
6880.353
6870.593
6862.954
6855.554
6846.653
6835.605
6823.475
6812.907
6807.215
6809.056
6819.179
6835.686
6854.277
6869.792
6878.639
6880.683
6878.957
6876.775
6873.751
6863.408
6834.651
6777.545
6691.039
6587.83
6491.976
6429.178
6414.972
6447.686
6509.431
6573.49
6614.657
6619.458
6592.242
6551.897
6517.648
6491.926
6455.176
6380.846
6261.305
6123.858
6017.536
5970.52
5957.755
5929.96
5886.177
5886.256
5953.77
5965.834
5774.524
5420.77
5139.376
5082.283
5118.936
5076.556
5087.69
4961.643
)
;
    }
    topAndBottom
    {
        type            calculated;
        value           nonuniform List<scalar> 
120
(
2051.423
2567.714
3086.905
3444.186
3710.827
3926.595
4080.683
4176.616
4243.742
4309.367
4380.77
4450.473
4510.383
4559.621
4602.65
4643.232
4680.574
4709.989
4726.422
4727.901
4716.843
4698.839
4679.927
4664.017
4651.794
4641.503
4630.937
4619.379
4608.395
4601.125
4600.611
4608.145
4622.562
4640.74
4658.892
4673.846
4683.688
4687.653
4685.689
4678.221
4666.288
4651.745
4637.024
4624.298
4614.462
4606.681
4598.88
4588.792
4574.746
4555.735
4531.092
4500.38
4463.58
4421.273
4375.008
4328.341
4289.371
4269.341
4272.329
4350.316
7387.469
7411.074
7405.812
7243.805
6875.045
6397.297
5959.815
5649.533
5468.356
5370.397
5313.041
5296.534
5363.285
5552.929
5850.111
6169.53
6395.858
6451.666
6338.905
6122.974
5878.779
5643.69
5408.465
5144.57
4841.125
4523.307
4242.975
4052.956
3983.583
4033.036
4171.437
4351.897
4522.186
4634.812
4655.962
4573.138
4399.111
4169.243
3931.578
3732.888
3606.198
3564.498
3602.018
3700.931
3839.527
3998.436
4163.298
4324.217
4473.591
4604.319
4710.006
4787.291
4838.343
4870.554
4892.322
4907.458
4914.612
4907.006
4899.032
4845.894
)
;
    }
    frontAndBack
    {
        type            empty;
    }
}


// ************************************************************************* //
