/*--------------------------------*- C++ -*----------------------------------*\
| =========                 |                                                 |
| \\      /  F ield         | OpenFOAM: The Open Source CFD Toolbox           |
|  \\    /   O peration     | Version:  2312                                  |
|   \\  /    A nd           | Website:  www.openfoam.com                      |
|    \\/     M anipulation  |                                                 |
\*---------------------------------------------------------------------------*/
FoamFile
{
    version     2.0;
    format      ascii;
    arch        "LSB;label=32;scalar=64";
    class       volScalarField;
    location    "5550";
    object      T;
}
// * * * * * * * * * * * * * * * * * * * * * * * * * * * * * * * * * * * * * //

dimensions      [0 0 0 1 0 0 0];

internalField   nonuniform List<scalar> 
12000
(
449.8874
436.5178
434.847
434.5954
434.556
434.5458
434.5408
434.5369
434.5323
434.5267
434.5199
434.5119
434.5012
434.4879
434.4726
434.4552
434.4348
434.4113
434.3853
434.3568
434.3252
434.2904
434.253
434.2128
434.1695
434.1232
434.0744
434.0228
433.9684
433.9116
433.8526
433.7917
433.729
433.6557
433.572
433.4799
433.3832
433.2802
433.1629
433.0238
432.8735
432.7225
432.5713
432.3973
432.1774
431.9442
431.7356
431.5179
431.2362
430.8876
430.5404
430.1858
429.7347
429.1723
428.5362
427.7848
426.7699
425.396
423.2054
419.245
449.9754
437.0032
435.5045
435.4248
435.5879
435.7981
436.0212
436.2407
436.4522
436.6612
436.8672
437.0617
437.2323
437.3927
437.5558
437.7096
437.8387
437.9513
438.063
438.1696
438.2571
438.329
438.3978
438.461
438.5091
438.5455
438.5779
438.6032
438.6161
438.6204
438.6198
438.612
438.5961
438.5704
438.5348
438.4895
438.4349
438.3706
438.296
438.2105
438.114
438.0051
437.881
437.7402
437.5825
437.4034
437.199
436.968
436.7062
436.4118
436.0715
435.6762
435.2197
434.6749
434.0197
433.1572
431.946
430.2015
427.3581
421.9627
450.4889
437.7221
436.1516
436.138
436.4378
436.7979
437.1675
437.5305
437.8805
438.2158
438.5323
438.828
439.1013
439.3554
439.5919
439.8108
440.0113
440.194
440.3606
440.512
440.6483
440.7697
440.8777
440.9729
441.0555
441.1259
441.1848
441.2327
441.2696
441.2956
441.3116
441.3179
441.3151
441.3001
441.2733
441.2351
441.1854
441.1242
441.0512
440.9659
440.8679
440.7567
440.6306
440.4887
440.3304
440.1535
439.9546
439.7311
439.4783
439.1917
438.8696
438.5094
438.0884
437.5805
436.9442
436.1196
434.9952
433.2368
430.1329
423.4174
451.2655
438.4166
436.746
436.7492
437.1304
437.5896
438.055
438.506
438.9359
439.3446
439.7328
440.0981
440.4394
440.7552
441.047
441.3173
441.5669
441.7966
442.0074
442.2001
442.3756
442.5345
442.6775
442.8052
442.9179
443.0161
443.1
443.1698
443.2258
443.2679
443.2964
443.312
443.3145
443.302
443.2749
443.2336
443.178
443.1079
443.0231
442.9232
442.8078
442.6764
442.5285
442.3632
442.1795
441.9775
441.7551
441.5091
441.2369
440.9339
440.5929
440.1989
439.7409
439.2053
438.5593
437.7451
436.6229
434.9066
431.7827
424.3816
452.1418
439.1152
437.3222
437.303
437.722
438.2415
438.7705
439.2822
439.7687
440.229
440.6631
441.0728
441.4584
441.8191
442.1546
442.4663
442.7557
443.0237
443.271
443.4982
443.706
443.8952
444.0662
444.2196
444.3557
444.4748
444.5772
444.6628
444.7319
444.7843
444.8208
444.8415
444.8449
444.8311
444.8003
444.7533
444.6896
444.6089
444.5109
444.3952
444.2614
444.1091
443.9377
443.7465
443.5348
443.3024
443.0476
442.7695
442.4669
442.1256
441.7324
441.2955
440.809
440.2487
439.5809
438.7511
437.6384
435.9614
432.8788
425.1245
453.0887
439.8119
437.8812
437.8076
438.2281
438.7767
439.3443
439.8972
440.425
440.9251
441.3971
441.8415
442.2596
442.6529
443.0219
443.3661
443.6866
443.9844
444.2599
444.5135
444.746
444.9577
445.1493
445.3212
445.4737
445.6072
445.7218
445.8177
445.895
445.9536
445.9941
446.0161
446.0189
446.003
445.9684
445.9157
445.8444
445.7541
445.6445
445.5151
445.3654
445.1948
445.0027
444.7884
444.551
444.2896
444.0032
443.6904
443.3487
442.9737
442.5573
442.0934
441.5743
440.9834
440.2911
439.4427
438.3258
436.67
433.638
425.6972
454.061
440.5006
438.4269
438.2793
438.6747
439.2284
439.8155
440.3939
440.9496
441.4781
441.9783
442.4505
442.8954
443.3135
443.7064
444.0747
444.4184
444.738
445.0339
445.3066
445.5565
445.7842
445.99
446.1745
446.338
446.4809
446.6034
446.7056
446.7879
446.8502
446.8925
446.9147
446.9168
446.8991
446.8618
446.8048
446.7278
446.6306
446.5126
446.3732
446.2117
446.0274
445.8196
445.5873
445.3297
445.0458
444.7345
444.3939
444.0216
443.6143
443.1679
442.6763
442.1302
441.5137
440.7991
439.935
438.8147
437.1764
434.1885
426.1203
455.0486
441.182
438.9604
438.7259
439.0769
439.6174
440.209
440.801
441.3744
441.9222
442.4422
442.9342
443.3984
443.8353
444.2457
444.6304
444.99
445.3247
445.6346
445.9203
446.182
446.4202
446.6355
446.8282
446.9987
447.1475
447.2749
447.381
447.4662
447.5305
447.5739
447.5964
447.5981
447.5794
447.5403
447.4807
447.4003
447.2986
447.175
447.0288
446.8591
446.665
446.4456
446.1999
445.9268
445.6254
445.2941
444.9315
444.5356
444.1038
443.6327
443.1166
442.5468
441.9082
441.1747
440.2971
439.1726
437.5472
434.6016
426.4522
456.046
441.8592
439.4833
439.1538
439.4479
439.9615
440.5447
441.1388
441.7202
442.2794
442.8123
443.3178
443.7955
444.2457
444.6685
445.0644
445.4342
445.7782
446.0969
446.3905
446.6594
446.904
447.1249
447.3224
447.4971
447.6493
447.7794
447.8878
447.9747
448.0404
448.0848
448.1079
448.1099
448.0912
448.0516
447.991
447.9091
447.8052
447.6785
447.5283
447.3534
447.1529
446.9254
446.67
446.3854
446.0702
445.7233
445.3433
444.9286
444.4772
443.9858
443.4497
442.8605
442.2043
441.4561
440.5685
439.4421
437.8296
434.9233
426.735
456.9208
442.5252
439.9948
439.5675
439.7962
440.2716
440.8358
441.423
442.0046
442.568
443.1075
443.6208
444.1067
444.565
444.9958
445.399
445.7752
446.125
446.4487
446.7468
447.0196
447.2677
447.4914
447.6914
447.8681
448.022
448.1536
448.2632
448.3513
448.4179
448.4633
448.4874
448.4904
448.4725
448.4336
448.3734
448.2916
448.1873
448.0597
447.9077
447.7302
447.5257
447.293
447.0306
446.7372
446.4115
446.0523
445.6584
445.2286
444.7613
444.2538
443.7017
443.0973
442.4273
441.6676
440.7725
439.6452
438.0445
435.1774
426.9927
457.9524
443.1819
440.4933
439.9679
440.1268
440.5566
441.0936
441.6658
442.2402
442.8015
443.3419
443.8578
444.3473
444.8097
445.2447
445.6522
446.0325
446.3857
446.7124
447.013
447.2879
447.5377
447.7628
447.964
448.1416
448.2963
448.4286
448.539
448.6277
448.6951
448.7415
448.7667
448.771
448.7544
448.7168
448.6579
448.577
448.4735
448.3462
448.1939
448.0152
447.8087
447.5726
447.3053
447.0054
446.6714
446.3023
445.8971
445.4549
444.9746
444.4539
443.889
443.2729
442.5926
441.825
440.9253
439.799
438.2102
435.3801
427.2349
459.11
443.83
440.9796
440.3573
440.445
440.8241
441.3274
441.878
442.4392
442.9925
443.5285
444.0423
444.5312
444.994
445.43
445.8391
446.2212
446.5766
446.9054
447.2078
447.4844
447.7356
447.9619
448.1639
448.3423
448.4975
448.6303
448.741
448.8302
448.8983
448.9454
448.9716
448.9772
448.962
448.926
448.8686
448.7893
448.6872
448.5611
448.4095
448.231
448.0237
447.7856
447.5149
447.2097
446.8685
446.4904
446.075
445.6219
445.1308
444.5998
444.0254
443.4008
442.7136
441.9408
441.0385
439.9143
438.3369
435.5423
427.4649
460.0653
444.4829
441.4609
440.7379
440.7513
441.0753
441.5393
442.0628
442.6052
443.1455
443.6724
444.1797
444.6641
445.1237
445.5578
445.9663
446.3494
446.7071
447.0389
447.3447
447.6242
447.8779
448.1062
448.3099
448.4896
448.6459
448.7793
448.8904
448.9799
449.0482
449.0958
449.1228
449.1294
449.1154
449.0808
449.025
448.9473
448.8468
448.7221
448.5718
448.3941
448.1867
447.9476
447.6742
447.3643
447.0158
446.6283
446.2023
445.7392
445.2391
444.7004
444.1195
443.4897
442.7984
442.0231
441.1205
439.9996
438.433
435.6702
427.6828
461.15
445.1331
441.9346
441.111
441.0501
441.3168
441.7373
442.2283
442.7464
443.2684
443.7811
444.277
444.7517
445.2028
445.6287
446.0331
446.4193
446.7846
447.1257
447.4396
447.7252
447.9829
448.2143
448.4209
448.6032
448.7608
448.894
449.0043
449.0932
449.1614
449.209
449.2362
449.2432
449.23
449.1963
449.1417
449.0654
448.9664
448.8433
448.6944
448.5178
448.3111
448.0718
447.7971
447.4831
447.1259
446.7253
446.2858
445.813
445.307
444.764
444.1801
443.5481
442.8556
442.08
441.1787
440.0615
438.5046
435.77
427.8817
462.222
445.7771
442.4006
441.4784
441.3461
441.5567
441.9327
442.3884
442.8785
443.3777
443.8713
444.3507
444.8104
445.2491
445.67
446.075
446.4626
446.8305
447.1764
447.4974
447.791
448.056
448.293
448.503
448.6871
448.8461
448.9808
449.0924
449.1817
449.2495
449.2964
449.3231
449.3299
449.3169
449.2836
449.2297
449.1543
449.0564
448.9347
448.7876
448.6124
448.4063
448.1662
447.8879
447.5674
447.2021
446.7924
446.3414
445.8555
445.3424
444.7991
444.2151
443.5835
442.8918
442.1176
441.2185
440.1055
438.5571
435.8448
428.0501
463.2803
446.4165
442.8604
441.8424
441.6416
441.7959
442.1257
442.5436
443.0028
443.4765
443.9491
444.4112
444.8569
445.2848
445.6986
446.1008
446.4893
446.8607
447.2106
447.5352
447.8328
448.1031
448.3455
448.5601
448.7477
448.9093
449.0459
449.1588
449.249
449.3174
449.3646
449.3912
449.398
449.3849
449.3516
449.2976
449.2222
449.1243
449.0024
448.8546
448.6786
448.4713
448.2294
447.9489
447.6257
447.2562
446.8393
446.3787
445.8829
445.3617
444.8156
444.2335
443.6036
442.9137
442.1416
441.2454
440.1364
438.5951
435.9001
428.1799
464.3221
447.0494
443.3158
442.2061
441.9374
442.0359
442.3187
442.6975
443.1243
443.5713
444.0219
444.4661
444.8974
445.3148
445.7226
446.1228
446.5119
446.8841
447.2348
447.5617
447.8631
448.1373
448.3835
448.6019
448.7928
448.9571
449.0961
449.2109
449.3024
449.3717
449.4193
449.446
449.4524
449.4389
449.405
449.3502
449.2738
449.1747
449.0516
448.9025
448.725
448.5161
448.2721
447.9891
447.663
447.2904
446.8702
446.405
445.9021
445.3727
444.8231
444.2427
443.6147
442.927
442.1575
441.2642
440.1592
438.6239
435.9411
428.2713
465.3419
447.6742
443.7735
442.5707
442.2348
442.2782
442.5146
442.8543
443.2485
443.6687
444.0976
444.5245
444.9426
445.3508
445.7527
446.1486
446.5347
446.9061
447.2584
447.5877
447.8913
448.1679
448.4168
448.6377
448.831
448.9975
449.1382
449.2542
449.3467
449.4165
449.4643
449.4907
449.4965
449.4822
449.4472
449.3912
449.3133
449.2127
449.0879
448.9371
448.7577
448.5469
448.3009
448.0159
447.6875
447.3123
446.8888
446.4193
445.9116
445.3773
444.8248
444.2448
443.6193
442.9344
442.1679
441.2781
440.1771
438.6474
435.9744
428.3329
466.3375
448.2948
444.2319
442.9364
442.5346
442.5244
442.7155
443.0171
443.3797
443.774
444.1823
444.593
444.9991
445.3986
445.7942
446.1856
446.5688
446.9386
447.2901
447.6196
447.9244
448.2024
448.4525
448.6744
448.8686
449.0359
449.1771
449.2934
449.3859
449.4553
449.5025
449.5281
449.5328
449.5174
449.4813
449.4237
449.3441
449.2417
449.1151
448.9623
448.7809
448.568
448.3199
448.0327
447.7021
447.3247
446.8988
446.4265
445.9152
445.3767
444.8208
444.241
443.6186
442.9367
442.1733
441.2868
440.1898
438.6654
436.0001
428.3713
467.3056
448.9141
444.6909
443.3037
442.8374
442.7757
442.9236
443.189
443.5217
443.892
444.2813
444.6779
445.0738
445.4656
445.8545
446.2406
446.6196
446.9865
447.3361
447.6644
447.9683
448.2456
448.495
448.7164
448.9099
449.0764
449.2166
449.3318
449.4229
449.4909
449.5366
449.5607
449.5638
449.5467
449.509
449.4498
449.3685
449.2642
449.1355
448.9807
448.7971
448.582
448.3317
448.0422
447.7094
447.3298
446.9017
446.4271
445.9134
445.3726
444.8151
444.2359
443.6161
442.937
442.1767
441.2937
440.2011
438.6822
436.0254
428.4088
468.2467
449.5323
445.1503
443.6729
443.1442
443.0334
443.1407
443.3724
443.6776
444.0261
444.3988
444.7832
445.1709
445.5562
445.9386
446.3187
446.6925
447.0549
447.4008
447.7258
448.0267
448.3011
448.548
448.7667
448.9577
449.1215
449.259
449.3715
449.46
449.5254
449.5685
449.5902
449.591
449.5718
449.5322
449.4711
449.3878
449.2815
449.1508
448.9938
448.8081
448.5907
448.3381
448.0463
447.7113
447.3297
446.8997
446.4235
445.9081
445.3657
444.8073
444.2292
443.6121
442.936
442.1789
441.2997
440.2115
438.6985
436.0509
428.449
469.1563
450.15
445.6112
444.0449
443.4558
443.2986
443.3683
443.5692
443.8496
444.1788
444.5369
444.911
445.2918
445.6728
446.0502
446.4233
446.7904
447.1465
447.4864
447.8058
448.1014
448.3708
448.6127
448.8268
449.0131
449.1724
449.3056
449.4139
449.4983
449.5598
449.5994
449.6178
449.6156
449.5937
449.5516
449.4883
449.403
449.2946
449.1618
449.0027
448.8148
448.5952
448.3403
448.0463
447.7092
447.3256
446.894
446.4165
445.9001
445.3569
444.7984
444.2217
443.6074
442.9343
442.1806
441.3052
440.2215
438.7145
436.0765
428.4949
470.0389
450.7662
446.073
444.4201
443.773
443.5723
443.6074
443.7806
444.039
444.3513
444.6969
445.062
445.4368
445.8141
446.1882
446.5554
446.9141
447.2618
447.5935
447.9049
448.1928
448.4547
448.6894
448.8966
449.0763
449.2293
449.3566
449.4592
449.5382
449.5949
449.6299
449.6441
449.6382
449.6129
449.568
449.5023
449.4146
449.304
449.1691
449.0079
448.8179
448.5961
448.3391
448.0429
447.7038
447.3186
446.8856
446.4071
445.8902
445.3471
444.7891
444.2141
443.6026
442.9325
442.1821
441.3106
440.2316
438.7309
436.1031
428.5459
470.8925
451.3816
446.5375
444.7996
444.0968
443.8553
443.8589
444.0072
444.2463
444.5437
444.8783
445.2354
445.6045
445.9774
446.348
446.7112
447.0626
447.3998
447.7208
448.0218
448.2995
448.5516
448.777
448.9752
449.1465
449.2915
449.4114
449.5071
449.5798
449.6305
449.6601
449.6694
449.6592
449.6301
449.582
449.5135
449.4233
449.3104
449.1732
449.0099
448.8178
448.594
448.3349
448.0369
447.696
447.3092
446.8752
446.3962
445.8793
445.3367
444.7798
444.2069
443.5981
442.931
442.184
441.3163
440.2419
438.7475
436.1301
428.5996
471.718
451.9941
447.0035
445.1835
444.4276
444.1482
444.1231
444.2493
444.4711
444.7553
445.0798
445.4293
445.7922
446.1599
446.5253
446.883
447.2282
447.5572
447.8664
448.1541
448.4193
448.6595
448.8735
449.0609
449.2221
449.3578
449.469
449.5568
449.6222
449.6663
449.69
449.6941
449.6791
449.6458
449.5941
449.5225
449.4296
449.3142
449.1747
449.0092
448.8151
448.5892
448.3283
448.0285
447.6861
447.2981
446.8633
446.3841
445.8677
445.3262
444.7711
444.2004
443.5943
442.9301
442.1865
441.3226
440.2529
438.7648
436.1583
428.6559
472.5034
452.6045
447.4734
445.5731
444.7663
444.4514
444.4002
444.5063
444.7127
444.9848
445.2997
445.6413
445.9973
446.3583
446.7169
447.067
447.4038
447.7234
448.0224
448.2986
448.5499
448.7758
448.9764
449.1516
449.3014
449.4266
449.5282
449.6073
449.6649
449.7019
449.7194
449.7178
449.698
449.6603
449.6047
449.5299
449.434
449.316
449.1742
449.0064
448.8102
448.5824
448.3196
448.0181
447.6744
447.2854
446.8503
446.3713
445.8559
445.316
444.763
444.1948
443.5914
442.9302
442.1899
441.3296
440.2645
438.7828
436.1875
428.7149
473.3804
453.2046
447.9458
445.9677
445.1126
444.7648
444.6895
444.7774
444.9696
445.2302
445.5356
445.8687
446.2168
446.5697
446.9197
447.2604
447.5869
447.8951
448.1821
448.4457
448.6843
448.8971
449.0838
449.2453
449.3825
449.4964
449.5878
449.6577
449.7071
449.7369
449.7479
449.7407
449.7158
449.6737
449.6142
449.5359
449.4371
449.3165
449.1722
449.0021
448.8037
448.5739
448.3094
448.0064
447.6615
447.2718
446.8364
446.358
445.844
445.3062
444.7558
444.1903
443.5896
442.9314
442.1942
441.3376
440.2769
438.8016
436.2183
428.7799
474.1201
453.8107
448.4191
446.3647
445.4662
445.0879
444.9905
445.0616
445.2403
445.4897
445.7852
446.1091
446.4479
446.7913
447.131
447.4605
447.7748
448.0702
448.3437
448.5934
448.8182
449.0173
449.1909
449.3395
449.464
449.566
449.6467
449.7071
449.7482
449.7706
449.7751
449.7623
449.7325
449.686
449.6226
449.5409
449.4392
449.3158
449.1691
448.9967
448.7962
448.5645
448.2982
447.9938
447.6478
447.2576
446.8223
446.3447
445.8324
445.2971
444.7495
444.1869
443.589
442.9336
442.1995
441.3464
440.29
438.8211
436.2503
428.8527
474.8393
454.4173
448.8946
446.7657
445.8266
445.42
445.302
445.3572
445.523
445.7612
446.0463
446.3599
446.6882
447.0205
447.3482
447.6649
447.9656
448.2466
448.5053
448.7402
448.9502
449.135
449.295
449.4308
449.5433
449.6338
449.7038
449.7548
449.7875
449.8026
449.8009
449.7826
449.748
449.6971
449.6298
449.545
449.4405
449.3145
449.1654
448.9908
448.7882
448.5547
448.2868
447.9811
447.6341
447.2434
446.8083
446.3317
445.8213
445.2887
444.7443
444.1846
443.5894
442.9368
442.2057
441.3559
440.3037
438.8409
436.2829
428.9343
475.5388
455.022
449.372
447.1711
446.1925
445.76
445.6227
445.6628
445.8158
446.0425
446.3164
446.6187
446.9351
447.2547
447.569
447.8714
448.157
448.4224
448.6653
448.8844
449.079
449.2491
449.3951
449.518
449.6186
449.6982
449.7581
449.7999
449.8245
449.8326
449.8248
449.8013
449.7621
449.7073
449.6364
449.5484
449.4412
449.3128
449.1614
448.9848
448.7803
448.5451
448.2757
447.9688
447.621
447.2299
446.7952
446.3197
445.8113
445.2815
444.7404
444.1836
443.5909
442.9409
442.2126
441.366
440.3177
438.8606
436.3151
429.0215
476.2213
455.6232
449.8524
447.5801
446.563
446.1066
445.9511
445.9765
446.1168
446.3314
446.5932
446.8829
447.1861
447.4916
447.7909
448.0776
448.347
448.5958
448.8221
449.0248
449.2036
449.3587
449.4907
449.6005
449.6893
449.7583
449.8087
449.8418
449.8588
449.8603
449.8468
449.8183
449.775
449.7165
449.6423
449.5513
449.4415
449.3108
449.1574
448.9789
448.7728
448.536
448.2654
447.9575
447.6091
447.2179
446.7834
446.3091
445.8027
445.2759
444.738
444.184
443.5935
442.9461
442.2204
441.3766
440.3318
438.8798
436.3458
429.1094
476.8862
456.2206
450.3351
447.9907
446.9388
446.4591
446.2859
446.2966
446.4237
446.6254
446.8741
447.15
447.4385
447.7285
448.0115
448.2814
448.5336
448.7651
448.9743
449.1603
449.3231
449.4631
449.5811
449.6781
449.7554
449.814
449.8553
449.8803
449.8901
449.8855
449.8667
449.8338
449.7866
449.7247
449.6475
449.5538
449.4416
449.3088
449.1536
448.9735
448.7659
448.528
448.2564
447.9476
447.5987
447.2074
446.7736
446.3006
445.7963
445.2721
444.7372
444.1858
443.5974
442.9522
442.2288
441.3877
440.3459
438.8983
436.3741
429.1917
477.5347
456.8126
450.8186
448.4032
447.3181
446.8166
446.6256
446.6213
446.7345
446.9224
447.1568
447.4176
447.69
447.9632
448.2288
448.4808
448.715
448.9288
449.1205
449.2897
449.4366
449.5617
449.666
449.7507
449.8167
449.8655
449.898
449.9153
449.9185
449.9082
449.8846
449.8476
449.797
449.7322
449.6523
449.5561
449.4417
449.3072
449.1503
448.9689
448.7601
448.521
448.2484
447.9392
447.5901
447.199
446.766
446.2942
445.7918
445.2701
444.738
444.1889
443.6025
442.9593
442.2381
441.3993
440.3601
438.9161
436.3996
429.263
478.1684
457.4005
451.3027
448.8175
447.6999
447.1777
446.9689
446.9488
447.047
447.22
447.4388
447.6831
447.9382
448.1934
448.4406
448.674
448.8898
449.0854
449.2597
449.4123
449.5435
449.6542
449.7453
449.8179
449.8734
449.9127
449.937
449.9472
449.9442
449.9285
449.9006
449.86
449.8064
449.7389
449.6567
449.5583
449.442
449.3058
449.1475
448.9647
448.7549
448.515
448.242
447.9324
447.5832
447.1923
446.7598
446.2893
445.789
445.2699
444.7404
444.1935
443.6089
442.9675
442.2483
441.4116
440.3746
438.9334
436.4224
429.3196
478.7912
457.9805
451.7859
449.2322
448.0828
447.5403
447.3139
447.2774
447.3595
447.5161
447.7179
447.9445
448.1812
448.4173
448.6452
448.8595
449.0565
449.2341
449.3911
449.5274
449.6435
449.7403
449.8187
449.8801
449.9255
449.956
449.9726
449.9762
449.9674
449.9468
449.9148
449.871
449.8147
449.745
449.6607
449.5604
449.4424
449.3047
449.1451
448.9613
448.7507
448.5103
448.2369
447.9271
447.578
447.1875
446.7558
446.2866
445.7881
445.2715
444.7448
444.2001
443.6169
442.9771
442.2596
441.4246
440.3897
438.9508
436.4434
429.3615
479.3971
458.5534
452.2662
449.6464
448.4658
447.9031
447.6587
447.6052
447.6702
447.8091
447.9924
448.1999
448.4169
448.6332
448.8412
449.036
449.2143
449.3739
449.5141
449.6347
449.7364
449.8199
449.8865
449.9372
449.9732
449.9955
450.005
450.0025
449.9885
449.9634
449.9277
449.8809
449.8222
449.7505
449.6646
449.5627
449.4431
449.3041
449.1434
448.9588
448.7476
448.5068
448.2331
447.9233
447.5744
447.1844
446.7536
446.2858
445.7893
445.2753
444.7511
444.2083
443.6265
442.9881
442.2721
441.4387
440.4055
438.9684
436.4631
429.3905
479.9881
459.1174
452.7447
450.0605
448.8475
448.2642
448.0014
447.93
447.9767
448.0968
448.2606
448.4478
448.6443
448.84
449.0279
449.2031
449.3626
449.5047
449.6286
449.7342
449.8221
449.8932
449.9487
449.9895
450.0169
450.0316
450.0346
450.0265
450.0077
449.9786
449.9395
449.89
449.8292
449.7558
449.6683
449.5651
449.4443
449.3042
449.1426
448.9573
448.7457
448.5046
448.2309
447.9212
447.5727
447.1833
446.7534
446.2869
445.7923
445.2807
444.7592
444.2183
443.6377
443.0006
442.286
441.4541
440.4224
438.9868
436.4831
429.4131
480.4487
459.6738
453.2216
450.4747
449.2268
448.6217
448.34
448.2495
448.2769
448.3768
448.5199
448.6862
448.8616
449.0364
449.2041
449.3599
449.5012
449.6263
449.7345
449.8259
449.901
449.9606
450.0057
450.0374
450.0568
450.0646
450.0616
450.0484
450.0253
449.9926
449.9503
449.8984
449.8357
449.7608
449.6722
449.5678
449.446
449.3049
449.1427
448.9569
448.745
448.5038
448.2302
447.9208
447.5726
447.1839
446.755
446.2899
445.7972
445.2878
444.7687
444.2295
443.6502
443.0144
442.3011
441.4707
440.4406
439.0066
436.5044
429.4338
481.0021
460.216
453.692
450.8857
449.6013
448.9737
448.6725
448.5621
448.569
448.6479
448.7696
448.9142
449.0682
449.2222
449.3698
449.5067
449.6303
449.7391
449.8325
449.9104
449.9735
450.0224
450.058
450.0814
450.0935
450.0949
450.0865
450.0687
450.0416
450.0056
449.9606
449.9064
449.8421
449.7659
449.6762
449.5709
449.4482
449.3064
449.1436
448.9575
448.7454
448.5043
448.2309
447.9219
447.5742
447.1862
446.7583
446.2945
445.8036
445.2964
444.7796
444.2421
443.6638
443.0293
442.3174
441.4884
440.4597
439.0274
436.5269
429.4562
481.6785
460.7483
454.1569
451.2922
449.9702
449.319
448.9975
448.8663
448.8518
448.9089
449.0086
449.1313
449.2638
449.3971
449.525
449.6435
449.7501
449.8434
449.9228
449.9882
450.0401
450.0791
450.1061
450.1218
450.1272
450.1229
450.1096
450.0875
450.0569
450.0179
449.9705
449.9143
449.8484
449.771
449.6803
449.5742
449.4508
449.3084
449.1453
448.959
448.747
448.5061
448.233
447.9244
447.5774
447.1901
446.7631
446.3007
445.8114
445.3063
444.7916
444.2557
443.6786
443.0452
442.3346
441.507
440.4798
439.0492
436.5505
429.4816
482.2509
461.2739
454.6166
451.6939
450.3327
449.6568
449.3139
449.1609
449.1243
449.1589
449.2362
449.3369
449.4482
449.5612
449.67
449.7708
449.8612
449.9398
450.006
450.0598
450.1013
450.1313
450.1503
450.1591
450.1584
450.1489
450.131
450.1051
450.0713
450.0296
449.9799
449.922
449.8546
449.7761
449.6846
449.5778
449.4538
449.311
449.1477
448.9614
448.7495
448.5089
448.2363
447.9283
447.5819
447.1954
446.7694
446.3082
445.8206
445.3174
444.8047
444.2704
443.6942
443.062
442.3526
441.5263
440.5006
439.0717
436.5752
429.5099
482.8191
461.7908
455.07
452.0894
450.6877
449.9859
449.6207
449.4452
449.3856
449.3975
449.4522
449.5311
449.6214
449.7147
449.8052
449.8891
449.9642
450.0289
450.0828
450.1257
450.1577
450.1794
450.1911
450.1936
450.1874
450.1731
450.1511
450.1216
450.0849
450.0408
449.9891
449.9295
449.8609
449.7813
449.689
449.5816
449.4571
449.3141
449.1507
448.9646
448.753
448.5128
448.2407
447.9333
447.5876
447.2019
446.7769
446.3169
445.8308
445.3295
444.8187
444.2858
443.7107
443.0796
442.3713
441.5463
440.5221
439.0947
436.6004
429.5396
483.3756
462.2993
455.5172
452.4783
451.0344
450.3056
449.9173
449.7184
449.6356
449.6244
449.6567
449.7141
449.784
449.8583
449.9312
449.9991
450.0596
450.1115
450.1539
450.1866
450.2098
450.2238
450.2289
450.2256
450.2144
450.1957
450.17
450.1374
450.0979
450.0516
449.9981
449.937
449.8671
449.7866
449.6936
449.5856
449.4608
449.3177
449.1543
448.9684
448.7572
448.5176
448.2461
447.9394
447.5944
447.2096
446.7855
446.3267
445.8421
445.3425
444.8336
444.302
443.7278
443.0977
442.3906
441.5668
440.5439
439.1182
436.626
429.5697
483.9185
462.7978
455.9565
452.8596
451.3722
450.6153
450.2031
449.9804
449.874
449.8398
449.85
449.8863
449.9365
449.9925
450.0487
450.1014
450.1483
450.188
450.2197
450.243
450.2581
450.265
450.264
450.2554
450.2396
450.2171
450.1879
450.1523
450.1104
450.062
450.0069
449.9445
449.8734
449.792
449.6983
449.5898
449.4648
449.3216
449.1584
448.9729
448.7622
448.5232
448.2524
447.9464
447.6022
447.2182
446.795
446.3374
445.8541
445.3562
444.8491
444.3188
443.7455
443.1164
442.4103
441.5877
440.5661
439.142
436.6517
429.599
484.3352
463.287
456.3894
453.2335
451.7007
450.9145
450.4779
450.231
450.1009
450.0439
450.0323
450.0482
450.0795
450.118
450.1583
450.1967
450.2308
450.2591
450.2808
450.2955
450.3029
450.3033
450.2966
450.2832
450.2633
450.2371
450.2049
450.1667
450.1225
450.0722
450.0156
449.9519
449.8798
449.7975
449.7031
449.5943
449.4691
449.326
449.1631
448.978
448.7679
448.5296
448.2595
447.9542
447.6108
447.2276
446.8054
446.3489
445.867
445.3707
444.8652
444.3362
443.7637
443.1355
442.4305
441.609
440.5887
439.1661
436.6777
429.6276
484.8501
463.761
456.8103
453.5985
452.0198
451.2025
450.7409
450.4699
450.3164
450.237
450.2043
450.2005
450.2136
450.2355
450.2608
450.2857
450.3078
450.3255
450.3378
450.3443
450.3448
450.339
450.3272
450.3093
450.2856
450.2561
450.221
450.1804
450.1341
450.0821
450.0241
449.9593
449.8861
449.8031
449.7082
449.599
449.4737
449.3308
449.1683
448.9837
448.7743
448.5366
448.2673
447.9628
447.6203
447.2379
446.8166
446.3611
445.8806
445.3858
444.8818
444.354
443.7824
443.1551
442.451
441.6307
440.6116
439.1904
436.7039
429.6556
485.3656
464.2248
457.2223
453.9554
452.3304
451.4789
450.9916
450.6971
450.5208
450.4196
450.3664
450.3437
450.3395
450.3457
450.3568
450.369
450.3798
450.3876
450.3912
450.3901
450.3839
450.3725
450.3558
450.3338
450.3065
450.274
450.2364
450.1935
450.1454
450.0919
450.0326
449.9666
449.8926
449.8089
449.7133
449.6037
449.4785
449.3359
449.1739
448.9899
448.7811
448.5442
448.2757
447.9721
447.6303
447.2488
446.8284
446.374
445.8947
445.4014
444.8989
444.3721
443.8013
443.1749
442.4718
441.6526
440.6348
439.215
436.7303
429.684
485.879
464.6799
457.626
454.3042
452.6319
451.7443
451.2306
450.9132
450.7145
450.5922
450.5194
450.4786
450.4578
450.4491
450.4468
450.4471
450.4474
450.4458
450.4412
450.433
450.4207
450.4039
450.3827
450.3568
450.3263
450.291
450.251
450.2061
450.1563
450.1014
450.0409
449.9739
449.8989
449.8145
449.7185
449.6087
449.4836
449.3413
449.1798
448.9965
448.7885
448.5524
448.2847
447.9818
447.6409
447.2602
446.8407
446.3873
445.9093
445.4175
444.9162
444.3904
443.8205
443.195
442.4928
441.6746
440.6581
439.2397
436.7568
429.7128
486.386
465.1279
458.0225
454.6452
452.924
451.9988
451.4586
451.1185
450.8982
450.7555
450.6638
450.6057
450.5694
450.5465
450.5316
450.5206
450.5109
450.5006
450.4883
450.4734
450.4553
450.4335
450.408
450.3785
450.3449
450.3071
450.2649
450.2182
450.1669
450.1107
450.0491
449.981
449.9052
449.8202
449.7237
449.6138
449.4889
449.347
449.1861
449.0035
448.7962
448.5609
448.294
447.992
447.6519
447.2721
446.8535
446.401
445.9242
445.4339
444.9338
444.4089
443.8398
443.2152
442.514
441.6968
440.6814
439.2645
436.7835
429.7418
486.8861
465.5675
458.4109
454.9783
453.2071
452.2431
451.6761
451.3138
451.0724
450.9101
450.8004
450.7259
450.6746
450.6384
450.6116
450.59
450.5708
450.5522
450.5328
450.5115
450.4879
450.4615
450.4319
450.399
450.3625
450.3223
450.2781
450.2298
450.1772
450.1199
450.0572
449.988
449.9114
449.8258
449.729
449.6191
449.4944
449.353
449.1926
449.0107
448.8042
448.5697
448.3036
448.0025
447.6633
447.2842
446.8665
446.415
445.9394
445.4504
444.9514
444.4274
443.8592
443.2354
442.5351
441.719
440.7048
439.2893
436.81
429.7703
487.3782
465.999
458.7918
455.304
453.4819
452.4779
451.8833
451.4992
451.2376
451.0566
450.9297
450.8395
450.7742
450.7253
450.6871
450.6555
450.6275
450.6011
450.5747
450.5475
450.5187
450.4878
450.4545
450.4184
450.3792
450.3368
450.2908
450.241
450.1872
450.1288
450.065
449.9949
449.9176
449.8315
449.7344
449.6245
449.5001
449.3591
449.1994
449.0182
448.8124
448.5788
448.3136
448.0133
447.6748
447.2966
446.8797
446.4292
445.9547
445.467
444.9691
444.4459
443.8786
443.2556
442.5563
441.7413
440.7282
439.314
436.8365
429.7988
487.8625
466.4216
459.1647
455.6223
453.7495
452.7053
452.0809
451.6747
451.3941
451.1953
451.0522
450.9472
450.8685
450.8077
450.7588
450.7176
450.6812
450.6474
450.6145
450.5816
450.5479
450.5128
450.4758
450.4367
450.395
450.3505
450.3028
450.2517
450.1968
450.1373
450.0726
450.0017
449.9237
449.8372
449.74
449.6301
449.5059
449.3654
449.2063
449.0259
448.8209
448.588
448.3237
448.0242
447.6866
447.3092
446.893
446.4435
445.9701
445.4837
444.9869
444.4644
443.8979
443.2759
442.5775
441.7635
440.7516
439.3387
436.8629
429.8272
488.334
466.8359
459.5302
455.9339
454.0103
452.9252
452.2698
451.8415
451.5428
451.3271
451.1684
451.0494
450.958
450.8858
450.8268
450.7766
450.7322
450.6913
450.6523
450.614
450.5756
450.5364
450.496
450.454
450.4099
450.3634
450.3142
450.2619
450.2059
450.1454
450.0798
450.0082
449.9297
449.8429
449.7455
449.6358
449.5119
449.3719
449.2135
449.0337
448.8295
448.5975
448.334
448.0353
447.6985
447.3219
446.9066
446.4579
445.9856
445.5004
445.0046
444.4829
443.9173
443.2961
442.5986
441.7856
440.7749
439.3634
436.8892
429.8551
488.7899
467.2402
459.8875
456.239
454.2648
453.1381
452.4509
452.0004
451.6841
451.4522
451.2789
451.1465
451.0431
450.9601
450.8915
450.8327
450.7807
450.7331
450.6881
450.6447
450.6018
450.5588
450.5151
450.4703
450.424
450.3757
450.325
450.2715
450.2144
450.1531
450.0867
450.0146
449.9357
449.8486
449.7512
449.6416
449.5181
449.3786
449.2207
449.0417
448.8383
448.6071
448.3444
448.0466
447.7106
447.3348
446.9202
446.4724
446.0012
445.5171
445.0223
444.5014
443.9365
443.3162
442.6197
441.8078
440.7982
439.388
436.9152
429.8819
489.3502
467.6394
460.2387
456.5379
454.5135
453.3453
452.6264
452.152
451.8179
451.5711
451.3839
451.2389
451.1241
451.0309
450.9531
450.8861
450.8269
450.7728
450.7223
450.6739
450.6267
450.5801
450.5333
450.4858
450.4373
450.3873
450.3352
450.2804
450.2223
450.1602
450.0933
450.0208
449.9416