/*--------------------------------*- C++ -*----------------------------------*\
| =========                 |                                                 |
| \\      /  F ield         | OpenFOAM: The Open Source CFD Toolbox           |
|  \\    /   O peration     | Version:  2312                                  |
|   \\  /    A nd           | Website:  www.openfoam.com                      |
|    \\/     M anipulation  |                                                 |
\*---------------------------------------------------------------------------*/
FoamFile
{
    version     2.0;
    format      ascii;
    arch        "LSB;label=32;scalar=64";
    class       volScalarField;
    location    "2500";
    object      ILambda_12_0;
}
// * * * * * * * * * * * * * * * * * * * * * * * * * * * * * * * * * * * * * //

dimensions      [1 0 -3 0 0 0 0];

internalField   nonuniform List<scalar> 
12000
(
663.9057
657.81
658.1388
657.4613
657.0709
656.6285
656.1996
655.7717
655.3525
654.9404
654.5292
654.1111
653.6795
653.2307
652.762
652.2714
651.7575
651.2188
650.652
650.0517
649.4116
648.7246
647.983
647.1777
646.2996
645.3391
644.2861
643.1287
641.8538
640.4468
638.8917
637.1702
635.2615
633.142
630.7881
628.1783
625.2936
622.109
618.5801
614.6553
610.3116
605.5637
600.4052
594.7552
588.5195
581.7046
574.3535
566.4089
557.7531
548.3753
538.3285
527.5902
516.0984
503.8622
490.9373
477.3575
463.1976
448.6159
434.0005
419.822
652.4904
652.6785
651.9948
651.2349
650.4137
649.5106
648.5285
647.4544
646.2782
644.9895
643.5792
642.0393
640.3613
638.5354
636.5511
634.3975
632.0628
629.5353
626.8026
623.8532
620.6761
617.2604
613.5957
609.6721
605.4804
601.0122
596.2599
591.2173
585.8795
580.2437
574.3091
568.0775
561.5536
554.7462
547.6673
540.3314
532.7543
524.9565
516.9693
508.8353
500.5964
492.2834
483.9291
475.596
467.3725
459.3274
451.5079
443.9902
436.8925
430.3192
424.3475
419.0741
414.6247
411.1163
408.6475
407.3209
407.2289
408.4295
410.8761
414.4137
633.2935
629.6731
627.3196
624.484
621.5255
618.3607
615.0005
611.4361
607.6644
603.682
599.4871
595.0784
590.4555
585.6191
580.5709
575.3143
569.8541
564.1968
558.3505
552.3255
546.1338
539.7891
533.3076
526.7069
520.0073
513.2306
506.4012
499.5452
492.691
485.8686
479.1101
472.4489
465.9199
459.559
453.4024
447.487
441.8496
436.5272
431.5557
426.9686
422.7958
419.0646
415.801
413.028
410.761
409.0059
407.7629
407.0283
406.788
407.0129
407.6637
408.6923
410.0378
411.623
413.3569
415.1373
416.8498
418.3719
419.5853
420.4076
579.8588
571.9729
567.5619
562.175
556.8372
551.3252
545.7025
539.9695
534.1422
528.2346
522.2626
516.2431
510.1942
504.1349
498.0852
492.0661
486.0992
480.2069
474.4119
468.7371
463.2058
457.841
452.6655
447.7017
442.971
438.494
434.2902
430.3771
426.7709
423.4854
420.5323
417.9204
415.6559
413.7417
412.1776
410.9599
410.0813
409.5309
409.2935
409.3507
409.6803
410.257
411.0521
412.0334
413.1664
414.4151
415.7424
417.1105
418.4817
419.8203
421.0941
422.2745
423.3384
424.2703
425.0642
425.7245
426.2681
426.7263
427.1447
427.5809
504.645
495.7142
491.0992
485.541
480.2987
475.0951
470.0166
465.0638
460.2574
455.613
451.1467
446.8738
442.8086
438.9647
435.3545
431.9889
428.8778
426.0292
423.4495
421.1434
419.1138
417.3614
415.8851
414.6816
413.7456
413.0696
412.6441
412.4577
412.4969
412.7464
413.1894
413.8074
414.5808
415.489
416.5105
417.6235
418.8059
420.0359
421.2923
422.5548
423.8045
425.0242
426.1986
427.3148
428.3628
429.3355
430.229
431.0423
431.7782
432.4424
433.0435
433.5929
434.1039
434.5913
435.0704
435.556
436.0614
436.5979
437.1746
437.8005
443.904
438.3173
435.7688
432.7491
430.1194
427.6742
425.4681
423.491
421.7469
420.2347
418.9529
417.8984
417.0665
416.4515
416.0458
415.841
415.8272
415.9933
416.3273
416.8161
417.4458
418.202
419.0695
420.033
421.0767
422.1852
423.3429
424.5349
425.7466
426.9643
428.1751
429.3672
430.5301
431.6547
432.7331
433.7593
434.7285
435.638
436.4862
437.2735
438.0015
438.6734
439.2933
439.8665
440.3993
440.898
441.3696
441.8208
442.258
442.6871
443.113
443.5393
443.9686
444.4021
444.8395
445.2797
445.721
446.1624
446.6057
447.06
420.3147
419.3251
419.1726
419.0181
419.076
419.2754
419.6226
420.1029
420.7066
421.4221
422.2378
423.1418
424.122
425.1665
426.2632
427.4001
428.5659
429.7494
430.9399
432.1276
433.3031
434.4579
435.5844
436.6759
437.7267
438.7321
439.6882
440.5926
441.4433
442.2398
442.9823
443.6717
444.3099
444.8993
445.443
445.9445
446.4074
446.8359
447.2337
447.605
447.9533
448.282
448.5941
448.892
449.1775
449.452
449.7159
449.9695
450.2121
450.4428
450.6603
450.8632
451.05
451.2193
451.3702
451.5023
451.6165
451.7152
451.8046
451.898
426.8337
428.3929
429.3587
430.5116
431.6623
432.8385
434.0227
435.2079
436.3858
437.5489
438.6905
439.8043
440.885
441.9276
442.9282
443.8834
444.7905
445.6477
446.4537
447.2079
447.9104
448.5618
449.1632
449.7162
450.2228
450.6852
451.1062
451.4883
451.8343
452.1472
452.4297
452.6845
452.9142
453.1209
453.3067
453.4734
453.6223
453.7545
453.8706
453.9711
454.0562
454.1256
454.179
454.2159
454.2356
454.2377
454.2215
454.1866
454.1327
454.0597
453.968
453.8581
453.7309
453.5879
453.4308
453.2619
453.084
452.9015
452.7219
452.5589
443.4118
445.1082
445.9862
447.0175
447.9589
448.8635
449.7153
450.5162
451.2649
451.9611
452.6053
453.1982
453.7409
454.235
454.6821
455.0844
455.4439
455.763
456.0441
456.2896
456.502
456.6835
456.8365
456.9631
457.0653
457.1449
457.2035
457.2424
457.2629
457.2659
457.2523
457.2225
457.1771
457.1162
457.04
456.9487
456.842
456.7201
456.5829
456.4304
456.2628
456.0801
455.8827
455.6711
455.4457
455.2075
454.9573
454.6962
454.4254
454.1462
453.8603
453.5692
453.2747
452.9789
452.6838
452.3917
452.1052
451.8283
451.5681
451.3373
456.5651
457.402
457.8026
458.2617
458.6499
458.9994
459.3037
459.5666
459.7899
459.9757
460.1265
460.2444
460.3318
460.3907
460.4234
460.4316
460.4173
460.3821
460.3274
460.2546
460.165
460.0594
459.9388
459.8039
459.6553
459.4935
459.319
459.1321
458.9332
458.7225
458.5004
458.2671
458.023
457.7685
457.504
457.23
456.9471
456.6559
456.3572
456.0516
455.7402
455.4237
455.1032
454.7796
454.4539
454.1272
453.8006
453.4751
453.1517
452.8317
452.5159
452.2057
451.9023
451.607
451.3211
451.0461
450.784
450.5381
450.3146
450.1255
463.1544
463.2241
463.2553
463.274
463.2641
463.2305
463.1729
463.0931
462.9925
462.8726
462.7348
462.5803
462.4105
462.2264
462.029
461.8193
461.598
461.3661
461.124
460.8725
460.6121
460.3433
460.0667
459.7827
459.4918
459.1945
458.8913
458.5828
458.2695
457.952
457.6308
457.3066
456.9801
456.6519
456.3226
455.993
455.6638
455.3356
455.0091
454.6848
454.3636
454.0459
453.7323
453.4233
453.1195
452.8214
452.5295
452.2442
451.966
451.6954
451.433
451.1795
450.9357
450.7025
450.4807
450.2715
450.0766
449.899
449.7446
449.6254
464.9539
464.6049
464.4468
464.2391
464.0299
463.8071
463.5733
463.3286
463.0737
462.8093
462.5362
462.2552
461.9669
461.6721
461.3716
461.066
460.756
460.4423
460.1253
459.8059
459.4844
459.1617
458.8382
458.5145
458.1912
457.8688
457.5478
457.2288
456.9123
456.5987
456.2884
455.9821
455.68
455.3825
455.09
454.8028
454.5213
454.2457
453.9763
453.7133
453.457
453.2076
452.9652
452.7301
452.5026
452.2828
452.071
451.8676
451.6729
451.4872
451.3113
451.1458
450.9915
450.8492
450.72
450.6052
450.5066
450.4272
450.3731
450.3564
464.3111
463.7998
463.5742
463.2858
463.0092
462.7249
462.437
462.1447
461.8488
461.5497
461.2481
460.9446
460.64
460.335
460.0302
459.7264
459.4241
459.1238
458.8263
458.5319
458.2411
457.9546
457.6726
457.3956
457.1239
456.858
456.5979
456.3441
456.0967
455.856
455.6221
455.3952
455.1756
454.9632
454.7583
454.561
454.3714
454.1897
454.016
453.8504
453.6931
453.5442
453.404
453.2726
453.1503
453.0374
452.9342
452.8411
452.7584
452.6867
452.6267
452.5791
452.5446
452.5242
452.519
452.5301
452.5594
452.6098
452.6874
452.8039
462.9695
462.4571
462.2424
461.9685
461.7123
461.4533
461.1956
460.9385
460.6824
460.4278
460.1752
459.9253
459.6786
459.4358
459.1974
458.9639
458.7358
458.5134
458.2972
458.0874
457.8845
457.6887
457.5003
457.3195
457.1464
456.9814
456.8244
456.6757
456.5353
456.4034
456.2801
456.1655
456.0596
455.9626
455.8746
455.7957
455.726
455.6656
455.6146
455.5733
455.5416
455.5198
455.5081
455.5065
455.5153
455.5347
455.565
455.6063
455.659
455.7236
455.8004
455.89
455.9931
456.1101
456.2421
456.39
456.5552
456.7406
456.9517
457.2002
462.115
461.7077
461.557
461.3613
461.1845
461.0089
460.8379
460.6705
460.5071
460.3482
460.194
460.0451
459.902
459.7652
459.6351
459.512
459.3962
459.2881
459.188
459.096
459.0123
458.9373
458.871
458.8136
458.7652
458.7259
458.6957
458.6747
458.6629
458.6604
458.6671
458.6832
458.7085
458.743
458.7868
458.8398
458.9019
458.9732
459.0535
459.1427
459.2409
459.3479
459.4635
459.5879
459.7207
459.862
460.0116
460.1695
460.3357
460.5103
460.6933
460.885
461.0856
461.2953
461.5146
461.7443
461.9854
462.2402
462.5142
462.819
462.5201
462.2847
462.2303
462.1514
462.0893
462.0311
461.979
461.9321
461.8907
461.8549
461.8251
461.8016
461.7848
461.7751
461.7728
461.778
461.7911
461.812
461.8411
461.8783
461.9237
461.9774
462.0394
462.1096
462.188
462.2744
462.3688
462.4709
462.5806
462.6977
462.8219
462.953
463.0908
463.2349
463.385
463.5409
463.7022
463.8685
464.0395
464.2149
464.3942
464.577
464.763
464.9518
465.143
465.3362
465.5311
465.7275
465.9251
466.1238
466.3234
466.524
466.7256
466.9284
467.1329
467.3395
467.5494
467.7649
467.9915
468.2411
464.6145
464.579
464.6323
464.6835
464.7464
464.8143
464.8877
464.9658
465.0486
465.1362
465.2287
465.3263
465.4291
465.5373
465.6511
465.7704
465.8952
466.0254
466.1609
466.3015
466.4471
466.5975
466.7524
466.9115
467.0745
467.241
467.4106
467.583
467.7576
467.934
468.1118
468.2904
468.4695
468.6484
468.8267
469.0039
469.1794
469.3528
469.5235
469.6912
469.8552
470.0152
470.1707
470.3212
470.4665
470.6061
470.7397
470.8673
470.9886
471.1035
471.2123
471.3149
471.4117
471.5031
471.5897
471.6723
471.7524
471.8325
471.9186
472.023
468.4128
468.5515
468.6942
468.8523
469.0145
469.1799
469.3471
469.5157
469.6852
469.8555
470.0265
470.1983
470.3706
470.5436
470.717
470.8907
471.0644
471.2378
471.4106
471.5824
471.753
471.9219
472.0888
472.2531
472.4145
472.5725
472.7265
472.8762
473.021
473.1604
473.2939
473.4212
473.5417
473.655
473.7607
473.8583
473.9476
474.0281
474.0996
474.1617
474.2142
474.2568
474.2894
474.3119
474.3242
474.3262
474.318
474.2997
474.2717
474.2342
474.1876
474.1326
474.0699
474.0001
473.9245
473.8442
473.7611
473.6783
473.602
473.5449
473.3662
473.586
473.7636
473.9619
474.1562
474.3486
474.5367
474.7202
474.8985
475.0713
475.2384
475.3998
475.5554
475.7049
475.8483
475.9854
476.1157
476.2391
476.3553
476.464
476.5649
476.6578
476.7422
476.818
476.8848
476.9422
476.9902
477.0282
477.0562
477.0739
477.081
477.0774
477.063
477.0376
477.0011
476.9536
476.8948
476.825
476.7441
476.6523
476.5496
476.4362
476.3124
476.1784
476.0345
475.8812
475.7188
475.5479
475.3691
475.1832
474.9909
474.7931
474.5909
474.3854
474.1779
473.97
473.7639
473.5628
473.3732
473.2077
478.4093
478.5711
478.7084
478.8557
478.9938
479.1237
479.2433
479.3523
479.4503
479.5371
479.6127
479.6772
479.7305
479.7729
479.8043
479.8247
479.8341
479.8324
479.8196
479.7958
479.761
479.7151
479.6581
479.5902
479.5113
479.4215
479.3209
479.2095
479.0875
478.9549
478.8121
478.659
478.4961
478.3235
478.1414
477.9502
477.7503
477.5418
477.3253
477.1011
476.8697
476.6315
476.387
476.1367
475.8812
475.621
475.3569
475.0895
474.8196
474.548
474.2758
474.0038
473.7332
473.4652
473.2011
472.9426
472.6917
472.4518
472.2291
472.0361
482.3624
482.3423
482.3773
482.3997
482.4136
482.4149
482.4033
482.3781
482.3395
482.2875
482.2225
482.1449
482.0551
481.9533
481.8401
481.7158
481.5805
481.4346
481.2785
481.1124
480.9368
480.7519
480.558
480.3556
480.1449
479.9262
479.7
479.4666
479.2263
478.9796
478.7268
478.4683
478.2046
477.936
477.6631
477.3862
477.1057
476.8222
476.5362
476.2479
475.9581
475.667
475.3753
475.0835
474.792
474.5014
474.2123
473.9253
473.6411
473.3604
473.0841
472.8129
472.5479
472.2899
472.0403
471.8005
471.5721
471.3585
471.1655
471.0054
484.4888
484.2385
484.153
484.0298
483.9048
483.7669
483.6177
483.4565
483.2839
483.1002
482.9061
482.7022
482.4892
482.2677
482.0382
481.8014
481.5578
481.3077
481.0518
480.7906
480.5244
480.2539
479.9794
479.7014
479.4203
479.1365
478.8504
478.5625
478.2731
477.9825
477.6913
477.3997
477.108
476.8168
476.5263
476.2368
475.9487
475.6623
475.3779
475.0959
474.8165
474.5402
474.2671
473.9976
473.732
473.4706
473.2138
472.9621
472.7158
472.4754
472.2416
472.0149
471.796
471.5858
471.3851
471.1951
471.0175
470.8551
470.7138
470.6054
484.8182
484.3817
484.2054
483.9736
483.7496
483.5157
483.2753
483.0275
482.7731
482.5126
482.2466
481.976
481.7013
481.4234
481.1427
480.8599
480.5754
480.2896
480.0031
479.7164
479.4297
479.1435
478.8581
478.5739
478.2911
478.01
477.7309
477.454
477.1795
476.9077
476.6387
476.3727
476.1098
475.8503
475.5942
475.3417
475.0928
474.8478
474.6066
474.3694
474.1363
473.9073
473.6826
473.4622
473.2462
473.0348
472.8281
472.6264
472.4298
472.2388
472.0536
471.8748
471.7028
471.5384
471.3822
471.2354
471.0995
470.9772
470.8743
470.8026
484.0255
483.5029
483.291
483.0176
482.7597
482.4962
482.2312
481.9636
481.6942
481.4234
481.1517
480.8798
480.6082
480.3374
480.0679
479.8
479.5341
479.2703
479.0091
478.7506
478.495
478.2425
477.9932
477.7472
477.5047
477.2656
477.03
476.798
476.5695
476.3446
476.1231
475.9052
475.6907
475.4796
475.2719
475.0675
474.8663
474.6683
474.4734
474.2815
474.0927
473.9067
473.7237
473.5436
473.3663
473.192
473.0206
472.8524
472.6874
472.526
472.3684
472.2152
472.0667
471.9236
471.7867
471.657
471.5361
471.4266
471.3345
471.2717
482.9882
482.4767
482.2781
482.0216
481.7841
481.544
481.3054
481.0671
480.8295
480.5929
480.3577
480.1242
479.8929
479.6639
479.4375
479.2139
478.9931
478.7753
478.5604
478.3486
478.1398
477.934
477.7311
477.5312
477.334
477.1396
476.9478
476.7585
476.5715
476.3868
476.2042
476.0236
475.8448
475.6677
475.4922
475.3182
475.1455
474.974
474.8036
474.6342
474.4658
474.2983
474.1316
473.9657
473.8007
473.6364
473.4732
473.311
473.1503
472.9911
472.834
472.6793
472.5276
472.3796
472.2363
472.0985
471.9681
471.8478
471.7434
471.6672
482.3407
481.8915
481.7286
481.5152
481.3201
481.1234
480.9284
480.734
480.5403
480.3475
480.1558
479.9654
479.7765
479.5892
479.4037
479.2197
479.0374
478.8568
478.6777
478.5
478.3238
478.1489
477.9752
477.8026
477.6308
477.4599
477.2896
477.1198
476.9504
476.7812
476.6121
476.4429
476.2737
476.1042
475.9343
475.764
475.5932
475.4218
475.2497
475.077
474.9036
474.7295
474.5547
474.3794
474.2035
474.0272
473.8507
473.6742
473.498
473.3226
473.1484
472.9759
472.8057
472.6388
472.4759
472.3184
472.1679
472.0273
471.9027
471.8061
482.2721
481.883
481.7506
481.5738
481.4123
481.2484
481.0847
480.9202
480.755
480.5891
480.4227
480.2559
480.0889
479.9217
479.7544
479.5868
479.4191
479.251
479.0826
478.9138
478.7446
478.5748
478.4043
478.2332
478.0612
477.8884
477.7145
477.5396
477.3636
477.1863
477.0078
476.828
476.6468
476.4643
476.2804
476.0951
475.9084
475.7204
475.531
475.3404
475.1487
474.9558
474.762
474.5673
474.3721
474.1764
473.9806
473.7849
473.5899
473.3959
473.2036
473.0135
472.8263
472.6431
472.4647
472.2925
472.1282
471.9749
471.8386
471.7314
482.6039
482.2402
482.1186
481.9543
481.8028
481.6474
481.4905
481.3311
481.1694
481.0055
480.8395
480.6716
480.502
480.3308
480.1579
479.9835
479.8075
479.63
479.451
479.2704
479.0884
478.9049
478.7199
478.5334
478.3453
478.1557
477.9647
477.7721
477.5781
477.3826
477.1857
476.9875
476.7879
476.5871
476.3852
476.1822
475.9782
475.7733
475.5677
475.3615
475.1548
474.9479
474.7409
474.5341
474.3278
474.1221
473.9175
473.7143
473.513
473.3143
473.1185
472.9266
472.7391
472.5571
472.3817
472.2141
472.0562
471.9111
471.7848
471.6892
483.017
482.6417
482.5119
482.3376
482.1751
482.0077
481.8379
481.6649
481.4889
481.31
481.1284
480.9445
480.7584
480.5703
480.3803
480.1885
479.995
479.7999
479.6034
479.4055
479.2062
479.0058
478.8043
478.6016
478.398
478.1936
477.9883
477.7823
477.5757
477.3686
477.1612
476.9534
476.7455
476.5376
476.3299
476.1224
475.9153
475.7088
475.5032
475.2985
475.0949
474.8928
474.6924
474.4938
474.2974
474.1036
473.9126
473.7249
473.5411
473.3616
473.187
473.0181
472.8556
472.7005
472.5539
472.4171
472.2918
472.1812
472.0911
472.0336
483.2724
482.8671
482.7215
482.5281
482.3476
482.1621
481.9747
481.7845
481.5917
481.3967
481.1998
481.0012
480.8011
480.5999
480.3977
480.1946
479.9909
479.7867
479.5821
479.3774
479.1727
478.9681
478.7638
478.5598
478.3564
478.1536
477.9516
477.7505
477.5505
477.3517
477.1542
476.9583
476.7639
476.5714
476.3808
476.1924
476.0062
475.8225
475.6415
475.4633
475.2882
475.1163
474.9479
474.7832
474.6225
474.4661
474.3144
474.1677
474.0265
473.8912
473.7626
473.6411
473.5275
473.4228
473.3279
473.2441
473.1732
473.118
473.0846
473.0846
483.3322
482.9051
482.75
482.5455
482.3559
482.1625
481.9687
481.7735
481.5774
481.3806
481.1834
480.9861
480.7891
480.5925
480.3966
480.2016
480.0077
479.815
479.6239
479.4343
479.2465
479.0606
478.8769
478.6953
478.5161
478.3393
478.1651
477.9937
477.8251
477.6595
477.4971
477.3378
477.1819
477.0294
476.8805
476.7354
476.5941
476.4567
476.3234
476.1944
476.0697
475.9496
475.8341
475.7235
475.6179
475.5176
475.4229
475.334
475.2513
475.1752
475.1062
475.0448
474.9917
474.9476
474.9136
474.8907
474.8805
474.886
474.9129
474.9729
483.3685
482.9493
482.8015
482.6068
482.4287
482.2488
482.0704
481.8926
481.7158
481.5402
481.3662
481.194
481.0239
480.8561
480.6908
480.5281
480.3683
480.2114
480.0577
479.9072
479.7601
479.6165
479.4765
479.3401
479.2075
479.0787
478.9538
478.8328
478.7158
478.6029
478.4941
478.3894
478.289
478.1928
478.1008
478.0132
477.9299
477.8509
477.7764
477.7063
477.6408
477.5797
477.5233
477.4715
477.4245
477.3824
477.3453
477.3134
477.287
477.2664
477.2519
477.244
477.2433
477.2503
477.266
477.2913
477.3279
477.3785
477.4487
477.5503
483.6826
483.3096
483.1894
483.0287
482.8854
482.7424
482.6025
482.465
482.33
482.1979
482.0688
481.943
481.8205
481.7016
481.5863
481.4747
481.367
481.2632
481.1634
481.0676
480.9758
480.8881
480.8044
480.7248
480.6493
480.5777
480.5102
480.4466
480.3869
480.3311
480.279
480.2308
480.1862
480.1453
480.1079
480.0741
480.0436
480.0165
479.9927
479.9721
479.9547
479.9403
479.9291
479.9209
479.9158
479.9137
479.9147
479.919
479.9268
479.9381
479.9534
479.973
479.9973
480.027
480.0629
480.1059
480.1576
480.2207
480.3008
480.4096
484.5733
484.2766
484.1986
484.0893
483.9966
483.9054
483.8182
483.7341
483.6532
483.5756
483.5015
483.4309
483.3638
483.3003
483.2404
483.1841
483.1314
483.0822
483.0365
482.9942
482.9553
482.9197
482.8872
482.8578
482.8313
482.8077
482.7868
482.7684
482.7525
482.7388
482.7274
482.7179
482.7103
482.7044
482.7
482.6971
482.6954
482.6949
482.6954
482.6968
482.6989
482.7017
482.705
482.7089
482.7132
482.718
482.7233
482.7291
482.7357
482.7433
482.752
482.7623
482.7747
482.7897
482.8082
482.8312
482.8603
482.8981
482.9504
483.0291
486.1982
485.9852
485.9511
485.8949
485.8528
485.8124
485.7754
485.7408
485.7089
485.6794
485.6524
485.6278
485.6055
485.5856
485.5679
485.5522
485.5386
485.5268
485.5168
485.5084
485.5013
485.4956
485.491
485.4872
485.4843
485.4819
485.4798
485.478
485.4762
485.4742
485.4719
485.469
485.4655
485.461
485.4556
485.4489
485.4409
485.4314
485.4203
485.4074
485.3927
485.3761
485.3575
485.3369
485.3143
485.2896
485.263
485.2347
485.2048
485.1736
485.1414
485.1087
485.076
485.044
485.0136
484.9859
484.9626
484.9465
484.9434
484.9652
488.4817
488.3306
488.3267
488.3066
488.2972
488.2884
488.2812
488.2748
488.2691
488.2639
488.2591
488.2546
488.2504
488.2462
488.2419
488.2373
488.2324
488.2269
488.2207
488.2136
488.2054
488.196
488.1851
488.1726
488.1584
488.1421
488.1238
488.1031
488.08
488.0543
488.0258
487.9945
487.96
487.9225
487.8816
487.8374
487.7897
487.7385
487.6836
487.6252
487.563
487.4972
487.4278
487.3547
487.2782
487.1983
487.1151
487.029
486.9403
486.8492
486.7563
486.6621
486.5673
486.4726
486.3791
486.2879
486.201
486.1211
486.0542
486.0124
491.114
490.9793
490.98
490.9649
490.9576
490.949
490.9396
490.9288
490.9163
490.9021
490.8859
490.8676
490.8472
490.8245
490.7993
490.7715
490.7411
490.7078
490.6715
490.6322
490.5896
490.5436
490.4942
490.4412
490.3845
490.3239
490.2595
490.1911
490.1185
490.0419
489.961
489.8759
489.7864
489.6926
489.5945
489.4921
489.3853
489.2742
489.1588
489.0393
488.9156
488.7879
488.6563
488.521
488.3822
488.24
488.0948
487.947
487.7969
487.645
487.4918
487.338
487.1843
487.0316
486.8811
486.734
486.5922
486.4587
486.3395
486.2467
493.649
493.477
493.4539
493.4097
493.3721
493.3309
493.2872
493.2402
493.1896
493.1354
493.0775
493.0158
492.9503
492.8809
492.8074
492.73
492.6484
492.5627
492.4728
492.3787
492.2804
492.1777
492.0707
491.9593
491.8436
491.7235
491.599
491.4702
491.337
491.1996
491.0579
490.912
490.7619
490.6078
490.4496
490.2876
490.1218
489.9523
489.7793
489.6029
489.4232
489.2406
489.0551
488.8671
488.6767
488.4844
488.2903
488.0951
487.899
487.7027
487.5067
487.3116
487.1184
486.928
486.7414
486.5602
486.386
486.222
486.0741
485.9543
495.663
495.4113
495.3437
495.2454
495.1547
495.0591
494.9601
494.857
494.7497
494.6381
494.5223
494.4022
494.2778
494.1492
494.0164
493.8794
493.7383
493.5931
493.4439
493.2907
493.1335
492.9725
492.8076
492.639
492.4667
492.2908
492.1114
491.9286
491.7425
491.5532
491.3608
491.1654
490.9672
490.7663
490.5627
490.3568
490.1486
489.9383
489.7261
489.5122
489.2968
489.08
488.8622
488.6436
488.4245
488.2051
487.9859
487.7673
487.5497
487.3337
487.1198
486.9086
486.7011
486.4981
486.3007
486.1104
485.9288
485.7591
485.607
485.4846
496.9032
496.5551
496.4362
496.2763
496.1268
495.9722
495.8149
495.6539
495.4893
495.3211
495.1494
494.9742
494.7957
494.6138
494.4288
494.2406
494.0495
493.8555
493.6587
493.4593
493.2572
493.0528
492.846
492.6369
492.4258
492.2126
491.9976
491.7809
491.5626
491.3427
491.1215
490.8991
490.6756
490.4512
490.226
490.0001
489.7737
489.547
489.3201
489.0932
488.8665
488.6401
488.4144
488.1894
487.9656
487.743
487.5222
487.3034
487.087
486.8736
486.6636
486.4576
486.2565
486.061
485.8724
485.6918
485.521
485.363
485.2235
485.1144
497.3593
496.9264
496.7646
496.5533
496.3562
496.1549
495.9525
495.7479
495.5412
495.3326
495.1219
494.9095
494.6953
494.4794
494.2621
494.0433
493.8233
493.6021
493.3799
493.1568
492.9328
492.7081
492.4828
492.257
492.0307
491.8042
491.5775
491.3507
491.1239
490.8972
490.6708
490.4446
490.2188
489.9936
489.7689
489.545
489.3218
489.0996
488.8784
488.6584
488.4397
488.2224
488.0066
487.7926
487.5806
487.3707
487.1632
486.9584
486.7567
486.5585
486.3642
486.1744
485.9898
485.8112
485.6396
485.4764
485.3231
485.1826
485.0608
484.9692
497.2331
496.747
496.56
496.3189
496.0954
495.8693
495.6439
495.4182
495.1922
494.966
494.7396
494.513
494.2864
494.0599
493.8334
493.6072
493.3812
493.1556
492.9305
492.7059
492.4818
492.2584
492.0356
491.8136
491.5925
491.3721
491.1527
490.9343
490.7168
490.5004
490.2851
490.0709
489.8578
489.646
489.4354
489.226
489.018
488.8114
488.6063
488.4026
488.2005
488
487.8012
487.6044
487.4094
487.2167
487.0263
486.8386
486.6537
486.4722
486.2943
486.1206
485.9517
485.7885
485.632
485.4833
485.3442
485.2174
485.1087
485.0297
496.8305
496.3278
496.1347
495.8869
495.6589
495.4297
495.2029
494.9771
494.7525
494.5291
494.3067
494.0853
493.8651
493.646
493.428
493.2113
492.9957
492.7813
492.5682
492.3563
492.1456
491.9362
491.728
491.521
491.3153
491.1107
490.9074
490.7053
490.5044
490.3046
490.1061
489.9086
489.7123
489.5172
489.3231
489.1302
488.9384
488.7477
488.5581
488.3697
488.1824
487.9964
487.8117
487.6284
487.4465
487.2662
487.0878
486.9114
486.7373
486.5658
486.3974
486.2325
486.0717
485.916
485.7663
485.6238
485.4901
485.3681
485.2635
485.188
496.4342
495.9427
495.7571
495.5187
495.301
495.0829
494.8681
494.6551
494.4439
494.2344
494.0265
493.8202
493.6153
493.4118
493.2098
493.0091
492.8097
492.6117
492.4149
492.2193
492.0248
491.8314
491.6391
491.4478
491.2575
491.068
490.8795
490.6917
490.5047
490.3185
490.1329
489.948
489.7637
489.5799
489.3967
489.214
489.0318
488.8501
488.6689
488.4882
488.308
488.1283
487.9493
487.771
487.5934
487.4168
487.2414
487.0673
486.8949
486.7245
486.5564
486.3913
486.2298
486.0726
485.9209
485.7759
485.6392
485.5137
485.405
485.325
496.2133
495.7448
495.5715
495.3483
495.1453
494.9422
494.7425
494.5447
494.3486
494.1541
493.961
493.7693
493.5787
493.3893
493.2009
493.0136
492.8271
492.6415
492.4566
492.2724
492.0888
491.9057
491.7231
491.5409
491.359
491.1775
490.9961
490.815
490.6339
490.453
490.272
490.0911
489.9101
489.729
489.5478
489.3665
489.1851
489.0035
488.8218
488.6401
488.4582
488.2764
488.0947
487.9131
487.7318
487.551
487.3709
487.1918
487.0139
486.8375
486.6632
486.4915
486.3231
486.1588
485.9997
485.847
485.7025
485.569
485.4523
485.364
496.199
495.7501
495.5864
495.3747
495.1824
494.9899
494.8004
494.6122
494.4255
494.2398
494.055
493.8709
493.6876
493.5047
493.3224
493.1404
492.9587
492.7773
492.5959
492.4146
492.2333
492.0519
491.8704
491.6887
491.5068
491.3245
491.1419
490.959
490.7756
490.5918
490.4075
490.2228
490.0375
489.8517
489.6654
489.4786
489.2913
489.1036
488.9154
488.7268
488.5379
488.3488
488.1595
487.9702
487.7811
487.5923
487.4041
487.2168
487.0307
486.8461
486.6635
486.4835
486.3068
486.1344
485.9673
485.8067
485.6545
485.5134
485.3892
485.2938
496.3195
495.8783
495.7173
495.509
495.3194
495.1293
494.9416
494.7548
494.569
494.3837
494.1987
494.0141
493.8296
493.6451
493.4607
493.2761
493.0914
492.9064
492.7211
492.5355
492.3494
492.1628
491.9758
491.7882
491.6001
491.4114
491.2221
491.0322
490.8417
490.6505
490.4586
490.2662
490.0731
489.8794
489.6852
489.4904
489.295
489.0993
488.9031
488.7066
488.5098
488.313
488.116
487.9193
487.7228
487.5268
487.3317
487.1376
486.9449
486.754
486.5654
486.3797
486.1975
486.02
485.848
485.683
485.5266
485.3818
485.2542
485.1557
496.4648
496.0185
495.8537
495.641
495.4468
495.2517
495.0589
494.8668
494.6752
494.484
494.2929
494.1019
493.9108
493.7195
493.5281
493.3363
493.1443
492.9519
492.759
492.5657
492.3719
492.1776
491.9828
491.7874
491.5915
491.3951
491.1982
491.0007
490.8027
490.6041
490.4051
490.2056
490.0057
489.8054
489.6047
489.4038
489.2025
489.0011
488.7995
488.5979
488.3963
488.195
487.9939
487.7933
487.5933
487.3942
487.1962
486.9997
486.8049
486.6123
486.4223
486.2355
486.0528
485.8749
485.7031
485.5386
485.3832
485.2396
485.1136
485.017
496.546
496.087
495.9149
495.6935
495.4911
495.2878
495.0868
494.8866
494.6871
494.4879
494.2889
494.0901
493.8913
493.6925
493.4936
493.2946
493.0955
492.8961
492.6965
492.4966
492.2965
492.0961
491.8954
491.6944
491.4932
491.2917
491.09
490.888
490.6858
490.4835
490.2809
490.0783
489.8755
489.6727
489.4699
489.2671
489.0644
488.8619
488.6596
488.4576
488.2561
488.0551
487.8547
487.6551
487.4565
487.2591
487.0632
486.8691
486.677
486.4874
486.3007
486.1176
485.9387
485.7651
485.5977
485.438
485.2876
485.1492
485.0287
484.9378
496.5287
496.0563
495.8771
495.6475
495.4374
495.2269
495.019
494.8122
494.6063
494.4012
494.1967
493.9926
493.7888
493.5854
493.3823
493.1793
492.9766
492.774
492.5714
492.369
492.1666
491.9644
491.7622
491.56
491.358
491.156
490.9542
490.7525
490.5509
490.3495
490.1482
489.9472
489.7463
489.5458
489.3455
489.1456
488.9461
488.7471
488.5485
488.3506
488.1533
487.9568
487.7612
487.5667
487.3733
487.1814
486.9911
486.8028
486.6167
486.4333
486.2529
486.0761
485.9038
485.7368
485.5763
485.4234
485.2799
485.1486
485.0351
484.9512
496.4338
495.9529
495.7696
495.5353
495.3214
495.1074
494.8966
494.6873
494.4794
494.2727
494.0669
493.862
493.6579
493.4545
493.2517
493.0495
492.8478
492.6466
492.4458
492.2455
492.0455
491.8459
491.6468
491.4479
491.2495
491.0514
490.8537
490.6564
490.4594
490.2628
490.0666
489.8708
489.6755
489.4806
489.2862
489.0922
488.8989
488.7061
488.5139
488.3224
488.1317
487.9419
487.753
487.5652
487.3786
487.1935
487.0101
486.8286
486.6493
486.4726
486.299
486.1289
485.9632
485.8028
485.6487
485.5022
485.365
485.2399
485.1326
485.0546
496.3161
495.8342
495.6506
495.4165
495.2032
494.9903
494.7811
494.5738
494.3684
494.1644
493.9618
493.7604
493.56
493.3607
493.1622
492.9646
492.7678
492.5716
492.3761
492.1812
491.9869
491.7932
491.5999
491.4072
491.215
491.0232
490.8319
490.641
490.4506
490.2607
490.0711
489.882
489.6934
489.5052
489.3174
489.1302
488.9434
488.7572
488.5716
488.3866
488.2023
488.0187
487.836
487.6543
487.4737
487.2944
487.1166
486.9406
486.7667
486.5952
486.4265
486.2613
486.1002
485.9443
485.7945
485.6521
485.5189
485.3975
485.2936
485.219
496.235
495.7584
495.5778
495.3475
495.1383
494.93
494.7255
494.5234
494.3233
494.1249
493.928
493.7325
493.5383
493.3451
493.153
492.9618
492.7714
492.5818
492.3928
492.2045
492.0167
491.8295
491.6427
491.4565
491.2706
491.0852
490.9002
490.7155
490.5312
490.3472
490.1636
489.9802
489.7972
489.6144
489.432
489.2499
489.0681
488.8867
488.7057
488.5251
488.345
488.1655
487.9866
487.8085
487.6313
487.4552
487.2805
487.1072
486.9358
486.7666
486.6
486.4367
486.2773
486.1227
485.9742
485.8328
485.7004
485.5797
485.4762
485.4018
496.2304
495.7622
495.5859
495.361
495.1573
494.9546
494.756
494.5597
494.3655
494.1732
493.9823
493.7929
493.6047
493.4175
493.2313
493.0459
492.8613
492.6773
492.4938
492.3108
492.1283
491.9462
491.7644
491.5829
491.4016
491.2206
491.0398
490.8592
490.6787
490.4983
490.3181
490.138
489.9579
489.778
489.5981
489.4184
489.2388
489.0593
488.88
488.7009
488.5221
488.3436
488.1656
487.9881
487.8113
487.6355
487.4607
487.2873
487.1155
486.9457
486.7784
486.6141
486.4536
486.2978
486.1478
486.0049
485.8708
485.7483
485.6429
485.5664
496.3113
495.851
495.6784
495.4581
495.2589
495.0607
494.8666
494.6749
494.4852
494.2972
494.1107
493.9255
493.7413
493.5581
493.3756
493.1938
493.0125
492.8317
492.6513
492.4711
492.2911
492.1114
491.9318
491.7522
491.5728
491.3933
491.2138
491.0343
490.8547
490.6751
490.4953
490.3155
490.1356
489.9555
489.7754