/*--------------------------------*- C++ -*----------------------------------*\
| =========                 |                                                 |
| \\      /  F ield         | OpenFOAM: The Open Source CFD Toolbox           |
|  \\    /   O peration     | Version:  2312                                  |
|   \\  /    A nd           | Website:  www.openfoam.com                      |
|    \\/     M anipulation  |                                                 |
\*---------------------------------------------------------------------------*/
FoamFile
{
    version     2.0;
    format      ascii;
    arch        "LSB;label=32;scalar=64";
    class       volScalarField;
    location    "2500";
    object      ILambda_11_0;
}
// * * * * * * * * * * * * * * * * * * * * * * * * * * * * * * * * * * * * * //

dimensions      [1 0 -3 0 0 0 0];

internalField   nonuniform List<scalar> 
12000
(
446.5773
445.2795
444.6156
443.8006
443.0168
442.2221
441.4276
440.6318
439.8362
439.0417
438.2491
437.4596
436.6739
435.8931
435.118
434.3496
433.5887
432.8362
432.0929
431.3596
430.637
429.9258
429.2267
428.5403
427.8672
427.208
426.5629
425.9326
425.3173
424.7173
424.1328
423.5641
423.0113
422.4742
421.9531
421.4478
420.9584
420.4845
420.0259
419.5822
419.1531
418.7387
418.3387
417.9524
417.5787
417.2179
416.87
416.5342
416.2096
415.8958
415.5931
415.3011
415.019
414.7468
414.4849
414.2332
413.9921
413.7626
413.5471
413.3481
459.3704
458.4048
457.8893
457.248
456.6107
455.9474
455.2655
454.564
453.844
453.1058
452.3504
451.5784
450.7908
449.9887
449.1727
448.344
447.5037
446.6529
445.7929
444.9246
444.0493
443.1684
442.2832
441.3948
440.5045
439.6138
438.724
437.8363
436.9522
436.0728
435.1995
434.3337
433.4765
432.6291
431.7926
430.9684
430.1573
429.3606
428.5791
427.8138
427.0653
426.3346
425.6223
424.9289
424.2551
423.6011
422.9673
422.354
421.7615
421.1898
420.639
420.1091
419.6004
419.1128
418.6465
418.2019
417.7795
417.3812
417.0101
416.6708
462.3728
461.8491
461.573
461.221
460.8628
460.4812
460.0795
459.6566
459.2125
458.7472
458.2604
457.7523
457.2228
456.672
456.0999
455.5069
454.8929
454.2584
453.6037
452.929
452.2348
451.5216
450.79
450.0405
449.2738
448.4907
447.6919
446.8784
446.051
445.2108
444.3588
443.4962
442.6241
441.7438
440.8566
439.9638
439.0668
438.1672
437.2663
436.3658
435.467
434.5716
433.6811
432.7971
431.9213
431.0552
430.2003
429.3582
428.5306
427.719
426.9248
426.1497
425.3952
424.6629
423.9545
423.2722
422.6187
421.9975
421.4142
420.8777
463.4364
463.1905
463.0768
462.9235
462.7651
462.5918
462.4051
462.204
461.9882
461.7571
461.5104
461.2477
460.9685
460.6724
460.359
460.028
459.6788
459.3112
458.9246
458.5188
458.0933
457.6479
457.1821
456.6957
456.1885
455.6602
455.1106
454.5397
453.9474
453.3337
452.6986
452.0422
451.3648
450.6667
449.9481
449.2094
448.4513
447.6743
446.879
446.0663
445.2369
444.3918
443.5321
442.6587
441.7731
440.8764
439.9701
439.0557
438.1348
437.2091
436.2805
435.3509
434.4223
433.4972
432.578
431.6677
430.7701
429.89
429.035
428.217
462.5254
462.3669
462.3144
462.2375
462.1618
462.0796
461.992
461.8982
461.7981
461.6914
461.5777
461.4569
461.3284
461.1921
461.0475
460.8943
460.7319
460.56
460.3781
460.1856
459.982
459.7667
459.5392
459.2989
459.045
458.7772
458.4946
458.1968
457.883
457.5527
457.2052
456.84
456.4566
456.0542
455.6326
455.1911
454.7293
454.2468
453.7433
453.2183
452.6717
452.1032
451.5127
450.9001
450.2655
449.609
448.9308
448.2312
447.5107
446.7697
446.0091
445.2297
444.4324
443.6187
442.7902
441.949
441.0978
440.241
439.3857
438.5451
461.5493
461.3267
461.2505
461.1463
461.0506
460.953
460.8554
460.7571
460.6581
460.5585
460.458
460.3568
460.2546
460.1514
460.047
459.9412
459.834
459.7251
459.6141
459.501
459.3853
459.2667
459.1448
459.0193
458.8897
458.7556
458.6165
458.4719
458.3213
458.1642
457.9999
457.828
457.6478
457.4588
457.2602
457.0515
456.832
456.6011
456.3581
456.1022
455.833
455.5496
455.2514
454.9378
454.6082
454.262
453.8986
453.5176
453.1184
452.7008
452.2644
451.809
451.3345
450.8413
450.3296
449.8002
449.2545
448.6956
448.1295
447.5688
461.4891
461.117
460.9689
460.7784
460.604
460.4297
460.2588
460.0905
459.9248
459.7619
459.6018
459.4446
459.2902
459.1388
458.9903
458.8448
458.7021
458.5622
458.425
458.2905
458.1585
458.0288
457.9014
457.776
457.6525
457.5305
457.41
457.2906
457.1721
457.0543
456.9368
456.8193
456.7015
456.5831
456.4638
456.3432
456.2209
456.0965
455.9696
455.8399
455.7069
455.57
455.429
455.2833
455.1324
454.9759
454.8133
454.6442
454.4681
454.2846
454.0934
453.894
453.6864
453.4704
453.2461
453.0139
452.7747
452.5307
452.2875
452.0569
462.9081
462.3377
462.0895
461.7781
461.49
461.2027
460.921
460.6439
460.3716
460.1043
459.8422
459.5855
459.3342
459.0886
458.8486
458.6144
458.386
458.1633
457.9465
457.7354
457.5301
457.3303
457.1361
456.9472
456.7636
456.5852
456.4117
456.243
456.079
455.9194
455.7641
455.613
455.4657
455.3222
455.1823
455.0458
454.9124
454.7821
454.6546
454.5298
454.4074
454.2874
454.1695
454.0535
453.9394
453.827
453.7162
453.6069
453.499
453.3924
453.2873
453.1836
453.0816
452.9815
452.8838
452.7893
452.6991
452.6157
452.5449
452.4982
466.0357
465.2648
464.9101
464.4696
464.0567
463.6429
463.2346
462.8306
462.4314
462.0376
461.6494
461.2672
460.8915
460.5225
460.1605
459.8059
459.4588
459.1194
458.7878
458.4642
458.1486
457.8411
457.5416
457.2502
456.9667
456.6911
456.4232
456.1631
455.9105
455.6653
455.4274
455.1965
454.9725
454.7553
454.5446
454.3403
454.1423
453.9502
453.7641
453.5837
453.4088
453.2394
453.0754
452.9165
452.7628
452.6143
452.4708
452.3324
452.1992
452.0714
451.949
451.8325
451.7221
451.6186
451.5226
451.4351
451.3574
451.2925
451.246
451.2299
470.6154
469.7143
469.2845
468.7512
468.2444
467.7319
467.221
466.7106
466.2016
465.6945
465.1902
464.6892
464.1922
463.6998
463.2127
462.7313
462.2563
461.788
461.327
460.8735
460.428
459.9908
459.5621
459.1421
458.7309
458.3289
457.936
457.5523
457.178
456.8129
456.4572
456.1109
455.7738
455.4459
455.1272
454.8176
454.5169
454.2252
453.9422
453.6678
453.402
453.1446
452.8956
452.6547
452.422
452.1974
451.9809
451.7724
451.572
451.3798
451.1961
451.021
450.8552
450.6991
450.5536
450.4194
450.298
450.1923
450.108
450.0571
475.779
474.8811
474.4437
473.8989
473.3734
472.8359
472.2936
471.7453
471.192
470.6344
470.0733
469.5094
468.9437
468.377
467.81
467.2435
466.6783
466.115
465.5545
464.9972
464.4439
463.8951
463.3514
462.8132
462.2811
461.7554
461.2367
460.7253
460.2216
459.7258
459.2384
458.7595
458.2895
457.8287
457.3771
456.9351
456.5027
456.0802
455.6676
455.2652
454.873
454.4911
454.1196
453.7586
453.4082
453.0684
452.7393
452.4211
452.1139
451.818
451.5335
451.2609
451.0007
450.7534
450.5197
450.3005
450.0972
449.9125
449.7522
449.6278
480.3162
479.559
479.1896
478.7248
478.27
477.7986
477.3164
476.8222
476.3168
475.8006
475.2743
474.7386
474.1943
473.6421
473.0828
472.517
471.9456
471.3692
470.7885
470.2042
469.617
469.0275
468.4365
467.8444
467.252
466.6598
466.0684
465.4784
464.8903
464.3048
463.7224
463.1435
462.5688
461.9988
461.4339
460.8747
460.3217
459.7753
459.2361
458.7044
458.1808
457.6657
457.1594
456.6625
456.1754
455.6984
455.2321
454.7769
454.3332
453.9017
453.4828
453.0774
452.6861
452.3097
451.9494
451.606
451.2814
450.9782
450.7025
450.4658
483.2505
482.7069
482.4511
482.1226
481.7972
481.4547
481.0988
480.7284
480.3438
479.9452
479.533
479.1076
478.6693
478.2188
477.7563
477.2825
476.7977
476.3024
475.797
475.282
474.7578
474.225
473.6839
473.1351
472.579
472.0161
471.4468
470.8717
470.2911
469.7058
469.116
468.5225
467.9257
467.3262
466.7246
466.1215
465.5174
464.913
464.3088
463.7056
463.1039
462.5044
461.9079
461.3148
460.726
460.1422
459.5641
458.9924
458.428
457.8718
457.3247
456.7878
456.2622
455.7491
455.2498
454.7658
454.2991
453.8529
453.4334
453.0526
484.3085
483.9576
483.8111
483.6153
483.4205
483.2121
482.9922
482.7597
482.5144
482.2564
481.9856
481.7022
481.4064
481.0982
480.7779
480.4456
480.1013
479.7451
479.3772
478.9976
478.6065
478.204
477.7903
477.3654
476.9295
476.4826
476.0251
475.5569
475.0784
474.5896
474.091
473.5826
473.0648
472.5379
472.0023
471.4582
470.9062
470.3467
469.78
469.2067
468.6274
468.0426
467.4528
466.8588
466.2611
465.6605
465.0578
464.4538
463.8493
463.2455
462.6433
462.0441
461.4489
460.8593
460.2768
459.7031
459.1405
458.5925
458.0656
457.5723
483.9595
483.713
483.6318
483.5164
483.4046
483.2845
483.1574
483.0222
482.8786
482.7266
482.5661
482.397
482.2193
482.0331
481.8384
481.635
481.4228
481.2016
480.9715
480.7322
480.4835
480.2253
479.9576
479.6799
479.3923
479.0944
478.7862
478.4674
478.138
477.7976
477.4463
477.0839
476.7103
476.3255
475.9294
475.5221
475.1036
474.6739
474.2332
473.7816
473.3192
472.8463
472.3632
471.8701
471.3675
470.8556
470.3351
469.8065
469.2704
468.7276
468.179
467.6257
467.0686
466.509
465.9484
465.3884
464.8311
464.2801
463.7419
463.2294
483.0482
482.8069
482.7371
482.6366
482.5443
482.448
482.3492
482.2468
482.1407
482.0308
481.9171
481.7996
481.6786
481.5539
481.4256
481.2936
481.1578
481.018
480.8741
480.7259
480.5731
480.4156
480.2531
480.0853
479.9119
479.7326
479.547
479.3548
479.1557
478.9494
478.7354
478.5134
478.2832
478.0444
477.7968
477.5399
477.2737
476.9977
476.7119
476.416
476.1097
475.7931
475.466
475.1283
474.7801
474.4212
474.0519
473.6724
473.2828
472.8837
472.4754
472.0586
471.6339
471.2023
470.7648
470.3226
469.8777
469.4331
468.9951
468.5765
482.3135
482.0152
481.9196
481.7886
481.6696
481.5485
481.4273
481.305
481.1818
481.0577
480.9328
480.8075
480.6819
480.5563
480.4308
480.3054
480.1803
480.0553
479.9304
479.8057
479.6809
479.5561
479.4309
479.3053
479.1789
479.0517
478.9232
478.7931
478.6613
478.5274
478.391
478.2517
478.1094
477.9636
477.8139
477.6601
477.5018
477.3386
477.1701
476.9962
476.8164
476.6304
476.438
476.2388
476.0328
475.8196
475.5991
475.3712
475.1359
474.8934
474.6438
474.3872
474.1242
473.8552
473.5808
473.3021
473.0204
472.7386
472.4624
472.2044
482.0928
481.727
481.5964
481.4227
481.2629
481.1004
480.938
480.7747
480.6109
480.4466
480.2822
480.1182
479.9549
479.7927
479.6318
479.4726
479.3152
479.1598
479.0065
478.8554
478.7066
478.5602
478.4162
478.2745
478.1351
477.998
477.8631
477.7301
477.5991
477.4699
477.3422
477.2159
477.0909
476.9669
476.8437
476.7211
476.5988
476.4767
476.3545
476.2319
476.1088
475.9848
475.8598
475.7334
475.6056
475.4761
475.3447
475.2114
475.0761
474.9388
474.7996
474.6588
474.5164
474.373
474.2291
474.0853
473.943
473.8047
473.6761
473.5691
482.3171
481.9102
481.7565
481.5545
481.3658
481.173
480.979
480.7828
480.5848
480.3853
480.1846
479.9832
479.7816
479.5803
479.3796
479.1799
478.9815
478.7845
478.5893
478.3961
478.2051
478.0166
477.8305
477.6472
477.4666
477.2889
477.1142
476.9424
476.7737
476.6081
476.4455
476.286
476.1296
475.9763
475.826
475.6788
475.5346
475.3934
475.2551
475.1197
474.9871
474.8573
474.7302
474.6058
474.484
474.3649
474.2484
474.1347
474.0237
473.9158
473.8111
473.7099
473.6125
473.5195
473.4314
473.3492
473.274
473.2086
473.1585
473.1355
482.7033
482.2913
482.134
481.9268
481.7317
481.5309
481.3276
481.1206
480.9102
480.6968
480.4806
480.2622
480.042
479.8204
479.598
479.3749
479.1514
478.9279
478.7046
478.4818
478.2597
478.0385
477.8185
477.5998
477.3826
477.1671
476.9533
476.7415
476.5317
476.3242
476.119
475.9162
475.716
475.5185
475.3238
475.1321
474.9434
474.7579
474.5756
474.3968
474.2215
474.0498
473.8819
473.718
473.5581
473.4025
473.2514
473.1051
472.9637
472.8279
472.6979
472.5742
472.4574
472.3483
472.2476
472.1563
472.0761
472.0096
471.9626
471.9469
482.9814
482.5874
482.4403
482.2449
482.0605
481.8701
481.6762
481.4779
481.2755
481.0689
480.8587
480.6452
480.4287
480.2098
479.9886
479.7654
479.5405
479.3141
479.0863
478.8575
478.6278
478.3973
478.1663
477.9349
477.7032
477.4715
477.2397
477.0081
476.7768
476.546
476.3157
476.0861
475.8574
475.6297
475.4031
475.1779
474.9542
474.7322
474.5121
474.294
474.0782
473.8648
473.6542
473.4466
473.2421
473.0412
472.8441
472.6512
472.4631
472.2802
472.1031
471.9324
471.7689
471.6134
471.467
471.3308
471.2066
471.0973
471.0089
470.9532
483.0463
482.6696
482.5342
482.3528
482.1828
482.0072
481.8285
481.6458
481.4591
481.2685
481.0743
480.8768
480.6764
480.4732
480.2675
480.0594
479.8492
479.6368
479.4225
479.2063
478.9884
478.7689
478.5478
478.3253
478.1014
477.8761
477.6495
477.4218
477.1929
476.9629
476.732
476.5003
476.2678
476.0346
475.8008
475.5667
475.3323
475.0977
474.8632
474.6289
474.395
474.1618
473.9294
473.6981
473.4681
473.2399
473.0137
472.79
472.5692
472.352
472.1389
471.9307
471.7281
471.5321
471.3437
471.1644
470.9958
470.841
470.706
470.6031
483.0031
482.6201
482.4853
482.3049
482.1377
481.9662
481.7932
481.6173
481.4388
481.2576
481.0741
480.8883
480.7005
480.511
480.3198
480.127
479.9326
479.7367
479.5394
479.3406
479.1404
478.9387
478.7357
478.5312
478.3252
478.1178
477.9089
477.6985
477.4865
477.273
477.058
476.8415
476.6235
476.404
476.183
475.9607
475.7371
475.5122
475.2862
475.0592
474.8312
474.6024
474.3731
474.1433
473.9133
473.6834
473.4539
473.2251
472.9975
472.7717
472.5481
472.3276
472.1108
471.8987
471.6923
471.4929
471.3024
471.1237
470.963
470.8324
483.1199
482.694
482.5407
482.3385
482.1526
481.964
481.7758
481.5865
481.3965
481.2057
481.0142
480.8224
480.6304
480.4383
480.2461
480.054
479.8618
479.6697
479.4775
479.2852
479.0928
478.9003
478.7075
478.5144
478.3208
478.1268
477.9321
477.7368
477.5407
477.3438
477.1459
476.947
476.7471
476.546
476.3438
476.1404
475.9358
475.73
475.5229
475.3147
475.1053
474.8948
474.6833
474.4709
474.2577
474.0439
473.8298
473.6156
473.4017
473.1886
472.9767
472.7666
472.5591
472.355
472.1552
471.9611
471.7743
471.5978
471.4378
471.3062
483.7153
483.2128
483.022
482.7749
482.5478
482.319
482.0922
481.8661
481.6409
481.4167
481.1937
480.972
480.752
480.5337
480.3172
480.1025
479.8896
479.6786
479.4693
479.2618
479.056
478.8517
478.649
478.4477
478.2477
478.0489
477.8511
477.6543
477.4583
477.263
477.0683
476.874
476.6801
476.4865
476.2929
476.0995
475.906
475.7124
475.5186
475.3246
475.1304
474.9359
474.7412
474.5462
474.3511
474.1559
473.9608
473.766
473.5717
473.3785
473.1865
472.9964
472.8089
472.6245
472.4443
472.2693
472.1013
471.9432
471.8008
471.6863
485.0191
484.4246
484.1861
483.8816
483.5999
483.3164
483.0357
482.7564
482.4788
482.2031
481.9296
481.6585
481.3902
481.1247
480.8623
480.603
480.3468
480.0938
479.844
479.5975
479.3542
479.114
478.877
478.643
478.4121
478.184
477.9587
477.7361
477.5161
477.2987
477.0836
476.8708
476.6601
476.4515
476.2449
476.0402
475.8372
475.6358
475.4361
475.2378
475.041
474.8456
474.6516
474.459
474.2677
474.0778
473.8895
473.7028
473.5181
473.3355
473.1555
472.9785
472.8051
472.6359
472.4717
472.3137
472.1633
472.0236
471.9002
471.8052
487.0547
486.3814
486.0998
485.7428
485.4097
485.0736
484.7397
484.4065
484.0746
483.7442
483.4156
483.0893
482.7656
482.4447
482.1267
481.812
481.5006
481.1927
480.8883
480.5877
480.2907
479.9976
479.7083
479.4228
479.1412
478.8634
478.5895
478.3194
478.053
477.7905
477.5316
477.2764
477.0248
476.7768
476.5323
476.2913
476.0536
475.8194
475.5884
475.3608
475.1364
474.9152
474.6972
474.4824
474.2709
474.0627
473.8578
473.6565
473.459
473.2655
473.0765
472.8922
472.7133
472.5403
472.3741
472.2158
472.0668
471.93
471.8112
471.7221
489.599
488.8868
488.5814
488.195
487.8313
487.4626
487.0943
486.7249
486.3552
485.9853
485.6157
485.2468
484.879
484.5126
484.1478
483.785
483.4243
483.066
482.7102
482.3572
482.007
481.6599
481.3159
480.9752
480.6379
480.3041
479.9739
479.6473
479.3244
479.0054
478.6902
478.3789
478.0716
477.7683
477.469
477.1739
476.8829
476.5961
476.3135
476.0352
475.7612
475.4917
475.2265
474.9659
474.7099
474.4587
474.2123
473.9711
473.7353
473.5052
473.2812
473.0637
472.8534
472.6509
472.457
472.2729
472.1
471.9412
471.8023
471.6949
492.2427
491.5453
491.2439
490.8617
490.4994
490.1299
489.7585
489.3839
489.0067
488.627
488.2454
487.8622
487.4778
487.0925
486.7067
486.3205
485.9342
485.5481
485.1624
484.7774
484.3932
484.0101
483.6282
483.2478
482.8689
482.4918
482.1167
481.7437
481.3729
481.0046
480.6389
480.2759
479.9157
479.5586
479.2047
478.8541
478.507
478.1635
477.8238
477.488
477.1562
476.8287
476.5057
476.1872
475.8735
475.5648
475.2614
474.9636
474.6718
474.3864
474.1079
473.8368
473.5738
473.3197
473.0753
472.8419
472.6211
472.4157
472.2315
472.0803
494.5342
493.8991
493.6281
493.2822
492.9527
492.6148
492.2731
491.9264
491.575
491.2193
490.8596
490.4962
490.1293
489.7593
489.3864
489.0108
488.6326
488.2523
487.8699
487.4856
487.0997
486.7124
486.3237
485.934
485.5434
485.1521
484.7603
484.3682
483.9759
483.5837
483.1917
482.8001
482.4093
482.0192
481.6303
481.2426
480.8564
480.4719
480.0893
479.7089
479.3309
478.9555
478.5831
478.2139
477.8481
477.4862
477.1285
476.7754
476.4274
476.085
475.7488
475.4194
475.0977
474.7845
474.4808
474.188
473.9077
473.643
473.3998
473.1897
496.1393
495.5921
495.3671
495.0768
494.8001
494.515
494.2253
493.9298
493.6289
493.3226
493.0113
492.695
492.3741
492.0485
491.7185
491.3842
491.0457
490.7032
490.3568
490.0065
489.6526
489.2952
488.9343
488.5701
488.2027
487.8323
487.459
487.0829
486.7042
486.3231
485.9397
485.5541
485.1667
484.7775
484.3868
483.9947
483.6016
483.2075
482.8127
482.4176
482.0223
481.6272
481.2325
480.8385
480.4457
480.0543
479.6648
479.2776
478.8934
478.5127
478.1361
477.7644
477.3985
477.0392
476.6878
476.3456
476.0145
475.6974
475.4006
475.1357
496.9483
496.486
496.3076
496.0739
495.8525
495.6238
495.3912
495.1534
494.9105
494.6627
494.41
494.1525
493.8903
493.6235
493.3519
493.0757
492.7949
492.5095
492.2196
491.9251
491.6261
491.3226
491.0146
490.7021
490.3852
490.064
489.7383
489.4084
489.0743
488.736
488.3936
488.0473
487.697
487.343
486.9854
486.6242
486.2597
485.8919
485.5211
485.1476
484.7714
484.3928
484.0121
483.6296
483.2455
482.8603
482.4742
482.0879
481.7018
481.3165
480.9327
480.5511
480.1725
479.798
479.4287
479.066
478.7118
478.3692
478.0444
477.7492
497.0836
496.6803
496.5359
496.344
496.1647
495.98
495.7929
495.6021
495.4078
495.2099
495.0084
494.8033
494.5947
494.3825
494.1665
493.9469
493.7235
493.4962
493.2651
493.0299
492.7908
492.5475
492.3001
492.0484
491.7924
491.5321
491.2673
490.9981
490.7244
490.4461
490.1633
489.8759
489.584
489.2875
488.9865
488.681
488.371
488.0566
487.7379
487.4151
487.0881
486.7571
486.4224
486.0841
485.7423
485.3975
485.0499
484.6998
484.3478
483.9944
483.6401
483.2856
482.9317
482.5794
482.2297
481.884
481.5443
481.2134
480.8976
480.6089
496.8168
496.437
496.308
496.1354
495.9767
495.8146
495.6519
495.4874
495.3211
495.1531
494.9832
494.8116
494.638
494.4625
494.285
494.1054
493.9236
493.7395
493.5531
493.3641
493.1726
492.9784
492.7814
492.5813
492.3783
492.172
491.9625
491.7495
491.533
491.313
491.0892
490.8616
490.6301
490.3946
490.1552
489.9116
489.6639
489.4121
489.1561
488.8959
488.6315
488.3631
488.0905
487.814
487.5337
487.2496
486.9621
486.6713
486.3777
486.0817
485.7836
485.4842
485.184
484.884
484.5851
484.2886
483.9963
483.7111
483.4391
483.1923
496.4442
496.0573
495.9266
495.7525
495.594
495.4336
495.2739
495.114
494.9539
494.7935
494.6329
494.472
494.3108
494.1493
493.9873
493.825
493.662
493.4985
493.3343
493.1693
493.0034
492.8366
492.6686
492.4993
492.3287
492.1566
491.983
491.8076
491.6303
491.4511
491.2698
491.0863
490.9005
490.7122
490.5214
490.328
490.1318
489.9328
489.7309
489.5261
489.3183
489.1075
488.8937
488.6768
488.457
488.2343
488.0088
487.7808
487.5504
487.318
487.084
486.8489
486.6131
486.3776
486.1431
485.911
485.6827
485.4613
485.2525
485.0684
496.1797
495.7691
495.6266
495.4387
495.2677
495.0953
494.9246
494.7544
494.5848
494.4159
494.2476
494.08
493.9131
493.7468
493.5812
493.4163
493.2519
493.0882
492.925
492.7623
492.6
492.4381
492.2765
492.115
491.9537
491.7925
491.6312
491.4697
491.3081
491.1461
490.9837
490.8208
490.6572
490.493
490.328
490.1621
489.9952
489.8273
489.6583
489.4881
489.3166
489.1439
488.9699
488.7946
488.618
488.4402
488.2612
488.0813
487.9006
487.7194
487.538
487.3568
487.1765
486.9976
486.8211
486.648
486.48
486.3198
486.1731
486.052
496.1058
495.6703
495.5142
495.3101
495.1236
494.9357
494.7496
494.5641
494.3794
494.1955
494.0124
493.8303
493.649
493.4687
493.2893
493.111
492.9337
492.7575
492.5822
492.4081
492.2349
492.0628
491.8916
491.7214
491.5522
491.3838
491.2164
491.0497
490.8839
490.7188
490.5544
490.3908
490.2277
490.0652
489.9033
489.7419
489.5809
489.4203
489.2602
489.1004
488.941
488.7819
488.6232
488.4649
488.3071
488.1497
487.993
487.8371
487.6823
487.5287
487.3768
487.227
487.0798
486.9359
486.7961
486.6617
486.534
486.416
486.3134
486.2378
496.1882
495.737
495.5717
495.3566
495.1591
494.9598
494.7621
494.5646
494.3677
494.1713
493.9753
493.78
493.5852
493.3911
493.1978
493.0052
492.8134
492.6224
492.4324
492.2432
492.055
491.8677
491.6814
491.4961
491.3118
491.1285
490.9463
490.7651
490.585
490.4059
490.2279
490.051
489.8753
489.7006
489.527
489.3546
489.1833
489.0132
488.8443
488.6767
488.5103
488.3453
488.1817
488.0195
487.859
487.7002
487.5432
487.3884
487.2361
487.0864
486.9398
486.7968
486.658
486.5241
486.396
486.2749
486.1623
486.0611
485.977
485.9218
496.3307
495.8761
495.7082
495.4899
495.289
495.0859
494.884
494.6821
494.4803
494.2785
494.0767
493.875
493.6734
493.4719
493.2707
493.0697
492.869
492.6686
492.4686
492.269
492.0698
491.8711
491.6729
491.4752
491.2781
491.0816
490.8857
490.6906
490.4961
490.3024
490.1096
489.9175
489.7264
489.5362
489.3469
489.1588
488.9717
488.7858
488.6012
488.4179
488.236
488.0556
487.8769
487.7
487.5249
487.3521
487.1816
487.0137
486.8488
486.6873
486.5295
486.3761
486.2277
486.085
485.9492
485.8213
485.703
485.5972
485.5096
485.4521
496.4374
495.9884
495.823
495.6079
495.4099
495.2097
495.0105
494.8111
494.6114
494.4115
494.2113
494.0108
493.81
493.609
493.4077
493.2062
493.0045
492.8026
492.6005
492.3983
492.196
491.9936
491.7911
491.5886
491.3861
491.1836
490.9812
490.7788
490.5766
490.3746
490.1728
489.9713
489.77
489.5692
489.3688
489.169
488.9697
488.7711
488.5733
488.3764
488.1805
487.9857
487.7922
487.6001
487.4096
487.221
487.0345
486.8505
486.6693
486.4914
486.3171
486.1471
485.9822
485.8231
485.6709
485.5269
485.3927
485.2713
485.1685
485.0961
496.455
496.0144
495.8535
495.644
495.4517
495.2573
495.0641
494.8706
494.6771
494.4832
494.289
494.0945
493.8995
493.7041
493.5083
493.3121
493.1154
492.9183
492.7208
492.5228
492.3243
492.1254
491.926
491.7262
491.5259
491.3253
491.1242
490.9227
490.7208
490.5186
490.3161
490.1134
489.9103
489.7071
489.5038
489.3004
489.097
488.8936
488.6905
488.4875
488.285
488.083
487.8816
487.681
487.4815
487.2832
487.0865
486.8916
486.699
486.509
486.3222
486.1392
485.9606
485.7875
485.6208
485.4619
485.3125
485.1754
485.0567
484.9679
496.3854
495.95
495.7923
495.5869
495.399
495.2095
495.0215
494.8336
494.6459
494.4581
494.2703
494.0822
493.894
493.7054
493.5166
493.3274
493.1379
492.9479
492.7575
492.5667
492.3754
492.1835
491.9911
491.7982
491.6047
491.4107
491.216
491.0208
490.825
490.6285
490.4316
490.234
490.0359
489.8373
489.6381
489.4386
489.2386
489.0382
488.8376
488.6368
488.4359
488.2349
488.0342
487.8337
487.6336
487.4343
487.2359
487.0388
486.8433
486.6499
486.459
486.2712
486.0873
485.9082
485.7349
485.5687
485.4114
485.2659
485.1381
485.0396
496.2721
495.8355
495.6777
495.4725
495.2853
495.097
494.9107
494.7249
494.5398
494.355
494.1705
493.9862
493.802
493.6179
493.4338
493.2496
493.0653
492.8809
492.6964
492.5116
492.3265
492.1411
491.9554
491.7693
491.5828
491.3958
491.2084
491.0205
490.8322
490.6432
490.4538
490.2638
490.0733
489.8822
489.6906
489.4984
489.3058
489.1128
488.9193
488.7254
488.5313
488.337
488.1426
487.9482
487.754
487.5602
487.3671
487.1749
486.9839
486.7946
486.6075
486.423
486.2419
486.0651
485.8937
485.7289
485.5725
485.4273
485.2992
485.1999
496.1738
495.7296
495.5681
495.3588
495.1682
494.9768
494.7879
494.6
494.4131
494.227
494.0415
493.8566
493.6722
493.4882
493.3045
493.1212
492.9381
492.7553
492.5726
492.39
492.2075
492.025
491.8425
491.6599
491.4773
491.2945
491.1115
490.9284
490.745
490.5614
490.3775
490.1934
490.0089
489.8241
489.639
489.4536
489.2679
489.082
488.8957
488.7093
488.5227
488.336
488.1493
487.9627
487.7764
487.5905
487.4053
487.2209
487.0379
486.8564
486.6769
486.5
486.3264
486.157
485.9927
485.835
485.6854
485.5468
485.4249
485.3317
496.1383
495.6826
495.5152
495.2989
495.1018
494.9043
494.7096
494.5162
494.3241
494.133
493.9429
493.7535
493.5649
493.377
493.1898
493.0031
492.817
492.6314
492.4462
492.2614
492.077
491.8929
491.7091
491.5256
491.3422
491.1591
490.9761
490.7933
490.6106
490.4279
490.2453
490.0628
489.8803
489.6978
489.5154
489.3329
489.1505
488.9682
488.7859
488.6037
488.4217
488.2399
488.0583
487.8772
487.6966
487.5167
487.3377
487.1599
486.9835
486.8089
486.6366
486.467
486.3009
486.1392
485.9828
485.8329
485.6914
485.561
485.4474
485.3624
496.1865
495.719
495.545
495.3211
495.1169
494.9123
494.7106
494.5104
494.3116
494.114
493.9173
493.7216
493.5268
493.3327
493.1394
492.9468
492.7549
492.5636
492.3729
492.1828
491.9931
491.804
491.6153
491.427
491.2392
491.0518
490.8648
490.6781
490.4917
490.3058
490.1201
489.9347
489.7497
489.565
489.3805
489.1964
489.0127
488.8293
488.6462
488.4637
488.2815
488.1
487.9191
487.7389
487.5595
487.3813
487.2043
487.0288
486.8551
486.6835
486.5145
486.3486
486.1865
486.0291
485.8774
485.7327
485.5965
485.4718
485.3641
485.2854
496.3094
495.8328
495.6536
495.4234
495.2133
495.0028
494.7952
494.5891
494.3843
494.1807
493.978
493.7762
493.5752
493.375
493.1755
492.9767
492.7785
492.5809
492.3839
492.1873
491.9913
491.7958
491.6007
491.4061
491.212
491.0183
490.825
490.6322
490.4398
490.2478
490.0562
489.8651
489.6744
489.4841
489.2943
489.105
488.9162
488.7279
488.5402
488.3532
488.1668
487.9813
487.7966
487.6129
487.4303
487.2491
487.0694
486.8915
486.7157
486.5423
486.3718
486.2048
486.0419
485.884
485.7321
485.5876
485.4521
485.3283
485.222
485.1449
496.477
495.9956
495.8133
495.5796
495.366
495.152
494.941
494.7313
494.5228
494.3154
494.1088
493.903
493.6979
493.4934
493.2894
493.086
492.8831
492.6806
492.4785
492.2768
492.0755
491.8745
491.6739
491.4736
491.2736
491.0739
490.8746
490.6756
490.477
490.2787
490.0808
489.8832
489.686
489.4892
489.2929
489.097
488.9017
488.7069
488.5127
488.3192
488.1264
487.9345
487.7435
487.5536
487.3649
487.1776
486.9921
486.8084
486.627
486.4483
486.2725
486.1004
485.9326
485.7701
485.6139
485.4653
485.3259
485.1985
485.0889
485.0087
496.6525
496.1705
495.9873
495.7528
495.5384
495.3237
495.1118
494.9012
494.6919
494.4834
494.2757
494.0686
493.862
493.656
493.4503
493.245
493.04
492.8353
492.6307
492.4264
492.2222
492.0182
491.8143
491.6106
491.407
491.2035
491.0002
490.797
490.594
490.3911
490.1884
489.9859
489.7836
489.5816
489.3798
489.1784
488.9773
488.7766
488.5765
488.3768
488.1778
487.9796
487.7822
487.5858
487.3906
487.1967
487.0044
486.8141
486.6259
486.4404
486.2579
486.079
485.9045
485.7353
485.5724
485.4172
485.2714
485.1377
485.0218
484.9354
496.8064
496.3263
496.1438
495.9103
495.697
495.4834
495.2728
495.0635
494.8554
494.6482
494.4416
494.2356
494.0301
493.825
493.6202
493.4156
493.2112
493.0069
492.8026
492.5984
492.3941
492.1899
491.9856
491.7812
491.5768
491.3724
491.1679
490.9633
490.7586
490.554
490.3492
490.1445
489.9398
489.7351
489.5305
489.326
489.1217
488.9175
488.7137
488.5101
488.3071
488.1045
487.9026
487.7015
487.5014
487.3025
487.105
486.9093
486.7156
486.5243
486.3359
486.151
485.9703
485.7949
485.6257
485.4641
485.3117
485.1714
485.0489
484.9558
496.9244
496.4468
496.2655
496.0336
495.822
495.6104
495.4019
495.1948
494.9889
494.7841
494.5799
494.3764
494.1733
493.9706
493.7682
493.5659
493.3638
493.1618
492.9597
492.7575
492.5553
492.353
492.1505
491.9478
491.745
491.542
491.3388
491.1354
490.9318
490.7279
490.5239
490.3197
490.1154
489.9109
489.7063
489.5016
489.2969
489.0922
488.8876
488.6831
488.4788
488.2749
488.0714
487.8685
487.6663
487.4651
487.2652
487.0668
486.8701
486.6757
486.484
486.2955
486.1111
485.9316
485.7583
485.5923
485.4354
485.2904
485.1629
485.0647
497.0085
496.5325
496.3518
496.1211
495.9108
495.7008
495.494
495.2889
495.0851
494.8825
494.6807
494.4796
494.2791
494.079
493.8793
493.6798
493.4805
493.2812
493.082
492.8827
492.6833
492.4838
492.2841
492.0843
491.8842
491.684
491.4835
491.2827
491.0817
490.8804
490.6789
490.4771
490.2751
490.0728
489.8703
489.6676
489.4648
489.2619
489.0589
488.856
488.6531
488.4504
488.248
488.046
487.8446
487.6441
487.4445
487.2463
487.0498
486.8552
486.6631
486.4741
486.2889
486.1085
485.934
485.7667
485.6083
485.4616
485.3322
485.2318
497.0717
496.5955
496.4146
496.1838
495.9738
495.7643
495.5583
495.3541
495.1515
494.9501
494.7498
494.5503
494.3515
494.1533
493.9556
493.7582
493.561
493.364
493.167
492.9701
492.7732
492.5763
492.3792
492.182
491.9847
491.7872
491.5895
491.3915
491.1934
490.995
490.7964
490.5975
490.3984
490.1991
489.9996
489.7998
489.5999
489.3999
489.1998
488.9997
488.7996
488.5997
488.4
488.2006
488.0018
487.8037
487.6066
487.4107
487.2163
487.0238
486.8337
486.6466
486.4631
486.2843
486.1113
485.9453
485.7881
485.6425
485.514
485.4144
497.1289
496.651
496.469
496.2372
496.0265
495.8164
495.6101
495.4057
495.2031
495.002
494.802
494.6029
494.4047
494.2072
494.0103
493.8138
493.6176
493.4217
493.226
493.0304
492.8348
492.6393
492.4438
492.2483
492.0527
491.8571
491.6613
491.4653
491.2693
491.0731
490.8767
490.6801
490.4834
490.2866
490.0896
489.8924
489.6952
489.4979
489.3006
489.1033
488.9061
488.709
488.5123
488.3159
488.1201
487.925
487.7309
487.538
487.3467
487.1572
486.9701
486.7859
486.6054
486.4296
486.2595
486.0964
485.9421
485.7993
485.6735
485.5766
497.1906
496.7104
496.5269
496.2935
496.0815
495.8702
495.6629
495.4577
495.2544
495.0526
494.8521
494.6526
494.4541
494.2563
494.0592
493.8626
493.6664
493.4705
493.2749
493.0795
492.8842
492.689
492.4939
492.2988
492.1038
491.9087
491.7136
491.5185
491.3233
491.128
490.9327
490.7372
490.5418
490.3462
490.1506
489.9549
489.7593
489.5636
489.3681