/*--------------------------------*- C++ -*----------------------------------*\
| =========                 |                                                 |
| \\      /  F ield         | OpenFOAM: The Open Source CFD Toolbox           |
|  \\    /   O peration     | Version:  2312                                  |
|   \\  /    A nd           | Website:  www.openfoam.com                      |
|    \\/     M anipulation  |                                                 |
\*---------------------------------------------------------------------------*/
FoamFile
{
    version     2.0;
    format      ascii;
    arch        "LSB;label=32;scalar=64";
    class       volScalarField;
    location    "2500";
    object      nut;
}
// * * * * * * * * * * * * * * * * * * * * * * * * * * * * * * * * * * * * * //

dimensions      [0 2 -1 0 0 0 0];

internalField   nonuniform List<scalar> 
12000
(
5.449835e-05
0.0001755393
0.0001869063
0.0002015886
0.0002143614
0.0002263037
0.0002289853
0.000214895
0.0002076784
0.0002158443
0.0002272518
0.0002245351
0.0002072295
0.0002023531
0.0002142392
0.0002244689
0.0002119346
0.0001967741
0.0001995919
0.0002128575
0.0002122911
0.0001985194
0.0001934865
0.0002005563
0.0002054542
0.0001998708
0.0001935336
0.0001929876
0.0001951433
0.0001958046
0.0001936826
0.0001899208
0.0001881975
0.000190597
0.0001924822
0.0001917349
0.0001870752
0.0001805595
0.0001791633
0.0001917573
0.0002071749
0.0001904589
0.0001635569
0.0001677722
0.0002101077
0.0002150811
0.0001657511
0.0001586111
0.0001955191
0.0002108274
0.000171978
0.0001610858
0.0001784322
0.0001778555
0.00016146
0.0001497945
0.0001344473
0.0001079494
9.873946e-05
7.636892e-05
3.504638e-05
0.0002351821
0.0002716641
0.0003311968
0.0003817362
0.0004291994
0.000480237
0.000538228
0.0006031731
0.0006692992
0.0007332641
0.0007995801
0.0008759616
0.0009527886
0.001019187
0.00107937
0.001149024
0.001228211
0.001296904
0.001349462
0.001404105
0.001472166
0.001538111
0.001587171
0.00162896
0.001678629
0.001732397
0.001778451
0.00181509
0.001847838
0.0018808
0.001914647
0.001944136
0.001961119
0.001951451
0.001941341
0.001937584
0.001994823
0.001996412
0.001975261
0.001909079
0.00177721
0.001859124
0.001891632
0.001820027
0.001693808
0.001578046
0.00164273
0.001537607
0.00143296
0.001330961
0.001209133
0.001073409
0.0009355423
0.0007962824
0.0006413709
0.0004783723
0.0002905324
0.0001578276
6.865565e-05
3.659102e-05
0.0003370866
0.0004198209
0.0005119032
0.0006153032
0.0007371075
0.000865812
0.0009967915
0.001135943
0.001273961
0.001410148
0.001544988
0.001678627
0.001807542
0.001927673
0.002041805
0.002151219
0.002255593
0.002351874
0.002440097
0.00252258
0.00260023
0.002671637
0.002735993
0.002794441
0.002847987
0.002896573
0.00293975
0.002955613
0.002926228
0.002865143
0.00286878
0.003024631
0.003037894
0.002912938
0.00291001
0.002961841
0.003052918
0.003094418
0.00300192
0.002900895
0.002971989
0.003070483
0.003043605
0.003012609
0.002958567
0.002926811
0.002866621
0.002797909
0.002710943
0.002598481
0.002456923
0.002274292
0.001993612
0.001453217
0.001278215
0.001083418
0.0006951538
0.0002713772
6.876821e-05
3.52808e-05
0.0003514034
0.000490985
0.0006209646
0.0007775183
0.0009527252
0.001141962
0.0013349
0.001533289
0.001727999
0.001912179
0.002086537
0.002251449
0.002408585
0.002555309
0.002693997
0.002824402
0.002946545
0.003060666
0.003167227
0.003266815
0.003359665
0.003446248
0.003524443
0.003592806
0.003652353
0.003704953
0.003751106
0.00379131
0.003725889
0.003763757
0.003873208
0.003887164
0.003898126
0.003898769
0.003898171
0.003887628
0.003870565
0.003847255
0.003817278
0.003779344
0.003732673
0.003677441
0.003614508
0.00354273
0.00345919
0.003363721
0.003254225
0.003131482
0.002992535
0.002837327
0.002663139
0.002470787
0.002023396
0.001941795
0.00160405
0.001218372
0.0007822436
0.0003500849
6.677234e-05
3.450581e-05
0.0003675406
0.000562486
0.0007323392
0.0009337221
0.001151148
0.00137703
0.001602273
0.001822996
0.002041179
0.002255806
0.002464881
0.002667433
0.002854181
0.003025627
0.003184406
0.003331741
0.003468292
0.003594458
0.003710223
0.003815755
0.003910985
0.00399642
0.004074568
0.004147938
0.004216237
0.004277914
0.004331885
0.004378651
0.004418554
0.004451094
0.004475208
0.004494867
0.004506878
0.004511502
0.004508741
0.004498601
0.004481018
0.004456461
0.004424659
0.004385169
0.004337519
0.004282473
0.004218667
0.004143536
0.004057828
0.003959937
0.003848323
0.003720551
0.003573858
0.003406483
0.003205248
0.002965142
0.002673029
0.002347539
0.001969063
0.001523637
0.0009968308
0.0004303935
6.657456e-05
3.467836e-05
0.0003706534
0.0006072795
0.0008067106
0.001033769
0.00127632
0.001527219
0.001781183
0.002032642
0.002276305
0.002510065
0.002730828
0.00293522
0.003129585
0.003312124
0.003481114
0.003637637
0.003783066
0.003918205
0.004043758
0.004160845
0.004270158
0.004372365
0.004467702
0.004556294
0.004637843
0.004711892
0.004778053
0.004836572
0.004887041
0.004927908
0.004962385
0.00498814
0.005005134
0.005013276
0.005012713
0.005003207
0.004984019
0.004955878
0.004919286
0.00487309
0.004815987
0.004745187
0.00466208
0.004566175
0.004456144
0.004330573
0.004188176
0.004028135
0.00384759
0.003639883
0.00339772
0.003125494
0.002819149
0.002464384
0.002050469
0.001572177
0.001033047
0.0004706668
6.55077e-05
3.505279e-05
0.0003653514
0.0006412666
0.000866952
0.001113166
0.001375396
0.001644762
0.001912852
0.002173572
0.002425476
0.002664952
0.002890092
0.003101887
0.003302955
0.003493961
0.003674131
0.003842714
0.004000478
0.004148545
0.004288073
0.00442009
0.004545206
0.004663674
0.004775433
0.004880199
0.004977548
0.005067017
0.005148153
0.005220602
0.00528257
0.00533694
0.005381453
0.005415832
0.00544001
0.005454063
0.005458181
0.005452083
0.005435446
0.005407204
0.005365876
0.005312022
0.005245959
0.005167073
0.005074438
0.004967086
0.004843974
0.00470431
0.00454699
0.004368694
0.004164919
0.00393232
0.003666161
0.003368602
0.003027858
0.002645355
0.002215242
0.001717058
0.001140061
0.0005179838
6.575422e-05
3.57271e-05
0.0003560687
0.0006616678
0.0009091993
0.001167321
0.001438554
0.001715228
0.001989831
0.002257134
0.002514143
0.002758726
0.002989936
0.003208083
0.003414573
0.003611145
0.003799381
0.003979498
0.00415242
0.004317626
0.004475332
0.004626272
0.004770259
0.004907578
0.005037998
0.005161049
0.005276137
0.005382627
0.005479887
0.005565167
0.005642553
0.005708922
0.005763945
0.005807323
0.005839179
0.005858641
0.005865435
0.005859204
0.0058398
0.005807194
0.005760935
0.005700505
0.005625318
0.00553464
0.005427612
0.005303355
0.005161113
0.004999389
0.004815523
0.004606682
0.004370964
0.004107126
0.003811618
0.003486476
0.003059483
0.002672852
0.002262238
0.001745608
0.001159633
0.0005388075
6.505278e-05
3.667227e-05
0.0003424015
0.0006697478
0.0009374424
0.0012047
0.001480877
0.001760785
0.002038338
0.002308941
0.002569693
0.002819038
0.003056599
0.00328281
0.003498579
0.00370455
0.003903144
0.004095246
0.00428179
0.004463268
0.004639735
0.004810553
0.004975118
0.005132839
0.005283048
0.005424975
0.005557803
0.005680741
0.005791936
0.005892502
0.005981195
0.006057094
0.006119733
0.006168881
0.006204591
0.00622632
0.00623369
0.006226374
0.006204072
0.006166461
0.006113138
0.006043615
0.005957322
0.005853638
0.005731983
0.005591634
0.005431229
0.005248897
0.005042815
0.004811576
0.00455386
0.004267973
0.003880352
0.003410715
0.003031392
0.002709445
0.002334671
0.00181075
0.001209406
0.0005632304
6.535429e-05
3.766995e-05
0.0003290076
0.000672134
0.000957054
0.001230359
0.001507609
0.001787307
0.002064915
0.002336553
0.002599772
0.002853386
0.003097279
0.00333204
0.003558672
0.003778248
0.003991718
0.004200188
0.004404296
0.004604293
0.004800126
0.004991222
0.005176466
0.005354457
0.005523776
0.005683093
0.005831109
0.005966501
0.006087715
0.006198645
0.006296274
0.006379764
0.006448436
0.006501754
0.006539421
0.006561101
0.006566523
0.006555423
0.006527514
0.006482466
0.00641988
0.006339301
0.00624028
0.006122415
0.005984963
0.005826796
0.005646602
0.005443144
0.005215381
0.004962327
0.004682977
0.00423918
0.003742976
0.003337347
0.0030037
0.002695402
0.002347749
0.001828462
0.00122227
0.0005750261
6.493599e-05
3.861894e-05
0.0003141818
0.0006660694
0.0009656018
0.001245061
0.001523201
0.001801688
0.002077994
0.002349544
0.002614589
0.002872411
0.003123183
0.003367666
0.003606884
0.003841781
0.004072863
0.004300087
0.004522044
0.004736856
0.004948139
0.005154976
0.005356033
0.005549747
0.005734734
0.00590965
0.006073326
0.006224855
0.006361408
0.006482864
0.006588039
0.006676572
0.006748107
0.006802422
0.006839366
0.006858608
0.006859928
0.006843117
0.006807943
0.006754113
0.00668124
0.00658881
0.006476267
0.006343937
0.006190746
0.006015649
0.005817745
0.005596267
0.005350425
0.005079412
0.004625117
0.004111438
0.003675816
0.003314313
0.003000891
0.002708087
0.002375425
0.001856098
0.0012439
0.0005864763
6.51287e-05
3.946221e-05
0.000300115
0.0006557226
0.0009675368
0.001252
0.001529584
0.001805925
0.002080646
0.002352052
0.002618971
0.002881125
0.003138818
0.003392578
0.003642606
0.003888089
0.004046202
0.004171044
0.004327515
0.004536004
0.004816823
0.005195157
0.005537596
0.005747211
0.005947191
0.006135268
0.006309876
0.006469781
0.006613313
0.006740272
0.006849456
0.006940271
0.00701227
0.007065125
0.007098706
0.007112978
0.007107898
0.00708339
0.007039361
0.0069757
0.006892313
0.006789114
0.00666578
0.006520694
0.006353392
0.006163285
0.005949578
0.005712473
0.00545106
0.005018622
0.004493782
0.004028329
0.003634135
0.003292057
0.002984455
0.002691269
0.002361521
0.001867368
0.001252166
0.0005928951
6.49426e-05
4.011042e-05
0.0002874885
0.0006425959
0.0009642058
0.00125325
0.001530884
0.001805292
0.002078015
0.002348745
0.002617025
0.002882659
0.003145673
0.003405725
0.003661393
0.003815972
0.003884647
0.003969286
0.004091971
0.004258769
0.004476752
0.00474626
0.005095402
0.005538088
0.006028692
0.006349676
0.006531979
0.006697558
0.006845009
0.006973909
0.007083469
0.007173277
0.007243099
0.007292857
0.00732245
0.007331709
0.00732054
0.007288855
0.007236551
0.007163496
0.007069492
0.00695427
0.006817426
0.006658712
0.006477908
0.006274826
0.006049344
0.005800005
0.005411081
0.004890226
0.004404512
0.00398089
0.003612011
0.003282087
0.002981079
0.002695511
0.002374285
0.001877848
0.001260612
0.0005981218
6.501085e-05
4.05978e-05
0.0002755572
0.000628043
0.0009563617
0.00124993
0.001528117
0.001800883
0.002071767
0.002341726
0.002610943
0.002879322
0.003146416
0.003411051
0.003670704
0.003742133
0.003763122
0.003813112
0.003909636
0.004053854
0.00424854
0.004496825
0.004797496
0.005172032
0.005632379
0.00616203
0.006665821
0.006890001
0.007039658
0.007169629
0.007279242
0.007368079
0.007435871
0.007482461
0.007507741
0.007511628
0.007494074
0.007455036
0.00739447
0.007312314
0.007208493
0.007082905
0.006935437
0.006765957
0.006574313
0.006360319
0.006123754
0.005820628
0.005309038
0.004798835
0.004344875
0.003949153
0.003595446
0.003271087
0.002969835
0.002681788
0.002362541
0.001884981
0.001265495
0.0006005327
6.499634e-05
4.096267e-05
0.000265351
0.000613128
0.000945851
0.00124322
0.001522275
0.001794127
0.00206379
0.002333319
0.002603394
0.002874031
0.003144529
0.003413161
0.003676738
0.003716452
0.003700954
0.003724995
0.003805129
0.003935296
0.004112924
0.004342318
0.004632422
0.004992184
0.005434739
0.00595063
0.006505741
0.006997083
0.007201741
0.007332167
0.007441204
0.007528497
0.007593804
0.007636977
0.007657933
0.007656632
0.00763307
0.007587262
0.007519237
0.007429028
0.007316669
0.007182192
0.007025626
0.006846986
0.006646264
0.006423421
0.006178374
0.005760479
0.005244498
0.004753491
0.004321333
0.003939343
0.003591983
0.003270569
0.002971355
0.002686444
0.002369944
0.001890467
0.001269832
0.0006038439
6.499395e-05
4.115459e-05
0.000256626
0.0005984201
0.0009334938
0.001234019
0.001514285
0.001785875
0.002054996
0.002324552
0.002595747
0.002868706
0.003142524
0.003414972
0.003682249
0.003715929
0.003670094
0.003671642
0.003740175
0.003863747
0.004034776
0.004255802
0.004536534
0.004891092
0.00532956
0.005853026
0.006424803
0.006967869
0.007331439
0.007462575
0.007571202
0.007657094
0.007720093
0.007760108
0.00777711
0.007771112
0.007742161
0.007690342
0.007615765
0.007518562
0.007398884
0.007256891
0.007092749
0.006906613
0.006698613
0.006468842
0.006176708
0.00569055
0.005185182
0.004719533
0.004305626
0.003929453
0.003584959
0.003264781
0.002965055
0.002680171
0.00236555
0.001893045
0.001271822
0.0006045185
6.502046e-05
4.131024e-05
0.0002492012
0.0005846061
0.0009201223
0.001223052
0.001504804
0.001776876
0.00204626
0.002316627
0.002589626
0.002865472
0.003143027
0.003419638
0.003691018
0.003729433
0.003660234
0.003643913
0.003704897
0.003826381
0.00399619
0.004215565
0.004495151
0.004850665
0.005295532
0.005828191
0.006420024
0.006994719
0.007432234
0.007564404
0.007673078
0.007757931
0.007819027
0.007856351
0.007869944
0.007859882
0.007826278
0.007769292
0.007689125
0.007586014
0.007460227
0.007312058
0.007141806
0.006949768
0.006736209
0.006501343
0.006148783
0.005656526
0.005153546
0.004696817
0.004295119
0.003929429
0.003588426
0.003268475
0.002969363
0.002684765
0.002369849
0.001896794
0.001274442
0.0006062376
6.502802e-05
4.134304e-05
0.0002433129
0.0005721709
0.0009070271
0.001211727
0.001495169
0.001768428
0.002038962
0.00231103
0.002586629
0.002865981
0.003147643
0.003428474
0.00370364
0.003748197
0.00366044
0.003630906
0.003688167
0.003811228
0.003983739
0.004205336
0.004487387
0.004847931
0.005302984
0.005852703
0.006464377
0.007058656
0.007510082
0.007643236
0.007751951
0.007836013
0.007895543
0.007930599
0.007941285
0.007927746
0.007890164
0.007828781
0.00774389
0.007635829
0.007504983
0.007351763
0.007176596
0.006979899
0.006762054
0.006523382
0.006122705
0.005622935
0.005128221
0.004680961
0.004282854
0.003922106
0.003587869
0.003269923
0.002968895
0.002683838
0.002369401
0.001897534
0.001274807
0.0006064364
6.506689e-05
4.133926e-05
0.0002385278
0.0005611042
0.0008940779
0.001200116
0.001485548
0.001760777
0.002033499
0.002308385
0.002587627
0.002871356
0.003157793
0.003443346
0.003722747
0.003765828
0.003663786
0.003626938
0.003684708
0.00381191
0.003989009
0.004215584
0.004504375
0.004875046
0.005344822
0.005914235
0.006546936
0.007150323
0.007570816
0.00770458
0.007813163
0.007896463
0.0079546
0.007987677
0.007995853
0.007979329
0.007938358
0.007873259
0.007784415
0.007672265
0.0075373
0.007380041
0.007201024
0.007000767
0.006779741
0.006538337
0.00611931
0.005614166
0.005120897
0.004677326
0.004282818
0.003924045
0.003589064
0.003271695
0.00297273
0.00268799
0.002373018
0.001900084
0.001276393
0.0006072892
6.508949e-05
4.127744e-05
0.0002350242
0.0005521819
0.0008828507
0.001189788
0.001477459
0.001755494
0.002031584
0.002310518
0.002594507
0.002883488
0.003175324
0.00346589
0.003749073
0.003782326
0.003668363
0.003628986
0.003690557
0.003824732
0.004010702
0.004245231
0.004541248
0.004920947
0.005408433
0.006002936
0.006657543
0.007259216
0.007619479
0.007753316
0.007861455
0.007943868
0.008000638
0.008031892
0.008037823
0.00801868
0.007974777
0.007906507
0.007814335
0.007698792
0.007560463
0.007399968
0.007217929
0.007014948
0.006791559
0.006548194
0.006113969
0.00560501
0.005114012
0.004674303
0.00428286
0.003925042
0.003590472
0.003272981
0.002974858
0.002690804
0.00237648
0.001900527
0.001276349
0.0006070922
6.514048e-05
4.123162e-05
0.0002323105
0.000544298
0.0008725512
0.001180437
0.001470771
0.001752419
0.002032926
0.002317061
0.002606858
0.00290186
0.003199362
0.003494593
0.003781409
0.003787799
0.003667175
0.003633849
0.003707039
0.003850988
0.004040756
0.004281279
0.004591985
0.004991635
0.005500144
0.006117555
0.006789163
0.007380451
0.00765994
0.007793285
0.007900621
0.007982017
0.008037347
0.008066837
0.008070695
0.008049206
0.008002735
0.007931738
0.007836753
0.007718393
0.007577326
0.00741425
0.007229865
0.007024828
0.006799722
0.006555004
0.006117575
0.005605527
0.005113781
0.004675028
0.004285072
0.003928803
0.003594545
0.003275685
0.002978947
0.0026957
0.002379412
0.001902378
0.001277456
0.0006075668
6.518744e-05
4.11701e-05
0.0002306678
0.0005382629
0.0008640724
0.00117302
0.001466639
0.001753016
0.002039274
0.002329921
0.002626661
0.002928602
0.003232371
0.00353197
0.00382126
0.003785485
0.003665513
0.003644304
0.003723981
0.00387609
0.004082515
0.004341054
0.004663203
0.005076607
0.005605145
0.006244552
0.006929493
0.007504986
0.007695113
0.00782748
0.007933695
0.008013756
0.008067569
0.008095317
0.008097218
0.008073581
0.008024816
0.007951434
0.007854036
0.007733305
0.007589977
0.007424818
0.007238581
0.007031968
0.006805589
0.006559909
0.00612198
0.005608185
0.005117157
0.004680757
0.004291026
0.003932807
0.003597501
0.003280917
0.002984681
0.002699944
0.002383982
0.001903363
0.001277862
0.0006076312
6.523562e-05
4.112807e-05
0.000229927
0.0005339886
0.0008578077
0.001168185
0.001465773
0.001757833
0.002050935
0.002349065
0.002653404
0.002962321
0.003271645
0.003575811
0.003867031
0.003777189
0.003655247
0.003648401
0.003750436
0.003922796
0.004139012
0.00440304
0.004736129
0.005170304
0.005728344
0.006393385
0.00707616
0.007570271
0.007727124
0.00785805
0.007962811
0.008041325
0.008093507
0.008119496
0.008119506
0.008093866
0.008043018
0.007967519
0.007868026
0.007745278
0.007600069
0.007433215
0.007245513
0.007037694
0.006810381
0.006564039
0.006130484
0.005615404
0.005122438
0.004682886
0.004293725
0.003939812
0.003605225
0.00328719
0.002990545
0.00270579
0.002388057
0.001905084
0.001278878
0.0006079555
6.529177e-05
4.112415e-05
0.0002292041
0.0005303657
0.0008527507
0.001165376
0.001468031
0.001767014
0.002068167
0.002374934
0.002687848
0.003004563
0.003318934
0.003625369
0.003876763
0.003747523
0.003642604
0.003664843
0.003790228
0.003971088
0.004192019
0.004463373
0.004814279
0.005276736
0.005868222
0.00655844
0.007224956
0.007602317
0.007757264
0.007886419
0.007989475
0.008066275
0.00811673
0.008140936
0.0081391
0.008111563
0.008058795
0.007981389
0.007880047
0.007755557
0.007608757
0.007440505
0.007251626
0.007042869
0.006814861
0.006568055
0.006138671
0.005621624
0.00512567
0.004687344
0.004302292
0.003949464
0.003613864
0.003293838
0.002993352
0.002710331
0.002393744
0.0019065
0.001279601
0.0006081262
6.534464e-05
4.109794e-05
0.0002293307
0.0005288131
0.0008507901
0.001166522
0.001475122
0.001781989
0.002092213
0.00240845
0.002730228
0.003052295
0.003371311
0.003678936
0.003844286
0.003711938
0.003640901
0.003690835
0.003828088
0.004015102
0.004244166
0.004531062
0.004904935
0.00539791
0.006022153
0.006731456
0.007371904
0.007633626
0.007786404
0.007913559
0.008014726
0.00808969
0.008138344
0.008160748
0.008157102
0.008127755
0.008073197
0.007994053
0.007891062
0.00776505
0.007616891
0.007447471
0.007257636
0.007048143
0.006819612
0.00657248
0.006145442
0.005626055
0.005130325
0.004694496
0.004311085
0.003958116
0.003622752
0.00330288
0.003002567
0.002715311
0.002395286
0.001908336
0.001280723
0.0006085181
6.540395e-05
4.112861e-05
0.0002299192
0.0005278688
0.0008506705
0.001170608
0.001486246
0.001802149
0.002122486
0.00244878
0.002777361
0.003106552
0.003428698
0.003736236
0.003797866
0.003679591
0.003641052
0.003714829
0.003864735
0.004062291
0.004302766
0.004606718
0.005007258
0.00553499
0.006191025
0.006904161
0.007489647
0.007664876
0.007815246
0.007940201
0.008039322
0.00811234
0.008159126
0.008179708
0.00817428
0.008143192
0.008086952
0.008006208
0.00790173
0.007774373
0.007625038
0.007454631
0.007264007
0.007053924
0.006824987
0.006577611
0.006151629
0.005630213
0.005135631
0.004703275
0.004321418
0.003968888
0.0036322
0.003310107
0.003007551
0.002719759
0.002399257
0.001910127
0.001281725
0.0006088318
6.546104e-05
4.11926e-05
0.000230462
0.0005279954
0.0008526357
0.001178039
0.001502061
0.001828309
0.002159832
0.002494477
0.002832377
0.003166988
0.00349128
0.00379753
0.003750846
0.003643987
0.003640692
0.003741624
0.003907018
0.004114104
0.004367036
0.004691416
0.005122563
0.005688231
0.006375561
0.007075083
0.007524463
0.00769665
0.007844325
0.007966859
0.008063766
0.008134727
0.008179578
0.008198324
0.008191141
0.008158383
0.008100558
0.008018339
0.007912515
0.007783965
0.007633609
0.007462363
0.007271085
0.007060523
0.006831265
0.006583696
0.006156278
0.005633902
0.005140926
0.004711678
0.004331999
0.003979977
0.003642572
0.003318989
0.003014522
0.002724441
0.002402144
0.001912144
0.001282963
0.0006092647
6.552365e-05
4.128157e-05
0.0002314959
0.0005292035
0.0008570344
0.001189148
0.001523073
0.001861136
0.002201956
0.002547665
0.002892892
0.003231386
0.003555645
0.003802644
0.003693885
0.003612707
0.003646228
0.003769889
0.003949612
0.004167818
0.004436296
0.004785243
0.005250777
0.005854624
0.006565244
0.00723978
0.007557622
0.007727164
0.007872432
0.007992765
0.008087634
0.008156696
0.008199749
0.008216779
0.008207962
0.008173629
0.008114338
0.008030763
0.007923723
0.007794112
0.007642865
0.007470899
0.007279069
0.007068108
0.006838579
0.006590834
0.006158904
0.005636421
0.005146382
0.004720303
0.004342966
0.003991395
0.003652718
0.00332694
0.003020292
0.002728643
0.002405306
0.001914224
0.001284217
0.000609705
6.558475e-05
4.139668e-05
0.0002327996
0.0005316634
0.0008638042
0.001204887
0.001549722
0.001897761
0.002251304
0.002606346
0.002957707
0.003298489
0.003620977
0.003740949
0.003635261
0.003590789
0.003656185
0.003802806
0.003995347
0.004225462
0.004512407
0.004890243
0.005393512
0.006033295
0.00675594
0.007393505
0.007591532
0.007758224
0.007900939
0.008018967
0.008111729
0.00817885
0.008220095
0.00823543
0.00822502
0.008189225
0.008128546
0.008043724
0.007935582
0.007805028
0.007652999
0.007480412
0.007288111
0.007076809
0.00684704
0.006599121
0.00616001
0.005637013
0.005151079
0.004729254
0.004354762
0.004003708
0.003663677
0.003335614
0.003026556
0.002732898
0.002408273
0.001916436
0.001285595
0.000610198
6.5649e-05
4.154234e-05
0.0002344651
0.0005354543
0.0008742944
0.001223961
0.001580029
0.001941485
0.002306235
0.002669864
0.003026134
0.00336761
0.003686416
0.003666971
0.00357485
0.003574318
0.003675066
0.003841283
0.004045149
0.004288191
0.004596717
0.005007547
0.005552883
0.006229292
0.006941215
0.007439348
0.007625911
0.007789709
0.007929845
0.008045554
0.008136206
0.008201391
0.008240841
0.008254506
0.008242542
0.008205309
0.008143353
0.008057388
0.007948249
0.007816849
0.007664129
0.007490999
0.007298284
0.007086675
0.006856675
0.006608564
0.006159513
0.005636282
0.005155107
0.004738576
0.004367117
0.004016363
0.003674609
0.003343925
0.003032302
0.002736705
0.002410992
0.001918741
0.00128706
0.0006107407
6.571277e-05
4.171362e-05
0.0002362961
0.0005402113
0.000885571
0.001246851
0.001616264
0.001990621
0.002366069
0.002736977
0.003096311
0.0034363
0.003678618
0.003589487
0.003524753
0.003568097
0.003698631
0.003881044
0.004096687
0.004355647
0.004689877
0.005137459
0.005724676
0.006428868
0.007117945
0.00747688
0.007660388
0.007821431
0.007959077
0.008072527
0.008161117
0.008224405
0.008262103
0.008274149
0.008260696
0.008222106
0.008158937
0.008071904
0.007961849
0.007829685
0.007676346
0.007502728
0.007309637
0.007097735
0.006867493
0.006619154
0.006157145
0.005634001
0.005158766
0.004748282
0.004380104
0.00402953
0.00368583
0.003352327
0.003037985
0.002740362
0.002413619
0.001921121
0.001288593
0.0006113111
6.577635e-05
4.191197e-05
0.0002384412
0.0005463481
0.0009004794
0.001274028
0.001657113
0.002044174
0.002429507
0.002806301
0.003166874
0.003503191
0.003593625
0.003511885
0.003491742
0.003572973
0.003728403
0.003924796
0.004152545
0.004430441
0.004794664
0.005281915
0.005908586
0.006629845
0.007283654
0.007514332
0.007694965
0.007853389
0.007988653
0.008099927
0.008186523
0.008247973
0.008283976
0.008294461
0.008279581
0.008239703
0.008175389
0.008087362
0.007976462
0.0078436
0.007689697
0.007515632
0.007322185
0.007109984
0.006879466
0.006630838
0.006152636
0.005630258
0.005162627
0.004758781
0.0043938
0.00404306
0.003697057
0.003360465
0.003043242
0.002743539
0.002415877
0.00192358
0.001290227
0.0006119509
6.583993e-05
4.21342e-05
0.0002408886
0.0005538196
0.0009182586
0.0013054
0.001702665
0.002102066
0.002496192
0.002877215
0.003237024
0.00356076
0.003501928
0.003438023
0.003468436
0.003587246
0.003762657
0.003970668
0.004211684
0.004511917
0.004910585
0.005441993
0.006107531
0.006822106
0.007353472
0.007552099
0.007729891
0.007885755
0.008018699
0.008127858
0.008212517
0.008272182
0.008306541
0.008315519
0.008299271
0.008258168
0.008192775
0.008103818
0.007992138
0.007858635
0.007704218
0.007529739
0.007335947
0.007123431
0.006892584
0.006641146
0.006146064
0.005626424
0.005166928
0.004769862
0.004407934
0.004056781
0.003708234
0.00336838
0.003048197
0.002746452
0.002418024
0.001926077
0.001291905
0.000612618
6.590022e-05
4.237793e-05
0.0002436999
0.0005628287
0.000938586
0.001339984
0.001751382
0.002162244
0.002563544
0.002946709
0.003303471
0.003470208
0.003411632
0.003389796
0.003460838
0.003608131
0.003799837
0.004019286
0.004276081
0.004602796
0.005039542
0.005614712
0.006310741
0.007004584
0.007394209
0.007589919
0.007765055
0.007918498
0.008049227
0.008156353
0.008239142
0.00829708
0.00832985
0.008337377
0.008319817
0.008277545
0.008211132
0.008121304
0.008008899
0.007874805
0.007719912
0.007545045
0.007350918
0.007138082
0.006906887
0.006635237
0.006136957
0.005623384
0.005172147
0.004781555
0.004422355
0.004070492
0.003719151
0.003375852
0.003052596
0.002748781
0.002419721
0.001928609
0.001293657
0.0006133524
6.596093e-05
4.26419e-05
0.0002468101
0.0005731785
0.0009618098
0.001378359
0.001803822
0.002225348
0.00263267
0.003016552
0.003367197
0.003373149
0.003328869
0.003353608
0.003464851
0.003635874
0.003840654
0.004071682
0.00434727
0.004704546
0.005181842
0.005797998
0.006513532
0.007174161
0.007434733
0.007627783
0.00780046
0.007951635
0.008080268
0.008185451
0.008266443
0.008322715
0.00835395
0.008360077
0.008341259
0.008297878
0.008230494
0.008139841
0.008026754
0.007892108
0.007736766
0.007561524
0.007367058
0.007153879
0.006922295
0.006627716
0.006126365
0.005619972
0.005178159
0.004794165
0.004437383
0.004084405
0.003729945
0.003383006
0.00305662
0.002750813
0.002421303
0.001931158
0.001295438
0.000614112
6.601654e-05
4.292569e-05
0.0002503279
0.0005852062
0.0009870562
0.001418652
0.001857407
0.002288045
0.002698747
0.003078836
0.003301006
0.003275656
0.003263767
0.003335217
0.003478418
0.003667233
0.003883255
0.004127298
0.004425116
0.004817326
0.005338977
0.005994032
0.006706729
0.007266045
0.007475483
0.007665973
0.007836302
0.007985311
0.008111939
0.00821523
0.008294488
0.008349146
0.008378893
0.008383664
0.008363629
0.008319176
0.008250866
0.00815944
0.008045715
0.007910547
0.007754774
0.00757916
0.007384343
0.007170791
0.006938772
0.006618636
0.006114729
0.005616818
0.005184953
0.004807569
0.004452883
0.004098399
0.003740499
0.003389712
0.003060089
0.002752274
0.002422445
0.001933695
0.001297252
0.0006149181
6.607316e-05
4.322537e-05
0.0002542289
0.0005983664
0.001015174
0.001462178
0.001913574
0.002351769
0.002763363
0.00314037
0.003202143
0.003186872
0.003221643
0.003330794
0.003498471
0.003701594
0.003928492
0.004188199
0.004512346
0.004942434
0.005507731
0.006194324
0.006888674
0.007309569
0.007516414
0.007704516
0.007872632
0.008019582
0.008144285
0.008245774
0.008323346
0.008376434
0.008404734
0.008408186
0.008386971
0.00834148
0.008272293
0.008180128
0.008065793
0.007930122
0.007773925
0.007597933
0.007402742
0.00718878
0.00695627
0.006608562
0.00610247
0.005613918
0.005192508
0.004821711
0.00446879
0.004112413
0.003750777
0.003395978
0.003063089
0.002753371
0.002423428
0.001936222
0.001299074
0.0006157305
6.612425e-05
4.354458e-05
0.0002585677
0.0006131545
0.001044084
0.001505717
0.001967854
0.002411332
0.00282348
0.003079341
0.003105245
0.00312067
0.003195081
0.003336712
0.003524082
0.00373884
0.003977154
0.004255569
0.00460979
0.005079704
0.005685663
0.006392927
0.00705715
0.007352913
0.007557466
0.007743401
0.007909472
0.008054489
0.008177363
0.008277123
0.008353064
0.008404629
0.00843152
0.008433692
0.008411333
0.008364843
0.008294802
0.00820192
0.00808699
0.007950824
0.0077942
0.00761781
0.007422212
0.007207789
0.006974725
0.006597623
0.00608965
0.005611574
0.005201015
0.004836622
0.004485042
0.00412636
0.00376069
0.003401702
0.003065469
0.002753857
0.002423943
0.001938695
0.001300888
0.0006165589
6.617691e-05
4.387835e-05
0.0002633567
0.0006292204
0.001075301
0.001550799
0.002023525
0.002471489
0.002878727
0.002990936
0.00301692
0.003069729
0.003184289
0.003351184
0.003553112
0.003778172
0.004029372
0.004329648
0.004717728
0.00523
0.005872944
0.006582246
0.007176817
0.007396472
0.007598892
0.007782807
0.007946956
0.008090139
0.008211259
0.008309346
0.008383702
0.008433778
0.008459293
0.008460215
0.008436744
0.008389278
0.008318401
0.008224818
0.008109302
0.007972638
0.007815572
0.007638754
0.007442702
0.007227758
0.006994065
0.006585903
0.006077185
0.005610102
0.005210578
0.004852297
0.004501578
0.004140173
0.003770192
0.003406878
0.003067291
0.002753908
0.002424248
0.001941142
0.001302696
0.0006173767
6.622396e-05
4.422988e-05
0.0002686317
0.0006464294
0.001107247
0.001595792
0.002075635
0.00252327
0.002814975
0.00289988
0.002951297
0.003041339
0.003184532
0.003370482
0.003584466
0.003820032
0.004086327
0.004411604
0.004835957
0.005390384
0.006065457
0.006760052
0.007222997
0.007440492
0.007640892
0.00782289
0.007985207
0.008126627
0.008246048
0.008342506
0.008415307
0.008463921
0.008488081
0.008487771
0.008463202
0.008414781
0.00834309
0.00824882
0.008132721
0.00799555
0.007838015
0.007660728
0.00746416
0.007248615
0.0070142
0.006573247
0.006065355
0.005610141
0.005221471
0.004868698
0.004518272
0.004153739
0.003779191
0.003411409
0.003068427
0.002753323
0.002424086
0.001943509
0.001304469
0.0006181901
6.627264e-05
4.459657e-05
0.0002743466
0.0006644461
0.001139436
0.001639397
0.002124947
0.002558169
0.002735543
0.002821113
0.002904253
0.003025144
0.003192076
0.003393607
0.003618275
0.003865248
0.00414925
0.004502604
0.004964825
0.005558492