/*--------------------------------*- C++ -*----------------------------------*\
| =========                 |                                                 |
| \\      /  F ield         | OpenFOAM: The Open Source CFD Toolbox           |
|  \\    /   O peration     | Version:  2312                                  |
|   \\  /    A nd           | Website:  www.openfoam.com                      |
|    \\/     M anipulation  |                                                 |
\*---------------------------------------------------------------------------*/
FoamFile
{
    version     2.0;
    format      ascii;
    arch        "LSB;label=32;scalar=64";
    class       volVectorField;
    location    "2500";
    object      U;
}
// * * * * * * * * * * * * * * * * * * * * * * * * * * * * * * * * * * * * * //

dimensions      [0 1 -1 0 0 0 0];

internalField   nonuniform List<vector> 
12000
(
(-0.02779272 0.0671587 0)
(-0.07197115 0.07480325 0)
(-0.1237738 0.08074128 0)
(-0.1753494 0.08073557 0)
(-0.2254874 0.07769013 0)
(-0.271599 0.07917409 0)
(-0.3168455 0.08352063 0)
(-0.3587211 0.08609221 0)
(-0.401202 0.06884236 0)
(-0.4364312 0.05703974 0)
(-0.46874 0.05123299 0)
(-0.4993831 0.06081614 0)
(-0.5317206 0.05810364 0)
(-0.559142 0.04095232 0)
(-0.5813235 0.02858742 0)
(-0.6009963 0.03622262 0)
(-0.6233104 0.04760531 0)
(-0.6453256 0.03829892 0)
(-0.661889 0.01982981 0)
(-0.674629 0.01802434 0)
(-0.6883514 0.03082554 0)
(-0.7042405 0.03252434 0)
(-0.7171396 0.01878853 0)
(-0.7262996 0.01026097 0)
(-0.7344166 0.01584032 0)
(-0.74426 0.02162077 0)
(-0.7534365 0.01773539 0)
(-0.7607083 0.01073546 0)
(-0.766085 0.007962121 0)
(-0.7710702 0.008955041 0)
(-0.7758213 0.01046604 0)
(-0.7804939 0.008929911 0)
(-0.7837037 0.003109478 0)
(-0.7848376 -0.0004026423 0)
(-0.7855994 0.001878923 0)
(-0.786649 0.005131159 0)
(-0.7870978 0.006767147 0)
(-0.7880538 -0.001097379 0)
(-0.7846596 -0.01644865 0)
(-0.7774787 -0.02641722 0)
(-0.7686465 -0.004546042 0)
(-0.7674479 0.02157297 0)
(-0.7669213 0.003857126 0)
(-0.7571066 -0.05049744 0)
(-0.7355721 -0.05023894 0)
(-0.7218429 0.006464109 0)
(-0.7179763 0.009876989 0)
(-0.7022889 -0.05451162 0)
(-0.6720846 -0.07200503 0)
(-0.646407 -0.02868759 0)
(-0.6256479 -0.02527777 0)
(-0.5955923 -0.07021628 0)
(-0.5519294 -0.08859208 0)
(-0.5094636 -0.07805359 0)
(-0.4599214 -0.09187243 0)
(-0.4048716 -0.1149819 0)
(-0.3354901 -0.1261646 0)
(-0.2557547 -0.1471384 0)
(-0.1484461 -0.1606708 0)
(-0.06000466 -0.1613146 0)
(-0.02869949 0.2075719 0)
(-0.07249672 0.210356 0)
(-0.1222338 0.2126355 0)
(-0.1650504 0.2097077 0)
(-0.2077826 0.1990812 0)
(-0.2484087 0.1814931 0)
(-0.2838342 0.1672033 0)
(-0.3167871 0.1560582 0)
(-0.3442485 0.1524744 0)
(-0.3722292 0.1382704 0)
(-0.3983594 0.1287175 0)
(-0.4218966 0.121029 0)
(-0.4401197 0.1131338 0)
(-0.458492 0.1022039 0)
(-0.4775973 0.09198804 0)
(-0.49564 0.08524761 0)
(-0.5085428 0.08017161 0)
(-0.5188295 0.07316623 0)
(-0.5308405 0.065009 0)
(-0.5441077 0.05892324 0)
(-0.5542559 0.05510834 0)
(-0.5606869 0.05099996 0)
(-0.5672493 0.04545559 0)
(-0.5756033 0.0403351 0)
(-0.5830899 0.03685278 0)
(-0.5877995 0.03403739 0)
(-0.5911974 0.0305871 0)
(-0.5950349 0.02664008 0)
(-0.5989443 0.02300483 0)
(-0.601949 0.02011043 0)
(-0.6036413 0.0177152 0)
(-0.6045374 0.01483185 0)
(-0.6056006 0.01081664 0)
(-0.6064093 0.006372925 0)
(-0.6064536 0.004430686 0)
(-0.6046592 0.0009170296 0)
(-0.6015099 -0.00141231 0)
(-0.5973694 -0.005948635 0)
(-0.5943809 -0.01252921 0)
(-0.5931432 -0.01838506 0)
(-0.5901287 -0.02215357 0)
(-0.5797085 -0.0251712 0)
(-0.5648426 -0.03112526 0)
(-0.5568236 -0.04051719 0)
(-0.5551494 -0.04898751 0)
(-0.5442028 -0.055404 0)
(-0.5203308 -0.06327934 0)
(-0.5014635 -0.07544642 0)
(-0.4921064 -0.08868824 0)
(-0.474574 -0.1021316 0)
(-0.4446195 -0.1185507 0)
(-0.4173239 -0.1385194 0)
(-0.3903845 -0.1609968 0)
(-0.3682427 -0.1817244 0)
(-0.3215947 -0.2101695 0)
(-0.3011154 -0.2291175 0)
(-0.229919 -0.319617 0)
(-0.2008439 -0.3587604 0)
(-0.1055193 -0.4315869 0)
(-0.06285491 -0.4494185 0)
(-0.02223061 0.3487142 0)
(-0.05805734 0.3441443 0)
(-0.09078577 0.3383404 0)
(-0.1249226 0.3239213 0)
(-0.1575692 0.3083172 0)
(-0.1809679 0.2952136 0)
(-0.2153431 0.2725953 0)
(-0.2355864 0.2558199 0)
(-0.2655222 0.2262416 0)
(-0.2853344 0.2081255 0)
(-0.3071782 0.1915541 0)
(-0.3238724 0.1767353 0)
(-0.3401673 0.1615814 0)
(-0.3548106 0.1469901 0)
(-0.3684998 0.1341825 0)
(-0.3812153 0.1229884 0)
(-0.3924565 0.1125912 0)
(-0.4025098 0.1023789 0)
(-0.4120913 0.09284477 0)
(-0.421201 0.08465277 0)
(-0.4293066 0.0773177 0)
(-0.4363047 0.07004764 0)
(-0.4426455 0.06282381 0)
(-0.4485718 0.05627122 0)
(-0.4538492 0.05053902 0)
(-0.458257 0.0451181 0)
(-0.4619166 0.03960137 0)
(-0.4650606 0.03402283 0)
(-0.4676748 0.02842632 0)
(-0.469572 0.02321748 0)
(-0.4710958 0.01853447 0)
(-0.4717611 0.0151784 0)
(-0.4719058 0.01060439 0)
(-0.4714936 0.002863598 0)
(-0.4703799 -0.002408261 0)
(-0.468344 -0.007378914 0)
(-0.4654736 -0.012818 0)
(-0.4616834 -0.01945026 0)
(-0.4574019 -0.02736102 0)
(-0.4526893 -0.03557177 0)
(-0.4470281 -0.04275109 0)
(-0.4397278 -0.05028159 0)
(-0.4311499 -0.06026042 0)
(-0.4218473 -0.07231166 0)
(-0.4117752 -0.0841665 0)
(-0.4001858 -0.09610184 0)
(-0.3861042 -0.1106252 0)
(-0.3714778 -0.1273351 0)
(-0.3556139 -0.1457501 0)
(-0.3371856 -0.1657224 0)
(-0.3174387 -0.1882541 0)
(-0.2958702 -0.2127684 0)
(-0.2716374 -0.2339662 0)
(-0.2503797 -0.2528188 0)
(-0.2157052 -0.3005803 0)
(-0.1746891 -0.3633526 0)
(-0.1427089 -0.412425 0)
(-0.1057353 -0.4784416 0)
(-0.06947589 -0.5582536 0)
(-0.02365237 -0.6147876 0)
(-0.01508016 0.4378025 0)
(-0.0417415 0.4248189 0)
(-0.06573126 0.4122106 0)
(-0.090118 0.3931191 0)
(-0.1119171 0.3710065 0)
(-0.1321307 0.3498626 0)
(-0.1499347 0.326921 0)
(-0.1699296 0.305299 0)
(-0.182105 0.2908443 0)
(-0.2006462 0.2657674 0)
(-0.216339 0.2397911 0)
(-0.2329179 0.2189316 0)
(-0.2456337 0.2043635 0)
(-0.2603025 0.1852397 0)
(-0.2717098 0.1692866 0)
(-0.283017 0.1551076 0)
(-0.2930972 0.1421758 0)
(-0.3021939 0.1301646 0)
(-0.3104811 0.1190186 0)
(-0.3182807 0.10855 0)
(-0.3255663 0.09861497 0)
(-0.3320843 0.08927698 0)
(-0.3378807 0.08045661 0)
(-0.3429294 0.07217035 0)
(-0.347252 0.0643727 0)
(-0.3508724 0.05695109 0)
(-0.3537565 0.04980782 0)
(-0.3563209 0.04276785 0)
(-0.3584448 0.03568615 0)
(-0.3599536 0.02897127 0)
(-0.3608202 0.02426276 0)
(-0.3611223 0.01679194 0)
(-0.3603391 0.009404574 0)
(-0.3593222 0.001982596 0)
(-0.3579467 -0.005443865 0)
(-0.3558225 -0.0131226 0)
(-0.3529256 -0.02110629 0)
(-0.34932 -0.02953309 0)
(-0.3451612 -0.03869266 0)
(-0.3404743 -0.04858909 0)
(-0.3350925 -0.05919048 0)
(-0.328504 -0.07058147 0)
(-0.3212984 -0.08274578 0)
(-0.3134917 -0.09644876 0)
(-0.3046275 -0.1116439 0)
(-0.2950649 -0.1282328 0)
(-0.2828838 -0.1465556 0)
(-0.2721678 -0.1621386 0)
(-0.2579564 -0.1875429 0)
(-0.243772 -0.2128101 0)
(-0.2279482 -0.2369673 0)
(-0.2130062 -0.2620992 0)
(-0.1927174 -0.2995112 0)
(-0.1663389 -0.3517249 0)
(-0.1403007 -0.4020776 0)
(-0.1167689 -0.4490561 0)
(-0.09202738 -0.5057109 0)
(-0.06757941 -0.5718046 0)
(-0.03958717 -0.6551352 0)
(-0.01734854 -0.713085 0)
(-0.01078502 0.5080438 0)
(-0.03072382 0.4925482 0)
(-0.04917092 0.4749627 0)
(-0.06738195 0.4525951 0)
(-0.08422237 0.427528 0)
(-0.1003791 0.401691 0)
(-0.1147937 0.3743254 0)
(-0.1290883 0.3458552 0)
(-0.141204 0.3207324 0)
(-0.152337 0.2997495 0)
(-0.1638031 0.2794784 0)
(-0.1746202 0.2586633 0)
(-0.1854925 0.2371602 0)
(-0.1955643 0.2171974 0)
(-0.2049174 0.1987702 0)
(-0.2135128 0.1819216 0)
(-0.2213744 0.1661662 0)
(-0.228539 0.1512638 0)
(-0.2352334 0.1379227 0)
(-0.2410479 0.127222 0)
(-0.2466466 0.116184 0)
(-0.2513887 0.1054505 0)
(-0.2560546 0.09373995 0)
(-0.2599004 0.08315827 0)
(-0.2632389 0.07337306 0)
(-0.2660085 0.06409601 0)
(-0.2683809 0.05514532 0)
(-0.2699981 0.04821453 0)
(-0.2714507 0.03907107 0)
(-0.2722859 0.03057696 0)
(-0.2724567 0.02241348 0)
(-0.271937 0.01417079 0)
(-0.2711175 0.005709766 0)
(-0.2698691 -0.002997884 0)
(-0.2681526 -0.01186059 0)
(-0.2659576 -0.02107923 0)
(-0.2631333 -0.03073608 0)
(-0.2599754 -0.04087574 0)
(-0.2563909 -0.05180713 0)
(-0.2520942 -0.06357025 0)
(-0.2474147 -0.07617541 0)
(-0.2416344 -0.0897721 0)
(-0.2361292 -0.101817 0)
(-0.2290105 -0.1189493 0)
(-0.2217965 -0.136741 0)
(-0.2136725 -0.1557926 0)
(-0.2049126 -0.1764179 0)
(-0.1952538 -0.1993624 0)
(-0.1832353 -0.2239807 0)
(-0.1739542 -0.2480405 0)
(-0.1607185 -0.2791054 0)
(-0.144565 -0.3183835 0)
(-0.1279143 -0.3596898 0)
(-0.1114903 -0.4019843 0)
(-0.09619592 -0.4476739 0)
(-0.07983565 -0.4998394 0)
(-0.06253701 -0.5581624 0)
(-0.0446157 -0.625868 0)
(-0.0275384 -0.7071247 0)
(-0.009447459 -0.7764797 0)
(-0.007334782 0.5576972 0)
(-0.02087584 0.5396486 0)
(-0.03351325 0.5182461 0)
(-0.0456074 0.4935971 0)
(-0.05697962 0.4664924 0)
(-0.06781342 0.4384326 0)
(-0.07791316 0.4098339 0)
(-0.08796686 0.3813702 0)
(-0.0978412 0.3542589 0)
(-0.1065456 0.3286387 0)
(-0.1150116 0.3055788 0)
(-0.1217731 0.2855788 0)
(-0.1299334 0.2645169 0)
(-0.1372951 0.2430143 0)
(-0.1458532 0.2218244 0)
(-0.1531159 0.203063 0)
(-0.1600135 0.1859888 0)
(-0.1662808 0.1701327 0)
(-0.172142 0.1553383 0)
(-0.1772805 0.1416572 0)
(-0.1816406 0.1287595 0)
(-0.1854897 0.1163541 0)
(-0.1889522 0.104398 0)
(-0.1920898 0.09291871 0)
(-0.1948414 0.08194364 0)
(-0.1971362 0.07142508 0)
(-0.1990809 0.06127424 0)
(-0.2003649 0.05148962 0)
(-0.2011009 0.04178177 0)
(-0.201581 0.03215546 0)
(-0.2015979 0.02264175 0)
(-0.2011671 0.01302514 0)
(-0.2003466 0.00330881 0)
(-0.1990717 -0.006636473 0)
(-0.1975224 -0.0168161 0)
(-0.1957187 -0.02745545 0)
(-0.1932397 -0.03861091 0)
(-0.1906625 -0.04862822 0)
(-0.1873561 -0.0614243 0)
(-0.1838222 -0.07465255 0)
(-0.1798094 -0.08859419 0)
(-0.1755039 -0.103387 0)
(-0.1704204 -0.1194301 0)
(-0.1647004 -0.1370425 0)
(-0.1587865 -0.1560727 0)
(-0.1525297 -0.1769226 0)
(-0.1455965 -0.199525 0)
(-0.1381641 -0.2231276 0)
(-0.1316837 -0.2487376 0)
(-0.1213595 -0.280989 0)
(-0.1113672 -0.3167311 0)
(-0.1006705 -0.3547394 0)
(-0.09023189 -0.3959346 0)
(-0.07922399 -0.441505 0)
(-0.06735444 -0.4912699 0)
(-0.05488557 -0.5453626 0)
(-0.04214968 -0.6051554 0)
(-0.02971044 -0.6729177 0)
(-0.01731797 -0.7532821 0)
(-0.006458247 -0.8180575 0)
(-0.005115128 0.590418 0)
(-0.01442553 0.5706686 0)
(-0.02318428 0.5466192 0)
(-0.03133143 0.5202474 0)
(-0.03910474 0.4916725 0)
(-0.04655194 0.4621658 0)
(-0.05374251 0.4325195 0)
(-0.06089244 0.4034742 0)
(-0.06799965 0.3757049 0)
(-0.07501321 0.3494652 0)
(-0.08151773 0.3244626 0)
(-0.08811147 0.3009422 0)
(-0.09333774 0.2804433 0)
(-0.09867027 0.2611746 0)
(-0.1030325 0.2421672 0)
(-0.1092573 0.2220694 0)
(-0.1145786 0.2031407 0)
(-0.1197343 0.1854342 0)
(-0.1244 0.169058 0)
(-0.1285466 0.1538715 0)
(-0.1321911 0.1394831 0)
(-0.1353905 0.1257476 0)
(-0.1381919 0.1125742 0)
(-0.1406247 0.09992969 0)
(-0.1426942 0.08778107 0)
(-0.1443922 0.07607057 0)
(-0.1457279 0.06472488 0)
(-0.146677 0.05371 0)
(-0.147251 0.04283788 0)
(-0.1474848 0.03210663 0)
(-0.1473788 0.02144481 0)
(-0.1468782 0.01076774 0)
(-0.1461927 2.212149e-05 0)
(-0.1452281 -0.01101079 0)
(-0.1440014 -0.02108358 0)
(-0.1423719 -0.03294503 0)
(-0.1405733 -0.04502789 0)
(-0.1382674 -0.0575698 0)
(-0.1355407 -0.07085887 0)
(-0.1326782 -0.08488985 0)
(-0.1295055 -0.09980877 0)
(-0.1260286 -0.1157573 0)
(-0.1222138 -0.1328471 0)
(-0.1180488 -0.1514456 0)
(-0.1138294 -0.1715555 0)
(-0.1087337 -0.1930171 0)
(-0.1045249 -0.2154485 0)
(-0.09886002 -0.2413111 0)
(-0.09203721 -0.2716173 0)
(-0.08524979 -0.3044317 0)
(-0.0782477 -0.3398489 0)
(-0.07110237 -0.3787308 0)
(-0.06354802 -0.4212544 0)
(-0.05552677 -0.4676162 0)
(-0.04707769 -0.517903 0)
(-0.03828191 -0.5721957 0)
(-0.02945483 -0.6312026 0)
(-0.02069575 -0.6973951 0)
(-0.01248424 -0.7752526 0)
(-0.004384617 -0.844827 0)
(-0.003125722 0.6149068 0)
(-0.009049022 0.5933001 0)
(-0.01443191 0.5669383 0)
(-0.01937753 0.5392071 0)
(-0.02421641 0.5098927 0)
(-0.02899383 0.48006 0)
(-0.03378934 0.4504389 0)
(-0.03867222 0.4215648 0)
(-0.04362185 0.3937986 0)
(-0.04857897 0.3672652 0)
(-0.05342911 0.3419409 0)
(-0.05832602 0.3176124 0)
(-0.06265392 0.2944071 0)
(-0.06694416 0.2728731 0)
(-0.07064021 0.2535003 0)
(-0.07385962 0.2350352 0)
(-0.07763419 0.2165796 0)
(-0.08133525 0.1986173 0)
(-0.08540209 0.1809481 0)
(-0.08890836 0.1642963 0)
(-0.09216674 0.1486575 0)
(-0.09500062 0.1337786 0)
(-0.09747446 0.11957 0)
(-0.09960018 0.1059433 0)
(-0.1013908 0.09282967 0)
(-0.1028536 0.0801607 0)
(-0.1039988 0.06786583 0)
(-0.1048279 0.05587744 0)
(-0.1053546 0.04411264 0)
(-0.1055939 0.03250151 0)
(-0.1055684 0.02096508 0)
(-0.1052254 0.009422891 0)
(-0.1047329 -0.001216235 0)
(-0.1040946 -0.01305442 0)
(-0.1030488 -0.02503046 0)
(-0.101657 -0.03736864 0)
(-0.1001261 -0.05012104 0)
(-0.09833798 -0.06336672 0)
(-0.09632692 -0.07732101 0)
(-0.09410625 -0.09204712 0)
(-0.09166768 -0.1076868 0)
(-0.08899425 -0.1243842 0)
(-0.08617722 -0.1423196 0)
(-0.08307215 -0.1615373 0)
(-0.0797971 -0.181932 0)
(-0.07691103 -0.2039095 0)
(-0.07254718 -0.2292195 0)
(-0.06831285 -0.2572247 0)
(-0.06375285 -0.2875436 0)
(-0.05927412 -0.3205402 0)
(-0.05463731 -0.356736 0)
(-0.04978862 -0.3965247 0)
(-0.0446022 -0.4402269 0)
(-0.03890726 -0.4882159 0)
(-0.03269519 -0.5402256 0)
(-0.02632159 -0.5954642 0)
(-0.02000248 -0.6549462 0)
(-0.01389537 -0.7215432 0)
(-0.008077711 -0.7991387 0)
(-0.002763407 -0.8654409 0)
(-0.001905977 0.628231 0)
(-0.005375906 0.605604 0)
(-0.008495785 0.5776349 0)
(-0.01126318 0.5493997 0)
(-0.01403191 0.520125 0)
(-0.01686501 0.4904063 0)
(-0.01989287 0.4609594 0)
(-0.02313701 0.4323147 0)
(-0.02655664 0.4047172 0)
(-0.03011351 0.3782418 0)
(-0.03375553 0.3528834 0)
(-0.03747689 0.3285959 0)
(-0.0412741 0.3054442 0)
(-0.04493285 0.283256 0)
(-0.0487052 0.2621348 0)
(-0.05170862 0.2428116 0)
(-0.05449923 0.2245283 0)
(-0.05728482 0.2070169 0)
(-0.05929668 0.1902053 0)
(-0.06211087 0.173158 0)
(-0.06433048 0.1565823 0)
(-0.06649537 0.1407216 0)
(-0.06836063 0.1255593 0)
(-0.06998117 0.1110053 0)
(-0.0713458 0.09699813 0)
(-0.07246223 0.08346895 0)
(-0.07333649 0.07034873 0)
(-0.07397562 0.05756738 0)
(-0.0743886 0.04505 0)
(-0.07458578 0.03272454 0)
(-0.07457683 0.02051269 0)
(-0.07438155 0.008343008 0)
(-0.07396401 -0.003133581 0)
(-0.0733073 -0.01555737 0)
(-0.07249786 -0.0281495 0)
(-0.0714967 -0.04108111 0)
(-0.0703333 -0.05442139 0)
(-0.06899523 -0.06828351 0)
(-0.06749368 -0.08278778 0)
(-0.06583773 -0.09804861 0)
(-0.06403483 -0.1142145 0)
(-0.06213812 -0.1313925 0)
(-0.0599532 -0.149577 0)
(-0.05804216 -0.1688307 0)
(-0.05560565 -0.19 0)
(-0.05271995 -0.2136305 0)
(-0.04985048 -0.239294 0)
(-0.04690659 -0.2670811 0)
(-0.0439844 -0.2974441 0)
(-0.04102514 -0.3306798 0)
(-0.03797235 -0.3671949 0)
(-0.03470079 -0.4075692 0)
(-0.03099329 -0.4525143 0)
(-0.02685219 -0.5018181 0)
(-0.02246597 -0.5541127 0)
(-0.01807225 -0.608735 0)
(-0.01377391 -0.6670534 0)
(-0.009609421 -0.7320658 0)
(-0.005764791 -0.8077556 0)
(-0.002060099 -0.8761764 0)
(-0.0008669281 0.6379634 0)
(-0.002945374 0.6137034 0)
(-0.004284039 0.5844008 0)
(-0.005380624 0.5554794 0)
(-0.006573586 0.526046 0)
(-0.007922063 0.4968655 0)
(-0.009551489 0.4683624 0)
(-0.0114201 0.4405628 0)
(-0.01357613 0.4136619 0)
(-0.01597918 0.387742 0)
(-0.01859031 0.3628203 0)
(-0.02136997 0.3388745 0)
(-0.02427609 0.3158786 0)
(-0.02723151 0.2937829 0)
(-0.03023973 0.2724429 0)
(-0.03311791 0.2518679 0)
(-0.03574901 0.232135 0)
(-0.03800541 0.213202 0)
(-0.04017351 0.1952845 0)
(-0.04165158 0.1783721 0)
(-0.04334006 0.1617359 0)
(-0.04493746 0.1454457 0)
(-0.0463068 0.1297192 0)
(-0.04753958 0.1146069 0)
(-0.0485768 0.1000282 0)
(-0.04943466 0.08593286 0)
(-0.05011436 0.07225702 0)
(-0.05062205 0.05893416 0)
(-0.0509634 0.04589516 0)
(-0.05114602 0.03306942 0)
(-0.05117262 0.02038054 0)
(-0.05106752 0.007753466 0)
(-0.05078031 -0.004367286 0)
(-0.05030729 -0.01719347 0)
(-0.04972965 -0.03021998 0)
(-0.04901707 -0.04354749 0)
(-0.04818658 -0.05727347 0)
(-0.04724016 -0.07150578 0)
(-0.04617512 -0.08636102 0)
(-0.0450367 -0.1019704 0)
(-0.04374302 -0.1184148 0)
(-0.04239563 -0.1357386 0)
(-0.04111424 -0.1542293 0)
(-0.03931977 -0.1745137 0)
(-0.03755984 -0.1965459 0)
(-0.0356777 -0.2202769 0)
(-0.03384415 -0.2459291 0)
(-0.03200208 -0.273827 0)
(-0.03016868 -0.3042838 0)
(-0.02831659 -0.3376597 0)
(-0.0263152 -0.3746939 0)
(-0.02397355 -0.4163057 0)
(-0.02127888 -0.4625028 0)
(-0.01838647 -0.5124075 0)
(-0.01541694 -0.565123 0)
(-0.01241611 -0.6201642 0)
(-0.009428821 -0.6788692 0)
(-0.006511748 -0.7444007 0)
(-0.00378261 -0.8204424 0)
(-0.001233771 -0.8873398 0)
(-0.0003802204 0.6421215 0)
(-0.0006153563 0.6169544 0)
(-0.0005512948 0.5859184 0)
(-0.0004296435 0.5569664 0)
(-0.0003860731 0.5284542 0)
(-0.00107845 0.4999005 0)
(-0.001669462 0.4717464 0)
(-0.002774304 0.4445688 0)
(-0.004114617 0.4184283 0)
(-0.005740371 0.3932024 0)
(-0.007610096 0.3688715 0)
(-0.009684572 0.345384 0)
(-0.01192285 0.3226921 0)
(-0.0142696 0.3007415 0)
(-0.01670246 0.27946 0)
(-0.01916532 0.2588232 0)
(-0.02157757 0.2388179 0)
(-0.02379034 0.2194307 0)
(-0.0258366 0.2006108 0)
(-0.02745927 0.1826319 0)
(-0.02881541 0.1655358 0)
(-0.0297122 0.1491042 0)
(-0.03079877 0.1330022 0)
(-0.03158186 0.1174078 0)
(-0.03228852 0.1023715 0)
(-0.03285479 0.08782648 0)
(-0.03330571 0.0737174 0)
(-0.03364332 0.05997825 0)
(-0.03387116 0.04653939 0)
(-0.03399399 0.03332932 0)
(-0.03400325 0.02027313 0)
(-0.03393517 0.007294265 0)
(-0.03374188 -0.005345353 0)
(-0.03340704 -0.01848351 0)
(-0.03300233 -0.03181803 0)
(-0.03250623 -0.04544336 0)
(-0.03193036 -0.05945785 0)
(-0.03127501 -0.07396611 0)
(-0.03056575 -0.08908803 0)
(-0.02971646 -0.1049055 0)
(-0.02890658 -0.1215037 0)
(-0.02797612 -0.139198 0)
(-0.0268246 -0.1582873 0)
(-0.02568853 -0.1787228 0)
(-0.02452689 -0.2006296 0)
(-0.02339821 -0.2242707 0)
(-0.02228789 -0.2498693 0)
(-0.02121155 -0.2777093 0)
(-0.02016014 -0.3081142 0)
(-0.01901553 -0.3417853 0)
(-0.01762228 -0.3796885 0)
(-0.01594212 -0.4221104 0)
(-0.01409868 -0.4686422 0)
(-0.01219518 -0.5186446 0)
(-0.01024371 -0.5713193 0)
(-0.008240728 -0.626067 0)
(-0.006249063 -0.6841244 0)
(-0.004303944 -0.7485985 0)
(-0.002571992 -0.823284 0)
(-0.0009442208 -0.8908772 0)
(0.0001372437 0.6437357 0)
(0.0004053039 0.6163979 0)
(0.001361382 0.5849341 0)
(0.002376102 0.5561503 0)
(0.003075661 0.5281486 0)
(0.003967925 0.5004812 0)
(0.004006911 0.4738042 0)
(0.003557226 0.4477396 0)
(0.002934452 0.4223754 0)
(0.00188882 0.3979099 0)
(0.0006076224 0.3742297 0)
(-0.0009249361 0.3512935 0)
(-0.002658999 0.3290422 0)
(-0.004585632 0.3074306 0)
(-0.006666762 0.2864009 0)
(-0.008822608 0.2657752 0)
(-0.01094585 0.2454098 0)
(-0.01292819 0.2253696 0)
(-0.01471819 0.2057619 0)
(-0.01628339 0.1867428 0)
(-0.01749294 0.1685424 0)
(-0.01853722 0.1513127 0)
(-0.0190463 0.1349513 0)
(-0.01965446 0.1190545 0)
(-0.02004545 0.1037025 0)
(-0.02041167 0.08889495 0)
(-0.02070692 0.07454956 0)
(-0.02094156 0.06058451 0)
(-0.02111324 0.04692135 0)
(-0.02122285 0.03348367 0)
(-0.02125973 0.02019615 0)
(-0.02125 0.007085163 0)
(-0.02115303 -0.005917105 0)
(-0.0209566 -0.01926006 0)
(-0.02071133 -0.032788 0)
(-0.02040393 -0.0465933 0)
(-0.02003624 -0.06077387 0)
(-0.01963178 -0.07543681 0)
(-0.01912048 -0.09069247 0)
(-0.01867022 -0.1066511 0)
(-0.01806199 -0.1235708 0)
(-0.01739444 -0.1415805 0)
(-0.01672952 -0.1607127 0)
(-0.01608746 -0.1811297 0)
(-0.01546421 -0.2030378 0)
(-0.01487098 -0.2266435 0)
(-0.01432507 -0.2521759 0)
(-0.01382591 -0.2799187 0)
(-0.01328216 -0.3104984 0)
(-0.01256766 -0.344836 0)
(-0.01161611 -0.3834602 0)
(-0.01050861 -0.4263135 0)
(-0.009336457 -0.4730865 0)
(-0.00812933 -0.5232968 0)
(-0.006883442 -0.5762834 0)
(-0.005579437 -0.6314916 0)
(-0.004262371 -0.68996 0)
(-0.002945651 -0.7548013 0)
(-0.001729901 -0.8298834 0)
(-0.0005410993 -0.8971525 0)
(0.0002621058 0.6434408 0)
(0.00113207 0.6145426 0)
(0.002604676 0.5816519 0)
(0.004154972 0.5526649 0)
(0.005595682 0.5251416 0)
(0.006591302 0.4988493 0)
(0.007143903 0.4731853 0)
(0.007758755 0.4482022 0)
(0.007471066 0.4239475 0)
(0.007126163 0.4003181 0)
(0.006345937 0.3773992 0)
(0.005317155 0.3551334 0)
(0.004030292 0.3335001 0)
(0.00248921 0.3124824 0)
(0.0007498896 0.2918475 0)
(-0.001100644 0.2712771 0)
(-0.002933331 0.2507241 0)
(-0.004675193 0.2303429 0)
(-0.006278966 0.2102927 0)
(-0.007710511 0.1907313 0)
(-0.008935567 0.1718017 0)
(-0.009867052 0.1536011 0)
(-0.01060839 0.1363143 0)
(-0.01091653 0.1200942 0)
(-0.0112276 0.1046251 0)
(-0.01139375 0.08970384 0)
(-0.01156275 0.07523152 0)
(-0.01172112 0.06113632 0)
(-0.01186005 0.04733694 0)
(-0.0119704 0.03375599 0)
(-0.01204814 0.02031846 0)
(-0.01208906 0.007034783 0)
(-0.01206189 -0.00622615 0)
(-0.01197572 -0.0197243 0)
(-0.01185612 -0.03340644 0)
(-0.01169214 -0.04736606 0)
(-0.01148825 -0.06170172 0)
(-0.01123213 -0.07652052 0)
(-0.01096081 -0.09191688 0)
(-0.01060184 -0.1080608 0)
(-0.0102547 -0.1250507 0)
(-0.009898038 -0.1429931 0)
(-0.009562253 -0.162049 0)
(-0.009247695 -0.1823729 0)
(-0.008968154 -0.2041471 0)
(-0.008723075 -0.2275766 0)
(-0.00854731 -0.2529324 0)
(-0.008410539 -0.2807228 0)
(-0.008155511 -0.311746 0)
(-0.007709448 -0.3466621 0)
(-0.007104617 -0.3856704 0)
(-0.006417609 -0.4287037 0)
(-0.005695942 -0.4755369 0)
(-0.004950739 -0.5257695 0)
(-0.004170422 -0.5787286 0)
(-0.003340828 -0.6337544 0)
(-0.002493203 -0.6918431 0)
(-0.001670425 -0.7561445 0)
(-0.0009737868 -0.8305232 0)
(-0.0003633994 -0.8977628 0)
(0.0003941309 0.642362 0)
(0.001652302 0.6113814 0)
(0.003531877 0.5774359 0)
(0.005415079 0.5485656 0)
(0.007138044 0.5218286 0)
(0.008500359 0.4962473 0)
(0.009649469 0.4714175 0)
(0.01014859 0.4475139 0)
(0.01068326 0.4242926 0)
(0.01048865 0.4017205 0)
(0.01013343 0.379689 0)
(0.009399746 0.3582159 0)
(0.008395719 0.3373095 0)
(0.007113202 0.3169818 0)
(0.00561315 0.2968195 0)
(0.003975058 0.2763704 0)
(0.0023324 0.255678 0)
(0.0007588576 0.2349698 0)
(-0.0006905809 0.2144655 0)
(-0.001976747 0.1943598 0)
(-0.0030689 0.1748275 0)
(-0.003951857 0.1560043 0)
(-0.004594143 0.1379876 0)
(-0.005058438 0.1209342 0)
(-0.005200879 0.1049631 0)
(-0.005302991 0.08991729 0)
(-0.005328273 0.07550584 0)
(-0.00538934 0.06145068 0)
(-0.005477075 0.04764795 0)
(-0.005573434 0.03403367 0)
(-0.005670905 0.0205448 0)
(-0.005755913 0.007154432 0)
(-0.005805058 -0.006245291 0)
(-0.00583009 -0.01981761 0)
(-0.005843764 -0.03357926 0)
(-0.00583901 -0.04762164 0)
(-0.005820601 -0.06204176 0)
(-0.005778209 -0.07693977 0)
(-0.005739739 -0.09242379 0)
(-0.005668252 -0.1086021 0)
(-0.00559902 -0.1255894 0)
(-0.00552178 -0.1435253 0)
(-0.005442802 -0.1625517 0)
(-0.005368531 -0.182827 0)
(-0.005292321 -0.2045293 0)
(-0.005264779 -0.2278566 0)
(-0.005232036 -0.2531155 0)
(-0.005158535 -0.2810551 0)
(-0.005031132 -0.3125103 0)
(-0.004740149 -0.3478374 0)
(-0.004390187 -0.3871112 0)
(-0.004005314 -0.4302846 0)
(-0.003613914 -0.4772128 0)
(-0.003215588 -0.5275826 0)
(-0.002796085 -0.5807932 0)
(-0.002331157 -0.6362061 0)
(-0.001830997 -0.6946195 0)
(-0.001312666 -0.7590171 0)
(-0.0008133328 -0.8335282 0)
(-0.0002715337 -0.9008824 0)
(0.000399492 0.6402647 0)
(0.001840444 0.6071951 0)
(0.003931491 0.5721946 0)
(0.006024637 0.5433943 0)
(0.007981044 0.5173128 0)
(0.00961299 0.4926439 0)
(0.01087518 0.4689258 0)
(0.01177189 0.4459703 0)
(0.01220123 0.4237696 0)
(0.01242033 0.4021631 0)
(0.01219597 0.3810514 0)
(0.01168408 0.3604405 0)
(0.01086295 0.3403146 0)
(0.009778971 0.3206814 0)
(0.008477577 0.3010253 0)
(0.00703451 0.2807803 0)
(0.005564509 0.2600224 0)
(0.004151929 0.2390584 0)
(0.002851424 0.2181677 0)
(0.001700167 0.1975718 0)
(0.0007288294 0.1774663 0)
(-4.285443e-05 0.1580352 0)
(-0.0006153686 0.1394534 0)
(-0.0009888395 0.1218636 0)
(-0.001226384 0.1053734 0)
(-0.001260243 0.08998877 0)
(-0.001272248 0.07550781 0)
(-0.001261937 0.06156397 0)
(-0.001295378 0.04785704 0)
(-0.001367452 0.03429814 0)
(-0.001455029 0.02083316 0)
(-0.001550064 0.007412788 0)
(-0.001633364 -0.006038083 0)
(-0.001712785 -0.0196232 0)
(-0.001792059 -0.03340235 0)
(-0.001866495 -0.04746095 0)
(-0.001937085 -0.06189302 0)
(-0.002003699 -0.07679933 0)
(-0.002067804 -0.09229564 0)
(-0.002130878 -0.108497 0)
(-0.002193911 -0.125515 0)
(-0.002256848 -0.1434791 0)
(-0.00232245 -0.1625301 0)
(-0.00239315 -0.1828225 0)
(-0.002478056 -0.2045216 0)
(-0.002581563 -0.2278143 0)
(-0.002695988 -0.2531545 0)
(-0.002734373 -0.2813471 0)
(-0.00260094 -0.3130603 0)
(-0.002458288 -0.3485359 0)
(-0.00225434 -0.38785 0)
(-0.00205103 -0.4310022 0)
(-0.001835317 -0.4778847 0)
(-0.001615065 -0.528212 0)
(-0.001378901 -0.5813623 0)
(-0.001124938 -0.6366545 0)
(-0.0008708791 -0.6949152 0)
(-0.0006155491 -0.7592645 0)
(-0.0003623288 -0.8337305 0)
(-0.0001277246 -0.9011066 0)
(0.0003740343 0.638368 0)
(0.001915567 0.6028005 0)
(0.004096729 0.5666685 0)
(0.006287328 0.537902 0)
(0.0083465 0.5124543 0)
(0.0100863 0.4887113 0)
(0.0114566 0.4660537 0)
(0.01243224 0.4442091 0)
(0.01301179 0.4229892 0)
(0.01323945 0.4023194 0)
(0.01311288 0.3821431 0)
(0.01267552 0.3623812 0)
(0.01195039 0.3430087 0)
(0.0109877 0.3240136 0)
(0.009830355 0.3048329 0)
(0.00854339 0.2848065 0)
(0.007224474 0.2639923 0)
(0.005962467 0.2427763 0)
(0.004809185 0.22151 0)
(0.00379633 0.2004536 0)
(0.002947696 0.1798287 0)
(0.00227685 0.1598487 0)
(0.001785498 0.140728 0)
(0.001459546 0.1226619 0)
(0.001278402 0.1057756 0)
(0.00118661 0.09009034 0)
(0.001193804 0.07546538 0)
(0.001193323 0.06155708 0)
(0.001169245 0.04796897 0)
(0.001114476 0.0344889 0)
(0.001037814 0.02107458 0)
(0.0009481806 0.007673555 0)
(0.0008527577 -0.005779653 0)
(0.0007501444 -0.01935088 0)
(0.0006389977 -0.03313037 0)
(0.0005256784 -0.0471941 0)
(0.000409619 -0.06163358 0)
(0.0002918665 -0.07654697 0)
(0.0001715785 -0.09203974 0)
(4.614266e-05 -0.1082238 0)
(-8.661604e-05 -0.1252181 0)
(-0.000228441 -0.143151 0)
(-0.0003830152 -0.1621597 0)
(-0.0005530458 -0.1823918 0)
(-0.0007542355 -0.2040043 0)
(-0.0009795884 -0.2272439 0)
(-0.001194981 -0.2527433 0)
(-0.001330119 -0.2812756 0)
(-0.001400923 -0.3132253 0)
(-0.001391846 -0.3488385 0)
(-0.001330432 -0.3882118 0)
(-0.001286976 -0.4314504 0)
(-0.001202508 -0.4784128 0)
(-0.001112776 -0.5288499 0)
(-0.001004435 -0.5821593 0)
(-0.0008642798 -0.637623 0)
(-0.0006993938 -0.6960192 0)
(-0.0005066276 -0.7604373 0)
(-0.0003069714 -0.8349502 0)
(-0.0001198886 -0.9023 0)
(0.0003082997 0.6361129 0)
(0.001818221 0.5981368 0)
(0.003990918 0.5609508 0)
(0.006164028 0.5322325 0)
(0.008217297 0.5074104 0)
(0.009953595 0.4845887 0)
(0.01132746 0.4629838 0)
(0.01230978 0.4422159 0)
(0.01290439 0.4220617 0)
(0.01313087 0.4023859 0)
(0.01302064 0.3830959 0)
(0.01261493 0.3641218 0)
(0.01194836 0.3454227 0)
(0.01107523 0.3269733 0)
(0.01003946 0.3081968 0)
(0.008897248 0.2883634 0)
(0.007731789 0.2674886 0)
(0.006627261 0.2460275 0)
(0.005629622 0.2244055 0)
(0.004763958 0.2029242 0)
(0.004047891 0.1818327 0)
(0.003488439 0.1613734 0)
(0.003083577 0.1417959 0)
(0.002817584 0.1233318 0)
(0.002663372 0.1061394 0)
(0.002587732 0.09024174 0)
(0.002553733 0.07549985 0)
(0.002534232 0.06160712 0)
(0.002504806 0.04809115 0)
(0.002451189 0.03466905 0)
(0.002383745 0.02130145 0)
(0.002301342 0.007936856 0)
(0.00220729 -0.005487265 0)
(0.002101148 -0.01902021 0)
(0.001982417 -0.03277742 0)
(0.001855784 -0.04682198 0)
(0.001720802 -0.06124441 0)
(0.001578384 -0.07614197 0)
(0.001428722 -0.09161862 0)
(0.001271679 -0.1077848 0)
(0.001106771 -0.1247575 0)
(0.0009331815 -0.1426615 0)
(0.0007483581 -0.1616299 0)
(0.0005518861 -0.181805 0)
(0.0003287946 -0.2033402 0)
(9.745267e-05 -0.2265733 0)
(-0.0001169607 -0.2521778 0)
(-0.0002741992 -0.2808474 0)
(-0.0003769931 -0.3129863 0)
(-0.000418614 -0.3487604 0)
(-0.0004421048 -0.3882061 0)
(-0.000406026 -0.4314484 0)
(-0.0003984755 -0.4784156 0)
(-0.0003811752 -0.5288606 0)
(-0.0003473277 -0.5821617 0)
(-0.0003040086 -0.6376239 0)
(-0.0002502458 -0.6960195 0)
(-0.0001834197 -0.7604461 0)
(-0.000126287 -0.834989 0)
(-5.351321e-05 -0.9023421 0)
(0.0001784221 0.6345492 0)
(0.001638888 0.5937634 0)
(0.00370349 0.5554429 0)
(0.005782083 0.5267476 0)
(0.007731221 0.5025391 0)
(0.009376886 0.4806253 0)
(0.01067002 0.4600567 0)
(0.01158591 0.4403513 0)
(0.0121265 0.4212202 0)
(0.01230966 0.402488 0)
(0.01217625 0.3840379 0)
(0.01177387 0.3657852 0)
(0.01114219 0.347679 0)
(0.01033603 0.3296851 0)
(0.009402608 0.3112267 0)
(0.008393908 0.2915248 0)
(0.007383293 0.2705564 0)
(0.006442499 0.2488405 0)
(0.005608367 0.2268737 0)
(0.004898298 0.2049997 0)
(0.004323544 0.1834923 0)
(0.003884952 0.1626176 0)
(0.00357494 0.142655 0)
(0.003374936 0.1238691 0)
(0.003256189 0.1064437 0)
(0.003186631 0.09040996 0)
(0.003134977 0.07561143 0)
(0.003086988 0.061712 0)
(0.003036022 0.04822066 0)
(0.002978955 0.03483598 0)
(0.00291122 0.02150774 0)
(0.002831774 0.008180791 0)
(0.002740161 -0.005208261 0)
(0.002635418 -0.01870314 0)
(0.002517381 -0.03242916 0)
(0.002387488 -0.04644457 0)
(0.002245842 -0.0608397 0)
(0.002093069 -0.07571144 0)
(0.001929633 -0.0911631 0)
(0.001755949 -0.1073046 0)
(0.00157233 -0.1242525 0)
(0.001379093 -0.1421307 0)
(0.001175857 -0.1610707 0)
(0.000963739 -0.1812121 0)
(0.0007356987 -0.202705 0)
(0.000504479 -0.2259595 0)
(0.0002895307 -0.2516919 0)
(0.0001189548 -0.280516 0)
(-1.139578e-05 -0.3127817 0)
(-0.0001046403 -0.3486598 0)
(-0.0001713251 -0.3882371 0)
(-0.0002030381 -0.4315488 0)
(-0.0002205071 -0.4784962 0)
(-0.0002283119 -0.5289692 0)
(-0.0002211342 -0.5823326 0)
(-0.0002038782 -0.6378599 0)
(-0.0001718096 -0.6963192 0)
(-0.000127458 -0.7608113 0)
(-8.557812e-05 -0.8353202 0)
(-5.221978e-05 -0.9027588 0)
(0.0001016341 0.6331517 0)
(0.001392465 0.5895862 0)
(0.003307799 0.5503028 0)
(0.005206757 0.5216804 0)
(0.006991843 0.4980698 0)
(0.008476744 0.4770201 0)
(0.009625527 0.4574325 0)
(0.01040536 0.438725 0)
(0.01084223 0.4205903 0)
(0.01094788 0.4027624 0)
(0.01077676 0.3850605 0)
(0.01036575 0.3674294 0)
(0.009761124 0.3498112 0)
(0.009013155 0.3321724 0)
(0.008174292 0.3139286 0)
(0.007295832 0.2942654 0)
(0.006445068 0.273151 0)
(0.005676647 0.2511651 0)