/*--------------------------------*- C++ -*----------------------------------*\
| =========                 |                                                 |
| \\      /  F ield         | OpenFOAM: The Open Source CFD Toolbox           |
|  \\    /   O peration     | Version:  2312                                  |
|   \\  /    A nd           | Website:  www.openfoam.com                      |
|    \\/     M anipulation  |                                                 |
\*---------------------------------------------------------------------------*/
FoamFile
{
    version     2.0;
    format      ascii;
    arch        "LSB;label=32;scalar=64";
    class       surfaceScalarField;
    location    "2000";
    object      phi;
}
// * * * * * * * * * * * * * * * * * * * * * * * * * * * * * * * * * * * * * //

dimensions      [1 0 -1 0 0 0 0];

oriented        oriented;

internalField   nonuniform List<scalar> 
3736
(
-0.000150257
0.0001502496
-0.0002129439
6.268689e-05
-0.000245444
3.250013e-05
-0.0002603817
1.493776e-05
-0.000267391
7.009359e-06
-0.0002751385
7.747462e-06
-0.0002872169
1.207847e-05
-0.0003037533
1.653637e-05
-0.0003250704
2.13172e-05
-0.0003507745
2.57041e-05
-0.0003799223
2.914779e-05
-0.0004111659
3.124364e-05
-0.0004430457
3.187978e-05
-0.0004741983
3.115261e-05
-0.0005033353
2.913701e-05
-0.0005291533
2.581795e-05
-0.0005502578
2.110454e-05
-0.0005648077
1.454994e-05
-0.0005699643
5.15656e-06
-0.0005611445
-8.819849e-06
-0.0005305435
-3.060095e-05
-0.0004612154
-6.932809e-05
-0.0003212943
-0.0001399211
-0.0003212943
-8.243299e-05
0.0002326826
-0.0001138154
9.406933e-05
-0.0001264325
4.511729e-05
-0.0001280107
1.651597e-05
-0.0001297385
8.737263e-06
-0.0001415707
1.957968e-05
-0.0001619661
3.247396e-05
-0.0001861938
4.07641e-05
-0.0002125688
4.769215e-05
-0.0002402199
5.335523e-05
-0.0002685824
5.751033e-05
-0.0002969
5.956127e-05
-0.0003241209
5.910061e-05
-0.0003491976
5.622938e-05
-0.0003711186
5.105801e-05
-0.0003888522
4.35515e-05
-0.0004013787
3.363105e-05
-0.0004074335
2.060478e-05
-0.0004053237
3.046738e-06
-0.0003935066
-2.063695e-05
-0.0003681173
-5.599031e-05
-0.0003155916
-0.0001218538
-0.0002076058
-0.0002479069
-0.0005289001
-5.919993e-05
0.0002918826
-7.754057e-05
0.00011241
-8.348325e-05
5.106001e-05
-7.772366e-05
1.075643e-05
-6.368073e-05
-5.3056e-06
-5.974185e-05
1.564087e-05
-7.210162e-05
4.483378e-05
-9.093073e-05
5.959326e-05
-0.0001136617
7.042311e-05
-0.0001390481
7.874168e-05
-0.0001651846
8.364687e-05
-0.0001902293
8.460596e-05
-0.0002128986
8.176991e-05
-0.0002326945
7.602534e-05
-0.000249133
6.749646e-05
-0.0002615149
5.593345e-05
-0.0002691799
4.129604e-05
-0.000271161
2.258585e-05
-0.0002662286
-1.885653e-06
-0.0002548859
-3.197974e-05
-0.0002393627
-7.151353e-05
-0.0002104922
-0.0001507243
-0.0001414542
-0.0003169448
-0.0006703544
-4.86315e-05
0.0003405141
-6.542954e-05
0.000129208
-7.523193e-05
6.08624e-05
-6.836006e-05
3.884594e-06
-4.291424e-05
-3.075138e-05
-1.628477e-05
-1.098853e-05
-9.196433e-06
3.774551e-05
-1.24958e-05
6.289267e-05
-2.562408e-05
8.355143e-05
-4.606317e-05
9.918078e-05
-7.022272e-05
0.0001078064
-9.442669e-05
0.0001088099
-0.0001161277
0.0001034709
-0.0001341174
9.401508e-05
-0.0001474652
8.084422e-05
-0.0001552603
6.372858e-05
-0.00015666
4.269568e-05
-0.0001503575
1.628338e-05
-0.0001387694
-1.347378e-05
-0.000126113
-4.463618e-05
-0.0001193632
-7.826334e-05
-0.0001185897
-0.0001514978
-9.37933e-05
-0.0003417413
-0.0007641477
-4.152736e-05
0.0003820414
-5.357504e-05
0.0001412557
-5.957321e-05
6.686057e-05
-4.770383e-05
-7.984815e-06
-2.177197e-05
-5.668322e-05
7.733903e-06
-4.049436e-05
3.719835e-05
8.281105e-06
5.352243e-05
4.656862e-05
5.565787e-05
8.1416e-05
4.55112e-05
0.0001093275
2.53597e-05
0.0001279579
-1.432547e-06
0.0001356022
-2.956026e-05
0.0001315986
-5.354694e-05
0.0001180018
-7.092465e-05
9.822191e-05
-8.107375e-05
7.387766e-05
-8.301993e-05
4.464182e-05
-7.53152e-05
8.578602e-06
-5.994987e-05
-2.883916e-05
-4.19476e-05
-6.263849e-05
-3.051346e-05
-8.969751e-05
-4.412238e-05
-0.0001378889
-5.872392e-05
-0.0003271397
-0.0008228716
-3.427622e-05
0.0004163176
-3.706313e-05
0.0001440426
-2.857668e-05
5.837405e-05
-3.536719e-06
-3.302484e-05
1.75251e-05
-7.774506e-05
4.052201e-05
-6.349127e-05
7.134295e-05
-2.253982e-05
9.397547e-05
2.393611e-05
0.0001077311
6.766041e-05
0.0001106936
0.0001063649
0.0001030655
0.0001355861
8.619601e-05
0.0001524717
6.214064e-05
0.000155654
3.455935e-05
0.000145583
7.990504e-06
0.0001247907
-1.347949e-05
9.534762e-05
-2.680049e-05
5.796276e-05
-2.78489e-05
9.62694e-06
-1.616546e-05
-4.052266e-05
-4.864002e-07
-7.83176e-05
1.54185e-05
-0.0001056024
8.686589e-06
-0.000131157
-3.312893e-05
-0.0002853242
-0.0008560005
-2.782622e-05
0.0004441438
-1.613747e-05
0.0001323538
1.609324e-05
2.614322e-05
5.04007e-05
-6.733235e-05
6.397961e-05
-9.132399e-05
7.997877e-05
-7.949044e-05
9.984216e-05
-4.240322e-05
0.0001194823
4.295987e-06
0.0001359825
5.116024e-05
0.0001461553
9.619207e-05
0.0001482648
0.0001334765
0.0001421519
0.0001585846
0.0001286409
0.0001691649
0.000109676
0.0001645479
8.829462e-05
0.0001461721
6.758512e-05
0.0001160571
5.00105e-05
7.553734e-05
3.642559e-05
2.32118e-05
3.148516e-05
-3.558228e-05
3.253974e-05
-7.937222e-05
3.736965e-05
-0.0001104324
3.318225e-05
-0.0001269696
-1.531701e-05
-0.000236825
-0.0008713175
-2.325452e-05
0.0004673983
2.507354e-05
8.40256e-05
7.59742e-05
-2.475755e-05
9.915538e-05
-9.051358e-05
0.0001113046
-0.0001034733
0.0001206045
-8.879029e-05
0.0001309512
-5.274996e-05
0.0001418026
-6.555491e-06
0.0001526701
4.029276e-05
0.0001624078
8.645443e-05
0.0001681796
0.0001277046
0.0001683683
0.0001583959
0.0001627382
0.0001747951
0.0001520659
0.0001752202
0.0001380553
0.0001601827
0.0001228631
0.0001312493
0.0001083581
9.004232e-05
9.353814e-05
3.803171e-05
7.818388e-05
-2.022807e-05
6.427109e-05
-6.545948e-05
5.516473e-05
-0.000101326
4.312935e-05
-0.0001149343
-4.410343e-06
-0.0001892853
-0.0008757279
-2.454651e-05
0.0004919448
5.960835e-05
-1.294063e-07
0.0001160124
-8.116168e-05
0.0001402349
-0.0001147361
0.0001513845
-0.0001146229
0.0001559289
-9.333481e-05
0.0001583672
-5.518825e-05
0.0001602403
-8.428567e-06
0.0001632314
3.73016e-05
0.0001677414
8.194441e-05
0.0001717974
0.0001236486
0.000173246
0.0001569474
0.0001710409
0.0001770001
0.0001651069
0.0001811542
0.000156044
0.0001692456
0.0001447517
0.0001425416
0.0001316655
0.0001031284
0.0001158426
5.385466e-05
9.692421e-05
-1.309784e-06
7.792096e-05
-4.645627e-05
6.190081e-05
-8.530594e-05
4.456039e-05
-9.759389e-05
1.373602e-06
-0.0001460986
-0.0008743543
-2.62829e-05
0.0005182277
6.9556e-05
-9.596843e-05
0.0001312912
-0.0001428969
0.0001618865
-0.0001453315
0.0001758776
-0.000128614
0.0001793541
-9.681134e-05
0.0001770234
-5.285755e-05
0.0001719812
-3.386347e-06
0.000167354
4.192874e-05
0.0001649126
8.438574e-05
0.0001641533
0.0001244078
0.0001633204
0.0001577802
0.0001610273
0.0001792932
0.0001566191
0.0001855624
0.0001498604
0.0001760042
0.0001406814
0.0001517207
0.0001287452
0.0001150646
0.0001132535
6.934629e-05
9.444256e-05
1.750108e-05
7.558683e-05
-2.760061e-05
5.83567e-05
-6.807586e-05
3.913156e-05
-7.836881e-05
2.693975e-06
-0.000109661
-0.0008716603
-2.422158e-05
0.0005424492
6.474818e-05
-0.0001849383
0.0001309675
-0.0002091163
0.0001660614
-0.0001804255
0.0001835398
-0.0001460925
0.0001876804
-0.000100952
0.0001827575
-4.793469e-05
0.0001726628
6.70825e-06
0.0001617772
5.281436e-05
0.0001529244
9.323847e-05
0.000146646
0.0001306862
0.0001420284
0.0001623978
0.0001378259
0.0001834957
0.000133149
0.0001902392
0.000127245
0.0001819082
0.0001194504
0.0001595152
0.000109058
0.000125457
9.536844e-05
8.303576e-05
7.936931e-05
3.350014e-05
6.302173e-05
-1.125312e-05
4.740192e-05
-5.245613e-05
2.772828e-05
-5.869525e-05
1.417293e-06
-8.335012e-05
-0.000870243
-2.179103e-05
0.0005642402
6.180415e-05
-0.0002685335
0.0001240003
-0.0002713125
0.0001578657
-0.000214291
0.0001752123
-0.0001634391
0.0001790315
-0.0001047712
0.0001723158
-4.121905e-05
0.0001584998
2.05242e-05
0.0001430208
6.829328e-05
0.0001293776
0.0001068817
0.0001185636
0.0001415001
0.0001104927
0.0001704687
0.0001042788
0.0001897095
9.906599e-05
0.000195452
9.381155e-05
0.0001871626
8.751322e-05
0.0001658135
7.930994e-05
0.0001336602
6.859116e-05
9.375448e-05
5.679209e-05
4.529912e-05
4.411651e-05
1.422317e-06
2.907973e-05
-3.741951e-05
6.309676e-06
-3.592537e-05
6.14239e-07
-7.765479e-05
-0.0008696288
-1.7626e-05
0.0005818661
5.678813e-05
-0.0003429477
0.0001076125
-0.0003221369
0.0001335607
-0.0002402392
0.0001456059
-0.0001754843
0.0001469607
-0.0001061261
0.0001389267
-3.318514e-05
0.0001236325
3.58183e-05
0.0001069461
8.497964e-05
9.155734e-05
0.0001222703
7.866716e-05
0.0001543903
6.900238e-05
0.0001801334
6.211997e-05
0.0001965918
5.735082e-05
0.0002002211
5.348412e-05
0.0001910292
4.937391e-05
0.0001699236
4.421267e-05
0.0001388214
3.784006e-05
0.000100127
3.255599e-05
5.058306e-05
2.783177e-05
6.146237e-06
-7.526086e-07
-8.835391e-06
-1.948508e-05
-1.719312e-05
2.389485e-06
-9.952945e-05
-0.0008672393
-1.252793e-05
0.000594394
4.629826e-05
-0.000401774
7.763199e-05
-0.0003534707
8.715122e-05
-0.0002497585
8.679472e-05
-0.0001751279
8.218674e-05
-0.0001015183
7.305106e-05
-2.404967e-05
6.132832e-05
4.754087e-05
4.995525e-05
9.635258e-05
3.768654e-05
0.000134539
2.669253e-05
0.0001653842
1.853605e-05
0.0001882898
1.347681e-05
0.000201651
1.09357e-05
0.0002027622
9.645933e-06
0.0001923189
8.49855e-06
0.000171071
6.943841e-06
0.000140376
6.196295e-06
0.0001008744
3.093591e-06
5.368553e-05
-5.579489e-06
1.481896e-05
-3.405419e-05
1.963907e-05
-2.990646e-05
-2.134103e-05
2.804743e-06
-0.0001322407
-0.0008644346
-7.274908e-06
0.0006016689
2.84595e-05
-0.0004375084
3.213911e-05
-0.0003571504
1.770117e-05
-0.0002353206
-3.414737e-07
-0.0001570854
-1.533809e-05
-8.652186e-05
-2.044905e-05
-1.893903e-05
-1.951549e-05
4.660709e-05
-2.127108e-05
9.810802e-05
-2.62582e-05
0.000139526
-3.196386e-05
0.0001710898
-3.614328e-05
0.0001924692
-3.745758e-05
0.0002029652
-3.664017e-05
0.0002019447
-3.474186e-05
0.0001904205
-3.278494e-05
0.000169114
-3.131558e-05
0.0001389065
-3.067929e-05
0.000100238
-3.56973e-05
5.87034e-05
-5.01094e-05
2.923091e-05
-5.540668e-05
2.49362e-05
-3.426609e-05
-4.248176e-05
4.759494e-06
-0.0001712664
-0.0008596751
-2.936936e-06
0.0006046058
3.521567e-06
-0.000443967
-2.216465e-05
-0.0003314642
-5.042254e-05
-0.0002070628
-7.304106e-05
-0.000134467
-8.567066e-05
-7.38924e-05
-8.823973e-05
-1.637013e-05
-8.514757e-05
4.35148e-05
-8.476994e-05
9.773029e-05
-8.675273e-05
0.0001415087
-8.842192e-05
0.0001727589
-8.847914e-05
0.0001925263
-8.609059e-05
0.0002005766
-8.206729e-05
0.0001979213
-7.72586e-05
0.0001856117
-7.259848e-05
0.0001644538
-6.880539e-05
0.0001351134
-6.738689e-05
9.881945e-05
-7.166931e-05
6.298571e-05
-7.877359e-05
3.633507e-05
-6.42062e-05
1.036867e-05
-3.49226e-05
-7.176548e-05
5.7204e-06
-0.0002119094
-0.0008539547
-8.839797e-07
0.0006054897
-2.391416e-05
-0.0004209369
-6.91386e-05
-0.0002862399
-0.0001000679
-0.0001761336
-0.0001205149
-0.0001140201
-0.0001307207
-6.36867e-05
-0.0001359213
-1.116968e-05
-0.0001382703
4.586366e-05
-0.0001392147
9.867464e-05
-0.000139374
0.0001416679
-0.0001381394
0.0001715242
-0.0001349303
0.0001893171
-0.0001297175
0.0001953637
-0.0001232097
0.0001914135
-0.0001161261
0.0001785281
-0.0001092917
0.0001576193
-0.0001036638
0.0001294854
-0.0001010882
9.624377e-05
-0.0001020627
6.396009e-05
-9.884436e-05
3.311661e-05
-7.30517e-05
-1.542413e-05
-3.596784e-05
-0.0001088494
5.469469e-06
-0.0002533468
-0.0008484853
-1.359294e-06
0.000606849
-4.776851e-05
-0.0003745277
-9.908782e-05
-0.0002349207
-0.0001286508
-0.0001465707
-0.0001486885
-9.398254e-05
-0.0001633334
-4.904201e-05
-0.00017466
1.568738e-07
-0.000180715
5.19185e-05
-0.0001826923
0.0001006519
-0.0001819226
0.0001408981
-0.000178968
0.0001685696
-0.0001738373
0.0001841863
-0.0001669635
0.0001884898
-0.0001589399
0.0001833898
-0.0001504291
0.0001700172
-0.0001422583
0.0001494485
-0.0001355291
0.0001227561
-0.0001312561
9.19707e-05
-0.0001264976
5.920151e-05
-0.000111452
1.807087e-05
-7.691843e-05
-4.995779e-05
-3.558911e-05
-0.0001501788
5.049442e-06
-0.0002939854
-0.0008434358
-3.043793e-06
0.0006098927
-6.418586e-05
-0.0003133858
-0.000115869
-0.0001832377
-0.000146161
-0.0001162787
-0.0001689116
-7.123212e-05
-0.0001871036
-3.085006e-05
-0.000201108
1.416107e-05
-0.0002097079
6.051832e-05
-0.0002135743
0.0001045182
-0.0002134261
0.0001407498
-0.0002103288
0.0001654722
-0.0002047944
0.0001786518
-0.0001974697
0.0001811651
-0.0001889015
0.0001748214
-0.0001797268
0.0001608425
-0.0001707081
0.0001404296
-0.0001625372
0.0001145852
-0.0001544968
8.393017e-05
-0.0001415156
4.622025e-05
-0.0001148101
-8.634803e-06
-7.601121e-05
-8.875674e-05
-3.469465e-05
-0.0001914955
4.482053e-06
-0.0003331622
-0.0008389538
-5.077711e-06
0.0006149704
-7.35837e-05
-0.0002448799
-0.0001227706
-0.0001340509
-0.0001536705
-8.5379e-05
-0.000178653
-4.624976e-05
-0.0001999266
-9.576563e-06
-0.0002167004
3.093471e-05
-0.0002279686
7.178637e-05
-0.0002339732
0.0001105228
-0.0002353745
0.000142151
-0.0002333057
0.0001634033
-0.0002285116
0.0001738577
-0.0002216801
0.0001743335
-0.0002133215
0.0001664627
-0.0002039997
0.0001515206
-0.0001941967
0.0001306265
-0.0001836849
0.0001040733
-0.0001699869
7.023205e-05
-0.0001474271
2.366043e-05
-0.0001125171
-4.354494e-05
-7.268961e-05
-0.0001285843
-3.290923e-05
-0.0002312759
4.010303e-06
-0.0003700817
-0.0008349435
-6.818156e-06
0.0006217885
-7.718805e-05
-0.0001745101
-0.0001229771
-8.826192e-05
-0.0001549825
-5.337384e-05
-0.0001822777
-1.895469e-05
-0.000205887
1.403261e-05
-0.0002245036
4.955113e-05
-0.0002380483
8.533094e-05
-0.0002463242
0.0001187987
-0.0002498335
0.0001456602
-0.000249549
0.0001631187
-0.0002462319
0.0001705406
-0.0002405048
0.0001686063
-0.0002327847
0.0001587425
-0.0002234026
0.0001421384
-0.0002122339
0.0001194577
-0.0001978758
8.971504e-05
-0.0001769463
4.930246e-05
-0.0001452452
-8.040755e-06
-0.0001073096
-8.148069e-05
-6.8742e-05
-0.000167152
-3.098937e-05
-0.0002690286
3.57977e-06
-0.0004046509
-0.0008313638
-8.078279e-06
0.0006298667
-7.690213e-05
-0.0001056864
-0.0001196005
-4.556381e-05
-0.0001527612
-2.021326e-05
-0.0001816903
9.974217e-06
-0.0002064005
3.874268e-05
-0.0002267089
6.985932e-05
-0.0002424
0.000101022
-0.000253033
0.0001294316
-0.0002589261
0.0001515532
-0.0002608152
0.0001650077
-0.0002593396
0.0001690649
-0.0002549621
0.0001642287
-0.0002478757
0.000151656
-0.0002379414
0.0001322041
-0.0002241941
0.0001057103
-0.0002043552
6.987608e-05
-0.0001754303
2.037742e-05
-0.0001384934
-4.497774e-05
-0.0001008608
-0.0001191134
-6.432444e-05
-0.0002036884
-2.913341e-05
-0.0003042197
3.149638e-06
-0.000436934
-0.0008282142
-9.011729e-06
0.0006388784
-7.413338e-05
-4.056505e-05
-0.0001140145
-5.682945e-06
-0.0001481809
1.395288e-05
-0.0001775503
3.934342e-05
-0.0002033772
6.456944e-05
-0.0002255659
9.204795e-05
-0.0002433551
0.0001188111
-0.0002563212
0.0001423976
-0.0002646281
0.00015986
-0.0002687571
0.0001691366
-0.0002691264
0.0001694341
-0.0002659185
0.0001610207
-0.0002589151
0.0001446525
-0.0002473104
0.0001205992
-0.0002293866
8.778643e-05
-0.0002029601
4.344943e-05
-0.0001677134
-1.486943e-05
-0.0001304482
-8.2243e-05
-9.457798e-05
-0.0001549837
-6.018839e-05
-0.0002380781
-2.752341e-05
-0.0003368848
2.648005e-06
-0.0004671055
-0.0008255662
-1.097547e-05
0.0006498537
-7.02906e-05
1.87497e-05
-0.0001077551
3.178131e-05
-0.0001417609
4.795842e-05
-0.0001715757
6.915806e-05
-0.0001989282
9.192185e-05
-0.0002228714
0.000115991
-0.0002426717
0.0001386113
-0.0002578852
0.000157611
-0.0002684855
0.0001704603
-0.0002746695
0.0001753205
-0.000276527
0.0001712915
-0.0002738082
0.0001583019
-0.0002657171
0.0001365613
-0.0002508221
0.0001057042
-0.0002273689
6.433305e-05
-0.0001947215
1.080192e-05
-0.0001577592
-5.183189e-05
-0.0001225083
-0.0001174939
-8.875199e-05
-0.0001887401
-5.669289e-05
-0.0002701372
-2.627767e-05
-0.0003673
2.006509e-06
-0.0004953897
-0.0008235597
-1.29975e-05
0.0006628511
-6.221378e-05
6.796565e-05
-0.0001005003
7.006761e-05
-0.0001343339
8.17918e-05
-0.000165553
0.0001003771
-0.0001944351
0.0001208038
-0.0002200566
0.0001416124
-0.0002417611
0.0001603158
-0.0002590344
0.0001748841
-0.0002716375
0.0001830633
-0.0002794265
0.0001831094
-0.0002820518
0.0001739167
-0.0002787134
0.0001549633
-0.0002680429
0.0001258907
-0.0002484115
8.607264e-05
-0.0002191962
3.511763e-05
-0.0001836086
-2.478582e-05
-0.0001488536
-8.6587e-05
-0.0001158437
-0.0001505039
-8.40571e-05
-0.0002205268
-5.405422e-05
-0.0003001402
-2.55116e-05
-0.0003958427
1.172491e-06
-0.0005220739
-0.0008223872
-1.308493e-05
0.000675936
-5.458712e-05
0.0001094676
-9.333829e-05
0.0001088186
-0.0001280673
0.0001165206
-0.0001607601
0.0001330698
-0.0001910291
0.0001510727
-0.0002182121
0.0001687954
-0.0002416355
0.000183739
-0.0002606623
0.0001939109
-0.000274784
0.000197185
-0.0002834318
0.0001917571
-0.0002857185
0.0001762034
-0.0002802926
0.0001495373
-0.000265556
0.000111154
-0.0002407279
6.124439e-05
-0.0002077518
2.141383e-06
-0.0001736647
-5.887305e-05
-0.000141787
-0.0001184647
-0.00011082
-0.000181471
-8.087306e-05
-0.0002504738
-5.243169e-05
-0.0003285816
-2.534233e-05
-0.0004229321
7.956205e-08
-0.0005474958
-0.0008223077
-1.309691e-05
0.0006890328
-5.188297e-05
0.0001482535
-8.902927e-05
0.0001459648
-0.0001241627
0.000151654
-0.0001579377
0.0001668447
-0.000189422
0.0001825569
-0.0002180047
0.000197378
-0.0002428706
0.0002086048
-0.0002632054
0.0002142457
-0.000278159
0.0002121385
-0.0002866751
0.0002002731
-0.0002873291
0.0001768573
-0.0002784389
0.000140647
-0.000258866
9.158106e-05
-0.0002298794
3.225762e-05
-0.0001972694
-3.046867e-05
-0.000166884
-8.925861e-05
-0.0001373051
-0.0001480436
-0.0001079841
-0.000210792
-7.934816e-05
-0.0002791098
-5.190044e-05
-0.0003560294
-2.579675e-05
-0.0004490359
-1.409517e-06
-0.0005718831
-0.0008237172
-1.33002e-05
0.000702333
-5.068952e-05
0.0001856427
-8.694678e-05
0.0001822219
-0.0001225782
0.0001872853
-0.000157249
0.0002015154
-0.0001898325
0.0002151403
-0.0002196051
0.0002271506
-0.0002455459
0.0002345456
-0.000266595
0.0002352947
-0.0002814989
0.0002270423
-0.0002887148
0.000207489
-0.0002864578
0.0001746002
-0.0002732936
0.0001274827
-0.0002496622
6.794952e-05
-0.0002197512
2.346521e-06
-0.00019086
-5.935999e-05
-0.0001634237
-0.000116695
-0.0001355611
-0.0001759064
-0.0001074691
-0.0002388841
-7.956218e-05
-0.0003070167
-5.253963e-05
-0.000383052
-2.691832e-05
-0.0004746572
-3.350671e-06
-0.0005954508
-0.0008270679
-1.371281e-05
0.0007160457
-5.007407e-05
0.0002220039
-8.628342e-05
0.0002184312
-0.000122703
0.0002237048
-0.0001583019
0.0002371142
-0.0001919203
0.0002487587
-0.0002226318
0.000257862
-0.0002491968
0.0002611106
-0.0002702636
0.0002563614
-0.000284182
0.0002409607
-0.0002890585
0.0002123654
-0.000283142
0.0001686836
-0.0002660226
0.0001103632
-0.0002405437
4.247051e-05
-0.0002134098
-2.478758e-05
-0.0001887318
-8.403806e-05
-0.0001633626
-0.0001420642
-0.0001367092
-0.0002025598
-0.0001092285
-0.0002663649
-8.149866e-05
-0.0003347466
-5.43754e-05
-0.0004101753
-2.875436e-05
-0.0005002783
-5.634125e-06
-0.000618571
-0.000832702
-1.430893e-05
0.0007303546
-5.010004e-05
0.000257795
-8.661158e-05
0.0002549427
-0.0001239107
0.000261004
-0.0001604261
0.0002736296
-0.0001949418
0.0002832744
-0.0002262654
0.0002891856
-0.000252937
0.0002877821
-0.0002733054
0.0002767297
-0.0002854224
0.0002530776
-0.000287338
0.0002142809
-0.0002779583
0.0001593038
-0.0002587395
9.114444e-05
-0.0002348825
1.86133e-05
-0.0002125392
-4.713093e-05
-0.0001905819
-0.0001059954
-0.0001665341
-0.0001661121
-0.0001405375
-0.0002285564
-0.000113119
-0.0002937834
-8.506625e-05
-0.0003627993
-5.738661e-05
-0.0004378549
-3.130613e-05
-0.0005263588
-8.155267e-06
-0.0006417219
-0.0008408573
-1.505078e-05
0.0007454054
-5.063016e-05
0.0002933744
-8.75478e-05
0.0002918604
-0.0001256486
0.0002991047
-0.0001629135
0.0003108944
-0.0001980414
0.0003184023
-0.0002295613
0.0003207054
-0.0002558142
0.000314035
-0.0002749176
0.0002958332
-0.0002848438
0.0002630037
-0.0002840224
0.0002134594
-0.000272627
0.0001479084
-0.000254084
7.260135e-05
-0.0002343233
-1.147538e-06
-0.0002162344
-6.521991e-05
-0.0001959392
-0.0001262906
-0.000172669
-0.0001893823
-0.0001467572
-0.0002544682
-0.0001189196
-0.0003216211
-9.010074e-05
-0.0003916182
-6.147162e-05
-0.0004664841
-3.451706e-05
-0.0005533134
-1.085469e-05
-0.0006653843
-0.000851712
-1.588252e-05
0.0007612879
-5.148322e-05
0.0003289751
-8.881376e-05
0.0003291909
-0.0001275443
0.0003378352
-0.0001652648
0.0003486149
-0.0002006092
0.0003537467
-0.0002318753
0.0003519715
-0.0002572786
0.0003394382
-0.0002748583
0.0003134128
-0.0002828046
0.00027095
-0.0002803579
0.0002110126
-0.0002692241
0.0001367745
-0.0002540128
5.738998e-05
-0.000239154
-1.600646e-05
-0.0002237009
-8.067305e-05
-0.0002043739
-0.0001456176
-0.0001813255
-0.0002124308
-0.000155033
-0.0002807607
-0.0001263578
-0.0003502963
-9.639572e-05
-0.0004215803
-6.647916e-05
-0.0004964007
-3.829075e-05
-0.0005815018
-1.367454e-05
-0.0006900005
-0.0008653866
-1.67576e-05
0.0007780455
-5.263754e-05
0.000364855
-9.041495e-05
0.0003669683
-0.0001295786
0.0003769989
-0.0001674215
0.0003864579
-0.0002025705
0.0003888957
-0.0002331967
0.0003825976
-0.0002575226
0.0003637641
-0.0002737278
0.0003296179
-0.0002805334
0.0002777556
-0.0002782489
0.0002087281
-0.000269745
0.0001282705
-0.0002592505
4.68954e-05
-0.0002483725
-2.688451e-05
-0.0002342178
-9.482779e-05
-0.0002153325
-0.0001645029
-0.0001920376
-0.0002357257
-0.0001649745
-0.0003078238
-0.0001351196
-0.0003801512
-0.0001037077
-0.0004529921
-7.222376e-05
-0.0005278846
-4.25031e-05
-0.0006112225
-1.656068e-05
-0.000715943
-0.0008819473
-1.768066e-05
0.0007957262
-5.425019e-05
0.0004014246
-9.265034e-05
0.0004053685
-0.0001321157
0.0004164643
-0.0001698195
0.0004241617
-0.0002044556
0.0004235318
-0.0002342188
0.0004123609
-0.0002575064
0.0003870517
-0.0002728661
0.0003449776
-0.0002797546
0.000284644
-0.000279429
0.0002084025
-0.0002749803
0.0001238218
-0.000268954
4.086901e-05
-0.0002605932
-3.52453e-05
-0.0002471159
-0.0001083052
-0.0002282097
-0.0001834091
-0.0002042905
-0.0002596448
-0.0001761488
-0.0003359655
-0.0001448552
-0.0004114448
-0.0001117629
-0.0004860845
-7.84966e-05
-0.0005611509
-4.701307e-05
-0.000642706
-1.945622e-05
-0.0007434998
-0.0009014035
-1.875773e-05
0.000814484
-5.659995e-05
0.0004392669
-9.597359e-05
0.0004447422
-0.0001357485
0.0004562392
-0.0001732149
0.0004616281
-0.0002072045
0.0004575215
-0.0002361031
0.0004412595
-0.0002586388
0.0004095874
-0.0002738919
0.0003602307
-0.0002820545
0.0002928066
-0.000284857
0.0002112049
-0.0002846514
0.0001236162
-0.0002819878
3.82054e-05
-0.0002749471
-4.228601e-05
-0.0002616734
-0.0001215788
-0.0002423459
-0.0002027367
-0.0002175219
-0.0002844687
-0.0001880833
-0.0003654041
-0.0001551814
-0.0004443467
-0.0001202626
-0.0005210033
-8.507324e-05
-0.0005963402
-5.167106e-05
-0.0006761082
-2.230231e-05
-0.0007728686
-0.0009237058
-2.02067e-05
0.0008346907
-5.998234e-05
0.0004790425
-0.0001007885
0.0004855484
-0.0001410378
0.0004964885
-0.0001783658
0.0004989562
-0.000211796
0.0004909516
-0.0002400468
0.0004695103
-0.0002622788
0.0004318194
-0.0002781479
0.0003760998
-0.0002883649
0.0003030237
-0.0002945318
0.0002173718
-0.000297748
0.0001268323
-0.0002970879
3.754527e-05
-0.0002905332
-4.884073e-05
-0.0002770631
-0.0001350489
-0.0002570354
-0.0002227642
-0.0002311221
-0.000310382
-0.0002002681
-0.0003962582
-0.0001656867
-0.000478928
-0.0001288886
-0.0005578014
-9.17194e-05
-0.0006335094
-5.632427e-05
-0.0007115033
-2.503888e-05
-0.000804154
-0.0009487447
-2.229541e-05
0.0008569861
-6.458264e-05
0.0005213298
-0.000107257
0.0005282228
-0.0001482524
0.000537484
-0.0001857018
0.0005364056
-0.0002188464
0.0005240963
-0.0002468158
0.0004974798
-0.0002692167
0.0004542202
-0.0002861825
0.0003930657
-0.0002986071
0.0003154483
-0.0003075398
0.0002263044
-0.0003129156
0.0001322082
-0.0003131245
3.77542e-05
-0.0003064848
-5.54804e-05
-0.0002924697
-0.000149064
-0.0002715464
-0.0002436875
-0.0002444547
-0.0003374737
-0.0002121716
-0.0004285412
-0.0001759426
-0.000515157
-0.0001373115
-0.0005964325
-9.8197e-05
-0.0006726239
-6.082118e-05
-0.0007488791
-2.760606e-05
-0.0008373691
-0.0009763507
-2.522094e-05
0.0008822071
-7.036014e-05
0.0005664691
-0.0001151793
0.0005730421
-0.0001572036
0.0005795084
-0.0001951001
0.0005743021
-0.0002283228
0.0005573189
-0.000256409
0.000525566
-0.0002793363
0.0004771476
-0.0002975277
0.0004112571
-0.000311768
0.0003296886
-0.000322451
0.0002369875
-0.0003287644
0.0001385216
-0.0003289893
3.797907e-05
-0.0003218299
-6.263981e-05
-0.0003070341
-0.0001638597
-0.0002851272
-0.0002655943
-0.0002568751
-0.0003657258
-0.0002232567
-0.0004621596
-0.0001855169
-0.0005528967
-0.0001452012
-0.0006367482
-0.000104271
-0.0007135542
-6.501557e-05
-0.0007881345
-2.994601e-05
-0.0008724386
-0.001006297
-2.899233e-05
0.0009111995
-7.69952e-05
0.000614472
-0.0001239948
0.0006200417
-0.0001672389
0.0006227526
-0.0002058587
0.0006129219
-0.0002394869
0.0005909472
-0.000267995
0.0005540742
-0.0002916022
0.0005007549
-0.0003108257
0.0004304805
-0.0003261941
0.0003450571
-0.0003375885
0.0002483819
-0.0003438862
0.0001448194
-0.0003435497
3.764256e-05
-0.0003355908
-7.059862e-05
-0.0003199067
-0.0001795438
-0.0002970423
-0.0002884586
-0.0002677567
-0.0003950113
-0.0002330022
-0.0004969141
-0.000193991
-0.0005919078
-0.0001522385
-0.0006785008
-0.0001097166
-0.000756076
-6.877046e-05
-0.0008290806
-3.200471e-05
-0.0009092044
-0.001038301
-3.339087e-05
0.0009445904
-8.394198e-05
0.0006650232
-0.0001329076
0.0006690074
-0.0001773981
0.0006672432
-0.0002168746
0.0006523984
-0.0002510965
0.0006251691
-0.0002801588
0.0005831366
-0.0003043885
0.0005249846
-0.0003242626
0.0004503546
-0.000340049
0.0003608435
-0.0003513415
0.0002596744
-0.0003570063
0.0001504842
-0.0003557729
3.640926e-05
-0.0003468772
-7.949429e-05
-0.0003303118
-0.0001961091
-0.0003066198
-0.0003121506
-0.0002765267
-0.0004251044
-0.0002409298
-0.0005325109
-0.000200979
-0.0006318585
-0.0001581287
-0.000721351
-0.0001143279
-0.0007998768
-7.196224e-05
-0.0008714463
-3.373394e-05
-0.0009474326
-0.001072035
-3.803202e-05
0.0009826225
-9.056602e-05
0.0007175573
-0.0001410807
0.0007195221
-0.0001866573
0.0007128199
-0.000226941
0.0006926821
-0.0002617605
0.0006599887
-0.0002913251
0.0006127012
-0.0003159688
0.0005496284
-0.0003360683
0.0004704541
-0.0003516997
0.000376475
-0.0003623583
0.0002703331
-0.0003670475
0.0001551735
-0.0003647614
3.412322e-05
-0.0003549157
-8.933989e-05
-0.0003375816
-0.0002134432
-0.000313284
-0.0003364481
-0.0002826933
-0.0004556951
-0.0002466271
-0.0005685771
-0.0002061454
-0.0006723402
-0.0001626141
-0.0007648823
-0.0001179247
-0.0008445661
-7.448443e-05
-0.0009148866
-3.509309e-05
-0.0009868239
-0.001107128
-4.24856e-05
0.001025108
-9.629385e-05
0.0007713656
-0.0001478078
0.0007710362
-0.0001941467
0.0007591589
-0.0002350172
0.0007335526
-0.0002702662
0.0006952378
-0.0003001325
0.0006425675
-0.0003248995
0.0005743954
-0.0003448358
0.0004903904
-0.0003599054
0.0003915447
-0.0003696219
0.0002800496
-0.0003731794
0.000158731
-0.0003698129
3.075679e-05
-0.0003591036
-0.0001000491
-0.0003411964
-0.0002313504
-0.0003165867
-0.0003610578
-0.0002858717
-0.0004864099
-0.0002497673
-0.0006046815
-0.0002092202
-0.0007128872
-0.0001654841
-0.0008086184
-0.0001203595
-0.0008896906
-7.625099e-05
-0.0009589951
-3.605062e-05
-0.001027024
-0.001143179
-4.638562e-05
0.001071494
-0.0001007106
0.0008256906
-0.0001526063
0.000822932
-0.0001992682
0.0008058208
-0.0002403766
0.0007746611
-0.000275758
0.0007306193
-0.0003056258
0.0006724354
-0.0003301898
0.0005989595
-0.0003496269
0.0005098276
-0.000363852
0.0004057698
-0.0003724565
0.0002886541
-0.0003748356
0.0001611102
-0.0003704445
2.636575e-05
-0.0003590288
-0.0001114647
-0.0003408034
-0.0002495757
-0.0003162236
-0.0003856376
-0.0002857982
-0.0005168353
-0.0002501217
-0.0006403579
-0.0002100091
-0.0007529997
-0.000166583
-0.0008520445
-0.0001215219
-0.0009347516
-7.719855e-05
-0.001003318
-3.658514e-05
-0.001067638
-0.001179764
-4.94875e-05
0.001120981
-0.0001035862
0.0008797894
-0.0001552269
0.0008745727
-0.0002017072
0.0008523012
-0.0002426253
0.0008155792
-0.0002777604
0.0007657544
-0.0003072714
0.0007019464
-0.0003312926
0.0006229807
-0.0003499337
0.0005284688
-0.0003631042
0.0004189403
-0.0003705012
0.0002960512
-0.000371715
0.0001623241
-0.0003664034
2.105423e-05
-0.0003544796
-0.0001233885
-0.0003362241
-0.000267831
-0.0003120408
-0.0004098209
-0.0002823353
-0.0005465407
-0.000247565
-0.0006751281
-0.000208398
-0.0007921666
-0.0001658135
-0.000894629
-0.000121341
-0.000979224
-7.728749e-05
-0.001047372
-3.66858e-05
-0.001108239
-0.00121645
-5.167175e-05
0.001172653
-0.0001048497
0.0009329674
-0.0001556112
0.0009253343
-0.0002013819
0.0008980719
-0.0002416438
0.0008558413
-0.0002761134
0.000800224
-0.0003048831
0.0007307162
-0.0003280217
0.0006461193
-0.0003455966
0.0005460437
-0.0003575404
0.0004308842
-0.0003636665
0.0003021774
-0.0003637503
0.0001624079
-0.000357643
1.49471e-05
-0.0003454291
-0.0001356023
-0.0003274447
-0.0002858154
-0.0003040281
-0.0004332375
-0.0002754678
-0.0005751009
-0.0002420723
-0.0007085236
-0.0002043522
-0.0008298866
-0.0001631367
-0.0009358445
-0.0001197853
-0.001022575
-7.650163e-05
-0.001090655
-3.635211e-05
-0.001148389
-0.001252802
-5.291643e-05
0.00122557
-0.0001045413
0.0009845923
-0.0001538317
0.0009746248
-0.0001983704
0.0009426107
-0.0002375051
0.000894976
-0.0002708811
0.0008336001
-0.0002985231
0.0007583583
-0.0003204498
0.000668046
-0.0003367095
0.0005623034
-0.0003472785
0.0004414533
-0.0003520898
0.0003069888
-0.0003510897
0.0001614079
-0.0003443127
8.170123e-06
-0.000332023
-0.0001478919
-0.0003146043
-0.0003032339
-0.000292308
-0.0004555338
-0.0002652927
-0.0006021162
-0.0002337113
-0.000740105
-0.0001979107
-0.0008656872
-0.0001585687
-0.0009751865
-0.0001168603
-0.001064284
-7.484679e-05