/*--------------------------------*- C++ -*----------------------------------*\
| =========                 |                                                 |
| \\      /  F ield         | OpenFOAM: The Open Source CFD Toolbox           |
|  \\    /   O peration     | Version:  2312                                  |
|   \\  /    A nd           | Website:  www.openfoam.com                      |
|    \\/     M anipulation  |                                                 |
\*---------------------------------------------------------------------------*/
FoamFile
{
    version     2.0;
    format      ascii;
    arch        "LSB;label=32;scalar=64";
    class       volVectorField;
    location    "2000";
    object      U;
}
// * * * * * * * * * * * * * * * * * * * * * * * * * * * * * * * * * * * * * //

dimensions      [0 1 -1 0 0 0 0];

internalField   nonuniform List<vector> 
1920
(
(-0.07097076 0.04748703 0)
(-0.1042049 0.01710936 0)
(-0.1327666 0.007037193 0)
(-0.1431604 0.001447878 0)
(-0.1484159 -0.001160485 0)
(-0.1514694 -0.001155258 0)
(-0.1569754 6.505637e-05 0)
(-0.1648704 0.001794783 0)
(-0.1754044 0.003554837 0)
(-0.1885995 0.005050336 0)
(-0.2040441 0.006127648 0)
(-0.2210655 0.006645875 0)
(-0.2388348 0.006525357 0)
(-0.2565454 0.005790793 0)
(-0.2734785 0.004536489 0)
(-0.2889273 0.002852577 0)
(-0.3021571 0.0007897848 0)
(-0.3123336 -0.00171209 0)
(-0.3183472 -0.00490344 0)
(-0.3179812 -0.009359649 0)
(-0.3087352 -0.0166112 0)
(-0.2844654 -0.02968312 0)
(-0.2239772 -0.05444607 0)
(-0.1264843 -0.1146798 0)
(-0.04519277 0.09431344 0)
(-0.05310881 0.0409666 0)
(-0.0720206 0.02255004 0)
(-0.07130744 0.01144155 0)
(-0.07139974 0.006896706 0)
(-0.07441537 0.00806779 0)
(-0.08451651 0.0114474 0)
(-0.09729424 0.0140231 0)
(-0.1116088 0.01684725 0)
(-0.1268296 0.01947413 0)
(-0.1425841 0.02157674 0)
(-0.1585893 0.02293567 0)
(-0.1743026 0.02354651 0)
(-0.1890925 0.02348341 0)
(-0.2024038 0.02272064 0)
(-0.2136701 0.02114512 0)
(-0.2223078 0.01861508 0)
(-0.227718 0.01473949 0)
(-0.2291875 0.008715522 0)
(-0.2253064 -0.0007384176 0)
(-0.2162994 -0.01526869 0)
(-0.1966096 -0.04125151 0)
(-0.1543135 -0.08950958 0)
(-0.07285363 -0.2053303 0)
(-0.03435214 0.1287044 0)
(-0.03539835 0.04927094 0)
(-0.05001145 0.02143966 0)
(-0.046064 0.005213521 0)
(-0.0395774 0.002077169 0)
(-0.03165037 0.01066046 0)
(-0.03550079 0.01979045 0)
(-0.04528811 0.0250637 0)
(-0.05688863 0.0286835 0)
(-0.07068966 0.03147726 0)
(-0.08542564 0.03342394 0)
(-0.1000574 0.03412596 0)
(-0.1136015 0.03316421 0)
(-0.125582 0.03056954 0)
(-0.1358778 0.02650662 0)
(-0.1441379 0.02103055 0)
(-0.1499247 0.0141827 0)
(-0.1528818 0.005651882 0)
(-0.1523221 -0.005107188 0)
(-0.1469334 -0.01813152 0)
(-0.1406179 -0.03718864 0)
(-0.1284048 -0.07333556 0)
(-0.1074416 -0.1434852 0)
(-0.04689592 -0.2921495 0)
(-0.02835464 0.1539548 0)
(-0.0283107 0.05800197 0)
(-0.04410494 0.02730364 0)
(-0.04294941 0.005088202 0)
(-0.03192672 -0.006875961 0)
(-0.01472639 0.004829375 0)
(-0.005168023 0.02147734 0)
(-0.004452484 0.03157703 0)
(-0.009458154 0.03870365 0)
(-0.0194035 0.04366061 0)
(-0.03245455 0.04609557 0)
(-0.04650272 0.04603176 0)
(-0.05971308 0.04409345 0)
(-0.07094161 0.04115075 0)
(-0.07991128 0.03702426 0)
(-0.08608708 0.03125945 0)
(-0.08886066 0.02383034 0)
(-0.08782182 0.01413452 0)
(-0.08153171 0.001431383 0)
(-0.07380554 -0.01434438 0)
(-0.06973113 -0.03365299 0)
(-0.06448041 -0.07347242 0)
(-0.07008802 -0.160983 0)
(-0.03119607 -0.343592 0)
(-0.02463143 0.1758346 0)
(-0.02306057 0.06527458 0)
(-0.03713374 0.03063861 0)
(-0.03276689 -0.001838344 0)
(-0.01809401 -0.02176282 0)
(-0.004640682 -0.01266499 0)
(0.01199324 0.01572701 0)
(0.02794429 0.02838783 0)
(0.03268471 0.04132433 0)
(0.03006145 0.05159752 0)
(0.02117427 0.05772732 0)
(0.007348064 0.05901342 0)
(-0.009449624 0.05554553 0)
(-0.0243196 0.0489801 0)
(-0.03582253 0.04053833 0)
(-0.04392675 0.03028636 0)
(-0.04744891 0.01827472 0)
(-0.04599133 0.003732858 0)
(-0.03866779 -0.01185312 0)
(-0.02679562 -0.02642379 0)
(-0.02221861 -0.03940586 0)
(-0.01139757 -0.07046248 0)
(-0.04102079 -0.1645226 0)
(-0.02119586 -0.3794049 0)
(-0.02201019 0.1945368 0)
(-0.01667715 0.0689282 0)
(-0.02684006 0.03153576 0)
(-0.007729703 -0.00582093 0)
(0.005412633 -0.03316597 0)
(0.01597971 -0.02563808 0)
(0.03113515 -0.004691558 0)
(0.04698459 0.01738265 0)
(0.05825423 0.03673857 0)
(0.06294703 0.05297282 0)
(0.06153904 0.06453841 0)
(0.05435436 0.0704309 0)
(0.0423792 0.07021901 0)
(0.02728882 0.06415343 0)
(0.01143622 0.05352766 0)
(-0.003016223 0.03959284 0)
(-0.01278035 0.02239517 0)
(-0.01640137 0.0008628295 0)
(-0.01371062 -0.01888538 0)
(-0.0007443492 -0.03506713 0)
(-0.002191154 -0.0472367 0)
(0.02261549 -0.0613068 0)
(-0.01822264 -0.148531 0)
(-0.01508024 -0.3999835 0)
(-0.02020116 0.2098508 0)
(-0.01034056 0.06868191 0)
(-0.01058123 0.0240033 0)
(0.02649824 -0.02682167 0)
(0.03178177 -0.04059937 0)
(0.04051517 -0.03511355 0)
(0.05031577 -0.01687649 0)
(0.06133822 0.0061352 0)
(0.07242524 0.02824634 0)
(0.08035395 0.0488375 0)
(0.0839532 0.06517138 0)
(0.08278991 0.07549273 0)
(0.07708107 0.0789617 0)
(0.06758678 0.07548887 0)
(0.05571307 0.06610595 0)
(0.04344727 0.05196358 0)
(0.03223777 0.03351539 0)
(0.0242909 0.008876575 0)
(0.01695342 -0.02002729 0)
(0.0208688 -0.0403733 0)
(0.0139635 -0.05402277 0)
(0.03244747 -0.06360982 0)
(-0.001781088 -0.1249168 0)
(-0.01113661 -0.410889 0)
(-0.01865973 0.222185 0)
(-0.006029346 0.05564556 0)
(0.03133909 0.0001479162 0)
(0.05222581 -0.03736094 0)
(0.05976117 -0.04665129 0)
(0.06541201 -0.04091068 0)
(0.07061526 -0.02387012 0)
(0.07666378 -0.001719896 0)
(0.08253607 0.02102419 0)
(0.0888806 0.04330445 0)
(0.09363828 0.06255871 0)
(0.09549246 0.07626651 0)
(0.09394985 0.08298871 0)
(0.08920953 0.08216305 0)
(0.08194374 0.07423476 0)
(0.07344959 0.06003489 0)
(0.06473061 0.04023551 0)
(0.05734982 0.0152398 0)
(0.04812328 -0.01275859 0)
(0.04144185 -0.03508675 0)
(0.02932707 -0.0517581 0)
(0.0363571 -0.05866868 0)
(0.006584912 -0.1019236 0)
(-0.007608922 -0.4149774 0)
(-0.01995875 0.2336051 0)
(2.702904e-05 0.0284649 0)
(0.05703771 -0.02401918 0)
(0.07380491 -0.04832021 0)
(0.08326355 -0.05192412 0)
(0.08695104 -0.04386533 0)
(0.08859918 -0.02661807 0)
(0.08968209 -0.004617759 0)
(0.09057218 0.01753572 0)
(0.09285998 0.03945478 0)
(0.09567246 0.05966722 0)
(0.09752203 0.07534615 0)
(0.09743638 0.08437569 0)
(0.09514921 0.08569814 0)
(0.09080159 0.07936852 0)
(0.08498264 0.06605087 0)
(0.07803195 0.04665142 0)
(0.07041977 0.02229317 0)
(0.06016994 -0.005175976 0)
(0.05002538 -0.02684458 0)
(0.03609765 -0.04506236 0)
(0.03640783 -0.0513658 0)
(0.009419305 -0.0793897 0)
(-0.004379691 -0.4152835 0)
(-0.0233837 0.2459042 0)
(0.002924849 -0.03156348 0)
(0.06391939 -0.05478075 0)
(0.08448321 -0.06197448 0)
(0.09687651 -0.05786248 0)
(0.1009792 -0.04554714 0)
(0.1009709 -0.02637685 0)
(0.0985797 -0.003657936 0)
(0.09522507 0.01803037 0)
(0.09306748 0.03889981 0)
(0.09238993 0.05865922 0)
(0.09224058 0.07491042 0)
(0.09156379 0.08514812 0)
(0.08979347 0.08788238 0)
(0.08666948 0.08290466 0)
(0.08223833 0.07076711 0)
(0.0763234 0.05255328 0)
(0.06887426 0.02977311 0)
(0.05873327 0.004188541 0)
(0.04852408 -0.01721698 0)
(0.03484668 -0.03662347 0)
(0.03285166 -0.04213861 0)
(0.007811169 -0.06090705 0)
(-0.001365559 -0.413865 0)
(-0.02687225 0.2589932 0)
(0.003964045 -0.06820005 0)
(0.06265365 -0.08443027 0)
(0.08554262 -0.0780548 0)
(0.100693 -0.06576476 0)
(0.1060845 -0.04754307 0)
(0.1055776 -0.02464921 0)
(0.1009687 2.502334e-05 0)
(0.0941248 0.02189765 0)
(0.08819957 0.04173863 0)
(0.08394709 0.06037432 0)
(0.08107199 0.07616364 0)
(0.07878705 0.08661138 0)
(0.07646379 0.08995911 0)
(0.0735921 0.08585812 0)
(0.06987384 0.07480192 0)
(0.06484065 0.05795562 0)
(0.05811262 0.0369123 0)
(0.0495233 0.0127357 0)
(0.04053788 -0.008774054 0)
(0.02783108 -0.02912264 0)
(0.02558762 -0.0348146 0)
(0.003728931 -0.04596982 0)
(0.001638423 -0.4129566 0)
(-0.02972166 0.2704828 0)
(0.007445145 -0.1101947 0)
(0.05822674 -0.1165723 0)
(0.08164634 -0.0956218 0)
(0.09609693 -0.07488019 0)
(0.1017213 -0.04988642 0)
(0.1008057 -0.02206981 0)
(0.09470283 0.005483989 0)
(0.08527229 0.02823355 0)
(0.07645516 0.04729177 0)
(0.06940575 0.06464364 0)
(0.06412681 0.07934583 0)
(0.06023833 0.08920871 0)
(0.05721686 0.0924014 0)
(0.05442189 0.08858457 0)
(0.05134841 0.07822662 0)
(0.04739612 0.06247121 0)
(0.04185595 0.04282746 0)
(0.03580783 0.01948031 0)
(0.02858668 -0.001789729 0)
(0.01459782 -0.02307069 0)
(0.01178436 -0.03237545 0)
(0.0003314855 -0.03654324 0)
(0.004656691 -0.4125696 0)
(-0.03150465 0.2805227 0)
(0.01210112 -0.1485508 0)
(0.04989235 -0.1444404 0)
(0.07106025 -0.1108488 0)
(0.08044387 -0.08270409 0)
(0.08442827 -0.05154331 0)
(0.08272908 -0.01862193 0)
(0.07593792 0.01291756 0)
(0.06588924 0.03656784 0)
(0.05585724 0.05483122 0)
(0.04761993 0.07078967 0)
(0.04109933 0.08394843 0)
(0.03648527 0.09260431 0)
(0.03340615 0.09498824 0)
(0.03114559 0.09091963 0)
(0.02908801 0.08084814 0)
(0.02665384 0.06580653 0)
(0.02275448 0.04714898 0)
(0.02044935 0.02399184 0)
(0.01743571 0.004469907 0)
(-0.008151855 -0.01974858 0)
(-0.007700943 -0.009387327 0)
(0.0008854068 -0.03878409 0)
(0.007066092 -0.4121157 0)
(-0.03178944 0.2883281 0)
(0.01637905 -0.1813347 0)
(0.03566888 -0.1652978 0)
(0.05115268 -0.1202415 0)
(0.04966221 -0.0856945 0)
(0.04925061 -0.05006396 0)
(0.04576497 -0.0123131 0)
(0.04006195 0.02316002 0)
(0.03244719 0.04554148 0)
(0.024804 0.06244164 0)
(0.01800994 0.07719023 0)
(0.01210709 0.08866486 0)
(0.008419237 0.09582133 0)
(0.006499012 0.09696801 0)
(0.005583353 0.09225444 0)
(0.005075801 0.08207243 0)
(0.004555065 0.06725071 0)
(0.002373645 0.04849041 0)
(0.005246506 0.023006 0)
(-0.01229644 -0.01607323 0)
(-0.01862926 0.002714129 0)
(-0.01512114 0.006023841 0)
(-0.006646859 -0.05393461 0)
(0.008736629 -0.4108732 0)
(-0.0302751 0.2934801 0)
(0.01907163 -0.2051258 0)
(0.01478094 -0.1745519 0)
(0.02104315 -0.1183231 0)
(0.004087471 -0.07825508 0)
(-0.001687899 -0.0392451 0)
(-0.01096231 0.003619746 0)
(-0.009502476 0.03009657 0)
(-0.01198301 0.04917205 0)
(-0.01307999 0.06686056 0)
(-0.01619978 0.08147004 0)
(-0.01997225 0.09183279 0)
(-0.0213195 0.09746724 0)
(-0.02128328 0.09742139 0)
(-0.02038657 0.09211309 0)
(-0.01911645 0.0818682 0)
(-0.0179369 0.06717195 0)
(-0.01854576 0.04770184 0)
(-0.02035003 0.02293582 0)
(-0.028306 0.003441984 0)
(-0.0254689 0.01764647 0)
(-0.02885545 -0.01381032 0)
(-0.00580657 -0.07289144 0)
(0.009884865 -0.4090306 0)
(-0.02680295 0.2961313 0)
(0.01884617 -0.21602 0)
(-0.01068574 -0.1684113 0)
(-0.01396336 -0.1044172 0)
(-0.03768605 -0.06672352 0)
(-0.04475821 -0.0353637 0)
(-0.05319085 -0.008160526 0)
(-0.0486785 0.02004797 0)
(-0.04776223 0.04679849 0)
(-0.04840136 0.06778784 0)
(-0.04943976 0.08280981 0)
(-0.0506349 0.09272489 0)
(-0.04974505 0.09715249 0)
(-0.04781201 0.09623226 0)
(-0.04520882 0.0904698 0)
(-0.04238791 0.08020567 0)
(-0.03991879 0.06562117 0)
(-0.03949414 0.04670561 0)
(-0.0418998 0.02747673 0)
(-0.04414666 0.01714703 0)
(-0.03641567 0.009844008 0)
(-0.03140098 -0.02612383 0)
(-0.005005947 -0.09226129 0)
(0.01009846 -0.4064036 0)
(-0.0214019 0.2969755 0)
(0.01445576 -0.2118229 0)
(-0.03463435 -0.1491985 0)
(-0.04394764 -0.09149685 0)
(-0.06664018 -0.0603604 0)
(-0.07191719 -0.03539491 0)
(-0.07714605 -0.009118919 0)
(-0.07763548 0.02058231 0)
(-0.07856608 0.04698684 0)
(-0.07899554 0.06813758 0)
(-0.07867849 0.08284539 0)
(-0.07773487 0.09191847 0)
(-0.07517807 0.09527252 0)
(-0.07176537 0.0936524 0)
(-0.0678387 0.08754816 0)
(-0.06383987 0.07732458 0)
(-0.06041192 0.0631666 0)
(-0.05895521 0.04603988 0)
(-0.05946236 0.03086666 0)
(-0.05716774 0.02030622 0)
(-0.04668928 0.002238802 0)
(-0.0334682 -0.04211179 0)
(-0.005213588 -0.1125236 0)
(0.009968571 -0.4036564 0)
(-0.01470789 0.2972729 0)
(0.006854836 -0.1941567 0)
(-0.05225062 -0.1257335 0)
(-0.06205077 -0.07776218 0)
(-0.08214666 -0.05010127 0)
(-0.08850883 -0.02671193 0)
(-0.09720533 -0.001962018 0)
(-0.1013624 0.02364197 0)
(-0.1033865 0.04789336 0)
(-0.1036166 0.06794275 0)
(-0.1025005 0.08180093 0)
(-0.1002733 0.08983562 0)
(-0.09674249 0.09229747 0)
(-0.09244393 0.09009027 0)
(-0.08771335 0.0837111 0)
(-0.08302158 0.07358958 0)
(-0.07906225 0.06015324 0)
(-0.07661237 0.0448827 0)
(-0.07431269 0.03076062 0)
(-0.06753785 0.01537036 0)
(-0.05281788 -0.01400836 0)
(-0.03384381 -0.06249905 0)
(-0.00517107 -0.1325152 0)
(0.00958575 -0.4011438 0)
(-0.008051042 0.2984202 0)
(-0.001005392 -0.1673661 0)
(-0.06227757 -0.1005391 0)
(-0.07220059 -0.06334547 0)
(-0.09251974 -0.04021626 0)
(-0.101245 -0.01998552 0)
(-0.1115838 0.002695388 0)
(-0.1171657 0.02660326 0)
(-0.120741 0.04904611 0)
(-0.1215279 0.067561 0)
(-0.1204896 0.08023173 0)
(-0.1179703 0.08717425 0)
(-0.1142184 0.08880509 0)
(-0.1096597 0.08601827 0)
(-0.1046386 0.07935635 0)
(-0.09962244 0.06937087 0)
(-0.09512016 0.05674178 0)
(-0.09097605 0.04266856 0)
(-0.08463095 0.02735891 0)
(-0.07287779 0.005524932 0)
(-0.05356055 -0.03254399 0)
(-0.03322909 -0.08272002 0)
(-0.005210404 -0.1518455 0)
(0.009074086 -0.3988777 0)
(-0.002454195 0.3007382 0)
(-0.007573262 -0.1352568 0)
(-0.06628479 -0.07610087 0)
(-0.07673561 -0.04889844 0)
(-0.09711609 -0.02877682 0)
(-0.1078373 -0.01008408 0)
(-0.1196052 0.01071518 0)
(-0.1270087 0.03162056 0)
(-0.1319261 0.05152566 0)
(-0.1337268 0.06787091 0)
(-0.1333826 0.07895253 0)
(-0.1313073 0.08463714 0)
(-0.1279279 0.08533778 0)
(-0.1236079 0.08187207 0)
(-0.1186779 0.07484594 0)
(-0.1134847 0.06491891 0)
(-0.1080967 0.05270123 0)
(-0.1014168 0.03824522 0)
(-0.09047116 0.01915327 0)
(-0.07392039 -0.01106411 0)
(-0.05190327 -0.05262591 0)
(-0.03148426 -0.1025433 0)
(-0.005133935 -0.1702342 0)
(0.008523917 -0.3968847 0)
(0.00176214 0.3040595 0)
(-0.01204594 -0.1009944 0)
(-0.06609027 -0.0531095 0)
(-0.07760232 -0.03359397 0)
(-0.09827848 -0.01590748 0)
(-0.1108684 0.0008847518 0)
(-0.1234581 0.01925046 0)
(-0.1322274 0.03765487 0)
(-0.1384239 0.05501207 0)
(-0.1414923 0.06907092 0)
(-0.1422456 0.07837762 0)
(-0.141091 0.08265826 0)
(-0.1384813 0.08227346 0)
(-0.1347152 0.07796323 0)
(-0.1300274 0.07038143 0)
(-0.1244699 0.06013725 0)
(-0.1175009 0.04731457 0)
(-0.1072772 0.03060743 0)
(-0.09157441 0.006350075 0)
(-0.07172813 -0.0295523 0)
(-0.04945137 -0.07177795 0)
(-0.02956117 -0.1213477 0)
(-0.004988532 -0.1873999 0)
(0.007934735 -0.3951111 0)
(0.004791754 0.308126 0)
(-0.01436045 -0.06660894 0)
(-0.0636928 -0.03177658 0)
(-0.07663785 -0.01807167 0)
(-0.09735037 -0.002668513 0)
(-0.110984 0.01261416 0)
(-0.1241788 0.02858303 0)
(-0.1341772 0.0447168 0)
(-0.1416591 0.05959673 0)
(-0.1461192 0.07136017 0)
(-0.1481893 0.07877475 0)
(-0.1482072 0.08150498 0)
(-0.1465601 0.07984592 0)
(-0.1434288 0.07445892 0)
(-0.1388234 0.0659507 0)
(-0.1323533 0.0546091 0)
(-0.1228738 0.03966094 0)
(-0.1084768 0.01873206 0)
(-0.08877552 -0.01184873 0)
(-0.0681992 -0.04864849 0)
(-0.04623164 -0.09002696 0)
(-0.02771354 -0.1389692 0)
(-0.004813106 -0.2034098 0)
(0.007309908 -0.3935492 0)
(0.007089377 0.3126974 0)
(-0.01472943 -0.03335563 0)
(-0.06031243 -0.01234747 0)
(-0.07463665 -0.002271973 0)
(-0.0944631 0.01186474 0)
(-0.1088877 0.02478498 0)
(-0.1230254 0.03892963 0)
(-0.1342038 0.05287234 0)
(-0.1429556 0.06535572 0)
(-0.1488174 0.07484078 0)
(-0.1522554 0.08027076 0)
(-0.1534919 0.08128689 0)
(-0.1527725 0.07810672 0)
(-0.1500631 0.07126731 0)
(-0.1450197 0.06116345 0)
(-0.1367697 0.04756302 0)
(-0.1238413 0.02904253 0)
(-0.1053909 0.003170548 0)
(-0.084203 -0.030527 0)
(-0.06440246 -0.06659801 0)
(-0.04310668 -0.1072034 0)
(-0.02607366 -0.1552922 0)
(-0.004684086 -0.2183364 0)
(0.006649455 -0.3922228 0)
(0.00914591 0.3177477 0)
(-0.01447936 -0.004042209 0)
(-0.0571488 0.005404201 0)
(-0.07097898 0.01458223 0)
(-0.09043398 0.02599066 0)
(-0.1059923 0.03762174 0)
(-0.12102 0.0500919 0)
(-0.1333127 0.06199065 0)
(-0.1433064 0.07221583 0)
(-0.1505213 0.07947209 0)
(-0.1552607 0.08284094 0)
(-0.157581 0.08194292 0)
(-0.1574997 0.07688029 0)
(-0.1546584 0.06796952 0)
(-0.1482992 0.05524385 0)
(-0.1372287 0.03798733 0)
(-0.1205085 0.0146863 0)
(-0.09971203 -0.01582234 0)
(-0.07951874 -0.04858048 0)
(-0.06046438 -0.08346069 0)
(-0.04045807 -0.123244 0)
(-0.02470349 -0.1704198 0)
(-0.00467671 -0.2322791 0)
(0.005947398 -0.391183 0)
(0.01062775 0.3237461 0)
(-0.01502443 0.02022072 0)
(-0.05166556 0.02319687 0)
(-0.06617921 0.03094848 0)
(-0.08653066 0.0407332 0)
(-0.1030577 0.0512554 0)
(-0.1189633 0.06213434 0)
(-0.132333 0.07208864 0)
(-0.1434927 0.08014626 0)
(-0.1519353 0.08517741 0)
(-0.1577799 0.08635235 0)
(-0.1608585 0.08323473 0)
(-0.160878 0.07574682 0)
(-0.1571036 0.06390569 0)
(-0.1484617 0.04741756 0)
(-0.133938 0.02555262 0)
(-0.1142876 -0.002380571 0)
(-0.09426207 -0.03358954 0)
(-0.07529689 -0.06514699 0)
(-0.05718711 -0.09930436 0)
(-0.03841933 -0.1381478 0)
(-0.02369983 -0.1845353 0)
(-0.004835976 -0.2453662 0)
(0.005189729 -0.3905089 0)
(0.01091692 0.3308408 0)
(-0.01622922 0.04063522 0)
(-0.04534237 0.04239932 0)
(-0.06229766 0.04770594 0)
(-0.08341588 0.05626102 0)
(-0.1007383 0.06566016 0)
(-0.1175109 0.07499074 0)
(-0.1318672 0.08309701 0)
(-0.1440645 0.08903772 0)
(-0.1535203 0.09178555 0)
(-0.1601277 0.09053023 0)
(-0.1634294 0.08471412 0)
(-0.1627686 0.07401658 0)
(-0.1570978 0.05817888 0)
(-0.1453843 0.03690821 0)
(-0.1278512 0.01024858 0)
(-0.1079843 -0.02036958 0)
(-0.0899257 -0.04995455 0)
(-0.07181696 -0.08058351 0)
(-0.05490354 -0.1141555 0)
(-0.03710264 -0.1521427 0)
(-0.02313768 -0.197832 0)
(-0.005215904 -0.2577407 0)
(0.004346326 -0.3903177 0)
(0.01059445 0.3379218 0)
(-0.01795098 0.06215503 0)
(-0.0414835 0.06166574 0)
(-0.06022047 0.06480922 0)
(-0.08141439 0.07251219 0)
(-0.09950061 0.08073426 0)
(-0.1170594 0.08860142 0)
(-0.1322756 0.09491127 0)
(-0.1453173 0.09871671 0)
(-0.1554671 0.0990224 0)
(-0.1623531 0.09495745 0)
(-0.1651931 0.08578817 0)
(-0.1630057 0.07097109 0)
(-0.1546672 0.05021165 0)
(-0.1398832 0.02382448 0)
(-0.1211268 -0.006647722 0)
(-0.1035815 -0.03617646 0)
(-0.08688535 -0.06476297 0)
(-0.06975031 -0.09512137 0)
(-0.05369136 -0.1282038 0)
(-0.03658447 -0.1655147 0)
(-0.02301824 -0.2105329 0)
(-0.005878745 -0.2696258 0)
(0.003365092 -0.3907165 0)
(0.01012535 0.3446445 0)
(-0.01903558 0.08137378 0)
(-0.03949973 0.07977794 0)
(-0.05954541 0.08216449 0)
(-0.08063375 0.08929354 0)
(-0.09949523 0.09640638 0)
(-0.117719 0.1028873 0)
(-0.1336417 0.1073844 0)
(-0.1472591 0.10894 0)
(-0.1576765 0.1065058 0)
(-0.1642301 0.09907965 0)
(-0.1658373 0.08574248 0)
(-0.161382 0.06589203 0)
(-0.1501942 0.03971989 0)
(-0.1337264 0.009040231 0)
(-0.1165988 -0.02222493 0)
(-0.1011246 -0.05020167 0)
(-0.08540589 -0.07859229 0)
(-0.06917829 -0.1088869 0)
(-0.05360863 -0.1417326 0)
(-0.03691202 -0.17853 0)
(-0.02338016 -0.2228736 0)
(-0.006864358 -0.2810325 0)
(0.002258557 -0.391971 0)
(0.009546691 0.351452 0)
(-0.01960053 0.09911392 0)
(-0.03844731 0.09732861 0)
(-0.0597224 0.09976476 0)
(-0.08084997 0.1065002 0)
(-0.1005175 0.1126214 0)
(-0.1192878 0.1177316 0)
(-0.13573 0.1203157 0)
(-0.149589 0.1193864 0)
(-0.1597862 0.1137697 0)
(-0.1653891 0.1023098 0)
(-0.1651497 0.08401256 0)
(-0.1581689 0.05860731 0)
(-0.1449208 0.02744513 0)
(-0.1289737 -0.005765586 0)
(-0.1147277 -0.03516221 0)
(-0.100592 -0.06283868 0)
(-0.08576013 -0.09167975 0)
(-0.0700529 -0.1221866 0)
(-0.05464973 -0.155041 0)
(-0.03807236 -0.1914695 0)
(-0.02426118 -0.2351022 0)
(-0.008152138 -0.292118 0)
(0.001079948 -0.3942649 0)
(0.008798384 0.358633 0)
(-0.02009596 0.1166272 0)
(-0.03803159 0.1150212 0)
(-0.06041407 0.1177855 0)
(-0.08170799 0.1241595 0)
(-0.1021444 0.1293332 0)
(-0.121317 0.1329867 0)
(-0.1380465 0.1334548 0)
(-0.1517755 0.1296815 0)
(-0.1612738 0.1203301 0)
(-0.1654307 0.1041481 0)
(-0.1630935 0.08032036 0)
(-0.1541282 0.04945643 0)
(-0.1407555 0.01471676 0)
(-0.1274152 -0.018218 0)
(-0.1152043 -0.04630379 0)
(-0.102044 -0.07469802 0)
(-0.08778485 -0.1042695 0)
(-0.07228759 -0.1353117 0)
(-0.05674853 -0.1683731 0)
(-0.04002195 -0.2045684 0)
(-0.02568625 -0.2474487 0)
(-0.009701066 -0.303124 0)
(-0.0001105789 -0.3977199 0)
(0.007890141 0.3661838 0)
(-0.02063695 0.1341339 0)
(-0.03808627 0.1330184 0)
(-0.06138908 0.1362692 0)
(-0.08285576 0.1422565 0)
(-0.1039088 0.1464426 0)
(-0.1232819 0.1484572 0)
(-0.1400237 0.1465189 0)
(-0.1532761 0.1394631 0)
(-0.1617409 0.1258185 0)
(-0.1643093 0.1044039 0)
(-0.1602886 0.07500464 0)
(-0.1507551 0.03973232 0)
(-0.1391385 0.003663568 0)
(-0.1286982 -0.02771854 0)
(-0.117805 -0.05637466 0)
(-0.1053546 -0.08600794 0)
(-0.0912992 -0.1166681 0)
(-0.07573598 -0.1485121 0)
(-0.05979734 -0.1819623 0)
(-0.04268009 -0.2180314 0)
(-0.02762194 -0.2601272 0)
(-0.01147622 -0.3142846 0)
(-0.001286673 -0.4024391 0)
(0.006889171 0.3740768 0)
(-0.02118338 0.1515675 0)
(-0.03847513 0.1512146 0)
(-0.06247991 0.155111 0)
(-0.08404534 0.1606654 0)
(-0.1054794 0.1637644 0)
(-0.124806 0.1639061 0)
(-0.1412826 0.1592375 0)
(-0.1538143 0.1484806 0)
(-0.1611622 0.1301425 0)
(-0.1624521 0.1033941 0)
(-0.1577734 0.06908438 0)
(-0.1493774 0.03099391 0)
(-0.1406878 -0.005020303 0)
(-0.1323981 -0.03558944 0)
(-0.1223356 -0.06583703 0)
(-0.1102154 -0.09705245 0)
(-0.09610385 -0.1291273 0)
(-0.08021739 -0.1620045 0)
(-0.0636642 -0.1960077 0)
(-0.0459424 -0.2320353 0)
(-0.03000201 -0.2733269 0)
(-0.01343334 -0.3258301 0)
(-0.002430473 -0.4084929 0)
(0.005879089 0.3823348 0)
(-0.02172506 0.1690007 0)
(-0.03918996 0.1695677 0)
(-0.06367741 0.1741932 0)
(-0.08525617 0.1792027 0)
(-0.1068038 0.1810717 0)
(-0.1258421 0.1790992 0)
(-0.1418358 0.1714162 0)
(-0.1535702 0.156677 0)
(-0.160024 0.1335482 0)
(-0.1607847 0.1018655 0)
(-0.1568501 0.06380733 0)
(-0.1509722 0.02439419 0)
(-0.1450338 -0.01113127 0)
(-0.1379311 -0.04260539 0)
(-0.1284344 -0.07493623 0)
(-0.11635 -0.1080973 0)
(-0.1019487 -0.141851 0)
(-0.08553095 -0.1759748 0)
(-0.06819182 -0.2106734 0)
(-0.04968808 -0.2467295 0)
(-0.03273685 -0.2872071 0)
(-0.01552322 -0.3379583 0)
(-0.003530957 -0.415928 0)
(0.00492501 0.3909842 0)
(-0.02231122 0.186635 0)
(-0.04036973 0.1881503 0)
(-0.06517001 0.1934303 0)
(-0.08672064 0.1977017 0)
(-0.1081439 0.1981617 0)
(-0.1267211 0.1938609 0)
(-0.1421277 0.1829866 0)
(-0.1531794 0.1642136 0)
(-0.1592199 0.1365793 0)
(-0.1604105 0.1008177 0)
(-0.1583738 0.06033245 0)
(-0.1553029 0.02043401 0)
(-0.1513274 -0.01541577 0)
(-0.1449994 -0.04915338 0)
(-0.1357269 -0.08392445 0)
(-0.1234362 -0.1193383 0)
(-0.1085624 -0.1550091 0)
(-0.09145445 -0.1905675 0)
(-0.07320279 -0.2260896 0)
(-0.05378256 -0.2622341 0)
(-0.03572335 -0.3018968 0)
(-0.01769156 -0.3508294 0)
(-0.00457832 -0.4247643 0)
(0.004035925 0.400054 0)
(-0.02304989 0.2047328 0)
(-0.04223118 0.2071034 0)
(-0.06725986 0.2127843 0)
(-0.08882306 0.2160621 0)
(-0.1099746 0.214907 0)
(-0.1280344 0.2081213 0)
(-0.1428839 0.1940266 0)
(-0.1535193 0.1714302 0)
(-0.1597284 0.1399094 0)
(-0.1621653 0.101109 0)
(-0.162514 0.05911096 0)
(-0.1617968 0.01851025 0)
(-0.1590788 -0.01894799 0)
(-0.1531477 -0.05550214 0)
(-0.1437936 -0.09300475 0)
(-0.1311349 -0.1309366 0)
(-0.1156487 -0.1687285 0)
(-0.09774474 -0.2058851 0)
(-0.07850323 -0.2423463 0)
(-0.05808023 -0.2786348 0)
(-0.03885138 -0.3174896 0)
(-0.01988145 -0.3645605 0)
(-0.005562508 -0.4349945 0)
(0.003135638 0.4096447 0)
(-0.02409848 0.2235919 0)
(-0.04495373 0.2266199 0)
(-0.07022032 0.2322876 0)
(-0.09192911 0.2342747 0)
(-0.1127868 0.2312864 0)
(-0.1304028 0.2219311 0)
(-0.1448462 0.2047317 0)
(-0.1554039 0.178728 0)
(-0.1622811 0.1440848 0)
(-0.1663743 0.1031042 0)
(-0.1689146 0.05986076 0)
(-0.1697699 0.01782937 0)
(-0.1676796 -0.02214752 0)
(-0.1618313 -0.06183374 0)
(-0.1522193 -0.1023497 0)
(-0.1390701 -0.1430052 0)
(-0.1228887 -0.18309 0)
(-0.1041415 -0.2219854 0)
(-0.08388554 -0.2594906 0)
(-0.0624272 -0.2959784 0)
(-0.0420077 -0.3340407 0)
(-0.02203498 -0.3792241 0)
(-0.006472696 -0.4465825 0)
(0.002070221 0.4199994 0)
(-0.02562118 0.2435151 0)
(-0.04857974 0.2469178 0)
(-0.07416822 0.2520411 0)
(-0.0962163 0.2524213 0)
(-0.1168753 0.247385 0)
(-0.1342256 0.2354391 0)
(-0.1484863 0.2153482 0)
(-0.1592745 0.1864359 0)
(-0.1670812 0.1493591 0)
(-0.1727464 0.1066876 0)
(-0.176839 0.06201718 0)
(-0.1784954 0.01784507 0)
(-0.1765943 -0.02522114 0)
(-0.1705805 -0.06833481 0)
(-0.1605656 -0.1120703 0)
(-0.1468515 -0.1556082 0)
(-0.1299531 -0.1981251 0)
(-0.1103735 -0.2388763 0)
(-0.0891345 -0.2775221 0)
(-0.06666499 -0.3142688 0)
(-0.04507921 -0.351564 0)
(-0.02409475 -0.3948478 0)
(-0.007297455 -0.4594636 0)
(0.0006666468 0.4315013 0)
(-0.02771119 0.2647325 0)
(-0.05296406 0.2681725 0)
(-0.07898757 0.2721781 0)
(-0.1015678 0.270643 0)
(-0.1221931 0.2633598 0)
(-0.1395012 0.2488398 0)
(-0.1538048 0.2260929 0)
(-0.165015 0.1947131 0)
(-0.1737305 0.1556544 0)
(-0.1805375 0.1114009 0)
(-0.1854414 0.06490208 0)
(-0.1872888 0.01802801 0)
(-0.1852484 -0.02845974 0)
(-0.1788808 -0.07515638 0)
(-0.1683803 -0.1222364 0)
(-0.1540875 -0.168765 0)
(-0.1365094 -0.2138144 0)
(-0.1161677 -0.2565159 0)
(-0.09403421 -0.2963919 0)
(-0.07063545 -0.3334637 0)
(-0.04795604 -0.3700302 0)
(-0.02600537 -0.4114154 0)
(-0.008025339 -0.4735445 0)
(-0.001182945 0.4445915 0)
(-0.03032091 0.2873233 0)
(-0.05778504 0.2904509 0)
(-0.08433006 0.2928098 0)
(-0.1075722 0.2890834 0)
(-0.1283312 0.2793792 0)
(-0.1457933 0.2623065 0)
(-0.1602994 0.2370886 0)
(-0.1719689 0.2035248 0)
(-0.1813577 0.16266 0)
(-0.1887577 0.1166829 0)
(-0.1938464 0.0679553 0)
(-0.1954564 0.01803678 0)
(-0.1930503 -0.03202847 0)
(-0.186223 -0.08237986 0)
(-0.1752229 -0.1328651 0)
(-0.1603981 -0.1824416 0)
(-0.1422366 -0.2300873 0)
(-0.1212607 -0.2748125 0)
(-0.09837623 -0.3160021 0)
(-0.07418622 -0.3534748 0)
(-0.05053455 -0.3893662 0)
(-0.02771487 -0.4288689 0)
(-0.008645566 -0.4887045 0)
(-0.003461887 0.4596527 0)
(-0.03325229 0.311195 0)
(-0.06261557 0.3136932 0)
(-0.08969692 0.3139821 0)
(-0.1136279 0.3078379 0)
(-0.1346286 0.2955673 0)
(-0.1523566 0.2759434 0)
(-0.1671215 0.24835 0)
(-0.1791557 0.2127093 0)
(-0.1888952 0.1700054 0)
(-0.1964057 0.1220679 0)
(-0.2012527 0.07081264 0)
(-0.2023692 0.01767935 0)
(-0.1994703 -0.03601622 0)
(-0.1921487 -0.09002839 0)
(-0.1806929 -0.1439197 0)
(-0.1654386 -0.1965542 0)
(-0.1468422 -0.2468259 0)
(-0.1254115 -0.2936282 0)
(-0.1019689 -0.336209 0)
(-0.07717687 -0.3741691 0)
(-0.05272067 -0.4094574 0)
(-0.02917629 -0.4471115 0)
(-0.009148732 -0.5047981 0)
(-0.006029704 0.476909 0)
(-0.03621583 0.3361139 0)
(-0.06702289 0.3377318 0)
(-0.09456404 0.3356574 0)
(-0.1190989 0.3269254 0)
(-0.1403571 0.311973 0)
(-0.1583567 0.2897726 0)
(-0.1733361 0.2598114 0)
(-0.1855671 0.2220646 0)
(-0.1953545 0.1773751 0)
(-0.2026349 0.1272369 0)
(-0.2069954 0.07325577 0)
(-0.2074895 0.01684244 0)
(-0.2040512 -0.04046034 0)
(-0.1962642 -0.09807382 0)
(-0.1844492 -0.155317 0)
(-0.1689158 -0.2109761 0)
(-0.1500768 -0.2638715 0)
(-0.1284127 -0.3127848 0)
(-0.1046455 -0.3568289 0)
(-0.0794845 -0.3953734 0)
(-0.05443291 -0.4301505 0)
(-0.03034909 -0.4660115 0)
(-0.009527451 -0.5216575 0)
(-0.008676257 0.496376 0)
(-0.03891812 0.3617568 0)
(-0.07065237 0.3623256 0)
(-0.09849177 0.3577186 0)
(-0.1234508 0.346286 0)
(-0.1448882 0.3285663 0)
(-0.163069 0.3037447 0)
(-0.1781445 0.2713635 0)
(-0.190381 0.231405 0)
(-0.1999773 0.1845464 0)
(-0.2068179 0.1320063 0)
(-0.2105732 0.07518136 0)
(-0.2104004 0.01549094 0)
(-0.2064379 -0.04534004 0)
(-0.1982653 -0.1064423 0)
(-0.1862287 -0.1669354 0)
(-0.1706033 -0.225546 0)
(-0.1517454 -0.2810335 0)
(-0.1301 -0.3320736 0)
(-0.1062719 -0.3776462 0)
(-0.08100862 -0.4168813 0)
(-0.05560508 -0.4512597 0)
(-0.03120044 -0.4854075 0)
(-0.009776844 -0.5390973 0)
(-0.01119135 0.5178707 0)
(-0.04113022 0.3877614 0)
(-0.07326934 0.3871923 0)
(-0.1011827 0.3799868 0)
(-0.1263199 0.3657927 0)
(-0.1477837 0.3452498 0)
(-0.1659853 0.3177561 0)
(-0.1809935 0.282875 0)
(-0.1930466 0.2405737 0)
(-0.2022724 0.1913724 0)
(-0.2085492 0.1362796 0)
(-0.2116515 0.07655503 0)
(-0.2108174 0.01363931 0)
(-0.2063889 -0.05059517 0)
(-0.1979465 -0.1150271 0)
(-0.1858543 -0.1786253 0)
(-0.1703482 -0.2400785 0)
(-0.151715 -0.2981 0)
(-0.1303582 -0.3512653 0)
(-0.1067508 -0.3984231 0)
(-0.08167446 -0.4384613 0)
(-0.05618817 -0.4725729 0)
(-0.03170615 -0.5051143 0)
(-0.009894846 -0.5569182 0)
(-0.01341396 0.5410622 0)
(-0.04271505 0.4137638 0)
(-0.07475973 0.4120333 0)
(-0.1024859 0.4022427 0)
(-0.1275186 0.3852712 0)
(-0.1488071 0.3618764 0)
(-0.1668254 0.3316653 0)
(-0.1815791 0.2942026 0)
(-0.1932683 0.2494346 0)
(-0.2019826 0.1977496 0)
(-0.2076167 0.1400053 0)
(-0.2100545 0.07737581 0)
(-0.208592 0.0113293 0)
(-0.2037804 -0.05614014 0)
(-0.1952049 -0.1236994 0)
(-0.1832385 -0.1902194 0)
(-0.1680741 -0.2543749 0)
(-0.1499159 -0.3148483 0)
(-0.1291236 -0.3701205 0)
(-0.1060242 -0.4189098 0)
(-0.08143474 -0.4598657 0)
(-0.05615122 -0.4938598 0)
(-0.03185117 -0.524929 0)
(-0.009882294 -0.5749129 0)
(-0.01524905 0.5655338 0)
(-0.0436199 0.4394198 0)
(-0.0751058 0.4365509 0)
(-0.1023693 0.4242471 0)
(-0.1270012 0.4045184 0)
(-0.1478876 0.3782681 0)
(-0.1654978 0.3453078 0)
(-0.1798011 0.3051963 0)
(-0.1909554 0.2578641 0)
(-0.1990384 0.2035984 0)
(-0.2039705 0.143156 0)
(-0.2057441 0.07766257 0)
(-0.2036939 0.008617538 0)
(-0.1985947 -0.06187736 0)
(-0.1900321 -0.1323203 0)
(-0.1783776 -0.2015438 0)
(-0.1637775 -0.2682331 0)
(-0.1463402 -0.3310556 0)
(-0.1263825 -0.3884008 0)
(-0.1040729 -0.4388551 0)
(-0.08026945 -0.4808406 0)
(-0.05548124 -0.5148797 0)
(-0.03162956 -0.5446378 0)
(-0.00974281 -0.5928703 0)
(-0.01665993 0.5908381 0)
(-0.04385242 0.4644147 0)
(-0.07435452 0.4604585 0)
(-0.1008818 0.4457557 0)
(-0.1248199 0.4233194 0)
(-0.145071 0.3942318 0)
(-0.1620445 0.3585084 0)
(-0.1757035 0.3157039 0)
(-0.1861616 0.2657439 0)
(-0.1935064 0.2088447 0)
(-0.1976865 0.1457034 0)
(-0.198803 0.07742977 0)
(-0.1962065 0.005563433 0)
(-0.190913 -0.06770116 0)
(-0.1825081 -0.1407478 0)
(-0.1713459 -0.2124261 0)
(-0.1575214 -0.2814575 0)
(-0.1410355 -0.3465075 0)
(-0.122167 -0.4058768 0)
(-0.1009136 -0.4580153 0)
(-0.07818431 -0.5011343 0)
(-0.05418203 -0.5353896 0)
(-0.03104399 -0.5640224 0)
(-0.009482485 -0.6105812 0)