/*--------------------------------*- C++ -*----------------------------------*\
| =========                 |                                                 |
| \\      /  F ield         | OpenFOAM: The Open Source CFD Toolbox           |
|  \\    /   O peration     | Version:  2312                                  |
|   \\  /    A nd           | Website:  www.openfoam.com                      |
|    \\/     M anipulation  |                                                 |
\*---------------------------------------------------------------------------*/
FoamFile
{
    version     2.0;
    format      ascii;
    arch        "LSB;label=32;scalar=64";
    class       volScalarField;
    location    "2000";
    object      wallHeatFlux;
}
// * * * * * * * * * * * * * * * * * * * * * * * * * * * * * * * * * * * * * //

dimensions      [1 0 -3 0 0 0 0];

internalField   uniform 0;

boundaryField
{
    plate
    {
        type            calculated;
        value           nonuniform List<scalar> 
80
(
6262.084
6259.74
6257.824
6256.19
6256.407
6254.954
6253.524
6252.175
6268.072
6267.231
6266.537
6265.945
6282.448
6281.841
6281.167
6280.422
6284.702
6283.866
6283.01
6282.136
6283.709
6282.801
6281.879
6280.958
6278.254
6277.376
6276.524
6275.714
6272.107
6271.415
6270.796
6270.258
6264.621
6264.289
6264.099
6264.09
6257.907
6258.358
6259.044
6259.932
6253.464
6254.579
6255.718
6256.835
6249.04
6250.019
6250.899
6251.668
6241.496
6242.021
6242.421
6242.697
6224.996
6225.034
6224.961
6224.785
6210.414
6210.054
6209.611
6209.095
6184.135
6183.486
6182.774
6182.036
6148.44
6147.741
6147.061
6146.399
6088.024
6087.391
6086.769
6086.153
6022.035
6021.418
6020.786
6020.123
5978.124
5977.285
5976.189
5974.329
)
;
    }
    riser
    {
        type            calculated;
        value           nonuniform List<scalar> 
80
(
-4065.408
-4066.757
-4067.492
-4068.011
-3956.35
-3956.694
-3956.987
-3957.233
-4238.787
-4238.929
-4238.984
-4238.995
-4490.21
-4490.214
-4490.205
-4490.196
-4696.851
-4696.807
-4696.774
-4696.768
-4859.889
-4859.973
-4860.107
-4860.295
-4984.704
-4985.003
-4985.36
-4985.757
-5076.46
-5076.915
-5077.396
-5077.899
-5139.101
-5139.644
-5140.202
-5140.774
-5175.62
-5176.211
-5176.809
-5177.411
-5187.779
-5188.382
-5188.982
-5189.578
-5175.998
-5176.577
-5177.145
-5177.701
-5139.309
-5139.834
-5140.344
-5140.836
-5054.294
-5054.752
-5055.194
-5055.621
-4980.704
-4981.105
-4981.497
-4981.882
-4851.043
-4851.427
-4851.819
-4852.221
-4682.375
-4682.814
-4683.277
-4683.771
-4473.097
-4473.663
-4474.272
-4474.931
-4231.462
-4232.244
-4233.107
-4234.069
-4033.146
-4034.403
-4035.888
-4037.678
)
;
    }
    adiabatic
    {
        type            calculated;
        value           uniform 0;
    }
    frontBack
    {
        type            empty;
    }
}


// ************************************************************************* //
