/*--------------------------------*- C++ -*----------------------------------*\
| =========                 |                                                 |
| \\      /  F ield         | OpenFOAM: The Open Source CFD Toolbox           |
|  \\    /   O peration     | Version:  2312                                  |
|   \\  /    A nd           | Website:  www.openfoam.com                      |
|    \\/     M anipulation  |                                                 |
\*---------------------------------------------------------------------------*/
FoamFile
{
    version     2.0;
    format      ascii;
    arch        "LSB;label=32;scalar=64";
    class       volScalarField;
    location    "5550";
    object      G;
}
// * * * * * * * * * * * * * * * * * * * * * * * * * * * * * * * * * * * * * //

dimensions      [1 0 -3 0 0 0 0];

internalField   nonuniform List<scalar> 
12000
(
26901.77
24018.09
22730.79
21772.74
20766.5
19749.1
18879.53
18243.78
17822.84
17545.1
17348.2
17223.73
17219.48
17385.26
17702.29
18059.06
18299.37
18310.77
18086.61
17713.57
17300.1
16905.52
16519.86
16098.7
15618.4
15109.06
14645.77
14310.48
14152.71
14170.75
14317.11
14518.4
14697.11
14788.2
14750.01
14570.58
14269.69
13894.62
13508.88
13176.1
12944.75
12838.62
12856.01
12976.01
13168.33
13402.34
13651.91
13896.27
14119.52
14309.84
14459.37
14564.75
14629.11
14662.45
14675.78
14672.52
14648.3
14589.18
14517.52
14328.54
29392.82
27551
26028.22
24600.12
23157.48
21889.39
20949.71
20304.13
19826
19411.65
19037.17
18762.54
18676.86
18807.38
19066.09
19284.71
19311.62
19096.56
18701.59
18236.46
17775.51
17320.07
16824.93
16257.22
15639.64
15049.69
14581.55
14299.89
14213.09
14275.25
14408.31
14528.99
14569.75
14490.78
14284.42
13974.3
13609.2
13251.48
12961.87
12784.81
12739.79
12821.19
13005.25
13259.65
13551.21
13849.97
14130.56
14372.92
14563.22
14694.25
14764.93
14779.49
14747.22
14682.03
14599.46
14510.01
14414.36
14298.42
14179.47
13958.25
29799.23
28645.45
27179.06
25753.35
24470.63
23375.11
22475.68
21727.12
21070.71
20482.28
20003.5
19725.53
19711.86
19916.32
20177.85
20304.57
20180.34
19815.86
19314.12
18784.25
18272.85
17758.35
17199.22
16589.96
15982.92
15465.95
15116.7
14965.01
14982.6
15099.15
15230.49
15303.83
15272.8
15122.61
14868.41
14549.54
14220.11
13936.73
13745.33
13671
13714.63
13856.83
14066.81
14311.4
14560.74
14789.9
14978.81
15112.77
15183.97
15192.65
15146.14
15055.9
14934.38
14793.76
14645.92
14500.42
14360.4
14213.89
14072.9
13834.38
29821.86
29021.45
27484.07
25999.26
24950.51
24153.79
23364.56
22521.76
21694.86
20994.2
20534.9
20393.68
20540.44
20811.91
20979.4
20870.28
20452.73
19828.7
19149.51
18519.63
17954.89
17412.51
16856.09
16302
15818.4
15485.88
15351.38
15404.02
15581.75
15798.08
15971.64
16046.16
15998.17
15835.94
15593.25
15320.46
15073.06
14899.33
14829.52
14870.27
15005.91
15205.97
15435.09
15661.15
15858.93
16009.84
16100.51
16122.72
16074.89
15963.6
15802.75
15609.64
15399.66
15183.21
14966.88
14754.98
14550.67
14344.47
14161.69
13858.24
29672.78
29051.84
27519.38
25964.66
24943.14
24261.93
23580.66
22787.44
21977.7
21324.08
20972.39
20957.63
21160.16
21349.28
21304.83
20933.94
20302.03
19567.19
18872.97
18274.23
17738.92
17209.34
16667.67
16158.98
15764.38
15550.91
15533.52
15668.79
15876.72
16072.78
16193.31
16207
16114.78
15943.54
15737.33
15546.97
15418.84
15384.47
15453.9
15615.02
15839
16089.39
16331.14
16536.47
16686.32
16769.05
16778.46
16713.38
16578.54
16385.89
16153.89
15903.49
15651.74
15407.05
15170
14937.78
14712.1
14489.31
14307.83
14014.06
29481.15
28845.17
27465.02
25903.16
24627.01
23737.8
23098.6
22535.82
21996.39
21561.3
21333.97
21316.39
21375.96
21322.95
21033.27
20519.96
19906.15
19330.66
18858.64
18456.72
18041.08
17554.15
17011.96
16494.44
16095.03
15867.94
15804.63
15845.76
15913.46
15942.53
15897.21
15772.98
15589.97
15384.29
15199.25
15076.35
15046
15120.33
15290.62
15530.58
15804.06
16073.97
16309.16
16487.66
16596.69
16630.96
16591.02
16482.32
16315.19
16104.94
15871.09
15634.11
15409.84
15204.42
15014.41
14832.52
14658.93
14497.33
14382.43
14214.02
29305.49
28433.92
27193.84
25621.35
24011.94
22822.46
22176.29
21856.48
21647.77
21502.33
21444.75
21435.89
21354.24
21084.4
20611.75
20036.94
19503.21
19098.48
18803.75
18518.98
18141.91
17640.38
17070.38
16536.38
16128.74
15879.8
15759.11
15700.57
15638.29
15530.86
15367.47
15161.34
14940.07
14737.88
14589.42
14523.44
14556.02
14685.93
14894.65
15151.36
15420.73
15670.19
15874.41
16016.72
16088.62
16088.87
16022.59
15900.17
15735.95
15546.73
15350.12
15162.53
14995.88
14854.09
14733.08
14626.26
14534.59
14466.77
14441.5
14432.81
28913.38
27409.77
26085.31
24514.56
22853.03
21584.9
20892.58
20633.22
20624.57
20770.32
20990.73
21150.48
21092.66
20737.15
20140.97
19462.11
18856.12
18385.41
18001.35
17601.99
17117.47
16561.59
16020.23
15594.45
15342.56
15255.87
15274.21
15322.58
15343.46
15310.46
15224.4
15102.19
14967.85
14847.87
14768.33
14750.46
14805.2
14929.43
15106.41
15310.38
15513.03
15688.82
15817.95
15887.24
15890.47
15828.68
15710.14
15549.15
15363.45
15170.84
14986.5
14821.67
14683.21
14572.96
14488.26
14426.01
14388.77
14384.09
14414.27
14491.79
27463.9
25260.92
23989.21
22820.34
21624.03
20520.93
19701.43
19317.23
19396.02
19816.48
20344.58
20715.57
20737.12
20367.71
19719.77
18978.31
18289.63
17695.64
17149.46
16588.32
16004.6
15465.07
15071.92
14900.92
14960.23
15191.32
15502.34
15807.92
16053.33
16217.21
16301.11
16317.92
16285.91
16227.31
16166.62
16126.18
16120.23
16150.72
16207.45
16271.88
16322.57
16339.68
16307.67
16216.83
16064.53
15856.24
15605.57
15332.3
15058.54
14803.82
14581.36
14397.25
14252.51
14145.87
14075.37
14039.33
14037.67
14069.02
14119.22
14207.21
11230.35
14687.77
16315.93
17168.02
17449.38
17168.01
16708.75
16585.72
17027.06
17874.77
18767.71
19379.2
19557.75
19344.32
18898.47
18385.3
17888.14
17394.63
16852.7
16248.2
15646.46
15170.82
14938.37
15000.01
15320.83
15804.81
16340.33
16837.78
17244.48
17539.65
17722.23
17802.09
17797.17
17732.73
17638.08
17539.98
17455.47
17387.87
17327.48
17256.25
17153.64
17001.74
16788.66
16510.57
16172.93
15790.73
15387.09
14989.74
14625.74
14315.78
14070.15
13888.61
13764.76
13692.16
13667.41
13687.27
13743.94
13821.85
13892.74
13979.39
10786.96
13453.33
14878.91
15695.72
15995.8
15805.82
15467.79
15450.87
15961.81
16816.48
17639.26
18141.47
18256.24
18097.9
17831.81
17554.3
17249.92
16837.38
16260.36
15556.72
14861.11
14343.4
14127.45
14241.27
14620.6
15151.8
15721.21
16245.55
16677.65
16997.81
17203.87
17306.45
17327.67
17298.38
17251.28
17211.76
17190.67
17182.15
17166.91
17119.08
17013.81
16833.24
16570.34
16230.31
15830.27
15397.29
14964.67
14566.6
14231.97
13978.83
13811.36
13721.12
13693.3
13715.24
13780.82
13884.86
14012.74
14136.71
14229.84
14309.89
25445.41
21104.99
19507.44
18596.29
17751.32
16976.41
16422.19
16258.45
16514.23
16991.2
17390.22
17519.81
17390.48
17147.32
16926.68
16750.96
16527.68
16137.78
15539.49
14814.78
14133.26
13665.16
13502.69
13633.67
13969.54
14398.14
14826.39
15196.61
15481.77
15674.69
15781.45
15820.11
15819.37
15813.07
15830.49
15886.91
15978.68
16084.8
16173.69
16212.19
16173.88
16044.88
15826.4
15534.25
15195.92
14846.08
14521.14
14253.28
14064.86
13964.46
13946.15
13992.68
14082.52
14198.27
14330.79
14473.33
14610.9
14713.85
14777.21
14773.99
10191.39
11602.86
12656.61
13372.53
13631.71
13665.89
13776.28
14107.88
14620.08
15147.76
15513.05
15637.96
15583.79
15488.64
15452.57
15462.76
15418.24
15227.34
14894.01
14528.59
14282.73
14261.47
14472.62
14837.42
15242.37
15592.2
15835.64
15961.75
15982.83
15920.7
15802.15
15659.15
15527.09
15437.86
15410.71
15445.87
15524.45
15614.46
15680.18
15691.34
15629.77
15492.76
15292.74
15054.14
14808.11
14586.59
14416.86
14317.07
14293.41
14339.2
14437.08
14563.83
14696.45
14817.18
14915.01
14981.97
15010.16
14980.97
14925.03
14718.92
8985.005
10033.9
11083.66
12096.03
12829.99
13279.35
13632.29
13987.95
14312.86
14545.55
14659.81
14671.04
14628.35
14589.64
14576.57
14552.28
14460.44
14296.88
14145.03
14138.67
14379.62
14871.86
15516.52
16163.59
16680.27
16994.81
17100.47
17032.47
16841.27
16576.98
16285.74
16010
15785.89
15636.98
15568.21
15564.66
15596.84
15630.21
15634.97
15593.12
15501.4
15370.56
15221.93
15082.1
14976.74
14924.91
14935.25
15004.8
15120.06
15260.03
15400.6
15519.64
15600.2
15630.22
15600.61
15505
15347.69
15127.95
14914.15
14472.36
8616.578
9147.314
9832.3
10706.3
11721.01
12692.06
13441.5
13842.74
13881.46
13688.24
13460.74
13344.14
13374.83
13496.31
13604.35
13604.3
13473.9
13297.25
13234.03
13433.71
13948.66
14702.53
15529.45
16252.49
16751.36
16987.59
16988.79
16815.28
16533.03
16201.69
15873.09
15590.94
15387.12
15275.94
15250.99
15288.15
15354.29
15418.15
15459.02
15470.71
15460.64
15445.85
15447.66
15486.03
15574.23
15714.67
15897.36
16101.73
16301.29
16469.7
16586.09
16638.13
16621.14
16533.27
16371.65
16135.25
15839.01
15496.61
15195.69
14659.64
8533.386
8833.147
9284.04
9970.918
11081.22
12438.36
13566.24
14064.81
13874.16
13263.62
12630.72
12278.98
12298.23
12576.27
12903.68
13109.33
13158.32
13159.83
13285.68
13657.75
14275.89
15023.46
15733.97
16268.82
16562.04
16619.33
16488.74
16229.75
15897.19
15539.36
15200.93
14922.1
14732.78
14645.71
14653.77
14734
14856.69
14995.54
15134.68
15270.5
15408.97
15560.81
15736.52
15942.52
16178
16432.85
16687.49
16916.01
17092.48
17197.99
17225.17
17177.72
17065.29
16896.41
16675.2
16405.89
16104.85
15790.24
15532.16
15131.59
8513.843
8649.906
8981.083
9632.45
10810.77
12334.34
13629.45
14188.47
13909.86
13085.33
12181.86
11597
11493.23
11774.67
12205.85
12588.74
12877.65
13165.91
13578.9
14166.43
14866.15
15545.41
16076.79
16392.99
16495.6
16427.96
16240.77
15973.02
15652.65
15306.76
14968.72
14676.28
14462.81
14348.16
14334.44
14408.53
14549.32
14735.78
14952.37
15190.2
15444.77
15712.44
15987.78
16262.37
16524.56
16759.26
16948.37
17073.29
17120.41
17087.05
16983.73
16830.16
16646.98
16448.85
16243.38
16035.83
15834.83
15653.99
15518.82
15378.77
8528.064
8537.312
8808.417
9566.962
10864.02
12384.64
13592.54
14086.14
13808.12
13017.08
12129.82
11519.25
11347.45
11531.64
11866.23
12199.84
12527.29
12943.5
13526.13
14253.66
15011.84
15663.98
16122.47
16375.21
16463.63
16440.81
16341.6
16178.09
15953.91
15681
15386.63
15108.55
14883.66
14737.8
14681.17
14709.89
14811.52
14970.81
15173.53
15407.2
15659.8
15917.77
16165.36
16385.54
16561.96
16680.5
16730.13
16704.28
16603.93
16440.94
16237.89
16022.02
15816.5
15635.3
15484.64
15367.15
15282.24
15235.28
15210.25
15274.98
8550.989
8487.358
8772.202
9695.978
11085.2
12468.61
13435.91
13800.81
13593.97
13021.2
12388.03
11957.24
11817.03
11875.77
11988.7
12099.33
12276.01
12631.06
13210.89
13950.53
14714.29
15375.36
15871.88
16209.97
16428.51
16560.4
16615.67
16589.31
16479.86
16302.64
16089.87
15880.35
15706.8
15587.94
15527.5
15518.61
15549.91
15610.31
15691.11
15785.69
15887.69
15988.89
16078.23
16142.58
16169.21
16148.54
16076.1
15953.46
15788.89
15597.73
15400.63
15218.62
15067.07
14953.5
14880.24
14847.38
14849.91
14886.32
14920.41
15064.59
8564.103
8509.07
8920.358
9983.474
11315.05
12437.81
13156.72
13482.86
13480.99
13258.23
12966.78
12726.41
12554.83
12398.79
12231.91
12116.45
12172.68
12490.22
13061.47
13786.08
14531.49
15197.79
15744.83
16176.48
16507.52
16741.59
16871.79
16895.92
16830.45
16711.99
16585.67
16488.5
16437.44
16427.22
16437.14
16441.69
16420.04
16361.09
16264.28
16137.23
15991.88
15840.18
15690.38
15545.38
15403.67
15262.55
15121.55
14983.94
14855.93
14744.59
14655.98
14594.07
14560.33
14554.59
14576.68
14626.5
14699.07
14789.73
14858.68
15024.63
8572.138
8631.775
9271.077
10371.99
11459.76
12272.28
12857.16
13311.88
13645.84
13827.62
13834.44
13649.87
13279.81
12798.41
12360.63
12146.22
12270.82
12730.1
13413.55
14170.46
14879.39
15481.17
15968.05
16350.45
16631.1
16801.95
16859.24
16820.56
16729.65
16644.61
16616.27
16668.79
16791.79
16946.41
17080.66
17146.46
17111.82
16965.78
16717.25
16390.21
16017.32
15633.1
15267.51
14941.36
14665.45
14443.5
14276.86
14167.15
14114.75
14115.18
14157.72
14228.74
14317.57
14419.83
14536.09
14667.79
14810.54
14960.53
15077.38
15298.77
8582.565
8886.358
9777.178
10781.45
11553.6
12154.6
12762.43
13433.04
14096.83
14615.86
14822.62
14596.7
13975.65
13193.85
12584.16
12406.19
12724.43
13408.17
14231.47
14993.2
15586.76
15999.3
16266.62
16425.84
16494.82
16480.57
16399.96
16292.92
16217.94
16232.25
16368.43
16619.6
16940.4
17261.69
17511.7
17634.65
17601.21
17409.96
17082.52
16655.97
16175.03
15684.69
15223.65
14819.57
14487.78
14234.25
14060.73
13968.02
13954.28
14010.37
14118.13
14256.1
14409.05
14572.87
14750.39
14943.87
15147.94
15362.43
15543.23
15867.71
8635.395
9307.077
10383.52
11233.64
11817.99
12392.2
13088.14
13896.64
14745.28
15466.48
15801.41
15559.17
14805.94
13883.43
13223.21
13106.86
13542.02
14310.56
15122.06
15758.71
16137.17
16284.71
16275.6
16178.35
16038.27
15888.46
15767.12
15723.11
15804.78
16039.82
16418.85
16892.5
17383.68
17809.08
18100.56
18218.9
18157.04
17934.58
17587.95
17160.61
16695.63
16230.77
15795.44
15409.25
15082.54
14819.62
14623.1
14496.49
14442.35
14457.2
14528.63
14639.7
14778.11
14941.34
15132.03
15350.39
15588.44
15849.71
16085.09
16503.62
8792.732
9947.669
11158.96
11969.84
12583.97
13204.86
13882.99
14659.81
15539.13
16346.57
16762.75
16564.01
15833.84
14940.98
14314.69
14204.6
14583.36
15219.31
15835.85
16245.87
16398.29
16344.59
16174.77
15969.79
15788.28
15675.95
15676.15
15827.69
16150.78
16631.67
17217.58
17826.65
18369.17
18770.69
18988.22
19014.78
18873.42
18604.9
18254.6
17862.62
17458.86
17062.52
16684.44
16330.29
16003.71
15708.91
15452.56
15244.13
15093.87
15008.63
14988.29
15026.54
15116.01
15252.75
15434.39
15656.06
15906.63
16190.43
16453.82
16908.3
9328.141
11257.62
12677.27
13605.62
14286.9
14804.72
15280.41
15904.75
16723.32
17513.15
17931.6
17789.52
17195.78
16476.19
15965.82
15834.54
16039.21
16397.51
16712.51
16867.28
16849.16
16715.96
16544.94
16399.79
16325.3
16356.35
16522.85
16842.7
17307.96
17875.81
18473.01
19013.67
19422.56
19653.63
19697.39
19576.4
19332.96
19014.51
18661.57
18300.88
17944.38
17592.97
17242.91
16892.19
16544.36
16209.07
15899.91
15631.76
15418.87
15273.41
15203.19
15209.13
15285.19
15421.51
15607.73
15834.54
16090.14
16376.26
16638.52
17059.13
11040.86
13758.34
15174.62
15989.02
16428
16615.48
16823.02
17292.08
17989.12
18635.02
18950.58
18855.55
18478.43
18033.34
17689.77
17508.98
17452.19
17433.53
17380.79
17270.51
17125.81
16989.85
16899.37
16875.02
16928.08
17069.89
17311.76
17654.26
18074.75
18523.95
18935.92
19247.16
19415.28
19428.8
19305.44
19081.85
18800.26
18497.01
18195.56
17904.64
17620.94
17335.09
17039.13
16732.71
16425.39
16133.91
15876.33
15666.89
15515.13
15428.1
15411.36
15465.5
15581.83
15743.94
15936
16149.73
16379.35
16624.15
16841.16
17148.1
27930.52
25191.89
23779.85
22817.58
21881.34
21044.3
20568.06
20533.08
20732.82
20876.52
20821.27
20606.6
20332.49
20047.61
19734.54
19358.93
18915.83
18442.4
18001.44
17652.57
17427.95
17324.13
17311.78
17356.37
17436.92
17551.46
17706.9
17902.07
18115.9
18308.79
18436.06
18465.14
18387.14
18217.73
17988.86
17736.58
17490.73
17269.11
17076.56
16907.49
16750.57
16594.48
16433.62
16271.83
16121.98
16000.97
15922.17
15890.3
15902.07
15951.88
16036.2
16151.36
16287.49
16427.95
16558.92
16679.28
16795.78
16909.8
17006.53
17100.56
29625.31
27684.55
26233.58
25084.74
23921.17
22907.43
22312.45
22102.28
22009.71
21845.14
21633.14
21489.32
21441.77
21382.94
21159.81
20694.48
20039.24
19344.17
18773.92
18428.91
18311.88
18348.09
18436.76
18501.12
18512.8
18484.48
18443.01
18402.8
18354.47
18271.69
18128.49
17915.2
17644.46
17346.06
17055.39
16802.16
16603.84
16464.85
16379.51
16336.62
16323.92
16331.96
16356.88
16401.14
16471.35
16573.07
16705.05
16856.4
17009.35
17146.23
17255.7
17332.8
17373.61
17371.96
17324.68
17239.72
17136.12
17021.81
16920.6
16720.64
30141.41
28979.73
27656.59
26508.62
25477.52
24648.62
24093.93
23669.71
23197.17
22693.79
22337.33
22255.21
22384.01
22504.22
22388.74
21943.95
21257.47
20537.63
19992.4
19723.84
19695.4
19777.58
19830.63
19771.82
19595.7
19349.37
19088.65
18844.3
18613.45
18373.25
18102.72
17798.69
17478.83
17173.72
16914.77
16724.69
16613.73
16581.17
16619.44
16718.29
16867.71
17059.44
17287.08
17544.86
17825.24
18115.87
18397.87
18646.71
18836.22
18944.54
18959.56
18880.97
18717.61
18481.94
18186.96
17847.59
17487.57
17119.48
16805.61
16319.87
30270.88
29576.86
28261.72
26978.33
26147.54
25735.91
25390.24
24783.82
23908.07
23050.54
22534.72
22487.38
22781.74
23133.52
23262.09
23029.74
22492.77
21843.78
21285.86
20920.05
20712.05
20543.79
20301.27
19939.09
19490.27
19029.78
18624.95
18304.11
18055.09
17845.4
17646.67
17449.68
17265.52
17116.9
17026.97
17011.52
17076.56
17220.07
17435.46
17714.4
18048.18
18427.4
18840.46
19271.58
19699.41
20097.24
20435.4
20685.08
20822.12
20829.9
20702.09
20445.85
20082.67
19642.6
19153.58
18633.96
18102.51
17567.67
17119.76
16465.34
30275.63
29890.78
28611
27188.27
26471.3
26374.28
26182.33
25427.78
24257.01
23159.01
22548.8
22558.04
23040.75
23684.71
24159.63
24253.99
23943.05
23355.2
22665.46
21991.48
21355.38
20718.1
20043.78
19343.62
18675.25
18108.66
17688.28
17415.66
17257.85
17170.25
17118.44
17088.8
17086.87
17128.35
17229.34
17400.03
17642.79
17953.56
18324.5
18746.16
19208.18
19698.38
20200.68
20693.33
21148.86
21536.93
21829.21
22003.88
22047.5
21954.25
21725.76
21374.24
20926.05
20417.84
19883.25
19339.2
18793.5
18241.48
17782.81
17109.62
30210.99
29944.13
28807.13
27487.04
26813.79
26642.53
26268.76
25347.65
24136.3
23129.62
22680.74
22867.28
23525
24343.56
24990.25
25230.53
24993.9
24356.83
23466.56
22462.48
21438.74
20451.34
19543.08
18758.57
18138.84
17704.55
17444.53
17319.51
17278.64
17278.51
17295.25
17326.39
17384.37
17487.1
17649.59
17879.32
18175.1
18528.7
18927.7
19358.18
19806.18
20257.09
20693.83
21095.39
21437.88
21698.4
21860.03
21914.83
21862.97
21709.39
21461.72
21132.29
20742.04
20319.2
19889.38
19461.96
19033.99
18585.64
18206.89
17600.98
30105.04
29765.56
28886.33
27957.46
27255.91
26564.9
25640.93
24558.92
23619.68
23100.64
23114.62
23594.54
24335.2
25064.82
25534
25587.85
25190.93
24406.95
23358.19
22188.68
21039.62
20031.59
19248.56
18725.75
18446.58
18352.57
18364.18
18405.56
18423.94
18397.96
18334.62
18259.07
18202.51
18192.26
18245.74
18368.37
18554.43
18790.03
19057.23
19337.95
19616.44
19879.28
20113.67
20306
20442.99
20515.1
20519.98
20462.99
20354.26
20204.64
20023.19
19817.51
19595.45
19365.46
19134.03
18898.72
18651.11
18361.95
18099.24
17580.37
29958.84
29429.81
28885.75
28399.87
27500.21
26065.31
24542.58
23447.22
22993.39
23119.62
23646.57
24361.51
25046.05
25514.2
25653.67
25431.2
24865.75
24006.69
22936.5
21781.89
20704.62
19861.31
19350.79
19180.18
19268.46
19483.45
19691.86
19799.54
19768.85
19613.01
19376.78
19114.72
18874.55
18688.34
18570.42
18519.51
18522.86
18561.31
18614.48
18665.26
18702.18
18719.17
18713.32
18682.92
18627.69
18550.82
18460.52
18368.89
18288.48
18229.12
18195.99
18188.24
18197.74
18210.42
18211.6
18188.55
18134.02
18018.31
17884.58
17476.63
29748.41
28994.62
28720.85
28384.92
27125.92
25158.51
23407.71
22522.41
22532.47
23116.4
23919.63
24674.6
25210.19
25452.7
25410.57
25121.21
24598.9
23835.61
22852.77
21751.32
20708.34
19913.76
19487.51
19429.29
19627.04
19912.53
20130.17
20185.94
20061.09
19795.48
19456.68
19111.04
18805.62
18562.65
18382.66
18251.66
18148.81
18052.9
17947.23
17822.57
17677.95
17519.01
17355.05
17196.28
17052.89
16935.49
16855.38
16823.51
16848.31
16934.03
17079.26
17274.27
17498.21
17721.43
17916.17
18066
18169.18
18203.06
18194.27
17935.65
29256.95
28104.53
27825.9
27280.48
25803.41
23894.26
22422
21850.6
22101.1
22811.64
23605.94
24226.59
24572.43
24677.29
24631.66
24482.43
24184.12
23641.14
22804.52
21745.18
20648.39
19733.7
19154.4
18936.84
18986.81
19148.22
19275.66
19284.7
19164.01
18955.62
18721.42
18513.77
18359.73
18259.7
18195.35
18140.62
18071.19
17970.4
17831.7
17658.27
17461
17255.6
17059.55
16889.61
16760.1
16682.17
16663.75
16709.89
16823.1
17002.9
17243.9
17532.29
17843.59
18146.02
18411.69
18626.69
18794.32
18903.25
18976.73
18868.71
27776.45
26315.16
26051.08
25457.38
24302.45
23017.78
22070.1
21715.67
21945.32
22523.76
23124.14
23507.47
23633.74
23629.47
23644.75
23715.39
23730.26
23513.23
22948.26
22061.31
21014.42
20026.04
19272.3
18823.71
18641.57
18622.24
18657.07
18676.56
18663.43
18638.42
18633.85
18670.62
18747.58
18843.75
18928.61
18973.82
18961.59
18887.84
18760.5
18595.15
18410.44
18224.94
18055.59
17916.92
17819.8
17770.19
17769.33
17815.93
17908.82
18047.26
18227.67
18439.66
18665.33
18883.25
19075.48
19232.89
19359.36
19455.45
19544.94
19543.84
12195.58
16630.83
19025.82
20020.06
20378.75
20458.53
20427.69
20489.44
20803.72
21320.05
21811.09
22089.64
22170.94
22232.76
22441.91
22813.08
23198.81
23388.33
23229.48
22701.22
21911.13
21035.83
20244.82
19645.37
19266.37
19076.8
19021.05
19050.06
19135.83
19268.11
19441.64
19644.09
19851.69
20033.36
20159.74
20212.27
20188.02
20098.92
19966.18
19812.87
19658.12
19514.96
19391.47
19292.55
19220.26
19172.9
19145.38
19132.39
19132.38
19147.76
19180.73
19228.89
19285.85
19345.02
19401.41
19450.83
19494.61
19541.01
19607.53
19669.58
12260.18
16554.35
18657.55
19523.87
20113.85
20612.75
20879.99
20949.26
21006.66
21136.57
21260.85
21295.71
21284.63
21364.85
21636.8
22075.34
22542.79
22866.58
22917.47
22651.59
22112.18
21403.16
20651.2
19970.36
19438.31
19088.56
18917.2
18897.38
18993.17
19167.76
19385.86
19613.56
19819.04
19975.73
20066.78
20088.91
20052.91
19980.11
19895.3
19819.07
19762.78
19728.26
19711.2
19705.28
19704.03
19700.57
19687.65
19660.1
19618.05
19567.07
19514.19
19463.94
19418.95
19382.95
19360.19
19351.69
19357.17
19384.96
19438.12
19544.75
27727.45
25903.02
24882.45
24000.99
23475.8
23291.28
23147.16
22857.83
22447.92
22007.13
21596.53
21262.49
21058.35
21022.97
21149.07
21381.46
21642.24
21854.99
21954.31
21889.44
21632.89
21192.8
20619.18
19995.08
19413.01
18947.35
18635.66
18475.46
18434.49
18466.92
18528.28
18584.68
18615.94
18614.74
18584.21
18535.31
18484.04
18447.76
18440.57
18469.04
18530.23
18613.47
18704.7
18791.22
18864.12
18918.16
18950.56
18960.82
18951.45
18928.13
18897.97
18867.25
18841.06
18824.81
18824.42
18844.11
18883.08
18943.23
19006.56
19144.34
29086.34
27243.07
25922.32
25059.25
24393.88
23885.27
23514.72
23152.59
22656.72
22015.88
21362.42
20855.89
20565.38
20450.83
20432.05
20465.69
20566.15
20766.68
21063.56
21390.49
21639.29
21709.65
21555.87
21204.48
20736.18
20246.14
19805.41
19441.09
19139.76
18867.03
18590.48
18294.96
17986.25
17685.01
17416.94
17204.14
17060.13
16988.44
16983.14
17030.57
17111.94
17206.91
17297.6
17372.08
17426.07
17462.27
17487.35
17508.07
17528.78
17551.74
17579.1
17613.78
17658.22
17713.63
17781.37
17863.99
17958.83
18060.14
18128.57
18261.18
29317.26
27451.74
26027.76
25399.37
24900.68
24312.54
23797
23339.13
22742.38
21947.77
21133.16
20518.3
20162.65
19962.1
19793.84
19642.33
19606.71
19810.27
20297.26
20988.02
21709.46
22271.76
22545.17
22499.78
22195.74
21738.29
21225.38
20713.43
20212.2
19703.65
19169.09
18609.19
18048.84
17528.35
17088.5
16757.29
16543.41
16436.64
16413.27
16443.32
16497.21
16550.49
16586.58
16598.22
16587.92
16566.56
16549.16
16548.23
16568.58
16607.69
16661.06
16726.78
16804.66
16892.96
16988.77
17090.57
17193.11
17286.89
17327.82
17405.88
28903.88
26587.9
24844.92
24107.37
23858.81
23679.77
23432.26
22986.74
22220.29
21212.22
20243.82
19565.32
19206.62
19012.99
18826.87
18630.8
18549.97
18744.02
19284.43
20096.77
20988.52
21733.56
22163.18
22219.97
21956.77
21491.42
20946.66
20404.89
19894.19
19403.47
18911.43
18411.37
17920.73
17474.97
17112.43
16859.32
16721.27
16683.32
16716.61
16787.65
16866.5
16931.3
16969.64
16978.11
16961.94
16933.71
16909.54
16902.27
16915.36
16942.89
16976.24
17011.38
17049.78
17093.64
17142.19
17192.37
17237.53
17270.16
17263.82
17280.52
27360.46
24581.18
22759.32
21910.02
21974.13
22462.46
22763.48
22495.12
21633.42
20451.92
19330.64
18536.35
18113.24
17939.08
17872.35
17869.09
17997.56
18362.37
19004.98
19847.49
20708.55
21375.43
21690.2
21606.29
21192.46
20590.27
19951.59
19386.39
18940.32
18603.62
18339
18110.89
17903.26
17721.8
17584.61
17508.78
17500.35
17551.18
17642.54
17752.15
17860.54
17954.21
18025.63
18072.08
18095.18
18100.76
18097.31
18091.72
18084.7
18070.06
18040.02
17993.06
17937.04
17884.13
17841.94
17809.35
17778.88
17749.99
17716.7
17737.3
12133.79
14474.25
15268.56
15820.05
16977.93
18525.24
19715.46
20064.59
19618.1
18731.23
17774.91
16996.07
16509.28
16333.04
16434.09
16772.83
17330.44
18096.96
19030.33
20022.77
20906.51
21502.91
21689.39
21447.58
20868.58
20115.93
19366.83
18758.16
18356.79
18159.7
18116.49
18160.34
18234.29
18304.8
18362.06
18411.35
18462.29
18521.35
18589.67
18664.77
18743.14
18821.5
18896.21
18962.49
19014.5
19046.81
19055.71
19039.17
18995.26
18920.96
18814.29
18679.73
18532.3
18393.38
18278.64
18190.08
18120.27
18078.49
18062.49
18170.88
10693.93
12407.85
13399.42
14080.14
15224.19
16779.09
18095.45
18708.26
18633.01
18123.12
17401.2
16624.53
15954.27
15557.28
15542.56
15923.15
16636.29
17582.95
18646.86
19692.68
20568.93
21133.28
21294.08
21044.74
20470.62
19723.96
18978.08
18379.26
18012.71
17891.71
17969.45
18165.8
18397.5
18601.24
18744.02
18820.87
18845.17
18837.78
18819.07
18805.02
18806.02
18826.72
18866.01
18917.14
18968.63
19006.46
19017.42
18992.63
18929.19
18829.16
18697.94
18545.17
18387.17
18244.87
18134.18
18059.28
18016.22
18023.66
18065.95
18298.88
10330.04
11370.1
12440.92
13249.53
14129.49
15205.74
16237.21
16979.69
17373.85
17438.81
17174.15
16618.42
15932.42
15364.61
15128.07
15308.49
15862.47
16673.51
17607.39
18538.03
19351.26
19947.77
20256.21
20251.86
19968.76
19496.24
18958.12
18480.21
18157.08
18029.45
18079.94
18247.34
18452.49
18624.73
18719.54
18723.32
18647.66
18518.33
18364.61
18211.91
18078.26
17973.75
17901.33
17857.8
17834.56
17819.01
17797.72
17761.15
17707.53
17642.66
17575.77
17515.34
17468.27
17440.92
17438.28
17464.24
17521.3
17632.79
17760.73
18104.51
10306.31
10933.4
12177.31
13312.65
13972.27
14351.37
14813.32
15518.58
16341.61
17001.46
17251.8
17023.28
16457.85
15826.54
15390.26
15292.56
15536.37
16032.82
16672.28
17370.48
18073.54
18737.58
19310.05
19730.11
19947.98
19949.97
19772.12
19492.42
19204.32
18983.95
18866.5
18840.85
18862.24
18874.57
18831.4
18708.03
18502.97
18231.74
17917.79
17584.88
17252.95
16937.43
16650.24
16400.44
16193.5
16030.28
15907.87
15823.07
15776.81
15775.21
15825.13
15926.49
16068.31
16233.38
16408.76
16594.88
16799.07
17041.53
17261.67
17679.08
10373.41
10751.06
12108.7
13556.65
14148.17
14012.2
13965.37
14541.45
15608.6
16669.07
17299.15
17358.29
16965.51
16376.36
15850.76
15554.65
15524.57
15703.75
16018.02
16435.09
16969.6
17641.35
18425.69
19234.38
19939.2
20422.76
20626.02
20567.82
20329.84
20018.7
19725.2
19497.94
19338.56
19214.74
19081.05
18897.75
18641.29
18306
17899.82
17438.33
16940.69
16428.17
15924.17
15453.43
15039.36
14700.47
14448.45
14289.36
14227.33
14266.63
14408.42
14642.4
14941.38
15268.59
15596.25
15920.15
16247.57
16589.19
16873.18
17311.12
10487.57
10827.06
12160.5
13648.92
14276.8
14082.29
13898.63
14348.79
15364.12
16460.31
17206.61
17444.07
17250.5
16823.83
16376.39
16054.82
15901.14
15876.9
15934.79
16081.39
16382.56
16910.79
17677.28
18597.19
19510.12
20241.65
20670.36
20767.23
20593.68
20266.03
19907.05
19605.63
19397.55
19268.8
19174.17
19060.23
18883.51
18619.33
18262.04
17820.49
17313.01
16764.25
16203.45
15662.49
15172.56
14760.17
14444.32
14236.5
14143.09
14167.4
14307.59
14549.83
14863.6
15209.17
15556.5
15898.9
16240.03
16580.78
16858.95
17243.56
10645.6
11160.9
12349.22
13586.85
14307.71
14494.62
14577.82
14951.96
15656.13
16448.85
17058.56
17344.58
17317.64
17090.97
16812.35
16595.02
16474.37
16419.06
16389.66
16396.52
16510.21
16817.51
17356.65
18076.56
18845.39
19501.43
19916.83
20042.54
19917.14
19641.61
19335.64
19095.25
18966.99
18944.46
18983.18
19024.21
19015.76
18925.88
18744.78
18480.06
18149.66
17776.16
17383.43
16994.73
16631.05
16309.73
16043.7
15842.15
15711.8
15657.5
15680.36
15773.61
15920.3
16097.85
16288.69
16487.41
16693.42
16903.51
17084.46
17331.47
10878.4
11742.83
12759.83
13670.24
14522.64
15253.63
15763.24
16096.41
16395.58
16737.73
17069.22
17279.32
17309.33
17198.49
17049.5
16957.74
16958.93
17026.14
17110.25
17188.55
17285.85
17456.12
17740.49
18130.76
18561.49
18934.46
19160.55
19197.14
19064
18832.89
18597.82
18440.3
18403.72
18485.37
18646.26
18831.46
18991.24
19094.78
19133.43
19115.43
19056.9
18973.65
18876.48
18769.96
18653.71
18525.15
18382.45
18226.82
18062.98
17897.71
17737.92
17589.86
17459.87
17354.13
17276.06
17224.17
17194.78
17186.5
17202.79
17250.22
11394.22
12869.21
13818.32
14503.02
15432.28
16530.61
17341.29
17625.86
17563.72
17469.11
17485.64
17559.57
17593.36
17562.19
17517.32
17528.97
17635.4
17825.78
18054.28
18269.88
18443.56
18578.03
18696.13
18816.66
18934.45
19017.57
19023.16
18922.33
18720.04
18459.39
18208.1
18034.21
17982.54
18061.95
18247.62
18495.2
18759.19
19007.58
19227.56
19422.34
19602.27
19775.38
19941.08
20088.81
20201.13
20259.27
20248.67
20162.28
20000.23
19767.39
19472.3
19130.29
18766.85
18413.05
18091.44
17805.74
17551.66
17330.09
17177.45
17012.61
12826.64
14898.25
15656.66
16046.61
16819.11
17933.58
18794.48
18992.24
18661.89
18223.6
17980.12
17977.5
18107.95
18250.67
18342.3
18383.39
18413.59
18475.75
18586.15
18726.31
18859.36
18956.55
19012.86
19041.3
19053.38
19042.2
18981.16
18839.34
18603.69
18294.25
17963.57
17680.47
17506.74
17477.47
17593.17
17825.25
18130.64
18468.23
18810.25
19145
19471.77
19792.02
20101.62
20387.76
20631
20810.43
20908.81
20914.95
20822.74
20629.51
20337.68
19961.22
19530.43
19085.2
18656.9
18254.73
17877.53
17523.51
17254.1
16903.42
26335.84
23959.41
22339.76
21316.2
21071.73
21379.62
21628.95
21379.2
20672.83
19883.84
19379.51
19295.67
19516.89
19796.24
19910.29
19764.84
19411.45
18987.06
18627.25
18406.4
18329.09
18360.23
18461
18605.07
18771.54
18929.2
19029.84
19018.87
18858.17
18547.69
18133.05
17694.72
17323.46
17092.85
17039.75
17159.27