/*--------------------------------*- C++ -*----------------------------------*\
| =========                 |                                                 |
| \\      /  F ield         | OpenFOAM: The Open Source CFD Toolbox           |
|  \\    /   O peration     | Version:  2312                                  |
|   \\  /    A nd           | Website:  www.openfoam.com                      |
|    \\/     M anipulation  |                                                 |
\*---------------------------------------------------------------------------*/
FoamFile
{
    version     2.0;
    format      ascii;
    arch        "LSB;label=32;scalar=64";
    class       volScalarField;
    location    "5550";
    object      k;
}
// * * * * * * * * * * * * * * * * * * * * * * * * * * * * * * * * * * * * * //

dimensions      [0 2 -2 0 0 0 0];

internalField   nonuniform List<scalar> 
12000
(
0.001540562
0.003546964
0.004292861
0.005093003
0.005739727
0.00633201
0.006870981
0.007393913
0.007855133
0.008242544
0.008603526
0.008962117
0.009315009
0.009602279
0.009846791
0.0100894
0.01033534
0.01054911
0.01070736
0.01085922
0.01100829
0.01114221
0.0112318
0.01131025
0.01138641
0.01144403
0.01147074
0.01148621
0.01149143
0.01149433
0.01145983
0.01142351
0.01136849
0.01131415
0.01128994
0.01119619
0.01104527
0.01079033
0.0105854
0.010514
0.01043142
0.01010697
0.009608831
0.009194215
0.009108681
0.009082395
0.008634151
0.007814355
0.007456549
0.007381169
0.007221216
0.006378337
0.00580433
0.005512429
0.005087093
0.004484582
0.003856933
0.00340051
0.002911034
0.00276972
0.001709254
0.004371574
0.005041409
0.005905809
0.006906333
0.007782145
0.008498531
0.009444064
0.01085814
0.0122371
0.0128489
0.01326302
0.01443348
0.01583325
0.01671214
0.01687156
0.01753161
0.01869642
0.01959758
0.01991923
0.02031207
0.02114712
0.02184401
0.02218542
0.02256063
0.02317622
0.02368557
0.02399774
0.02435523
0.02479646
0.02515549
0.02544769
0.02567872
0.02589965
0.02615024
0.02636437
0.02654111
0.02663898
0.02670476
0.02670561
0.02654889
0.0264568
0.0263126
0.02614874
0.02567797
0.02486908
0.02427122
0.02372936
0.02316535
0.02176421
0.02029305
0.01925206
0.01823788
0.01656047
0.01438401
0.01220074
0.009972467
0.007436637
0.005053424
0.005038917
0.00260998
0.005478278
0.006728939
0.008091605
0.009818607
0.01154907
0.01322191
0.01485626
0.01648747
0.01801566
0.01913548
0.01998911
0.02090272
0.02190658
0.02276078
0.02339266
0.02399178
0.02464925
0.02528577
0.02580964
0.02626927
0.02674653
0.02723605
0.02768553
0.02809587
0.02851122
0.02893958
0.02935144
0.02974171
0.03013414
0.03053512
0.03090578
0.03127909
0.03165843
0.03200662
0.03235365
0.03270195
0.03302478
0.03328206
0.03346706
0.03363523
0.03382173
0.03397121
0.03399113
0.03388089
0.03365585
0.0334125
0.03305053
0.03247122
0.0316689
0.03071577
0.02965148
0.02817183
0.02640179
0.02412539
0.02113547
0.01749868
0.01277798
0.007442401
0.006712495
0.00331917
0.005946523
0.007787013
0.009768243
0.012025
0.01420394
0.01619169
0.01802017
0.01979208
0.02129883
0.02257159
0.02363134
0.02449535
0.02525513
0.02591588
0.0264747
0.02696273
0.02743023
0.02787629
0.02828792
0.02867868
0.02907061
0.02946689
0.0298599
0.03025189
0.03065209
0.03106199
0.03147642
0.03189445
0.03231781
0.03272068
0.03313154
0.03356753
0.0339924
0.03440246
0.03480054
0.03518447
0.0355455
0.03587338
0.0361588
0.03639748
0.03658771
0.03672066
0.03676095
0.03671928
0.03658886
0.0363378
0.03595521
0.0354102
0.03467124
0.03372478
0.03241435
0.03070406
0.02867609
0.02624698
0.02343189
0.01994903
0.01555452
0.009961143
0.00811317
0.004025333
0.006430592
0.008762311
0.0112304
0.01382948
0.01625172
0.01839928
0.02023818
0.02181497
0.02315338
0.02426702
0.02524118
0.02609743
0.0267777
0.02726543
0.02769839
0.02808398
0.02843207
0.02877422
0.0291108
0.02944667
0.02979049
0.03014697
0.03051748
0.03090326
0.03130599
0.03172605
0.03216259
0.03261391
0.03305807
0.03350852
0.03398528
0.03446891
0.03495274
0.03542955
0.03590297
0.03636704
0.03681336
0.03723428
0.03762218
0.03796976
0.03826912
0.03851366
0.03868145
0.03874506
0.03873048
0.03858393
0.03831795
0.0379335
0.03729782
0.03629554
0.03499641
0.03348104
0.03167238
0.02943278
0.0265791
0.02286833
0.01798238
0.01157152
0.00914816
0.004669282
0.00682134
0.0094797
0.01221115
0.01494519
0.0174294
0.01958643
0.02140375
0.02290972
0.02414301
0.02513501
0.02593082
0.02657122
0.02713937
0.02760977
0.02796064
0.02827978
0.02858298
0.02888262
0.0291854
0.02949903
0.02983003
0.03018258
0.03055876
0.03095934
0.03138424
0.03183264
0.03230378
0.03279501
0.03330353
0.03382984
0.03437063
0.03492442
0.03548816
0.03604453
0.03659497
0.03714328
0.03767717
0.03818731
0.03866548
0.03910274
0.03948926
0.03981424
0.04006682
0.04023284
0.04026001
0.04019196
0.04000491
0.0395859
0.03887972
0.03790771
0.03667294
0.03513407
0.03321196
0.03081115
0.0278249
0.024088
0.01929536
0.012974
0.009984777
0.005282915
0.007168241
0.01002497
0.01286822
0.01561937
0.0180717
0.02016093
0.02188822
0.02328924
0.02441453
0.02531396
0.0260353
0.0266227
0.02710765
0.02753728
0.02790919
0.02821351
0.02849693
0.02877772
0.02906975
0.02938132
0.0297187
0.03008633
0.03048701
0.03092103
0.03138782
0.03188682
0.0324193
0.03298159
0.0335703
0.03418259
0.03481018
0.03545184
0.03610663
0.03676683
0.03742274
0.03807008
0.03870293
0.03931293
0.03989076
0.04042579
0.04090599
0.04131767
0.04164669
0.04186994
0.04197678
0.04196338
0.04172792
0.04126299
0.04056633
0.03962456
0.0383997
0.03684472
0.03490142
0.03249193
0.02949651
0.02571219
0.02076915
0.01409036
0.01062898
0.00583924
0.007477941
0.01041854
0.01325916
0.01593516
0.0182861
0.02027162
0.02192185
0.02328159
0.02438326
0.02525388
0.02594284
0.0264904
0.02692778
0.02729961
0.02765559
0.02799849
0.0283126
0.02862413
0.02894871
0.02929775
0.02967685
0.03008893
0.03053558
0.03102763
0.03156379
0.03214181
0.03275524
0.03340169
0.03407787
0.0347799
0.03550567
0.0362503
0.03700445
0.03776312
0.03851966
0.0392667
0.03999632
0.04069922
0.04136479
0.0419808
0.04253329
0.04300792
0.04338399
0.0436581
0.04378093
0.04372855
0.04347333
0.0429973
0.04227558
0.04127943
0.03997511
0.03832088
0.03626193
0.03372225
0.0305884
0.0266731
0.02163427
0.01492506
0.01112749
0.006501845
0.00774646
0.01067862
0.01344603
0.01601417
0.01828473
0.02022764
0.02183428
0.02313534
0.02418025
0.02502444
0.02570484
0.02625819
0.02671813
0.02711533
0.0274756
0.02784025
0.02821622
0.02858905
0.02896805
0.02937341
0.02981664
0.03030411
0.03083946
0.03141604
0.03203493
0.03269476
0.03339286
0.03412599
0.03489031
0.03568144
0.03650173
0.0373444
0.03819403
0.03904568
0.03989277
0.04072754
0.04154102
0.04232291
0.04306139
0.04374302
0.04435294
0.04487256
0.04528905
0.04557005
0.04567111
0.04559151
0.04530024
0.04477318
0.04398472
0.04290706
0.0415086
0.03975136
0.03758597
0.03494232
0.03171097
0.0277031
0.02255967
0.01567837
0.01151976
0.006566027
0.00795836
0.01086565
0.01353907
0.01599939
0.01817776
0.02003069
0.0215772
0.02284938
0.02389027
0.02474391
0.02544936
0.02604208
0.02655381
0.02701233
0.02744006
0.02784816
0.02826679
0.02871581
0.02919116
0.02969324
0.03022898
0.03080458
0.03142261
0.03208342
0.03278641
0.03352985
0.0343112
0.03512716
0.03597379
0.03684656
0.03774967
0.03867599
0.03960771
0.04053912
0.04146308
0.04237113
0.0432534
0.04409841
0.04489287
0.04562138
0.04626644
0.04680722
0.04722182
0.04748693
0.04756589
0.04744586
0.04709549
0.04649018
0.04560554
0.04441622
0.04289411
0.04100514
0.03870374
0.03592278
0.03255518
0.02841542
0.0231532
0.01618799
0.01179407
0.006663414
0.008097684
0.01097589
0.01354273
0.01589184
0.01796579
0.01975503
0.02127054
0.02254058
0.02360156
0.02449152
0.02524691
0.02590085
0.02648246
0.02701657
0.02751715
0.02801498
0.02852509
0.02905993
0.02962966
0.03022911
0.03086038
0.03152707
0.03223195
0.03297627
0.03375983
0.03458123
0.03543819
0.03632762
0.03724571
0.03818797
0.03915844
0.04015037
0.04114642
0.04213995
0.0431231
0.04408665
0.04501976
0.04590981
0.04674229
0.04750065
0.04816608
0.04871973
0.04913284
0.04937458
0.04941718
0.04923791
0.04880865
0.04810591
0.04710827
0.04579497
0.04414341
0.04212459
0.03969698
0.03679674
0.03331932
0.02908027
0.02372564
0.01665715
0.01201025
0.007759038
0.008237127
0.01105133
0.01352828
0.01576706
0.01775796
0.01948947
0.02097364
0.02224006
0.02332382
0.02426043
0.02508068
0.02581323
0.0264835
0.02711024
0.02772111
0.02832544
0.02893457
0.02955984
0.03021418
0.030904
0.03162655
0.03238115
0.03316976
0.03399351
0.03485249
0.03574539
0.03667013
0.03762382
0.03860288
0.03960306
0.04062682
0.04166809
0.0427119
0.04375092
0.04477664
0.04577918
0.04674708
0.04766699
0.04852343
0.04929835
0.04997086
0.05051601
0.05090845
0.05111365
0.05111346
0.05086782
0.05035125
0.04954355
0.04842817
0.04698999
0.04521098
0.04306587
0.04051577
0.03749804
0.03390846
0.02956258
0.02410828
0.01695662
0.01214019
0.007762381
0.008332827
0.01108517
0.01346543
0.01559904
0.01750375
0.01918444
0.02065547
0.02193861
0.02306121
0.02405254
0.02494158
0.02575441
0.02651354
0.02724187
0.0279536
0.02866199
0.02937701
0.03010616
0.03085613
0.03163294
0.03244232
0.0332843
0.03415745
0.03506078
0.03599292
0.03695215
0.03793624
0.03894332
0.03997094
0.04101574
0.04207832
0.04315343
0.0442292
0.04529771
0.04634995
0.04737551
0.04836241
0.04929678
0.05016243
0.05094038
0.05160851
0.05214289
0.0525149
0.05268615
0.05262978
0.0523121
0.05170605
0.05079155
0.04955929
0.0480017
0.04610579
0.04384895
0.0411936
0.03807813
0.03439865
0.02997057
0.0244409
0.01721687
0.01224059
0.007860757
0.008390944
0.01110107
0.01338979
0.01542482
0.0172593
0.01890277
0.02036636
0.02166708
0.02282949
0.0238782
0.02483871
0.02573364
0.02657908
0.02739208
0.02819102
0.02899598
0.02981393
0.03064762
0.03149775
0.03236795
0.0332626
0.03418745
0.03514473
0.0361303
0.03713553
0.03815289
0.03918359
0.04023248
0.04129774
0.04237497
0.04346231
0.04455613
0.04564845
0.04673104
0.04779437
0.04882763
0.04981859
0.05075326
0.05161542
0.05238616
0.0530429
0.05355756
0.05389819
0.05403002
0.05391882
0.05352316
0.05281913
0.05180469
0.05047458
0.04881776
0.04682487
0.04447522
0.04173156
0.03853176
0.0347715
0.03026633
0.02466409
0.01737552
0.01228699
0.008051887
0.008437793
0.01110063
0.01331998
0.01529303
0.01707702
0.01869122
0.02015099
0.0214738
0.02267716
0.02378033
0.02480076
0.02575477
0.02666356
0.02754701
0.02842721
0.02931535
0.03021983
0.03114453
0.03208971
0.03305234
0.03403157
0.03502953
0.03604842
0.0370878
0.03814532
0.03921822
0.04030404
0.0413997
0.0425004
0.04360109
0.04470158
0.04580482
0.04690669
0.04799743
0.0490662
0.05010104
0.05108871
0.05201442
0.05286299
0.05361782
0.05425699
0.05475365
0.05507507
0.05517907
0.05501899
0.05455387
0.05375978
0.05263613
0.05120492
0.04946311
0.04739049
0.04496601
0.04215064
0.03888216
0.03505726
0.03049266
0.0248365
0.01749761
0.01231031
0.008230214
0.008475178
0.01109916
0.01326657
0.01517878
0.01691632
0.01850753
0.01996732
0.021309
0.02254584
0.0236916
0.02475965
0.0257638
0.0267247
0.02766837
0.02861968
0.02958817
0.03057658
0.03158154
0.03259995
0.03363273
0.03468153
0.03574476
0.03682092
0.03790961
0.03900997
0.04012058
0.04123988
0.04236544
0.0434931
0.04461717
0.04573151
0.04683929
0.04794701
0.04904653
0.05012257
0.05116185
0.05215117
0.05307655
0.05392251
0.05467067
0.05529849
0.05577807
0.05607507
0.05614765
0.05594748
0.05542517
0.05454943
0.05332614
0.05179269
0.04996788
0.04782727
0.04533723
0.04246045
0.03913536
0.03525886
0.03064742
0.02494874
0.01756959
0.01231388
0.008377581
0.008509307
0.0111022
0.0132214
0.01508435
0.01678444
0.01835401
0.0198089
0.02116021
0.02241833
0.02359421
0.02469984
0.02574899
0.02675949
0.02776352
0.02878363
0.02982321
0.03087733
0.03194377
0.03302419
0.03411881
0.03522506
0.03634084
0.03746464
0.03859555
0.03973339
0.04087763
0.04202703
0.04317908
0.04432956
0.04547207
0.04659777
0.04771093
0.0488233
0.04992872
0.05101056
0.05205378
0.0530442
0.05396756
0.05480826
0.05554788
0.05616367
0.05662697
0.05690174
0.05694375
0.05670399
0.05613234
0.05519771
0.05389993
0.05227744
0.05037472
0.04817206
0.04562609
0.04269968
0.03933034
0.03541396
0.03076641
0.0250341
0.0176187
0.0123065
0.00849423
0.008549767
0.01111147
0.01319179
0.01501535
0.01668335
0.01823311
0.01968082
0.02103635
0.02230836
0.02350622
0.02464079
0.02572481
0.02677901
0.02783232
0.02890348
0.02999548
0.03110598
0.03223146
0.03336767
0.03451228
0.03566398
0.03682172
0.03798422
0.0391506
0.04032048
0.04149338
0.0426682
0.04384268
0.04501262
0.0461709
0.04730617
0.04842245
0.0495357
0.05064334
0.05172861
0.05277483
0.0537668
0.05468977
0.05552782
0.05626227
0.05686996
0.05732166
0.05758046
0.05760098
0.05733301
0.05672142
0.05573317
0.05436939
0.05267468
0.0507075
0.04845389
0.04586566
0.04289952
0.03949234
0.03553989
0.03085794
0.02509411
0.01764395
0.01228213
0.00858947
0.008595332
0.01113161
0.01318094
0.01496986
0.01660822
0.01813701
0.01957337
0.02092722
0.02220672
0.02342055
0.02457888
0.02569351
0.02678405
0.02787799
0.02899197
0.03012807
0.03128246
0.03245052
0.03362888
0.03481426
0.03600375
0.03719516
0.03838781
0.03958195
0.0407775
0.04197394
0.04317002
0.04436314
0.04554883
0.04672061
0.04787096
0.04899467
0.05010383
0.05121083
0.05230158
0.05335354
0.05435011
0.05527623
0.05611573
0.05684948
0.05745366
0.05789812
0.05814477
0.05814696
0.05785411
0.05720907
0.05617805
0.05476028
0.05300099
0.05096602
0.04865886
0.04603014
0.04302744
0.0395869
0.03560413
0.03089571
0.02511101
0.01764579
0.01224814
0.008669163
0.008660523
0.01117118
0.01318591
0.0149433
0.01655375
0.01806063
0.01948296
0.02083115
0.0221137
0.02333932
0.02451779
0.02566
0.02678135
0.02790491
0.02904979
0.03021791
0.03140536
0.03260686
0.03381754
0.03503333
0.03625115
0.03746923
0.03868726
0.03990518
0.04112278
0.04233962
0.04355457
0.04476513
0.04596695
0.04715355
0.04831707
0.04944986
0.0505633
0.05167367
0.05276991
0.05382934
0.05483386
0.05576707
0.05661182
0.05734813
0.05795133
0.05839031
0.05862599
0.05861088
0.05829227
0.05761419
0.05654171
0.05507498
0.05326237
0.0511755
0.04882619
0.0461642
0.04313259
0.03966694
0.03566226
0.03093383
0.02512506
0.01764762
0.01221715
0.008739161
0.008734043
0.01122584
0.01321195
0.01493943
0.01651977
0.018002
0.01940678
0.0207458
0.02202799
0.02326212
0.02445746
0.02562378
0.02677073
0.0279171
0.02908381
0.03027409
0.03148418
0.03270857
0.03394194
0.03517989
0.03641964
0.03765964
0.03889897
0.04013729
0.04137452
0.04261034
0.04384361
0.04507197
0.0462912
0.04749489
0.04867451
0.04982026
0.05094259
0.05206023
0.0531649
0.05423436
0.05524945
0.05619244
0.05704498
0.05778609
0.0583901
0.05882492
0.05905053
0.05901891
0.05867521
0.05796618
0.05685579
0.05534486
0.05348373
0.05134888
0.04896087
0.04626839
0.04320958
0.03971945
0.03569279
0.03094624
0.02512694
0.01763277
0.01217129
0.008802458
0.008839595
0.01131121
0.0132594
0.01494829
0.01649927
0.01795615
0.01934162
0.0206688
0.02194751
0.02318665
0.02439507
0.02558145
0.02675386
0.02792149
0.02910084
0.03030361
0.03152696
0.03276552
0.03401403
0.03526821
0.03652498
0.03778246
0.03903968
0.04029632
0.0415522
0.04280679
0.04405889
0.0453061
0.04654435
0.04776726
0.0489658
0.05012875
0.05126467
0.05239288
0.05350809
0.05458937
0.0556167
0.05657092
0.05743241
0.05817901
0.05878401
0.05921431
0.05942904
0.0593798
0.05901084
0.05827019
0.05712252
0.05557037
0.05366647
0.05149092
0.04907036
0.04635231
0.04327116
0.03976139
0.03571699
0.03095246
0.02512203
0.01761789
0.0121371
0.008871852
0.008955287
0.0114097
0.01332247
0.01497702
0.01649523
0.01792327
0.01928651
0.02059909
0.02187126
0.023112
0.02432967
0.0255321
0.02672621
0.02791738
0.02911042
0.03031772
0.03154675
0.03279263
0.03405
0.03531484
0.03658412
0.03785577
0.03912865
0.04040223
0.04167603
0.04294925
0.04422045
0.04548716
0.0467454
0.0479892
0.04920968
0.05039408
0.05154636
0.0526863
0.05381404
0.05490931
0.05595008
0.05691615
0.05778685
0.05853892
0.05914458
0.05956972
0.05977265
0.05970475
0.05931002
0.05853748
0.05735338
0.05576233
0.05381954
0.05160813
0.04915883
0.0464178
0.04331655
0.03978912
0.03572939
0.03095267
0.02510728
0.01759185
0.01209091
0.008938119
0.00910606
0.01154641
0.01341317
0.01502391
0.01650257
0.01790049
0.0192396
0.02053502
0.02179752
0.02303599
0.02425828
0.02547134
0.026681
0.02789174
0.0291063
0.03032506
0.03155508
0.03280228
0.03406436
0.0353363
0.03661473
0.03789776
0.03918425
0.04047333
0.04176412
0.04305557
0.04434596
0.04563253
0.04691095
0.04817504
0.04941687
0.05062812
0.05180377
0.05295576
0.05409474
0.05520458
0.05625961
0.05723795
0.05811782
0.05887495
0.05948049
0.05989941
0.06008928
0.0600014
0.05957976
0.05877477
0.05755472
0.05592684
0.05394902
0.05170663
0.04923263
0.04647178
0.04335344
0.03981114
0.03573833
0.03095009
0.02509488
0.01757252
0.01205978
0.008964239
0.009278049
0.01169632
0.01351785
0.01508479
0.01652443
0.01788789
0.01920044
0.02047607
0.02172577
0.02295817
0.02418054
0.02539905
0.02661865
0.02784303
0.0290744
0.03031346
0.03155855
0.03281086
0.03407221
0.03534746
0.03663297
0.03792528
0.03922301
0.04052564
0.04183216
0.04314096
0.04445
0.04575626
0.04705529
0.0483409
0.0496053
0.05084034
0.05203898
0.05320976
0.05436373
0.05548728
0.05655549
0.05754542
0.05843385
0.05919521
0.05979953
0.06021085
0.06038619
0.06027683
0.05982709
0.05898902
0.05773331
0.05607022
0.05406038
0.05179091
0.04929536
0.04651691
0.04338335
0.0398276
0.03574249
0.03094266
0.02507676
0.01754577
0.01201981
0.009004506
0.009473411
0.01187937
0.01364873
0.01516536
0.01656153
0.01788859
0.01917055
0.02042309
0.02165665
0.02287932
0.02409775
0.02531733
0.02654226
0.02777553
0.02901883
0.03027264
0.03153648
0.03280721
0.03408461
0.03536693
0.03665504
0.03795325
0.03926117
0.04057588
0.04189577
0.04321986
0.04454609
0.04587112
0.04719028
0.04849744
0.04978505
0.05104426
0.05226601
0.05345668
0.05462701
0.05576478
0.05684576
0.05784633
0.05874208
0.05950618
0.06010759
0.06050951
0.06066845
0.06053588
0.06005672
0.05918489
0.05789382
0.05619708
0.0541581
0.05186516
0.04935108
0.04655746
0.04341099
0.03984406
0.03574893
0.03093967
0.0250657
0.01752812
0.01199454
0.009416635
0.009693934
0.01208439
0.01379894
0.01526245
0.01661161
0.0178984
0.01914873
0.02037633
0.02159149
0.02280192
0.02401368
0.0252315
0.02645894
0.02769833
0.0289508
0.03021638
0.0314942
0.03278265
0.03407992
0.03538333
0.03669111
0.0380007
0.03931456
0.04063752
0.04196913
0.04330725
0.04464928
0.04599173
0.04732978
0.04865721
0.04996643
0.05124859
0.05249385
0.05370561
0.05489259
0.05604389
0.05713645
0.05814613
0.0590474
0.05981224
0.06040859
0.06079893
0.06093946
0.06078189
0.06027209
0.05936598
0.05803999
0.05631114
0.05424563
0.05193242
0.04940237
0.0465954
0.04343751
0.0398604
0.03575572
0.03093683
0.02505293
0.01750701
0.01196372
0.009881217
0.009965961
0.01231016
0.01397514
0.01537841
0.01667702
0.01792181
0.01913747
0.02033831
0.02153351
0.02273032
0.02393417
0.02514918
0.02637827
0.02762319
0.02888454
0.03016192
0.03145411
0.03275928
0.03407516
0.03539871
0.03672778
0.0380601
0.03939321
0.04072707
0.04206644
0.04341498
0.04476999
0.04612736
0.047482
0.0488276
0.05015668
0.05146032
0.05272798
0.05396011
0.05516314
0.05632716
0.05743003
0.05844706
0.05935173
0.06011502
0.06070401
0.06108059
0.06120075
0.06101661
0.06047524
0.05953472
0.05817459
0.05641544
0.05432609
0.05199566
0.04945216
0.04663375
0.0434661
0.03988041
0.0357679
0.03094163
0.02504879
0.01749556
0.01194715
0.01014606
0.01023681
0.01254246
0.01416347
0.01550713
0.01675537
0.01795772
0.0191386
0.02031145
0.02148602
0.02266881
0.02386458
0.0250768
0.02630773
0.02755851
0.02882917
0.03011884
0.03142586
0.03274807
0.03408204
0.03542609
0.03677712
0.03813226
0.03948865
0.04084367
0.04219564
0.0435498
0.04491274
0.04628115
0.04764923
0.04901011
0.050356
0.05167852
0.05296953
0.05422269
0.05543855
0.05661324
0.05772581
0.05874882
0.05965487
0.06041435
0.06099376
0.06135461
0.06145287
0.06124113
0.06066787
0.05969328
0.05830009
0.05651255
0.054402
0.05205721
0.04950235
0.04667385
0.04349739
0.03990361
0.03578316
0.03094852
0.02504644
0.01748384
0.01192662
0.0102223
0.01051309
0.01279405
0.01437017
0.01565486
0.01684917
0.01800732
0.0191524
0.02029854
0.0214531
0.0226227
0.02381151
0.02502224
0.02625642
0.02751453
0.02879596
0.03009932
0.03142171
0.03275949
0.03411215
0.03547589
0.03684762
0.03822388
0.03960175
0.04097832
0.04235121
0.04371843
0.0450857
0.04645996
0.04783696
0.04920952
0.05056952
0.0519084
0.05321771
0.05448931
0.05572034
0.05690554
0.05802488
0.05905124
0.05995646
0.06071008
0.06127803
0.06162154
0.06169663
0.06145638
0.06085106
0.05984318
0.05841863
0.05660507
0.05447604
0.05211965
0.04955538
0.04671801
0.04353385
0.03993307
0.03580587
0.03096421
0.02505456
0.01748167
0.01191718
0.01025601
0.01078628
0.0130511
0.0145835
0.01581415
0.01695517
0.01807071
0.01918231
0.02030284
0.02144088
0.02259954
0.02378365
0.02499533
0.02623508
0.02750213
0.02879445
0.03010885
0.03144554
0.03280213
0.0341737
0.0355569
0.03694812
0.03834403
0.0397413
0.04113729
0.04252921
0.04391461
0.04529245
0.04666871
0.04804906
0.04942835
0.05079849
0.05215057
0.05347524
0.05476266
0.05600731
0.05720195
0.05832663
0.05935441
0.06025665
0.06100226
0.06155669
0.0618811
0.06193214
0.0616637
0.06102754
0.05998753
0.05853292
0.0566953
0.05455059
0.05218536
0.04961323
0.04676759
0.04357611
0.0399684
0.03583404
0.03098429
0.02506486
0.01748086
0.01190691
0.01040368
0.01108096
0.01332706
0.01481564
0.01599115
0.01707815
0.01815188
0.01923146
0.02032855
0.02145024
0.0226021
0.02378487
0.02499781
0.02624179
0.02751696
0.02882156
0.03015371
0.03150826
0.03288201
0.0342714
0.03567277
0.03708216
0.03849594
0.03991075
0.0413238
0.04273228
0.04413369
0.04552567
0.04690867
0.04828893
0.04966989
0.05104544
0.05240649
0.05374296
0.055044
0.05630123
0.05750434
0.058633
0.05966061
0.06055816
0.06129416
0.0618341
0.06213926
0.06216613
0.06186832
0.06120038
0.0601296
0.05864813
0.05678937
0.05463016
0.05225652
0.04967699
0.04682383
0.04362567
0.04001157
0.03587062
0.03101344
0.02508514
0.01749151
0.01190619
0.01050779
0.01136578
0.01360703
0.01505611
0.01617847
0.01721327
0.01824793
0.01929899
0.0203765
0.02148625
0.02263129
0.02381301
0.02503258
0.02628811
0.02757678
0.02889618
0.03024313
0.03161378
0.03300416
0.03441009
0.03582739
0.03725222
0.03868112
0.04011103
0.04153877
0.0429615
0.04437659
0.04578162
0.04717424
0.04855675
0.04993594
0.05131237
0.05267833
0.0540232
0.0553352
0.05660323
0.05781363
0.0589452
0.05997144
0.06086331
0.06158906
0.06211346
0.06239723
0.06239774
0.06207054
0.06137256
0.06027263
0.05876506
0.05688565
0.05471304
0.05233218
0.04974683
0.04688719
0.04368241
0.04006141
0.035913
0.03104727
0.02510833
0.0175015
0.01190567
0.01070046
0.01167623
0.01390601
0.01531139
0.01638182
0.0173684
0.01836719
0.01939272
0.0204539
0.02155544
0.0226993
0.02388558
0.02511309
0.02637937
0.02768121
0.02901512
0.03037722
0.03176339
0.03316926
0.03459016
0.03602169
0.03746005
0.038902
0.04034443
0.04178424
0.04321858
0.04464476
0.04606027
0.0474627
0.04884965
0.05022635
0.0516004
0.05296725
0.05431667
0.05563625
0.05691237
0.05812807
0.05926102
0.06028451
0.06116875
0.06188141
0.0623875
0.06264879
0.06262388
0.06226867
0.0615412
0.06041173
0.05887811
0.05698007
0.05479707
0.05241069
0.04982028
0.04695523
0.04374509
0.04011835
0.03596337
0.03108959
0.02514043
0.01752107
0.01191365
0.01079543
0.01196515
0.01420451
0.01557828
0.01660187
0.01754005
0.01850659
0.01951237
0.02056358
0.02166285
0.0228101
0.02400382
0.02524146
0.02651992
0.02783541
0.02918354
0.03055966
0.03195897
0.0333769
0.03480928
0.03625226
0.03770221
0.03915544
0.04060852
0.04205834
0.04350203
0.04493689
0.04636034
0.04776989
0.04916306
0.0505407
0.05190988
0.05327385
0.05462374
0.05594675
0.05722777
0.05844674
0.05957891
0.06059658
0.06146995
0.06216731
0.06265437
0.06289307
0.06284283
0.06246005
0.06170451
0.06054861
0.0589922
0.05707674
0.05488318
0.05249265
0.04989806
0.04702733
0.043812
0.04017968
0.03601796
0.03113585
0.02517649
0.0175422
0.01191799
0.01095659
0.01226553
0.01451836
0.01585784
0.01683783
0.0177396
0.01868053
0.01967028
0.0207137
0.02181168
0.02296293
0.02416466
0.02541329
0.02670442
0.02803333
0.02939482
0.03078367
0.0321948
0.03362376
0.03506657
0.03651943
0.03797868
0.03944069
0.04090209
0.04235975
0.04381077
0.0452524
0.04668201
0.04809705
0.04949502
0.05087337
0.05223794
0.05359713
0.05494436
0.05626726
0.05754986
0.05876914
0.05989794
0.06090786
0.06176927
0.06245071
0.06291818
0.06313388
0.06305844
0.06264909
0.06186684
0.06068584
0.05910839
0.05717841
0.05497756
0.05258436
0.04998607
0.04710945
0.04388773
0.04024861
0.03607943
0.03118793
0.02521499
0.01756626
0.01192848
0.0113364
0.01257595
0.01483976
0.01615227
0.01709197
0.01795748
0.01887599
0.01985501
0.02089625
0.02199819
0.02315757
0.02437003
0.02563075
0.0269343
0.0282751
0.02964779
0.03104729
0.03246899
0.03390835
0.03536095
0.03682273
0.03828984
0.03975883
0.04122646
0.0426897
0.04414568
0.04559164
0.04702492
0.04844292
0.04984305
0.05122259
0.0525845
0.0539368
0.05527807
0.05659732
0.05787824
0.05909536
0.06021912
0.06122003
0.06206829
0.06273285
0.0631804
0.06337373
0.06327429
0.06283996
0.06203283
0.06082857
0.05923138
0.05728715
0.05507865
0.05268293
0.05008077
0.047198
0.04397019
0.04032464
0.03614825
0.03124893
0.02526723
0.01760195
0.01194402
0.01107352
0.01287544
0.01516338
0.0164515
0.017357
0.01819587
0.01909783
0.02007126
0.02111413
0.02222278
0.02339197
0.02461596
0.0258887
0.02720424
0.02855664
0.0299404
0.03135038
0.03278165
0.03422956
0.03568975
0.03715819
0.03863117
0.04010526
0.04157729
0.04304427
0.0445034
0.045952
0.04738741
0.04880688
0.05020767
0.05158707
0.05294538
0.05429001
0.05562383
0.05693734
0.05821428
0.05942702
0.06054373
0.06153398
0.06236798
0.06301512
0.06344267
0.06361399
0.06349122
0.06303296
0.06220227
0.06097622
0.05936086
0.05740383
0.05518837
0.05278959
0.0501834
0.04729461
0.04406012
0.04040692
0.0362215
0.03131111
0.02531591
0.01763724
0.01196027
0.01094684
0.01313951
0.01548969
0.0167644
0.01764549
0.01846623
0.01935681
0.02032881
0.02137669
0.02249432
0.02367483
0.02491112
0.02619625
0.02752365
0.02888712
0.03028085
0.03169949
0.03313807
0.03459206
0.03605729
0.03752991
0.03900634
0.04048325
0.04195757
0.04342639
0.04488683
0.04633608
0.04777137
0.0491901
0.05058956
0.05196692
0.05332048
0.05465738
0.05598336
0.05728987
0.05856073
0.05976672
0.06087421
0.06185199
0.06267028
0.06329898
0.06370598
0.06385525
0.06370951
0.06322801
0.06237461
0.06112763
0.05949473
0.05752517
0.05530283
0.0529011
0.0502907
0.04739554
0.04415431
0.04049382
0.03630029
0.03138036
0.02537245
0.01767347
0.01197805
0.01129467
0.01341332
0.01581813
0.01708989
0.01795543
0.01876505
0.01964982
0.02062495
0.02168125
0.02281011
0.02400301
0.02525174
0.02654868
0.02788682
0.02925971
0.0306615
0.03208689
0.03353101
0.03498944
0.03645814
0.03793339
0.03941174
0.04088995
0.04236504
0.04383401
0.04529405
0.04674233
0.04817604
0.04959243
0.05098876
0.0523622
0.05371019
0.05503954
0.05635713
0.05765534
0.05891812
0.06011494
0.06121081
0.06217405
0.06297508
0.06358433
0.06397032
0.06409762
0.06392936
0.06342536
0.06255021
0.06128331
0.05963377
0.05765227
0.05542316
0.05301814
0.05040315
0.04750119
0.04425255
0.04058381
0.03638091
0.03145011
0.02542952
0.01771614
0.01200151
0.01188786
0.01371847
0.01615998
0.01743388
0.01829073
0.01909493
0.01997805
0.02095938
0.0220261
0.02316727
0.02437286
0.02563377
0.02694184
0.02828975
0.02967097
0.03107964
0.03251051
0.03395886
0.03542043
0.03689133
0.03836791
0.03984682
0.04132494
0.04279921
0.04426669
0.04572457
0.04717007
0.04860049
0.05001298
0.05140461
0.05277239
0.05411382
0.05543563
0.0567443
0.05803269
0.05928514
0.0604703
0.0615522
0.06249897
0.06328133
0.06387032
0.06423499
0.06434051
0.06415025
0.06362452
0.06272851
0.06144256
0.05977705
0.05778401
0.0555482
0.05313973
0.05051993
0.04761099
0.04435482
0.04067784
0.03646566
0.03152398
0.02548951
0.01775689
0.01202182
0.01219001
0.0140237
0.01650138
0.01778941
0.01864805
0.01945457
0.02034144
0.02133258
0.02241183
0.02356625
0.02478461
0.02605712
0.02737528
0.02873163
0.03011963
0.03153354
0.03296827
0.03441923
0.03588234
0.03735384
0.03883019
0.04030816
0.0417846
0.04325653
0.04472108
0.04617541
0.04761679
0.04904237
0.05044928
0.05183459
0.05319532
0.05452922
0.05584289
0.05714203
0.05841953
0.05965989
0.06083121
0.06189706
0.06282567
0.06358825
0.0641564
0.0644997
0.06458378
0.06437214
0.06382548
0.06290949
0.06160529
0.05992442
0.05792012
0.05567753
0.05326526
0.05064024
0.04772385
0.04445963
0.04077387
0.03655197
0.03159917
0.02555168
0.01780287
0.01204743
0.01231338
0.0143089
0.01685281
0.01816532
0.01903328
0.01984746
0.02074154
0.02174466
0.02283754
0.02400542
0.02523612
0.02651934
0.0278464
0.02920983
0.03060319
0.0320209
0.03345802
0.03491018
0.03637343
0.03784414
0.0393189
0.04079447
0.04226781
0.04373599
0.04519616
0.04664554
0.04808128
0.04950053
0.05090039
0.05227793
0.05363017
0.0549556
0.05626081
0.05754989
0.05881542
0.06004198
0.06119743
0.0622453
0.06315423
0.06389604
0.0644429
0.06476481
0.06482779
0.06459532
0.06402842
0.06309316
0.06177135
0.0600756
0.05806021
0.05581071
0.05339425
0.05076363
0.04783948
0.04456695
0.0408722
0.03664035
0.03167613
0.02561459
0.01784719
0.0120666
0.01271968
0.01458849
0.01720626
0.01855693
0.01944422
0.02027263
0.02117769
0.02219489
0.02330224
0.02448355
0.02572595
0.02701887
0.0283536
0.02972276
0.03112009
0.0325402
0.03397836
0.03543035
0.03689238
0.03836096
0.03983278
0.0413047
0.04277373
0.04423691
0.04569145
0.04713448
0.04856317
0.04997464
0.05136599
0.05273428
0.05407656
0.0553925
0.0566887
0.05796696
0.05921945
0.0604307
0.06156844
0.06259658
0.06348446
0.06420467
0.06472987
0.06503039
0.06507258
0.06481976
0.06423321
0.06327927
0.06194037
0.06023006
0.05820368
0.05594702
0.05352586
0.05088912
0.04795677
0.04467553
0.0409715
0.03672957
0.03175406
0.02567924
0.01789481
0.01209051
0.01246607
0.01487845
0.01757639
0.01897196
0.01988529
0.02073214
0.02165034
0.02268266
0.02380464
0.02499892
0.0262521
0.02755357
0.02889468
0.03026826
0.03166824
0.03308946
0.0345274
0.03597802
0.03743768
0.03890299
0.04037065
0.04183766