/*--------------------------------*- C++ -*----------------------------------*\
| =========                 |                                                 |
| \\      /  F ield         | OpenFOAM: The Open Source CFD Toolbox           |
|  \\    /   O peration     | Version:  2312                                  |
|   \\  /    A nd           | Website:  www.openfoam.com                      |
|    \\/     M anipulation  |                                                 |
\*---------------------------------------------------------------------------*/
FoamFile
{
    version     2.0;
    format      ascii;
    arch        "LSB;label=32;scalar=64";
    class       volScalarField;
    location    "5550";
    object      qr;
}
// * * * * * * * * * * * * * * * * * * * * * * * * * * * * * * * * * * * * * //

dimensions      [1 0 -3 0 0 0 0];

internalField   uniform 0;

boundaryField
{
    plate
    {
        type            calculated;
        value           nonuniform List<scalar> 
200
(
-10019.66
-10159.87
-10239.83
-10239.54
-10184.54
-10140
-10135.92
-10173.36
-10220.34
363.2719
354.0709
-10340.3
322.4013
298.6485
280.0819
270.3284
268.3447
275.9702
297.8866
331.5927
358.2764
370.0069
359.6173
336.3797
317.5205
316.9285
-10383.47
-10355.49
-10332.45
-10306.71
-10273.24
-10237.93
-10205.73
-10173.4
-10139.83
-10115.02
-10105.86
121.6075
103.4666
-9999.919
-9934.016
-9873.837
-9829.542
-9797.804
-128.3386
-190.4942
-250.606
-303.0813
-348.9412
-393.1885
-440.9392
-489.3805
-527.8907
-549.7716
-9113.235
-9018.271
-8953.754
-8909.948
-8866.849
-8819.004
-1053.08
-1099.461
-8526.161
-8407.132
-8295.728
-8212.816
-8158.463
-1474.446
-1559.429
-7953.566
-7877.558
-1817.437
-1875.771
-1910.625
-1947.957
-2018.301
-2119.939
-2227.156
-7005.089
-6969.866
-6908.853
-6778.899
-6558.784
-6227.585
-6184.251
-6263.301
-6245.22
-6094.537
-5318.444
-3867.844
-3842.787
-4009.324
-4472.915
-5061.25
-5246.94
-5133.786
-4775.366
-4378.311
-4154.897
-4067.086
-4053.576
-4070.231
-4085.941
-4093.244
-4114.713
-4186.801
-4338.637
-4569.79
-4822.218
-5004.752
-5069.893
-5029.052
-4930.079
-4838.698
-4807.928
-4851.959
-4946.259
-5046.222
-5113.557
-5132.463
-5108.187
-5057.317
-4996.625
-4934.266
-4868.95
-4795.963
-4716.52
-4641.745
-4589.233
-4575.229
-4606.505
-4677.756
-4771.131
-4863.232
-4933.852
-4972.491
-4977.637
-4952.088
-4898.388
-4818.906
-4721.004
-4615.412
-4520.848
-4456.652
-4437.235
-4467.832
-4542.519
-4645.098
-4751.829
-4840.393
-4898.486
-4926.219
-4931.462
-4922.271
-4903.086
-4875.004
-4840.255
-4805.986
-4784.562
-4789.069
-4824.149
-4880.789
-4935.795
-4968.035
-4966.151
-4936.278
-4893.632
-4861.299
-4853.877
-4868.158
-4873.645
-4836.502
-4746.197
-4632.803
-4550.91
-4549.051
-4663.862
-4881.572
-5112.442
-5243.625
-5218.351
-5088.15
-4938.516
-4842.565
-4822.097
-4870.562
-4986.382
-5229.82
-5496.146
-5787.83
-5852
-6031.99
-6352.981
-2675.748
-8079.587
-957.9623
-10234.15
935.9181
1164.404
1212.538
)
;
    }
    riser
    {
        type            calculated;
        value           nonuniform List<scalar> 
200
(
3383.303
3239.354
3204.023
3210.788
3255.443
3316.315
3399.241
3407.51
3231.44
3078.365
3223.044
3454.666
3428.029
3297.092
3375.043
3582.795
3663.587
3567.978
3432.386
3391.874
3506.532
3762.116
4045.163
4207.221
4248.28
4285.563
4288.199
4139.816
3971.772
4049.228
4330.554
4480.415
4339.265
4166.906
4325.589
4776.396
5130.809
5224.259
5199.897
5034.497
4615.438
4211.656
4193.297
4478.087
4737.32
4815.205
4703.322
4455.255
4235.283
4190.593
4256.734
4254.864
4169.569
4127.312
4095.755
3947.925
3826.407
4035.725
4531.461
4914.825
4981.273
4860.146
4639.936
4344.296
4182.901
4307.587
4531.637
4681.664
4839.908
4986.099
4922.379
4709.326
4645.101
4762.52
4788.147
4575.067
4289.938
4147.812
4128.196
4079.236
3999.284
4019.333
4169.051
4331.08
4397.474
4371.635
4324.32
4301.292
4304.971
4331.217
4373.773
4407.768
4411.533
4395.698
4389.155
4407.444
4442.579
4473.626
4480.174
4448.8
4376.942
4275.292
4165.335
4072.79
4019.74
4017.6
4063.233
4140.526
4227.83
4307.643
4372.198
4421.385
4456.346
4475.2
4473.851
4449.879
4406.007
4350.87
4296.638
4254.605
4230.988
4225.094
4230.664
4239.396
4244.772
4244.434
4240.315
4236.802
4238.202
4246.933
4263.129
4285.33
4311.414
4339.219
4366.726
4391.977
4412.98
4427.829
4435.125
4434.515
4427.019
4414.884
4400.973
4387.89
4377.232
4369.277
4363.157
4357.352
4350.393
4341.651
4331.871
4323.12
4318.08
4319.012
4326.703
4339.804
4354.925
4367.797
4375.207
4376.608
4374.075
4370.212
4365.136
4354.552
4330.706
4286.598
4221.76
4145.935
4077.263
4034.862
4029.866
4060.21
4111.607
4163.345
4196.173
4200.013
4178.482
4146.162
4117.452
4093.398
4058.264
3992.147
3891.805
3782.73
3706.754
3685.582
3694.057
3686.347
3658.378
3659.817
3711.925
3716.23
3554.145
3265.34
3049.978
3034.468
3099.491
3086.874
3100.238
2995.073
)
;
    }
    topAndBottom
    {
        type            calculated;
        value           nonuniform List<scalar> 
120
(
-1510.521
-869.1756
-297.3043
98.58525
390.0294
625.5194
796.8726
913.0276
999.8704
1079.446
1160.657
1240.735
1311.963
1370.42
1421.308
1469.401
1514.881
1553.053
1577.918
1588.176
1586.75
1579.008
1570.253
1563.619
1559.625
1556.93
1553.72
1549.335
1545.241
1544.339
1549.399
1561.615
1579.954
1601.6
1623.106
1641.597
1655.338
1663.632
1666.411
1664.072
1657.588
1648.636
1639.386
1631.808
1626.746
1623.434
1619.967
1614.323
1605.077
1591.321
1572.405
1547.889
1517.777
1482.577
1443.656
1404.239
1371.823
1358.129
1379.211
1582.019
4557.999
4816.879
4840.403
4698.899
4367.699
3937.902
3544.216
3264.861
3101.812
3014.06
2962.98
2948.265
3008.007
3178.279
3445.853
3734.259
3939.268
3990.306
3888.67
3693.637
3473.548
3262.726
3052.785
2817.278
2545.516
2259.753
2006.972
1835.472
1773.235
1818.849
1945.177
2109.543
2264.554
2367.483
2387.985
2314.929
2159.819
1954.466
1742.148
1565.054
1452.834
1417.221
1453.245
1545.357
1674.354
1822.058
1974.66
2123.585
2262.784
2385.926
2486.253
2561.041
2613.828
2651.584
2681.28
2706.996
2729.825
2744.988
2772.38
2785.244
)
;
    }
    frontAndBack
    {
        type            empty;
    }
}


// ************************************************************************* //
