/*--------------------------------*- C++ -*----------------------------------*\
| =========                 |                                                 |
| \\      /  F ield         | OpenFOAM: The Open Source CFD Toolbox           |
|  \\    /   O peration     | Version:  2312                                  |
|   \\  /    A nd           | Website:  www.openfoam.com                      |
|    \\/     M anipulation  |                                                 |
\*---------------------------------------------------------------------------*/
FoamFile
{
    version     2.0;
    format      ascii;
    arch        "LSB;label=32;scalar=64";
    class       volVectorField;
    location    "5550";
    object      U;
}
// * * * * * * * * * * * * * * * * * * * * * * * * * * * * * * * * * * * * * //

dimensions      [0 1 -1 0 0 0 0];

internalField   nonuniform List<vector> 
12000
(
(-0.02575943 0.05344311 0)
(-0.05665254 0.05130279 0)
(-0.09199096 0.06730238 0)
(-0.1346457 0.07284758 0)
(-0.1753445 0.05739907 0)
(-0.2112658 0.03995528 0)
(-0.2426264 0.05443307 0)
(-0.2810888 0.0903725 0)
(-0.3259547 0.08811068 0)
(-0.3607488 0.03050417 0)
(-0.3793513 0.006016533 0)
(-0.4008931 0.06043808 0)
(-0.4383387 0.09592775 0)
(-0.4742757 0.04615399 0)
(-0.4905332 -0.01065054 0)
(-0.5006978 0.0178735 0)
(-0.5249765 0.07413665 0)
(-0.5554633 0.05599374 0)
(-0.5715904 -0.001764937 0)
(-0.5776857 0.0005635367 0)
(-0.5919685 0.0439998 0)
(-0.6125271 0.03901602 0)
(-0.6236653 -0.0009690299 0)
(-0.6274735 -1.555315e-05 0)
(-0.6368348 0.028216 0)
(-0.6493513 0.02143702 0)
(-0.6548255 -0.002955351 0)
(-0.65677 0.002623379 0)
(-0.6625582 0.01628364 0)
(-0.6683306 0.005788829 0)
(-0.6692326 -0.00290924 0)
(-0.6693243 -0.004401835 0)
(-0.6679662 -0.004597126 0)
(-0.6678176 0.004552539 0)
(-0.6684301 0.003989682 0)
(-0.6660638 -0.009573338 0)
(-0.65892 -0.03013592 0)
(-0.6472901 -0.02689402 0)
(-0.6414576 0.008186395 0)
(-0.6403346 0.02829073 0)
(-0.6378844 -0.01460824 0)
(-0.6216219 -0.06779856 0)
(-0.5965353 -0.05773856 0)
(-0.5831563 0.009573767 0)
(-0.5832768 0.03792421 0)
(-0.575592 -0.01981944 0)
(-0.549894 -0.1144 0)
(-0.5095003 -0.0745047 0)
(-0.4936333 0.03193622 0)
(-0.4893693 0.02732705 0)
(-0.4652395 -0.09313177 0)
(-0.4182718 -0.1132555 0)
(-0.3839693 -0.02535866 0)
(-0.3618266 -0.0158804 0)
(-0.3258344 -0.08731343 0)
(-0.2733441 -0.108622 0)
(-0.2260677 -0.08118837 0)
(-0.1693554 -0.0843146 0)
(-0.09905595 -0.1084083 0)
(-0.03837514 -0.1086383 0)
(-0.02839851 0.1720833 0)
(-0.05707215 0.1515241 0)
(-0.09927115 0.1557992 0)
(-0.1296349 0.1643871 0)
(-0.1646668 0.1625718 0)
(-0.2002053 0.1535641 0)
(-0.2364017 0.1465398 0)
(-0.2651516 0.1467416 0)
(-0.2848679 0.1425044 0)
(-0.3128988 0.1206408 0)
(-0.3455181 0.1104638 0)
(-0.375113 0.10954 0)
(-0.3880022 0.1132454 0)
(-0.4003417 0.1023351 0)
(-0.4239835 0.08661178 0)
(-0.4513298 0.08179963 0)
(-0.4649082 0.08261905 0)
(-0.4703295 0.07710167 0)
(-0.4837628 0.0651004 0)
(-0.503919 0.05829281 0)
(-0.5160921 0.05614262 0)
(-0.5202115 0.05168149 0)
(-0.528697 0.04360818 0)
(-0.5418291 0.03799289 0)
(-0.5493907 0.03483446 0)
(-0.5517098 0.03019607 0)
(-0.556902 0.02411348 0)
(-0.5638406 0.02000276 0)
(-0.5664671 0.01723716 0)
(-0.5669706 0.01252776 0)
(-0.5687006 0.006617285 0)
(-0.5705531 0.001696209 0)
(-0.5710404 -0.0002599458 0)
(-0.5693499 -0.004249668 0)
(-0.5645194 -0.0092846 0)
(-0.5597955 -0.0156587 0)
(-0.5574385 -0.02210958 0)
(-0.5563905 -0.02649043 0)
(-0.5505303 -0.0290503 0)
(-0.5359842 -0.03277337 0)
(-0.5208684 -0.04039139 0)
(-0.5153613 -0.04845135 0)
(-0.5138589 -0.0543636 0)
(-0.504176 -0.05784988 0)
(-0.4776889 -0.06136291 0)
(-0.4495854 -0.06905413 0)
(-0.4416646 -0.07827724 0)
(-0.4385541 -0.08629511 0)
(-0.4185316 -0.09223047 0)
(-0.3775294 -0.1000429 0)
(-0.3504494 -0.1124156 0)
(-0.3426224 -0.1241727 0)
(-0.3232802 -0.1358878 0)
(-0.2832766 -0.1480113 0)
(-0.2533153 -0.1587861 0)
(-0.2160895 -0.1897645 0)
(-0.1906414 -0.2127901 0)
(-0.1393892 -0.2653986 0)
(-0.08065759 -0.290056 0)
(-0.04058004 -0.2990278 0)
(-0.02379233 0.2903803 0)
(-0.04673917 0.2669468 0)
(-0.08363343 0.2610746 0)
(-0.1101811 0.2594517 0)
(-0.1386105 0.2531518 0)
(-0.1644513 0.24327 0)
(-0.1907402 0.2347545 0)
(-0.2148126 0.22838 0)
(-0.2390532 0.2154754 0)
(-0.2571494 0.2037898 0)
(-0.2837396 0.1835361 0)
(-0.3055894 0.1734779 0)
(-0.3238464 0.1638897 0)
(-0.3393782 0.1516869 0)
(-0.3560685 0.1394296 0)
(-0.3725978 0.12995 0)
(-0.3866393 0.1213623 0)
(-0.3985484 0.1113827 0)
(-0.4104445 0.1007877 0)
(-0.4224707 0.09179207 0)
(-0.4329978 0.08402242 0)
(-0.4418411 0.07565012 0)
(-0.4502079 0.06678676 0)
(-0.4582614 0.05888766 0)
(-0.465082 0.05176391 0)
(-0.4706178 0.04418422 0)
(-0.4755546 0.03633852 0)
(-0.4798187 0.02919187 0)
(-0.4827905 0.02246178 0)
(-0.4844755 0.01538727 0)
(-0.48597 0.007896729 0)
(-0.4866241 0.002505583 0)
(-0.4861244 -0.006369422 0)
(-0.4841896 -0.01360715 0)
(-0.4812777 -0.02102679 0)
(-0.4776578 -0.0289673 0)
(-0.4734056 -0.03728192 0)
(-0.4683231 -0.04533429 0)
(-0.4617667 -0.05276863 0)
(-0.4534466 -0.06050715 0)
(-0.4440583 -0.06975643 0)
(-0.4344108 -0.0798552 0)
(-0.4241462 -0.08948994 0)
(-0.4122961 -0.09841554 0)
(-0.3984566 -0.1080789 0)
(-0.3833359 -0.1190711 0)
(-0.367454 -0.1311021 0)
(-0.3507341 -0.1425564 0)
(-0.3322932 -0.1535635 0)
(-0.3109228 -0.1661451 0)
(-0.2908261 -0.1757891 0)
(-0.2711898 -0.1851366 0)
(-0.2418862 -0.2038798 0)
(-0.220004 -0.2213781 0)
(-0.1831688 -0.2602392 0)
(-0.1556597 -0.2867568 0)
(-0.1215592 -0.3186668 0)
(-0.09186542 -0.3575794 0)
(-0.05578638 -0.4079167 0)
(-0.02256499 -0.4319928 0)
(-0.01778197 0.3750937 0)
(-0.03921827 0.3434656 0)
(-0.06649036 0.3355315 0)
(-0.08952464 0.3285908 0)
(-0.1128918 0.3188867 0)
(-0.1345678 0.3063153 0)
(-0.1565955 0.2918334 0)
(-0.174741 0.2801412 0)
(-0.1913273 0.2690971 0)
(-0.2111879 0.2550433 0)
(-0.2257008 0.2462577 0)
(-0.2439338 0.2292488 0)
(-0.2611895 0.2103874 0)
(-0.2765739 0.1955378 0)
(-0.2913824 0.1822426 0)
(-0.3054238 0.1695586 0)
(-0.3185685 0.1572292 0)
(-0.3305503 0.1452076 0)
(-0.3417309 0.1334718 0)
(-0.3522176 0.1221621 0)
(-0.3617452 0.1112735 0)
(-0.3702875 0.1005947 0)
(-0.3780652 0.09004644 0)
(-0.3851072 0.07973696 0)
(-0.3912379 0.06966006 0)
(-0.3964339 0.0596791 0)
(-0.4008301 0.04975489 0)
(-0.4044202 0.03995418 0)
(-0.4069345 0.03026285 0)
(-0.4089747 0.02050476 0)
(-0.4101221 0.01287681 0)
(-0.4102374 0.001746699 0)
(-0.4092931 -0.00856037 0)
(-0.4077067 -0.01861771 0)
(-0.4051478 -0.02869423 0)
(-0.401739 -0.03902882 0)
(-0.3974895 -0.04956726 0)
(-0.3924086 -0.06028142 0)
(-0.3863634 -0.07117622 0)
(-0.379237 -0.08235837 0)
(-0.3711113 -0.09396176 0)
(-0.362146 -0.1059755 0)
(-0.3523381 -0.1183305 0)
(-0.3412906 -0.1311239 0)
(-0.3294249 -0.1440796 0)
(-0.3165589 -0.1579121 0)
(-0.3023689 -0.1727861 0)
(-0.2874905 -0.1882853 0)
(-0.270746 -0.2038186 0)
(-0.2538349 -0.2163462 0)
(-0.2364596 -0.2319041 0)
(-0.2111812 -0.2614841 0)
(-0.1886928 -0.2865841 0)
(-0.1629662 -0.3119766 0)
(-0.1389415 -0.3372372 0)
(-0.1155789 -0.3650223 0)
(-0.09066213 -0.3991068 0)
(-0.06593937 -0.4415698 0)
(-0.03873891 -0.4911162 0)
(-0.01529936 -0.518036 0)
(-0.01353182 0.4488563 0)
(-0.03241511 0.4132901 0)
(-0.05387465 0.4016427 0)
(-0.07295788 0.3912948 0)
(-0.09194728 0.3789364 0)
(-0.109907 0.3645235 0)
(-0.1274725 0.3487604 0)
(-0.1446595 0.331975 0)
(-0.1604782 0.3154876 0)
(-0.1752746 0.2986131 0)
(-0.1893263 0.2816708 0)
(-0.2023221 0.2680757 0)
(-0.213658 0.2556639 0)
(-0.2280912 0.2373996 0)
(-0.240939 0.2200712 0)
(-0.2516544 0.2071561 0)
(-0.2635318 0.1918423 0)
(-0.2738109 0.1769101 0)
(-0.2833451 0.1624642 0)
(-0.2922635 0.1486057 0)
(-0.3004275 0.1351949 0)
(-0.3078258 0.1220885 0)
(-0.3144844 0.1092143 0)
(-0.3204104 0.09655278 0)
(-0.3255843 0.08406991 0)
(-0.3299999 0.07170637 0)
(-0.3336765 0.05942238 0)
(-0.336575 0.04719834 0)
(-0.3388365 0.03499513 0)
(-0.3401998 0.02518514 0)
(-0.3407694 0.0121753 0)
(-0.3403485 -0.0002839522 0)
(-0.3394751 -0.01272901 0)
(-0.337676 -0.02513517 0)
(-0.3353479 -0.03756304 0)
(-0.3323604 -0.05032296 0)
(-0.3283904 -0.06335355 0)
(-0.3236089 -0.07661127 0)
(-0.3179877 -0.09013503 0)
(-0.3115207 -0.1039922 0)
(-0.3042089 -0.1182664 0)
(-0.2960487 -0.1330155 0)
(-0.2872576 -0.1482907 0)
(-0.2768477 -0.1641661 0)
(-0.2670396 -0.1777786 0)
(-0.2548249 -0.1960752 0)
(-0.2424806 -0.2142846 0)
(-0.2292308 -0.2311241 0)
(-0.2167627 -0.2474132 0)
(-0.1998117 -0.2697979 0)
(-0.18193 -0.2940372 0)
(-0.163877 -0.3178212 0)
(-0.1466574 -0.3412492 0)
(-0.1287723 -0.3662947 0)
(-0.1101789 -0.3942612 0)
(-0.09069517 -0.4258012 0)
(-0.07045407 -0.4618057 0)
(-0.05053449 -0.5038244 0)
(-0.02984678 -0.5548676 0)
(-0.01105069 -0.5856514 0)
(-0.0105673 0.5071469 0)
(-0.02650873 0.4678207 0)
(-0.04328459 0.4525133 0)
(-0.05853291 0.439447 0)
(-0.07354923 0.4250264 0)
(-0.08780865 0.4090507 0)
(-0.1016854 0.3919965 0)
(-0.1151889 0.3741856 0)
(-0.1282516 0.3561662 0)
(-0.140838 0.3380989 0)
(-0.1531342 0.3201059 0)
(-0.1644627 0.302236 0)
(-0.1760362 0.2849141 0)
(-0.184337 0.2705184 0)
(-0.19578 0.2522295 0)
(-0.2053081 0.2349006 0)
(-0.2144125 0.2184517 0)
(-0.2228682 0.2022615 0)
(-0.2308697 0.1863587 0)
(-0.2383248 0.1707941 0)
(-0.2451824 0.1555402 0)
(-0.2514213 0.1405504 0)
(-0.2570346 0.1257847 0)
(-0.2620182 0.111212 0)
(-0.2663658 0.09680363 0)
(-0.2700739 0.08253024 0)
(-0.2731455 0.06836816 0)
(-0.2755732 0.05429839 0)
(-0.2774492 0.04028957 0)
(-0.2784066 0.02637745 0)
(-0.278458 0.01234407 0)
(-0.2783042 -0.001819601 0)
(-0.2777139 -0.01631412 0)
(-0.2761979 -0.03103055 0)
(-0.2742648 -0.04361537 0)
(-0.2713667 -0.05927129 0)
(-0.2679484 -0.07470346 0)
(-0.2638077 -0.09018296 0)
(-0.2590007 -0.1058674 0)
(-0.25351 -0.1218492 0)
(-0.2473388 -0.1381916 0)
(-0.2404894 -0.1549379 0)
(-0.23297 -0.1721203 0)
(-0.2248456 -0.1896735 0)
(-0.2158934 -0.2079849 0)
(-0.2053593 -0.2268148 0)
(-0.1961847 -0.2441851 0)
(-0.1848008 -0.2645823 0)
(-0.1718029 -0.2884565 0)
(-0.1585687 -0.3126821 0)
(-0.1449718 -0.3367915 0)
(-0.1311159 -0.3616574 0)
(-0.1166638 -0.3877753 0)
(-0.1015122 -0.4157165 0)
(-0.08582009 -0.4457239 0)
(-0.06983346 -0.4783687 0)
(-0.0537456 -0.5146265 0)
(-0.03803836 -0.556135 0)
(-0.02223952 -0.6044933 0)
(-0.008016671 -0.6341456 0)
(-0.008259776 0.5548244 0)
(-0.02145749 0.5123777 0)
(-0.03460201 0.4936495 0)
(-0.04667896 0.4782214 0)
(-0.05846614 0.4620526 0)
(-0.0696863 0.4447048 0)
(-0.08059993 0.4264647 0)
(-0.09120444 0.4076268 0)
(-0.1015309 0.3885082 0)
(-0.1115603 0.3693283 0)
(-0.1213054 0.3502685 0)
(-0.1307228 0.3314635 0)
(-0.1395675 0.3127324 0)
(-0.1488042 0.2944276 0)
(-0.1552687 0.2785208 0)
(-0.1640819 0.2599398 0)
(-0.1714575 0.2415799 0)
(-0.1786558 0.2237483 0)
(-0.1852688 0.2063208 0)
(-0.1913991 0.1892044 0)
(-0.1970232 0.1723543 0)
(-0.2021358 0.1557343 0)
(-0.206729 0.1393144 0)
(-0.2107969 0.1230681 0)
(-0.2143338 0.1069696 0)
(-0.2173352 0.09099268 0)
(-0.2197972 0.0751097 0)
(-0.2217125 0.05929082 0)
(-0.2230837 0.04350085 0)
(-0.2238905 0.02773576 0)
(-0.2240467 0.0118272 0)
(-0.2239071 -0.002089273 0)
(-0.2233752 -0.01862748 0)
(-0.2222983 -0.0349919 0)
(-0.2204377 -0.05136386 0)
(-0.2178638 -0.06801791 0)
(-0.2149398 -0.08486751 0)
(-0.211469 -0.1019667 0)
(-0.2074535 -0.1193623 0)
(-0.2028717 -0.1371081 0)
(-0.1977148 -0.1552557 0)
(-0.1919701 -0.173855 0)
(-0.1856252 -0.192952 0)
(-0.1788331 -0.2126667 0)
(-0.170783 -0.232775 0)
(-0.1637452 -0.2523441 0)
(-0.1540545 -0.274873 0)
(-0.1443525 -0.2983304 0)
(-0.1340466 -0.3221896 0)
(-0.1236601 -0.3466539 0)
(-0.1129241 -0.3719619 0)
(-0.1017667 -0.3982095 0)
(-0.09019568 -0.4255467 0)
(-0.0782884 -0.454233 0)
(-0.06614339 -0.4846329 0)
(-0.05385491 -0.5172898 0)
(-0.04151317 -0.5531022 0)
(-0.02940586 -0.593719 0)
(-0.01732835 -0.6414401 0)
(-0.006069096 -0.6722918 0)
(-0.006405792 0.5930693 0)
(-0.01702856 0.547933 0)
(-0.0270882 0.5260366 0)
(-0.03639424 0.5085136 0)
(-0.04543083 0.4909174 0)
(-0.05407739 0.4725519 0)
(-0.06252332 0.4535122 0)
(-0.07077096 0.4340029 0)
(-0.07884203 0.4142382 0)
(-0.08672475 0.3943798 0)
(-0.09439832 0.3745465 0)
(-0.1018281 0.3548174 0)
(-0.1090025 0.3352314 0)
(-0.1157152 0.3157451 0)
(-0.1227695 0.2967187 0)
(-0.1276071 0.2795726 0)
(-0.1341749 0.2606062 0)
(-0.1396493 0.2414748 0)
(-0.1450036 0.2226787 0)
(-0.1500173 0.2042397 0)
(-0.1546129 0.1860708 0)
(-0.1587861 0.1681275 0)
(-0.1625307 0.1503741 0)
(-0.1658435 0.1327831 0)
(-0.1687219 0.1153294 0)
(-0.1711648 0.09798858 0)
(-0.1731718 0.0807343 0)
(-0.1747429 0.06353874 0)
(-0.1758805 0.04637055 0)
(-0.1765822 0.02919937 0)
(-0.1768655 0.01198624 0)
(-0.1766876 -0.003505641 0)
(-0.1760355 -0.02125351 0)
(-0.1750282 -0.03899817 0)
(-0.1735683 -0.0567846 0)
(-0.1716705 -0.07480723 0)
(-0.1693543 -0.09305668 0)
(-0.1666001 -0.1115881 0)
(-0.163403 -0.1304468 0)
(-0.1597539 -0.1496794 0)
(-0.1556461 -0.1693286 0)
(-0.1510551 -0.1894291 0)
(-0.1461519 -0.2100204 0)
(-0.1402052 -0.231049 0)
(-0.1350052 -0.2518231 0)
(-0.1277365 -0.2747858 0)
(-0.1206161 -0.2984298 0)
(-0.1130089 -0.3225827 0)
(-0.105116 -0.3474579 0)
(-0.0968797 -0.373044 0)
(-0.08830929 -0.3994053 0)
(-0.07943075 -0.4266478 0)
(-0.07027407 -0.4549259 0)
(-0.0608814 -0.4844602 0)
(-0.05131071 -0.5155648 0)
(-0.04163995 -0.5487309 0)
(-0.03195002 -0.5847681 0)
(-0.02244947 -0.6250864 0)
(-0.01311195 -0.6713402 0)
(-0.004521934 -0.7006222 0)
(-0.004988388 0.6231614 0)
(-0.01339611 0.5756573 0)
(-0.02097877 0.5508812 0)
(-0.02801592 0.5315836 0)
(-0.03479006 0.5128996 0)
(-0.04127105 0.4938219 0)
(-0.04760084 0.4742546 0)
(-0.05380262 0.4542985 0)
(-0.05990151 0.4340903 0)
(-0.06589605 0.4137535 0)
(-0.07177344 0.3933881 0)
(-0.07751097 0.3730619 0)
(-0.0830897 0.3528172 0)
(-0.08849919 0.3326898 0)
(-0.09355621 0.3126326 0)
(-0.09880326 0.2929378 0)
(-0.1022585 0.2746937 0)
(-0.1070798 0.2553704 0)
(-0.111095 0.2358476 0)
(-0.1149374 0.216467 0)
(-0.1185125 0.1972514 0)
(-0.1217634 0.1782197 0)
(-0.1246928 0.1593587 0)
(-0.1272908 0.1406539 0)
(-0.1295543 0.1220855 0)
(-0.1314817 0.1036331 0)
(-0.1330729 0.08527444 0)
(-0.1343295 0.06698404 0)
(-0.135254 0.04873357 0)
(-0.135846 0.03049245 0)
(-0.1361305 0.0122272 0)
(-0.136017 -0.004610876 0)
(-0.1355155 -0.02328617 0)
(-0.1347585 -0.0420345 0)
(-0.1336751 -0.06090969 0)
(-0.1322683 -0.07997602 0)
(-0.1305377 -0.09928228 0)
(-0.1284757 -0.1188817 0)
(-0.126076 -0.1388247 0)
(-0.1233308 -0.1591601 0)
(-0.1202259 -0.1799337 0)
(-0.1167805 -0.2011799 0)
(-0.1127844 -0.2229734 0)
(-0.108842 -0.2451292 0)
(-0.103695 -0.268621 0)
(-0.0985407 -0.2927047 0)
(-0.09297724 -0.3172526 0)
(-0.08712359 -0.3423941 0)
(-0.0809609 -0.3681565 0)
(-0.07451259 -0.3945841 0)
(-0.06779806 -0.4217275 0)
(-0.06084752 -0.4496566 0)
(-0.05369894 -0.4784816 0)
(-0.04640056 -0.5083741 0)
(-0.03900916 -0.5396057 0)
(-0.03159119 -0.5726225 0)
(-0.02421547 -0.6081969 0)
(-0.01701416 -0.647738 0)
(-0.01000422 -0.6930939 0)
(-0.003424092 -0.7228418 0)
(-0.003398864 0.6471747 0)
(-0.009974605 0.5970821 0)
(-0.01588256 0.5697357 0)
(-0.02098921 0.5488372 0)
(-0.02583332 0.5291249 0)
(-0.03047801 0.5093892 0)
(-0.03504465 0.4894011 0)
(-0.03955593 0.4691657 0)
(-0.04402047 0.4487515 0)
(-0.04842898 0.4282223 0)
(-0.05276831 0.407632 0)
(-0.05702208 0.3870258 0)
(-0.06117284 0.3664382 0)
(-0.06520402 0.3458952 0)
(-0.06911105 0.3254175 0)
(-0.072734 0.3049522 0)
(-0.07660047 0.284681 0)
(-0.07894293 0.2654303 0)
(-0.08236287 0.2454803 0)
(-0.08512389 0.2253767 0)
(-0.08780495 0.2054281 0)
(-0.09024176 0.1856618 0)
(-0.09244964 0.1660374 0)
(-0.0944133 0.1465495 0)
(-0.09613066 0.1271862 0)
(-0.0976 0.1079325 0)
(-0.09882175 0.08877079 0)
(-0.09979739 0.06967796 0)
(-0.1005293 0.05062696 0)
(-0.1010156 0.0315871 0)
(-0.1012841 0.01252489 0)
(-0.1012343 -0.005446032 0)
(-0.1008802 -0.02481792 0)
(-0.100344 -0.04430419 0)
(-0.09957504 -0.06395205 0)
(-0.09857205 -0.0838137 0)
(-0.09732627 -0.1039404 0)
(-0.09582954 -0.124386 0)
(-0.09407344 -0.145205 0)
(-0.09205033 -0.1664529 0)
(-0.08973697 -0.1881871 0)
(-0.08722948 -0.2104761 0)
(-0.08416467 -0.2333454 0)
(-0.08119019 -0.2566945 0)
(-0.07759398 -0.2808345 0)
(-0.07386691 -0.3055651 0)
(-0.06983628 -0.33092 0)
(-0.06552145 -0.3568789 0)
(-0.06092958 -0.3834417 0)
(-0.05608223 -0.410612 0)
(-0.05100854 -0.4384131 0)
(-0.04574351 -0.4669028 0)
(-0.04032702 -0.4961822 0)
(-0.03480298 -0.5264161 0)
(-0.02921695 -0.5578736 0)
(-0.02361731 -0.590997 0)
(-0.01805456 -0.6265341 0)
(-0.01261738 -0.6657939 0)
(-0.007359653 -0.7103243 0)
(-0.002464009 -0.7390105 0)
(-0.002475398 0.6662648 0)
(-0.007372029 0.613279 0)
(-0.01158402 0.5833324 0)
(-0.01511158 0.5609784 0)
(-0.01840746 0.5405794 0)
(-0.02154049 0.5205896 0)
(-0.02457615 0.5005025 0)
(-0.02754484 0.4801823 0)
(-0.03048137 0.4596215 0)
(-0.03342115 0.4388816 0)
(-0.03636911 0.4180374 0)
(-0.03930766 0.3971417 0)
(-0.04221694 0.3762324 0)
(-0.04507449 0.3553361 0)
(-0.04785904 0.334474 0)
(-0.05056253 0.3136651 0)
(-0.05304642 0.292871 0)
(-0.0557816 0.272299 0)
(-0.05740582 0.252438 0)
(-0.05971085 0.2322096 0)
(-0.06157265 0.2118376 0)
(-0.06332595 0.1915055 0)
(-0.06496226 0.1712793 0)
(-0.06640518 0.1511718 0)
(-0.06767076 0.131186 0)
(-0.06876309 0.1113144 0)
(-0.06968655 0.09154381 0)
(-0.07044579 0.07185314 0)
(-0.07104481 0.05221553 0)
(-0.0714817 0.03259918 0)
(-0.07178497 0.01296801 0)
(-0.07185719 -0.005881716 0)
(-0.07171384 -0.02574801 0)
(-0.07145646 -0.04575075 0)
(-0.07104722 -0.06593739 0)
(-0.07048416 -0.08635811 0)
(-0.06975903 -0.1070648 0)
(-0.06886416 -0.1281098 0)
(-0.06779147 -0.1495448 0)
(-0.06653134 -0.1714195 0)
(-0.06508749 -0.1937784 0)
(-0.06335559 -0.2166598 0)
(-0.06166899 -0.2400632 0)
(-0.05932585 -0.2644143 0)
(-0.05700942 -0.289411 0)
(-0.05435845 -0.3149782 0)
(-0.05145611 -0.3411412 0)
(-0.04828823 -0.367872 0)
(-0.04487717 -0.3951433 0)
(-0.04125174 -0.4229402 0)
(-0.03744757 -0.4512734 0)
(-0.03350238 -0.480182 0)
(-0.02945607 -0.5097512 0)
(-0.02534809 -0.5401384 0)
(-0.02121744 -0.5716045 0)
(-0.01710363 -0.6045782 0)
(-0.01304774 -0.6397901 0)
(-0.009108079 -0.678537 0)
(-0.005334447 -0.7224105 0)
(-0.001796167 -0.7512964 0)
(-0.002340343 0.6799868 0)
(-0.005962564 0.6247931 0)
(-0.008509081 0.5927276 0)
(-0.01078733 0.5692826 0)
(-0.01284236 0.5481083 0)
(-0.01468149 0.5273965 0)
(-0.01646048 0.5067773 0)
(-0.01822278 0.4861251 0)
(-0.0199826 0.4655654 0)
(-0.0217749 0.4450618 0)
(-0.02357952 0.424455 0)
(-0.02539512 0.4037406 0)
(-0.02721052 0.3829276 0)
(-0.02901452 0.362035 0)
(-0.03080111 0.3410814 0)
(-0.03256817 0.3200811 0)
(-0.03430636 0.2990541 0)
(-0.03590913 0.2779872 0)
(-0.0375958 0.2570744 0)
(-0.03849933 0.2366487 0)
(-0.03991098 0.2160558 0)
(-0.04103074 0.1953391 0)
(-0.04204864 0.1746758 0)
(-0.04297957 0.1541588 0)
(-0.04381164 0.1338103 0)
(-0.0445468 0.1135937 0)
(-0.0451862 0.09349494 0)
(-0.04573525 0.07348636 0)
(-0.04619809 0.05353339 0)
(-0.04657327 0.03360105 0)
(-0.04688877 0.01365165 0)
(-0.04705833 -0.005803033 0)
(-0.04709373 -0.02595672 0)
(-0.0470764 -0.04626649 0)
(-0.04697457 -0.06678155 0)
(-0.04678398 -0.08755358 0)
(-0.04649475 -0.1086364 0)
(-0.04609721 -0.1300858 0)
(-0.04558048 -0.1519588 0)
(-0.04493243 -0.174314 0)
(-0.04413206 -0.1972101 0)
(-0.04320999 -0.2207062 0)
(-0.04200618 -0.24488 0)
(-0.04071264 -0.2696398 0)
(-0.03938474 -0.2950561 0)
(-0.03769381 -0.3213195 0)
(-0.03583234 -0.3482117 0)
(-0.03371034 -0.3756272 0)
(-0.03135458 -0.4035048 0)
(-0.02880604 -0.4318019 0)
(-0.02611556 -0.4605237 0)
(-0.02332378 -0.4897133 0)
(-0.02046764 -0.5194669 0)
(-0.01757857 -0.5499514 0)
(-0.01468446 -0.5814381 0)
(-0.01181118 -0.6143643 0)
(-0.008985138 -0.6494593 0)
(-0.006241139 -0.6879861 0)
(-0.003624658 -0.7314045 0)
(-0.001187192 -0.7597495 0)
(-0.001265935 0.691432 0)
(-0.003661114 0.6335568 0)
(-0.005224881 0.5991358 0)
(-0.006234989 0.5741786 0)
(-0.006528743 0.5522072 0)
(-0.007183003 0.5314528 0)
(-0.007826345 0.511081 0)
(-0.008459627 0.4907608 0)
(-0.009561455 0.4702205 0)
(-0.01032387 0.4494578 0)
(-0.01124317 0.428589 0)
(-0.01215315 0.4076342 0)
(-0.0131008 0.3866195 0)
(-0.014086 0.3655683 0)
(-0.01511337 0.344551 0)
(-0.01615366 0.3235524 0)
(-0.01716546 0.3025005 0)
(-0.01810504 0.2814042 0)
(-0.01890941 0.2602572 0)
(-0.01985918 0.2391561 0)
(-0.02015701 0.2183557 0)
(-0.02082369 0.1976418 0)
(-0.02139026 0.1769756 0)
(-0.02210962 0.1563272 0)
(-0.02270203 0.1357532 0)
(-0.02329705 0.1153047 0)
(-0.02385112 0.09498176 0)
(-0.02438122 0.0747657 0)
(-0.02488886 0.05462629 0)
(-0.02536334 0.0345306 0)
(-0.0258252 0.014439 0)
(-0.02620183 -0.005389799 0)
(-0.0265056 -0.0256568 0)
(-0.02680176 -0.04610003 0)
(-0.02706198 -0.06676987 0)
(-0.02728242 -0.08772335 0)
(-0.02745474 -0.1090156 0)
(-0.0275717 -0.1307037 0)
(-0.0276256 -0.1528463 0)
(-0.02760579 -0.1755041 0)
(-0.02750852 -0.1987345 0)
(-0.02725707 -0.2225823 0)
(-0.02698907 -0.2470434 0)
(-0.02652863 -0.2722553 0)
(-0.02565402 -0.298345 0)
(-0.02479738 -0.3251277 0)
(-0.02374238 -0.3525869 0)
(-0.02231087 -0.3807168 0)
(-0.02072597 -0.4092076 0)
(-0.01899 -0.4379469 0)
(-0.01716902 -0.4669687 0)
(-0.01528742 -0.4963469 0)
(-0.01337482 -0.5261964 0)
(-0.01145372 -0.5566995 0)
(-0.009542085 -0.588133 0)
(-0.007655752 -0.6209325 0)
(-0.005811692 -0.6558239 0)
(-0.004031777 -0.6940622 0)
(-0.002347412 -0.7371134 0)
(-0.000782145 -0.7656193 0)
(-0.0007310031 0.6991722 0)
(-0.002233987 0.6378527 0)
(-0.002654593 0.6008921 0)
(-0.002474423 0.5744033 0)
(-0.002458709 0.5521457 0)
(-0.001930595 0.5313557 0)
(-0.001452553 0.5110093 0)
(-0.001019825 0.4907832 0)
(-0.0003321275 0.4704922 0)
(-9.213186e-05 0.4500924 0)
(0.0001160146 0.4296478 0)
(0.0001427534 0.4091511 0)
(-1.331625e-05 0.3886077 0)
(-0.000275374 0.3680006 0)
(-0.0008658203 0.3472295 0)
(-0.001351257 0.3261646 0)
(-0.001948797 0.304784 0)
(-0.002541459 0.2832182 0)
(-0.003123012 0.2616883 0)
(-0.003623236 0.2403438 0)
(-0.004172788 0.219345 0)
(-0.004464036 0.1987139 0)
(-0.00483429 0.1782178 0)
(-0.005052987 0.157731 0)
(-0.005447185 0.1372232 0)
(-0.005839556 0.1168146 0)
(-0.006279284 0.09657971 0)
(-0.006748059 0.07646216 0)
(-0.00724063 0.05636279 0)
(-0.007749081 0.03625647 0)
(-0.008292713 0.01613112 0)
(-0.008829297 -0.003935623 0)
(-0.009352184 -0.02421967 0)
(-0.009932976 -0.04470397 0)
(-0.01050034 -0.06544053 0)
(-0.01106509 -0.08647777 0)
(-0.01161394 -0.1078686 0)
(-0.01214266 -0.1296703 0)
(-0.01265096 -0.1519467 0)
(-0.01313602 -0.1747715 0)
(-0.01359131 -0.1982245 0)
(-0.01399517 -0.2223808 0)
(-0.01432586 -0.2473344 0)
(-0.01448955 -0.2731102 0)
(-0.01459705 -0.2996506 0)
(-0.01443654 -0.3270868 0)
(-0.01379277 -0.3554378 0)
(-0.01310016 -0.3841678 0)
(-0.01220901 -0.4129508 0)
(-0.01108691 -0.4419078 0)
(-0.009947873 -0.4710813 0)
(-0.008822027 -0.5005431 0)
(-0.007700801 -0.5304223 0)
(-0.006586499 -0.5609167 0)
(-0.005481045 -0.5923181 0)
(-0.004389067 -0.6250684 0)
(-0.003319672 -0.6598911 0)
(-0.002286665 -0.6980267 0)
(-0.001312432 -0.7408878 0)
(-0.0004222944 -0.7692406 0)
(-0.0004523172 0.7049135 0)
(-0.001378449 0.6402666 0)
(-0.001291425 0.6008593 0)
(-0.0008537053 0.5739581 0)
(7.681769e-05 0.5509119 0)
(0.00105831 0.5294851 0)
(0.002136752 0.5088512 0)
(0.003165816 0.4885804 0)
(0.004214907 0.4684705 0)
(0.005202927 0.4483884 0)
(0.006149161 0.4282562 0)
(0.007023342 0.408092 0)
(0.00782072 0.3879222 0)
(0.008401907 0.3677133 0)
(0.009077197 0.3472909 0)
(0.00926563 0.3266662 0)
(0.009358782 0.3058213 0)
(0.009302121 0.2847654 0)
(0.00898498 0.2634868 0)
(0.00873029 0.2420713 0)
(0.008358692 0.2207456 0)
(0.008017506 0.1996753 0)
(0.007745807 0.1788903 0)
(0.007475968 0.1583439 0)
(0.007228972 0.1379811 0)
(0.006951286 0.11773 0)
(0.006642668 0.09756972 0)
(0.006305027 0.07748086 0)
(0.005937252 0.05744136 0)
(0.005527423 0.03744821 0)
(0.005071466 0.017506 0)
(0.004558031 -0.002452037 0)
(0.003945073 -0.02252364 0)
(0.003244629 -0.04289938 0)
(0.002480292 -0.06358021 0)
(0.001683915 -0.08459745 0)
(0.0008606136 -0.1059893 0)
(1.80934e-05 -0.1277973 0)
(-0.0008369202 -0.1500629 0)
(-0.001697498 -0.172869 0)
(-0.002555386 -0.1963306 0)
(-0.003396032 -0.2205463 0)
(-0.004201468 -0.2456231 0)
(-0.00493992 -0.2716954 0)
(-0.005574269 -0.2989015 0)
(-0.005993518 -0.3271796 0)
(-0.006305544 -0.3561602 0)
(-0.006305052 -0.3855637 0)
(-0.005845683 -0.4151514 0)
(-0.00537927 -0.4443868 0)
(-0.00476876 -0.4734445 0)
(-0.004207809 -0.5027812 0)
(-0.003661149 -0.5325943 0)
(-0.003108087 -0.5630635 0)
(-0.002564419 -0.5944471 0)
(-0.002029739 -0.6271619 0)
(-0.001513503 -0.6619137 0)
(-0.001026818 -0.6999319 0)
(-0.0005875799 -0.7426351 0)
(-0.000204658 -0.7711497 0)
(-0.0004480478 0.7094151 0)
(-0.0003465478 0.6410669 0)
(-0.0002754491 0.600009 0)
(0.0009667096 0.5713744 0)
(0.002424081 0.5476278 0)
(0.004031952 0.5259748 0)
(0.005677875 0.5052664 0)
(0.00731262 0.4849623 0)
(0.00891308 0.4648192 0)
(0.01044695 0.4447418 0)
(0.01188912 0.4246932 0)
(0.01320631 0.4046961 0)
(0.01437678 0.3848142 0)
(0.01536932 0.3650845 0)
(0.0161069 0.345382 0)
(0.01679676 0.3253621 0)
(0.01739022 0.3049499 0)
(0.01783831 0.2842041 0)
(0.01839708 0.2632285 0)
(0.01859879 0.2422932 0)
(0.01867465 0.221384 0)
(0.01868695 0.200489 0)
(0.01860655 0.1797285 0)
(0.01845402 0.1591564 0)
(0.01824871 0.1387725 0)
(0.01798231 0.1185613 0)
(0.0176496 0.09849714 0)
(0.01724744 0.07853751 0)
(0.01677469 0.05863835 0)
(0.01623617 0.03877791 0)
(0.01562921 0.01896308 0)
(0.01496636 -0.0007801209 0)
(0.01417918 -0.02042134 0)
(0.01325275 -0.04052435 0)
(0.0122365 -0.06101628 0)
(0.01115264 -0.08188514 0)
(0.01001514 -0.1031557 0)
(0.008835526 -0.1248746 0)
(0.007628697 -0.1471051 0)
(0.006409703 -0.1699279 0)
(0.005195993 -0.1934415 0)
(0.004004625 -0.2177552 0)
(0.002858734 -0.2429834 0)
(0.001783262 -0.2692399 0)
(0.000797116 -0.2966272 0)
(-8.1106e-05 -0.3251953 0)
(-0.0008176781 -0.3548568 0)
(-0.001316041 -0.38519 0)
(-0.00166813 -0.4154538 0)
(-0.001676991 -0.4451404 0)
(-0.00159083 -0.4744115 0)
(-0.001330515 -0.5038047 0)
(-0.001150782 -0.5336505 0)
(-0.0009427546 -0.5641229 0)
(-0.0007445736 -0.595483 0)
(-0.0005581227 -0.6281577 0)
(-0.0003876249 -0.6628553 0)
(-0.0002370465 -0.700804 0)
(-0.0001170118 -0.74343 0)
(-2.621432e-05 -0.7720518 0)
(-0.0001591782 0.7127319 0)
(-0.0002179148 0.6409376 0)
(0.0007170761 0.5971796 0)
(0.002364382 0.5672618 0)
(0.004310443 0.5428385 0)
(0.00640913 0.5208471 0)
(0.008557911 0.5000329 0)
(0.01069569 0.4798052 0)
(0.01277118 0.459883 0)
(0.01474402 0.4401416 0)
(0.01657985 0.4205368 0)
(0.01825029 0.4010742 0)
(0.01972855 0.3817857 0)
(0.02101602 0.3625784 0)
(0.02213935 0.3431171 0)
(0.02313789 0.3231787 0)
(0.02400109 0.3028386 0)
(0.02476423 0.2822854 0)
(0.0253106 0.2617596 0)
(0.02578608 0.24121 0)
(0.02625778 0.2206179 0)
(0.02641535 0.2001133 0)
(0.02652296 0.1797091 0)
(0.02647745 0.1594673 0)
(0.02630593 0.1394005 0)
(0.02600943 0.1194901 0)
(0.02559497 0.09970317 0)
(0.02507016 0.08000046 0)
(0.02444234 0.06034543 0)
(0.02371978 0.04071705 0)
(0.0229121 0.02112389 0)
(0.02201993 0.001628127 0)
(0.02102332 -0.0176248 0)
(0.01988322 -0.03740238 0)
(0.01863703 -0.05763949 0)
(0.01731195 -0.07831887 0)
(0.01593126 -0.09944872 0)
(0.01451308 -0.121065 0)
(0.01307393 -0.1432298 0)
(0.01163094 -0.1660312 0)
(0.01020241 -0.1895779 0)
(0.008808287 -0.2139917 0)
(0.007471172 -0.2394024 0)
(0.006216074 -0.2659363 0)
(0.005068519 -0.2936833 0)
(0.004048857 -0.3226377 0)
(0.003168579 -0.3526411 0)
(0.002436195 -0.3833471 0)
(0.001875772 -0.4142314 0)
(0.001513267 -0.4446683 0)
(0.00131193 -0.4743637 0)
(0.00110054 -0.5038452 0)
(0.0009523477 -0.5337223 0)
(0.0007900129 -0.5642041 0)
(0.0006469353 -0.5955669 0)
(0.0005139752 -0.6282407 0)
(0.000388855 -0.6629342 0)
(0.0002673339 -0.7008755 0)
(0.0001494412 -0.7434932 0)
(3.946052e-05 -0.7721344 0)
(-8.435847e-05 0.7152416 0)
(0.0002115399 0.6395622 0)
(0.001390032 0.593273 0)
(0.003314753 0.5620015 0)
(0.005588653 0.5368484 0)
(0.008016758 0.5144974 0)
(0.01050215 0.4935624 0)
(0.01297483 0.4733923 0)
(0.01538134 0.453667 0)
(0.01768104 0.4342326 0)
(0.01984209 0.4150228 0)
(0.02184368 0.3960194 0)
(0.0236684 0.377227 0)
(0.02531663 0.3585121 0)
(0.02678994 0.3395717 0)
(0.02808007 0.3202185 0)
(0.02917005 0.3004797 0)
(0.03006749 0.2804557 0)
(0.0307843 0.2602378 0)
(0.03137495 0.2399514 0)
(0.03172715 0.2197605 0)
(0.03203723 0.1996567 0)
(0.03211178 0.1796808 0)
(0.03204583 0.1598586 0)
(0.03181564 0.1401915 0)
(0.03143347 0.1206612 0)
(0.03090785 0.1012342 0)
(0.03024858 0.08186812 0)
(0.02946598 0.06252075 0)
(0.02857075 0.04316521 0)
(0.02757306 0.02381574 0)
(0.02647646 0.004574563 0)
(0.02533924 -0.01432007 0)
(0.02407352 -0.03375364 0)
(0.02265806 -0.05372535 0)
(0.02117112 -0.07422052 0)
(0.01963964 -0.09523295 0)
(0.01808252 -0.1167905 0)
(0.01651802 -0.1389534 0)
(0.0149647 -0.1618085 0)
(0.01344121 -0.1854628 0)
(0.01196629 -0.2100377 0)
(0.01055878 -0.2356626 0)
(0.009236959 -0.2624614 0)
(0.008017843 -0.2905263 0)
(0.006917892 -0.3198657 0)
(0.005954955 -0.350329 0)
(0.005145548 -0.3815296 0)
(0.004498597 -0.4128458 0)
(0.004006107 -0.4435926 0)
(0.003635939 -0.4734188 0)
(0.003315382 -0.5029123 0)
(0.002991997 -0.5328174 0)
(0.002645575 -0.5633473 0)
(0.002290282 -0.594759 0)
(0.001921536 -0.6274678 0)
(0.001535826 -0.6621749 0)
(0.001129316 -0.7001012 0)
(0.0006920705 -0.7426912 0)
(0.0002299245 -0.7715133 0)
(-3.536709e-05 0.7173731 0)
(0.0004520992 0.6375776 0)
(0.00178996 0.5887327 0)
(0.003909888 0.5560637 0)
(0.006403378 0.530151 0)
(0.009055136 0.5074295 0)
(0.01176839 0.4863878 0)
(0.01446583 0.466304 0)
(0.01709326 0.4468099 0)
(0.01960951 0.4277153 0)
(0.02198495 0.4089232 0)
(0.02420186 0.3903863 0)
(0.0262521 0.3720808 0)
(0.02812816 0.3538575 0)
(0.02982692 0.3354232 0)
(0.03132876 0.3165948 0)
(0.03262226 0.2973921 0)
(0.03370361 0.2779185 0)
(0.03456965 0.2582861 0)
(0.03522277 0.2385821 0)
(0.03566612 0.218871 0)
(0.03591591 0.1992388 0)
(0.03596715 0.1797572 0)
(0.03583115 0.1604298 0)
(0.03551396 0.1412384 0)
(0.0350279 0.1221551 0)
(0.03438465 0.1031422 0)
(0.03359694 0.08415676 0)
(0.03267767 0.06515985 0)
(0.03163942 0.04612998 0)