/*--------------------------------*- C++ -*----------------------------------*\
| =========                 |                                                 |
| \\      /  F ield         | OpenFOAM: The Open Source CFD Toolbox           |
|  \\    /   O peration     | Version:  2312                                  |
|   \\  /    A nd           | Website:  www.openfoam.com                      |
|    \\/     M anipulation  |                                                 |
\*---------------------------------------------------------------------------*/
FoamFile
{
    version     2.0;
    format      ascii;
    arch        "LSB;label=32;scalar=64";
    class       volScalarField;
    location    "1500";
    object      ILambda_5_0;
}
// * * * * * * * * * * * * * * * * * * * * * * * * * * * * * * * * * * * * * //

dimensions      [1 0 -3 0 0 0 0];

internalField   nonuniform List<scalar> 
12000
(
1225.907
1224.369
1222.752
1221.034
1219.183
1217.169
1214.966
1212.555
1209.926
1207.08
1204.031
1200.8
1197.421
1193.932
1190.379
1186.81
1183.275
1179.821
1176.492
1173.327
1170.36
1167.615
1165.112
1162.862
1160.867
1159.124
1157.625
1156.355
1155.296
1154.427
1153.723
1153.158
1152.707
1152.344
1152.042
1151.777
1151.523
1151.26
1150.967
1150.623
1150.213
1149.723
1149.14
1148.454
1147.657
1146.745
1145.716
1144.571
1143.311
1141.942
1140.471
1138.909
1137.267
1135.558
1133.798
1131.997
1130.19
1128.308
1126.736
1123.854
1217.027
1214.825
1212.378
1209.662
1206.667
1203.404
1199.898
1196.191
1192.34
1188.408
1184.464
1180.578
1176.819
1173.246
1169.912
1166.86
1164.118
1161.707
1159.631
1157.888
1156.464
1155.337
1154.48
1153.861
1153.444
1153.192
1153.069
1153.038
1153.065
1153.118
1153.166
1153.182
1153.143
1153.027
1152.816
1152.494
1152.05
1151.474
1150.758
1149.899
1148.895
1147.749
1146.463
1145.045
1143.505
1141.853
1140.106
1138.278
1136.388
1134.455
1132.499
1130.541
1128.6
1126.697
1124.852
1123.077
1121.4
1119.778
1118.458
1116.317
1208.834
1205.631
1202.137
1198.406
1194.51
1190.526
1186.537
1182.621
1178.853
1175.297
1172.007
1169.022
1166.369
1164.059
1162.093
1160.459
1159.136
1158.097
1157.308
1156.734
1156.337
1156.079
1155.923
1155.836
1155.786
1155.744
1155.684
1155.583
1155.421
1155.182
1154.85
1154.414
1153.863
1153.189
1152.388
1151.456
1150.392
1149.198
1147.877
1146.436
1144.884
1143.232
1141.494
1139.685
1137.821
1135.922
1134.007
1132.096
1130.209
1128.364
1126.581
1124.875
1123.264
1121.758
1120.368
1119.1
1117.962
1116.928
1116.114
1114.893
1195.817
1191.624
1187.439
1183.352
1179.447
1175.79
1172.437
1169.427
1166.781
1164.508
1162.601
1161.042
1159.804
1158.853
1158.151
1157.658
1157.334
1157.139
1157.036
1156.99
1156.972
1156.953
1156.91
1156.821
1156.667
1156.434
1156.106
1155.674
1155.126
1154.457
1153.659
1152.729
1151.666
1150.471
1149.148
1147.702
1146.142
1144.48
1142.729
1140.904
1139.024
1137.107
1135.174
1133.245
1131.341
1129.482
1127.689
1125.977
1124.364
1122.862
1121.483
1120.235
1119.122
1118.148
1117.31
1116.605
1116.025
1115.553
1115.208
1114.749
1179.974
1176.295
1172.936
1169.951
1167.363
1165.175
1163.375
1161.938
1160.827
1160.003
1159.421
1159.036
1158.805
1158.687
1158.643
1158.64
1158.649
1158.643
1158.602
1158.506
1158.339
1158.086
1157.737
1157.28
1156.707
1156.01
1155.185
1154.227
1153.135
1151.911
1150.557
1149.08
1147.488
1145.793
1144.009
1142.153
1140.242
1138.296
1136.336
1134.385
1132.462
1130.59
1128.787
1127.073
1125.463
1123.971
1122.608
1121.382
1120.299
1119.36
1118.564
1117.907
1117.383
1116.982
1116.693
1116.502
1116.395
1116.352
1116.353
1116.351
1167.832
1165.797
1164.128
1162.824
1161.849
1161.157
1160.697
1160.419
1160.276
1160.225
1160.228
1160.254
1160.275
1160.268
1160.216
1160.1
1159.909
1159.631
1159.254
1158.77
1158.171
1157.449
1156.6
1155.619
1154.504
1153.257
1151.879
1150.378
1148.761
1147.04
1145.23
1143.347
1141.411
1139.441
1137.459
1135.488
1133.55
1131.666
1129.857
1128.141
1126.534
1125.051
1123.702
1122.496
1121.437
1120.526
1119.763
1119.142
1118.657
1118.298
1118.054
1117.912
1117.857
1117.875
1117.949
1118.063
1118.201
1118.343
1118.477
1118.553
1162.825
1162.325
1162.014
1161.858
1161.811
1161.828
1161.875
1161.922
1161.946
1161.928
1161.854
1161.712
1161.492
1161.183
1160.778
1160.267
1159.643
1158.899
1158.029
1157.028
1155.893
1154.625
1153.226
1151.702
1150.061
1148.314
1146.477
1144.567
1142.603
1140.606
1138.6
1136.608
1134.651
1132.753
1130.935
1129.215
1127.61
1126.134
1124.798
1123.609
1122.572
1121.688
1120.955
1120.367
1119.917
1119.595
1119.388
1119.284
1119.267
1119.322
1119.434
1119.587
1119.767
1119.958
1120.148
1120.322
1120.473
1120.577
1120.662
1120.551
1163.322
1163.477
1163.587
1163.651
1163.663
1163.616
1163.505
1163.322
1163.062
1162.717
1162.28
1161.742
1161.096
1160.333
1159.445
1158.428
1157.277
1155.992
1154.573
1153.027
1151.362
1149.589
1147.724
1145.785
1143.792
1141.768
1139.736
1137.721
1135.745
1133.833
1132.005
1130.281
1128.678
1127.211
1125.888
1124.719
1123.706
1122.85
1122.148
1121.593
1121.179
1120.892
1120.722
1120.652
1120.669
1120.757
1120.898
1121.079
1121.284
1121.499
1121.711
1121.909
1122.084
1122.226
1122.33
1122.387
1122.399
1122.341
1122.282
1121.899
1165.489
1165.362
1165.171
1164.919
1164.603
1164.216
1163.748
1163.188
1162.526
1161.75
1160.853
1159.825
1158.663
1157.364
1155.928
1154.361
1152.672
1150.873
1148.979
1147.01
1144.986
1142.933
1140.873
1138.834
1136.838
1134.91
1133.073
1131.346
1129.747
1128.288
1126.981
1125.832
1124.844
1124.017
1123.347
1122.828
1122.45
1122.2
1122.065
1122.031
1122.081
1122.198
1122.367
1122.572
1122.797
1123.029
1123.256
1123.465
1123.648
1123.798
1123.909
1123.976
1123.997
1123.971
1123.898
1123.777
1123.615
1123.389
1123.191
1122.601
1165.893
1165.549
1165.107
1164.566
1163.916
1163.15
1162.256
1161.228
1160.06
1158.75
1157.298
1155.71
1153.995
1152.167
1150.242
1148.24
1146.184
1144.098
1142.01
1139.944
1137.928
1135.985
1134.138
1132.408
1130.812
1129.363
1128.073
1126.946
1125.985
1125.189
1124.554
1124.071
1123.73
1123.519
1123.421
1123.422
1123.505
1123.653
1123.848
1124.076
1124.32
1124.567
1124.804
1125.02
1125.207
1125.357
1125.466
1125.53
1125.548
1125.518
1125.443
1125.324
1125.165
1124.97
1124.742
1124.483
1124.203
1123.879
1123.607
1122.942
1165.371
1164.621
1163.726
1162.687
1161.502
1160.171
1158.695
1157.079
1155.333
1153.471
1151.511
1149.473
1147.381
1145.262
1143.143
1141.051
1139.012
1137.054
1135.198
1133.466
1131.875
1130.438
1129.165
1128.062
1127.13
1126.368
1125.768
1125.324
1125.022
1124.849
1124.79
1124.827
1124.944
1125.122
1125.344
1125.593
1125.855
1126.115
1126.362
1126.583
1126.771
1126.92
1127.024
1127.081
1127.089
1127.049
1126.964
1126.835
1126.667
1126.465
1126.233
1125.977
1125.701
1125.411
1125.11
1124.799
1124.487
1124.148
1123.873
1123.233
1162.86
1161.539
1160.056
1158.423
1156.653
1154.762
1152.77
1150.698
1148.572
1146.42
1144.271
1142.152
1140.092
1138.118
1136.254
1134.521
1132.935
1131.511
1130.258
1129.181
1128.28
1127.552
1126.991
1126.586
1126.325
1126.193
1126.173
1126.247
1126.397
1126.605
1126.853
1127.125
1127.404
1127.676
1127.931
1128.156
1128.344
1128.489
1128.587
1128.634
1128.632
1128.58
1128.481
1128.338
1128.157
1127.943
1127.7
1127.434
1127.152
1126.858
1126.557
1126.253
1125.951
1125.65
1125.354
1125.061
1124.773
1124.463
1124.216
1123.612
1157.937
1156.047
1154.034
1151.932
1149.772
1147.585
1145.402
1143.255
1141.172
1139.182
1137.309
1135.574
1133.995
1132.585
1131.352
1130.302
1129.434
1128.743
1128.222
1127.859
1127.64
1127.55
1127.57
1127.681
1127.866
1128.104
1128.378
1128.67
1128.966
1129.25
1129.511
1129.739
1129.926
1130.066
1130.156
1130.193
1130.178
1130.112
1129.999
1129.842
1129.646
1129.417
1129.161
1128.883
1128.59
1128.288
1127.98
1127.673
1127.369
1127.071
1126.781
1126.499
1126.226
1125.959
1125.696
1125.431
1125.165
1124.865
1124.624
1123.975
1150.923
1148.723
1146.516
1144.343
1142.24
1140.235
1138.354
1136.619
1135.049
1133.655
1132.446
1131.425
1130.592
1129.94
1129.461
1129.142
1128.968
1128.92
1128.981
1129.131
1129.35
1129.619
1129.918
1130.231
1130.541
1130.836
1131.103
1131.332
1131.516
1131.65
1131.731
1131.756
1131.728
1131.648
1131.519
1131.347
1131.136
1130.892
1130.622
1130.332
1130.027
1129.715
1129.399
1129.085
1128.777
1128.476
1128.185
1127.905
1127.635
1127.375
1127.121
1126.872
1126.622
1126.367
1126.102
1125.819
1125.518
1125.156
1124.86
1124.038
1143.19
1141.23
1139.369
1137.649
1136.095
1134.721
1133.539
1132.551
1131.755
1131.145
1130.71
1130.436
1130.308
1130.305
1130.409
1130.598
1130.851
1131.15
1131.474
1131.806
1132.131
1132.435
1132.706
1132.935
1133.115
1133.241
1133.311
1133.324
1133.282
1133.186
1133.042
1132.853
1132.626
1132.368
1132.084
1131.78
1131.465
1131.142
1130.819
1130.498
1130.184
1129.88
1129.587
1129.305
1129.036
1128.777
1128.527
1128.281
1128.037
1127.79
1127.535
1127.266
1126.978
1126.665
1126.321
1125.938
1125.519
1125.012
1124.589
1123.487
1137.077
1135.769
1134.627
1133.676
1132.92
1132.353
1131.965
1131.74
1131.66
1131.704
1131.851
1132.08
1132.369
1132.698
1133.046
1133.397
1133.735
1134.046
1134.32
1134.547
1134.721
1134.838
1134.897
1134.896
1134.838
1134.727
1134.565
1134.36
1134.118
1133.844
1133.546
1133.23
1132.903
1132.571
1132.239
1131.912
1131.593
1131.285
1130.99
1130.708
1130.438
1130.18
1129.931
1129.687
1129.445
1129.201
1128.948
1128.683
1128.399
1128.091
1127.753
1127.381
1126.969
1126.514
1126.011
1125.454
1124.853
1124.148
1123.555
1122.14
1133.958
1133.504
1133.193
1133.033
1133.011
1133.109
1133.306
1133.578
1133.904
1134.263
1134.635
1135.004
1135.354
1135.671
1135.946
1136.169
1136.336
1136.442
1136.487
1136.472
1136.397
1136.269
1136.09
1135.868
1135.609
1135.32
1135.008
1134.68
1134.342
1134.001
1133.661
1133.328
1133.005
1132.694
1132.396
1132.113
1131.844
1131.586
1131.338
1131.096
1130.855
1130.612
1130.361
1130.096
1129.812
1129.504
1129.166
1128.794
1128.382
1127.927
1127.426
1126.876
1126.276
1125.624
1124.921
1124.165
1123.368
1122.473
1121.721
1120.065
1134.29
1134.496
1134.762
1135.087
1135.454
1135.845
1136.242
1136.628
1136.988
1137.31
1137.583
1137.801
1137.958
1138.052
1138.083
1138.05
1137.959
1137.812
1137.616
1137.377
1137.101
1136.797
1136.471
1136.13
1135.782
1135.431
1135.084
1134.745
1134.418
1134.104
1133.805
1133.522
1133.253
1132.996
1132.75
1132.509
1132.27
1132.028
1131.778
1131.513
1131.229
1130.919
1130.579
1130.203
1129.787
1129.328
1128.822
1128.267
1127.661
1127.006
1126.301
1125.548
1124.749
1123.908
1123.028
1122.111
1121.173
1120.16
1119.315
1117.578
1136.913
1137.393
1137.838
1138.251
1138.626
1138.954
1139.227
1139.438
1139.585
1139.666
1139.68
1139.631
1139.521
1139.356
1139.141
1138.884
1138.592
1138.273
1137.933
1137.58
1137.221
1136.862
1136.509
1136.165
1135.833
1135.517
1135.218
1134.934
1134.666
1134.411
1134.166
1133.927
1133.69
1133.449
1133.199
1132.935
1132.65
1132.339
1131.996
1131.616
1131.196
1130.73
1130.216
1129.653
1129.039
1128.375
1127.661
1126.899
1126.093
1125.246
1124.362
1123.448
1122.509
1121.551
1120.58
1119.6
1118.627
1117.613
1116.777
1115.15
1140.199
1140.573
1140.86
1141.071
1141.21
1141.278
1141.277
1141.21
1141.082
1140.898
1140.665
1140.391
1140.082
1139.748
1139.395
1139.03
1138.662
1138.295
1137.935
1137.586
1137.251
1136.934
1136.633
1136.35
1136.083
1135.829
1135.586
1135.35
1135.114
1134.875
1134.627
1134.362
1134.077
1133.764
1133.418
1133.034
1132.608
1132.136
1131.615
1131.043
1130.419
1129.744
1129.019
1128.245
1127.428
1126.57
1125.676
1124.753
1123.807
1122.845
1121.873
1120.899
1119.93
1118.972
1118.032
1117.111
1116.224
1115.332
1114.605
1113.25
1142.733
1142.835
1142.84
1142.767
1142.627
1142.429
1142.181
1141.891
1141.568
1141.22
1140.855
1140.48
1140.102
1139.728
1139.362
1139.01
1138.673
1138.354
1138.053
1137.771
1137.505
1137.253
1137.012
1136.778
1136.544
1136.307
1136.059
1135.795
1135.509
1135.194
1134.845
1134.457
1134.025
1133.546
1133.017
1132.436
1131.802
1131.116
1130.379
1129.593
1128.763
1127.892
1126.987
1126.052
1125.096
1124.124
1123.145
1122.166
1121.195
1120.238
1119.302
1118.394
1117.519
1116.682
1115.886
1115.132
1114.426
1113.738
1113.189
1112.182
1144.082
1143.912
1143.668
1143.374
1143.042
1142.684
1142.31
1141.926
1141.542
1141.162
1140.792
1140.436
1140.097
1139.778
1139.477
1139.196
1138.932
1138.682
1138.444
1138.211
1137.98
1137.744
1137.497
1137.233
1136.946
1136.629
1136.277
1135.884
1135.447
1134.961
1134.423
1133.833
1133.188
1132.491
1131.742
1130.944
1130.1
1129.217
1128.299
1127.352
1126.384
1125.402
1124.414
1123.427
1122.45
1121.489
1120.552
1119.646
1118.775
1117.946
1117.162
1116.427
1115.742
1115.108
1114.526
1113.991
1113.505
1113.043
1112.682
1111.996
1144.412
1144.094
1143.734
1143.354
1142.97
1142.589
1142.218
1141.862
1141.523
1141.204
1140.905
1140.625
1140.363
1140.116
1139.88
1139.65
1139.42
1139.186
1138.94
1138.676
1138.388
1138.069
1137.713
1137.316
1136.873
1136.379
1135.833
1135.233
1134.578
1133.869
1133.107
1132.297
1131.44
1130.544
1129.613
1128.654
1127.674
1126.682
1125.684
1124.689
1123.705
1122.74
1121.8
1120.892
1120.023
1119.197
1118.419
1117.692
1117.019
1116.399
1115.834
1115.323
1114.864
1114.453
1114.087
1113.759
1113.468
1113.187
1112.974
1112.503
1144.274
1143.954
1143.609
1143.266
1142.936
1142.623
1142.328
1142.053
1141.795
1141.551
1141.318
1141.091
1140.864
1140.631
1140.386
1140.123
1139.834
1139.513
1139.154
1138.752
1138.303
1137.802
1137.247
1136.637
1135.971
1135.25
1134.476
1133.652
1132.783
1131.873
1130.929
1129.958
1128.966
1127.963
1126.956
1125.953
1124.963
1123.992
1123.049
1122.141
1121.272
1120.449
1119.675
1118.955
1118.289
1117.679
1117.126
1116.628
1116.184
1115.79
1115.444
1115.142
1114.877
1114.645
1114.44
1114.254
1114.084
1113.903
1113.766
1113.371
1144.239
1143.985
1143.719
1143.459
1143.212
1142.977
1142.75
1142.528
1142.306
1142.076
1141.834
1141.571
1141.282
1140.96
1140.598
1140.192
1139.737
1139.229
1138.665
1138.045
1137.368
1136.635
1135.849
1135.012
1134.129
1133.205
1132.248
1131.264
1130.261
1129.247
1128.23
1127.219
1126.222
1125.247
1124.301
1123.392
1122.524
1121.704
1120.934
1120.22
1119.561
1118.961
1118.418
1117.931
1117.499
1117.118
1116.786
1116.498
1116.249
1116.034
1115.847
1115.684
1115.537
1115.401
1115.27
1115.137
1115
1114.831
1114.697
1114.259
1144.505
1144.338
1144.146
1143.943
1143.734
1143.513
1143.277
1143.018
1142.731
1142.408
1142.045
1141.635
1141.175
1140.66
1140.088
1139.458
1138.77
1138.025
1137.225
1136.374
1135.478
1134.541
1133.57
1132.573
1131.558
1130.533
1129.507
1128.488
1127.485
1126.505
1125.556
1124.646
1123.779
1122.962
1122.198
1121.489
1120.839
1120.247
1119.714
1119.238
1118.818
1118.449
1118.129
1117.853
1117.616
1117.413
1117.239
1117.087
1116.952
1116.83
1116.713
1116.598
1116.479
1116.351
1116.212
1116.054
1115.879
1115.66
1115.478
1114.934
1145.05
1144.893
1144.688
1144.446
1144.169
1143.851
1143.489
1143.078
1142.614
1142.093
1141.513
1140.874
1140.175
1139.417
1138.604
1137.74
1136.829
1135.878
1134.894
1133.884
1132.857
1131.821
1130.785
1129.758
1128.749
1127.765
1126.814
1125.903
1125.038
1124.224
1123.465
1122.763
1122.121
1121.539
1121.016
1120.552
1120.143
1119.786
1119.478
1119.214
1118.989
1118.797
1118.632
1118.49
1118.364
1118.249
1118.14
1118.032
1117.92
1117.8
1117.67
1117.525
1117.363
1117.183
1116.982
1116.756
1116.511
1116.218
1115.973
1115.323
1145.479
1145.225
1144.893
1144.495
1144.036
1143.515
1142.931
1142.285
1141.576
1140.808
1139.983
1139.106
1138.182
1137.217
1136.219
1135.196
1134.157
1133.11
1132.065
1131.03
1130.015
1129.027
1128.074
1127.163
1126.3
1125.489
1124.736
1124.041
1123.408
1122.836
1122.324
1121.871
1121.475
1121.131
1120.835
1120.583
1120.369
1120.188
1120.033
1119.9
1119.781
1119.673
1119.569
1119.465
1119.356
1119.239
1119.111
1118.968
1118.808
1118.631
1118.435
1118.219
1117.984
1117.729
1117.454
1117.159
1116.849
1116.496
1116.203
1115.49
1145.34
1144.872
1144.31
1143.67
1142.961
1142.187
1141.354
1140.466
1139.53
1138.553
1137.543
1136.508
1135.458
1134.4
1133.346
1132.304
1131.283
1130.291
1129.336
1128.426
1127.565
1126.759
1126.011
1125.324
1124.7
1124.138
1123.638
1123.197
1122.813
1122.482
1122.199
1121.959
1121.757
1121.586
1121.442
1121.317
1121.206
1121.104
1121.004
1120.904
1120.797
1120.681
1120.553
1120.409
1120.248
1120.069
1119.871
1119.653
1119.417
1119.163
1118.892
1118.605
1118.304
1117.99
1117.665
1117.327
1116.983
1116.605
1116.296
1115.579
1144.216
1143.492
1142.678
1141.795
1140.858
1139.875
1138.857
1137.813
1136.754
1135.688
1134.626
1133.578
1132.552
1131.557
1130.601
1129.691
1128.833
1128.032
1127.291
1126.612
1125.998
1125.447
1124.958
1124.53
1124.159
1123.841
1123.571
1123.343
1123.152
1122.993
1122.858
1122.742
1122.638
1122.542
1122.447
1122.35
1122.245
1122.129
1122
1121.854
1121.69
1121.508
1121.305
1121.084
1120.843
1120.585
1120.311
1120.022
1119.72
1119.407
1119.085
1118.757
1118.423
1118.086
1117.747
1117.405
1117.064
1116.699
1116.403
1115.728
1142.051
1141.121
1140.125
1139.088
1138.029
1136.961
1135.896
1134.844
1133.816
1132.82
1131.865
1130.957
1130.103
1129.308
1128.574
1127.905
1127.3
1126.761
1126.285
1125.87
1125.512
1125.207
1124.95
1124.735
1124.556
1124.407
1124.282
1124.175
1124.078
1123.988
1123.897
1123.802
1123.699
1123.583
1123.453
1123.305
1123.138
1122.951
1122.744
1122.517
1122.271
1122.008
1121.728
1121.433
1121.127
1120.81
1120.486
1120.156
1119.824
1119.49
1119.157
1118.826
1118.499
1118.175
1117.856
1117.539
1117.228
1116.898
1116.632
1116.014
1139.165
1138.157
1137.118
1136.079
1135.058
1134.068
1133.119
1132.217
1131.37
1130.583
1129.859
1129.2
1128.607
1128.08
1127.617
1127.215
1126.871
1126.58
1126.336
1126.134
1125.968
1125.83
1125.715
1125.616
1125.526
1125.441
1125.355
1125.262
1125.16
1125.044
1124.912
1124.761
1124.59
1124.399
1124.187
1123.955
1123.703
1123.434
1123.148
1122.848
1122.535
1122.214
1121.885
1121.552
1121.216
1120.881
1120.547
1120.218
1119.893
1119.575
1119.265
1118.962
1118.666
1118.377
1118.095
1117.815
1117.541
1117.245
1117.009
1116.434
1136.155
1135.234
1134.321
1133.443
1132.615
1131.844
1131.135
1130.491
1129.913
1129.401
1128.953
1128.566
1128.237
1127.96
1127.73
1127.542
1127.387
1127.261
1127.155
1127.064
1126.982
1126.902
1126.819
1126.729
1126.627
1126.511
1126.377
1126.223
1126.048
1125.852
1125.635
1125.397
1125.139
1124.863
1124.571
1124.265
1123.947
1123.62
1123.287
1122.949
1122.61
1122.272
1121.936
1121.605
1121.28
1120.963
1120.654
1120.355
1120.064
1119.783
1119.51
1119.246
1118.987
1118.734
1118.484
1118.233
1117.982
1117.706
1117.484
1116.917
1133.701
1133.018
1132.36
1131.751
1131.2
1130.711
1130.283
1129.915
1129.604
1129.344
1129.129
1128.955
1128.813
1128.698
1128.603
1128.521
1128.445
1128.37
1128.291
1128.203
1128.102
1127.984
1127.847
1127.69
1127.511
1127.31
1127.087
1126.843
1126.579
1126.297
1125.998
1125.686
1125.363
1125.03
1124.692
1124.35
1124.007
1123.666
1123.328
1122.995
1122.67
1122.352
1122.043
1121.745
1121.456
1121.177
1120.908
1120.647
1120.395
1120.15
1119.909
1119.673
1119.439
1119.204
1118.966
1118.722
1118.473
1118.191
1117.962
1117.366
1132.339
1131.941
1131.567
1131.235
1130.952
1130.716
1130.523
1130.366
1130.241
1130.139
1130.055
1129.982
1129.914
1129.845
1129.769
1129.683
1129.582
1129.463
1129.324
1129.163
1128.98
1128.773
1128.544
1128.294
1128.023
1127.734
1127.429
1127.111
1126.782
1126.444
1126.101
1125.755
1125.409
1125.064
1124.724
1124.389
1124.063
1123.744
1123.436
1123.137
1122.85
1122.572
1122.304
1122.046
1121.796
1121.554
1121.317
1121.085
1120.856
1120.628
1120.4
1120.17
1119.935
1119.694
1119.445
1119.183
1118.912
1118.602
1118.348
1117.694
1132.138
1131.998
1131.862
1131.744
1131.648
1131.569
1131.502
1131.443
1131.385
1131.323
1131.252
1131.168
1131.068
1130.947
1130.806
1130.641
1130.453
1130.24
1130.005
1129.748
1129.471
1129.175
1128.864
1128.539
1128.204
1127.861
1127.513
1127.163
1126.813
1126.466
1126.124
1125.788
1125.46
1125.141
1124.833
1124.535
1124.248
1123.971
1123.705
1123.448
1123.2
1122.959
1122.724
1122.494
1122.267
1122.041
1121.816
1121.589
1121.358
1121.123
1120.881
1120.632
1120.373
1120.104
1119.822
1119.525
1119.217
1118.865
1118.576
1117.854
1132.902
1132.914
1132.9
1132.873
1132.837
1132.79
1132.73
1132.652
1132.554
1132.434
1132.291
1132.122
1131.929
1131.712
1131.47
1131.207
1130.922
1130.62
1130.302
1129.971
1129.63
1129.282
1128.929
1128.575
1128.222
1127.872
1127.527
1127.19
1126.862
1126.543
1126.235
1125.937
1125.651
1125.376
1125.111
1124.856
1124.609
1124.37
1124.136
1123.907
1123.681
1123.456
1123.231
1123.005
1122.775
1122.54
1122.3
1122.052
1121.796
1121.531
1121.255
1120.969
1120.671
1120.361
1120.037
1119.698
1119.347
1118.953
1118.628
1117.847
1134.13
1134.167
1134.152
1134.101
1134.019
1133.908
1133.768
1133.6
1133.405
1133.183
1132.937
1132.667
1132.376
1132.068
1131.743
1131.406
1131.059
1130.706
1130.349
1129.991
1129.634
1129.282
1128.935
1128.597
1128.267
1127.949
1127.641
1127.344
1127.059
1126.786
1126.522
1126.268
1126.023
1125.785
1125.553
1125.325
1125.1
1124.876
1124.651
1124.425
1124.194
1123.959
1123.717
1123.469
1123.211
1122.945
1122.67
1122.384
1122.087
1121.78
1121.462
1121.133
1120.792
1120.44
1120.076
1119.698
1119.311
1118.883
1118.531
1117.709
1135.325
1135.29
1135.189
1135.043
1134.858
1134.64
1134.394
1134.122
1133.828
1133.514
1133.185
1132.842
1132.491
1132.132
1131.771
1131.409
1131.05
1130.695
1130.347
1130.007
1129.678
1129.359
1129.052
1128.756
1128.473
1128.2
1127.939
1127.687
1127.443
1127.207
1126.976
1126.749
1126.525
1126.301
1126.077
1125.85
1125.619
1125.382
1125.139
1124.889
1124.63
1124.361
1124.083
1123.795
1123.496
1123.187
1122.868
1122.538
1122.198
1121.849
1121.49
1121.123
1120.746
1120.361
1119.967
1119.563
1119.153
1118.704
1118.337
1117.495
1136.147
1136.001
1135.792
1135.539
1135.254
1134.945
1134.616
1134.273
1133.919
1133.558
1133.194
1132.83
1132.468
1132.111
1131.762
1131.422
1131.092
1130.774
1130.467
1130.173
1129.891
1129.62
1129.36
1129.11
1128.868
1128.633
1128.404
1128.178
1127.955
1127.732
1127.507
1127.28
1127.048
1126.811
1126.566
1126.314
1126.052
1125.781
1125.5
1125.209
1124.907
1124.595
1124.272
1123.939
1123.597
1123.246
1122.886
1122.518
1122.143
1121.761
1121.373
1120.979
1120.58
1120.175
1119.766
1119.348
1118.929
1118.474
1118.102
1117.261
1136.514
1136.277
1135.987
1135.664
1135.322
1134.968
1134.607
1134.245
1133.884
1133.528
1133.179
1132.839
1132.51
1132.192
1131.887
1131.594
1131.314
1131.045
1130.787
1130.539
1130.299
1130.066
1129.838
1129.613
1129.391
1129.168
1128.944
1128.716
1128.483
1128.245
1127.999
1127.744
1127.48
1127.206
1126.922
1126.627
1126.322
1126.006
1125.679
1125.343
1124.997
1124.642
1124.279
1123.909
1123.531
1123.148
1122.759
1122.366
1121.969
1121.568
1121.165
1120.759
1120.351
1119.941
1119.528
1119.11
1118.692
1118.241
1117.874
1117.044
1136.553
1136.276
1135.959
1135.621
1135.276
1134.93
1134.587
1134.252
1133.926
1133.612
1133.309
1133.019
1132.741
1132.474
1132.219
1131.973
1131.735
1131.504
1131.277
1131.054
1130.832
1130.61
1130.386
1130.157
1129.924
1129.684
1129.436
1129.179
1128.913
1128.636
1128.349
1128.051
1127.741
1127.422
1127.091
1126.751
1126.401
1126.042
1125.676
1125.302
1124.921
1124.535
1124.144
1123.748
1123.35
1122.948
1122.545
1122.141
1121.736
1121.331
1120.925
1120.519
1120.114
1119.707
1119.3
1118.889
1118.478
1118.036
1117.676
1116.86
1136.491
1136.23
1135.935
1135.628
1135.32
1135.018
1134.723
1134.439
1134.167
1133.905
1133.653
1133.411
1133.176
1132.947
1132.722
1132.5
1132.279
1132.057
1131.833
1131.604
1131.37
1131.128
1130.878
1130.619
1130.35
1130.071
1129.78
1129.479
1129.166
1128.842
1128.508
1128.163
1127.809
1127.447
1127.076
1126.699
1126.315
1125.925
1125.531
1125.133
1124.732
1124.329
1123.924
1123.519
1123.113
1122.708
1122.303
1121.899
1121.497
1121.096
1120.696
1120.297
1119.9
1119.502
1119.103
1118.7
1118.299
1117.865
1117.511
1116.706
1136.542
1136.326
1136.079
1135.824
1135.569
1135.321
1135.079
1134.844
1134.615
1134.391
1134.17
1133.951
1133.731
1133.51
1133.285
1133.056
1132.82
1132.577
1132.326
1132.064
1131.793
1131.51
1131.216
1130.911
1130.594
1130.267
1129.928
1129.58
1129.222
1128.856
1128.481
1128.1
1127.713
1127.32
1126.923
1126.522
1126.119
1125.714
1125.307
1124.9
1124.492
1124.085
1123.68
1123.275
1122.873
1122.472
1122.074
1121.678
1121.283
1120.891
1120.5
1120.11
1119.721
1119.331
1118.94
1118.544
1118.149
1117.72
1117.371
1116.571
1136.802
1136.634
1136.44
1136.236
1136.029
1135.82
1135.61
1135.398
1135.184
1134.965
1134.742
1134.512
1134.276
1134.031
1133.777
1133.514
1133.239
1132.954
1132.657
1132.348
1132.028
1131.696
1131.354
1131.001
1130.639
1130.269
1129.891
1129.506
1129.115
1128.719
1128.319
1127.916
1127.51
1127.102
1126.694
1126.285
1125.876
1125.467
1125.06
1124.655
1124.251
1123.85
1123.451
1123.054
1122.66
1122.268
1121.879
1121.491
1121.106
1120.721
1120.338
1119.955
1119.572
1119.187
1118.8
1118.408
1118.015
1117.588
1117.241
1116.442
1137.241
1137.131
1136.981
1136.805
1136.613
1136.408
1136.192
1135.966
1135.731
1135.486
1135.231
1134.966
1134.689
1134.401
1134.101
1133.789
1133.465
1133.13
1132.784
1132.427
1132.061
1131.687
1131.305
1130.916
1130.522
1130.123
1129.72
1129.314
1128.905
1128.496
1128.085
1127.674
1127.264
1126.854
1126.446
1126.039
1125.634
1125.232
1124.832
1124.434
1124.039
1123.647
1123.257
1122.869
1122.483
1122.1
1121.718
1121.337
1120.957
1120.578
1120.199
1119.819
1119.438
1119.056
1118.67
1118.279
1117.886
1117.46
1117.113
1116.314
1137.874
1137.759
1137.59
1137.39
1137.168
1136.93
1136.679
1136.414
1136.138
1135.849
1135.548
1135.234
1134.907
1134.569
1134.219
1133.859
1133.488
1133.11
1132.723
1132.331
1131.933
1131.53
1131.124
1130.716
1130.305
1129.893
1129.481
1129.068
1128.656
1128.245
1127.836
1127.428
1127.022
1126.618
1126.217
1125.819
1125.423
1125.029
1124.638
1124.25
1123.863
1123.479
1123.097
1122.716
1122.336
1121.957
1121.579
1121.202
1120.825
1120.447
1120.069
1119.69
1119.309
1118.927
1118.541
1118.15
1117.758
1117.333
1116.987
1116.191
1138.433
1138.273
1138.063
1137.823
1137.561
1137.28
1136.984
1136.673
1136.348
1136.009
1135.657
1135.294
1134.92
1134.537
1134.147
1133.75
1133.348
1132.942
1132.533
1132.121
1131.708
1131.294
1130.88
1130.466
1130.053
1129.641
1129.23
1128.821
1128.414
1128.01
1127.608
1127.208
1126.811
1126.417
1126.025
1125.635
1125.248
1124.863
1124.479
1124.097
1123.717
1123.337
1122.958
1122.581
1122.203
1121.826
1121.449
1121.072
1120.695
1120.318
1119.94
1119.561
1119.181
1118.799
1118.415
1118.025
1117.635
1117.212
1116.869
1116.078
1138.8
1138.602
1138.354
1138.072
1137.764
1137.435
1137.089
1136.727
1136.353
1135.968
1135.574
1135.173
1134.766
1134.357
1133.944
1133.53
1133.114
1132.699
1132.283
1131.868
1131.454
1131.041
1130.629
1130.22
1129.812
1129.407
1129.003
1128.603
1128.205
1127.809
1127.416
1127.026
1126.637
1126.251
1125.866
1125.483
1125.102
1124.721
1124.341
1123.962
1123.584
1123.206
1122.828
1122.451
1122.074
1121.697
1121.32
1120.943
1120.567
1120.19
1119.813
1119.436
1119.057
1118.678
1118.297
1117.91
1117.524
1117.105
1116.765
1115.981
1138.993
1138.751
1138.455
1138.122
1137.763
1137.386
1136.994
1136.593
1136.184
1135.772
1135.356
1134.94
1134.523
1134.106
1133.689
1133.274
1132.859
1132.446
1132.034
1131.623
1131.215
1130.809
1130.405
1130.003
1129.604
1129.207
1128.813
1128.421
1128.032
1127.644
1127.259
1126.874
1126.492
1126.11
1125.729
1125.349
1124.969
1124.59
1124.211
1123.833
1123.454
1123.077
1122.699
1122.322
1121.945
1121.569
1121.193
1120.818
1120.443
1120.069
1119.695
1119.321
1118.946
1118.571
1118.193
1117.811
1117.429
1117.014
1116.677
1115.898
1138.986
1138.699
1138.355
1137.978
1137.582
1137.174
1136.761
1136.345
1135.928
1135.512
1135.096
1134.681
1134.267
1133.854
1133.443
1133.032
1132.623
1132.216
1131.811
1131.409
1131.008
1130.61
1130.215
1129.822
1129.431
1129.043
1128.656
1128.27
1127.886
1127.503
1127.121
1126.74
1126.359
1125.979
1125.599
1125.219
1124.84
1124.461
1124.082
1123.703
1123.325
1122.948
1122.572
1122.196
1121.821
1121.447
1121.075
1120.703
1120.332
1119.961
1119.591
1119.221
1118.851
1118.479
1118.105
1117.725
1117.345
1116.932
1116.597
1115.817
1138.82
1138.484
1138.108
1137.712
1137.308
1136.901
1136.492
1136.083
1135.674
1135.264
1134.855
1134.446
1134.037
1133.63
1133.224
1132.82
1132.418
1132.019
1131.622
1131.228
1130.835
1130.445
1130.057
1129.671
1129.286
1128.902
1128.519
1128.136
1127.754
1127.373
1126.992
1126.611
1126.23
1125.85
1125.469
1125.09
1124.711
1124.332
1123.954
1123.578
1123.202
1122.827
1122.453
1122.081
1121.71
1121.34
1120.971
1120.603
1120.236
1119.869
1119.503
1119.135
1118.767
1118.397
1118.023
1117.644
1117.263
1116.849
1116.511
1115.725
1138.49
1138.168
1137.811
1137.437
1137.051
1136.658
1136.259
1135.857
1135.453
1135.047
1134.641
1134.237
1133.833
1133.432
1133.034
1132.638
1132.244
1131.853
1131.463
1131.076
1130.69
1130.305
1129.921
1129.538
1129.155
1128.772
1128.39
1128.007
1127.626
1127.244
1126.862
1126.481
1126.101
1125.721
1125.342
1124.964
1124.587
1124.211
1123.836
1123.463
1123.09
1122.719
1122.35
1121.982
1121.614
1121.248
1120.882
1120.517
1120.152
1119.787
1119.421
1119.054
1118.684
1118.312
1117.936
1117.553
1117.168
1116.748
1116.405
1115.608
1138.244
1137.947
1137.605
1137.237
1136.852
1136.457
1136.057
1135.654
1135.251
1134.849
1134.449
1134.051
1133.656
1133.264
1132.874
1132.486
1132.099
1131.713
1131.328
1130.944
1130.56
1130.176
1129.793
1129.409
1129.026
1128.643
1128.26
1127.878
1127.496
1127.115
1126.735
1126.355
1125.977
1125.599
1125.223
1124.849
1124.475
1124.103
1123.732
1123.363
1122.995
1122.628
1122.261
1121.896
1121.531
1121.166
1120.801
1120.435
1120.069
1119.702
1119.333
1118.962
1118.588
1118.21
1117.828
1117.438
1117.045
1116.617
1116.268
1115.457
1138.074
1137.769
1137.417
1137.04
1136.65
1136.254
1135.858
1135.462
1135.068
1134.676
1134.286
1133.898
1133.511
1133.126
1132.74
1132.356
1131.971
1131.586
1131.201
1130.817
1130.432
1130.048
1129.663
1129.28
1128.896
1128.514
1128.132
1127.751
1127.371
1126.993
1126.615
1126.239
1125.865
1125.492