/*--------------------------------*- C++ -*----------------------------------*\
| =========                 |                                                 |
| \\      /  F ield         | OpenFOAM: The Open Source CFD Toolbox           |
|  \\    /   O peration     | Version:  2312                                  |
|   \\  /    A nd           | Website:  www.openfoam.com                      |
|    \\/     M anipulation  |                                                 |
\*---------------------------------------------------------------------------*/
FoamFile
{
    version     2.0;
    format      ascii;
    arch        "LSB;label=32;scalar=64";
    class       volScalarField;
    location    "1500";
    object      ILambda_14_0;
}
// * * * * * * * * * * * * * * * * * * * * * * * * * * * * * * * * * * * * * //

dimensions      [1 0 -3 0 0 0 0];

internalField   nonuniform List<scalar> 
12000
(
779.1576
748.507
749.0553
747.3879
746.2215
744.8785
743.3882
741.7571
740.0141
738.1813
736.2722
734.2819
732.1835
729.9504
727.5856
725.1196
722.5769
719.9679
717.3112
714.6379
711.9695
709.3116
706.6687
704.0507
701.4645
698.9141
696.4068
693.9489
691.5429
689.1909
686.8971
684.6631
682.4908
680.3883
678.3708
676.446
674.5875
672.716
670.7411
668.7354
666.8966
665.2398
663.5156
661.4363
659.1016
656.9447
655.0858
652.9401
650.046
646.8742
643.9876
641.0508
637.6061
633.734
628.9718
621.206
606.8107
580.4163
535.6335
466.5985
754.3195
744.893
746.8377
744.8077
743.4944
741.8679
740.1563
738.3415
736.4383
734.4445
732.3505
730.1404
727.8056
725.3586
722.8276
720.2367
717.6011
714.9384
712.2714
709.6161
706.978
704.3616
701.7749
699.2253
696.7174
694.2566
691.8481
689.4946
687.1985
684.9635
682.7928
680.6898
678.6594
676.7032
674.808
672.9375
671.0432
669.1081
667.1918
665.3789
663.6207
661.7301
659.58
657.2717
655.0193
652.8197
650.3862
647.5951
644.7818
642.2036
639.4317
635.5381
629.3149
618.7659
600.9029
572.8247
533.6257
486.8545
442.9692
419.4585
746.1065
744.1355
743.9275
741.9162
740.3575
738.5258
736.6404
734.6524
732.5662
730.3718
728.0637
725.644
723.1294
720.5473
717.9227
715.2723
712.6106
709.9543
707.3167
704.7038
702.1191
699.5692
697.0613
694.6003
692.1904
689.8359
687.5399
685.3046
683.133
681.0277
678.99
677.0182
675.1049
673.2313
671.3675
669.4868
667.5867
665.6971
663.8426
661.9714
659.955
657.7204
655.3491
652.9993
650.7205
648.4015
645.9489
643.3846
640.4982
636.3578
629.3338
617.4916
598.8529
571.8696
536.6509
496.3776
457.7196
429.424
418.3903
423.9231
743.4886
742.1281
740.5933
738.6854
736.8662
734.8684
732.7989
730.6166
728.3277
725.9326
723.4422
720.8759
718.2592
715.6155
712.9612
710.3089
707.6707
705.0572
702.4746
699.9267
697.4189
694.9576
692.5477
690.1928
687.8964
685.6611
683.4891
681.3817
679.3395
677.3605
675.438
673.5594
671.7049
669.8509
667.9792
666.0862
664.1781
662.2466
660.2447
658.1052
655.8157
653.4708
651.2074
649.071
646.941
644.5505
641.4576
636.8412
629.2963
617.0027
598.3053
572.3709
539.8072
503.2797
467.6812
439.1303
422.6899
419.6528
426.0465
434.4526
741.2507
738.9175
737.0638
735.0904
733.0385
730.8645
728.5955
726.2194
723.7509
721.2042
718.6007
715.9637
713.3138
710.6658
708.0303
705.4168
702.8336
700.2868
697.7804
695.3194
692.9091
690.554
688.2573
686.0215
683.8487
681.74
679.6951
677.7117
675.7845
673.9031
672.0515
670.2092
668.3544
666.47
664.5468
662.579
660.5542
658.451
656.2606
654.0244
651.8383
649.7769
647.7638
645.4757
642.3076
637.353
629.3741
616.8806
598.4995
573.6089
542.9433
508.8907
475.3697
447.1233
428.3136
420.8011
423.0663
430.7276
438.8599
444.9314
738.2476
735.1755
733.2893
731.1171
728.8625
726.5049
724.0563
721.5278
718.9398
716.3128
713.6679
711.0226
708.3896
705.7778
703.1949
700.6477
698.1418
695.6816
693.2714
690.9158
688.6185
686.3822
684.2085
682.0985
680.0517
678.0659
676.1359
674.2526
672.4018
670.5643
668.7177
666.8403
664.9153
662.9344
660.8974
658.8104
656.689
654.5676
652.4988
650.5152
648.5348
646.2401
642.998
637.8602
629.6402
617.0656
599.0564
575.1627
546.0592
513.832
481.8238
453.9929
433.8985
423.5445
422.5381
428.1364
436.4141
444.0714
449.7888
454.1155
734.6301
731.1438
729.1764
726.7831
724.3592
721.8475
719.2747
716.6594
714.0217
711.3797
708.7482
706.1378
703.5559
701.009
698.5029
696.0428
693.6329
691.2771
688.979
686.7418
684.5673
682.4562
680.4081
678.4206
676.4888
674.604
672.7527
670.9166
669.0733
667.1998
665.2772
663.2962
661.2616
659.1932
657.1238
655.0933
653.1343
651.2363
649.2785
646.9353
643.5922
638.3306
630.0171
617.4981
599.8777
576.8564
549.0775
518.3467
487.5425
460.1102
439.2299
426.9129
423.3469
426.7909
434.1962
442.3822
449.2032
454.0316
457.2962
459.5426
730.6052
726.8194
724.7218
722.1533
719.609
717.0028
714.3738
711.7366
709.1071
706.4974
703.9161
701.3697
698.8638
696.4034
693.9932
691.6373
689.3388
687.1007
684.9251
682.813
680.7639
678.7752
676.8421
674.9559
673.1034
671.2666
669.4238
667.5524
665.6335
663.6591
661.6369
659.5936
657.5705
655.6117
653.7394
651.9153
649.9822
647.5939
644.1515
638.7897
630.4532
618.0824
600.8869
578.649
551.9913
522.5211
492.7502
465.712
444.3038
430.53
424.924
426.3868
432.5501
440.5743
448.077
453.7663
457.4702
459.6286
460.6846
460.8563
726.2581
722.212
720.0078
717.3325
714.7289
712.0931
709.4671
706.8581
704.2769
701.7306
699.2248
696.7643
694.3537
691.9971
689.6981
687.4592
685.2828
683.1697
681.1195
679.1299
677.1956
675.3079
673.4536
671.6151
669.7715
667.901
665.9867
664.0222
662.0183
660.0047
658.0263
656.127
654.3215
652.5531
650.6401
648.2186
644.6993
639.2648
630.9405
618.7594
602.0073
580.5018
554.8252
526.4313
497.5595
470.9181
449.1581
434.2505
426.9652
426.6586
431.4811
438.9541
446.7104
453.1135
457.5075
460.0291
461.158
461.3283
460.8225
459.899
721.6488
717.4047
715.1533
712.4377
709.8325
707.2199
704.6396
702.0926
699.5864
697.1257
694.7146
692.3574
690.0575
687.8179
685.6405
683.5265
681.4754
679.4848
677.5492
675.6598
673.8034
671.9627
670.1174
668.2477
666.3384
664.3859
662.4031
660.4218
658.4867
656.639
654.8859
653.1577
651.2572
648.811
645.2389
639.7634
631.48
619.505
603.1915
582.3757
557.5862
530.1391
502.0588
475.8014
453.8131
438.0082
429.3119
427.4232
430.9099
437.6271
445.3214
452.2015
457.2751
460.352
461.7706
462.0357
461.5729
460.6853
459.632
458.673
716.8647
712.513
710.271
707.5694
705.0073
702.4545
699.9484
697.4866
695.075
692.717
690.4163
688.1758
685.9976
683.8827
681.8308
679.839
677.9021
676.0108
674.1521
672.3088
670.4619
668.5929
666.6893
664.7499
662.7897
660.8412
658.9477
657.1458
655.4352
653.736
651.8415
649.3755
645.77
640.2822
632.0659
620.3076
604.4177
584.2467
560.2706
533.6796
506.3134
480.4232
458.2877
441.7613
431.8679
428.5632
430.7568
436.6102
444.0254
451.1616
456.806
460.4881
462.3419
462.822
462.4284
461.5562
460.4856
459.4363
458.5944
458.0903
712.0114
707.6439
705.4508
702.8028
700.3143
697.8457
695.434
693.0748
690.7732
688.5318
686.3528
684.2371
682.1843
680.1916
678.2532
676.3599
674.4987
672.6529
670.8045
668.9367
667.0393
665.1136
663.1763
661.2601
659.406
657.6454
655.9702
654.2924
652.3998
649.9178
646.2933
640.8157
632.6885
621.1554
605.6737
586.1048
562.878
537.072
510.3648
484.8306
462.6054
445.4871
434.5666
429.9942
430.9577
435.8931
442.8778
450.0865
456.1672
460.4255
462.7862
463.5897
463.3374
462.4944
461.406
460.3083
459.3727
458.7294
458.4673
458.6324
707.1886
702.8785
700.7584
698.1919
695.7976
693.4312
691.1293
688.8864
686.7064
684.5898
682.5361
680.5423
678.6024
676.7071
674.8434
672.9952
671.1455
669.2794
667.3887
665.477
663.5625
661.6774
659.8601
658.1365
656.4915
654.8303
652.9373
650.4429
646.8104
641.3601
633.3384
622.0369
606.95
587.9458
565.4123
540.3316
514.2398
489.0552
466.7867
449.177
437.3644
431.6524
431.4572
435.4564
441.9057
449.0371
455.4208
460.1893
463.0742
464.2752
464.2435
463.4742
462.3754
461.2319
460.2297
459.4959
459.1215
459.1694
459.6815
460.6864
702.4736
698.2736
696.2414
693.7765
691.4918
689.2412
687.0606
684.9423
682.8874
680.8921
678.9505
677.0531
675.1869
673.3364
671.4858
669.6218
667.7382
665.8406
663.9482
662.0926
660.3093
658.6191
657.0001
655.3522
653.4583
650.9551
647.3235
641.9129
634.0086
622.9424
608.238
589.7669
567.8792
543.4721
517.9586
493.1189
470.8461
452.8275
440.2336
433.4915
432.209
435.2757
441.1199
448.0548
454.6177
459.8141
463.2062
464.8457
465.1021
464.4634
463.3815
462.1963
461.1308
460.3248
459.87
459.8311
460.253
461.1649
462.5836
464.5074
697.921
693.868
691.9346
689.5867
687.4225
685.2961
683.2399
681.2423
679.2985
677.3986
675.5298
673.6772
671.8259
669.9644
668.0882
666.2045
664.3334
662.5056
660.7536
659.0932
657.4971
655.8602
653.9657
651.4576
647.8342
642.4729
634.6939
623.864
609.5308
591.5656
570.2834
546.5063
521.5388
497.0388
474.7939
456.4362
443.1551
435.4779
433.1757
435.326
440.5205
447.1658
453.7988
459.3355
463.1961
465.289
465.8834
465.4319
464.4066
463.1954
462.0678
461.1908
460.6653
460.5559
460.9057
461.74
463.0627
464.8521
467.0542
469.5824
693.5698
689.6906
687.8638
685.6418
683.6008
681.5941
679.648
677.7446
675.8729
674.0181
672.1663
670.3074
668.4388
666.5688
664.718
662.9161
661.1927
659.5592
657.9831
656.356
654.4618
651.9524
648.3437
643.0391
635.3907
624.796
610.8226
593.3396
572.6287
549.4446
524.9951
500.8293
478.6388
460.0009
446.1141
437.5862
434.328
435.5846
440.1017
446.3858
452.995
458.7863
463.0642
465.6048
466.5698
466.3552
465.4308
464.2196
463.0372
462.0875
461.49
461.3137
461.5995
462.3684
463.619
465.3206
467.4052
469.7627
472.2469
474.7058
689.4489
685.7603
684.0399
681.9397
680.0068
678.0932
676.2184
674.3605
672.5081
670.6518
668.7906
666.9338
665.1021
663.3243
661.627
660.0176
658.4592
656.8409
654.9481
652.4412
648.8527
643.6105
636.0961
625.7343
612.1094
595.0872
574.9182
552.2955
528.34
504.5031
482.3885
463.5204
449.0987
439.7958
435.6419
436.032
439.8559
445.7232
452.2288
458.1946
462.8326
465.801
467.1533
467.2152
466.4355
465.2566
464.0344
463.0132
462.3395
462.0933
462.3155
463.0229
464.2094
465.8403
467.8441
470.1081
472.4793
474.777
476.8206
478.482
685.5738
682.0735
680.4428
678.4382
676.5749
674.7074
672.8542
670.9995
669.1451
667.3005
665.4867
663.7309
662.0573
660.4694
658.9268
657.3165
655.4263
652.9253
649.3617
644.1866
636.8081
626.6758
613.3883
596.8074
577.1543
555.0656
531.5836
508.0708
486.0502
466.9945
452.0997
442.0898
437.0973
436.6507
439.7745
445.1821
451.5166
457.5835
462.5228
465.8893
467.6324
468.0001
467.4048
466.2931
465.0525
463.9663
463.2134
462.8916
463.0464
463.6917
464.8168
466.3833
468.3189
470.5123
472.8149
475.0504
477.0347
478.6034
479.6477
480.1555
681.9322
678.5867
677.0087
675.0543
673.2137
671.3542
669.5058
667.6716
665.8738
664.1379
662.4853
660.9165
659.3876
657.7848
655.8984
653.4061
649.8714
644.767
637.5254
627.6185
614.6576
598.4998
579.3393
557.7607
534.7344
511.5414
489.63
470.4237
455.11
444.4541
438.6766
437.425
439.8489
444.7642
450.8704
456.9717
462.1543
465.8834
468.0107
468.7031
468.3259
467.3165
466.0828
464.9437
464.112
463.709
463.7904
464.3702
465.4337
466.9387
468.8117
470.944
473.1921
475.3868
477.3503
478.9198
479.9745
480.4597
480.4034
479.9239
678.4709
675.2173
673.6515
671.7124
669.8821
668.0511
666.2674
664.5482
662.9139
661.3613
659.8444
658.2483
656.3666
653.8853
650.3829
645.3519
638.2474
628.5614
615.9164
600.165
581.4758
560.386
537.7996
514.9226
493.1339
473.809
458.1241
446.8773
440.365
438.3409
440.0704
444.4691
450.2987
456.3748
461.7444
465.7971
468.2943
469.3217
469.1897
468.3152
467.1162
465.9404
465.0346
464.5469
464.5484
465.0574
466.0569
467.5011
469.3149
471.3913
473.5918
475.754
477.7068
479.2917
480.3865
480.9267
480.9191
480.4439
479.6432
478.7
675.1095
671.8937
670.3366
668.4352
666.6759
664.9652
663.3464
661.8069
660.2996
658.7093
656.8328
654.3647
650.8971
645.9414
638.9735
629.5037
617.1644
601.8037
583.5666
562.9461
540.7855
518.221
496.5666
477.1517
461.1382
449.3503
442.1498
439.3857
440.43
444.2951
449.808
455.8052
461.3083
465.6438
468.4911
469.8562
469.9899
469.2796
468.1433
466.9507
465.9793
465.4063
465.3224
465.7544
466.6858
468.0682
469.8244
471.8481
474.005
476.1388
478.0848
479.6887
480.8286
481.434
481.4996
481.0875
480.3175
479.3477
478.348
477.4737
671.8025
668.6432
667.1593
665.3835
663.7896
662.255
660.7554
659.1692
657.2982
654.8445
651.4138
646.5348
639.7026
630.4442
618.4009
603.4164
585.6136
565.445
543.6972
521.4422
499.9326
480.4529
464.1491
451.8654
444.0203
440.5481
440.9195
444.2395
449.4024
455.2734
460.8596
465.4363
468.6096
470.309
470.7229
470.202
469.1557
467.9678
466.9431
466.2875
466.1143
466.4632
467.3214
468.6395
470.3381
472.3112
474.4271
476.5349
478.4755
480.0989
481.2835
481.955
482.0984
481.7622
481.0504
480.1052
479.0829
478.1292
477.3591
476.8473
668.6155
665.6272
664.301
662.699
661.217
659.6285
657.763
655.3242
651.9317
647.1301
640.4322
631.3805
619.6242
605.0024
587.6179
567.8852
546.5388
524.5904
503.2348
483.7133
467.154
454.416
445.9671
441.818
441.5309
444.2989
449.0846
454.7876
460.41
465.1867
468.6589
470.684
471.3871
471.0766
470.1456
468.9849
467.9217
467.1895
466.9257
467.1861
467.9655
469.2155
470.8554
472.7786
474.8552
476.9384
478.8741
480.516
481.7437
482.4791
482.6999
482.4426
481.7983
480.8963
479.8832
478.8986
478.0541
477.4206
477.0268
476.8704
665.7099
662.9782
661.7399
660.0812
658.2321
655.8035
652.4499
647.7252
641.1599
632.3099
620.8317
606.5602
589.5791
570.2678
549.3123
527.668
506.475
486.9325
470.1495
456.9958
447.9814
443.1862
442.2564
444.4694
448.8558
454.3541
459.9697
464.906
468.6483
470.9862
471.9824
471.899
471.1065
469.9956
468.9107
468.1104
467.757
467.9252
468.6204
469.7977
471.3765
473.2494
475.2876
477.3471
479.2778
480.937
482.2051
483.0016
483.2971
483.1186
482.545
481.6946
480.7054
479.7127
478.8285
478.1265
477.6371
477.3513
477.235
477.252
663.1164
660.3832
658.7592
656.2786
652.9741
648.3205
641.8851
633.2309
622.022
608.0888
591.4971
572.5938
552.0194
530.6767
509.6539
490.1095
473.132
459.5983
450.0549
444.6434
443.088
444.7462
448.7159
453.9778
459.547
464.6044
468.5865
471.2214
472.5102
472.6666
472.0329
470.9937
469.9049
469.0474
468.6081
468.6821
469.2882
470.388
471.9024
473.7236
475.7234
477.7595
479.685
481.36
482.6658
483.5199
483.8873
483.7857
483.2837
482.4891
481.5318
480.5432
479.6356
478.8874
478.3354
477.9759
477.7736
477.6764
477.634
477.619
660.3061
656.5908
653.5606
648.9145
642.6151
634.146
623.1972
609.5897
593.3736
574.8652
554.6625
533.6185
512.7726
493.2433
476.0981
462.2176
452.1794
446.1808
444.0179
445.1241
448.6635
453.6616
459.1487
464.2902
468.4819
471.3953
472.9727
473.3777
472.9204
471.9736
470.8995
469.9975
469.478
469.4576
469.9709
470.9883
472.4343
474.2017
476.1621
478.1747
480.0945
481.7838
483.1248
484.0333
484.469
484.4421
484.0112
483.2746
482.3545
481.3777
480.4568
479.6742
479.0737
478.6591
478.4012
478.2491
478.1453
478.0399
477.9042
477.744
655.7917
649.2486
643.4238
635.0533
624.367
611.0681
595.2141
577.0869
557.246
536.4974
515.8336
496.3346
479.0459
464.8491
454.3482
447.7907
445.0388
445.5977
448.6965
453.4071
458.7797
463.9708
468.3419
471.5139
473.3726
474.0317
473.7655
472.9303
471.8894
470.9571
470.3651
470.2521
470.67
471.6007
472.974
474.6844
476.6039
478.5922
480.5056
482.2078
483.5816
484.5412
485.042
485.0871
484.7264
484.049
483.1694
482.2102
481.2832
480.4742
479.8334
479.3724
479.0689
478.877
478.74
478.6036
478.4274
478.1926
477.9077
477.6128
647.1453
635.4595
625.6502
612.517
597.0319
579.2666
559.7777
539.3196
518.8416
499.3859
481.9754
467.4902
456.5567
449.467
446.1445
446.1625
448.8132
453.2158
458.4444
463.6523
468.1732
471.5824
473.7128
474.6283
474.5654
473.8591
472.8697
471.9222
471.2673
471.0653
471.3868
472.2269
473.523
475.1729
477.0492
479.0118
480.9177
482.6314
484.0358
485.0436
485.6064
485.7209
485.4289
484.811
483.9746
483.0373
482.1099
481.2808
480.6056
480.1034
479.7592
479.5328
479.3702
479.2169
479.0284
478.7783
478.4628
478.1015
477.737
477.4333
631.7087
613.0632
599.0254
581.384
562.2754
542.0929
521.8039
502.4017
484.8886
470.1402
458.8018
451.2053
447.3306
446.815
449.0119
453.0889
458.1467
463.3407
467.9823
471.6065
473.9968
475.1682
475.3177
474.7562
473.8358
472.8886
472.1818
471.8961
472.1216
472.8684
474.0832
475.6686
477.4987
479.4338
481.3308
483.0544
484.4874
485.5408
486.1626
486.3438
486.1188
485.5605
484.769
483.8572
482.9341
482.09
481.3853
480.8458
480.4638
480.2049
480.0192
479.853
479.6598
479.4092
479.0912
478.7175
478.3202
477.9479
477.6623
477.5333
607.8681
582.1035
565.0426
544.7756
524.7426
505.3874
487.7901
472.8005
461.0826
453.0032
448.594
447.5528
449.2922
453.0281
457.8907
463.0416
467.7754
471.5919
474.2284
475.6527
476.0213
475.6179
474.7832
473.852
473.1055
472.743
472.8746
473.5262
474.6561
476.1728
477.9534
479.8584
481.7447
483.4767
484.9363
486.0327
486.7108
486.9563
486.7968
486.2977
485.5524
484.6689
483.7541
482.8994
482.1694
481.596
481.1782
480.888
480.6795
480.501
480.3052
480.0588
479.7473
479.3774
478.9754
478.5834
478.255
478.0494
478.027
478.2444
576.3047
545.6166
528.0661
508.2748
490.7058
475.4722
463.4012
454.8598
449.9332
448.3746
449.6541
453.0354
457.6805
462.7609
467.5592
471.5445
474.4121
476.0838
476.6756
476.4418
475.708
474.8085
474.0348
473.6039
473.6449
474.2008
475.2427
476.6869
478.4142
480.2862
482.1596
483.8981
485.3823
486.5197
487.2516
487.559
487.4633
487.0229
486.3248
485.4719
484.5688
483.7075
482.956
482.3516
481.8999
481.5788
481.3474
481.1559
480.9575
480.7164
480.4147
480.0547
479.6582
479.2634
478.9195
478.6806
478.6004
478.7264
479.0963
479.7367
540.4553
509.0981
494.1132
478.0644
465.7863
456.7731
451.3502
449.2808
450.0987
453.1136
457.5205
462.5043
467.34
471.4707
474.5526
476.4643
477.2812
477.2261
476.6071
475.7541
474.9664
474.4764
474.4314
474.8924
475.844
477.212
478.8821
480.7178
482.5758
484.3186
485.8256
487.0017
487.7852
488.1524
488.119
487.7367
487.0864
486.2661
485.3778
484.5134
483.7438
483.1112
482.6272
482.2759
482.0208
481.8153
481.613
481.3768
481.0857
480.7381
480.3519
479.9616
479.6131
479.3582
479.2478
479.3258
479.6239
480.1582
480.93
481.93
505.7361
478.705
468.7199
458.643
452.876
450.2692
450.6309
453.2663
457.4159
462.2782
467.1249
471.3769
474.6556
476.7978
477.8391
477.97
477.4779
476.6856
475.8971
475.358
475.2329
475.6005
476.4604
477.749
479.3581
481.154
482.9936
484.7385
486.266
487.4789
488.3119
488.737
488.7642
488.4394
487.8374
487.0515
486.1805
485.3163
484.5319
483.8738
483.3593
482.9781
482.6988
482.478
482.2703
482.0378
481.7568
481.4224
481.0486
480.6663
480.3188
480.0557
479.9265
479.9739
480.2285
480.7042
481.3957
482.2793
483.3185
484.4769
477.7483
459.0034
454.9234
451.2496
451.2827
453.4943
457.3754
462.09
466.9218
471.2708
474.7271
477.0888
478.3517
478.6735
478.3188
477.6003
476.824
476.2462
476.0478
476.3247
477.0923
478.2986
479.8431
481.5954
483.4134
485.1577
486.7037
487.9513
488.8319
489.3131
489.3996
489.1316
488.5783
487.828
486.9769
486.1159
485.3197
484.6387
484.0954
483.685
483.381
483.1435
482.9287
482.6982
482.4264
482.105
481.7444
481.3722
481.0288
480.7617
480.6192
480.644
480.8666
481.3013
481.943
482.7664
483.7282
484.7724
485.8404
486.8913
460.2812
451.3646
452.3415
453.7351
457.4297
461.9442
466.7415
471.1606
474.7749
477.3427
478.8225
479.3378
479.1291
478.4965
477.7448
477.1389
476.8745
477.0644
477.7398
478.8616
480.3378
482.0427
483.8356
485.5764
487.1385
488.4188
489.3452
489.8808
490.0254
489.8136
489.3092
488.5959
487.7667
486.9117
486.1066
485.4054
484.835
484.3961
484.0671
483.8117
483.5881
483.3578
483.0937
482.7845
482.4373
482.0762
481.7387
481.4703
481.3182
481.3246
481.5208
481.9222
482.5253
483.3063
484.2226
485.2164
486.2213
487.1705
488.0104
488.7199
454.0692
453.7631
457.72
461.8151
466.6099
471.0537
474.809
477.5664
479.2561
479.9654
479.9095
479.3731
478.6578
478.0345
477.7119
477.8191
478.4032
479.4387
480.8432
482.4968
484.2608
485.9949
487.5705
488.8814
489.8518
490.4403
490.6418
490.4857
490.0304
489.3552
488.55
487.7034
486.8922
486.1732
485.5776
485.1111
484.757
484.4827
484.2486
484.0167
483.7586
483.4605
483.1263
482.7767
482.4464
482.1785
482.0191
482.0101
482.1833
482.5556
483.1254
483.8711
484.7524
485.7133
486.6874
487.6052
488.4029
489.0305
489.4637
489.7183
456.8497
461.9597
466.5418
470.9586
474.8476
477.7677
479.6601
480.5602
480.6617
480.2305
479.5623
478.9319
478.5592
478.5884
479.0828
480.0307
481.3604
482.9587
484.6899
486.4137
487.9998
489.339
490.3515
490.9915
491.2489
491.148
490.742
490.106
489.3265
488.4907
487.6762
486.9417
486.3228
485.8298
485.4506
485.1566
484.9105
484.6752
484.4214
484.1331
483.8112
483.4732
483.1506
482.8846
482.7197
482.6974
482.8501
483.196
483.7355
484.4496
485.3006
486.2349
487.1878
488.0905
488.8775
489.4941
489.9034
490.0923
490.0767
489.9091
464.5811
471.3698
474.8274
477.9779
480.0438
481.1289
481.3897
481.07
480.4586
479.8308
479.416
479.3725
479.7791
480.6386
481.8908
483.4298
485.1239
486.8336
488.427
489.7918
490.8444
491.5344
491.8467
491.8005
491.4441
490.8482
490.0961
489.2735
488.458
487.7106
487.0704
486.552
486.1479
485.8334
485.574
485.3337
485.0824
484.8025
484.492
484.1652
483.8509
483.5877
483.4186
483.3846
483.5186
483.84
484.3514
485.0362
485.8593
486.7699
487.7055
488.5986
489.3837
490.0047
490.4209
490.6122
490.5816
490.3557
489.9845
489.5422
473.1377
478.6897
480.3226
481.7111
482.0972
481.8973
481.3485
480.7319
480.2828
480.172
480.4932
481.2639
482.4359
483.9117
485.5644
487.2558
488.8528
490.2404
491.3308
492.0691
492.4353
492.4433
492.1366
491.5817
490.8587
490.0514
489.2373
488.4794
487.8197
487.2772
486.8487
486.5133
486.2395
485.9924
485.742
485.469
485.1689
484.853
484.5471
484.2873
484.1152
484.0709
484.1876
484.4862
484.9709
485.6278
486.4245
487.3128
488.2327
489.1183
489.9047
490.5351
490.9667
491.1758
491.16
490.938
490.5478
490.0425
489.4864
488.9542
479.6837
482.6448
482.7216
482.7484
482.2337
481.6405
481.1612
480.9881
481.2264
481.9082
482.9975
484.4063
486.0131
487.6817
489.2784
490.6855
491.8113
492.596
493.0148
493.0764
492.8197
492.3066
491.614
490.824
490.0138
489.2476
488.5705
488.0052
487.5528
487.1963
486.907
486.6518
486.4006
486.1331
485.8422
485.5367
485.2391
484.9834
484.8091
484.7556
484.8565
485.1334
485.5926
486.2227
486.9939
487.8607
488.7656
489.6443
490.433
491.0744
491.5243
491.7564
491.7643
491.5623
491.1828
490.6718
490.084
489.4771
488.9088
488.4364
483.2298
483.7679
483.0948
482.5834
482.0545
481.8267
481.9816
482.5741
483.5782
484.916
486.4722
488.1132
489.7053
491.1282
492.2864
493.1156
493.5856
493.7002
493.4933
493.0227
492.362
491.5911
490.7869
490.0147
489.3222
488.7356
488.26
487.8823
487.5768
487.3121
487.0587
486.795
486.5123
486.2164
485.9272
485.6758
485.5001
485.4387
485.5247
485.7812
486.216
486.82
487.5663
488.4119
489.3019
490.1738
490.9647
491.6173
492.0864
492.3432
492.3783
492.2023
491.8433
491.3436
490.7535
490.1258
489.5104
488.9502
488.4816
488.138
484.3533
483.5639
482.9833
482.7056
482.7653
483.268
484.1819
485.4444
486.9445
488.5527
490.1353
491.5699
492.7574
493.6285
494.1483
494.315
494.1578
493.7302
493.1024
492.3524
491.5563
490.7803
490.0743
489.4679
488.97
488.5712
488.2488
487.9736
487.7165
487.4553
487.1796
486.8925
486.6113
486.3646
486.1883
486.1198
486.1922
486.4293
486.8407
487.4193
488.141
488.9657
489.8405
490.7051
491.4977
492.1612
492.6492
492.931
492.9946
492.847
492.513
492.0315
491.4501
490.8192
490.1863
489.5917
489.0651
488.626
488.2867
488.0613
484.4244
483.5789
483.6207
484.0027
484.8187
485.9982
487.4349
489.0041
490.5714
492.013
493.2258
494.1361
494.7036
494.9214
494.8135
494.4293
493.8356
493.1079
492.3217
491.544
490.8264
490.2018
489.6824
489.2628
488.9231
488.6363
488.3742
488.1142
487.8443
487.5652
487.2918
487.0499
486.8736
486.7989
486.8588
487.0776
487.4664
488.0204
488.718
489.5215
490.3809
491.2377
492.0311
492.7044
493.2106
493.5171
493.6093
493.4913
493.1845
492.7247
492.1572
491.5306
490.8918
490.2803
489.7255
489.2447
488.844
488.5215
488.2734
488.1049
484.7891
484.7649
485.5333
486.5896
487.9552
489.4743
491.0186
492.4609
493.6943
494.6402
495.2529
495.5203
495.4612
495.1205
494.5615
493.8576
493.0831
492.3055
491.5782
490.9367
490.3969
489.9567
489.5995
489.3003
489.032
488.772
488.5066
488.2348
487.9687
487.7318
487.556
487.476
487.5244
487.7259
488.093
488.6231
489.2969
490.0794
490.9229
491.7711
492.5644
493.2465
493.7698
494.1002
494.2207
494.1324
493.8538
493.4178
492.8672
492.2493
491.6101
490.9895
490.4175
489.9123
489.4798
489.1162
488.8105
488.5495
488.3253
488.1461
486.2324
487.2805
488.5377
489.9784
491.4888
492.9207
494.1678
495.1442
495.7987
496.1134
496.102
495.8046
495.2809
494.6018
493.8405
493.0647
492.3293
491.6724
491.1132
490.6528
490.2778
489.9655
489.69
489.4286
489.1668
488.9014
488.6422
488.4103
488.2354
488.1509
488.1888
488.374
488.7205
489.2273
489.8777
490.6392
491.4666
492.3054
493.0976
493.7873
494.3264
494.6796
494.8276
494.7689
494.519
494.1079
493.5763
492.9697
492.3337
491.7083
491.1246
490.602
490.1483
489.76
489.4259
489.1298
488.8553
488.5902
488.3326
488.1001
488.8288
490.6505
491.9975
493.4117
494.6573
495.655
496.3457
496.7041
496.7382
496.4832
495.9948
495.3412
494.5944
493.8218
493.0798
492.4089
491.8311
491.3509
490.958
490.6318
490.3481
490.0843
489.8248
489.5651
489.3123
489.0855
488.9119
488.8237
488.8519
489.022
489.3487
489.833
490.4604
491.2009
492.0118
492.8405
493.6306
494.3267
494.8805
495.2553
495.4299
495.4002
495.1789
494.7935
494.2821
493.6888
493.0583
492.431
491.8389
491.303
490.8327
490.4262
490.0733
489.7579
489.4619
489.1687
488.8669
488.5529
488.2352
487.9409
492.105
494.1063
495.1661
496.1955
496.9038
497.2992
497.3744
497.1594
496.7053
496.0774
495.3457
494.5775
493.8302
493.1463
492.5507
492.0511
491.64
491.2995
491.0066
490.7391
490.481
490.2259
489.9791
489.7571
489.5853
489.494
489.5136
489.6696
489.9775
490.44
491.0449
491.7646
492.5586
493.3767
494.1637
494.865
495.4321
495.8273
496.0275
496.0261
495.8333
495.4738
494.9834
494.4047
493.7817
493.1546
492.5564
492.0097
491.5256
491.1042
490.7366
490.4077
490.0993
489.7938
489.4768
489.1398
488.7812
488.408
488.038
487.7049
495.3529
496.9322
497.4737
497.9231
498.0197
497.8402
497.4169
496.8132
496.0963
495.333
494.5812
493.8851
493.2725
492.7537
492.3243
491.9687
491.6655
491.3933
491.1353
490.884
490.6426
490.4253
490.2555
490.1618
490.1737
490.3165
490.6066
491.0482
491.6311
492.3301
493.1071
493.9139
494.6969
495.4023
495.9815
496.3958
496.6205
496.6467
496.482
496.1485
495.6797
495.1167
494.5024
493.8772
493.2748
492.7191
492.223
491.7886
491.4084
491.0685
490.7514
490.439
490.116
489.7717
489.4013
489.0066
488.5958
488.1835
487.7928
487.4591
497.9398
498.7001
498.6818
498.5491
498.1387
497.5557
496.8507
496.0913
495.3348
494.6268
493.9973
493.4593
493.0113
492.6399
492.3255
492.0472
491.7882
491.5396
491.3028
491.09
490.9223
490.8268
490.8318
490.9624
491.2358
491.6574
492.2188
492.8974
493.6572
494.4523
495.2304
495.9388
496.5288
496.961
497.2091
497.2622
497.1251
496.8175
496.3709
495.8243
495.2199
494.5979
493.9926
493.4293
492.9226
492.4763
492.0847
491.7352
491.4109
491.094
490.7686
490.4227
490.0499
489.6497
489.2271
488.7919
488.3579
487.9427
487.5688
487.2693
499.5117
499.3501
498.891
498.3258
497.6184
496.8594
496.0953
495.3743
494.7271
494.1694
493.702
493.314
492.9872
492.7016
492.4403
492.1932
491.9603
491.7515
491.5859
491.4889
491.4878
491.6072
491.8647
492.2671
492.8078
493.4663
494.209
494.9918
495.7643
496.4746
497.0742
497.5232
497.7936
497.8726
497.7627
497.481
497.0568
496.5274
495.9339
495.3162
494.7092
494.1394
493.623
493.1656
492.7633
492.4048
492.0741
491.7537
491.4273
491.0823
490.711
490.3114
489.8867
489.4447
488.9964
488.555
488.1346
487.7506
487.4218
487.1761
500.0517
499.1293
498.4339
497.6547
496.8729
496.1343
495.4663
494.887
494.3987
493.9925
493.6519
493.3575
493.0923
492.8455
492.6154
492.41
492.2464
492.1483
492.1416
492.2506
492.4932
492.8773
493.3979
494.0366
494.7621
495.5323
496.2986
497.0099
497.618
498.0825
498.3743
498.4783
498.395
498.1391
497.7375
497.2258
496.6441
496.0318
495.4242
494.8489
494.3236
493.8557
493.443
493.0758
492.7388
492.4152
492.0886
491.7455
491.3775
490.9811
490.5585
490.116
489.6634
489.2122
488.7742
488.361
487.983
487.6507
487.3775
487.1863
499.8122
498.4418
497.7137
496.9212
496.2258
495.6187
495.1057
494.6786
494.3217
494.0164
493.7456
493.4976
493.269
493.0662
492.9043
492.8051
492.7933
492.8926
493.1211
493.4876
493.9887
494.6081
495.3165
496.0739
496.8332
497.5446
498.1603
498.6392
498.9512
499.0795
499.0222
498.7918
498.413
497.9196
497.3504
496.7445
496.1373
495.5574
495.024
494.5461
494.1234
493.7473
493.4041
493.0772
492.7502
492.4095
492.0455
491.6539
491.2354
490.7955
490.3429
489.8883
489.4427
489.0164
488.6181
488.2545
487.9306
487.6513
487.4252
487.2717
499.1715
497.6815
497.0582
496.377
495.8347
495.3788
495.0013
494.6817
494.4025
494.151
493.9225
493.7212
493.5603
493.4598
493.4432
493.5334
493.7485
494.0981
494.5803
495.1807
495.872
496.6163
497.3681
498.0788
498.701
499.1933
499.5245
499.6762
499.6445
499.4393
499.0835
498.6088
498.0529
497.4542
496.8484
496.2649
495.724
495.2367
494.804
494.4191
494.0693
493.7388
493.4113
493.0728
492.7131
492.3268
491.9136
491.478
491.0278
490.5729
490.1241
489.6912
489.2825
488.9037
488.5582
488.2473
487.9709
487.7301
487.5306
487.3916
498.4827
497.11
496.6395
496.1048
495.7027
495.3598
495.0676
494.8091
494.578
494.3764
494.2155
494.1133
494.0919
494.1732
494.3755
494.7088
495.1727
495.7544
496.4286
497.1595
497.9033
498.6125
499.2403
499.7449
500.0944
500.2687
500.2618
500.0817
499.7489
499.2934
498.7514
498.1609
497.5574
496.9711
496.4236
495.9272
495.4848
495.091
494.7344
494.3998
494.0714
493.7347
493.3791
492.9982
492.5909
492.1606
491.7141
491.261
490.8114
490.3751
489.9602
489.5726
489.2152
488.8886
488.5911
488.3197
488.0717
487.8468
487.6512
487.5058
497.9713
496.8183
496.4773
496.0626
495.753
495.4783
495.2402
495.0351
494.8722
494.7671
494.7404
494.8129
495.0026
495.3201
495.7661
496.3293
496.9865
497.7037
498.439
499.1458
499.7781
500.2941
500.6609
500.8569
500.8743
500.719
500.4092
499.9733
499.446
498.8644
498.2642
497.6759