/*--------------------------------*- C++ -*----------------------------------*\
| =========                 |                                                 |
| \\      /  F ield         | OpenFOAM: The Open Source CFD Toolbox           |
|  \\    /   O peration     | Version:  2312                                  |
|   \\  /    A nd           | Website:  www.openfoam.com                      |
|    \\/     M anipulation  |                                                 |
\*---------------------------------------------------------------------------*/
FoamFile
{
    version     2.0;
    format      ascii;
    arch        "LSB;label=32;scalar=64";
    class       volScalarField;
    location    "1500";
    object      nut;
}
// * * * * * * * * * * * * * * * * * * * * * * * * * * * * * * * * * * * * * //

dimensions      [0 2 -1 0 0 0 0];

internalField   nonuniform List<scalar> 
12000
(
3.661312e-05
0.0001463589
0.0001583241
0.0001707325
0.000165892
0.0001587242
0.0001674983
0.0001948775
0.0001993343
0.0001667232
0.0001480873
0.0001645901
0.0002000426
0.0001869116
0.0001520268
0.0001499477
0.0001771051
0.0001834577
0.0001585014
0.0001522071
0.0001667304
0.0001702366
0.0001585487
0.0001578606
0.0001650041
0.0001619547
0.0001566658
0.0001612991
0.0001652126
0.0001595278
0.0001560878
0.0001595888
0.0001625632
0.0001607599
0.0001575933
0.0001562882
0.0001561792
0.0001592874
0.0001648713
0.0001636519
0.0001554908
0.0001486375
0.000154639
0.0001771605
0.0001839452
0.0001532283
0.0001345025
0.0001560612
0.0002060195
0.0001744937
0.0001356123
0.0001481088
0.0001842376
0.0001658687
0.0001412565
0.000137934
0.0001347104
0.0001002866
8.545771e-05
6.46172e-05
2.313522e-05
0.000182373
0.000212866
0.0002616683
0.0003014118
0.0003382874
0.0003796709
0.0004183043
0.0004584779
0.000509122
0.0005734049
0.0006257887
0.0006637794
0.000710154
0.0007787851
0.0008429642
0.0008811448
0.0009184306
0.0009785033
0.001038095
0.001075756
0.001111097
0.001159966
0.001203666
0.001233858
0.001267545
0.001305957
0.001332839
0.001354478
0.001383955
0.001411272
0.00143173
0.001443088
0.00145824
0.001472893
0.00148499
0.00148796
0.001483731
0.001419777
0.001363853
0.001367183
0.001421562
0.00143366
0.001393396
0.001238859
0.001150228
0.001274224
0.001258015
0.001181963
0.001055959
0.001056466
0.0009663875
0.0008683573
0.0007780918
0.0006753078
0.0005587102
0.0004327261
0.0002831639
0.0001494789
5.950853e-05
2.989891e-05
0.0002705858
0.0003313606
0.0004007256
0.0004754957
0.0005660939
0.0006685926
0.0007698935
0.0008723561
0.0009837072
0.001093377
0.001199621
0.001297589
0.001393509
0.001491105
0.001582348
0.001664033
0.001741874
0.001817802
0.001888631
0.001952426
0.002012094
0.002068259
0.002119407
0.002165608
0.002208291
0.002246916
0.002280651
0.002312177
0.002339674
0.002363257
0.002382231
0.002397492
0.002409549
0.002418376
0.002424233
0.002426839
0.002426303
0.002422488
0.002415151
0.002404432
0.002390548
0.002373916
0.002353374
0.002327805
0.002295838
0.002258558
0.002217571
0.002168512
0.002106437
0.002028942
0.001932215
0.001814773
0.001656935
0.001289114
0.001111189
0.0009648494
0.0006213733
0.0002799791
6.025211e-05
2.934244e-05
0.0002837979
0.0003958613
0.0004979634
0.0006235835
0.0007687789
0.0009238061
0.001084737
0.001243022
0.001406538
0.001563701
0.001710337
0.001848437
0.001973022
0.002089069
0.002197473
0.002297151
0.002390682
0.002478801
0.00256144
0.002638555
0.002710457
0.002776892
0.002835991
0.002888414
0.002934365
0.00297437
0.003010624
0.003040668
0.003064849
0.003083417
0.003096563
0.003104431
0.003107039
0.003104468
0.003096844
0.003084277
0.003066831
0.003044443
0.003016918
0.002984045
0.002945644
0.002901458
0.002851063
0.002793523
0.002727519
0.002651805
0.002567422
0.002472601
0.00236636
0.002248689
0.002114972
0.001959281
0.00175944
0.001554337
0.001296071
0.001002663
0.0006739715
0.0003115066
5.856268e-05
2.923802e-05
0.0003039678
0.0004669664
0.0006115761
0.000788543
0.0009846486
0.001187775
0.001358548
0.001573519
0.001779917
0.001961814
0.002133862
0.002295826
0.002444551
0.002579514
0.002705566
0.002824556
0.002931643
0.003029826
0.003120018
0.003202532
0.0032775
0.003345316
0.003407943
0.003464963
0.003514317
0.003558365
0.003594963
0.003624322
0.003646465
0.003661461
0.003669459
0.003670634
0.003665193
0.003653407
0.00363559
0.003612075
0.003583153
0.00354917
0.003510377
0.003466848
0.003418474
0.003364902
0.003306414
0.003242096
0.003172266
0.003096562
0.003010476
0.002913819
0.002804479
0.002675801
0.00251743
0.002330134
0.002109269
0.001853266
0.001557702
0.001213776
0.0008149188
0.0003842267
5.893888e-05
2.985913e-05
0.0003177504
0.000530596
0.0007149131
0.0009331017
0.001168839
0.001408647
0.001598409
0.001742659
0.001912919
0.002146093
0.00246741
0.002669968
0.00283608
0.002988591
0.00312459
0.003246585
0.003361241
0.003467447
0.003565917
0.003656925
0.00374064
0.003817156
0.003886442
0.003948141
0.004001127
0.004046723
0.00408365
0.004111837
0.004131218
0.004141835
0.004143849
0.004137483
0.004123031
0.004100867
0.004071436
0.004035194
0.003992535
0.003944269
0.003890823
0.003832472
0.003769252
0.003700925
0.003627291
0.003548606
0.003460584
0.003364027
0.003257683
0.003137517
0.002998313
0.00283621
0.002649891
0.002436257
0.002196912
0.001922943
0.001607427
0.00124592
0.0008373423
0.0003981148
5.802165e-05
3.045444e-05
0.0003296475
0.0005907671
0.0008121122
0.001063134
0.001328326
0.001587751
0.001742378
0.001905686
0.002095116
0.002317551
0.002554349
0.002894756
0.003158411
0.003319748
0.003469223
0.003606076
0.003732236
0.003850206
0.003957573
0.004056692
0.004147446
0.004229711
0.004303253
0.004367771
0.004421509
0.004467313
0.004502948
0.004528396
0.0045436
0.004548673
0.004543963
0.004529674
0.004506172
0.004473987
0.00443381
0.004386396
0.004332379
0.004272777
0.004208093
0.004138667
0.004064619
0.003987905
0.003906663
0.003817808
0.003722555
0.00361921
0.003504354
0.003374416
0.00322657
0.00305814
0.002865321
0.00264115
0.002383496
0.002084469
0.001740575
0.001348138
0.0009069751
0.0004325353
5.854008e-05
3.145854e-05
0.0003380795
0.0006428539
0.0008976834
0.001173324
0.001459338
0.00173033
0.001872336
0.002017329
0.002182549
0.00236996
0.002573818
0.002890217
0.003112241
0.003369334
0.00377751
0.003927124
0.004067432
0.004196654
0.004314038
0.004421062
0.004516676
0.004601727
0.004676196
0.004740049
0.004790616
0.004833447
0.004864874
0.004885584
0.00489526
0.004894044
0.004882314
0.004860359
0.004828655
0.004787777
0.004738401
0.004681216
0.004616874
0.004547917
0.00447484
0.004397405
0.004315246
0.004226298
0.004131804
0.004031847
0.003924945
0.003808392
0.003679251
0.003534791
0.003372027
0.003187207
0.002976066
0.002733098
0.002456443
0.002140341
0.001777729
0.001372045
0.0009209367
0.0004432192
5.795203e-05
3.222499e-05
0.0003433992
0.0006864021
0.0009705809
0.001264363
0.001564028
0.001822343
0.001942991
0.002058821
0.002190244
0.002335932
0.002499273
0.002680223
0.002941216
0.003182343
0.003335448
0.003684573
0.004120231
0.004512596
0.004638317
0.004751719
0.004850321
0.004934539
0.005005229
0.005063583
0.005110215
0.00514519
0.005169844
0.005183447
0.005186368
0.005178722
0.005160726
0.00513265
0.005095019
0.005048625
0.004994378
0.00493307
0.004865456
0.004790169
0.004708023
0.004620572
0.00452895
0.004433003
0.00433204
0.004224963
0.004110147
0.003985579
0.00384889
0.003696793
0.003526411
0.003333413
0.003112939
0.002859901
0.002570066
0.002237514
0.001857648
0.001431677
0.0009613443
0.0004626689
5.833413e-05
3.35556e-05
0.0003462566
0.0007201382
0.001030608
0.00133748
0.001644173
0.001850148
0.00194282
0.002026127
0.002120289
0.002222818
0.002337347
0.002470801
0.002651994
0.00280695
0.002959057
0.00313934
0.003374015
0.003653952
0.003996535
0.004465304
0.00504446
0.005189949
0.005260123
0.005316248
0.005358872
0.005387651
0.005407502
0.005417163
0.005416968
0.005406945
0.005386899
0.005356477
0.00531509
0.005264061
0.005205479
0.005139421
0.005066231
0.004986653
0.004901125
0.004810159
0.004714149
0.004613242
0.0045058
0.004390205
0.004265907
0.004131292
0.00398404
0.003821691
0.003639953
0.003434596
0.00319895
0.002931636
0.002627081
0.00227566
0.001868768
0.001448485
0.0009720394
0.0004698878
5.800176e-05
3.501748e-05
0.0003436101
0.0007429789
0.001075952
0.001393343
0.001703411
0.001839235
0.001907918
0.001973385
0.002047877
0.002127653
0.002214672
0.002299585
0.002403492
0.002534001
0.002669402
0.002807631
0.002975757
0.003170509
0.003397908
0.003674901
0.004030278
0.004531055
0.005210381
0.005491814
0.005528254
0.005552598
0.005565314
0.005568721
0.005563169
0.005549303
0.005527635
0.005498718
0.00546338
0.005420266
0.005367284
0.005304849
0.005233627
0.005154264
0.005067348
0.004973342
0.004872479
0.004764653
0.004650792
0.004530728
0.004401796
0.004261457
0.004107083
0.003935701
0.003744112
0.003529059
0.003286851
0.003012072
0.002697978
0.00232732
0.001923352
0.001487385
0.0009958329
0.0004812917
5.82184e-05
3.645469e-05
0.0003428005
0.0007583131
0.0011141
0.00143968
0.001720632
0.001817414
0.001867125
0.001915621
0.001973184
0.002037835
0.002108373
0.002181807
0.002269138
0.002371754
0.002489801
0.002614415
0.00274497
0.002896593
0.003079698
0.003310747
0.003612438
0.004023687
0.004615487
0.005434089
0.005623949
0.005646828
0.005660785
0.00566657
0.005665304
0.005656868
0.005641072
0.005617456
0.005585401
0.005544437
0.005494331
0.00543508
0.005366886
0.005290094
0.005205099
0.00511224
0.005011681
0.004903292
0.004786535
0.004660474
0.004523858
0.00437494
0.004211495
0.00403079
0.003829497
0.003604089
0.003349546
0.003050913
0.002715505
0.002338584
0.001932873
0.001501905
0.001004675
0.0004863986
5.808667e-05
3.800863e-05
0.0003352029
0.0007639214
0.001134694
0.001465794
0.001683813
0.001767641
0.001813541
0.001858551
0.001909916
0.001963976
0.002018833
0.002094175
0.002188359
0.002286568
0.002381564
0.00248546
0.002606992
0.002746701
0.002912839
0.003123781
0.003416566
0.003848677
0.004472787
0.005253281
0.005638397
0.005668902
0.005690463
0.005704598
0.005711908
0.005712738
0.005706519
0.005692513
0.005669855
0.00563773
0.005595517
0.005542871
0.005479748
0.005406363
0.005323092
0.005230351
0.005128437
0.005017398
0.004896904
0.004766167
0.004623906
0.004468385
0.004297366
0.004108481
0.003818461
0.003552836
0.003319279
0.003063338
0.00274934
0.002379269
0.001972198
0.001524993
0.001018944
0.0004932653
5.818122e-05
3.926505e-05
0.0003309804
0.0007679934
0.001154064
0.001489991
0.001673558
0.001752116
0.001797496
0.001840149
0.00188976
0.001954624
0.002026767
0.002115297
0.002203657
0.00229541
0.002376964
0.002472855
0.002589209
0.002720224
0.002878295
0.003091853
0.003409758
0.003895704
0.00458595
0.005357855
0.005598362
0.005639213
0.005671766
0.005697479
0.005716953
0.00573006
0.005736103
0.005734002
0.005722558
0.005700649
0.005667408
0.005622323
0.005565262
0.005496423
0.005416221
0.005325132
0.005223527
0.005111513
0.004988801
0.004854628
0.004707725
0.004546317
0.004308174
0.003962964
0.00370166
0.003510964
0.003323627
0.00308297
0.002768225
0.002392465
0.001980844
0.001536749
0.001026581
0.0004966513
5.819723e-05
4.053588e-05
0.0003239328
0.0007634565
0.001160149
0.001501834
0.001666498
0.001746627
0.001800354
0.001850843
0.001905632
0.001964646
0.002040914
0.002122949
0.002212392
0.00230246
0.002404639
0.002510322
0.002619041
0.002741595
0.002899141
0.003130936
0.00349532
0.00405558
0.004801875
0.00546406
0.005525384
0.00557746
0.005622384
0.00566131
0.005694509
0.00572149
0.005741096
0.005752101
0.005752827
0.005741913
0.005718323
0.00568145
0.005631135
0.005567591
0.005491276
0.005402713
0.005302309
0.005190192
0.00506609
0.004929264
0.004778504
0.004538746
0.004135967
0.003840772
0.003651355
0.003503611
0.003336546
0.003105847
0.002797014
0.002424812
0.002011885
0.001554275
0.00103709
0.0005019546
5.820785e-05
4.160355e-05
0.0003173707
0.0007564544
0.001162299
0.001489067
0.001637049
0.001717552
0.001775884
0.001831292
0.001893912
0.001962781
0.002048967
0.002138317
0.002229797
0.002313333
0.002412479
0.002518319
0.002628416
0.002754323
0.002926637
0.003195992
0.003633387
0.004285759
0.00504765
0.005366103
0.005436546
0.005499629
0.005557012
0.005609422
0.005656673
0.005697825
0.005731141
0.005755688
0.005768621
0.00576874
0.005754871
0.005726346
0.005683
0.005625076
0.005553063
0.00546751
0.005368828
0.005257131
0.005132125
0.004993057
0.00483283
0.004371313
0.004005725
0.003776208
0.003632535
0.003511181
0.003356129
0.003128504
0.002817566
0.002440518
0.002022695
0.001564142
0.001043454
0.0005045183
5.825363e-05
4.253285e-05
0.000311796
0.0007480014
0.001159252
0.001481891
0.001632907
0.001719278
0.001787451
0.001854431
0.001927294
0.002010144
0.002093127
0.002177099
0.002263531
0.002367077
0.002472798
0.002576656
0.00268355
0.002815345
0.003013955
0.003344575
0.003875531
0.004584015
0.005179014
0.005264882
0.005343395
0.005416714
0.005485992
0.005551438
0.005612346
0.005667291
0.005714048
0.005751321
0.005776128
0.005786969
0.005782576
0.005762254
0.00572585
0.005673632
0.005606108
0.005523829
0.005427189
0.005316283
0.005190805
0.005050016
0.004677815
0.00423621
0.003932687
0.003755376
0.003641932
0.003534184
0.003383343
0.003156651
0.002846203
0.00246937
0.002048398
0.001578653
0.001052696
0.0005091294
5.826269e-05
4.329897e-05
0.0003059621
0.000738001
0.001153186
0.001474962
0.001632051
0.001727968
0.001807103
0.001884446
0.0019634
0.002046544
0.002133354
0.002228375
0.002330668
0.002436162
0.002537976
0.002637383
0.002745384
0.002894354
0.003138653
0.003551264
0.004160978
0.004860031
0.005077256
0.005167516
0.005253132
0.005335802
0.005416158
0.005493827
0.00556757
0.005635483
0.005694868
0.005744057
0.005780076
0.005801035
0.005805614
0.005793108
0.00576337
0.005716675
0.005653523
0.005574438
0.005479778
0.005369603
0.005243585
0.005051483
0.004549655
0.004145649
0.003896659
0.003755818
0.0036601
0.003558264
0.003408001
0.003179762
0.002866512
0.002485991
0.002061442
0.001586975
0.001057709
0.0005111746
5.825554e-05
4.394026e-05
0.0003014115
0.0007283476
0.001145374
0.001461617
0.001623607
0.001727153
0.001814981
0.00190113
0.001989338
0.002080668
0.002175487
0.002275097
0.002379883
0.002485945
0.00258817
0.002689178
0.002809653
0.0029943
0.003305427
0.003794408
0.004429719
0.004884111
0.004982671
0.005076988
0.005169206
0.00526057
0.005351206
0.005440216
0.00552584
0.005605723
0.005676717
0.005736798
0.00578375
0.005813982
0.005826866
0.005821654
0.005798178
0.005756686
0.005697646
0.005621539
0.005528685
0.005419127
0.005292558
0.004928887
0.00444581
0.004098525
0.003896094
0.003778958
0.003691423
0.003590165
0.003438299
0.003208253
0.002893601
0.002512414
0.002084544
0.001599307
0.001066018
0.000515219
5.826124e-05
4.444307e-05
0.0002973006
0.0007185814
0.001135982
0.001446673
0.001614266
0.001726069
0.00182275
0.001917559
0.00201387
0.002112677
0.002214862
0.002321029
0.002429615
0.002536171
0.00263841
0.002745546
0.002888721
0.003119677
0.00350012
0.004054714
0.004673846
0.004796482
0.004896401
0.004994757
0.005093307
0.005192867
0.005293076
0.005392575
0.005489126
0.005579962
0.005661793
0.005732042
0.005788428
0.005827255
0.005847813
0.005849324
0.005831586
0.00579481
0.005739413
0.005665824
0.005574319
0.005464914
0.005337297
0.004829157
0.004373877
0.004078418
0.003909655
0.003805377
0.003719
0.003615479
0.003461188
0.003228918
0.002911686
0.002526459
0.002093725
0.001606508
0.001069916
0.0005162614
5.820679e-05
4.486995e-05
0.000294198
0.0007099612
0.001126507
0.001429685
0.001602384
0.001722895
0.001828691
0.001932476
0.002037671
0.002145207
0.002255368
0.002367364
0.002478415
0.002585077
0.002689466
0.002809956
0.00299002
0.003287346
0.003740336
0.004299749
0.004614224
0.004717311
0.004818997
0.00492152
0.005026252
0.005133543
0.005242712
0.005351917
0.005458493
0.00555922
0.005651046
0.00573048
0.005795395
0.005841973
0.005869446
0.005876988
0.00586435
0.005831694
0.005779388
0.005707821
0.00561725
0.005507694
0.005247693
0.004740436
0.004332009
0.004075961
0.003928744
0.003833525
0.003747409
0.003641819
0.003486137
0.003253404
0.002933816
0.002542768
0.002104333
0.00161635
0.001075917
0.0005186481
5.824432e-05
4.523129e-05
0.0002908867
0.000701459
0.001116519
0.001410383
0.001588203
0.001717942
0.001833199
0.001946216
0.002060641
0.002177236
0.0022954
0.002412912
0.002526271
0.002634335
0.00274649
0.002892583
0.003124606
0.003486529
0.003978858
0.004437948
0.004542873
0.004646344
0.004750636
0.004857654
0.004968506
0.005083233
0.005200732
0.005318871
0.005434618
0.005544293
0.005644904
0.005732595
0.005805159
0.005858599
0.005892138
0.0059049
0.005896588
0.005867315
0.00581741
0.005747238
0.005657069
0.005546982
0.005162025
0.004680583
0.004321562
0.004098061
0.00396376
0.003864519
0.003771929
0.003662635
0.003504618
0.003268714
0.002946058
0.002553386
0.002114103
0.001622943
0.001079332
0.0005198468
5.822692e-05
4.551085e-05
0.0002884281
0.0006942691
0.001107339
0.001389502
0.001572538
0.001711589
0.00183633
0.00195878
0.002082818
0.002208702
0.002334509
0.002456673
0.002572341
0.002685338
0.002814452
0.002999481
0.003290411
0.003717453
0.00420957
0.00437828
0.004481704
0.004585422
0.004692119
0.004803498
0.004920271
0.005042073
0.005167412
0.005293769
0.005417849
0.005535519
0.005643921
0.005738857
0.005818102
0.005877424
0.005916089
0.005933182
0.005928367
0.005901719
0.005853538
0.005784177
0.005693922
0.005582897
0.005105566
0.004643394
0.004327163
0.004128634
0.003997466
0.003895513
0.003800324
0.003687337
0.003526009
0.003288574
0.002965957
0.002573511
0.00213265
0.001630997
0.001084681
0.0005221314
5.822431e-05
4.575215e-05
0.0002868038
0.0006883843
0.001098766
0.001368565
0.001555914
0.001704162
0.00183871
0.001971106
0.00210519
0.002240324
0.002373086
0.002499273
0.002618619
0.002742389
0.00290047
0.003142421
0.003499432
0.003941932
0.004220589
0.004323724
0.004426662
0.004532092
0.004642207
0.004758444
0.004881251
0.00500995
0.005142721
0.005276716
0.005408332
0.005533259
0.005648484
0.00574962
0.005834479
0.005898611
0.005941376
0.005961833
0.005959625
0.005934812
0.005887684
0.005818606
0.005727883
0.005548791
0.005054324
0.004625144
0.004333931
0.004149004
0.004022776
0.003921945
0.003822857
0.003704705
0.00353904
0.003299487
0.002975615
0.002581793
0.002139116
0.001636751
0.001087575
0.0005229311
5.820557e-05
4.594081e-05
0.0002859623
0.0006838598
0.001081602
0.0013472
0.001538936
0.001695942
0.001840593
0.001983525
0.002127935
0.002271834
0.002410397
0.002540362
0.002667372
0.002813405
0.003018915
0.003321764
0.003716256
0.004072183
0.004175172
0.004276278
0.004379048
0.004486402
0.004600258
0.004721719
0.004850851
0.004986567
0.005126656
0.005267911
0.005406199
0.005538008
0.005659034
0.005765434
0.005854248
0.005922156
0.005967985
0.005990811
0.005990292
0.005966502
0.005919752
0.005850439
0.00575892
0.005489881
0.005012521
0.004617824
0.004352067
0.004177567
0.004050923
0.003943694
0.00383832
0.003716176
0.003549949
0.00331169
0.00298947
0.002595786
0.00215099
0.00164349
0.001091653
0.0005244709
5.819469e-05
4.612326e-05
0.0002860869
0.0006803343
0.001061923
0.001325853
0.001522382
0.001687826
0.001842702
0.001996587
0.002151262
0.00230299
0.002446767
0.002583561
0.002728056
0.00291191
0.003169818
0.003522259
0.00391439
0.004028974
0.004129716
0.00423174
0.004337337
0.004448633
0.004567492
0.004694834
0.004830465
0.004973004
0.005119938
0.005267831
0.005412066
0.00554946
0.005675314
0.005785973
0.005877651
0.005948176
0.005995957
0.006020116
0.006020355
0.005996787
0.005949766
0.005879742
0.005787135
0.005452155
0.004991586
0.004624348
0.004374277
0.004203498
0.004074313
0.003962662
0.003853188
0.003728248
0.003560816
0.003322464
0.003000245
0.002605754
0.002159019
0.001648771
0.001094369
0.0005251929
5.817624e-05
4.627546e-05
0.0002868078
0.0006783019
0.00104282
0.001304661
0.00150596
0.001679849
0.001845272
0.002010229
0.002174513
0.002333254
0.00248354
0.002633178
0.002807096
0.003037488
0.003353116
0.003713774
0.003891892
0.003992946
0.004093471
0.004196458
0.004304552
0.004419929
0.004544077
0.004677545
0.004819766
0.004968995
0.005122383
0.005276062
0.005426058
0.005567889
0.005697341
0.005811005
0.005904722
0.005976639
0.006025234
0.0060497
0.006049801
0.006025707
0.005977831
0.005906686
0.005812761
0.005433218
0.004988071
0.004641833
0.004401927
0.004231282
0.004097188
0.003979655
0.003865566
0.003738277
0.003570694
0.003333544
0.003012541
0.002617673
0.002167033
0.001654459
0.001097534
0.0005261878
5.815368e-05
4.644749e-05
0.0002880741
0.0006770934
0.001023148
0.001282393
0.001489123
0.001672185
0.001848591
0.002024395
0.002197463
0.002363087
0.002523539
0.002697359
0.002913062
0.003198243
0.003533778
0.003757566
0.003860155
0.003960667
0.004062168
0.004167569
0.004279443
0.004399796
0.004529844
0.004669797
0.00481872
0.004974509
0.005134011
0.005292805
0.005447351
0.005592722
0.005724733
0.005840301
0.005934959
0.00600718
0.006055565
0.006079411
0.00607857
0.006053291
0.006004056
0.005931446
0.005836017
0.005428805
0.004996823
0.004664439
0.00442885
0.004255245
0.004115553
0.003992887
0.003875393
0.003746716
0.003579408
0.003343342
0.003023078
0.002627611
0.002174377
0.001659359
0.001100001
0.0005267975
5.813434e-05
4.66019e-05
0.0002896768
0.0006770668
0.001004219
0.001260672
0.001473149
0.001665866
0.001853309
0.002039356
0.002220866
0.002396457
0.002576785
0.002785961
0.003050803
0.003366693
0.003624923
0.003730183
0.003831807
0.003932902
0.004036497
0.004145406
0.004262033
0.004388143
0.004524637
0.004671355
0.004826975
0.004989022
0.005153944
0.005317778
0.005475848
0.0056237
0.00575717
0.005873507
0.005968006
0.006039509
0.006086752
0.006109158
0.006106683
0.006079667
0.006028672
0.005954344
0.005856637
0.005437964
0.005017766
0.004692994
0.004456907
0.004278101
0.004132176
0.004004506
0.003884124
0.003754749
0.003588488
0.0033542
0.003035156
0.002639115
0.002182066
0.001664538
0.001102611
0.0005274758
5.809845e-05
4.676937e-05
0.0002920511
0.0006782415
0.000985669
0.001239875
0.001458937
0.00166175
0.00186
0.002055769
0.002247001
0.002438506
0.00264877
0.002901974
0.003203433
0.003491739
0.003601206
0.003705311
0.003807223
0.00391008
0.004016871
0.004130282
0.004252511
0.00438504
0.00452842
0.004682105
0.004844384
0.005012442
0.005182134
0.005349935
0.005510795
0.005660246
0.00579429
0.005909989
0.006003403
0.006073311
0.006118617
0.006138888
0.006134207
0.006105012
0.00605195
0.005975736
0.005864615
0.005457523
0.005046749
0.004724108
0.004484173
0.004298838
0.004146547
0.004014373
0.003891879
0.003762536
0.003597662
0.003364845
0.003046312
0.002649186
0.002189258
0.001669173
0.001104712
0.0005275242
5.80732e-05
4.694509e-05
0.0002947653
0.0006738261
0.0009691592
0.00122053
0.001445715
0.001658608
0.001867281
0.002073065
0.002278158
0.002494841
0.002743905
0.003038814
0.003343813
0.003470782
0.003579092
0.003683343
0.003786781
0.003892554
0.004003588
0.004122413
0.004250984
0.004390464
0.004541017
0.004701686
0.004870357
0.005043784
0.005218223
0.005389077
0.005551704
0.00570174
0.005835617
0.005949396
0.006040881
0.00610842
0.006151098
0.006168651
0.006161297
0.006129581
0.006074234
0.005996032
0.005881957
0.00548564
0.005080977
0.004757118
0.004511156
0.004318346
0.004159555
0.004023103
0.003898758
0.003769595
0.003606639
0.003376182
0.003058922
0.002660782
0.002196873
0.001674088
0.001107016
0.000527974
5.80354e-05
4.714344e-05
0.0002976141
0.0006645031
0.0009537456
0.00120425
0.001435066
0.001657206
0.001876191
0.002094772
0.002320837
0.002571929
0.002863413
0.003168197
0.003337196
0.003451404
0.003559578
0.003665054
0.003771093
0.003880807
0.003997014
0.004122049
0.004257584
0.004404424
0.004562331
0.004729934
0.004904746
0.00508292
0.005261088
0.005434216
0.00559775
0.005747431
0.00588013
0.005991645
0.006080331
0.006144752
0.006184186
0.00619853
0.006188133
0.006153642
0.006095862
0.006015621
0.005905263
0.005518968
0.005118072
0.004790654
0.004537301
0.004336556
0.004171349
0.004031015
0.003905812
0.003778655
0.003618778
0.003388716
0.003070727
0.002671462
0.002204165
0.00167862
0.001108977
0.0005280778
5.800351e-05
4.731888e-05
0.0003008637
0.0006557286
0.0009404711
0.001191694
0.001427856
0.001658594
0.001888685
0.002124721
0.002380988
0.002672117
0.002980761
0.003197055
0.00331952
0.00343367
0.003542964
0.003650832
0.003760556
0.003875196
0.003997436
0.004129375
0.004272367
0.004426826
0.004592088
0.004766353
0.004946642
0.005129509
0.005310481
0.00548504
0.005648585
0.005797031
0.005927649
0.006036163
0.006121384
0.006182114
0.006217834
0.006228606
0.006214908
0.006177483
0.006117196
0.006034911
0.005931379
0.005556332
0.005157547
0.004825159
0.004563827
0.004355254
0.004184295
0.004041564
0.003915434
0.003785449
0.003623978
0.003400078
0.003086599
0.002687405
0.00221189
0.0016834
0.001111226
0.000528248
5.795421e-05
4.757824e-05
0.0003041356
0.0006505076
0.0009278429
0.001179156
0.001420729
0.001660418
0.00190491
0.002165698
0.00245707
0.002773335
0.003048428
0.003181679
0.003303705
0.003418672
0.003530065
0.003641324
0.003755699
0.003876147
0.004005174
0.004144607
0.004295445
0.004457693
0.004630257
0.004810945
0.004996196
0.00518284
0.005365988
0.005541142
0.005703906
0.005850568
0.005977589
0.006082558
0.006163808
0.006220411
0.006252067
0.006259013
0.006241853
0.006201416
0.006138617
0.006054336
0.005949314
0.005592538
0.005196392
0.004857941
0.004587862
0.004371125
0.004194752
0.004047704
0.00391789
0.003791355
0.003638708
0.003415018
0.003099522
0.00269833
0.002219008
0.001687548
0.001112433
0.0005281414
5.7923e-05
4.779742e-05
0.0003076526
0.0006453863
0.0009171684
0.001169158
0.001416629
0.001667003
0.001930237
0.002220746
0.002543873
0.002864028
0.00303518
0.003167405
0.003290091
0.003406923
0.003521437
0.003637069
0.003757002
0.003884065
0.004020545
0.004167951
0.004326891
0.004496933
0.004676545
0.004862983
0.005053097
0.005242575
0.005427058
0.005601931
0.005763005
0.005907025
0.006030292
0.006130981
0.006207686
0.006259727
0.006287021
0.006289951
0.006269235
0.006225774
0.00616051
0.006074319
0.005967911
0.005627301
0.005233223
0.004888769
0.004610293
0.004386254
0.004203041
0.004050322
0.003922561
0.00380337
0.003653807
0.003432879
0.003116261
0.002709041
0.0022269
0.001692414
0.001114515
0.0005281791
5.787097e-05
4.8075e-05
0.0003116265
0.0006403468
0.0009086633
0.001162158
0.001415752
0.00167906
0.001965926
0.002287008
0.002623481
0.002877311
0.003022578
0.003155174
0.003279427
0.003399069
0.003517651
0.003638573
0.003764928
0.003899357
0.004043882
0.004199657
0.004366876
0.004544673
0.004731101
0.00492287
0.005116981
0.005308621
0.005493504
0.005667217
0.005825775
0.005966335
0.006085238
0.006181122
0.006252869
0.006300049
0.00632278
0.006321595
0.006297312
0.006250877
0.006183244
0.006095259
0.00598758
0.005661181
0.005269009
0.004919383
0.004632984
0.004399072
0.004207992
0.004056723
0.003934992
0.003817716
0.003668255
0.003448852
0.003132713
0.002719731
0.002234603
0.001696909
0.00111614
0.0005280839
5.783466e-05
4.834292e-05
0.0003154182
0.0006370515
0.0009020087
0.001157004
0.001417952
0.001696981
0.002008237
0.002353308
0.002688684
0.002866174
0.003011442
0.00314547
0.003272309
0.00339575
0.003519353
0.00364647
0.003780056
0.003922522
0.004075576
0.004239983
0.004415498
0.004600802
0.004793365
0.004990254
0.005187233
0.00538036
0.005564913
0.005736719
0.005892171
0.006028041
0.006142111
0.006232787
0.006299269
0.006341383
0.006359448
0.006354134
0.006326339
0.006277038
0.006207168
0.006117526
0.006008693
0.00569197
0.005301009
0.004945697
0.004648899
0.004407121
0.004216562
0.0040687
0.003947789
0.003829806
0.003682856
0.003466221
0.003150396
0.002730862
0.002242743
0.001701987
0.001118154
0.0005280284
5.777749e-05
4.865123e-05
0.000319674
0.0006345905
0.0008966369
0.001153887
0.001424022
0.001721544
0.002057341
0.002412234
0.0026955
0.002856457
0.003002776
0.003139066
0.003269409
0.003397601
0.003527165
0.003661349
0.003802915
0.003954011
0.004115998
0.004289217
0.004472962
0.004665462
0.004863911
0.00506483
0.005264367
0.00545789
0.005641106
0.005810056
0.005961567
0.006092486
0.00620102
0.006286008
0.006346918
0.006383804
0.006397154
0.006387755
0.006356555
0.006304532
0.006232582
0.006141428
0.006031553
0.005721748
0.005329703
0.004965222
0.004660487
0.004419362
0.004230822
0.004082117
0.003958541
0.003841724
0.003697485
0.003483503
0.003167774
0.002742124
0.002250822
0.001706765
0.001119788
0.0005278903
5.774134e-05
4.895358e-05
0.0003238876
0.0006336417
0.0008935264
0.001153835
0.001434225
0.001749867
0.002104919
0.002460336
0.00268667
0.002848483
0.002996942
0.003136535
0.003271402
0.003405339
0.003541798
0.003683884
0.003834145
0.003994423
0.004165683
0.004347814
0.004539643
0.004738818
0.004942453
0.005146946
0.005347824
0.005540782
0.005721704
0.005886905
0.006033594
0.006158914
0.00626152
0.006340532
0.006395707
0.006427314
0.006435998
0.00642263
0.006388187
0.006333623
0.006259769
0.006167252
0.006056443
0.005747158
0.005349639
0.004982294
0.004679475
0.004436768
0.004245307
0.004092737
0.003969182
0.003854352
0.003713319
0.003501843
0.003185915
0.002753777
0.002259204
0.001711784
0.001121745
0.0005277558
5.767749e-05
4.928865e-05
0.0003285429
0.0006334046
0.0008919693
0.00115673
0.001448898
0.00178165
0.002148121
0.002495266
0.00267958
0.002843179
0.002994664
0.003138532
0.00327892
0.003419577
0.003563851
0.003714667
0.003874301
0.004044236
0.004224992
0.004415974
0.004615498
0.004820911
0.005029176
0.005236027
0.005437237
0.005628622
0.005806312
0.005967007
0.006107941
0.00622714
0.006323429
0.006396241
0.006445596
0.006471958
0.00647609
0.006458926
0.006421438
0.006364531
0.00628895
0.00619521
0.006083556
0.005765914
0.005368306
0.005004753
0.004701257
0.004454652
0.004258348
0.004104045
0.003980388
0.003867579
0.003729949
0.003521164
0.003205055
0.002765682
0.002267691
0.001716823
0.001123569
0.0005275738
5.763662e-05
4.962519e-05
0.0003331161
0.0006345021
0.0008922537
0.001161503
0.001465053
0.001812441
0.00218239
0.002492775
0.002674935
0.002841249
0.002996746
0.003145916
0.003292853
0.003441204
0.003594183
0.003754492
0.003924087
0.004104025