/*--------------------------------*- C++ -*----------------------------------*\
| =========                 |                                                 |
| \\      /  F ield         | OpenFOAM: The Open Source CFD Toolbox           |
|  \\    /   O peration     | Version:  2312                                  |
|   \\  /    A nd           | Website:  www.openfoam.com                      |
|    \\/     M anipulation  |                                                 |
\*---------------------------------------------------------------------------*/
FoamFile
{
    version     2.0;
    format      ascii;
    arch        "LSB;label=32;scalar=64";
    class       surfaceScalarField;
    location    "1500";
    object      phi;
}
// * * * * * * * * * * * * * * * * * * * * * * * * * * * * * * * * * * * * * //

dimensions      [1 0 -1 0 0 0 0];

oriented        oriented;

internalField   nonuniform List<scalar> 
23740
(
-0.000105364
0.0001049053
-0.0002083804
0.0001030165
-0.0003148376
0.0001064573
-0.0004248908
0.0001100534
-0.0005378829
0.0001129922
-0.000644768
0.0001068854
-0.0007354765
9.070871e-05
-0.0008168564
8.138017e-05
-0.0009006119
8.375571e-05
-0.0009920789
9.146722e-05
-0.001067128
7.50493e-05
-0.001120988
5.385966e-05
-0.001172982
5.199492e-05
-0.001238261
6.527895e-05
-0.00130034
6.207922e-05
-0.00134127
4.092989e-05
-0.001373423
3.215257e-05
-0.001415407
4.198411e-05
-0.00145908
4.367352e-05
-0.001489442
3.036205e-05
-0.001512969
2.352654e-05
-0.001540856
2.788663e-05
-0.001567731
2.687528e-05
-0.001587099
1.936847e-05
-0.001604908
1.780848e-05
-0.001624459
1.955155e-05
-0.001639817
1.535843e-05
-0.001650683
1.086597e-05
-0.001663961
1.327761e-05
-0.001677794
1.383395e-05
-0.001687178
9.383568e-06
-0.001693279
6.101908e-06
-0.001699902
6.623243e-06
-0.001707282
7.379248e-06
-0.001713555
6.273439e-06
-0.001716591
3.036171e-06
-0.001716384
-2.067819e-07
-0.001712264
-4.119495e-06
-0.001709005
-3.258984e-06
-0.001709702
6.975014e-07
-0.001709749
4.687774e-08
-0.00170158
-8.168478e-06
-0.001681149
-2.043135e-05
-0.00166041
-2.073863e-05
-0.001652847
-7.562648e-06
-0.001650727
-2.119475e-06
-0.001626969
-2.375772e-05
-0.001578014
-4.895526e-05
-0.001537472
-4.054137e-05
-0.001513532
-2.393947e-05
-0.001467696
-4.58357e-05
-0.001390026
-7.766976e-05
-0.001308525
-8.150148e-05
-0.001226294
-8.223048e-05
-0.001116672
-0.0001096218
-0.0009806308
-0.0001360416
-0.0008031416
-0.0001774892
-0.0005802113
-0.0002229306
-0.000301162
-0.0002790496
-0.0003011621
-0.0001094565
0.0002143617
-0.0002166383
0.0002101983
-0.0003180535
0.0002078726
-0.0004106333
0.0002026333
-0.0004918532
0.0001942122
-0.0005707137
0.000185746
-0.0006515127
0.0001715079
-0.0007251645
0.0001550322
-0.0007888465
0.0001474379
-0.0008353513
0.0001379722
-0.0008866839
0.0001263821
-0.0009455646
0.0001127405
-0.0009963036
0.000102734
-0.001027672
9.664735e-05
-0.001054462
8.886936e-05
-0.001091667
7.813492e-05
-0.001129116
6.96013e-05
-0.001151298
6.41659e-05
-0.001166097
5.847301e-05
-0.001187
5.126469e-05
-0.001208525
4.505199e-05
-0.001221068
4.042931e-05
-0.001229928
3.573614e-05
-0.001241316
3.07564e-05
-0.00125022
2.671265e-05
-0.001254057
2.338873e-05
-0.001259024
2.032571e-05
-0.001264154
1.59957e-05
-0.001264693
1.381666e-05
-0.001261732
1.087327e-05
-0.001259865
7.516833e-06
-0.001258486
4.723097e-06
-0.001254248
2.385902e-06
-0.00124712
2.517024e-07
-0.001238812
-2.034218e-06
-0.001230985
-4.790088e-06
-0.001223221
-7.971166e-06
-0.001215989
-1.135135e-05
-0.00120522
-1.402721e-05
-0.001188366
-1.615636e-05
-0.001169254
-1.906494e-05
-0.00115392
-2.350259e-05
-0.001145252
-2.909835e-05
-0.001131695
-3.429541e-05
-0.001100574
-3.868363e-05
-0.001058968
-4.372489e-05
-0.001031147
-5.157861e-05
-0.001018644
-6.145725e-05
-0.0009880484
-7.113668e-05
-0.0009305456
-8.144174e-05
-0.0008811336
-9.524731e-05
-0.0008485148
-0.0001102882
-0.0008046181
-0.0001253979
-0.0007420814
-0.0001447671
-0.0006756107
-0.0001760924
-0.0005976346
-0.0002140179
-0.0004963889
-0.000278735
-0.0003680784
-0.0003512413
-0.0002121724
-0.000434956
-0.0005133345
-8.925113e-05
0.0003036129
-0.0001758533
0.0002968005
-0.0002554214
0.0002874408
-0.0003289269
0.000276139
-0.0003958372
0.0002611226
-0.0004561268
0.0002460358
-0.0005159321
0.0002313133
-0.0005732569
0.0002123573
-0.0006286351
0.0002028163
-0.000677593
0.0001869302
-0.0007218758
0.000170665
-0.0007661548
0.0001570195
-0.0008045901
0.0001411693
-0.0008363342
0.0001283915
-0.0008642145
0.0001167496
-0.000891395
0.0001053154
-0.0009167541
9.496039e-05
-0.0009381956
8.560734e-05
-0.0009562628
7.654021e-05
-0.000972673
6.767489e-05
-0.000987126
5.950499e-05
-0.0009987312
5.203456e-05
-0.001007889
4.489375e-05
-0.001015222
3.809015e-05
-0.001020401
3.189124e-05
-0.001024056
2.704388e-05
-0.001025508
2.177817e-05
-0.001025563
1.605121e-05
-0.001023227
1.148088e-05
-0.001019457
7.103102e-06
-0.001014736
2.796305e-06
-0.001008774
-1.238362e-06
-0.001001347
-5.040455e-06
-0.0009923495
-8.745702e-06
-0.0009819079
-1.247551e-05
-0.0009703842
-1.63134e-05
-0.0009580811
-2.027398e-05
-0.0009450532
-2.437895e-05
-0.000930465
-2.861518e-05
-0.000913543
-3.307806e-05
-0.00089455
-3.805771e-05
-0.0008743513
-4.370102e-05
-0.0008534526
-4.999672e-05
-0.0008308765
-5.687112e-05
-0.0008051319
-6.442783e-05
-0.0007759218
-7.293455e-05
-0.0007443925
-8.310744e-05
-0.0007110371
-9.481218e-05
-0.0006742799
-0.0001078933
-0.0006356623
-0.0001200589
-0.0005948927
-0.0001360166
-0.0005501131
-0.0001550676
-0.0004977117
-0.0001777991
-0.0004364063
-0.0002060725
-0.000365651
-0.0002468478
-0.0002849496
-0.0002947193
-0.0002176234
-0.0003460614
-0.0001584457
-0.0004104193
-8.954063e-05
-0.0005038612
-0.0006028751
-6.861645e-05
0.0003722293
-0.0001342467
0.0003624308
-0.0001963535
0.0003495477
-0.0002537407
0.0003335263
-0.0003086455
0.0003160275
-0.0003601197
0.0002975101
-0.0004078918
0.0002790855
-0.0004553343
0.0002597998
-0.000494121
0.0002416031
-0.0005336228
0.000226432
-0.0005715551
0.0002085973
-0.0006091649
0.0001946293
-0.0006460248
0.0001780291
-0.000678483
0.0001608496
-0.0007077918
0.0001460584
-0.0007345992
0.0001321226
-0.0007585405
0.0001189017
-0.0007793057
0.0001063724
-0.0007972012
9.443574e-05
-0.0008125898
8.306344e-05
-0.0008253909
7.230612e-05
-0.0008355272
6.217084e-05
-0.0008432402
5.260684e-05
-0.0008487492
4.359925e-05
-0.0008519843
3.512635e-05
-0.0008531406
2.82003e-05
-0.0008517203
2.035806e-05
-0.0008490456
1.337673e-05
-0.0008445719
7.007357e-06
-0.0008385036
1.035026e-06
-0.0008310886
-4.618443e-06
-0.0008223485
-9.978178e-06
-0.000812287
-1.510169e-05
-0.0008009745
-2.005786e-05
-0.0007885232
-2.492659e-05
-0.0007750434
-2.979295e-05
-0.0007605761
-3.4741e-05
-0.0007451145
-3.984033e-05
-0.0007285288
-4.520062e-05
-0.0007107008
-5.090586e-05
-0.0006916716
-5.708674e-05
-0.0006714539
-6.391848e-05
-0.0006500192
-7.143118e-05
-0.0006269675
-7.992248e-05
-0.0006019345
-8.946048e-05
-0.0005761838
-9.868487e-05
-0.0005488254
-0.0001104655
-0.0005202202
-0.000123417
-0.0004910606
-0.0001370526
-0.0004596267
-0.0001514925
-0.0004236276
-0.0001720154
-0.0003820859
-0.0001966091
-0.0003342107
-0.0002256741
-0.0002820194
-0.0002582637
-0.0002331781
-0.000295689
-0.0001895385
-0.0003383589
-0.0001446795
-0.0003909205
-9.68201e-05
-0.0004582788
-5.197556e-05
-0.0005487059
-0.0006548507
-5.630496e-05
0.0004285342
-0.0001111373
0.0004172632
-0.0001633183
0.0004017287
-0.0002132782
0.0003834863
-0.0002609792
0.0003637285
-0.000306478
0.0003430089
-0.0003493733
0.0003219809
-0.0003900844
0.0003005109
-0.0004273365
0.0002788552
-0.0004594987
0.0002585941
-0.0004910474
0.000240146
-0.0005194625
0.0002230442
-0.0005482391
0.0002068056
-0.0005760734
0.0001886838
-0.0006012791
0.000171264
-0.0006238602
0.0001547036
-0.0006437858
0.0001388272
-0.000661056
0.0001236426
-0.0006757447
0.0001091244
-0.0006879587
9.52774e-05
-0.0006977731
8.212044e-05
-0.0007052657
6.966349e-05
-0.0007105591
5.790025e-05
-0.0007137856
4.682579e-05
-0.000715077
3.641786e-05
-0.0007136134
2.673678e-05
-0.000710861
1.760578e-05
-0.0007065675
9.083329e-06
-0.0007006991
1.139115e-06
-0.0006933781
-6.28575e-06
-0.0006847251
-1.327129e-05
-0.00067483
-1.987307e-05
-0.0006637795
-2.615199e-05
-0.000651653
-3.218414e-05
-0.0006385231
-3.80563e-05
-0.0006244578
-4.385806e-05
-0.000609499
-4.969962e-05
-0.0005937265
-5.56127e-05
-0.0005770914
-6.183554e-05
-0.0005595098
-6.848722e-05
-0.0005409339
-7.566241e-05
-0.0005212932
-8.355899e-05
-0.000501291
-9.143315e-05
-0.0004801123
-0.000101101
-0.0004578981
-0.0001116744
-0.0004343664
-0.0001222163
-0.000410211
-0.0001346205
-0.0003852541
-0.0001483736
-0.0003579073
-0.0001643991
-0.0003254715
-0.000183928
-0.0002903975
-0.0002070892
-0.0002548546
-0.0002321517
-0.0002206213
-0.0002599072
-0.0001875518
-0.0002913331
-0.0001552665
-0.0003279743
-0.0001222959
-0.0003713295
-8.975466e-05
-0.0004234618
-5.948767e-05
-0.0004885459
-3.131401e-05
-0.0005768797
-0.0006861647
-4.532453e-05
0.0004738588
-9.052386e-05
0.0004624626
-0.0001334841
0.000444689
-0.0001745472
0.0004245494
-0.0002137066
0.0004028879
-0.0002511498
0.0003804522
-0.0002869302
0.0003577613
-0.0003213154
0.0003348961
-0.0003546066
0.0003121462
-0.0003860883
0.0002900758
-0.0004148347
0.0002688923
-0.0004403726
0.000248582
-0.0004626048
0.0002290376
-0.0004840396
0.0002101185
-0.0005037744
0.0001909987
-0.0005214794
0.0001724085
-0.0005370291
0.0001543768
-0.0005503922
0.0001370055
-0.0005615965
0.0001203287
-0.0005706864
0.0001043672
-0.0005777089
8.91429e-05
-0.0005827242
7.467886e-05
-0.000585812
6.098803e-05
-0.0005870623
4.807606e-05
-0.0005865823
3.593797e-05
-0.0005844232
2.457766e-05
-0.0005807403
1.392297e-05
-0.000575646
3.989118e-06
-0.00056921
-5.296764e-06
-0.0005615483
-1.394731e-05
-0.0005527689
-2.205056e-05
-0.0005429406
-2.970123e-05
-0.0005321586
-3.693381e-05
-0.0005205117
-4.383086e-05
-0.0005080752
-5.049271e-05
-0.0004949083
-5.702473e-05
-0.0004810343
-6.357349e-05
-0.0004669742
-6.967263e-05
-0.0004523117
-7.649788e-05
-0.0004370937
-8.370503e-05
-0.0004213479
-9.140801e-05
-0.0004051927
-9.971406e-05
-0.0003884635
-0.0001081621
-0.0003711037
-0.0001184605
-0.0003531756
-0.0001296024
-0.0003340669
-0.0001413248
-0.000313946
-0.0001547412
-0.0002915634
-0.0001707559
-0.0002667277
-0.0001892346
-0.0002411458
-0.0002095097
-0.0002163392
-0.0002318956
-0.0001916926
-0.0002567982
-0.0001666608
-0.0002849389
-0.0001410323
-0.0003169615
-0.0001152259
-0.0003537805
-8.981824e-05
-0.0003967372
-6.51457e-05
-0.0004481343
-4.154312e-05
-0.0005121485
-2.061295e-05
-0.0005978099
-0.0007067777
-3.758576e-05
0.0005114446
-7.53536e-05
0.0005002305
-0.0001111267
0.0004804621
-0.0001453308
0.0004587535
-0.000178106
0.0004356631
-0.0002096159
0.000411962
-0.0002399045
0.0003880499
-0.0002688628
0.0003638543
-0.0002962823
0.0003395656
-0.000321865
0.0003156583
-0.0003453197
0.0002923468
-0.0003663951
0.0002696574
-0.0003849723
0.0002476147
-0.0004016343
0.0002267803
-0.000416397
0.0002057614
-0.0004294732
0.0001854846
-0.0004408416
0.0001657452
-0.0004504117
0.0001465756
-0.0004581703
0.0001280871
-0.0004641432
0.0001103401
-0.0004683886
9.338828e-05
-0.0004709864
7.727658e-05
-0.0004720203
6.202199e-05
-0.0004715728
4.762854e-05
-0.0004697295
3.409464e-05
-0.0004665612
2.140946e-05
-0.0004621819
9.543657e-06
-0.0004566846
-1.508115e-06
-0.0004501733
-1.180794e-05
-0.0004427908
-2.132981e-05
-0.0004348121
-3.002911e-05
-0.0004258863
-3.862698e-05
-0.0004162245
-4.659545e-05
-0.0004059487
-5.410656e-05
-0.0003951516
-6.128963e-05
-0.0003838977
-6.827854e-05
-0.000372301
-7.517002e-05
-0.0003603153
-8.165819e-05
-0.0003479384
-8.887465e-05
-0.0003352748
-9.636844e-05
-0.0003223314
-0.0001043513
-0.000309065
-0.0001129803
-0.0002947698
-0.000122457
-0.0002801568
-0.0001330733
-0.0002653788
-0.0001443802
-0.0002495808
-0.0001571226
-0.0002320438
-0.0001722779
-0.0002137704
-0.0001890291
-0.0001954928
-0.000207512
-0.000177073
-0.0002279293
-0.0001583343
-0.0002506341
-0.0001392137
-0.0002759185
-0.0001199205
-0.0003042321
-0.0001006935
-0.0003361883
-8.178165e-05
-0.0003726924
-6.339971e-05
-0.0004151191
-4.585371e-05
-0.0004656803
-2.958636e-05
-0.0005284159
-1.507425e-05
-0.0006123221
-0.0007218519
-3.062643e-05
0.0005420711
-6.151249e-05
0.0005311165
-9.077185e-05
0.0005097215
-0.0001187524
0.0004867341
-0.0001455767
0.0004624874
-0.0001713462
0.0004377315
-0.0001960578
0.0004127614
-0.0002195572
0.0003873536
-0.00024155
0.0003615583
-0.0002617835
0.0003358917
-0.0002800715
0.0003106347
-0.0002963611
0.0002859469
-0.0003106903
0.0002619437
-0.0003229846
0.0002390745
-0.0003338807
0.0002166574
-0.0003429274
0.0001945312
-0.000350339
0.0001731567
-0.0003562848
0.0001525213
-0.0003608803
0.0001326825
-0.0003641221
0.0001135819
-0.0003659842
9.525032e-05
-0.0003665203
7.781258e-05
-0.0003658271
6.132881e-05
-0.0003640078
4.580928e-05
-0.0003611593
3.124606e-05
-0.0003573518
1.760198e-05
-0.0003526709
4.86279e-06
-0.0003476549
-6.524103e-06
-0.0003418653
-1.759742e-05
-0.0003354228
-2.777227e-05
-0.0003283999
-3.705196e-05
-0.0003208776
-4.614925e-05
-0.0003129628
-5.451013e-05
-0.0003047323
-6.233689e-05
-0.0002962595
-6.976236e-05
-0.000287622
-7.691596e-05
-0.0002788665
-8.39254e-05
-0.0002695688
-9.095574e-05
-0.0002602125
-9.823079e-05
-0.0002507333
-0.0001058474
-0.0002410809
-0.0001140035
-0.0002311959
-0.0001228651
-0.0002210322
-0.0001326206
-0.0002107734
-0.0001433318
-0.0001998156
-0.0001553378
-0.0001876762
-0.0001692618
-0.0001753022
-0.0001846517
-0.0001626396
-0.0002016915
-0.0001495621
-0.0002205893
-0.0001359807
-0.0002415105
-0.0001219468
-0.0002646679
-0.0001075274
-0.0002903377
-9.283829e-05
-0.0003189211
-7.803411e-05
-0.0003509924
-6.331313e-05
-0.0003874133
-4.888985e-05
-0.0004295423
-3.500186e-05
-0.0004795683
-2.197396e-05
-0.0005414439
-1.050122e-05
-0.0006237949
-0.0007323532
-2.494413e-05
0.0005670153
-4.999661e-05
0.000556169
-7.338576e-05
0.0005331106
-9.550009e-05
0.0005088484
-0.0001165731
0.0004835603
-0.0001367622
0.0004579205
-0.0001560237
0.0004320229
-0.0001741878
0.0004055176
-0.0001910627
0.0003784332
-0.0002064836
0.0003513125
-0.0002203622
0.0003245132
-0.000232655
0.0002982396
-0.0002433182
0.0002726068
-0.0002519129
0.0002476691
-0.0002590751
0.0002238195
-0.0002648739
0.0002003299
-0.0002691921
0.0001774748
-0.0002721673
0.0001554964
-0.0002739258
0.000134441
-0.000274555
0.000114211
-0.0002741647
9.485995e-05
-0.0002729364
7.658429e-05
-0.0002709544
5.93468e-05
-0.0002682343
4.308913e-05
-0.0002648518
2.78635e-05
-0.0002608851
1.363535e-05
-0.0002568223
7.999542e-07
-0.0002523316
-1.101474e-05
-0.000247426
-2.250305e-05
-0.0002421045
-3.309369e-05
-0.0002362582
-4.289824e-05
-0.0002304069
-5.200052e-05
-0.0002244628
-6.045412e-05
-0.0002184358
-6.836375e-05
-0.0002123494
-7.584872e-05
-0.0002062221
-8.30431e-05
-0.0002000514
-9.009595e-05
-0.0001938404
-9.716663e-05
-0.0001876178
-0.0001044532
-0.0001813381
-0.000112127
-0.0001749606
-0.0001203809
-0.0001684226
-0.0001294029
-0.0001616733
-0.0001393697
-0.0001544727
-0.0001505322
-0.0001465498
-0.0001632606
-0.0001384307
-0.0001773806
-0.0001299554
-0.0001931268
-0.0001210008
-0.0002106458
-0.0001115174
-0.0002300726
-0.0001014855
-0.0002515422
-9.094076e-05
-0.0002752124
-7.997612e-05
-0.0003013022
-6.874781e-05
-0.0003301493
-5.746205e-05
-0.0003622781
-4.634585e-05
-0.0003985295
-3.557974e-05
-0.0004403084
-2.538225e-05
-0.0004897659
-1.609311e-05
-0.0005507331
-8.045707e-06
-0.0006318425
-0.0007403989
-1.932872e-05
0.000586344
-3.874942e-05
0.0005755897
-5.666422e-05
0.0005510254
-7.353114e-05
0.0005257152
-8.962624e-05
0.0004996554
-0.0001051263
0.0004734205
-0.0001199013
0.0004467978
-0.000133689
0.0004193052
-0.0001463616
0.0003911058
-0.0001577962
0.000362747
-0.0001679086
0.0003346255
-0.0001766263
0.0003069571
-0.0001838939
0.0002798744
-0.0001897373
0.0002535124
-0.0001940175
0.0002280997
-0.0001971051
0.0002034174
-0.0001990411
0.0001794108
-0.0001998085
0.0001562637
-0.0001994325
0.0001340649
-0.0001980605
0.000112839
-0.0001958859
9.268524e-05
-0.0001930524
7.375077e-05
-0.0001897025
5.599695e-05
-0.0001860779
3.94645e-05
-0.0001823562
2.41417e-05
-0.0001786092
9.888405e-06
-0.000175069
-2.740209e-06
-0.0001709954
-1.508835e-05
-0.0001669314
-2.656702e-05
-0.0001628638
-3.716129e-05
-0.000158821
-4.694096e-05
-0.0001548525
-5.596899e-05
-0.000150973
-6.433355e-05
-0.0001471968
-7.213987e-05
-0.0001435319
-7.951351e-05
-0.0001399773
-8.659755e-05
-0.0001365205
-9.355266e-05
-0.0001331315
-0.0001005555
-0.0001297865
-0.0001077981
-0.0001264352
-0.0001154782
-0.000123015
-0.0001238008
-0.0001194448
-0.0001329729
-0.0001156054
-0.000143209
-0.0001114549
-0.0001546825
-0.0001071907
-0.0001675246
-0.0001025561
-0.000182015
-9.741045e-05
-0.0001982723
-9.166926e-05
-0.0002163868
-8.527145e-05
-0.0002364702
-7.819844e-05
-0.0002586151
-7.048669e-05
-0.000282924
-6.224441e-05
-0.0003095443
-5.364793e-05
-0.0003387457
-4.490918e-05
-0.0003710168
-3.621557e-05
-0.0004072231
-2.772457e-05
-0.0004487994
-1.964502e-05
-0.0004978455
-1.219032e-05
-0.000558188
-5.692934e-06
-0.00063834
-0.0007460919
-1.478418e-05
0.0006011281
-2.980796e-05
0.0005906134
-4.344318e-05
0.0005646605
-5.607509e-05
0.0005383471
-6.802458e-05
0.0005116048
-7.948601e-05
0.0004848819
-9.035104e-05
0.0004576628
-0.0001003767
0.0004293308
-0.0001094675
0.0004001965
-0.000117544
0.0003708235
-0.000124547
0.0003416285
-0.0001304384
0.0003128485
-0.0001351819
0.0002846178
-0.0001386591
0.0002569895
-0.0001407616
0.0002302022
-0.0001417285
0.0002043843
-0.0001417782
0.0001794604
-0.0001409596
0.000155445
-0.0001392882
0.0001323935
-0.0001368202
0.000110371
-0.0001336109
8.947595e-05
-0.0001297006
6.984048e-05
-0.0001253153
5.161162e-05
-0.0001208367
3.498587e-05
-0.0001166489
1.995384e-05
-0.000113022
6.2615e-06
-0.0001094458
-6.316337e-06
-0.0001061275
-1.840661e-05
-0.0001030842
-2.961036e-05
-0.000100293
-3.995239e-05
-9.776444e-05
-4.94695e-05
-9.549789e-05
-5.823548e-05
-9.349161e-05
-6.633976e-05
-9.17418e-05
-7.388961e-05
-9.023848e-05
-8.101674e-05
-8.896247e-05
-8.787345e-05
-8.788369e-05
-9.463133e-05
-8.69604e-05
-0.0001014787
-8.614007e-05
-0.0001086183
-8.535602e-05
-0.0001162621
-8.452904e-05
-0.0001246277
-8.356816e-05
-0.0001339336
-8.239439e-05
-0.0001443826
-8.090269e-05
-0.000156174
-7.887799e-05
-0.0001695491
-7.631311e-05
-0.0001845797
-7.318138e-05
-0.0002014038
-6.937741e-05
-0.0002201906
-6.485664e-05
-0.0002409908
-5.959053e-05
-0.000263881
-5.362749e-05
-0.0002888869
-4.712203e-05
-0.0003160497
-4.03065e-05
-0.0003455611
-3.341238e-05
-0.0003779109
-2.661538e-05
-0.0004140201
-2.009871e-05
-0.0004553162
-1.408997e-05
-0.0005038544
-8.750022e-06
-0.0005635281
-4.255428e-06
-0.0006428349
-0.0007503473
-1.117035e-05
0.0006122983
-2.21243e-05
0.0006015673
-3.149984e-05
0.000574036
-3.992184e-05
0.000546769
-4.794676e-05
0.0005196297
-5.570462e-05
0.0004926397
-6.30734e-05
0.0004650315
-6.995343e-05
0.0004362108
-7.626856e-05
0.0004065116
-8.19226e-05
0.0003764774
-8.68014e-05
0.0003465072
-9.077589e-05
0.000316823
-9.376421e-05
0.000287606
-9.587267e-05
0.0002590979
-9.712338e-05
0.0002314529
-9.749445e-05
0.0002047553
-9.69781e-05
0.0001789441
-9.555523e-05
0.0001540221
-9.324008e-05
0.0001300783
-9.008159e-05
0.0001072124
-8.617638e-05
8.557072e-05
-8.169467e-05
6.535876e-05
-7.690542e-05
4.682236e-05
-7.212026e-05
3.020072e-05
-6.773528e-05
1.556886e-05
-6.4045e-05
2.571233e-06
-6.070478e-05
-9.656537e-06
-5.790671e-05
-2.120465e-05
-5.561856e-05
-3.189847e-05
-5.381458e-05
-4.175633e-05
-5.246123e-05
-5.082279e-05
-5.152901e-05
-5.916764e-05
-5.100467e-05
-6.686402e-05
-5.086491e-05
-7.402929e-05
-5.107727e-05
-8.080428e-05
-5.159694e-05
-8.735368e-05
-5.236657e-05
-9.386158e-05
-5.331704e-05
-0.0001005281
-5.436972e-05
-0.0001075655
-5.543813e-05
-0.0001151935
-5.64307e-05
-0.0001236349
-5.725325e-05
-0.0001331109
-5.780035e-05
-0.0001438353
-5.794979e-05
-0.0001560244
-5.764939e-05
-0.0001698493
-5.6793e-05
-0.0001854359
-5.529469e-05
-0.0002029019
-5.312443e-05
-0.0002223607
-5.018772e-05
-0.0002439273
-4.644616e-05
-0.0002676224
-4.189663e-05
-0.0002934364
-3.67404e-05
-0.0003212058
-3.129646e-05
-0.000351005
-2.583585e-05
-0.0003833715
-2.052779e-05
-0.0004193282
-1.549655e-05
-0.0004603475
-1.084015e-05
-0.0005085109
-6.629627e-06
-0.0005677389
-3.011621e-06
-0.0006464532
-0.000753359
-7.501546e-06
0.0006197998
-1.474717e-05
0.0006088128
-2.07915e-05
0.0005800803
-2.630307e-05
0.0005522805
-3.174378e-05
0.0005250704
-3.70701e-05
0.000497966
-4.206131e-05
0.0004700227
-4.665825e-05
0.0004408077
-5.078196e-05
0.0004106353
-5.431342e-05
0.0003800089
-5.716488e-05
0.0003493587
-5.936512e-05
0.0003190232
-6.09487e-05
0.0002891896
-6.207767e-05
0.0002602268
-6.286128e-05
0.0002322365
-6.297333e-05
0.0002048673
-6.219741e-05
0.0001781681
-6.053328e-05
0.000152358
-5.799224e-05
0.0001275373
-5.461933e-05
0.0001038395
-5.052115e-05
8.147254e-05
-4.591896e-05
6.075657e-05
-4.11772e-05
4.20806e-05
-3.67113e-05
2.573483e-05
-3.278742e-05
1.1645e-05
-2.939022e-05
-8.259506e-07
-2.6546e-05
-1.250073e-05
-2.433197e-05
-2.341865e-05
-2.269682e-05
-3.353357e-05
-2.161844e-05
-4.283467e-05
-2.109881e-05
-5.134236e-05
-2.114288e-05
-5.91235e-05
-2.172031e-05
-6.628652e-05
-2.278722e-05
-7.296229e-05
-2.428246e-05
-7.930895e-05
-2.613031e-05
-8.550573e-05
-2.824248e-05
-9.17493e-05
-3.052103e-05
-9.824944e-05
-3.286181e-05
-0.0001052246
-3.51582e-05
-0.000112897
-3.730537e-05
-0.0001214876
-3.920507e-05
-0.000131211
-4.077002e-05
-0.0001422701
-4.194049e-05
-0.0001548538
-4.2658e-05
-0.0001691316
-4.283838e-05
-0.0001852553
-4.239204e-05
-0.0002033481
-4.11897e-05
-0.0002235628
-3.911008e-05
-0.0002460068
-3.603823e-05
-0.0002706941
-3.215785e-05
-0.0002973166
-2.782187e-05
-0.0003255417
-2.336696e-05
-0.0003554599
-1.901231e-05
-0.0003877262
-1.48692e-05
-0.0004234713
-1.101526e-05
-0.0004642016
-7.518829e-06
-0.0005120075
-4.457145e-06
-0.0005708009
-2.036594e-06
-0.0006488741
-0.0007553956
-5.992861e-06
0.0006257926
-1.150619e-05
0.0006143261
-1.579915e-05
0.0005843732
-1.947633e-05
0.0005559577
-2.301182e-05
0.0005286058
-2.641459e-05
0.0005013688
-2.953766e-05
0.0004731458
-3.237519e-05
0.0004436452
-3.48933e-05
0.0004131534
-3.700356e-05
0.0003821191
-3.861462e-05
0.0003509697
-3.973723e-05
0.0003201458
-4.048552e-05
0.0002899379
-4.0678e-05
0.0002604193
-4.009261e-05
0.0002316511
-3.880587e-05
0.0002035806
-3.690915e-05
0.0001762714
-3.437245e-05
0.0001498213
-3.117338e-05
0.0001243382
-2.733621e-05
0.0001000024
-2.299957e-05
7.713592e-05
-1.845251e-05
5.620954e-05
-1.408795e-05
3.771608e-05
-1.024862e-05
2.189553e-05
-7.036291e-06
8.432699e-06
-4.306529e-06
-3.555678e-06
-2.129041e-06
-1.467817e-05
-5.410161e-07
-2.500663e-05
4.109329e-07
-3.448547e-05
6.951281e-07
-4.31188e-05
3.079505e-07
-5.095511e-05
-7.124491e-07
-5.810303e-05
-2.318139e-06
-6.468075e-05
-4.439703e-06
-7.084064e-05
-6.991884e-06
-7.675667e-05
-9.875886e-06
-8.262162e-05
-1.298313e-05
-8.864194e-05
-1.619931e-05
-9.503313e-05
-1.940882e-05
-0.0001020149
-2.249923e-05
-0.0001098064
-2.536579e-05
-0.0001186209
-2.791563e-05
-0.000128661
-3.007135e-05
-0.0001401142
-3.177499e-05
-0.0001531499
-3.298934e-05
-0.000167917
-3.370065e-05
-0.0001845438
-3.382763e-05
-0.0002032209
-3.313039e-05
-0.0002242599
-3.135477e-05
-0.0002477822
-2.862166e-05
-0.0002734271
-2.534156e-05
-0.0003005966
-2.187271e-05
-0.0003290105
-1.841534e-05
-0.0003589172
-1.50647e-05
-0.0003910768
-1.187736e-05
-0.0004266588
-8.906972e-06
-0.0004671721
-6.198074e-06
-0.0005147166
-3.784135e-06
-0.0005732152
-1.73349e-06
-0.0006509252
-0.0007571292
-3.354142e-06
0.0006291466
-6.014777e-06
0.0006169867
-7.362789e-06
0.0005857211
-8.14446e-06
0.0005567393
-8.955e-06
0.0005294163
-9.801267e-06
0.000502215
-1.063648e-05
0.000473981
-1.151919e-05
0.0004445279
-1.24713e-05
0.0004141055
-1.346183e-05
0.0003831097
-1.445078e-05
0.0003519587
-1.520917e-05
0.0003209042
-1.566093e-05
0.0002903897
-1.577361e-05
0.0002605321
-1.524822e-05
0.0002311257
-1.409419e-05
0.0002024266
-1.234451e-05
0.0001745218
-9.98529e-06
0.0001474621
-7.003269e-06
0.0001213562
-3.472456e-06
9.647162e-05
3.852672e-07
7.327824e-05
4.194616e-06
5.240024e-05
7.54255e-06
3.436818e-05
1.019782e-05
1.924029e-05
1.231869e-05
6.311871e-06
1.401375e-05
-5.250685e-06
1.523092e-05
-1.58953e-05
1.588e-05
-2.565566e-05
1.588311e-05
-3.448851e-05
1.521405e-05
-4.244968e-05
1.389377e-05
-4.963476e-05
1.195547e-05
-5.616465e-05
9.46438e-06
-6.218957e-05
6.504218e-06
-6.788039e-05
3.175459e-06
-7.342781e-05
-4.100246e-07
-7.903603e-05
-4.133869e-06
-8.491798e-05
-7.876382e-06
-9.129049e-05
-1.152163e-05
-9.836955e-05
-1.496231e-05
-0.0001063656
-1.810411e-05
-0.0001154789
-2.08693e-05
-0.0001258956
-2.319945e-05
-0.0001377839
-2.505596e-05
-0.0001512932
-2.642305e-05
-0.0001665498
-2.728297e-05
-0.0001836837
-2.745235e-05
-0.0002030513
-2.659441e-05
-0.0002251176
-2.473682e-05
-0.0002496397
-2.225385e-05
-0.0002759099
-1.948303e-05
-0.0003033673
-1.662837e-05
-0.0003318651
-1.38005e-05
-0.0003617451
-1.106993e-05
-0.0003938075
-8.498352e-06
-0.0004292305
-6.151664e-06
-0.000469519
-4.074886e-06
-0.0005167937
-2.314022e-06
-0.0005749765
-1.030189e-06
-0.0006522096
-0.0007581595
-2.312635e-06
0.0006314592
-3.562701e-06
0.0006182367
-3.602809e-06
0.0005857612
-3.446215e-06
0.0005565827
-3.190423e-06
0.0005291605
-2.876446e-06
0.0005019011
-2.482404e-06
0.000473587
-2.034273e-06
0.0004440799
-1.558846e-06
0.0004136302
-1.079274e-06
0.0003826302
-5.949156e-07
0.0003514744
-1.961107e-07
0.0003205055
2.996896e-07
0.000289894
1.154179e-06
0.0002596777
2.363623e-06
0.0002299164
4.008318e-06
0.000200782
6.136206e-06
0.000172394
8.775271e-06
0.0001448231
1.189593e-05
0.0001182357
1.534245e-05
9.302517e-05
1.878531e-05
6.983546e-05
2.178097e-05
4.940464e-05
2.397795e-05
3.217125e-05
2.542923e-05
1.778907e-05
2.646712e-05
5.274035e-06
2.711498e-05
-5.898484e-06
2.731055e-05
-1.609081e-05
2.694863e-05
-2.529366e-05
2.597068e-05
-3.351049e-05
2.436791e-05
-4.084684e-05
2.216124e-05
-4.742801e-05
1.940143e-05
-5.340475e-05
1.616422e-05
-5.895228e-05
1.254648e-05
-6.426255e-05
8.659105e-06
-6.954033e-05
4.620757e-06
-7.499757e-05
5.517911e-07
-8.084889e-05
-3.431446e-06
-8.730713e-05
-7.221835e-06
-9.457902e-05
-1.072613e-05
-0.0001028611
-1.386883e-05
-0.0001123361
-1.659522e-05
-0.0001231691
-1.887275e-05
-0.0001355062
-2.069341e-05
-0.0001494724
-2.206596e-05
-0.000165177
-2.286207e-05
-0.0001828874
-2.272669e-05
-0.0002031865
-2.159436e-05
-0.0002262497
-1.977656e-05
-0.0002514573
-1.760211e-05
-0.0002780842
-1.530108e-05
-0.0003056682
-1.300126e-05
-0.0003341649
-1.076947e-05
-0.0003639769
-8.648609e-06
-0.0003959284
-6.678075e-06
-0.0004312011
-4.897888e-06
-0.0004712994
-3.323736e-06
-0.0005183681
-1.950213e-06
-0.0005763505
-8.65424e-07
-0.000653295
-0.000759025
-1.271296e-06
0.0006327304
-1.416219e-06
0.0006183815
-6.801161e-07
0.0005850251
4.769682e-07
0.0005554256
1.746087e-06
0.0005278914
3.08209e-06
0.0005005651
4.448209e-06
0.0004722209
5.786443e-06
0.0004427417
7.048468e-06
0.0004123682
8.24068e-06
0.0003814381
9.429749e-06
0.0003502854
1.074334e-05
0.000319192
1.23587e-05
0.0002882787
1.435342e-05
0.000257683
1.66182e-05
0.0002276517
1.912349e-05
0.0001982768
2.191351e-05
0.0001696041
2.501096e-05
0.0001417258
2.83341e-05
0.0001149126
3.162563e-05
8.973373e-05
3.445626e-05
6.700491e-05
3.638814e-05
4.747283e-05
3.732468e-05
3.123478e-05
3.764631e-05
1.74675e-05
3.762997e-05
5.290439e-06
3.729072e-05
-5.559158e-06
3.640684e-05
-1.520686e-05
3.49792e-05
-2.386595e-05
3.298421e-05
-3.151542e-05
3.043013e-05
-3.829269e-05
2.735745e-05
-4.435524e-05
2.383685e-05
-4.988405e-05
1.996008e-05
-5.507542e-05
1.583391e-05
-6.013628e-05
1.157337e-05
-6.527968e-05
7.295555e-06
-7.071964e-05
3.113698e-06
-7.666691e-05
-8.681216e-07
-8.332517e-05
-4.559565e-06
-9.088744e-05
-7.887762e-06
-9.95328e-05
-1.080001e-05
-0.0001094237
-1.326541e-05
-0.0001207035
-1.527466e-05
-0.0001334968
-1.684169e-05
-0.0001479052
-1.795199e-05
-0.0001640665
-1.837347e-05
-0.0001824657
-1.785979e-05
-0.0002037
-1.659874e-05
-0.0002275106
-1.49097e-05
-0.0002531461
-1.304903e-05
-0.0002799447
-1.116144e-05
-0.0003075557
-9.313413e-06
-0.0003360128
-7.538605e-06
-0.0003657517
-5.866493e-06
-0.0003976006
-4.336969e-06
-0.0004327308
-3.005409e-06
-0.0004726312
-1.906847e-06
-0.000519467
-1.089146e-06
-0.0005771687
-4.780617e-07
-0.0006539066
-0.0007595031
-4.55185e-07
0.0006331856
1.32993e-07
0.0006177933
1.700105e-06
0.0005834579
3.874898e-06
0.0005532508
6.26256e-06
0.0005255038
8.770891e-06
0.0004980568
1.131878e-05
0.0004696731
1.383262e-05
0.0004402279
1.626018e-05
0.0004099408
1.859687e-05
0.0003791015
2.090533e-05
0.0003479771
2.329651e-05
0.000316801
2.580932e-05
0.000285766
2.840219e-05
0.0002550903
3.110389e-05
0.0002249501
3.396383e-05
0.000195417
3.700879e-05
0.0001665593
4.019728e-05
0.0001385374
4.333124e-05
0.0001117788
4.602647e-05
8.703862e-05
4.782187e-05
6.52096e-05
4.848476e-05
4.681003e-05
4.826743e-05
3.14522e-05
4.757291e-05
1.81621e-05
4.65377e-05
6.325729e-06
4.515751e-05
-4.178884e-06
4.322335e-05
-1.327262e-05
4.076856e-05
-2.141107e-05
3.78097e-05
-2.855647e-05
3.43834e-05
-3.48663e-05
3.055478e-05
-4.052652e-05
2.640998e-05
-4.573915e-05
2.205031e-05
-5.071565e-05
1.758539e-05
-5.567126e-05
1.312683e-05
-6.082101e-05
8.782441e-06
-6.637513e-05
4.650818e-06
-7.253517e-05
8.16937e-07
-7.949116e-05
-2.651363e-06
-8.741899e-05
-5.705801e-06
-9.64782e-05
-8.318986e-06
-0.0001068103
-1.048402e-05
-0.0001185383
-1.221443e-05
-0.0001317662
-1.353663e-05
-0.0001465828
-1.433946e-05
-0.0001632635
-1.436743e-05
-0.0001824376
-1.362887e-05
-0.0002044383
-1.240076e-05
-0.0002287385
-1.095592e-05
-0.0002545908
-9.467416e-06
-0.0002814331
-8.012721e-06
-0.0003090103
-6.622172e-06
-0.0003374033
-5.313201e-06
-0.0003670607
-4.104548e-06
-0.0003988093
-3.023699e-06
-0.0004338118
-2.116867e-06
-0.0004735383
-1.40582e-06
-0.0005201785
-8.700264e-07
-0.0005777052
-3.779505e-07
-0.0006543995
-0.0007598811
-1.226467e-07