/*--------------------------------*- C++ -*----------------------------------*\
| =========                 |                                                 |
| \\      /  F ield         | OpenFOAM: The Open Source CFD Toolbox           |
|  \\    /   O peration     | Version:  2312                                  |
|   \\  /    A nd           | Website:  www.openfoam.com                      |
|    \\/     M anipulation  |                                                 |
\*---------------------------------------------------------------------------*/
FoamFile
{
    version     2.0;
    format      ascii;
    arch        "LSB;label=32;scalar=64";
    class       volScalarField;
    location    "4650";
    object      ILambda_1_0;
}
// * * * * * * * * * * * * * * * * * * * * * * * * * * * * * * * * * * * * * //

dimensions      [1 0 -3 0 0 0 0];

internalField   nonuniform List<scalar> 
12000
(
2803.744
1631.091
1026.571
777.3671
707.8743
709.3795
727.5023
741.6028
747.7242
747.8971
745.0403
741.5527
739.4241
740.2439
744.6516
751.7467
759.2163
764.4021
765.6474
762.9542
757.5754
750.9897
744.051
736.8229
729.0452
720.7514
712.5637
705.519
700.6192
698.4073
698.7708
701.0049
704.0412
706.71
708.035
707.4243
704.7658
700.406
695.0444
689.5487
684.7588
681.2509
679.1833
678.4342
678.7844
680.042
681.9732
684.2582
686.6156
688.8753
690.9972
692.6571
693.4776
693.3719
692.3943
690.418
687.0217
681.6297
674.7332
655.3621
3805.415
3299.251
2499.747
1749.385
1206.251
886.0207
736.3213
690.4618
694.2677
713.5128
731.1766
741.5384
744.9301
744.26
742.9418
743.5766
747.1235
752.7416
758.4479
762.2408
763.0182
760.8117
756.3678
750.5009
743.689
736.1024
727.9091
719.551
711.7795
705.4524
701.2368
699.3858
699.6719
701.4575
703.851
705.9075
706.8216
706.0816
703.5618
699.5339
694.5935
689.5131
685.0227
681.6173
679.5031
678.6663
678.9726
680.2003
682.0607
684.252
686.5573
688.8275
690.8288
692.2751
692.9786
692.8527
691.8696
689.325
687.2735
675.0115
3833.396
3861.827
3585.097
3035.543
2369.577
1745.411
1259.731
940.0076
765.5037
694.0765
682.539
697.3528
717.5012
732.897
741.1157
744.0267
744.9394
746.5396
749.858
754.3141
758.4944
761.0738
761.3716
759.3754
755.4228
749.8742
743.0039
735.1039
726.6415
718.3084
710.9125
705.1729
701.5305
700.0471
700.4032
701.9772
703.9745
705.5779
706.099
705.1096
702.5233
698.6139
693.9435
689.1952
684.9881
681.7538
679.7132
678.9039
679.2105
680.4013
682.1944
684.3542
686.6745
688.9107
690.8046
692.1273
692.8684
692.4021
692.4697
686.6926
3762.396
3848.11
3889.178
3756.347
3401.924
2875.892
2282.614
1727.221
1280.744
970.2306
786.8053
701.1416
678.2157
687.329
706.812
724.6236
736.4792
742.9162
746.3891
749.1555
752.2884
755.6828
758.6082
760.2993
760.2747
758.3579
754.5607
749.0051
741.9442
733.8281
725.3216
717.2209
710.2953
705.1224
701.9749
700.7846
701.1744
702.5398
704.1578
705.3125
705.4215
704.1464
701.4641
697.6617
693.2474
688.8073
684.8736
681.8404
679.9281
679.1799
679.4829
680.634
682.4078
684.5694
686.8692
689.022
690.8985
692.0051
693.1499
691.7642
3723.534
3755.21
3828.065
3889.014
3849.571
3643.764
3264.13
2760.548
2213.812
1703.821
1286.952
987.6913
802.2389
708.5291
677.3359
681.0365
698.6903
717.5726
732.1175
741.5326
747.2596
751.0757
754.1326
756.7863
758.8497
759.9186
759.5875
757.5473
753.6373
747.903
740.6503
732.4516
724.0697
716.3154
709.8851
705.2332
702.5077
701.5504
701.947
703.1082
704.3693
705.1004
704.8168
703.2708
700.4946
696.7749
692.567
688.3847
684.6994
681.868
680.0898
679.4026
679.7184
680.8707
682.6498
684.7898
687.0736
689.1359
690.9749
692.3601
3702.26
3706.75
3734.354
3795.976
3865.461
3883.387
3786.414
3539.152
3149.893
2665.624
2153.165
1677.343
1284.824
997.3088
813.2977
715.1915
678.041
677.1023
692.6667
711.9018
728.3363
740.0498
747.5925
752.3307
755.476
757.7198
759.2368
759.8398
759.1641
756.8422
752.6597
746.6729
739.257
731.0613
722.884
715.5085
709.5528
705.3701
703.0141
702.2607
702.6671
703.6555
704.608
704.9695
704.3437
702.5598
699.691
696.0197
691.9626
687.9816
684.4997
681.8346
680.1658
679.5374
679.8854
681.0529
682.8318
684.9877
687.0304
690.0419
3696.187
3694.024
3697.798
3720.332
3771.366
3839.794
3888.006
3863.953
3723.12
3447.622
3053.478
2584.659
2098.556
1649.761
1277.823
1001.73
820.9109
720.6775
679.3479
674.6943
688.3044
707.4877
725.1624
738.5499
747.5062
753.0648
756.446
758.5356
759.7205
759.9454
758.8915
756.199
751.6735
745.4204
737.8746
729.7259
721.7721
714.7539
709.218
705.4382
703.3977
702.8227
703.2486
704.1058
704.8161
704.8882
703.9971
702.0296
699.0869
695.447
691.4989
687.665
684.3278
681.7761
680.1818
679.5986
679.9561
681.1904
682.6635
686.0313
3697.201
3666.304
3643.161
3637.027
3656.321
3706.236
3780.066
3852.703
3883.564
3829.026
3658.245
3364.782
2969.405
2513.882
2049.142
1622.535
1268.222
1002.766
825.9059
724.9762
680.824
673.3158
685.2224
704.1112
722.5287
737.0937
747.1469
753.4444
757.1566
759.2513
760.2287
760.1247
758.6829
755.5963
750.7268
744.2359
736.6
728.5212
720.777
714.0621
708.8644
705.3989
703.5995
703.1586
703.598
704.3591
704.898
704.7735
703.7114
701.6362
698.6647
695.068
691.211
687.4836
684.2392
681.7549
680.1807
679.6623
679.7575
681.8969
3868.505
3961.388
3923.096
3829.691
3738.174
3682.316
3676.882
3719.244
3789.094
3850.859
3861.498
3782.299
3590.482
3286.228
2892.75
2449.845
2003.641
1596.094
1257.211
1001.557
828.9701
728.2783
682.3117
672.6491
683.0971
701.5437
720.3499
735.7323
746.6484
753.6092
757.6897
759.8663
760.6985
760.2977
758.4863
755.0336
749.8685
743.2002
735.5249
727.5348
719.9746
713.494
708.535
705.273
703.6131
703.2317
703.651
704.3291
704.7528
704.5174
703.381
701.287
698.3545
694.8401
691.0833
687.4508
684.2626
681.8338
680.1683
679.7065
1429.007
2601.762
3360.204
3754.224
3888.292
3874.226
3805.205
3745.331
3727.482
3755.173
3807.511
3847.554
3833.559
3730.977
3522.12
3210.819
2821.037
2390.379
1960.94
1570.349
1245.309
998.7679
830.5974
730.786
683.7444
672.4614
681.6554
699.5753
718.5302
734.4756
746.0756
753.6174
758.0546
760.3338
761.049
760.3848
758.252
754.504
749.1326
742.3782
734.7344
726.8641
719.4692
713.1554
708.3298
705.1454
703.4988
703.0714
703.4022
703.9753
704.3076
704.021
702.8908
700.8634
698.0455
694.6717
691.0498
687.5117
684.5123
681.1689
506.4347
830.082
1577.845
2407.956
3092.764
3542.427
3768.017
3833.738
3817.388
3784.164
3773.008
3793.034
3827.591
3843.668
3804.029
3679.025
3455.188
3138.691
2753.353
2334.417
1920.366
1545.166
1232.782
994.8185
831.1499
732.6824
685.1124
672.6142
680.7224
698.071
717.0061
733.3172
745.4367
753.4492
758.1809
760.5363
761.1388
760.2483
757.8679
753.9322
748.4829
741.7708
734.2638
726.5769
719.3578
713.1671
708.3838
705.1534
703.3839
702.7826
702.9239
703.3298
703.5506
703.2307
702.1529
700.253
697.6206
694.4016
691.2378
686.2446
3096.777
2023.587
1487.546
1508.215
1916.783
2486.113
3027.642
3433.605
3676.183
3783.422
3808.798
3805.017
3806.867
3824.176
3843.69
3837.324
3773.444
3627.696
3390.551
3069.985
2689.311
2281.43
1881.559
1520.48
1219.813
990.0082
830.9027
734.1365
686.4692
673.0907
680.2734
697.0422
715.8336
732.3336
744.79
753.111
758.0084
760.3521
760.8029
759.7027
757.1478
753.1459
747.7718
741.2636
734.0401
726.6476
719.6654
713.6023
708.8118
705.4419
703.4284
702.524
702.3565
702.4998
702.546
702.1604
701.1439
699.3336
697.2231
692.6208
1473.485
2094.292
2054.638
1799.913
1663.456
1779.954
2121.142
2575.67
3023.382
3381.089
3617.236
3743.86
3797.265
3817.241
3831.36
3847.395
3853.971
3827.411
3741.553
3577.168
3328.357
3004.607
2628.612
2231.073
1844.284
1496.229
1206.489
984.4881
829.9908
735.2265
687.8457
673.9153
680.3713
696.6142
715.1946
731.7328
744.3295
752.7481
757.6122
759.7802
759.9692
758.616
755.9136
751.9364
746.777
740.6399
733.8711
726.9258
720.2967
714.4287
709.6449
706.0996
703.7661
702.4565
701.8687
701.6376
701.4292
700.8386
700.1015
697.1793
769.3382
1212.858
1647.584
1842.52
1822.611
1743.699
1755.781
1929.559
2249.141
2644.374
3033.179
3353.866
3579.514
3715.725
3787.93
3825.568
3849.133
3863.525
3858.356
3813.657
3708.185
3527.351
3268.485
2942.341
2570.974
2183.083
1808.36
1472.334
1192.793
978.2468
828.3638
735.8547
689.1244
674.9987
680.9993
696.8672
715.2637
731.7599
744.335
752.6377
757.235
759.005
758.748
757.016
754.1096
750.1714
745.304
739.6638
733.5049
727.1705
721.0463
715.4961
710.8008
707.1151
704.4519
702.6835
701.6159
700.8353
700.5413
698.7291
697.0425
746.4547
1000.256
1333.851
1592.678
1710.929
1727.996
1737.881
1826.402
2031.991
2339.415
2697.627
3046.533
3339.619
3555.377
3696.689
3781.77
3832.054
3861.969
3873.657
3857.36
3796.248
3673.367
3478.178
3210.794
2883
2516.215
2137.329
1773.73
1448.789
1178.72
971.2261
825.8777
735.794
690.0305
676.0714
681.9465
697.688
716.0439
732.5317
745.0189
753.0594
757.19
758.3375
757.4143
755.1121
751.8586
747.876
743.2816
738.1808
732.7261
727.1337
721.6635
716.5792
712.1026
708.3695
705.4564
703.1481
701.9111
699.3888
738.1855
688.9881
709.3616
858.5309
1103.467
1355.505
1539.517
1637.234
1686.663
1751.601
1885.752
2109.853
2408.161
2740.454
3060.607
3332.87
3540.342
3684.552
3778.537
3837.5
3870.939
3878.706
3851.603
3775.525
3637.218
3429.615
3155.164
2826.453
2464.26
2093.83
1740.505
1425.756
1164.418
963.4935
822.4781
734.8588
690.2705
676.7783
682.8517
698.7621
717.3096
733.938
746.3969
754.1486
757.7116
758.079
756.2966
753.219
749.4234
745.233
740.796
736.1772
731.4306
726.6404
721.9299
717.4405
713.3459
709.6036
706.9289
702.6202
758.0262
733.8883
693.3246
688.3331
768.1557
936.8074
1151.035
1351.63
1499.752
1595.306
1671.513
1773.977
1937.711
2172.87
2463.374
2776.1
3074.586
3330.908
3531.72
3677.617
3777.654
3842.133
3876.657
3879.342
3841.619
3751.798
3599.824
3381.571
3101.414
2772.527
2415.025
2052.642
1708.881
1403.525
1150.202
955.3148
818.3192
733.057
689.7016
676.8478
683.3565
699.6968
718.6877
735.6746
748.2702
755.8334
758.8574
758.4019
755.6525
751.6406
747.1129
742.5164
738.0551
733.7746
729.6465
725.6275
721.7213
717.846
714.5534
709.3928
761.4195
759.1273
738.5362
702.8587
682.3518
715.6598
821.8488
987.0028
1173.34
1341.733
1472.352
1572.66
1670.866
1800.448
1984.376
2226.036
2509.415
2806.625
3088.304
3332.302
3527.836
3674.634
3778.536
3845.962
3879.508
3876.081
3827.854
3725.324
3561.208
3333.87
3049.254
2720.925
2368.304
2013.715
1678.983
1382.373
1136.442
947.08
813.7385
730.6159
688.4053
676.2067
683.2475
700.1731
719.8022
737.3622
750.3079
757.8723
760.5019
759.3047
755.5954
750.5807
745.1862
740.0021
735.3137
731.1739
727.5048
724.1229
721.1164
716.7823
761.3641
763.3266
761.3371
745.5111
715.0779
687.1899
690.524
748.342
864.1143
1019.342
1183.933
1332.095
1454.734
1562.476
1678.974
1828.937
2027.012
2272.161
2548.868
2833.418
3101.844
3336.254
3527.597
3674.686
3780.696
3848.964
3879.811
3869.398
3810.75
3696.37
3521.402
3286.318
2998.335
2671.242
2323.745
1976.828
1650.764
1362.434
1123.421
939.1628
809.1347
727.8931
686.6439
674.9852
682.5088
700.0375
720.3902
738.6708
752.1624
759.9489
762.4003
760.6412
756.0885
750.106
743.7952
737.8941
732.8023
728.5736
725.2813
721.4114
759.5882
761.2627
763.8672
763.3999
752.41
727.8523
698.457
684.1246
706.8023
778.8552
896.2969
1040.803
1189.133
1324.607
1444.617
1560.825
1692.733
1858.341
2066.359
2312.926
2583.378
2857.451
3115.338
3342.253
3530.212
3677.065
3783.737
3851.125
3877.876
3859.775
3790.791
3665.281
3480.525
3238.799
2948.351
2623.068
2280.924
1941.631
1624.014
1343.659
1111.253
931.8121
804.8431
725.2533
684.754
673.4428
681.2881
699.3102
720.348
739.3951
753.5619
761.7669
764.274
762.1857
756.9857
750.1533
742.9856
736.2157
731.0186
724.4261
756.8585
758.2508
760.3623
763.453
764.619
758.0481
739.6223
712.6054
689.6278
688.7709
725.5728
805.4617
921.0133
1055.687
1192.006
1319.801
1440.439
1565.376
1710.306
1887.985
2102.874
2349.43
2614.073
2879.427
3128.892
3349.9
3535.038
3681.159
3787.294
3852.419
3873.979
3847.675
3768.479
3632.462
3438.802
3191.32
2899.112
2576.072
2239.448
1907.744
1598.425
1325.863
1099.89
925.117
801.0666
722.9763
683.0464
671.8738
679.8215
698.138
719.7176
739.4723
754.3549
763.1117
765.882
763.6901
758.1245
750.3963
743.4631
731.5917
755.7473
756.1408
757.0273
758.9771
762.1274
764.4379
761.4442
748.7929
726.3397
701.0413
686.2619
697.1263
744.0494
827.9779
940.1106
1066.341
1194.046
1317.753
1441.107
1574.59
1730.472
1917.413
2136.887
2382.478
2641.799
2899.878
3142.57
3358.848
3541.503
3686.411
3791.009
3852.773
3868.325
3833.495
3744.278
3598.331
3396.513
3143.989
2850.55
2530.045
2199.015
1874.832
1573.682
1308.794
1089.176
919.0295
797.8668
721.2177
681.744
670.5334
678.3583
696.7294
718.6398
738.958
754.512
763.8585
767.1094
764.7004
760.3367
746.4484
757.7153
756.5912
756.3835
757.1658
759.234
762.5689
765.719
765.3487
757.4375
739.995
715.9293
694.1148
687.354
707.7177
761.5617
846.9623
955.0134
1074.288
1196.157
1318.42
1445.79
1587.343
1752.351
1946.322
2168.694
2412.728
2667.238
2919.233
3156.416
3368.794
3549.115
3692.326
3794.542
3852.086
3861.048
3817.542
3718.576
3563.259
3353.945
3096.963
2802.688
2484.886
2159.433
1842.642
1549.514
1292.197
1078.902
913.4126
795.1908
720.0124
680.9612
669.5969
677.1085
695.2967
717.3012
737.9699
754.1385
763.7937
768.569
762.7669
762.6964
757.9319
752.7882
748.7732
747.1333
748.5263
752.7373
758.2562
762.0649
760.2234
749.5872
730.2284
707.2382
690.4185
691.4095
719.4244
777.764
862.9414
966.8264
1080.659
1198.972
1321.705
1453.801
1602.753
1775.284
1974.522
2198.574
2440.736
2690.956
2937.841
3170.464
3379.487
3557.463
3698.49
3797.601
3850.256
3852.241
3800.053
3691.684
3527.561
3311.358
3050.416
2755.6
2440.577
2120.602
1811.017
1525.724
1275.856
1068.86
908.0876
792.9116
719.3005
680.7122
669.1488
676.2134
694.0094
715.8868
736.6781
753.0132
765.5738
775.2112
792.4533
803.7078
803.5823
794.0981
780.669
768.5882
761.1086
758.7761
759.5174
759.3368
753.8123
740.3413
720.3234
699.9808
688.9772
697.2109
731.2753
792.3216
876.3097
976.4058
1086.297
1202.904
1327.434
1464.532
1620.102
1798.767
2001.899
2226.785
2466.962
2713.396
2955.958
3184.713
3390.704
3566.202
3704.561
3799.948
3847.2
3841.974
3781.216
3663.849
3491.491
3268.976
3004.517
2709.393
2397.16
2082.505
1779.885
1502.193
1259.619
1058.875
902.876
790.8694
718.9625
680.931
669.1974
675.6795
693.2753
712.9398
743.202
632.8542
525.1492
543.221
615.2441
690.3031
744.1311
772.1411
780.2771
777.6412
771.909
767.1647
763.5311
758.267
748.0317
731.5535
711.5002
694.5346
689.4083
703.9815
742.6061
805.0687
887.4658
984.4604
1091.824
1208.185
1335.378
1477.446
1638.82
1822.439
2028.415
2253.568
2491.779
2734.888
2973.745
3199.109
3402.214
3575.018
3710.239
3801.375
3842.838
3830.291
3761.167
3635.26
3455.248
3226.979
2959.417
2664.181
2354.715
2045.185
1749.251
1478.884
1243.403
1048.825
897.6323
788.9025
718.8727
681.3987
670.1525
673.3287
702.226
3007.882
1887.587
1159.323
768.7452
616.4941
602.0149
646.9593
702.2026
744.3977
767.9569
776.6215
776.7384
773.0126
766.8895
757.2715
742.7172
723.8063
704.3928
691.1078
691.4082
711.1785
753.0353
816.0462
896.8554
991.5922
1097.692
1214.915
1345.284
1492.098
1658.493
1846.092
2054.125
2279.182
2515.519
2755.698
2991.306
3213.57
3413.791
3583.615
3715.245
3801.68
3837.071
3817.192
3739.978
3606.026
3418.955
3185.488
2915.225
2620.065
2313.333
2008.724
1719.175
1455.827
1227.201
1038.652
892.2823
786.7839
719.2331
680.9274
673.3459
3746.144
3302.874
2580.106
1840.858
1251.822
870.3014
677.5637
619.0793
635.4833
679.9587
723.9191
755.079
771.9297
777.7158
775.9485
768.3993
755.4207
737.5792
717.2545
699.1733
689.5907
694.5904
718.3818
762.3836
825.433
904.9192
998.2718
1104.173
1223.068
1356.875
1508.118
1678.838
1869.649
2079.177
2303.929
2538.519
2776.084
3008.748
3228.043
3425.257
3591.76
3719.351
3800.687
3829.796
3802.64
3717.657
3576.181
3382.651
3144.542
2871.987
2577.101
2273.085
1973.203
1689.745
1433.092
1211.065
1028.36
886.5254
786.7562
703.0297
3777.549
3789.573
3551.589
3060.645
2429.827
1800.967
1281.659
921.6051
718.5366
638.0772
634.9254
668.3499
709.8962
744.3474
766.4976
776.5644
776.4463
767.8974
752.5072
732.5922
711.9408
695.7434
689.6655
698.535
725.2849
770.6177
833.4745
912.0385
1004.815
1111.366
1232.486
1369.821
1525.156
1699.624
1893.08
2103.74
2328.109
2561.107
2796.308
3026.214
3242.542
3436.53
3599.321
3722.425
3798.294
3820.949
3786.601
3694.186
3545.702
3346.308
3104.111
2829.678
2535.283
2233.995
1938.68
1661.001
1410.976
1193.7
1025.883
836.1835
3726.749
3791.263
3822.428
3708.522
3393.623
2904.711
2327.409
1762.568
1289.94
950.5074
746.8611
654.802
638.3853
662.5672
700.6102
736.1205
761.3695
774.1471
774.9877
765.6441
748.7313
727.8981
707.8491
693.871
690.9547
702.8893
731.7289
777.8397
840.4665
918.5437
1011.419
1119.24
1242.918
1383.744
1542.838
1720.602
1916.317
2127.92
2351.939
2583.532
2816.583
3043.842
3257.126
3447.612
3606.274
3724.447
3794.499
3810.543
3769.09
3669.563
3514.565
3309.871
3064.12
2788.216
2494.568
2195.931
1905.696
1630.113
1404.401
1099.708
3704.772
3725.266
3780.617
3829.445
3795.495
3613.649
3265.403
2785.891
2246.307
1726.048
1288.385
967.3656
766.937
668.7291
643.2901
660.2418
694.7781
730.0807
756.744
770.8448
772.0006
762.0641
744.4383
723.6584
704.8949
693.2688
693.1115
707.4213
737.7103
784.2771
846.7635
924.7617
1018.25
1127.737
1254.108
1398.282
1560.808
1741.508
1939.233
2151.717
2375.503
2605.908
2837.01
3061.7
3271.834
3458.531
3612.663
3725.486
3789.396
3798.683
3750.201
3643.85
3482.782
3273.296
3024.528
2747.32
2455.776
2154.291
1896.09
1493.147
3692.197
3693.666
3712.519
3759.852
3816.281
3831.426
3746.238
3521.559
3156.23
2687.588
2177.331
1691.261
1281.549
976.8315
781.2371
680.1033
648.645
660.1194
691.4271
725.6903
752.489
766.8452
767.8762
757.5959
739.9464
719.9523
702.9065
693.6158
695.8313
711.9925
743.3268
790.2297
852.7553
931.0361
1025.502
1136.86
1265.895
1413.181
1578.797
1762.121
1961.679
2175.047
2398.757
2628.201
2857.547
3079.74
3286.627
3469.282
3618.529
3725.64
3783.128
3785.535
3730.097
3617.159
3450.482
3236.321
2986.572
2700.929
2446.097
1986.622
3679.498
3680.515
3682
3696.508
3735.001
3790.855
3832.918
3813.842
3688.936
3435.056
3060.524
2602.82
2116.66
1658.256
1271.722
981.4695
791.4246
689.437
654.1081
661.4499
689.7814
722.4054
748.4142
762.2988
762.9754
752.6173
735.4718
716.7455
701.6287
694.5608
698.8231
716.4916
748.686
795.9788
858.7985
937.6924
1033.391
1146.693
1278.252
1428.345
1596.693
1782.338
1983.567
2197.825
2421.599
2650.279
2878.038
3097.797
3301.364
3479.776
3623.861
3724.976
3775.838
3771.265
3709.042
3589.317
3419.326
3192.182
2979.737
2524.214
3665.771
3668.584
3668.901
3669.165
3678.551
3707.586
3757.284
3810.643
3833.175
3783.277
3627.417
3353.064
2974.108
2527.286
2061.836
1626.747
1260.035
982.8125
798.6887
697.2519
659.5611
663.7138
689.2327
719.7948
744.4038
757.3874
757.6358
747.4323
731.1356
713.9228
700.7626
695.7416
701.7922
720.7803
753.8271
801.7022
865.1371
944.9695
1042.107
1157.364
1291.258
1443.832
1614.544
1802.202
2004.921
2220.03
2443.945
2671.992
2898.275
3115.64
3315.828
3489.846
3628.577
3723.482
3767.698
3755.646
3688.82
3553.766
3416.835
3032.679
3654.205
3658.429
3663.221
3665.87
3666.705
3671.86
3690.954
3729.673
3781.554
3824.461
3824.552
3746.417
3565.161
3275.558
2894.847
2458.544
2011.313
1596.421
1247.107
981.8455
803.8642
703.9348
664.9088
666.5064
689.3275
717.5796
740.4546
752.3418
752.1824
742.2986
727.0154
711.3565
700.0304
696.8297
704.4562
724.6819
758.6907
807.4306
871.8496
952.9584
1051.738
1168.964
1305.023
1459.78
1632.514
1821.884
2025.882
2241.744
2465.788
2693.235
2918.074
3133.033
3329.78
3499.264
3632.617
3720.742
3760.154
3733.191
3690.457
3436.084
3638.27
3620.602
3609.395
3609.048
3616.494
3627.253
3641.001
3662.69
3698.309
3747.883
3799.934
3830.721
3809.209
3706.159
3503.821
3202.489
2821.588
2395.238
1964.218
1567.146
1233.401
979.2709
807.5238
709.713
670.0238
669.499
689.748
715.6193
736.6592
747.4316
746.9384
737.467
723.2114
708.9854
699.2541
697.5992
706.6013
728.0271
763.1534
813.0702
878.855
961.5866
1062.233
1181.485
1319.602
1476.319
1650.799
1841.611
2046.67
2263.129
2487.204
2713.984
2937.32
3149.771
3343.073
3507.543
3636.828
3713.121
3764.32
3673.974
3769.264
3863.931
3841.724
3770.631
3698.294
3646.45
3619.028
3612.935
3625.482
3656.111
3703.383
3760.143
3810.165
3828.737
3787.7
3663.267
3443.611
3133.344
2753.374
2336.441
1920.029
1538.919
1219.307
975.5921
810.0262
714.6665
674.7331
672.404
690.2581
713.8435
733.1382
742.9132
742.2012
733.187
719.8758
706.8599
698.4099
697.9876
708.1511
730.7299
767.1101
818.4845
885.9835
970.6669
1073.419
1194.805
1334.96
1493.512
1669.55
1861.594
2067.512
2284.385
2508.332
2734.272
2956.018
3165.578
3356.002
3513.488
3641.231
3716.827
1573.184
2626.06
3310.447
3671.755
3803.809
3804.047
3748.606
3685.399
3638.742
3618.061
3625.249
3658.153
3710.302
3768.908
3813.878
3819.783
3760.963
3618.178
3384.372
3067.476
2689.361
2281.442
1878.395
1511.789
1205.125
971.1461
811.5596
718.7601
678.8207
674.9393
690.6306
712.1563
729.9387
738.9369
738.1637
729.6442
717.1625
705.1037
697.6039
698.0922
709.188
732.8386
770.5499
823.5869
893.0742
979.9873
1085.071
1208.737
1350.981
1511.337
1688.842
1881.982
2088.598
2305.69
2529.334
2754.154
2974.059
3181.82
3358.712
3572.337
761.5113
1069.71
1752.632
2501.066
3114.024
3516.017
3719.395
3778.784
3756.59
3704.11
3655.573
3629.746
3633.905
3666.764
3719.455
3775.68
3812.867
3805.457
3730.112
3571.381
3325.992
3004.358
2628.892
2229.73
1839.105
1485.837
1191.105
966.1803
812.2417
721.9379
682.0937
676.8558
690.6393
710.4013
726.9817
735.4823
734.8399
726.8736
715.1297
703.8091
696.9706
698.0828
709.8934
734.5095
773.567
828.3837
900.0412
989.3878
1096.993
1223.088
1367.521
1529.726
1708.688
1902.858
2110.046
2327.281
2549.728
2777.067
2974.484
3279.993
2891.44
1859.277
1413.629
1509.276
1951.983
2519.333
3040.275
3423.291
3648.023
3740.173
3745.111
3708.588
3666.593
3642.284
3646.483
3679.011
3729.892
3780.893
3808.266
3787.02
3696.124
3523.357
3268.445
2943.621
2571.503
2180.962
1802.048
1461.175
1177.484
960.9377
812.2325
724.2445
684.4978
678.0396
690.1483
708.4394
724.1272
732.4052
732.0844
724.7445
713.6872
702.9523
696.5654
698.0878
710.4408
735.9206
776.3018
832.9464
906.874
998.7845
1109.052
1237.713
1384.454
1548.603
1729.029
1924.44
2130.972
2353.802
2548.618
2896.74
3587.912
3133.287
2450.034
1882.203
1634.997
1737.255
2093.847
2562.143
3013.819
3367.351
3593.22
3701.988
3726.366
3705.224
3672.919
3653.826
3660.339
3692.779
3740.537
3784.471
3800.674
3765.322
3659.726
3474.482
3211.723
2884.986
2516.826
2134.847
1767.103
1437.856
1164.435
955.6395
811.7448
725.8551
686.1649
678.5818
689.2052
706.2659
721.3076
729.5727
729.7131
723.0514
712.648
702.4011
696.3342
698.1332
710.9184
737.1896
778.8646
837.3477
913.5916
1008.143
1121.172
1252.53
1401.638
1568.15
1748.685
1951.819
2129.243
2479.793
3605.663
3612.649
3358.256
2875.663
2337.287
1933.046
1779.69
1891.822
2202.756
2608.151
3007.93
3332.679
3551.821
3668.171
3705.933
3698.054
3676.18
3664.091
3674.236
3706.744
3750.524
3786.185
3790.392
3740.92
3621.439
3425.043
3155.818
2828.213
2464.514
2091.054
1734.035
1415.768
1151.959
950.3746
810.9308
726.9677
687.3221
678.7177
688.0249
704.043
718.6055
726.9755
727.6323
721.6432
711.8404
702.0016
696.1685
698.1669
711.3246
738.3471
781.2948
841.6152
920.1917
1017.446
1133.233
1267.748
1417.779
1593.455
1746.137
2073.188
3537.203
3588.66
3599.902
3462.09
3139.062
2696.66
2263.339
1965.433
1876.886
2001.718
2286.646
2649.864
3010.757
3310.501
3520.303
3639.274
3686.211
3689.481
3677.808
3673.375
3687.676
3720.135
3759.255
3785.846
3777.629
3714.253
3581.715
3375.336
3100.793
2773.153
2414.276
2049.236
1702.508
1394.631
1139.853
945.0287
809.7713
727.6586
688.1319
678.6729
686.8617
702.0129
716.2144
724.7349
725.8856
720.497
711.1987
701.6714
695.9915
698.1307
711.6218
739.3713
783.5708
845.7398
926.5665
1026.931
1143.955
1288.195
1413.084
1702.695
3633.859
3746.372
3786.572
3765.291
3644.744
3390.794
3018.228
2597.605
2227.891
1996.865
1950.916
2085.14
2352.789
2685.841
3016.943
3295.588
3495.603
3614.615
3668.078
3680.865
3678.837
3682.043
3700.44
3732.469
3766.322
3783.328
3762.578
3685.727
3541.012
3325.732
3046.855
2719.829
2365.983
2009.157
1672.225
1374.126
1127.815
939.3445
808.0806
727.8322
688.5956
678.537
685.8709
700.3659
714.3277
723.022
724.6068
719.7057
710.7798
701.4408
695.8157
698.0267
711.7985
740.2595
785.5912
849.9521
931.5231
1040.937
1136.044
1379.788
1625.61
2566.89
3198.931
3575.223
3752.954
3760.414
3607.768
3315.447
2933.396
2538.736
2215.687
2030.409
2012.983
2152.86
2407.233
2717.088
3024.348
3284.971
3475.537
3593.367
3651.815
3672.966
3679.915
3690.325
3712.346
3743.358
3771.382
3778.503
3745.366
3655.668
3499.745
3276.623
2994.303
2668.416
2319.684
1970.755
1643.039
1354.046
1115.596
933.0627
805.6154
727.2868
688.5714
678.2377
685.0477
699.1549
713.0412
721.9597
723.9321
719.4088
710.7183
701.4348
695.7455
697.9562
711.8517
741.2866
786.3896
857.8881
921.1541
1110.728
1021.677
1379.684
1979.577
2612.057
3144.733
3516.504
3705.129
3707.572
3538.63
3236.76
2864.667
2499.438
2215.025
2064.255
2067.342
2210.489
2453.806
2744.708
3032.023
3276.936
3458.705
3574.937
3637.548
3666.238
3681.425
3698.311
3723.188
3752.447
3774.108
3771.201
3726.021
3624.264
3458.192
3228.309
2943.402
2619.12
2275.517
1934.107
1614.965
1334.345
1103.097
926.0351
802.1926
725.8215
687.8606
677.5964
684.25
698.2853
712.3145
721.5635
723.93
719.7208
711.1585
701.8325
695.8987
698.2652
711.1899
745.1898
776.3987
903.7392
1018.534
991.5366
1174.387
1574.421
2106.702
2660.933
3142.824
3486.921
3656.4
3641.86
3461.8
3161.541
2806.808
2471.15
2220.113
2097.201
2116.101
2261.112
2494.746
2769.41
3039.45
3270.485
3444.298
3559.011
3625.405
3660.994
3683.605
3706.029
3732.795
3759.464
3774.249
3761.27
3704.516
3591.592
3416.486
3180.937
2894.293
2572.068
2233.602
1899.323
1588.103
1315.102
1090.363
918.2567
797.7483
723.3133
686.2897
676.4069
683.2619
697.5572
711.9875
721.7332
724.5668
720.6918
712.1683
702.9069
696.024
700.6103
704.9946
768.3988
1080.646
1012.57
970.1041
1047.788
1296.419
1701.674
2200.859
2711.157
3152.841
3463.605
3606.352
3573.109
3385.703
3092.046
2757.135
2449.776
2228.239
2128.846
2160.549
2306.481
2531.284
2791.544
3046.294
3265.041
3431.884
3545.459
3615.502
3657.435
3686.591
3713.483
3741.055
3764.255
3771.679
3748.652
3680.859
3557.694
3374.675
3134.541
2846.995
2527.279
2193.976
1866.477
1562.566
1296.459
1077.534
909.8402
792.3386
719.7422
683.7564
674.4933
681.8552
696.7217
711.8207
722.2804
725.6927
722.3257
713.6083
705.179
695.2367
706.808
1113.006
1085.289
1026.236
970.05
980.7903
1115.7
1396.895
1803.567
2281.094
2758.034
3163.4
3440.401
3555.838
3505.235
3313.225
3028.543
2713.979
2433.275
2238.212
2159.196
2201.504
2347.577
2564.062
2811.258
3052.345
3260.289
3421.237
3534.215
3607.884
3655.626
3690.4
3720.625
3747.892
3766.76
3766.389
3733.393
3655.123
3522.638
3332.787
3089.099
2801.447
2484.686
2156.601
1835.59
1538.445
1278.567
1064.801
900.9763
786.1143
715.1855
680.2444
671.7434
679.8332
695.5316
711.5341
722.9615
727.0983
724.3095
716.4826
703.3474
1134.007
1123.847
1098.216
1047.131
985.9485
956.3862
1009.466
1182.966
1485.383
1891.94
2351.442
2799.138
3170.89
3415.765
3505.489
3439.573
3245.064
2970.659
2676.29
2420.618
2249.527
2188.366
2239.467
2384.943
2593.431
2828.653
3057.533
3256.11
3412.267
3525.229
3602.511
3655.5
3694.927
3727.338
3753.215
3766.952
3758.426
3715.594
3627.426
3486.511
3290.848
3044.565
2757.55
2444.171
2121.388
1806.637
1515.801
1261.574
1052.375
891.9028
779.2947
709.803
675.8212
668.1223
677.0543
693.7677
710.8836
723.3188
729.2876
723.5044
1157.376
1146.524
1135.855
1114.373
1072.007
1012.996
962.3511
960.3207
1047.777
1250.187
1567.313
1971.577
2413.954
2834.532
3174.844
3389.59
3455.634
3376.497
3181.25
2917.989
2643.435
2411.257
2261.934
2216.426
2274.704
2418.887
2619.635
2843.879
3061.941
3252.546
3404.989
3518.475
3599.3
3656.914
3699.998
3733.459
3756.918
3764.811
3747.852
3695.37
3597.887
3449.389
3248.858
3000.86
2715.166
2405.576
2088.204
1779.552
1494.664
1245.611
1040.471
882.8824
772.1449
703.8189
670.6254
663.682
673.391
691.5176
708.4626
728.2627
1182.603
1168.029
1154.887
1142.367
1123.547
1089.31
1037.373
980.2728
946.3017
971.9328
1089.436
1315.25
1643.164
2043.766
2469.624
2864.626
3175.325
3361.91
3406.386
3316.094
3121.703
2870.25
2615.021
2404.831
2275.211
2243.325
2307.306
2449.583
2642.881
2857.151
3065.765
3249.753
3399.491
3513.958
3598.167
3659.722
3705.443
3738.846
3758.927
3760.344
3734.746
3672.834
3566.608
3411.32
3206.785
2957.867
2674.114
2368.697
2056.869
1754.227
1475.026
1230.779
1029.287
874.1808
764.9459
697.527
664.7054
659.1966
666.0657
699.3317
1209.587
1211.302
1208.647
1199.393
1184.091
1161.097
1125.608
1074.39
1012.819
958.8913
941.1151
991.0368
1133.485
1377.952
1713.654
2109.526
2519.174
2889.682
3172.324
3332.689
3357.782
3258.419
3066.389
2827.262
2590.748
2401.007
2289.081
2268.899
2337.238
2477.119
2663.35
2868.693
3069.229
3247.907
3395.87
3511.677
3599.032
3663.799
3711.141
3743.424
3759.241
3753.626
3719.235
3648.128
3533.695
3372.335
3164.566
2915.432
2634.172
2333.286
2027.16
1730.506
1456.83
1217.136
1018.977
866.0658
757.8371
691.7624
656.4021
659.2854
1127.339
1046.546
1049.688
1088.971
1131.147
1159.711
1168.018
1153.101
1114.438
1056.781
993.4257
946.8098
945.226
1016.354
1179.503
1438.877
1779.899
2169.878
2563.176
2909.86
3165.829
3301.948
3309.932
3203.598
3015.34
2788.899
2570.346
2399.441
2303.222
2292.925
2364.422
2501.556
2681.202
2878.71
3072.517
3247.126
3394.149
3511.571
3601.777
3669.016
3717.002
3747.179
3757.934
3744.809
3701.514
3621.438
3499.284
3332.481
3122.139
2873.389
2595.1
2299.07
1998.817
1708.185
1439.966
1204.671
1009.683
858.3872
753.6328
669.3668
2747.223
1985.076
1485.115
1211.686
1098.835
1080.004
1102.727
1131.509
1144.995
1132.722
1093.624
1035.902
976.8059
940.8343
955.6442
1045.988
1226.977
1498.524
1842.752
2225.505
2601.972
2925.269
3155.914
3269.851
3263.075
3151.841
2968.626
2755.044
2553.543
2399.795