/*--------------------------------*- C++ -*----------------------------------*\
| =========                 |                                                 |
| \\      /  F ield         | OpenFOAM: The Open Source CFD Toolbox           |
|  \\    /   O peration     | Version:  2312                                  |
|   \\  /    A nd           | Website:  www.openfoam.com                      |
|    \\/     M anipulation  |                                                 |
\*---------------------------------------------------------------------------*/
FoamFile
{
    version     2.0;
    format      ascii;
    arch        "LSB;label=32;scalar=64";
    class       volScalarField;
    location    "4650";
    object      ILambda_9_0;
}
// * * * * * * * * * * * * * * * * * * * * * * * * * * * * * * * * * * * * * //

dimensions      [1 0 -3 0 0 0 0];

internalField   nonuniform List<scalar> 
12000
(
751.4911
744.0858
741.1719
737.929
735.4599
733.4853
732.0134
730.9865
730.3547
730.0552
730.0041
730.0856
730.146
729.9977
729.4356
728.2653
726.3394
723.5944
720.0778
715.9584
711.5123
707.0837
703.0266
699.6368
697.089
695.3942
694.3869
693.7495
693.0692
691.9172
689.933
686.8964
682.7702
677.706
672.0124
666.0949
660.384
655.2681
651.0468
647.9087
645.9316
645.092
645.2706
646.2448
647.671
649.0766
649.8865
649.5051
647.4476
643.4869
637.7579
630.7681
623.3013
616.2529
610.4573
606.5411
604.8025
605.1379
607.0792
609.9471
766.4317
757.5742
753.2122
748.4589
744.3979
740.8377
737.811
735.2963
733.2866
731.7833
730.7939
730.3163
730.316
730.7028
731.314
731.9128
732.2067
731.8858
730.6769
728.4026
725.032
720.7084
715.7438
710.5769
705.6991
701.5619
698.4846
696.5837
695.7406
695.6178
695.7207
695.4941
694.4309
692.1698
688.5606
683.6834
677.8203
671.3915
664.8734
658.7239
653.3312
648.9947
645.9285
644.2699
644.0674
645.2371
647.495
650.3026
652.8762
654.2969
653.7191
650.612
644.9382
637.1928
628.2983
619.4149
611.7194
606.1675
603.283
603.0533
775.9401
766.9267
761.9691
756.6208
751.8956
747.6633
743.9581
740.7355
737.9474
735.5529
733.5372
731.9169
730.7309
730.0177
729.7844
729.9747
730.446
730.9658
731.2314
730.9139
729.7199
727.4573
724.0904
719.7682
714.8152
709.6828
704.8671
700.811
697.8109
695.9499
695.0755
694.8271
694.709
694.1921
692.8213
690.3032
686.5552
681.7058
676.0512
669.9824
663.9065
658.1869
653.1163
648.9263
645.8129
643.953
643.4792
644.4023
646.5038
649.254
651.8231
653.2261
652.5737
649.3366
643.5159
635.6674
626.7899
618.1013
610.7336
605.4432
787.1624
778.3201
772.7886
766.6973
761.0598
755.8797
751.2816
747.2738
743.8144
740.8237
738.2177
735.936
733.9622
732.3276
731.0966
730.3367
730.0775
730.2725
730.7723
731.323
731.5927
731.2251
729.9121
727.4669
723.8817
719.3517
714.2548
709.0882
704.3722
700.5422
697.8529
696.3202
695.7131
695.6017
695.4481
694.7209
693.0043
690.0768
685.9429
680.8108
675.028
668.9943
663.0826
657.5907
652.7388
648.7073
645.6849
643.8887
643.517
644.6313
647.0075
650.0397
652.7771
654.122
653.1285
649.2953
642.7564
634.2954
625.1086
616.3492
797.3196
789.9428
784.5364
778.2148
771.9093
765.7806
760.1003
755.0187
750.6028
746.8293
743.6091
740.8208
738.35
736.1247
734.1358
732.4392
731.1331
730.3182
730.0473
730.2792
730.8501
731.4753
731.7843
731.387
729.9573
727.3151
723.4851
718.7142
713.4389
708.2055
703.5593
699.9267
697.5207
696.2902
695.9302
695.9474
695.769
694.8658
692.8617
689.6029
685.171
679.8418
674.0006
668.0444
662.3014
656.9971
652.279
648.2859
645.2219
643.3758
643.0447
644.3625
647.1034
650.5674
653.6381
655.0269
653.657
649.0862
641.7732
632.9175
804.5389
800.1451
795.9162
790.385
784.1992
777.6256
771.0514
764.7979
759.1177
754.1576
749.9516
746.4323
743.4613
740.8743
738.5286
736.3444
734.3258
732.5579
731.176
730.3144
730.0458
730.329
730.9795
731.6766
732.0098
731.5574
729.9827
727.1214
723.0396
718.0416
712.6225
707.3707
702.8448
699.4491
697.3435
696.4052
696.2567
696.3504
696.0899
694.9601
692.6328
689.026
684.3004
678.799
672.9436
667.1237
661.6123
656.5463
651.982
648.006
644.8412
642.8711
642.5283
644.0621
647.2727
651.3381
654.8503
656.1615
654.046
648.3953
806.7906
806.4906
804.5174
801.0807
796.3045
790.4369
783.8433
776.9324
770.1146
763.7471
758.0883
753.2693
749.2881
746.0289
743.3029
740.9044
738.6667
736.5078
734.4511
732.6151
731.1731
730.2899
730.0517
730.4085
731.147
731.9053
732.2325
731.6817
729.9154
726.7981
722.4482
717.2331
711.7043
706.4844
702.1314
699.0149
697.232
696.5863
696.632
696.7744
696.4015
695.0159
692.3387
688.3596
683.3218
677.6433
671.7925
666.155
660.9406
656.1736
651.7873
647.7905
644.4242
642.2053
641.7876
643.6416
647.6295
652.663
656.7658
657.8402
803.4737
807.1582
807.9613
807.5793
805.5025
801.8167
796.6803
790.4087
783.416
776.1691
769.1235
762.6627
757.0477
752.388
748.6409
745.6393
743.1449
740.9137
738.7615
736.6113
734.5118
732.6186
731.142
730.2717
730.0982
730.5524
731.3834
732.1843
732.4667
731.7671
729.7612
726.3555
721.7304
716.3189
710.7231
705.5867
701.4536
698.6472
697.1982
696.8394
697.0647
697.2396
696.738
695.0771
692.0208
687.6298
682.2392
676.3622
670.5357
665.1519
660.3415
655.9725
651.7941
647.685
643.9037
641.199
640.6444
643.112
648.5244
655.415
796.1164
802.1727
805.2831
807.929
809.1111
808.6782
806.4587
802.4931
796.9865
790.302
782.9137
775.3442
768.0924
761.5636
756.0154
751.5298
748.019
745.2637
742.9779
740.8857
738.793
736.6367
734.4968
732.5681
731.0939
730.2803
730.2101
730.7832
731.7028
732.5157
732.7022
731.7953
729.4997
725.7781
720.8799
715.3014
709.6851
704.6812
700.8064
698.3312
697.2225
697.1507
697.5577
697.7712
697.1435
695.1918
691.712
686.8381
681.0199
674.9041
669.1334
664.1204
659.8883
656.0707
652.1211
647.7027
643.1282
639.5948
638.8926
642.4484
787.9627
793.8599
797.88
802.3398
806.125
808.9055
810.2124
809.7463
807.3584
803.0981
797.211
790.114
782.3417
774.472
767.0429
760.4756
755.0171
750.7157
747.4348
744.9032
742.7922
740.8023
738.7403
736.5658
734.3963
732.4652
731.0427
730.3389
730.4142
731.1249
732.1216
732.9062
732.9382
731.7631
729.1316
725.0745
719.913
714.1998
708.6034
703.7665
700.1699
698.0333
697.2696
697.499
698.1166
698.404
697.6712
695.4109
691.4376
685.9704
679.6141
673.207
667.551
663.096
659.7069
656.6507
652.9139
647.8413
641.8329
636.5256
782.386
785.9297
789.1549
793.5057
798.1726
802.8292
806.9059
809.8791
811.2761
810.7606
808.1832
803.6137
797.341
789.8396
781.7051
773.5676
765.9986
759.4269
754.0807
749.9681
746.901
744.5588
742.5775
740.6453
738.5821
736.3806
734.2003
732.3108
730.9987
730.463
730.726
731.5878
732.642
733.3516
733.1692
731.6712
728.6696
724.2707
718.864
713.0456
707.495
702.8363
699.5148
697.7111
697.3014
697.8679
698.7561
699.1799
698.3728
695.7725
691.2023
684.9902
677.9528
671.1969
665.7518
662.1207
659.9278
657.8954
654.3441
648.1518
781.0093
781.5712
782.8712
785.449
789.019
793.4754
798.4143
803.3426
807.6769
810.831
812.2929
811.7027
808.9127
804.0199
797.3615
789.4722
781.0077
772.6458
764.9831
758.4461
753.2344
749.3095
746.4306
744.232
742.3251
740.3999
738.3028
736.0701
733.9058
732.1099
730.9722
730.663
731.1496
732.1663
733.2498
733.8346
733.384
731.523
728.1363
723.4055
717.7776
711.8751
706.3743
701.8778
698.8074
697.3259
697.2931
698.2598
699.5064
700.1449
699.2915
696.2997
690.9994
683.8591
675.9723
668.8014
663.6798
661.1883
660.6955
660.5007
782.7197
781.6447
781.091
781.4017
782.6883
785.1908
788.8592
793.4881
798.6756
803.8736
808.447
811.7568
813.2519
812.5545
809.5255
804.2959
797.2564
789.0042
780.2527
771.7203
764.0183
757.559
752.5031
748.7589
746.033
743.9228
742.0278
740.0559
737.8951
735.6336
733.5202
731.8755
730.9759
730.9443
731.6781
732.8403
733.9165
734.3281
733.5681
731.3251
727.5606
722.5226
716.6972
710.7156
705.2427
700.869
698.0153
696.8532
697.2426
698.6967
700.4033
701.3329
700.4498
697.0038
690.8337
682.5759
673.6591
665.9826
661.2653
660.2587
784.284
784.1437
782.9745
781.9754
781.245
781.3203
782.5007
784.9767
788.7343
793.5465
798.9797
804.436
809.2246
812.656
814.1439
813.2997
810.0011
804.4211
797.0098
788.4278
779.4421
770.8029
763.1231
756.7869
751.9053
748.3281
745.7121
743.6275
741.6787
739.6086
737.361
735.0825
733.0625
731.6288
731.0253
731.309
732.2968
733.5803
734.6068
734.8037
733.712
731.0923
726.9772
721.6632
715.6537
709.5748
704.0843
699.7816
697.1168
696.2931
697.1715
699.2077
701.465
702.745
701.8429
697.8957
690.748
681.2113
671.0308
662.3184
782.2682
785.3563
785.2646
784.803
783.6135
782.3226
781.3802
781.2617
782.3347
784.8056
788.6662
793.6711
799.3481
805.0467
810.0199
813.5297
814.961
813.9231
810.3204
804.3772
796.608
787.7372
778.5794
769.9044
762.3123
756.1444
751.4509
748.0198
745.4633
743.3379
741.2706
739.0579
736.7115
734.4385
732.5607
731.3957
731.1349
731.7538
732.9834
734.3523
735.2873
735.2423
733.8198
730.8514
726.4245
720.8597
714.6585
708.4397
702.8722
698.5959
696.1164
695.6743
697.1147
699.8086
702.6764
704.3449
703.436
698.9666
690.7721
679.7079
775.1098
782.0718
784.2317
785.9554
786.2368
785.5379
784.1816
782.6585
781.4986
781.2103
782.1985
784.6893
788.6741
793.8836
799.8019
805.7228
810.8426
814.3794
815.6968
814.4125
810.469
804.1511
796.0431
786.9315
777.6704
769.0357
761.5974
755.6391
751.1403
747.8266
745.2737
743.0408
740.7971
738.4092
735.9654
733.731
732.0466
731.2005
731.3124
732.2661
733.7093
735.1226
735.9336
735.6408
733.9125
730.6388
725.937
720.1275
713.7007
707.2824
701.5844
697.3168
695.0499
695.0451
697.1054
700.5019
704.0081
706.0734
705.1803
700.4105
764.0521
773.4851
777.9017
782.299
785.2252
786.8139
787.0713
786.2334
784.6892
782.9515
781.5922
781.1612
782.0961
784.6389
788.7743
794.2028
800.3593
806.4785
811.7014
815.2068
816.3466
814.7593
810.4377
803.7368
795.3145
786.0164
776.7254
768.2075
760.9855
755.2705
750.9642
747.7316
745.1243
742.7222
740.2555
737.6748
735.1489
732.9934
731.5506
731.0597
731.5545
732.8237
734.4426
735.8637
736.5363
736.0135
734.0225
730.4888
725.5319
719.4563
712.7498
706.0746
700.2181
695.9738
693.9646
694.4528
697.1892
701.3324
705.5106
708.2064
752.3912
761.6293
767.1895
773.3388
778.6751
783.0093
786.0371
787.6274
787.8214
786.8499
785.1222
783.1844
781.6499
781.109
782.029
784.6623
788.9798
794.6441
801.035
807.3254
812.6023
816.0124
816.9071
814.9588
810.224
803.1365
794.4304
785.0047
775.7586
767.4305
760.479
755.0301
750.9037
747.7107
744.993
742.3699
739.6497
736.8754
734.2941
732.2591
731.0964
730.9792
731.8478
733.4009
735.1577
736.5639
737.1049
736.3881
734.1814
730.4183
725.1998
718.8155
711.7741
704.8045
698.7835
694.5866
692.8933
693.9774
697.5148
702.5602
743.5757
750.1266
755.2762
761.4221
767.7241
773.819
779.2749
783.694
786.7748
788.3602
788.4802
787.3711
785.4643
783.3419
781.6599
781.0474
781.9972
784.7653
789.3003
795.2188
801.8388
808.2693
813.5467
816.7938
817.3745
815.0096
809.8316
802.3612
793.4081
783.9168
774.7875
766.7139
760.0743
754.9008
750.9323
747.7354
744.8587
741.9781
738.9915
736.0371
733.4326
731.554
730.6952
730.9532
732.1744
733.9789
735.8474
737.2345
737.6665
736.7946
734.4055
730.4204
724.9181
718.1864
710.7702
703.4678
697.2573
693.1463
691.9173
693.7688
739.419
742.1306
745.7106
750.2575
755.7449
761.8172
768.1479
774.3045
779.8392
784.3298
787.4457
789.0082
789.0393
787.7842
785.7008
783.4101
781.6114
780.9709
782.0011
784.9532
789.7436
795.934
802.7747
809.3097
814.5296
817.5443
817.7439
814.9127
809.2708
801.4302
792.2734
782.7789
773.8318
766.0641
759.7618
754.8594
751.0201
747.7792
744.7076
741.55
738.2993
735.1853
732.5856
730.8865
730.3405
730.9657
732.5206
734.5573
736.5292
737.9048
738.2479
737.2423
734.6844
730.4842
724.7005
717.6031
709.7415
701.9985
695.5528
691.5609
739.5281
738.8083
740.5167
742.788
746.2952
750.7932
756.1938
762.2386
768.5801
774.786
780.3852
784.9278
788.0556
789.571
789.4919
788.0781
785.8188
783.3775
781.4973
780.8777
782.0438
785.2321
790.316
796.7928
803.8403
810.4384
815.5391
818.2521
818.0091
814.6719
808.5571
800.3698
791.0579
781.6197
772.9089
765.4823
759.5266
754.8806
751.1417
747.8269
744.5405
741.1014
737.5951
734.336
731.754
730.2414
730.0093
731.001
732.89
735.1609
737.2359
738.5939
738.8369
737.6963
735.003
730.6578
724.6392
717.0992
708.5636
700.0443
742.1701
739.2579
739.4995
739.8158
741.219
743.5567
746.9423
751.3511
756.6746
762.6847
769.0346
775.2811
780.9295
785.5012
788.6119
790.0491
789.8328
788.2438
785.8089
783.2373
781.3152
780.7706
782.1322
785.6098
791.0226
797.7946
805.0275
811.6405
816.5573
818.9017
818.1631
814.2931
807.7106
799.2099
789.7932
780.4636
772.0287
764.9613
759.3491
754.9428
751.2852
747.8841
744.3797
740.6608
736.8982
733.4869
730.9125
729.5832
729.6781
731.0654
733.3202
735.836
737.9847
739.2598
739.348
738.1015
735.4147
731.0821
724.8109
716.5131
745.8067
741.7283
741.0483
740.1733
740.0925
740.6593
742.0333
744.3217
747.6136
751.9291
757.1845
763.1662
769.5273
775.8087
781.49
786.0636
789.1221
790.4436
790.0579
788.2749
785.6652
782.987
781.0679
780.6572
782.2764
786.0957
791.8676
798.9354
806.3233
812.8965
817.563
819.4775
818.2018
813.7869
806.7542
797.9795
788.5048
779.3228
771.1857
764.4814
759.2062
755.0339
751.4606
747.9837
744.269
740.262
736.2135
732.6087
730.0132
728.8763
729.3538
731.2171
733.892
736.6259
738.7255
739.7675
739.6616
738.4756
736.0983
732.0744
750.1349
745.1243
743.697
742.1238
741.2087
740.7525
740.816
741.4729
742.8465
745.0773
748.2849
752.521
757.7252
763.694
770.0745
776.3875
782.0841
786.6284
789.5936
790.7561
790.1645
788.1672
785.3852
782.6282
780.7619
780.5484
782.4885
786.6988
792.8532
800.2079
807.7116
814.1852
818.537
819.9691
818.1287
813.1709
805.7147
796.7039
787.205
778.19
770.3539
764.0092
759.0748
755.1577
751.7041
748.1833
744.2614
739.9248
735.513
731.6387
728.9981
728.1157
729.1104
731.5842
734.7097
737.5239
739.3263
739.963
739.7541
739.0764
755.9212
749.6765
747.2346
744.8562
743.2258
742.1296
741.5049
741.3
741.5235
742.2522
743.6224
745.8013
748.9401
753.1198
758.299
764.2781
770.6916
777.035
782.7282
787.2078
790.0337
790.9888
790.1516
787.919
784.9697
782.1661
780.4071
780.4565
782.7798
787.4249
793.9763
801.5995
809.1732
815.487
819.4668
820.3777
817.9613
812.4746
804.6228
795.4017
785.8895
777.0348
769.4872
763.5032
758.9412
755.3419
752.0787
748.5528
744.3953
739.6278
734.7188
730.4845
727.825
727.3595
729.0993
732.3329
735.8505
738.4813
739.6743
739.7378
763.848
756.3424
752.5812
748.9661
746.2139
744.2146
742.8954
742.1312
741.7998
741.8203
742.1849
742.972
744.336
746.4725
749.5644
753.7189
758.9077
764.9275
771.3926
777.7669
783.4365
787.8128
790.4486
791.1445
790.0205
787.5326
784.424
781.6099
780.0154
780.393
783.157
788.2723
795.2251
803.0901
810.6852
816.7849
820.3496
820.7198
817.7333
811.7394
803.5119
794.0825
784.5356
775.808
768.5297
762.9295
758.8167
755.6459
752.6672
749.153
744.666
739.2885
733.7056
729.0504
726.4967
726.7222
729.4875
733.6052
737.4239
739.6542
773.3144
765.4697
760.5983
755.6304
751.3642
747.9056
745.333
743.6051
742.5987
742.1451
742.082
742.3004
742.7817
743.6114
744.9662
747.0729
750.1454
754.3126
759.5524
765.6489
772.1874
778.594
784.2187
788.4506
790.8436
791.2273
789.7761
787.0163
783.7603
780.9746
779.6015
780.3677
783.6206
789.229
796.5759
804.6497
812.2205
818.065
821.1933
821.0269
817.4923
811.0131
802.4111
792.7416
783.1031
774.45
767.433
762.2824
758.7528
756.1618
753.5553
750.0095
745.0107
738.7779
732.3453
727.2761
725.0391
726.2931
730.4604
735.9272
782.151
775.7892
770.7805
765.1533
759.6414
754.5748
750.2635
746.8903
744.5097
743.0492
742.3421
742.1756
742.3499
742.7331
743.3019
744.1554
745.4979
747.5894
750.6737
754.8964
760.233
766.4453
773.0804
779.5203
785.0774
789.1228
791.2207
791.2422
789.429
786.3865
783.0001
780.2834
779.1846
780.3897
784.1645
790.2729
797.9942
806.2402
813.7497
819.3185
822.0157
821.3404
817.2902
810.338
801.3328
791.353
781.537
772.9051
766.177
761.6018
758.8428
756.9943
754.8025
751.1002
745.34
737.9926
730.5623
725.1119
723.4244
726.1402
787.5517
784.5578
780.8584
776.0118
770.4231
764.5135
758.7478
753.5383
749.2062
745.9348
743.7559
742.5606
742.1375
742.2306
742.6063
743.1161
743.7392
744.5958
745.9228
748.0157
751.1455
755.4685
760.9487
767.3154
774.0684
780.5402
786.0056
789.8231
791.5777
791.1945
788.994
785.6678
782.1745
779.5675
778.7883
780.4677
784.7783
791.3753
799.4404
807.8232
815.2488
820.5457
822.8436
821.7044
817.1701
809.7345
800.2607
789.8662
779.7767
771.1392
764.7845
760.969
759.1918
758.2201
756.4271
752.4036
745.6286
736.8927
728.199
721.9753
787.659
788.8655
787.6941
785.1697
781.1723
775.9982
770.0597
763.8412
757.8457
752.52
748.1962
745.0497
743.0851
742.1533
741.9968
742.3183
742.8557
743.4507
744.0935
744.9323
746.2417
748.3538
751.5638
756.0313
761.6993
768.254
775.1405
781.6377
786.985
790.5356
791.9062
791.088
788.4888
784.8905
781.3208
778.8628
778.4378
780.6087
785.4489
792.5071
800.8795
809.3711
816.7097
821.7629
823.7119
822.157
817.1524
809.1887
799.1456
788.2159
777.7753
769.1554
763.3125
760.4638
759.8592
759.8699
758.4651
753.9685
745.83
735.0108
782.7968
787.3094
788.9628
789.5529
788.4758
785.7184
781.4239
775.9076
769.6276
763.1198
756.9266
751.5206
747.2399
744.2454
742.5092
741.838
741.9286
742.4448
743.1019
743.74
744.3685
745.171
746.4638
748.6152
751.9402
756.5935
762.487
769.2545
776.2801
782.7885
787.9881
791.236
792.1922
790.9235
787.9313
784.0856
780.4756
778.2017
778.1522
780.814
786.1608
793.6446
802.2919
810.8803
818.1505
823.0057
824.6593
822.7198
817.2248
808.6527
797.9216
786.3519
775.5259
766.9864
761.7951
760.0904
760.8493
762.0154
761.0722
756.0518
775.5424
780.978
784.5751
787.7947
789.8566
790.3919
789.1792
786.1825
781.5741
775.7145
769.1092
762.3407
755.9879
750.5434
746.3444
743.5305
742.0359
741.6206
741.9358
742.6107
743.345
743.9856
744.57
745.3232
746.6058
748.8205
752.2954
757.1711
763.3182
770.3109
777.4685
783.9642
788.9829
791.8969
792.4199
790.7018
787.3376
783.2795
779.6665
777.6031
777.9354
781.0725
786.8959
794.7749
803.6825
812.3791
819.6178
824.3225
825.7142
823.3841
817.3421
808.0674
796.5533
784.2846
773.0602
764.6237
760.1641
759.816
762.3469
765.3776
769.5516
773.1006
776.9404
781.1635
785.2495
788.596
790.7065
791.1811
789.7957
786.5347
781.6032
775.4058
768.4964
761.5016
755.0323
749.5942
745.5168
742.9112
741.6687
741.5006
742.0142
742.8097
743.5792
744.1859
744.703
745.4022
746.6891
748.996
752.6561
757.785
764.2031
771.4191
778.6881
785.1379
789.9408
792.496
792.5798
790.4279
786.7237
782.4906
778.9038
777.0623
777.7672
781.3571
787.6348
795.9018
805.0858
813.9268
821.1741
825.751
826.8682
824.0992
817.4473
807.4234
795.1019
782.0905
770.3661
761.9444
758.3413
759.8701
767.7938
767.5326
769.877
773.081
777.2217
781.6931
785.9521
789.4066
791.5244
791.8984
790.309
786.7628
781.5015
774.976
767.7882
760.6061
754.0668
748.6821
744.7653
742.3925
741.4074
741.4721
742.1531
743.0288
743.793
744.3346
744.7701
745.4212
746.7361
749.1699
753.05
758.4566
765.1515
772.5756
779.9239
786.2892
790.8441
793.0255
792.6775
790.1178
786.1079
781.7274
778.1769
776.547
777.6028
781.6286
788.3659
797.055
806.5683
815.6001
822.8668
827.2758
828.0456
824.7832
817.5386
806.8397
793.726
779.8005
767.223
758.3002
771.1801
766.9229
766.7796
767.4879
769.7808
773.2699
777.611
782.2841
786.6903
790.2134
792.2998
792.5357
790.7114
786.8605
781.2655
774.4255
766.9895
759.6629
753.1026
747.8182
744.0987
741.9779
741.249
741.525
742.3373
743.2506
743.9712
744.4231
744.7725
745.3919
746.7672
749.3666
753.4997
759.2006
766.1668
773.7726
781.1623
787.4063
791.6909
793.4986
792.7396
789.8031
785.5117
780.9878
777.453
776.0002
777.3817
781.8527
789.1048
798.3033
808.2246
817.4659
824.6801
828.786
829.1048
825.3876
817.7365
806.5256
792.4915
776.9593
778.2914
771.5609
769.0607
766.9773
766.4459
767.4058
769.8472
773.5398
778.0834
782.9335
787.4583
791.0139
793.0294
793.0891
790.999
786.8255
780.8957
773.7586
766.1088
758.684
752.1532
747.0152
743.5256
741.6702
741.1885
741.6473
742.5497
743.4572
744.0995
744.4447
744.7132
745.3264
746.8004
749.6042
754.0172
760.0185
767.2391
774.9935
782.3876
788.485
792.4961
793.9501
792.8133
789.5267
784.9551
780.2542
776.6769
775.3483
777.0461
782.0239
789.9168
799.7637
810.1622
819.5418
826.4988
830.0845
829.9034
825.9401
818.2516
806.903
786.2563
779.4603
775.6732
771.7035
768.6517
766.7479
766.2834
767.3842
770.002
773.8942
778.6332
783.6421
788.257
791.8083
793.7121
793.5566
791.1702
786.6576
780.395
772.9821
765.1567
757.6828
751.2331
746.2852
743.0535
741.4695
741.2185
741.8255
742.774
743.6337
744.1687
744.3993
744.6015
745.241
746.853
749.8943
754.6024
760.896
768.3433
776.2106
783.582
789.5282
793.2891
794.4318
792.9569
789.3312
784.4431
779.4849
775.7714
774.5121
776.5611
782.1875
790.9271
801.5879
812.4681
821.7795
828.1544
830.9857
830.3745
826.7612
792.1958
787.5114
783.861
779.5715
775.3004
771.427
768.3773
766.5332
766.1738
767.4279
770.2358
774.3334
779.2628
784.4131
789.0887
792.5974
794.3471
793.9368
791.2242
786.3584
779.7683
772.105
764.1457
756.6736
750.3554
745.6379
742.6854
741.3713
741.3279
742.0441
742.9947
743.7698
744.1779
744.2968
744.4565
745.1585
746.9437
750.2435
755.2448
761.806
769.443
777.3909
784.7303
790.5495
794.113
795.0047
793.2271
789.2425
783.9526
778.6085
774.6433
773.4229
775.9299
782.4385
792.2916
803.9215
815.2157
824.1712
829.5712
831.3431
794.4227
792.977
790.6033
787.4655
783.5745
779.2989
775.0007
771.1216
768.1018
766.3341
766.1031
767.5331
770.5487
774.8599
779.9755
785.2493
789.9549
793.3808
794.9331
794.2283
791.1609
785.9308
779.0228
771.1384
763.0897
755.6708
749.532
745.079
742.4192
741.3653
741.4995
742.2841
743.1965
743.8592
744.1337
744.1566
744.3063
745.1071
747.0917
750.6535
755.9257
762.7141
770.4993
778.5074
785.8316
791.5801
795.0245
795.7313
793.6651
789.2575
783.4285
777.5348
773.2064
772.0431
775.186
782.867
794.1286
806.92
818.6584
827.1574
792.8323
794.526
793.9168
792.7435
790.4276
787.224
783.3013
778.9804
774.657
770.7817
767.8098
766.1431
766.0679
767.6996
770.9426
775.4764
780.7736
786.1514
790.8545
794.1562
795.4671
794.4292
790.9816
785.3803
778.1686
770.0969
762.0055
754.6899
748.7732
744.6109
742.2473
741.4346
741.7113
742.5234
743.3643
743.8994
744.0485
744.0041
744.1821
745.1143
747.3096
751.1165
756.6178
763.5827
771.4805
779.5505
786.9085
792.6721
796.0884
796.6626
794.2835
789.3405
782.8015
776.195
771.4232
770.3653
774.3221
783.4749
796.6155
811.4167
788.4669
792.3787
793.3889
794.201
793.8889
792.5768
790.2261
786.9537
782.9722
778.6033
774.2575
770.3992
767.4965
765.9579
766.0681
767.9287
771.4191
776.1841
781.6567
787.1173
791.7833
794.9182
795.9442
794.5372
790.6881
784.7145
777.2193
768.998
760.9117
753.7468
748.0884
744.2328
742.1582
741.5591
741.939
742.741
743.487
743.8941
743.941
743.8679
744.1128
745.1978
747.5961
751.6094
757.2835
764.3753
772.3695
780.5358
788.0097
793.8908
797.3586
797.8142
795.0519
789.4379
782.0385
774.6033
769.3228
768.3548
773.214
784.1893
782.6825
787.6996
789.8453
792.1293
793.5634
794.1826
793.821
792.4199
789.9879
786.6348
782.5821
778.162
773.7989
769.9722
767.1612
765.7794
766.1053
768.2225
771.9797
776.9825
782.6221
788.1415
792.7339
795.659
796.3581
794.5496
790.2835
783.9432
776.1905
767.8613
759.8282
752.8569
747.484
743.9404
742.1371
741.7171
742.1609
742.9222
743.5631
743.8572
743.8373
743.7781
744.1209
745.3616
747.9307
752.0923
757.8784
765.0637
773.1725
781.5084
789.2032
795.2943
798.848
799.143
795.9033
789.5242
781.1995
772.8572
766.8518
765.3363
776.4681
781.7572
784.5463
787.6631
790.2601
792.3349
793.6991
794.2112
793.7496
792.2467
789.714
786.2654
782.1311
777.6566
773.282
769.5018
766.8061
765.6102
766.1826
768.583
772.6246
777.8695
783.6644
789.2156
793.6963
796.3684
796.7013
794.4642
789.7724
783.078
775.0998
766.7068
758.7725
752.031
746.961
743.7234
742.1653
741.8875
742.3606
743.0627
743.6045
743.8158
743.7728
743.7659
744.2201
745.5929
748.2753
752.5143
758.3614
765.641
773.9289
782.5429
790.5623
796.9073
800.5074
800.5511
796.7622
789.6044
780.3182
770.6768
770.2615
775.3758
778.4826
781.9614
785.1797
788.1206
790.6409
792.6031
793.8566
794.2552
793.6782
792.0576
789.4074
785.8482
781.6219
777.0898
772.7095
768.9915
766.4352
765.4547
766.3036
769.0126
773.3537
778.8412
784.7758
790.329
794.6583
797.0356
796.9672
794.2807
789.1626
782.1339
773.9665
765.5536
757.7588
751.2734
746.5115
743.5639
742.2196
742.0492
742.528
743.1693
743.6363
743.8079
743.7869
743.8579
744.4115
745.8623
748.5778
752.8225
758.7077
766.1323
774.7136
783.7329
792.1473
798.7153
802.2461
801.913
797.5271
789.6701
764.2096
768.9049
772.1396
775.7289
779.2356
782.617
785.781
788.6293
791.0469
792.8988
794.0369
794.3147
793.6105
791.8569
789.0724
785.3871
781.0578
776.4647
772.0853
768.4459
766.0539
765.3186
766.4734
769.5139
774.1657
779.8919
785.9465
791.4686
795.6063
797.6498
797.1507
794.0025
788.4661
781.13
772.8122
764.4202
756.7964
750.581
746.1199
743.4372
742.2741
742.1846
742.6612
743.2596
743.6928
743.8751
743.9149
744.0679
744.678
746.1236
748.7789
752.9718
758.9146
766.59
775.6188
785.1731
794.0177
800.7221
804.0246
803.2875
758.5579
762.5508
765.7218
769.2549
772.8634
776.4572
779.9602
783.2968
786.391
789.153
791.473
793.2187
794.2417
794.3934
793.5509
791.6489
788.7126
784.885
780.4418
775.785
771.4139
767.871
765.6694
765.209
766.6975
770.0894
775.0584
781.014
787.1638
792.6189
796.5253
798.2005
797.2495
793.6373
787.6999
780.0889
771.6596
763.3227
755.8896
749.9437
745.7645
743.3169
742.307
742.2852
742.7705
743.3619
743.8131
744.0557
744.1795
744.3923
744.9858
746.3215
748.8225
752.9309
758.9917
767.0659
776.7339
786.9923
796.3593
803.3011
753.8283
756.7159
759.5317
762.7688
766.2741
769.907
773.5744
777.1871
780.6732
783.9667
786.9984
789.6841
791.9168
793.5636
794.4734
794.4946
793.503
791.4366
788.3302
784.3439
779.776
775.054
770.7006
767.2741
765.2901
765.1344
766.9825
770.7415
776.0288
782.198
788.4131
793.7631
797.4002
798.6784
797.264
793.1964
786.8843
779.0347
770.5294
762.2715
755.0343
749.3444
745.4207
743.1808
742.308
742.3588
742.8815
743.5136
744.0359
744.3772
744.5879
744.8139
745.2987
746.4132
748.672
752.6741
758.9326
767.6091
778.2489
789.7201
750.6756
752.0617
754.1612
756.7506
759.8279
763.2302
766.8466
770.5593
774.2682
777.8908
781.36
784.6165
787.5966
790.2193
792.3773
793.9344
794.7343
794.6207
793.4686
791.221
787.926
783.7646
779.0622
774.2752
769.9512
766.6632
764.9256
765.1042
767.3354
771.4724
777.0724
783.4332
789.6789
794.884
798.2172
799.0781
797.1996
792.6957
786.0416
777.9891
769.4348
761.2653
754.2145
748.7572
745.0635
743.0156
742.2828
742.4303
743.0313
743.752
744.3872
744.8482
745.1331
745.3197
745.6078
746.3908
748.3033
752.1629
758.7433
768.3804
749.5489
749.2642
750.3537
751.9406
754.1927
756.9738
760.1886
763.7123
767.4193
771.1923
774.9316
778.5588
782.0129
785.2404
788.1818
790.7566
792.8542
794.3318
795.0253
794.7728
793.4482
791.0021
787.4993
783.1469
778.3016
773.4521
769.172
766.047
764.5859
765.1276
767.762
772.2825
778.1832
784.7074
790.9454
795.967
798.9679
799.4013
797.0697
792.1576
785.1964
776.9698
768.3781
760.2886
753.4004
748.1497
744.6713
742.8213
742.2549
742.5373
743.2557
744.0964
744.8642
745.4535
745.8091
745.9292
745.9438
746.2532
747.6374
751.1354
750.4214
748.6618
748.6593
749.0548
750.1722
751.9416
754.328
757.2452
760.5803
764.2031
767.9827
771.8004
775.5594
779.1865
782.6277
785.8351
788.7515
791.2946
793.3468
794.7555
795.3463
794.9499
793.4405
790.7782
787.0491
782.4908
777.4964
772.5895
768.3703
765.4348
764.2805
765.212
768.2653
773.1686
779.3512
786.0057
792.1968
797.0009
799.6508
799.6598
796.8985
791.6126
784.3755
775.9888
767.3503
759.3119
752.5532
747.4904
744.2359
742.6186
742.2649
742.72
743.5716
744.5291
745.4279
746.1662
746.6289
746.6809
746.2957
745.7639
752.7759
750.0518
749.1386
748.4285
748.3435
748.8886
750.1125
752.0066
754.5191
757.5568
760.9964
764.7008
768.5355
772.3825
776.15
779.7724
783.2029
786.3991
789.3045
791.8319
793.8536
795.2037
795.6948
795.1495
793.4425
790.5469
786.5741
781.7974
776.6503
771.6943
767.5556
764.8371
764.0185
765.3626
768.8441
774.1218
780.5607
787.3088
793.416
797.9771
800.2719
799.8755
796.7203
791.0976
783.6052
775.0508
766.33
758.2957
751.6335
746.7613
743.7738
742.4549
742.369
743.0117
743.9664
744.9957
746.015
746.9562
747.6147
747.6438
755.8437
752.7704
751.3156
749.8341
748.7666
748.1632
748.1427
748.7802
750.1124
752.1262
754.7591
757.907
761.4372
765.2065
769.0788
772.9397
776.7046
780.3172
783.7393
786.9329
789.8407
792.3677
794.3727
795.673
796.0662
795.3658
793.4488
790.3041
786.073
781.069
775.7702
770.7773
766.7414
764.2673
763.8103
765.5831
769.4934
775.1276
781.7901
788.593
794.5841
798.8895
800.8425
800.0777
796.5745
790.6494
782.9047
774.1469
765.2822
757.1943
750.6093
745.9661
743.3317
742.4053
742.6384
743.4442
744.4127
745.4199
746.5471
747.8389
758.9366
755.9935
754.3987
752.5859
750.9496
749.5355
748.4878
747.9331
747.9839
748.7169
750.1622
752.2968
755.0466
758.296
761.9036
765.7215
769.6146
773.4745
777.2263
780.8247
784.2404
787.4398
790.3622
792.902
794.9013
796.158
796.4525
795.5897
793.4505
790.0432
785.5432
780.3089
774.8654
769.8533
765.9452
763.7425
763.6683
765.8779
770.2066
776.1691
783.0151
789.8332
795.6838
799.7359
801.3797
800.2994
796.5
790.2963
782.2772
773.2494
764.1568
755.9572
749.4561
745.1261
742.9803
742.5748
743.1801
744.079
744.8702
745.5864
761.6786
759.0713
757.6228
755.8503
754.0801
752.3091
750.6566
749.248
748.2251
747.7234
747.8551
748.693
750.2582
752.5161
755.3801
758.7228
762.3951
766.2462
770.1444
773.9899
777.7197
781.3008
784.7132
787.9261
790.8737
793.4367
795.4372
796.6519
796.8433
795.8084
793.4347
789.754
784.9801
779.5196
773.9461
768.9385
765.1869
763.282
763.6067
766.2519
770.9779
777.2304
784.2144
791.0098
796.7054
800.5229
801.9076
800.576
796.5302
790.0543
781.709
772.3146
762.8922
754.5256
748.1416
744.259
742.8088
743.1278
744.1905
745.0475
764.0293
761.7146
760.5172
758.9765
757.3717
755.6342
753.8277
752.0308
750.3608
748.9567
747.9664
747.5283
747.7528
748.7058
750.3979
752.7815
755.7563
759.184
762.9085
766.7786
770.6681
774.4884
778.1902
781.7537
785.1675
788.4021
791.3837
793.9764
795.9802
797.1488
797.2274