/*--------------------------------*- C++ -*----------------------------------*\
| =========                 |                                                 |
| \\      /  F ield         | OpenFOAM: The Open Source CFD Toolbox           |
|  \\    /   O peration     | Version:  2312                                  |
|   \\  /    A nd           | Website:  www.openfoam.com                      |
|    \\/     M anipulation  |                                                 |
\*---------------------------------------------------------------------------*/
FoamFile
{
    version     2.0;
    format      ascii;
    arch        "LSB;label=32;scalar=64";
    class       volScalarField;
    location    "4650";
    object      ILambda_11_0;
}
// * * * * * * * * * * * * * * * * * * * * * * * * * * * * * * * * * * * * * //

dimensions      [1 0 -3 0 0 0 0];

internalField   nonuniform List<scalar> 
12000
(
628.9942
627.2091
626.3366
625.2569
624.234
623.2073
622.1939
621.1926
620.2066
619.2379
618.2887
617.361
616.4569
615.5781
614.7266
613.9038
613.1116
612.3512
611.624
610.9313
610.2741
609.6534
609.07
608.5248
608.0181
607.5507
607.1227
606.7344
606.3859
606.0772
605.8082
605.5786
605.3881
605.2362
605.1224
605.046
605.0063
605.0024
605.0334
605.0982
605.1959
605.325
605.4842
605.6723
605.8879
606.1292
606.3947
606.6826
606.9913
607.3191
607.6642
608.0245
608.3985
608.7844
609.1805
609.5852
609.9971
610.4155
610.8398
611.2694
650.3165
648.9803
648.2489
647.3312
646.4031
645.426
644.4112
643.3591
642.2726
641.1543
640.007
638.8336
637.6373
636.4211
635.1881
633.9415
632.6845
631.4205
630.1526
628.884
627.6179
626.3576
625.1061
623.8663
622.6412
621.4338
620.2467
619.0826
617.9441
616.8337
615.7536
614.706
613.6931
612.7167
611.7788
610.8811
610.0251
609.2124
608.4442
607.7219
607.0464
606.419
605.8403
605.3111
604.8322
604.4041
604.0271
603.7015
603.4275
603.2051
603.0342
602.9145
602.8458
602.8275
602.8592
602.9403
603.0706
603.2503
603.4801
603.761
655.1062
654.9408
654.8159
654.6344
654.4014
654.1153
653.7748
653.3797
652.9297
652.425
651.8658
651.2528
650.5869
649.8691
649.1007
648.2834
647.4189
646.5091
645.5563
644.5626
643.5308
642.4633
641.363
640.2329
639.0758
637.8948
636.6931
635.4739
634.2404
632.9957
631.7431
630.4856
629.2266
627.9689
626.7156
625.4698
624.2341
623.0114
621.8044
620.6156
619.4475
618.3025
617.1829
616.0908
615.0284
613.9977
613.0007
612.0394
611.1156
610.2313
609.3882
608.5882
607.8331
607.1249
606.4656
605.8575
605.3033
604.8063
604.3717
604.0079
652.9478
653.5393
653.8667
654.2454
654.5827
654.8964
655.1777
655.4249
655.6346
655.8042
655.931
656.0123
656.0458
656.0294
655.961
655.8391
655.6621
655.4287
655.138
654.7893
654.3822
653.9166
653.3927
652.8109
652.1721
651.4773
650.7278
649.9254
649.0718
648.1693
647.2202
646.2271
645.1926
644.1199
643.0118
641.8716
640.7027
639.5081
638.2915
637.056
635.8052
634.5421
633.2702
631.9926
630.7123
629.4322
628.1552
626.884
625.6212
624.369
623.13
621.9062
620.6998
619.513
618.3479
617.2068
616.0925
615.0087
613.9612
612.9615
647.0295
647.5276
647.8764
648.2989
648.729
649.1785
649.6407
650.1141
650.5956
651.0821
651.5705
652.0574
652.5393
653.0125
653.4735
653.9182
654.343
654.744
655.1172
655.4589
655.7652
656.0327
656.2576
656.4367
656.5669
656.6451
656.6688
656.6356
656.5433
656.3902
656.1749
655.8965
655.5541
655.1477
654.6773
654.1434
653.5471
652.8895
652.1724
651.3978
650.5681
649.686
648.7545
647.7769
646.7565
645.6971
644.6024
643.4763
642.3227
641.1456
639.9489
638.7366
637.5125
636.2802
635.0434
633.8056
632.5706
631.3432
630.1301
628.9426
644.8102
644.5406
644.5086
644.4717
644.4796
644.5199
644.5959
644.7077
644.8558
645.0405
645.2618
645.5195
645.8129
646.1413
646.5033
646.8976
647.3222
647.775
648.2536
648.7551
649.2763
649.814
650.3643
650.9233
651.4868
652.0503
652.6094
653.1591
653.6947
654.2112
654.7036
655.167
655.5963
655.9869
656.334
656.6332
656.8802
657.071
657.2022
657.2703
657.2726
657.2068
657.0709
656.8637
656.5843
656.2325
655.8085
655.3134
654.7486
654.1162
653.4188
652.6596
651.8425
650.9716
650.0516
649.0881
648.087
647.0557
646.0042
644.9462
649.1842
648.3106
647.9395
647.4686
647.0363
646.6095
646.1981
645.8026
645.4258
645.0702
644.7385
644.4334
644.1576
643.9136
643.7039
643.5312
643.3975
643.3052
643.2562
643.2521
643.2946
643.3847
643.5234
643.7112
643.9481
644.2341
644.5684
644.9499
645.3772
645.8481
646.3602
646.9106
647.4959
648.1122
648.7553
649.4204
650.1024
650.7959
651.4949
652.1936
652.8854
653.5638
654.2223
654.8542
655.4526
656.011
656.5228
656.9818
657.382
657.7177
657.9838
658.1756
658.2892
658.3212
658.2692
658.1316
657.9084
657.6011
657.2148
656.76
656.6301
655.7181
655.3255
654.8044
654.3075
653.793
653.2702
652.7365
652.1929
651.6398
651.0782
650.5091
649.9339
649.3543
648.7722
648.1898
647.6094
647.0338
646.4658
645.9085
645.3652
644.8395
644.3349
643.8553
643.4043
642.9859
642.6041
642.2625
641.9652
641.7156
641.5173
641.3736
641.2876
641.2619
641.299
641.4006
641.5685
641.8035
642.1061
642.4763
642.9131
643.4154
643.9811
644.6074
645.2909
646.0275
646.8124
647.6401
648.5044
649.3985
650.3151
651.2461
652.1831
653.1173
654.0396
654.9409
655.8124
656.6458
657.435
658.179
663.4112
662.5124
662.1589
661.6901
661.2642
660.8347
660.41
659.9851
659.5587
659.1284
658.6923
658.2484
657.7948
657.3297
656.8513
656.3581
655.8487
655.3219
654.7767
654.2123
653.6284
653.0249
652.4019
651.76
651.1001
650.4236
649.7321
649.0276
648.3129
647.5906
646.8642
646.1373
645.4141
644.6989
643.9965
643.312
642.6506
642.0181
641.42
640.8623
640.3509
639.8918
639.4908
639.1538
638.8863
638.6938
638.5812
638.553
638.6135
638.766
639.0134
639.3579
639.8009
640.3427
640.9833
641.7213
642.5549
643.4819
644.4998
645.6061
671.1708
669.8631
669.2877
668.5781
667.937
667.3117
666.7144
666.1418
665.5942
665.071
664.5715
664.0947
663.6393
663.2038
662.7865
662.3852
661.9978
661.6217
661.2544
660.8929
660.5344
660.1757
659.8136
659.445
659.0665
658.6749
658.2672
657.8401
657.3909
656.9167
656.4151
655.8839
655.3211
654.7252
654.0951
653.43
652.7298
651.9948
651.2259
650.4244
649.5924
648.7327
647.8484
646.9436
646.0229
645.0914
644.1551
643.2205
642.2944
641.3846
640.4991
639.6465
638.8354
638.0754
637.3758
636.7466
636.1979
635.7403
635.3857
635.1466
682.9288
681.2591
680.4145
679.3963
678.4247
677.45
676.4865
675.5342
674.5967
673.677
672.778
671.9024
671.0528
670.2318
669.4413
668.6835
667.9599
667.2719
666.6206
666.0065
665.4302
664.8916
664.3903
663.9256
663.4963
663.1009
662.7375
662.4037
662.0969
661.8141
661.5519
661.3066
661.0742
660.8504
660.6308
660.4106
660.1851
659.9492
659.6979
659.4263
659.1293
658.802
658.4398
658.0381
657.5929
657.1002
656.5568
655.9596
655.3063
654.5951
653.8251
652.9957
652.1075
651.1617
650.1606
649.1076
648.0075
646.8669
645.6962
644.5153
695.8122
694.5558
693.8581
693.0071
692.1428
691.2361
690.2943
689.3185
688.3116
687.2767
686.217
685.1362
684.0379
682.926
681.8044
680.6773
679.5489
678.4234
677.305
676.198
675.1067
674.0353
672.9878
671.9682
670.9802
670.0276
669.1138
668.2417
667.4144
666.6344
665.9038
665.2245
664.5979
664.025
663.5063
663.0419
662.6313
662.2736
661.9675
661.7109
661.5013
661.3358
661.2108
661.1223
661.0657
661.0362
661.0283
661.0362
661.0536
661.0741
661.0906
661.0961
661.0834
661.045
660.9736
660.862
660.7037
660.4935
660.2299
659.9225
702.8001
702.5528
702.4103
702.2082
701.9589
701.6578
701.302
700.8906
700.4226
699.8977
699.3157
698.6768
697.9817
697.231
696.426
695.568
694.6589
693.7005
692.6952
691.6457
690.555
689.4262
688.2628
687.0686
685.8476
684.604
683.3423
682.0671
680.7833
679.4958
678.2097
676.9302
675.6626
674.4122
673.1843
671.9842
670.8171
669.6882
668.6024
667.5644
666.579
665.6503
664.7824
663.979
663.2434
662.5785
661.9867
661.4699
661.0296
660.6664
660.3806
660.1717
660.0384
659.9791
659.9915
660.0724
660.2189
660.4277
660.6972
661.0282
701.3767
701.8134
702.1311
702.4727
702.7915
703.0908
703.3637
703.6073
703.818
703.9925
704.1278
704.221
704.2693
704.27
704.2205
704.1185
703.9618
703.7483
703.4762
703.1441
702.7506
702.2947
701.7755
701.1927
700.5459
699.8354
699.0613
698.2246
697.3262
696.3676
695.3505
694.2769
693.1493
691.9706
690.7438
689.4726
688.1608
686.8125
685.4323
684.0251
682.5961
681.1506
679.6944
678.2336
676.7742
675.3227
673.8857
672.4699
671.0821
669.7289
668.4173
667.1537
665.9448
664.7971
663.717
662.7109
661.7853
660.9468
660.2025
659.5561
696.7387
696.968
697.2617
697.5786
697.9278
698.2975
698.6864
699.0907
699.5076
699.9341
700.3672
700.8039
701.2411
701.6755
702.1037
702.5224
702.9281
703.3172
703.6863
704.0319
704.3505
704.6385
704.8924
705.109
705.2847
705.4162
705.5005
705.5343
705.5147
705.4388
705.3041
705.108
704.8483
704.523
704.1302
703.6685
703.1367
702.5338
701.8594
701.113
700.2949
699.4055
698.4458
697.417
696.3209
695.1595
693.9356
692.6521
691.3125
689.9206
688.4806
686.9971
685.475
683.9198
682.3375
680.7347
679.1185
677.4974
675.8813
674.2801
696.3562
695.7499
695.6144
695.4258
695.3097
695.2291
695.1917
695.1945
695.2374
695.3196
695.4404
695.5989
695.7941
696.0247
696.2894
696.5864
696.914
697.2702
697.6529
698.0598
698.4885
698.9363
699.4005
699.878
700.3659
700.8608
701.3595
701.8583
702.3538
702.8422
703.3196
703.7824
704.2265
704.648
705.043
705.4076
705.7379
706.0299
706.2799
706.4841
706.639
706.741
706.7868
706.7732
706.6973
706.5563
706.3477
706.0693
705.719
705.2952
704.7963
704.221
703.5685
702.8382
702.0301
701.1447
700.1834
699.1486
698.0457
696.8867
703.5343
702.1436
701.5404
700.7979
700.1292
699.4801
698.8647
698.2806
697.7304
697.2152
696.7366
696.2962
695.8954
695.5355
695.2175
694.9425
694.7113
694.5247
694.3833
694.2873
694.237
694.2325
694.2734
694.3596
694.4902
694.6645
694.8815
695.1397
695.4378
695.7739
696.1461
696.5523
696.99
697.4568
697.9498
698.4662
699.0028
699.5564
700.1236
700.7008
701.2844
701.8708
702.4561
703.0363
703.6076
704.1661
704.7078
705.2287
705.7249
706.1923
706.627
707.0249
707.3821
707.6947
707.9591
708.172
708.3304
708.4322
708.4778
708.4771
715.8825
714.259
713.4642
712.4938
711.5674
710.6318
709.7001
708.7707
707.8462
706.9284
706.0197
705.1223
704.2387
703.3713
702.5225
701.6948
700.8908
700.1128
699.3633
698.6448
697.9597
697.3103
696.6989
696.1275
695.5982
695.1128
694.673
694.2804
693.9363
693.6419
693.3981
693.2057
693.0653
692.9771
692.9413
692.9576
693.0258
693.1451
693.3148
693.5337
693.8006
694.114
694.4721
694.8729
695.3145
695.7944
696.3102
696.8593
697.4389
698.046
698.6774
699.3298
699.9996
700.6832
701.3771
702.078
702.7829
703.4891
704.1962
704.9111
728.1825
726.9009
726.2507
725.4533
724.6656
723.8498
723.013
722.1537
721.2728
720.3712
719.4499
718.5102
717.5536
716.5817
715.5961
714.5986
713.5914
712.5764
711.5559
710.5323
709.5081
708.4859
707.4684
706.4584
705.4588
704.4723
703.5021
702.551
701.622
700.7181
699.8422
698.9972
698.1861
697.4115
696.6762
695.9827
695.3336
694.7312
694.1777
693.675
693.2251
692.8295
692.4897
692.2069
691.9822
691.8163
691.7096
691.6627
691.6754
691.7475
691.8784
692.0672
692.3127
692.6135
692.9682
693.3752
693.8333
694.342
694.903
695.522
736.3448
735.6508
735.3206
734.9027
734.4755
734.0191
733.5348
733.0214
732.4783
731.9051
731.3017
730.668
730.004
729.3097
728.5854
727.8313
727.0477
726.2349
725.3937
724.5246
723.6284
722.7062
721.7589
720.7878
719.7942
718.7796
717.7457
716.6943
715.6273
714.5468
713.4551
712.3547
711.2482
710.1383
709.0279
707.9201
706.818
705.725
704.6444
703.5797
702.5344
701.5123
700.5169
699.552
698.6211
697.728
696.8761
696.069
695.31
694.6023
693.9489
693.3523
692.815
692.3391
691.9267
691.5797
691.3003
691.0913
690.9577
690.907
739.2017
739.0587
739.0522
739.0106
738.9529
738.8716
738.7652
738.6331
738.4744
738.2888
738.076
737.8356
737.5676
737.2718
736.9478
736.5954
736.2145
735.8047
735.3657
734.8973
734.3992
733.871
733.3125
732.7232
732.1029
731.4513
730.7681
730.053
729.3059
728.5265
727.715
726.8712
725.9955
725.0882
724.1497
723.1807
722.1821
721.1551
720.1008
719.0209
717.9173
716.7918
715.6471
714.4855
713.3102
712.1242
710.931
709.7344
708.5383
707.3468
706.1642
704.9949
703.8433
702.714
701.612
700.5422
699.5101
698.5221
697.5858
696.7107
737.4137
737.7137
737.9787
738.2484
738.5017
738.7362
738.9496
739.1403
739.3074
739.4503
739.5685
739.6618
739.7301
739.7734
739.7918
739.7855
739.7547
739.6996
739.6204
739.5174
739.3909
739.241
739.068
738.8719
738.6528
738.4105
738.145
737.8558
737.5427
737.2052
736.8425
736.4541
736.0391
735.5966
735.1256
734.6251
734.094
733.5312
732.9356
732.306
731.6414
730.9408
730.2034
729.4284
728.6152
727.7635
726.8731
725.9441
724.9768
723.972
722.9305
721.8535
720.7426
719.5996
718.427
717.228
716.0064
714.7671
713.5163
712.262
732.4375
732.9312
733.3437
733.7912
734.2406
734.6876
735.1289
735.561
735.9814
736.3879
736.7784
737.1511
737.5046
737.8376
738.1489
738.4376
738.7029
738.9445
739.1618
739.3548
739.5234
739.6678
739.7884
739.8854
739.9596
740.0113
740.0415
740.0507
740.0397
740.0092
739.96
739.8929
739.8083
739.7069
739.5891
739.4553
739.3057
739.1403
738.959
738.7616
738.5475
738.3161
738.0666
737.798
737.509
737.1982
736.8641
736.505
736.1191
735.7042
735.2583
734.7791
734.2642
733.7112
733.118
732.4829
731.8044
731.0818
730.3161
729.5111
727.6498
727.7701
728.0238
728.3031
728.6282
728.9816
729.3632
729.7681
730.1937
730.6365
731.0937
731.562
732.0384
732.52
733.0039
733.487
733.9666
734.44
734.9045
735.3577
735.7971
736.2207
736.6264
737.0125
737.3773
737.7197
738.0383
738.3323
738.6012
738.8444
739.0619
739.2538
739.4203
739.562
739.6797
739.7744
739.8472
739.8995
739.9326
739.9481
739.9477
739.9331
739.9059
739.8679
739.8207
739.7659
739.7049
739.6391
739.5695
739.4969
739.4218
739.3444
739.2644
739.1813
739.0943
739.0025
738.9048
738.8007
738.6907
738.5799
728.2769
727.4944
727.2561
726.9692
726.7613
726.5961
726.4812
726.4136
726.3935
726.4203
726.4932
726.6113
726.7735
726.9784
727.2244
727.5094
727.8315
728.1881
728.5766
728.9942
729.4379
729.9044
730.3902
730.892
731.4062
731.9289
732.4567
732.9857
733.5124
734.0331
734.5443
735.0428
735.5254
735.9892
736.4314
736.8497
737.2419
737.6062
737.9412
738.2459
738.5195
738.7618
738.9728
739.1532
739.3036
739.4256
739.5206
739.5909
739.6386
739.6664
739.677
739.6734
739.6587
739.6359
739.6087
739.5807
739.5559
739.539
739.5368
739.5626
736.7172
735.2508
734.5738
733.76
733.0042
732.2615
731.5437
730.8512
730.1875
729.5557
728.959
728.4004
727.8831
727.4098
726.9834
726.6061
726.2803
726.0078
725.7901
725.6285
725.5237
725.4763
725.4862
725.5531
725.6761
725.854
726.0853
726.3678
726.6991
727.0764
727.4965
727.9559
728.4508
728.977
729.5303
730.1061
730.6997
731.3063
731.921
732.5389
733.1552
733.765
734.3636
734.9467
735.5099
736.0493
736.5613
737.0425
737.4902
737.9018
738.2752
738.609
738.9019
739.1533
739.3635
739.5334
739.6651
739.7621
739.8317
739.8898
748.3435
747.102
746.4846
745.7199
744.9583
744.1644
743.345
742.5003
741.6327
740.7447
739.8395
738.9206
737.9918
737.0573
736.1215
735.1888
734.2639
733.3519
732.4574
731.5854
730.7409
729.9287
729.1536
728.4201
727.7327
727.0955
726.5126
725.9874
725.5233
725.1231
724.7894
724.5242
724.3291
724.2052
724.1531
724.1728
724.264
724.4256
724.6562
724.9536
725.3154
725.7385
726.2194
726.7539
727.3378
727.9661
728.6338
729.3352
730.0647
730.8161
731.5831
732.3593
733.138
733.9128
734.6773
735.4256
736.1522
736.8534
737.5285
738.1845
755.7975
755.2846
755.0941
754.8257
754.5463
754.232
753.8814
753.4907
753.0573
752.579
752.0543
751.4823
750.8621
750.1939
749.4778
748.7148
747.9059
747.0531
746.1584
745.2243
744.254
743.2508
742.2186
741.1615
740.0841
738.9913
737.8882
736.7803
735.6731
734.5726
733.4848
732.4157
731.3715
730.3585
729.3826
728.4501
727.5667
726.7383
725.9703
725.2679
724.6359
724.079
723.601
723.2056
722.8958
722.6741
722.5424
722.5021
722.5537
722.6972
722.9318
723.2558
723.667
724.1624
724.7385
725.3913
726.1167
726.9106
727.7698
728.6933
758.4124
757.9798
757.9425
757.8631
757.8303
757.8094
757.8005
757.7965
757.7925
757.7834
757.7642
757.7302
757.6767
757.5992
757.4932
757.3545
757.1791
756.9631
756.7029
756.3953
756.0373
755.6262
755.1598
754.6361
754.0538
753.4118
752.7097
751.9475
751.1257
750.2453
749.308
748.3159
747.2718
746.179
745.0412
743.8628
742.6488
741.4044
740.1355
738.8483
737.5497
736.2466
734.9463
733.6565
732.385
731.1397
729.9288
728.7603
727.6422
726.5824
725.5885
724.6678
723.8271
723.073
722.4118
721.8494
721.3914
721.0434
720.8102
720.6942
763.9413
762.5298
762.0319
761.411
760.9066
760.4511
760.0572
759.7185
759.4336
759.2
759.0152
758.8763
758.7804
758.724
758.7037
758.7155
758.7553
758.8187
758.9009
758.9971
759.1021
759.2107
759.3173
759.4163
759.5022
759.5691
759.6115
759.6236
759.5999
759.5351
759.4239
759.2614
759.043
758.7643
758.4215
758.0112
757.5303
756.9766
756.3481
755.6436
754.8627
754.0053
753.0724
752.0656
750.9871
749.8399
748.6279
747.3556
746.0281
744.6514
743.232
741.7769
740.2936
738.7903
737.2759
735.7597
734.2519
732.7634
731.306
729.8916
779.109
776.5714
775.4185
774.0104
772.7251
771.4688
770.2651
769.1104
768.0085
766.9613
765.9713
765.0406
764.1713
763.3653
762.6241
761.9489
761.3408
760.8001
760.3272
759.9217
759.5831
759.3101
759.1012
758.9545
758.8673
758.8367
758.8592
758.9311
759.0479
759.2049
759.3969
759.6183
759.8632
760.1254
760.3983
760.6751
760.9488
761.2124
761.4586
761.6801
761.8697
762.0202
762.1247
762.1763
762.1685
762.0953
761.9508
761.7298
761.4277
761.0403
760.564
759.9961
759.3342
758.5771
757.7246
756.7775
755.7377
754.6093
753.3991
752.1211
800.9485
798.2802
796.9446
795.3068
793.7311
792.1296
790.5246
788.9138
787.3021
785.6928
784.0901
782.4982
780.9217
779.365
777.8327
776.3295
774.86
773.4287
772.0404
770.6993
769.4098
768.1761
767.0022
765.892
764.8488
763.876
762.9765
762.153
761.4077
760.7423
760.1584
759.6569
759.2382
758.9022
758.6484
758.4757
758.3821
758.3655
758.423
758.551
758.7454
759.0015
759.3141
759.6772
760.0846
760.5293
761.004
761.5009
762.0118
762.5281
763.0409
763.5411
764.0192
764.4659
764.872
765.2286
765.5275
765.7613
765.9261
766.0272
819.3767
817.7508
816.8926
815.8215
814.7374
813.5897
812.389
811.1335
809.8252
808.4657
807.0574
805.6028
804.1046
802.5659
800.9897
799.3797
797.7393
796.0724
794.3829
792.6751
790.9531
789.2215
787.4849
785.7481
784.016
782.2938
780.5865
778.8997
777.2385
775.6086
774.0154
772.4645
770.9615
769.512
768.1212
766.7947
765.5377
764.3551
763.2518
762.2323
761.3009
760.4614
759.7173
759.0714
758.5264
758.084
757.7457
757.5119
757.3827
757.3571
757.4335
757.6094
757.8811
758.2446
758.6948
759.2263
759.8328
760.5083
761.2476
762.0497
826.1692
826.1145
826.0785
825.996
825.8475
825.6322
825.3464
824.9892
824.5602
824.0591
823.4862
822.842
822.1271
821.3423
820.4885
819.5668
818.5784
817.5244
816.4064
815.2258
813.9842
812.6833
811.3249
809.911
808.4437
806.9252
805.3581
803.7448
802.0883
800.3917
798.6581
796.8911
795.0945
793.2724
791.4291
789.5692
787.6977
785.8197
783.9409
782.067
780.2043
778.3589
776.5378
774.7477
772.9957
771.2893
769.6358
768.0428
766.5178
765.0685
763.7021
762.426
761.2469
760.1717
759.2068
758.3586
757.6331
757.0364
756.5753
756.256
819.515
820.8884
821.6485
822.5273
823.3184
824.0622
824.7429
825.3604
825.9119
826.396
826.8112
827.1566
827.4315
827.6355
827.7681
827.8293
827.8189
827.7371
827.584
827.3598
827.0648
826.6994
826.2639
825.7588
825.1844
824.5413
823.8297
823.0502
822.2033
821.2894
820.309
819.2626
818.1507
816.9741
815.7332
814.429
813.0621
811.6336
810.1447
808.5966
806.9909
805.3293
803.6139
801.8471
800.0316
798.1706
796.2674
794.3262
792.3513
790.3476
788.3203
786.2752
784.2186
782.1574
780.0991
778.0521
776.0255
774.0299
772.0781
770.1856
802.8731
805.0099
806.261
807.7406
809.1576
810.5677
811.9487
813.2992
814.6135
815.8877
817.1182
818.3016
819.4348
820.5149
821.5396
822.5065
823.4137
824.2594
825.042
825.7604
826.4134
827.0002
827.5202
827.9729
828.358
828.6756
828.9255
829.108
829.2234
829.272
829.2544
829.171
829.0223
828.8089
828.5313
828.1899
827.7852
827.3175
826.787
826.1939
825.5383
824.8201
824.0391
823.195
822.2874
821.3158
820.2796
819.1781
818.0106
816.7764
815.4745
814.1043
812.6649
811.1557
809.5766
807.9278
806.2104
804.4267
802.5816
800.6866
783.7373
785.4935
786.6502
788.0351
789.4343
790.8829
792.3635
793.8727
795.4042
796.953
798.5137
800.0812
801.6505
803.2165
804.7742
806.3186
807.8451
809.3489
810.8253
812.2701
813.6788
815.0474
816.3721
817.6494
818.8758
820.0483
821.1642
822.221
823.2167
824.1494
825.0177
825.8204
826.5569
827.2266
827.8294
828.3654
828.8352
829.2394
829.5789
829.8551
830.0691
830.2225
830.317
830.3541
830.3358
830.2636
830.1393
829.9645
829.7405
829.4685
829.1496
828.7841
828.3723
827.9143
827.4097
826.8581
826.2588
825.6118
824.9179
824.1815
772.0282
772.3118
772.7362
773.2553
773.8694
774.5664
775.3449
776.2019
777.1352
778.1424
779.2211
780.3683
781.5812
782.8566
784.1907
785.5797
787.0194
788.5054
790.033
791.5971
793.1925
794.8139
796.4556
798.112
799.7772
801.4452
803.1103
804.7664
806.4076
808.0282
809.6224
811.1848
812.7101
814.1932
815.6292
817.0137
818.3427
819.6123
820.8193
821.9608
823.0344
824.0382
824.9708
825.8313
826.6195
827.3354
827.9798
828.554
829.0594
829.4984
829.8733
830.187
830.4425
830.6434
830.7936
830.8974
830.9595
830.9854
830.9816
830.9566
774.0073
772.7243
772.2584
771.7006
771.254
770.8644
770.546
770.2978
770.1231
770.0243
770.004
770.0647
770.2086
770.4375
770.7532
771.1568
771.6494
772.2313
772.9028
773.6634
774.5124
775.4486
776.4704
777.5755
778.7614
780.0251
781.3632
782.7716
784.246
785.7818
787.3737
789.0163
790.7037
792.4297
794.1878
795.9714
797.7735
799.5871
801.4049
803.2196
805.0239
806.8105
808.5722
810.3019
811.9928
813.6381
815.2316
816.7672
818.2393
819.6428
820.973
822.2257
823.3972
824.4845
825.4858
826.3998
827.2267
827.9683
828.6295
829.2222
785.964
784.2208
783.397
782.3847
781.4256
780.4586
779.5004
778.5507
777.6147
776.6967
775.8017
774.9347
774.1007
773.305
772.5527
771.849
771.199
770.6076
770.0798
769.6203
769.2335
768.9238
768.6952
768.5517
768.4966
768.5333
768.6645
768.8928
769.2203
769.6486
770.1791
770.8125
771.5491
772.3888
773.3309
774.3741
775.5168
776.7566
778.0906
779.5156
781.0275
782.6219
784.2938
786.0375
787.8472
789.7161
791.6373
793.6034
795.6065
797.6383
799.69
801.7527
803.817
805.8736
807.9129
809.9258
811.9035
813.8383
815.7261
817.5719
796.6045
795.747
795.3213
794.767
794.1889
793.5554
792.8725
792.1395
791.3585
790.5318
789.6624
788.7533
787.8081
786.8307
785.825
784.7955
783.7467
782.6832
781.61
780.5322
779.455
778.3838
777.3241
776.2815
775.2616
774.2704
773.3134
772.3967
771.526
770.7073
769.9462
769.2484
768.6198
768.0656
767.5914
767.2023
766.9033
766.6992
766.5943
766.5931
766.6993
766.9164
767.2475
767.6955
768.2624
768.9502
769.7601
770.6928
771.7483
772.9263
774.2254
775.6436
777.1784
778.8265
780.5839
782.4463
784.4088
786.4666
788.6162
790.8584
796.6833
797.2483
797.5877
797.9522
798.2515
798.4967
798.6787
798.7965
798.8479
798.8318
798.7475
798.5946
798.3731
798.0833
797.7255
797.3007
796.81
796.2546
795.6362
794.9566
794.218
793.4227
792.5734
791.6731
790.7247
789.7319
788.6983
787.6278
786.5245
785.3929
784.2376
783.0634
781.8754
780.6789
779.4794
778.2824
777.0939
775.9198
774.7663
773.6396
772.5461
771.4923
770.4848
769.5302
768.6352
767.8066
767.051
766.375
765.7854
765.2885
764.8906
764.5977
764.4156
764.3499
764.4063
764.5902
764.9068
765.3614
765.9597
766.7068
785.4148
786.9546
787.8748
788.9546
789.9793
790.9875
791.9611
792.8987
793.7956
794.6486
795.4544
796.2101
796.9128
797.5601
798.1493
798.6784
799.1451
799.5475
799.8838
800.1526
800.3523
800.4818
800.5402
800.5268
800.4411
800.2827
800.0517
799.7484
799.3732
798.9268
798.4104
797.8252
797.1726
796.4546
795.6733
794.8309
793.93
792.9737
791.965
790.9073
789.8043
788.6599
787.4784
786.2641
785.0217
783.7562
782.4727
781.1767
779.8736
778.5692
777.2695
775.9804
774.7082
773.4591
772.2401
771.0581
769.9208
768.8365
767.8143
766.8641
768.9665
770.5678
771.5855
772.8047
774.0117
775.2457
776.489
777.7405
778.9956
780.2511
781.5036
782.7496
783.986
785.2093
786.4161
787.6029
788.7665
789.9033
791.0099
792.0829
793.1188
794.1144
795.0663
795.9713
796.8263
797.6283
798.3745
799.0621
799.6884
800.2512
800.7482
801.1774
801.537
801.8254
802.0412
802.1834
802.2511
802.2438
802.1611
802.0029
801.7695
801.4614
801.0793
800.6244
800.0978
799.5014
798.8368
798.1062
797.312
796.4567
795.543
794.5739
793.5522
792.4815
791.3654
790.2078
789.0135
787.7881
786.5388
785.276
754.959
755.9004
756.5932
757.4332
758.3031
759.2208
760.1766
761.17
762.1989
763.262
764.3578
765.4848
766.6415
767.826
769.0365
770.271
771.5272
772.8027
774.0949
775.4011
776.7184
778.0436
779.3736
780.705
782.0343
783.3579
784.672
785.9731
787.2571
788.5202
789.7586
790.9683
792.1454
793.2861
794.3866
795.4433
796.4525
797.4108
798.3148
799.1616
799.9482
800.6718
801.3299
801.9205
802.4414
802.8912
803.2683
803.5716
803.8005
803.9544
804.0328
804.0359
803.9638
803.8171
803.5968
803.3045
802.9423
802.5132
802.0225
801.4799
747.5747
747.7312
747.9896
748.3015
748.6581
749.0519
749.4821
749.9479
750.45
750.9889
751.5655
752.1805
752.8347
753.5289
754.2637
755.0397
755.8572
756.7165
757.6177
758.5607
759.5451
760.5706
761.6364
762.7416
763.885
765.0653
766.2808
767.5298
768.8101
770.1194
771.4552
772.8147
774.1948
775.5923
777.0039
778.4258
779.8543
781.2854
782.7151
784.1391
785.5532
786.9529
788.3339
789.6917
791.0219
792.3203
793.5824
794.804
795.9812
797.1099
798.1862
799.2064
800.167
801.0648
801.8972
802.6618
803.3571
803.9828
804.5408
805.0388
745.8354
745.5775
745.5876
745.5856
745.6193
745.6663
745.7297
745.8076
745.9013
746.0115
746.1394
746.2866
746.4544
746.6445
746.8585
747.0983
747.3655
747.662
747.9895
748.3498
748.7447
749.176
749.6453
750.1542
750.7043
751.2972
751.9341
752.6164
753.345
754.1211
754.9454
755.8185
756.7407
757.7123
758.7332
759.803
760.9213
762.0871
763.2993
764.5565
765.8571
767.1989
768.5797
769.9969
771.4476
772.9285
774.4363
775.9671
777.517
779.0816
780.6563
782.2363
783.8165
785.3917
786.9569
788.5071
790.0376
791.5448
793.0276
794.4912
745.994
745.7226
745.7168
745.6834
745.6739
745.6635
745.6546
745.6445
745.6335
745.6214
745.6086
745.5955
745.5828
745.5713
745.5616
745.5549
745.552
745.554
745.5622
745.5778
745.6022
745.6369
745.6833
745.7432
745.8183
745.9104
746.0215
746.1535
746.3087
746.4892
746.6972
746.935
747.2052
747.5099
747.8517
748.2329
748.6561
749.1235
749.6376
750.2006
750.8146
751.4818
752.204
752.9829
753.8202
754.7171
755.6747
756.6939
757.775
758.9182
760.1232
761.3892
762.715
764.0992
765.5399
767.0351
768.5828
770.1812
771.8311
773.5384
745.3618
745.2204
745.2908
745.3451
745.4178
745.4888
745.5579
745.6229
745.6831
745.7379
745.7871
745.8307
745.8685
745.9006
745.927
745.9479
745.9633
745.9733
745.9781
745.9778
745.9726
745.9627
745.9484
745.9298
745.9073
745.8812
745.8521
745.8205
745.7869
745.7521
745.7169
745.6823
745.6492
745.6191
745.5931
745.573
745.5603
745.557
745.5651
745.587
745.625
745.6818
745.7602
745.8632
745.994
746.1558
746.3522
746.5867
746.8628
747.1843
747.5547
747.9776
748.4565
748.9948
749.5961
750.2639
751.0018
751.8138
752.7059
753.6874
743.6537
743.5819
743.7005
743.8166
743.9524
744.0916
744.2319
744.3709
744.5074
744.6405
744.7697
744.8946
745.0149
745.1305
745.2413
745.3473
745.4486
745.5451
745.637
745.7242
745.8069
745.8852
745.9589
746.0282
746.093
746.1533
746.2089
746.2597
746.3055
746.3462
746.3814
746.411
746.4345
746.4518
746.4623
746.466
746.4625
746.4515
746.4329
746.4066
746.3725
746.3309
746.282
746.2261
746.1639
746.0963
746.0242
745.949
745.8722
745.7955
745.721
745.6507
745.5873
745.5335
745.4927
745.4688
745.4661
745.4899
745.547
745.6472
742.2098
741.9805
742.0363
742.0885
742.1785
742.285
742.4051
742.5352
742.6731
742.8167
742.9645
743.115
743.267
743.4194
743.5712
743.7217
743.8702
744.0161
744.159
744.2985
744.4344
744.5667
744.6952
744.82
744.9413
745.0593
745.1742
745.2862
745.3958
745.5032
745.6089
745.713
745.8159
745.9178
746.0191
746.1196
746.2197
746.3191
746.4178
746.5157
746.6123
746.7074
746.8003
746.8905
746.9773
747.0599
747.1375
747.2092
747.274
747.3309
747.3787
747.4164
747.4427
747.4567
747.4577
747.4452
747.4193
747.3809
747.3321
747.2773
743.7918
742.9761
742.7482
742.4734
742.2758
742.114
741.9904
741.8998
741.8399
741.8082
741.8025
741.8207
741.8605
741.9198
741.9966
742.0888
742.1942
742.311
742.4372
742.571
742.7105
742.8542
743.0005
743.1479
743.2952
743.4413
743.5851
743.7259
743.8631
743.9961
744.1247
744.2488
744.3683
744.4836
744.5948
744.7026
744.8076
744.9105
745.0122
745.1136
745.2157
745.3196
745.4263
745.537
745.6527
745.7744
745.903
746.0394
746.1842
746.338
746.501
746.6732
746.8542
747.0438
747.2414
747.4465
747.6585
747.8774
748.1038
748.3393
751.9354
750.1936
749.4738
748.6112
747.8588
747.1464
746.4865
745.8739
745.309
744.791
744.3194
743.8939
743.5135
743.1776
742.885
742.6345
742.4248
742.2543
742.1211
742.0235
741.9593
741.9264
741.9224
741.945
741.9917
742.0599
742.1471
742.2506
742.368
742.4965
742.6339
742.7777
742.9255
743.0752
743.2249
743.3726
743.5169
743.6561
743.7893
743.9155
744.034
744.1445
744.2469
744.3413
744.4284
744.5087
744.5836
744.6541
744.7219
744.7887
744.8564
744.9268
745.002
745.0844
745.1763
745.2806
745.4001
745.5387
745.7015
745.8954
767.541
765.135
764.0155
762.6562
761.3971
760.1497
758.9335
757.7446
756.5861
755.46
754.3685
753.314
752.2988
751.325
750.3947
749.5096
748.6716
747.8821
747.1423
746.4533
745.8159
745.2306
744.6976
744.217
743.7884
743.4113
743.0848
742.8079
742.579
742.3965
742.2586
742.163
742.1073
742.0889
742.1051
742.1527
742.2287
742.3299
742.453
742.5944
742.751
742.9192
743.0958
743.2775
743.4613
743.6442
743.8235
743.9967
744.1615
744.316
744.4584
744.5873
744.7016
744.8007
744.8845
744.9536
745.0096
745.0552
745.0965
745.1449
785.8637
783.6527
782.5783
781.2488
779.9699
778.6608
777.3387
775.9999
774.6474
773.2834
771.9105
770.5319
769.1507
767.7701
766.3936
765.0246
763.6667
762.3235
760.9986
759.6955
758.4179
757.1693
755.9532
754.773
753.6319
752.5332
751.4797
750.4745
749.52
748.6188