/*--------------------------------*- C++ -*----------------------------------*\
| =========                 |                                                 |
| \\      /  F ield         | OpenFOAM: The Open Source CFD Toolbox           |
|  \\    /   O peration     | Version:  2312                                  |
|   \\  /    A nd           | Website:  www.openfoam.com                      |
|    \\/     M anipulation  |                                                 |
\*---------------------------------------------------------------------------*/
FoamFile
{
    version     2.0;
    format      ascii;
    arch        "LSB;label=32;scalar=64";
    class       volScalarField;
    location    "4650";
    object      nut;
}
// * * * * * * * * * * * * * * * * * * * * * * * * * * * * * * * * * * * * * //

dimensions      [0 2 -1 0 0 0 0];

internalField   nonuniform List<scalar> 
12000
(
3.658924e-05
0.0001855101
0.0001917632
0.0002053273
0.0002424932
0.0002767776
0.0002469828
0.0001969095
0.0001908487
0.0002611795
0.0003157767
0.0002266596
0.0001773133
0.0001966789
0.0002745957
0.0002705276
0.0001982952
0.0001811491
0.0002211964
0.0002550629
0.0002129395
0.0001876896
0.0002048352
0.0002242371
0.0002073822
0.0001962146
0.000206002
0.0002082427
0.0001974589
0.0001979366
0.000204563
0.00020385
0.0001985408
0.0001916635
0.000187509
0.0001947562
0.0002144749
0.000213163
0.0001847961
0.000165205
0.0001726927
0.000221255
0.0002492839
0.0001803244
0.0001409358
0.0001571511
0.000245822
0.0002620497
0.0001474279
0.0001250646
0.0001795851
0.0002561586
0.000147817
0.0001180553
0.0001449647
0.0001505075
0.0001160198
8.937019e-05
8.03331e-05
6.497009e-05
2.25705e-05
0.0002442987
0.0002825591
0.0003285715
0.0003571521
0.0004112917
0.0004655162
0.0005407363
0.0006306424
0.0006960849
0.0007418561
0.0008313264
0.0009577958
0.001063013
0.001107147
0.00116525
0.001289838
0.001428389
0.00149894
0.001537184
0.001638167
0.001775043
0.001862331
0.001909388
0.001993177
0.002095301
0.002161174
0.002214754
0.002291266
0.002353416
0.002383256
0.002416867
0.002461385
0.002495452
0.002518198
0.002514514
0.002489362
0.002472768
0.002473169
0.002468003
0.002415224
0.002314132
0.002219724
0.001816319
0.002122789
0.002009188
0.001841412
0.001571114
0.001270045
0.001497462
0.001315699
0.00114624
0.0009511078
0.0008494248
0.0006939007
0.0005350059
0.000372981
0.0002264705
0.0001161568
6.179982e-05
3.257247e-05
0.0002992093
0.0004098348
0.0004977157
0.0006269465
0.0007590765
0.0009110005
0.001076723
0.001257784
0.001415641
0.001583257
0.001792616
0.001981378
0.002159232
0.002319654
0.002479651
0.002643367
0.002799029
0.002935017
0.003062876
0.003190671
0.00331152
0.003417473
0.003513585
0.003605291
0.003688729
0.003761604
0.003827355
0.003886847
0.003936398
0.003979482
0.004014886
0.004045794
0.004068957
0.004084322
0.004090818
0.004089433
0.004080419
0.004063469
0.004038088
0.004003946
0.003960769
0.003902379
0.003836341
0.003749233
0.003655147
0.003479115
0.003148592
0.002984683
0.002844558
0.002760548
0.002332442
0.002081553
0.001706612
0.001433712
0.001328087
0.0009379274
0.0005190896
0.0001904658
6.11728e-05
3.541782e-05
0.0003366475
0.000516361
0.0006648739
0.0008643018
0.00108249
0.001323858
0.001581088
0.00184579
0.002110018
0.002375833
0.00263205
0.002875643
0.003101316
0.003311142
0.003509026
0.003694178
0.003864959
0.004021446
0.004165684
0.004299194
0.004421919
0.004534201
0.004636946
0.004730578
0.004815122
0.004890912
0.004958308
0.005018283
0.005069943
0.005112412
0.005146655
0.00517363
0.00519173
0.005200374
0.005199065
0.005187471
0.00516498
0.00513087
0.005084351
0.005024531
0.00495028
0.004860244
0.004750452
0.004625634
0.004481087
0.004315564
0.004126593
0.003910944
0.003667638
0.003214985
0.002600411
0.002407
0.002160074
0.002028067
0.001606866
0.001159889
0.0007009197
0.0002835333
6.233394e-05
3.571047e-05
0.0003717401
0.0006241148
0.0008377823
0.001104489
0.001397013
0.001708576
0.002029535
0.002351712
0.002666643
0.00297086
0.003262557
0.003539462
0.003797245
0.00403132
0.004244313
0.004440992
0.004622876
0.004791434
0.004946705
0.005090034
0.005222413
0.005344668
0.005457376
0.005560811
0.005655163
0.005740578
0.005816016
0.005884936
0.005942949
0.005991365
0.006030976
0.006061286
0.006081773
0.00609169
0.006090545
0.00607854
0.006055023
0.006019307
0.0059707
0.005908505
0.005831921
0.005740067
0.005631557
0.005504855
0.00535757
0.005190253
0.004998391
0.004781073
0.004330312
0.003717258
0.003623338
0.003413621
0.003039655
0.002599142
0.002092957
0.00150816
0.0008964477
0.0003494352
6.212496e-05
3.656976e-05
0.0004007346
0.0007191823
0.0009895265
0.001307708
0.001653968
0.002015709
0.002381515
0.002741795
0.003088765
0.003416901
0.003724826
0.004013399
0.004285469
0.004541354
0.004778018
0.004995017
0.005193683
0.005377527
0.005547566
0.005704764
0.005850163
0.005984625
0.006108749
0.006222898
0.006327265
0.006419424
0.006505591
0.006580993
0.006645569
0.006699853
0.006743316
0.006775872
0.006796894
0.006805877
0.006801852
0.006784798
0.006754052
0.006709037
0.006648929
0.006572862
0.006479886
0.006368906
0.006238683
0.006087827
0.005914193
0.005714652
0.005491652
0.005240492
0.004953628
0.004624258
0.004249299
0.003830804
0.00336688
0.002852937
0.002286122
0.001671255
0.001026191
0.0004198527
6.248089e-05
3.768398e-05
0.0004094239
0.0007992161
0.001119518
0.001475752
0.001857087
0.002248449
0.002638348
0.00301918
0.00338594
0.003735496
0.004067182
0.004377583
0.004665669
0.004932983
0.005179915
0.00540826
0.005621092
0.005819468
0.006004562
0.006177309
0.006338481
0.006488648
0.006628155
0.006757126
0.006875501
0.006981802
0.007079479
0.007165343
0.007239244
0.007300893
0.007349752
0.007386095
0.007409144
0.007418354
0.007413197
0.007393354
0.007358067
0.007306858
0.007239214
0.007154523
0.007052054
0.006930908
0.006790047
0.006627992
0.006443551
0.006232171
0.005997115
0.005728237
0.005421217
0.005073468
0.004681574
0.004240268
0.00374337
0.003185421
0.002563192
0.001878878
0.001153066
0.000470262
6.256133e-05
3.872103e-05
0.000418706
0.0008636354
0.00122626
0.001606835
0.002005927
0.002414828
0.002825266
0.003226534
0.003610937
0.003975028
0.004315871
0.004635427
0.004934714
0.00521405
0.005475979
0.005722727
0.00595463
0.006172337
0.006376833
0.006568944
0.006749265
0.006918165
0.007075841
0.007222228
0.007353421
0.007476869
0.007586977
0.007683381
0.007766699
0.007836459
0.007891924
0.007933085
0.007959002
0.007969021
0.007962625
0.007939342
0.007898666
0.007840117
0.007763187
0.007667306
0.00755183
0.007416012
0.007258859
0.00707926
0.00687538
0.006642118
0.006380787
0.006084581
0.005750927
0.005376471
0.00495628
0.00448513
0.003957767
0.003369527
0.002717502
0.002003862
0.00124601
0.0005207619
6.269254e-05
4.118087e-05
0.0004230098
0.0009075758
0.001305879
0.001704409
0.002121372
0.002543757
0.002961083
0.00336766
0.00375954
0.004132962
0.004486339
0.004819913
0.005134475
0.005431044
0.005710896
0.005976258
0.006228689
0.006468327
0.006695342
0.006909535
0.007110782
0.007298796
0.007472998
0.007634387
0.007782238
0.007919979
0.008044311
0.008154644
0.008249422
0.008328093
0.008390326
0.00843614
0.008464636
0.008475124
0.008467058
0.008439963
0.008393391
0.008326896
0.008239994
0.008132092
0.008002636
0.007851116
0.007676865
0.007479123
0.00725468
0.007000423
0.006718263
0.006404574
0.006055005
0.005663357
0.005224841
0.004733523
0.004182745
0.003566592
0.002880975
0.002127582
0.001325368
0.0005564937
6.276563e-05
4.046133e-05
0.000441813
0.0009430658
0.001369891
0.001786799
0.002207935
0.00263282
0.003053781
0.003465243
0.003863346
0.004245517
0.004610569
0.004958414
0.005289591
0.005604993
0.005905668
0.006191932
0.006463983
0.00672174
0.006965568
0.007198042
0.007418795
0.007627664
0.007824674
0.008008261
0.00817628
0.008329976
0.008467969
0.008589558
0.008693975
0.008780515
0.008848689
0.008898229
0.008928258
0.008938075
0.008927104
0.00889487
0.008840983
0.00876514
0.008667137
0.008545449
0.008399335
0.008228841
0.008033651
0.007812928
0.007567747
0.007294489
0.00699261
0.006658027
0.006287394
0.005877007
0.005420254
0.00490826
0.004335816
0.003697937
0.002990516
0.00221505
0.001388852
0.0005909191
6.277767e-05
3.989654e-05
0.000438641
0.0009576824
0.001409895
0.001836557
0.002262236
0.002688893
0.003112111
0.003527353
0.003931228
0.004321604
0.004697503
0.00505874
0.005405529
0.005738187
0.006055546
0.006359641
0.00665154
0.006932485
0.00720236
0.007458839
0.007702028
0.007931643
0.008147147
0.008345936
0.008530734
0.008698868
0.008849532
0.008981946
0.009095334
0.009188957
0.009262267
0.009314761
0.009345479
0.009353684
0.009338754
0.009300147
0.009237377
0.009149993
0.009037558
0.008901161
0.008740915
0.008555774
0.008344856
0.008107375
0.007842408
0.007548588
0.007225958
0.006871978
0.006483296
0.006054802
0.005580102
0.005054113
0.004467446
0.003812368
0.003084791
0.002286324
0.001435449
0.0006136991
6.277361e-05
4.493021e-05
0.0004168979
0.0009571277
0.001439443
0.001880366
0.00230993
0.002736281
0.003158627
0.003574264
0.003980861
0.00437693
0.004761712
0.005134875
0.005496257
0.005844704
0.006181946
0.006506661
0.006819122
0.007119511
0.007407618
0.007682975
0.007944807
0.008192282
0.008424605
0.008639732
0.008839092
0.009020397
0.009182648
0.009324888
0.009446194
0.009545684
0.009622588
0.0096763
0.009706286
0.009712031
0.009693027
0.009648793
0.009578892
0.009482922
0.009360508
0.009211282
0.009034971
0.008831423
0.008600515
0.008342056
0.008055805
0.007741211
0.007398344
0.007026337
0.006622927
0.006182961
0.005698545
0.005160747
0.004561819
0.003893779
0.003153084
0.002340918
0.001474967
0.0006353741
6.274311e-05
4.464618e-05
0.0004142265
0.0009506718
0.001446038
0.001896702
0.002328787
0.002754133
0.003175355
0.00359178
0.004001962
0.004404476
0.004797987
0.005181213
0.005552486
0.005910479
0.006138651
0.006361483
0.006594304
0.006932297
0.007300817
0.007719434
0.008111765
0.008411846
0.008660987
0.008892187
0.009105028
0.009297734
0.009469256
0.009618875
0.009745844
0.009849435
0.009929015
0.00998394
0.01001343
0.01001681
0.009993504
0.009942996
0.009864864
0.009758773
0.009624473
0.009461799
0.00927067
0.009051069
0.008802916
0.008526221
0.008220947
0.007737
0.007305702
0.006953554
0.006657016
0.006269392
0.005780354
0.005237177
0.004630951
0.003955003
0.003203739
0.002378927
0.001499471
0.0006475579
6.268061e-05
4.491841e-05
0.0004043861
0.0009385113
0.001447467
0.001907335
0.002343161
0.002768779
0.00318921
0.003605154
0.004015681
0.00441935
0.004814371
0.005198084
0.005474472
0.005608663
0.005729053
0.005877052
0.006106971
0.006428542
0.006813585
0.007220723
0.007572003
0.007917939
0.008292719
0.008708485
0.009143079
0.009516548
0.009695174
0.009851344
0.009983802
0.01009154
0.01017374
0.01022961
0.01025836
0.01025931
0.01023184
0.0101755
0.01008992
0.009974844
0.009830142
0.00965572
0.009451661
0.009218374
0.008889721
0.008377954
0.007904785
0.007473837
0.007070094
0.006750375
0.006542828
0.006323417
0.005834518
0.005290125
0.004680962
0.003999565
0.003241611
0.002409246
0.001521265
0.0006595104
6.266694e-05
4.571845e-05
0.0003929788
0.0009207138
0.001437128
0.001907582
0.002348954
0.002776082
0.003195868
0.003610397
0.004019462
0.004421604
0.004814218
0.005158093
0.005311486
0.005412507
0.005566003
0.005785933
0.006031189
0.006273405
0.00655583
0.00687392
0.007258279
0.007643591
0.008031793
0.008429842
0.008840686
0.009231265
0.009591226
0.009913053
0.01015978
0.01027136
0.01035622
0.01041325
0.01044159
0.01044057
0.01040959
0.01034823
0.01025621
0.01013344
0.009980048
0.00972461
0.009379017
0.008996696
0.008584128
0.008138254
0.007661513
0.007209841
0.006845608
0.006572389
0.006362491
0.006180051
0.005868403
0.005325616
0.00471503
0.004030097
0.003266885
0.002427813
0.001532544
0.0006645648
6.260694e-05
4.654011e-05
0.0003826804
0.0009020572
0.001424453
0.001902254
0.002348271
0.002776711
0.003195562
0.003608013
0.004014432
0.004413437
0.004802359
0.005057098
0.005208804
0.005381249
0.005551671
0.005728289
0.005922861
0.006152558
0.006438187
0.006767875
0.00711102
0.007478606
0.007854602
0.00823188
0.008601831
0.008953042
0.009272054
0.009556223
0.009817799
0.01007696
0.01036115
0.01045247
0.01037252
0.01032906
0.01026792
0.0101756
0.01004423
0.009871149
0.009655228
0.009394249
0.009086861
0.008734038
0.008338373
0.007912358
0.007478609
0.007061102
0.00668175
0.006388705
0.006213868
0.006106435
0.005892039
0.00534984
0.004738347
0.004051218
0.003285106
0.002442195
0.001542374
0.0006690422
6.257211e-05
4.727607e-05
0.000374182
0.0008830625
0.001406722
0.001889903
0.002340734
0.002771083
0.003189324
0.003599525
0.00400283
0.004398527
0.004784662
0.005080191
0.005248363
0.005376723
0.005512905
0.005674506
0.005882775
0.006147352
0.006420799
0.006722186
0.007042622
0.007393128
0.007749677
0.008105932
0.00845268
0.008778337
0.009072279
0.009331972
0.009568031
0.009811551
0.01011858
0.01023228
0.01013083
0.01006069
0.009993537
0.009905936
0.00978642
0.009627761
0.009424276
0.009171934
0.008871275
0.008527293
0.00814651
0.007738632
0.007321543
0.006922715
0.006573464
0.006300803
0.006116029
0.006004539
0.005851292
0.005366458
0.004756165
0.00406818
0.003299384
0.002453537
0.001550441
0.0006729317
6.250373e-05
4.790544e-05
0.0003660958
0.0008641604
0.001387326
0.001875797
0.00233025
0.002762016
0.003179481
0.003587297
0.003987239
0.004379104
0.004761266
0.005042107
0.005214513
0.005361935
0.005518494
0.005697178
0.005904097
0.006135693
0.006408869
0.006716991
0.007054753
0.007386524
0.007725325
0.008061749
0.008384883
0.008684135
0.008952123
0.009189189
0.009409944
0.009653802
0.009997198
0.01015759
0.01004485
0.009943618
0.009858602
0.009765252
0.009643962
0.00948344
0.009278384
0.009026832
0.008729412
0.008389586
0.008014094
0.007614107
0.007206386
0.006813701
0.006464217
0.006190268
0.006015203
0.005922733
0.005801264
0.005373991
0.004764363
0.00407566
0.003305619
0.002457926
0.001552598
0.0006734929
6.245578e-05
4.838441e-05
0.000359986
0.0008476383
0.001367773
0.001858069
0.002315014
0.002748627
0.003165956
0.00357199
0.003969123
0.004357799
0.004737098
0.00504645
0.005233224
0.005386242
0.005543359
0.00572299
0.005934345
0.006180431
0.0064629
0.00676195
0.007079474
0.007410893
0.007749725
0.008081725
0.008396443
0.008685127
0.008943185
0.009173387
0.009388403
0.009610062
0.009861438
0.0101406
0.01014084
0.009937378
0.009818254
0.009712871
0.009584905
0.009418019
0.009205865
0.008947259
0.008644373
0.008302093
0.00792796
0.007532964
0.007132838
0.006748953
0.006406996
0.006136193
0.005959175
0.00586647
0.005759878
0.005379774
0.004771018
0.004082063
0.00331107
0.002462074
0.001555669
0.0006750524
6.240214e-05
4.886139e-05
0.000355024
0.0008324068
0.001348317
0.001839573
0.002299522
0.002734001
0.003150979
0.003555492
0.003950359
0.004336632
0.004714161
0.00507342
0.005279721
0.005449665
0.005622955
0.005814656
0.006032216
0.006277792
0.00654892
0.006849516
0.007170333
0.007505093
0.007836824
0.008158387
0.008460729
0.008736108
0.008980769
0.009198083
0.00940099
0.00961135
0.009852666
0.01014175
0.01017321
0.009970065
0.009825996
0.009694848
0.009547758
0.009367052
0.009144237
0.008877406
0.008568984
0.008224344
0.007851332
0.007460629
0.007066737
0.006689235
0.006352281
0.00608515
0.005912004
0.005826424
0.005735236
0.005382202
0.004773843
0.004084432
0.003312611
0.002462922
0.001555862
0.0006750121
6.234217e-05
4.916731e-05
0.0003516092
0.0008197895
0.001330425
0.001820888
0.002281765
0.00271727
0.00313453
0.003538336
0.003931895
0.004316881
0.004693866
0.005061772
0.005351929
0.005547372
0.005732544
0.00593203
0.006154898
0.006404493
0.006679697
0.006978224
0.007292888
0.007617901
0.007941394
0.00825517
0.008548174
0.008812862
0.009045947
0.009250166
0.00943637
0.009625083
0.00984641
0.01014187
0.01020609
0.01001055
0.009843801
0.009686924
0.009519715
0.009324493
0.009091025
0.008816437
0.008503127
0.008156794
0.007785395
0.007399191
0.007011688
0.006641044
0.006309701
0.006045722
0.005873303
0.005788818
0.005706695
0.005382765
0.004774872
0.004085218
0.00331287
0.0024626
0.001555969
0.0006751482
6.229336e-05
4.959758e-05
0.0003497381
0.0008095226
0.001314143
0.001803088
0.002264433
0.002701082
0.003118382
0.003521743
0.003914569
0.004298893
0.004675688
0.005046124
0.005409158
0.005667709
0.005871048
0.006081226
0.006309545
0.006559747
0.006833873
0.007130209
0.007440538
0.007756478
0.008071687
0.008374109
0.008654587
0.008906556
0.009126786
0.009317178
0.009486214
0.009651944
0.009848825
0.01013877
0.01023129
0.01004464
0.009859523
0.009682497
0.009497421
0.009287927
0.009043877
0.00876208
0.008444727
0.008097438
0.007727991
0.007346134
0.006964468
0.006600049
0.00627422
0.006014511
0.005845391
0.005764818
0.00569066
0.005382588
0.00477478
0.004084735
0.003311953
0.002461568
0.001554722
0.0006744412
6.22273e-05
4.983502e-05
0.000349086
0.0008012865
0.001299647
0.001786084
0.002247365
0.00268455
0.003102461
0.003505992
0.003898782
0.004283218
0.004660707
0.005032016
0.005398139
0.005759709
0.006038083
0.006258524
0.006493031
0.006748618
0.007021419
0.00730667
0.007607629
0.007916193
0.008223517
0.008514732
0.008782273
0.009020195
0.009226449
0.009403935
0.009561369
0.009712906
0.00987524
0.01005891
0.01024185
0.01015526
0.009883773
0.009677764
0.009479437
0.009259606
0.009006445
0.008717632
0.008396056
0.008047526
0.007679616
0.007301542
0.006925101
0.0065664
0.006245785
0.005990071
0.00582358
0.005745327
0.005676408
0.005381447
0.004773521
0.004082979
0.00330966
0.002459326
0.001553161
0.0006738182
6.2192e-05
5.022014e-05
0.0003491414
0.0007955033
0.001288151
0.001771755
0.002231992
0.002669262
0.003087665
0.003491704
0.003885039
0.004270288
0.004649196
0.005022904
0.005392227
0.005757649
0.006119337
0.0064699
0.006708511
0.006952198
0.007220395
0.0075054
0.007801115
0.008101051
0.008393536
0.008670564
0.00892458
0.009149122
0.00934161
0.00950447
0.009645903
0.0097794
0.009919653
0.0100733
0.01024233
0.01018022
0.009917766
0.009694786
0.009476071
0.009240163
0.008975751
0.008679583
0.008353915
0.00800423
0.007637767
0.007263209
0.006891616
0.006538286
0.006222887
0.005971696
0.005808849
0.005733799
0.005668971
0.005380602
0.004772352
0.004081288
0.003307593
0.002457039
0.00155122
0.0006727713
6.213594e-05
5.040272e-05
0.0003510635
0.000792099
0.001278485
0.001758524
0.002217858
0.002655296
0.003074369
0.003479283
0.003873668
0.004260276
0.004641062
0.005017359
0.005390063
0.005759734
0.006126682
0.006491045
0.006852614
0.007200185
0.007457824
0.00772272
0.008005522
0.008294485
0.008576083
0.008841779
0.009082404
0.009293271
0.0094721
0.009620462
0.00974443
0.009854546
0.009965353
0.01009568
0.01026015
0.01020788
0.00994668
0.009710325
0.009475086
0.009224539
0.008949064
0.008645569
0.008315995
0.007965409
0.007600567
0.007229554
0.006862701
0.006514329
0.006204057
0.005957433
0.005798232
0.005725966
0.005663847
0.005379693
0.004770814
0.004078958
0.003304712
0.002454121
0.001548979
0.000671745
6.211802e-05
5.052646e-05
0.0003538036
0.000789754
0.001270783
0.001747618
0.002205598
0.002643137
0.003063011
0.003469121
0.003865006
0.004253477
0.004636608
0.005015854
0.005392175
0.005766134
0.006137949
0.006507499
0.006874276
0.007237336
0.007595336
0.007946296
0.00824318
0.008505764
0.008766105
0.009018425
0.009249166
0.009448415
0.009612948
0.009745623
0.009852295
0.009942217
0.01002853
0.0101283
0.01026558
0.0102186
0.009971009
0.009725547
0.009474722
0.009210185
0.008924488
0.008614534
0.008281801
0.00793086
0.007567931
0.007200497
0.006838232
0.00649469
0.006189484
0.005947626
0.00579253
0.005723441
0.005663331
0.005379674
0.004769986
0.004077239
0.003302339
0.002451549
0.001546854
0.0006706681
6.207811e-05
5.238175e-05
0.00035024
0.0007875344
0.001264917
0.001739063
0.002195928
0.002633389
0.003054114
0.003461685
0.003859506
0.004250373
0.004636411
0.005019124
0.00539949
0.005778027
0.006154834
0.006529602
0.006901605
0.007269691
0.007632277
0.007987373
0.008332658
0.008665446
0.008981877
0.009212066
0.009417031
0.009599785
0.009752211
0.009871535
0.009961844
0.01003117
0.01009142
0.01016177
0.01027308
0.0102285
0.009988662
0.009734598
0.009472181
0.0091967
0.008902447
0.00858694
0.008251606
0.007900628
0.00753968
0.007175651
0.006817677
0.006478848
0.006178489
0.005941332
0.005790418
0.005724446
0.005665586
0.005380332
0.004769441
0.004075522
0.003299802
0.002448758
0.001544551
0.000669554
6.20745e-05
5.470585e-05
0.0003542282
0.0007808823
0.001261972
0.001732695
0.002188116
0.002625909
0.003047894
0.003457417
0.003857762
0.004251693
0.004641336
0.0050282
0.005413233
0.005796875
0.00617909
0.006559388
0.006936834
0.007310056
0.007677268
0.008036309
0.008384687
0.008719636
0.009038176
0.009337299
0.009602219
0.009769788
0.009900466
0.01000398
0.01008056
0.01013513
0.01017629
0.01021053
0.01023579
0.01023115
0.01004791
0.009744307
0.00946584
0.009183343
0.008883759
0.008564131
0.008226616
0.007875603
0.007516433
0.007155463
0.006801372
0.006466918
0.006171233
0.005938823
0.005792333
0.005729652
0.005671431
0.005382253
0.0047701
0.004074814
0.00329808
0.002446599
0.001542619
0.0006685134
6.205642e-05
5.562717e-05
0.0003595197
0.0007683923
0.00126181
0.001728823
0.002182965
0.002621079
0.00304469
0.003456724
0.003860296
0.004258085
0.004652169
0.005044011
0.005434483
0.005823908
0.006212089
0.006598339
0.006981507
0.007360001
0.007731829
0.008094655
0.008445856
0.008782578
0.009101884
0.009400744
0.009676766
0.009926043
0.01007179
0.01015832
0.01021538
0.01025013
0.01026833
0.01027438
0.01026606
0.01023664
0.01005749
0.009759598
0.009471794
0.009178324
0.008870534
0.008545898
0.00820612
0.007855085
0.007497636
0.007139601
0.006789182
0.006458839
0.006167553
0.005939673
0.00579747
0.005737866
0.005679523
0.005384426
0.004770885
0.004074415
0.003296532
0.002444487
0.001540656
0.0006674662
6.20661e-05
5.601524e-05
0.0003642054
0.0007574965
0.001257753
0.001727051
0.002180299
0.002619411
0.003045124
0.003460328
0.003867918
0.004270443
0.004669886
0.005067607
0.005464352
0.005860281
0.006255002
0.006647609
0.007036721
0.007420527
0.007796839
0.008163164
0.008516739
0.008854575
0.009173862
0.009471825
0.009745316
0.009991732
0.01020865
0.01033865
0.01038181
0.0103914
0.01038123
0.01035509
0.01031273
0.01025741
0.01007411
0.009776404
0.009480131
0.009177242
0.008861926
0.00853251
0.008190673
0.007839765
0.007483854
0.007128044
0.006780368
0.006453486
0.006166399
0.005943225
0.005805714
0.005749523
0.005690806
0.005388377
0.004773098
0.004075221
0.003296123
0.002443247
0.00153929
0.0006666181
6.205921e-05
5.61637e-05
0.0003689827
0.0007479004
0.001241135
0.001728457
0.002180455
0.002620598
0.003049096
0.003468343
0.00388093
0.004289228
0.004695069
0.005099654
0.005503548
0.005906699
0.006308487
0.006707764
0.007102909
0.007491892
0.007872333
0.008241378
0.008596438
0.008934753
0.009253224
0.009549296
0.009819683
0.01006216
0.01027446
0.01045467
0.0105461
0.01054519
0.01050824
0.0104498
0.01037586
0.01028695
0.01008805
0.009791313
0.009489594
0.009179121
0.00885723
0.008523404
0.008179274
0.007827809
0.007473393
0.00712054
0.006776706
0.006453623
0.006170324
0.005950996
0.00581737
0.00576397
0.005704423
0.005393582
0.004776295
0.004076494
0.00329611
0.002442369
0.001537969
0.0006657903
6.207526e-05
5.667027e-05
0.0003738159
0.0007399968
0.001226324
0.001732178
0.002183689
0.002625611
0.003057957
0.003481864
0.003900322
0.004315399
0.004728665
0.005141083
0.00555297
0.005964022
0.006373353
0.006779568
0.00718073
0.00757441
0.00795799
0.00832934
0.008685379
0.009023166
0.009339885
0.009632734
0.00989913
0.01013678
0.01034365
0.01051804
0.0106586
0.01069762
0.01064919
0.01056363
0.01045425
0.01032618
0.01010935
0.009812259
0.009505113
0.009187739
0.008859851
0.008522439
0.008178207
0.007829091
0.007477172
0.007123954
0.006778811
0.00645684
0.006177348
0.005963072
0.005835263
0.005785556
0.005724012
0.00540022
0.004780797
0.004079127
0.003297164
0.002442308
0.001537447
0.0006652498
6.208827e-05
5.695068e-05
0.0003787423
0.00073342
0.001211938
0.001738527
0.00219016
0.002634381
0.003070726
0.003501198
0.003926739
0.004349699
0.004771495
0.005192777
0.005613496
0.006032929
0.006449728
0.006861954
0.007268199
0.00766614
0.008053177
0.008426147
0.008782229
0.009118595
0.009432632
0.009721526
0.009983032
0.01021506
0.01041581
0.01058383
0.01071799
0.01081747
0.01079048
0.01068731
0.01054599
0.01037747
0.01013828
0.009836834
0.00952306
0.009200123
0.008868854
0.008530012
0.008182785
0.007829098
0.007472655
0.007123324
0.006785762
0.006469548
0.006192152
0.005979766
0.005852662
0.005804309
0.005741591
0.005407761
0.004786115
0.004082453
0.003298904
0.002442605
0.00153695
0.0006647925
6.211994e-05
5.765622e-05
0.0003833776
0.0007278255
0.00119976
0.001746528
0.002199401
0.002647062
0.003088821
0.003525781
0.003959963
0.004392437
0.004823599
0.0052538
0.005683098
0.006110673
0.006535137
0.006954788
0.007366793
0.007768706
0.008157832
0.008531346
0.008886442
0.009220394
0.009530754
0.009814867
0.01007073
0.01029649
0.01049061
0.01065185
0.01077931
0.01087238
0.01091699
0.01081376
0.01064527
0.01043664
0.01017288
0.009864734
0.00954357
0.009212426
0.008872702
0.008526167
0.008176925
0.007826933
0.007477426
0.007130589
0.006793763
0.006478951
0.006203368
0.005992161
0.005867383
0.005821954
0.005758068
0.005416441
0.004792473
0.004086617
0.003301106
0.002443578
0.001537046
0.0006645591
6.214855e-05
5.786237e-05
0.0003887176
0.0007243543
0.001190054
0.001756849
0.0022122
0.002664355
0.003112492
0.003557426
0.004000349
0.004442089
0.004883499
0.005324435
0.005763887
0.006200583
0.006632838
0.007058526
0.007475144
0.007880024
0.00827041
0.008643548
0.008996739
0.009327429
0.00963319
0.00991185
0.01016151
0.01038057
0.01056772
0.01072198
0.01084263
0.01092926
0.01098171
0.01092993
0.01075221
0.01050755
0.0102158
0.009894694
0.009561202
0.009221835
0.008879737
0.008534813
0.008187293
0.007837426
0.007487309
0.007138803
0.006800794
0.006486105
0.006215133
0.006010702
0.005891828
0.005845612
0.00577698
0.005426395
0.004799949
0.004091841
0.003304381
0.002445217
0.001537498
0.0006645494
6.217507e-05
5.831568e-05
0.0003928868
0.0007213581
0.001180209
0.001767756
0.002227301
0.002685115
0.003141035
0.003595389
0.004048841
0.004501833
0.004954383
0.005405898
0.005855203
0.006300657
0.006740223
0.00717154
0.007592023
0.007998982
0.008389721
0.008761587
0.009112028
0.009438643
0.009739243
0.01001189
0.01025493
0.01046699
0.01064701
0.01079422
0.0109081
0.01098841
0.01103509
0.0110294
0.01085296
0.01058369
0.01026274
0.009926174
0.009584757
0.009242771
0.008899105
0.008552924
0.008202815
0.007851205
0.00750002
0.007153094
0.006816813
0.006503525
0.006232554
0.006028495
0.005911716
0.005871066
0.00580313
0.00543739
0.004808265
0.004097743
0.00330818
0.00244731
0.001538375
0.0006647799
6.219963e-05
5.993278e-05
0.0003983892
0.0007215007
0.001174764
0.00176915
0.002247468
0.002712168
0.003177062
0.003641833
0.004106556
0.004571124
0.00503501
0.005497174
0.005956078
0.006409758
0.006855934
0.007292102
0.007715638
0.008123884
0.008514217
0.008884075
0.009231092
0.009553067
0.009848037
0.01011431
0.01035048
0.01055543
0.01072831
0.01086854
0.0109758
0.01104997
0.01109112
0.01109947
0.01095001
0.01066966
0.0103228
0.009969599
0.009618627
0.009269884
0.008921956
0.008573136
0.008223018
0.007871594
0.007520255
0.007172457
0.006835475
0.006522341
0.006252845
0.006051407
0.00593715
0.005896429
0.005824239
0.005449317
0.004817441
0.004104369
0.003312542
0.002449823
0.001539339
0.0006649841
6.223311e-05
5.836857e-05
0.0004084864
0.0007222323
0.001170337
0.001765697
0.002270634
0.002743088
0.003217957
0.003694222
0.004171235
0.004648202
0.005123975
0.005596999
0.006065356
0.006526833
0.006979003
0.007419312
0.007845152
0.008253923
0.008643105
0.009010189
0.009353201
0.009670056
0.009959042
0.01021872
0.01044792
0.01064575
0.01081158
0.010945
0.01104585
0.01111413
0.01115
0.01115371
0.01104625
0.01075865
0.01038686
0.01001617
0.009655191
0.009301713
0.008951348
0.008600856
0.008248893
0.007895694
0.007542885
0.007194105
0.006856597
0.006543354
0.006274367
0.006074456
0.005962939
0.005924946
0.005851035
0.005462458
0.004827715
0.004111995
0.003317744
0.002452833
0.001540879
0.000665501
6.227438e-05
5.755302e-05
0.0004134242
0.0007227741
0.001165202
0.001763193
0.002296439
0.002777828
0.003263643
0.003752144
0.004241935
0.004731541
0.005219234
0.005703012
0.006180615
0.006649598
0.0071074
0.007551413
0.007979044
0.008387774
0.008775228
0.009139108
0.009477669
0.009789076
0.01007187
0.01032485
0.01054708
0.0107379
0.01089686
0.01102371
0.01111842
0.01118107
0.01121189
0.01121118
0.01113048
0.01083732
0.01044588
0.01006159
0.009692657
0.009334793
0.008981817
0.008629555
0.008276214
0.007921751
0.007567578
0.007217526
0.006878998
0.006565295
0.00629671
0.006098179
0.005988683
0.005952078
0.005875878
0.005476161
0.004838552
0.004120178
0.003323511
0.00245648
0.001542716
0.0006659356
6.231425e-05
5.862243e-05
0.0004116461
0.0007249215
0.001161604
0.001760106
0.002325915
0.002817444
0.003315184
0.003816654
0.004319711
0.004822202
0.00532184
0.005816179
0.006302645
0.006778595
0.007241372
0.007688358
0.008117029
0.00852501
0.008910118
0.009270324
0.009604051
0.009909754
0.01018622
0.0104325
0.01064787
0.01083185
0.01098415
0.01110469
0.01119351
0.01125079
0.01127679
0.01127183
0.01120028
0.01090442
0.01050024
0.01010663
0.009732017
0.009370995
0.009016097
0.008662242
0.008307245
0.007950998
0.007594974
0.00724325
0.006903354
0.006588802
0.006320165
0.006122595
0.006014884
0.005979628
0.005901094
0.005490627
0.004850076
0.004128942
0.00332972
0.002460374
0.001544648
0.0006666644
6.236008e-05
6.0985e-05
0.0004164271
0.000728526
0.001159596
0.001759442
0.002358637
0.002861266
0.003371808
0.00388694
0.004403711
0.004919264
0.005430753
0.005935325
0.006430141
0.006912419
0.007379467
0.007828724
0.008257796
0.008664495
0.009046593
0.009402851
0.009731559
0.01003149
0.01030166
0.01054135
0.01075004
0.01092742
0.01107335
0.01118786
0.01127107
0.01132324
0.01134464
0.01133562
0.01126728
0.01096787
0.01055385
0.01015376
0.009775193
0.009411637
0.009054718
0.008698864