/*--------------------------------*- C++ -*----------------------------------*\
| =========                 |                                                 |
| \\      /  F ield         | OpenFOAM: The Open Source CFD Toolbox           |
|  \\    /   O peration     | Version:  2312                                  |
|   \\  /    A nd           | Website:  www.openfoam.com                      |
|    \\/     M anipulation  |                                                 |
\*---------------------------------------------------------------------------*/
FoamFile
{
    version     2.0;
    format      ascii;
    arch        "LSB;label=32;scalar=64";
    class       surfaceScalarField;
    location    "4650";
    object      phi;
}
// * * * * * * * * * * * * * * * * * * * * * * * * * * * * * * * * * * * * * //

dimensions      [1 0 -1 0 0 0 0];

oriented        oriented;

internalField   nonuniform List<scalar> 
23740
(
-0.0001175025
0.0001177405
-0.0002323964
0.000114895
-0.0003530422
0.0001206469
-0.0004696793
0.0001166381
-0.0005755481
0.0001058698
-0.0006850485
0.0001095012
-0.0008102621
0.0001252144
-0.0009368672
0.0001266058
-0.001030174
9.330787e-05
-0.001097159
6.698506e-05
-0.001185416
8.825684e-05
-0.0012972
0.0001117842
-0.001388318
9.111852e-05
-0.001438712
5.03944e-05
-0.001484284
4.55719e-05
-0.001557527
7.324308e-05
-0.001636745
7.921822e-05
-0.001684678
4.793231e-05
-0.001711683
2.700518e-05
-0.001753681
4.199829e-05
-0.001808843
5.516161e-05
-0.001847508
3.866478e-05
-0.001868352
2.084434e-05
-0.001893705
2.535239e-05
-0.001924253
3.054865e-05
-0.001945073
2.081994e-05
-0.001958872
1.379835e-05
-0.001975449
1.657695e-05
-0.001989019
1.357006e-05
-0.00199397
4.951714e-06
-0.001997317
3.346447e-06
-0.002002462
5.145197e-06
-0.002005964
3.502442e-06
-0.002004349
-1.615225e-06
-0.001992225
-1.212398e-05
-0.001970135
-2.209069e-05
-0.001950068
-2.006678e-05
-0.001944251
-5.817955e-06
-0.001939472
-4.778812e-06
-0.001914165
-2.530849e-05
-0.001861911
-5.225445e-05
-0.001806339
-5.55731e-05
-0.001782536
-2.380378e-05
-0.001775582
-6.955437e-06
-0.00173634
-3.9243e-05
-0.001649472
-8.686873e-05
-0.001568627
-8.084512e-05
-0.001533558
-3.50698e-05
-0.001503232
-3.032649e-05
-0.001416047
-8.718561e-05
-0.0012951
-0.0001209468
-0.001214296
-8.080465e-05
-0.001141694
-7.260258e-05
-0.001024056
-0.0001176378
-0.0008829134
-0.0001411432
-0.0007424737
-0.0001404402
-0.0005959463
-0.0001465281
-0.0004094075
-0.0001865401
-0.0002021225
-0.0002072877
-0.000202123
-0.0001168046
0.0002345466
-0.0002283486
0.0002264405
-0.0003361705
0.0002284702
-0.0004474663
0.0002279352
-0.0005609003
0.000219305
-0.000661995
0.0002105969
-0.0007420268
0.0002052471
-0.0008131141
0.0001976938
-0.0009025667
0.000182761
-0.0010024
0.0001668186
-0.001071009
0.000156866
-0.00111244
0.0001532156
-0.001163219
0.0001418974
-0.001238259
0.000125435
-0.001307784
0.0001150967
-0.001344812
0.0001102713
-0.001369306
0.0001037117
-0.00141343
9.205642e-05
-0.001468105
8.168069e-05
-0.001502038
7.593078e-05
-0.001517731
7.085512e-05
-0.001541983
6.291636e-05
-0.00157571
5.457126e-05
-0.001598898
4.854005e-05
-0.001611446
4.309719e-05
-0.001627287
3.666087e-05
-0.001643995
3.050578e-05
-0.001652599
2.518123e-05
-0.001658352
1.932291e-05
-0.001666277
1.287698e-05
-0.001670148
7.21804e-06
-0.001668948
3.944799e-06
-0.001662771
-2.674388e-06
-0.001655019
-9.367082e-06
-0.001650469
-1.667464e-05
-0.001648783
-2.377708e-05
-0.001639448
-2.9402e-05
-0.001611297
-3.397036e-05
-0.001576072
-4.000493e-05
-0.001552753
-4.862863e-05
-0.0015476
-5.740925e-05
-0.001538011
-6.516309e-05
-0.001491136
-7.068053e-05
-0.001421047
-7.704491e-05
-0.001373081
-8.721027e-05
-0.001360935
-9.901603e-05
-0.001333298
-0.0001084832
-0.001251972
-0.0001163964
-0.001155914
-0.0001263846
-0.001103104
-0.0001399969
-0.001071041
-0.0001530101
-0.0009888238
-0.000163022
-0.0008829923
-0.0001784347
-0.0008073435
-0.0001932873
-0.0007268165
-0.0002216709
-0.0006134215
-0.0002538362
-0.0004803479
-0.000279603
-0.0003405206
-0.0003263691
-0.0001834169
-0.0003643938
-0.0003855401
-0.0001004858
0.0003350343
-0.000196822
0.0003227784
-0.0002868017
0.0003184516
-0.0003716005
0.0003127355
-0.0004548284
0.0003025342
-0.0005347005
0.0002904701
-0.000607771
0.0002783185
-0.0006729477
0.0002628712
-0.0007383027
0.0002481165
-0.0008088641
0.0002373804
-0.0008726012
0.0002206034
-0.0009251827
0.0002057973
-0.0009725954
0.0001893101
-0.001021509
0.0001743491
-0.001068153
0.0001617407
-0.001108424
0.0001505417
-0.00114385
0.0001391375
-0.001179142
0.0001273487
-0.00121364
0.0001161787
-0.001243983
0.000106274
-0.001269885
9.675692e-05
-0.001294002
8.703279e-05
-0.001316922
7.74918e-05
-0.001336944
6.856157e-05
-0.001353754
5.990735e-05
-0.001368314
5.122107e-05
-0.001380518
4.270957e-05
-0.001389791
3.445404e-05
-0.001396632
2.616391e-05
-0.001401587
1.783221e-05
-0.001404887
1.05177e-05
-0.001403552
2.610225e-06
-0.001399537
-6.689696e-06
-0.001393452
-1.545223e-05
-0.001385771
-2.435606e-05
-0.001376157
-3.339188e-05
-0.001363155
-4.240412e-05
-0.001345767
-5.135988e-05
-0.001325017
-6.075607e-05
-0.001302729
-7.091715e-05
-0.001278468
-8.167214e-05
-0.001251075
-9.255714e-05
-0.001218475
-0.0001032811
-0.001180881
-0.0001146405
-0.001141225
-0.0001268668
-0.00109994
-0.0001403024
-0.001054236
-0.0001541871
-0.001002284
-0.0001683495
-0.0009451306
-0.0001835385
-0.0008863142
-0.0001988136
-0.0008279393
-0.0002113854
-0.0007606987
-0.0002302631
-0.0006848236
-0.0002543102
-0.0005997653
-0.0002783462
-0.0005082764
-0.0003131607
-0.0004207816
-0.0003413319
-0.0003240295
-0.0003763564
-0.0002301171
-0.0004202833
-0.0001203799
-0.000474133
-0.0005059203
-8.090495e-05
0.0004159411
-0.0001578302
0.0003997054
-0.0002305196
0.0003911425
-0.0002982799
0.0003804971
-0.0003624178
0.0003666733
-0.0004228051
0.0003508583
-0.0004790069
0.0003345212
-0.0005337919
0.0003176567
-0.0005859233
0.0003002482
-0.0006328788
0.0002843362
-0.000681894
0.0002696187
-0.0007299774
0.0002538809
-0.0007769774
0.0002363101
-0.0008202122
0.000217584
-0.0008599005
0.000201429
-0.0008973649
0.0001880061
-0.0009324988
0.0001742714
-0.000965924
0.000160774
-0.0009961761
0.0001464308
-0.001023419
0.0001335165
-0.001047871
0.000121209
-0.001070088
0.0001092499
-0.001090174
9.757789e-05
-0.001107817
8.620431e-05
-0.001122972
7.506275e-05
-0.001135827
6.407597e-05
-0.001146342
5.322397e-05
-0.00115437
4.248206e-05
-0.001160011
3.180514e-05
-0.001164437
2.225874e-05
-0.001166138
1.221785e-05
-0.001164304
7.770087e-07
-0.001160679
-1.031574e-05
-0.001154824
-2.130651e-05
-0.001146776
-3.24052e-05
-0.001136576
-4.359183e-05
-0.00112384
-5.514108e-05
-0.001108236
-6.696493e-05
-0.001089861
-7.913124e-05
-0.001069056
-9.172393e-05
-0.00104595
-0.0001047785
-0.0010202
-0.0001183081
-0.00099113
-0.0001323523
-0.0009586267
-0.0001471447
-0.0009244928
-0.0001610014
-0.0008870052
-0.0001777906
-0.0008460672
-0.0001951255
-0.0008012945
-0.0002131227
-0.0007545201
-0.0002303132
-0.0007049554
-0.0002483786
-0.0006480595
-0.0002682817
-0.0005817961
-0.000296527
-0.0005131012
-0.0003230056
-0.0004411595
-0.0003502885
-0.0003751783
-0.0003791425
-0.0003052618
-0.0004112493
-0.0002325963
-0.000449023
-0.0001583068
-0.0004945743
-8.256044e-05
-0.0005498811
-0.0005884809
-6.32722e-05
0.0004792151
-0.0001255395
0.0004619742
-0.0001844259
0.0004500302
-0.0002402197
0.0004362921
-0.0002935306
0.0004199852
-0.0003445827
0.0004019112
-0.0003930538
0.0003829929
-0.0004389125
0.0003635159
-0.0004825506
0.0003438865
-0.000522106
0.0003238919
-0.000558253
0.0003057658
-0.0005930712
0.0002886992
-0.0006291899
0.0002724289
-0.0006659962
0.0002543904
-0.0006998507
0.0002352836
-0.0007311426
0.000219298
-0.0007604
0.0002035288
-0.0007878673
0.0001882413
-0.0008133812
0.0001719446
-0.0008366112
0.0001567464
-0.000857613
0.0001422108
-0.0008764672
0.000128104
-0.0008932297
0.0001143404
-0.000907896
0.0001008705
-0.0009204785
8.764522e-05
-0.0009310174
7.461489e-05
-0.0009395359
6.174238e-05
-0.0009460484
4.899457e-05
-0.0009505536
3.631034e-05
-0.000953162
2.486706e-05
-0.0009527998
1.18555e-05
-0.0009510507
-9.721981e-07
-0.0009474304
-1.393631e-05
-0.0009417398
-2.699742e-05
-0.0009338919
-4.025355e-05
-0.0009249373
-5.254687e-05
-0.000913513
-6.656606e-05
-0.0008997514
-8.072721e-05
-0.0008837386
-9.514477e-05
-0.0008655138
-0.0001099495
-0.0008450685
-0.0001252245
-0.0008223409
-0.0001410365
-0.0007972243
-0.0001574696
-0.0007698579
-0.0001745116
-0.0007398509
-0.0001910089
-0.0007071456
-0.0002104964
-0.0006725088
-0.0002297628
-0.0006369208
-0.000248711
-0.0005980762
-0.0002691581
-0.0005534079
-0.0002930473
-0.0005018938
-0.0003197962
-0.0004518593
-0.000346562
-0.0004012875
-0.0003735778
-0.0003492492
-0.0004023273
-0.0002947174
-0.0004336749
-0.000237615
-0.0004683524
-0.0001791628
-0.000507476
-0.0001206614
-0.0005530769
-6.205029e-05
-0.0006084936
-0.0006505313
-5.021439e-05
0.0005294311
-9.920879e-05
0.00051097
-0.0001450756
0.0004958982
-0.0001885406
0.0004797581
-0.0002301133
0.0004615586
-0.0002700696
0.0004418681
-0.0003084582
0.0004213821
-0.000345459
0.0004005171
-0.0003811839
0.0003796117
-0.0004160299
0.0003587382
-0.0004485582
0.0003382943
-0.0004783715
0.0003185126
-0.0005053825
0.0002994399
-0.0005329828
0.0002819908
-0.0005615088
0.0002638097
-0.0005871786
0.0002449679
-0.0006106557
0.0002270059
-0.0006319945
0.0002095802
-0.0006524983
0.0001924484
-0.0006715029
0.000175751
-0.0006887911
0.000159499
-0.000704323
0.0001436358
-0.0007180974
0.0001281148
-0.0007301193
0.0001128924
-0.0007404016
9.792748e-05
-0.0007489665
8.317972e-05
-0.0007558364
6.861217e-05
-0.0007610292
5.418736e-05
-0.0007645783
3.985926e-05
-0.0007653642
2.565285e-05
-0.0007648157
1.130685e-05
-0.0007636694
-2.118723e-06
-0.0007606631
-1.694296e-05
-0.0007558508
-3.181003e-05
-0.0007493248
-4.677988e-05
-0.0007410164
-6.085573e-05
-0.0007308955
-7.668753e-05
-0.0007190087
-9.261462e-05
-0.0007053239
-0.0001088302
-0.0006898269
-0.0001254471
-0.0006725024
-0.0001425497
-0.0006533362
-0.0001602032
-0.0006323452
-0.0001784612
-0.000609515
-0.0001973423
-0.0005834654
-0.0002170591
-0.000556959
-0.0002370033
-0.0005291217
-0.0002576006
-0.0004979716
-0.0002798614
-0.0004621926
-0.0003049376
-0.0004243746
-0.0003308657
-0.0003865427
-0.0003576285
-0.0003478693
-0.0003852357
-0.0003073193
-0.0004141282
-0.000264893
-0.0004447541
-0.0002210904
-0.0004774781
-0.0001765299
-0.0005129135
-0.000131837
-0.0005521695
-8.762527e-05
-0.0005972896
-4.458581e-05
-0.0006515344
-0.0006951173
-3.975566e-05
0.0005691882
-7.819861e-05
0.0005494143
-0.0001138404
0.000531541
-0.0001474924
0.000513411
-0.0001796697
0.0004937366
-0.0002106747
0.0004728738
-0.0002406348
0.0004513426
-0.0002696377
0.0004295204
-0.0002977107
0.000407685
-0.0003249712
0.0003859989
-0.0003512881
0.0003646115
-0.000376332
0.0003435567
-0.0003997924
0.0003229004
-0.0004206608
0.0003028593
-0.0004412415
0.0002843905
-0.0004619639
0.0002656903
-0.0004812111
0.0002462531
-0.0004990013
0.0002273704
-0.0005154625
0.0002089096
-0.0005305859
0.0001908744
-0.0005443249
0.000173238
-0.0005566569
0.0001559678
-0.0005675714
0.0001390292
-0.000577066
0.0001223869
-0.0005851432
0.0001060047
-0.0005918082
8.984463e-05
-0.000597064
7.386783e-05
-0.000600909
5.803222e-05
-0.0006033413
4.22915e-05
-0.0006042952
2.660653e-05
-0.0006038657
1.087717e-05
-0.000602881
-3.103614e-06
-0.0006004664
-1.935791e-05
-0.0005967214
-3.555534e-05
-0.000591695
-5.180664e-05
-0.0005843561
-6.81951e-05
-0.0005760567
-8.498734e-05
-0.0005665552
-0.0001021166
-0.0005557306
-0.0001196553
-0.0005435144
-0.0001376638
-0.0005298579
-0.0001562067
-0.0005147195
-0.0001753422
-0.0004980649
-0.0001951163
-0.0004797996
-0.0002156082
-0.0004603408
-0.0002365183
-0.0004390671
-0.0002582774
-0.000414764
-0.0002819041
-0.000387504
-0.0003071219
-0.0003594486
-0.0003329934
-0.0003306484
-0.0003596663
-0.0003009131
-0.0003873643
-0.0002699753
-0.0004161739
-0.0002378531
-0.0004462508
-0.0002047667
-0.000477841
-0.0001709332
-0.0005113121
-0.0001365972
-0.0005472501
-0.0001021021
-0.0005866653
-6.789577e-05
-0.0006314969
-3.440306e-05
-0.0006850283
-0.0007295205
-3.075114e-05
0.0005999408
-6.03347e-05
0.000578999
-8.737308e-05
0.0005585804
-0.0001127448
0.0005387835
-0.0001370163
0.0005180089
-0.0001605047
0.0004963627
-0.0001833572
0.0004741956
-0.0002056248
0.0004517885
-0.0002272961
0.0004293567
-0.0002483443
0.0004070474
-0.0002686977
0.0003849651
-0.0002883087
0.0003631678
-0.0003071096
0.0003417015
-0.0003248744
0.0003206243
-0.0003404164
0.0002999325
-0.0003552947
0.0002805687
-0.0003701904
0.0002611488
-0.0003840642
0.0002412442
-0.0003969255
0.0002217709
-0.0004087363
0.0002026851
-0.0004194701
0.0001839717
-0.0004291074
0.0001656051
-0.0004376381
0.0001475599
-0.0004450595
0.0001298083
-0.0004513747
0.0001123197
-0.0004565911
9.5061e-05
-0.0004607194
7.799599e-05
-0.0004637727
6.108541e-05
-0.0004657672
4.428582e-05
-0.0004667129
2.755206e-05
-0.0004666689
1.083295e-05
-0.0004653615
-4.411255e-06
-0.0004631949
-2.152478e-05
-0.0004600724
-3.867815e-05
-0.000455928
-5.59513e-05
-0.0004507049
-7.341856e-05
-0.0004444869
-9.120573e-05
-0.0004372465
-0.0001093575
-0.0004289571
-0.0001279452
-0.0004195828
-0.0001470385
-0.0004090793
-0.0001667107
-0.0003973854
-0.0001870366
-0.0003844164
-0.0002080857
-0.0003700533
-0.0002299717
-0.0003540161
-0.0002525559
-0.0003356617
-0.0002766322
-0.000315939
-0.0003016273
-0.0002955702
-0.000327491
-0.0002743533
-0.0003542107
-0.0002521481
-0.000381872
-0.0002289878
-0.000410525
-0.0002049216
-0.0004402406
-0.0001800332
-0.0004711397
-0.0001544565
-0.0005034181
-0.000128378
-0.0005373911
-0.0001020399
-0.0005735887
-7.574899e-05
-0.0006129568
-4.992637e-05
-0.0006573204
-2.512195e-05
-0.0007098338
-0.0007546426
-2.328168e-05
0.0006232237
-4.557192e-05
0.0006012904
-6.562676e-05
0.0005786362
-8.429211e-05
0.0005574497
-0.0001020894
0.0005358068
-0.0001193032
0.0005135771
-0.0001360759
0.0004909688
-0.0001524676
0.0004681805
-0.0001684842
0.0004453736
-0.0001841051
0.0004226685
-0.000199289
0.0004001492
-0.0002139913
0.0003778703
-0.0002281595
0.0003558698
-0.0002417143
0.0003341792
-0.0002545805
0.0003127988
-0.0002657567
0.000291745
-0.0002763376
0.0002717297
-0.0002868734
0.00025178
-0.0002966546
0.0002315522
-0.0003056517
0.0002116822
-0.0003138273
0.0001921473
-0.0003211629
0.0001729406
-0.00032765
0.0001540469
-0.0003332889
0.0001354471
-0.0003380861
0.0001171168
-0.0003420524
9.902723e-05
-0.0003452016
8.114503e-05
-0.0003475488
6.343254e-05
-0.00034911
4.58468e-05
-0.0003498992
2.834112e-05
-0.0003499324
1.086594e-05
-0.0003488835
-5.460342e-06
-0.0003471955
-2.321296e-05
-0.0003448107
-4.106327e-05
-0.0003416828
-5.907949e-05
-0.000337769
-7.733269e-05
-0.0003330731
-9.590194e-05
-0.0003275721
-0.0001148588
-0.0003212389
-0.0001342788
-0.0003140403
-0.0001542374
-0.0003059406
-0.0001748108
-0.0002969049
-0.0001960727
-0.0002868751
-0.0002181158
-0.0002759575
-0.0002408897
-0.0002638641
-0.0002646497
-0.0002509599
-0.0002895368
-0.000237252
-0.0003153357
-0.0002226433
-0.0003421001
-0.0002070571
-0.0003697973
-0.000190511
-0.0003984185
-0.0001730699
-0.0004279665
-0.0001548354
-0.0004584755
-0.0001359417
-0.0004900338
-0.000116548
-0.0005228122
-9.683259e-05
-0.000557107
-7.698978e-05
-0.000593432
-5.723483e-05
-0.0006327123
-3.781945e-05
-0.0006767366
-1.904131e-05
-0.000728613
-0.000773684
-1.755019e-05
0.0006407752
-3.384046e-05
0.0006175818
-4.7996e-05
0.0005927926
-6.086512e-05
0.0005703195
-7.303514e-05
0.0005479774
-8.483624e-05
0.0005253787
-9.643712e-05
0.0005025701
-0.0001079109
0.0004796546
-0.0001192647
0.0004567277
-0.0001304624
0.0004338665
-0.0001414437
0.0004111306
-0.0001521411
0.0003885678
-0.0001624884
0.0003662172
-0.0001724178
0.0003441087
-0.0001818781
0.0003222592
-0.0001908091
0.000300676
-0.0001984649
0.0002793855
-0.000205587
0.0002589021
-0.0002126162
0.0002385814
-0.0002191163
0.0002181822
-0.0002250739
0.0001981049
-0.0002304412
0.0001783078
-0.0002352047
0.0001588103
-0.000239362
0.0001396043
-0.0002429193
0.0001206741
-0.0002458886
0.0001019964
-0.0002482855
8.35418e-05
-0.0002501258
6.527278e-05
-0.0002514238
4.714463e-05
-0.0002521913
2.910848e-05
-0.0002524376
1.111207e-05
-0.0002518439
-6.054229e-06
-0.0002508161
-2.424089e-05
-0.0002493277
-4.255194e-05
-0.0002473551
-6.105228e-05
-0.0002448777
-7.981032e-05
-0.0002418804
-9.889953e-05
-0.000238345
-0.0001183945
-0.0002342517
-0.0001383723
-0.0002295775
-0.0001589119
-0.0002242961
-0.0001800925
-0.0002183747
-0.0002019944
-0.0002118107
-0.0002246802
-0.0002044
-0.0002483007
-0.0001960176
-0.0002730324
-0.0001868469
-0.0002987078
-0.0001768141
-0.0003253689
-0.0001659225
-0.000352992
-0.0001541755
-0.0003815447
-0.0001416253
-0.0004109691
-0.000128369
-0.0004412232
-0.0001145286
-0.0004723163
-0.0001002361
-0.0005043267
-8.563042e-05
-0.0005374183
-7.085329e-05
-0.0005718846
-5.605262e-05
-0.0006082331
-4.139607e-05
-0.0006473694
-2.710891e-05
-0.0006910246
-1.3529e-05
-0.0007421939
-0.0007872131
-1.222506e-05
0.0006530015
-2.318423e-05
0.000628542
-3.237117e-05
0.0006019804
-4.063399e-05
0.000578583
-4.846832e-05
0.0005558123
-5.611601e-05
0.0005330268
-6.368143e-05
0.0005101359
-7.119349e-05
0.0004871669
-7.863997e-05
0.0004641744
-8.599368e-05
0.0004412204
-9.32334e-05
0.0004183705
-0.0001003807
0.0003957152
-0.0001074416
0.0003732782
-0.0001143614
0.0003510285
-0.0001210655
0.0003289633
-0.000127475
0.0003070856
-0.0001335007
0.0002854112
-0.0001385832
0.0002639845
-0.0001431825
0.0002431806
-0.0001475999
0.0002225996
-0.0001515971
0.0002021021
-0.000155183
0.0001818937
-0.0001583535
0.0001619808
-0.0001611193
0.00014237
-0.0001634981
0.0001230528
-0.0001655133
0.0001040115
-0.000167195
8.52235e-05
-0.0001685662
6.66438e-05
-0.0001696347
4.821303e-05
-0.0001704036
2.987725e-05
-0.0001708718
1.158019e-05
-0.0001707477
-6.178549e-06
-0.0001703618
-2.46269e-05
-0.0001696939
-4.321997e-05
-0.0001687255
-6.202093e-05
-0.0001674366
-8.109937e-05
-0.0001658078
-0.0001005286
-0.0001638175
-0.000120385
-0.000161442
-0.0001407481
-0.0001586539
-0.0001617002
-0.0001554209
-0.0001833258
-0.0001517068
-0.0002057087
-0.000147441
-0.0002289462
-0.0001426931
-0.0002530489
-0.0001375212
-0.0002782046
-0.0001317401
-0.0003044892
-0.0001252879
-0.0003318214
-0.0001180158
-0.0003602644
-0.0001098936
-0.0003896673
-0.0001009998
-0.0004198632
-9.148313e-05
-0.0004507402
-8.15063e-05
-0.0004822934
-7.121353e-05
-0.0005146199
-6.073622e-05
-0.000547896
-5.01941e-05
-0.0005824271
-3.969959e-05
-0.0006187281
-2.936493e-05
-0.0006577046
-1.931379e-05
-0.0007010765
-9.70156e-06
-0.0007518071
-0.0007969148
-9.422925e-06
0.0006624256
-1.722771e-05
0.0006363478
-2.310223e-05
0.0006078558
-2.777278e-05
0.0005832543
-3.187029e-05
0.0005599103
-3.572798e-05
0.0005368849
-3.95308e-05
0.000513939
-4.338286e-05
0.0004910192
-4.734039e-05
0.0004681321
-5.142164e-05
0.0004453017
-5.559032e-05
0.0004225392
-5.978857e-05
0.0003999135
-6.396995e-05
0.0003774596
-6.808864e-05
0.0003551472
-7.212155e-05
0.0003329962
-7.602138e-05
0.0003109854
-7.970667e-05
0.0002890964
-8.307512e-05
0.000267353
-8.576418e-05
0.0002458696
-8.801176e-05
0.0002248471
-9.007367e-05
0.0002041639
-9.201024e-05
0.0001838302
-9.384845e-05
0.0001638189
-9.557826e-05
0.0001440998
-9.718567e-05
0.0001246601
-9.865938e-05
0.0001054852
-9.999328e-05
8.655732e-05
-0.0001011903
6.784072e-05
-0.0001022517
4.927439e-05
-0.0001031827
3.080811e-05
-0.0001039866
1.238402e-05
-0.0001044187
-5.746564e-06
-0.0001047453
-2.430043e-05
-0.0001049453
-4.302016e-05
-0.0001050012
-6.196513e-05
-0.0001048961
-8.12046e-05
-0.0001046112
-0.0001008137
-0.0001041264
-0.0001208699
-0.0001034198
-0.0001414548
-0.0001024665
-0.0001626538
-0.0001012364
-0.0001845561
-9.969202e-05
-0.0002072533
-9.78156e-05
-0.0002308229
-9.548243e-05
-0.0002553823
-9.267956e-05
-0.0002810077
-8.95378e-05
-0.0003076312
-8.575906e-05
-0.0003356005
-8.111701e-05
-0.0003649067
-7.561593e-05
-0.0003951687
-6.936481e-05
-0.0004261147
-6.262709e-05
-0.0004574783
-5.561036e-05
-0.0004893105
-4.842856e-05
-0.000521802
-4.116775e-05
-0.0005551572
-3.390036e-05
-0.0005896948
-2.669299e-05
-0.0006259359
-1.961492e-05
-0.0006647831
-1.276081e-05
-0.0007079312
-6.304677e-06
-0.0007582641
-0.0008032196
-4.853351e-06
0.0006672801
-7.81919e-06
0.0006393147
-8.820147e-06
0.0006088577
-9.076002e-06
0.0005835108
-9.112462e-06
0.0005599473
-9.252681e-06
0.0005370255
-9.674916e-06
0.0005143615
-1.047227e-05
0.0004918168
-1.16785e-05
0.0004693385
-1.326767e-05
0.000446891
-1.522289e-05
0.0004244945
-1.740166e-05
0.0004020923
-1.970021e-05
0.0003797582
-2.215649e-05
0.0003576035
-2.465829e-05
0.000335498
-2.703138e-05
0.0003133585
-2.911738e-05
0.0002911824
-3.08549e-05
0.0002690905
-3.224613e-05
0.0002472608
-3.338307e-05
0.000225984
-3.452432e-05
0.0002053051
-3.573133e-05
0.0001850372
-3.700253e-05
0.0001650901
-3.831992e-05
0.0001454171
-3.968094e-05
0.0001260211
-4.110692e-05
0.0001069111
-4.258896e-05
8.80393e-05
-4.407479e-05
6.932648e-05
-4.553535e-05
5.073486e-05
-4.695973e-05
3.223241e-05
-4.834843e-05
1.377264e-05
-4.951352e-05
-4.581574e-06
-5.067949e-05
-2.313456e-05
-5.183034e-05
-4.186942e-05
-5.293792e-05
-6.085768e-05
-5.399025e-05
-8.01524e-05
-5.497365e-05
-9.983041e-05
-5.587567e-05
-0.0001199681
-5.6683e-05
-0.0001406477
-5.737936e-05
-0.0001619576
-5.794008e-05
-0.0001839956
-5.832913e-05
-0.0002068644
-5.849464e-05
-0.0002306576
-5.838367e-05
-0.0002554934
-5.785183e-05
-0.0002815398
-5.654319e-05
-0.0003089401
-5.447782e-05
-0.0003376661
-5.177058e-05
-0.0003676142
-4.825277e-05
-0.0003986868
-4.404646e-05
-0.0004303212
-3.954605e-05
-0.0004619789
-3.495983e-05
-0.000493897
-3.033811e-05
-0.000526424
-2.571766e-05
-0.0005597779
-2.113562e-05
-0.0005942772
-1.662891e-05
-0.0006304429
-1.223616e-05
-0.0006691763
-8.005638e-06
-0.0007121624
-4.012771e-06
-0.0007622577
-0.0008072324
-3.170698e-06
0.0006704519
-4.093852e-06
0.0006402389
-3.42526e-06
0.0006081898
-1.953512e-06
0.0005820396
-1.051519e-07
0.0005580993
1.901481e-06
0.0005350192
3.968295e-06
0.0005122949
6.048972e-06
0.0004897362
8.108157e-06
0.0004672794
1.005891e-05
0.0004449403
1.174143e-05
0.000422812
1.282791e-05
0.0004010058
1.307303e-05
0.000379513
1.258777e-05
0.0003580887
1.159819e-05
0.0003364875
1.042678e-05
0.0003145299
9.178934e-06
0.0002924302
7.817761e-06
0.0002704516
6.358862e-06
0.0002487197
4.99953e-06
0.0002273433
3.894046e-06
0.0002064106
3.013574e-06
0.0001859176
2.302651e-06
0.000165801
1.697247e-06
0.0001460225
1.119216e-06
0.000126599
4.838461e-07
0.0001075464
-2.970748e-07
8.882016e-05
-1.267953e-06
7.02973e-05
-2.424047e-06
5.189089e-05
-3.758729e-06
3.356702e-05
-5.244691e-06
1.525853e-05
-6.749937e-06
-3.076406e-06
-8.406554e-06
-2.147802e-05
-1.015796e-05
-4.01181e-05
-1.197707e-05
-5.903866e-05
-1.382952e-05
-7.830006e-05
-1.569705e-05
-9.796298e-05
-1.756565e-05
-0.0001180996
-1.94285e-05
-0.0001387849
-2.129017e-05
-0.000160096
-2.314614e-05
-0.0001821397
-2.495627e-05
-0.0002050544
-2.665473e-05
-0.0002289593
-2.816481e-05
-0.0002539835
-2.934112e-05
-0.0002803637
-3.001068e-05
-0.0003082707
-2.998858e-05
-0.0003376884
-2.908256e-05
-0.0003685205
-2.742287e-05
-0.0004003467
-2.524117e-05
-0.0004325032
-2.259551e-05
-0.0004646249
-1.97952e-05
-0.0004966976
-1.705565e-05
-0.0005291639
-1.437465e-05
-0.0005624592
-1.174957e-05
-0.0005969026
-9.183389e-06
-0.0006330094
-6.688144e-06
-0.0006716719
-4.296371e-06
-0.0007145546
-2.088391e-06
-0.0007644664
-0.0008093209
-1.672248e-06
0.0006721255
-8.534839e-07
0.0006394213
1.573497e-06
0.0006057635
4.973196e-06
0.0005786404
8.80516e-06
0.0005542677
1.279184e-05
0.0005310327
1.677024e-05
0.0005083166
2.06248e-05
0.0004858817
2.423988e-05
0.0004636643
2.748339e-05
0.0004416967
3.028383e-05
0.0004200115
3.264876e-05
0.0003986408
3.464459e-05
0.0003775172
3.639216e-05
0.0003563411
3.796859e-05
0.000334911
3.911902e-05
0.0003133794
3.965607e-05
0.0002918931
3.964962e-05
0.000270458
3.921218e-05
0.0002491571
3.857496e-05
0.0002279805
3.790747e-05
0.000207078
3.724942e-05
0.0001865756
3.657563e-05
0.0001664747
3.58357e-05
0.0001467624
3.501993e-05
0.0001274148
3.415207e-05
0.0001084142
3.324092e-05
8.973126e-05
3.224424e-05
7.129394e-05
3.11118e-05
5.302327e-05
2.98198e-05
3.485896e-05
2.834259e-05
1.673567e-05
2.66412e-05
-1.375078e-06
2.458282e-05
-1.941972e-05
2.231765e-05
-3.7853e-05
1.989309e-05
-5.661419e-05
1.73399e-05
-7.574695e-05
1.467987e-05
-9.530304e-05
1.193038e-05
-0.0001153502
9.110139e-06
-0.0001359648
6.241978e-06
-0.000157228
3.356133e-06
-0.000179254
5.007729e-07
-0.0002021992
-2.241077e-06
-0.0002262176
-4.764329e-06
-0.0002514604
-7.026693e-06
-0.0002781015
-8.991232e-06
-0.0003063064
-1.051349e-05
-0.0003361663
-1.147767e-05
-0.0003675565
-1.176358e-05
-0.000400061
-1.119594e-05
-0.000433071
-9.957799e-06
-0.0004658632
-8.543129e-06
-0.0004981125
-7.205392e-06
-0.0005305018
-5.934544e-06
-0.0005637303
-4.719827e-06
-0.0005981175
-3.564242e-06
-0.0006341653
-2.469988e-06
-0.0006727664
-1.499167e-06
-0.0007155258
-7.142659e-07
-0.0007652517
-0.0008100352
-5.863991e-07
0.0006727129
1.383872e-06
0.0006374518
5.511871e-06
0.0006016362
1.061901e-05
0.0005735338
1.613882e-05
0.0005487483
2.175025e-05
0.0005254215
2.724277e-05
0.0005028242
3.246367e-05
0.0004806609
3.730227e-05
0.0004588257
4.170376e-05
0.0004372952
4.564382e-05
0.0004160714
4.909718e-05
0.0003951874
5.209578e-05
0.0003745185
5.467642e-05
0.0003537604
5.679875e-05
0.0003327886
5.849116e-05
0.0003116869
5.99243e-05
0.0002904599
6.11535e-05
0.0002692288
6.220319e-05
0.0002481073
6.292774e-05
0.0002272559
6.32855e-05
0.0002067202
6.3368e-05
0.0001864931
6.319008e-05
0.0001666526
6.275411e-05
0.0001471983
6.206141e-05
0.0001281074
6.112923e-05
0.0001093463
5.998795e-05
9.08725e-05
5.865943e-05
7.262241e-05
5.715884e-05
5.45238e-05
5.549937e-05
3.651838e-05
5.365563e-05
1.857935e-05
5.154068e-05
7.398159e-07
4.900263e-05
-1.688174e-05
4.615462e-05
-3.500506e-05
4.307502e-05
-5.353466e-05
3.980095e-05
-7.247296e-05
3.636076e-05
-9.186294e-05
3.278047e-05
-0.00011177
2.909447e-05
-0.0001322789
2.535722e-05
-0.0001534908
2.16308e-05
-0.0001755277
1.796583e-05
-0.0001985343
1.441843e-05
-0.0002226703
1.106421e-05
-0.0002481063
7.981277e-06
-0.0002750187
5.226064e-06
-0.0003035513
2.817296e-06
-0.0003337577
7.966835e-07
-0.0003655361
-7.17381e-07
-0.0003985471
-1.66145e-06
-0.0004321272
-2.072406e-06
-0.0004654525
-2.101512e-06
-0.0004980836
-1.986209e-06
-0.0005306173
-1.803294e-06
-0.0005639134
-1.56114e-06
-0.0005983599
-1.265146e-06
-0.0006344615
-9.710485e-07
-0.0006730608
-6.69875e-07
-0.0007158274
-3.318481e-07
-0.0007655903
-0.0008103671
1.556049e-07
0.0006725584
3.34426e-06
0.0006342641
8.496466e-06
0.0005964847
1.468729e-05
0.0005673434
2.135408e-05
0.0005420818
2.814677e-05
0.000518629
3.483652e-05
0.0004961346
4.126437e-05
0.000474233
4.731891e-05
0.0004527711
5.292209e-05
0.000431692
5.801193e-05
0.0004109814
6.255066e-05
0.0003906486
6.651915e-05
0.0003705499
6.99064e-05
0.000350373
7.275844e-05
0.0003299365
7.519438e-05
0.0003092509
7.725277e-05
0.0002884014
7.895216e-05
0.0002675293
8.028152e-05
0.0002467779
8.127853e-05
0.0002262589
8.197854e-05
0.0002060201
8.230809e-05
0.0001861635
8.227481e-05
0.0001666858
8.189189e-05
0.0001475812
8.116758e-05
0.0001288317
8.011251e-05
0.0001104014
7.874691e-05
9.223805e-05
7.709442e-05
7.427485e-05
7.517766e-05
5.644052e-05
7.301844e-05
3.867756e-05
7.062716e-05
2.097057e-05
6.797547e-05
3.391458e-06
6.495839e-05
-1.386472e-05
6.158266e-05
-3.162938e-05
5.792922e-05
-4.988129e-05
5.406531e-05
-6.860912e-05
5.003841e-05
-8.783612e-05
4.589004e-05
-0.0001076217
4.166425e-05
-0.0001280532
3.74134e-05
-0.0001492401
3.319864e-05
-0.000171313
2.90865e-05
-0.0001944223
2.51472e-05
-0.0002187311
2.144997e-05
-0.0002444093
1.8054e-05
-0.0002716229
1.500856e-05
-0.000300506
1.235658e-05
-0.0003311059
1.012425e-05
-0.0003633039
8.308836e-06
-0.0003967319
6.921139e-06
-0.0004307397
5.985931e-06
-0.0004645174
5.396671e-06
-0.0004974945
4.908892e-06
-0.0005301297
4.369801e-06
-0.0005633745
3.76911e-06
-0.0005977594
3.088359e-06
-0.0006337809
2.349367e-06
-0.000672322
1.564703e-06
-0.0007150431
7.243431e-07
-0.0007647504
-0.0008096428
5.532702e-07
0.0006720061
4.340058e-06
0.0006304782
1.022125e-05
0.0005906042
1.720586e-05
0.0005603593
2.469913e-05
0.0005345888
3.232952e-05
0.0005109988
3.98542e-05
0.00048861
4.71073e-05
0.0004669799
5.397666e-05
0.0004459017
6.038925e-05
0.0004252793
6.630061e-05
0.00040507
7.169433e-05
0.0003852547
7.655996e-05
0.0003656841
8.087909e-05
0.0003460538
8.464462e-05
0.0003261708
8.785051e-05
0.0003060449
9.049042e-05
0.0002857614
9.257996e-05
0.0002654397
9.415892e-05
0.0002451989
9.52741e-05
0.0002251436
9.590126e-05
0.0002053929
9.606637e-05
0.0001859983
9.580237e-05
0.0001669498
9.512388e-05
0.0001482596
9.404777e-05
0.0001299077
9.259565e-05
0.0001118534
9.0795e-05
9.403866e-05
8.867537e-05
7.639444e-05
8.626409e-05
5.885176e-05
8.358325e-05
4.135836e-05
8.06506e-05
2.390318e-05
7.74949e-05
6.547114e-06
7.419463e-05
-1.05645e-05
7.042173e-05
-2.785653e-05
6.63571e-05
-4.581671e-05
6.210143e-05
-6.435351e-05
5.771453e-05
-8.344929e-05
5.324403e-05
-0.0001031513
4.873863e-05
-0.0001235479
4.42524e-05
-0.0001447539
3.984303e-05
-0.0001669038
3.556815e-05
-0.0001901475
3.148394e-05
-0.000214647
2.764335e-05
-0.0002405688
2.409123e-05
-0.0002680709
2.086018e-05
-0.0002972752
1.797293e-05
-0.0003282188
1.545175e-05
-0.0003607829
1.332252e-05
-0.0003946029
1.159537e-05
-0.0004290127
1.022983e-05
-0.0004631521
9.122925e-06
-0.0004963877
8.086367e-06
-0.0005290933
6.993853e-06
-0.0005622821
5.858069e-06
-0.0005966238
4.694481e-06
-0.0006326175
3.513043e-06
-0.0006711407
2.314769e-06
-0.000713845
1.116339e-06
-0.0007635523
-0.0008085265
5.82852e-07
0.0006714243
4.72322e-06
0.0006263386
1.105434e-05
0.0005842737
1.853233e-05
0.0005528817
2.654141e-05
0.00052658
3.469937e-05
0.0005028409
4.275616e-05
0.0004805532
5.054463e-05
0.0004591914
5.795401e-05
0.0004384922
6.491579e-05
0.0004183173