/*--------------------------------*- C++ -*----------------------------------*\
| =========                 |                                                 |
| \\      /  F ield         | OpenFOAM: The Open Source CFD Toolbox           |
|  \\    /   O peration     | Version:  2312                                  |
|   \\  /    A nd           | Website:  www.openfoam.com                      |
|    \\/     M anipulation  |                                                 |
\*---------------------------------------------------------------------------*/
FoamFile
{
    version     2.0;
    format      ascii;
    arch        "LSB;label=32;scalar=64";
    class       volScalarField;
    location    "4650";
    object      qin;
}
// * * * * * * * * * * * * * * * * * * * * * * * * * * * * * * * * * * * * * //

dimensions      [1 0 -3 0 0 0 0];

internalField   uniform 0;

boundaryField
{
    plate
    {
        type            calculated;
        value           nonuniform List<scalar> 
200
(
2346.177
2295.216
2265.485
2241.606
2216.683
2196.853
2190.655
2198.214
2211.77
2224.605
2233.162
2233.879
2224.887
2210.053
2196.607
2189.36
2189.934
2199.433
2217.906
2241.548
2263.15
2276.267
2279.307
2276.832
2276.882
2284.886
2299.317
2314.537
2327.361
2338.222
2346.623
2349.776
2347.199
2342.963
2340.881
2340.441
2340.668
2345.027
2357.534
2375.259
2389.582
2394.644
2391.123
2383.052
2374.829
2370.519
2372.377
2379.258
2387.533
2393.636
2396.178
2396.996
2399.941
2406.893
2414.999
2419.504
2418.789
2414.67
2408.88
2402.351
2397.428
2397.248
2402.121
2408.888
2414.323
2417.272
2417.448
2414.477
2409.209
2404.612
2404.075
2408.883
2417.416
2426.263
2431.791
2431.453
2424.793
2413.846
2402.381
2394.111
2390.868
2391.874
2394.51
2396.039
2395.193
2392.687
2390.463
2390.282
2392.623
2396.477
2400.049
2401.828
2401.426
2399.731
2398.372
2398.844
2401.773
2406.706
2412.449
2417.708
2421.629
2424.004
2425.095
2425.271
2424.721
2423.396
2421.185
2418.172
2414.788
2411.745
2409.772
2409.299
2410.271
2412.177
2414.297
2416.014
2417.059
2417.562
2417.925
2418.582
2419.795
2421.554
2423.631
2425.715
2427.561
2429.082
2430.337
2431.457
2432.547
2433.612
2434.56
2435.246
2435.553
2435.466
2435.084
2434.588
2434.157
2433.879
2433.702
2433.454
2432.944
2432.093
2431.053
2430.22
2430.134
2431.247
2433.676
2437.023
2440.385
2442.579
2442.521
2439.628
2434.088
2426.868
2419.444
2413.325
2409.506
2408.05
2407.975
2407.566
2405.102
2399.756
2392.281
2385.071
2381.401
2384.059
2393.962
2409.442
2426.627
2440.841
2448.421
2448.166
2441.791
2433.237
2427.106
2426.771
2432.745
2441.84
2447.784
2443.82
2426.934
2401.519
2379.167
2373.067
2389.942
2425.634
2467.986
2504.192
2526.192
2531.163
2520.063
2498.126
2477.369
2476.946
2515.206
2593.329
2687.199
2766.984
2843.868
2978.257
)
;
    }
    riser
    {
        type            calculated;
        value           nonuniform List<scalar> 
200
(
5133.021
4984.759
4957.848
5001.764
5105.375
5221.971
5341.44
5357.621
5158.632
4982.27
5138.866
5399.671
5386.599
5273.686
5405.507
5683.958
5811.33
5724.039
5573.568
5516.022
5621.916
5875.51
6153.455
6297.442
6310.514
6324.005
6313.116
6159.095
6000.665
6113.899
6448.19
6643.876
6529.331
6376.516
6566.539
7060.586
7451.96
7564.145
7543.418
7370.193
6934.455
6517.778
6504.226
6808.249
7080.759
7143.462
6975.874
6634.44
6302.461
6161.548
6182.566
6193.509
6145.629
6134.988
6154.018
6118.035
6134.592
6400.753
6831.673
7123.833
7166.95
7087.917
6947.284
6707.769
6457.881
6377.716
6513.536
6750.186
6959.262
7086.803
7129.982
7098.148
7004.692
6870.545
6722.143
6583.763
6469.748
6379.678
6302.299
6231.665
6181.18
6176.608
6232.54
6336.767
6456.257
6556.257
6616.741
6637.53
6632.902
6621.169
6615.227
6618.155
6624.828
6627.46
6621.43
6608.057
6593.01
6581.651
6574.875
6568.519
6556.519
6535.429
6507.44
6480.189
6463.539
6465.174
6487.326
6526.071
6573.164
6619.127
6656.066
6679.206
6687.028
6680.469
6661.816
6633.914
6599.963
6563.62
6528.916
6499.776
6479.266
6468.894
6468.291
6475.47
6487.602
6501.984
6516.71
6530.876
6544.407
6557.689
6571.214
6585.396
6600.563
6616.966
6634.666
6653.357
6672.172
6689.637
6703.875
6713.061
6715.877
6711.802
6701.14
6684.802
6663.998
6640.054
6614.454
6588.979
6565.745
6546.987
6534.47
6528.71
6528.427
6530.63
6531.501
6527.982
6519.625
6509.801
6505.345
6514.305
6542.414
6589.675
6648.673
6705.756
6745.081
6753.926
6726.781
6666.451
6582.176
6486.064
6389.515
6300.905
6225.025
6163.951
6118.575
6089.583
6076.981
6079.52
6097.1
6135.486
6205.554
6309.692
6421.673
6481.116
6420.655
6219.679
5944.028
5716.496
5618.749
5617.755
5623.559
5629.903
5746.589
5970.674
6060.769
5784.257
5256.046
4893.842
4803.143
4836.516
)
;
    }
    topAndBottom
    {
        type            calculated;
        value           nonuniform List<scalar> 
120
(
7879.271
6976.731
6360.889
5960.196
5660.375
5443.732
5306.52
5219.675
5149.339
5078.744
5008.183
4943.499
4887.674
4839.827
4798.128
4762.24
4733.505
4713.597
4703.002
4700.269
4702.226
4704.926
4704.84
4699.784
4689.214
4673.866
4655.035
4633.907
4611.249
4587.483
4562.971
4538.28
4514.279
4492.058
4472.716
4457.092
4445.52
4437.698
4432.739
4429.428
4426.594
4423.42
4419.588
4415.249
4410.909
4407.223
4404.621
4402.682
4399.568
4392.12
4377.097
4353.239
4322.861
4291.405
4264.401
4243.318
4224.87
4204.433
4186.089
4197.152
6981.137
7004.032
6998.201
6848.692
6512.309
6079.964
5688.334
5415.165
5259.425
5177.46
5129.7
5114.998
5169.752
5328.445
5578.007
5845.438
6032.372
6072.798
5968.604
5776.336
5561.109
5356.299
5155.437
4934.743
4684.076
4422.784
4192.35
4035.095
3974.368
4006.194
4103.114
4225.005
4330.934
4388.554
4380.015
4304.356
4176.27
4021.286
3868.44
3742.715
3659.842
3624.97
3634.859
3681.77
3757.017
3853
3963.615
4083.573
4207.311
4328.278
4439.396
4534.901
4612.39
4672.947
4718.448
4747.913
4758.247
4743.92
4723.639
4649.985
)
;
    }
    frontAndBack
    {
        type            empty;
    }
}


// ************************************************************************* //
