/*--------------------------------*- C++ -*----------------------------------*\
| =========                 |                                                 |
| \\      /  F ield         | OpenFOAM: The Open Source CFD Toolbox           |
|  \\    /   O peration     | Version:  2312                                  |
|   \\  /    A nd           | Website:  www.openfoam.com                      |
|    \\/     M anipulation  |                                                 |
\*---------------------------------------------------------------------------*/
FoamFile
{
    version     2.0;
    format      ascii;
    arch        "LSB;label=32;scalar=64";
    class       volScalarField;
    location    "4650";
    object      qr;
}
// * * * * * * * * * * * * * * * * * * * * * * * * * * * * * * * * * * * * * //

dimensions      [1 0 -3 0 0 0 0];

internalField   uniform 0;

boundaryField
{
    plate
    {
        type            calculated;
        value           nonuniform List<scalar> 
200
(
-9311.469
-9455.943
-9537.38
-9535.504
-9476.636
-9429.194
-9426.266
-9457.85
-9515.378
107.6605
102.9221
-9601.94
-35.03776
-89.63655
-143.2678
-173.4551
-189.8326
-190.2813
-174.7772
-143.7928
-112.1498
-97.00804
-103.2594
-124.9115
-141.2684
-140.913
-9429.382
-9397.42
-9370.486
-9339.356
-9296.318
-9247.099
-9207.59
-9169.495
-9136.783
-9109.538
-9101.143
-469.455
-491.9042
-8935.4
-8837.237
-8753.524
-8702.775
-8672.154
-820.5616
-912.5362
-992.3754
-1058.11
-1119.656
-1185.816
-1262.883
-1340.856
-1401.612
-1439.912
-7757.241
-7612.059
-7508.264
-7424.352
-7354.592
-6500.308
-2388.414
-3274.862
-6021.773
-6493.563
-6372.56
-5996.536
-5388.991
-4592.674
-4331.968
-4460.472
-4410.821
-4257.374
-3896.423
-3577.867
-3425.979
-3457.973
-3692.125
-4109.506
-4640.857
-5014.874
-5144.185
-5093.435
-4947.124
-4827.225
-4780.632
-4796.052
-4825.284
-4803.99
-4726.82
-4612.381
-4508.866
-4463.677
-4485.71
-4565.939
-4659.376
-4719.162
-4717.764
-4654.782
-4553.783
-4444.008
-4358.477
-4308.478
-4292.495
-4303.689
-4331.601
-4375.865
-4434.566
-4505.44
-4582.655
-4652.437
-4704.821
-4731.346
-4731.542
-4714.177
-4692.364
-4678.634
-4677.945
-4691.265
-4710.884
-4727.442
-4734.1
-4727.04
-4709.636
-4687.06
-4664.221
-4645.263
-4631.569
-4622.66
-4615.686
-4610.777
-4606.729
-4602.969
-4599.276
-4594.575
-4588.189
-4578.415
-4567.208
-4556.431
-4549.795
-4550.646
-4561.355
-4580.712
-4603.29
-4623.661
-4634.661
-4632.64
-4617.86
-4595.532
-4572.834
-4555.384
-4548.778
-4552.197
-4562.845
-4577.058
-4593.532
-4612.263
-4632.58
-4654.849
-4674.042
-4683.934
-4678.956
-4656.319
-4623.313
-4589.182
-4562.987
-4548.702
-4545.177
-4544.02
-4534.32
-4512.867
-4486.711
-4471.493
-4483.347
-4522.896
-4575.262
-4611.494
-4604.871
-4539.588
-4434.172
-4343.793
-4320.931
-4372.326
-4459.328
-4536.829
-4578.089
-4590.482
-4581.061
-4529.54
-4409.647
-4208.489
-4073.025
-3968.626
-3956.598
-4360.922
-7497.346
-935.2734
-9559.267
816.0914
-10982.09
-11041.65
)
;
    }
    riser
    {
        type            calculated;
        value           nonuniform List<scalar> 
200
(
3212.405
3089.16
3062.139
3077.692
3129.955
3195.308
3277.324
3288.849
3130.392
2989.439
3117.013
3326.108
3307.179
3200.707
3289.463
3497.998
3587.818
3509.755
3387.062
3343.398
3432.137
3638.918
3863.943
3979.46
3988.927
3999.916
3991.731
3866.223
3735.123
3823.019
4088.592
4238.735
4134.766
4000.596
4148.462
4546.786
4863.402
4954.29
4938.713
4799.833
4446.295
4106.769
4095.154
4342.61
4564.368
4615.124
4478.927
4201.749
3932.019
3817.391
3834.348
3842.868
3803.641
3795.328
3811.398
3782.154
3795.106
4011.431
4362.352
4600.156
4634.917
4570.627
4456.757
4262.322
4059.076
3994.05
4104.988
4297.607
4467.28
4570.714
4606.031
4580.61
4504.978
4396.104
4275.641
4163.373
4070.83
3997.555
3934.473
3876.932
3835.938
3832.373
3877.954
3962.667
4059.703
4140.945
4190.221
4207.418
4204.119
4195.201
4191.156
4194.497
4201.026
4204.354
4200.648
4190.917
4179.709
4171.322
4166.418
4161.559
4151.781
4134.275
4110.842
4087.728
4073.013
4073.022
4089.654
4119.803
4156.834
4193.091
4222.183
4240.235
4246.005
4240.238
4224.773
4201.902
4174.205
4144.635
4116.451
4092.825
4076.225
4067.86
4067.41
4073.25
4083.082
4094.717
4106.624
4118.084
4129.046
4139.823
4150.8
4162.292
4174.549
4187.767
4202.008
4217.049
4232.221
4246.351
4257.921
4265.427
4267.762
4264.464
4255.759
4242.399
4225.412
4205.936
4185.226
4164.732
4146.125
4131.116
4121.029
4116.199
4115.582
4116.844
4117.055
4113.914
4107.155
4099.453
4096.081
4103.172
4125.016
4161.527
4207.073
4251.463
4283.018
4292.43
4275.605
4234.254
4174.509
4104.512
4032.156
3963.666
3903.25
3853.499
3816.156
3792.454
3782.522
3784.916
3798.676
3827.444
3879.611
3958.365
4045.722
4096.611
4058.131
3911.348
3704.668
3533.197
3461.282
3462.607
3464.869
3464.165
3552.22
3733.436
3820.023
3624.012
3227.844
2954.323
2884.942
2909.062
)
;
    }
    topAndBottom
    {
        type            calculated;
        value           nonuniform List<scalar> 
120
(
3804.678
3176.54
2724.528
2435.377
2215.211
2061.876
1970.943
1919.405
1880.65
1839.009
1792.253
1748.562
1713.116
1684.779
1659.828
1638.293
1622.554
1614.731
1615.309
1622.01
1632.015
1642.212
1649.745
1652.592
1649.983
1642.526
1631.526
1618.302
1603.59
1587.784
1571.225
1554.416
1538.15
1523.407
1511.168
1502.184
1496.772
1494.655
1495.01
1496.726
1498.758
1500.351
1501.182
1501.377
1501.436
1501.951
1503.272
1505.005
1505.54
1502.021
1491.489
1472.779
1448.016
1422.138
1400.102
1383.242
1368.786
1354.136
1355.393
1497.439
4218.372
4465.943
4487.076
4356.372
4054.267
3665.357
3313.001
3067.162
2927.09
2853.725
2811.274
2798.273
2847.347
2989.891
3214.698
3456.311
3625.817
3663.049
3569.297
3395.813
3202.021
3018.568
2839.568
2642.942
2418.765
2184.071
1976.465
1834.721
1780.501
1810.481
1899.744
2011.69
2109.048
2162.606
2156.282
2089.406
1975.481
1837.757
1702.432
1591.812
1519.684
1490.739
1502.632
1548.474
1620.109
1710.25
1813.715
1926.392
2043.241
2157.775
2263.02
2355.457
2433.447
2497.118
2548.233
2587.368
2613.71
2622.854
2638.251
2631.028
)
;
    }
    frontAndBack
    {
        type            empty;
    }
}


// ************************************************************************* //
