/*--------------------------------*- C++ -*----------------------------------*\
| =========                 |                                                 |
| \\      /  F ield         | OpenFOAM: The Open Source CFD Toolbox           |
|  \\    /   O peration     | Version:  2312                                  |
|   \\  /    A nd           | Website:  www.openfoam.com                      |
|    \\/     M anipulation  |                                                 |
\*---------------------------------------------------------------------------*/
FoamFile
{
    version     2.0;
    format      ascii;
    arch        "LSB;label=32;scalar=64";
    class       volScalarField;
    location    "4650";
    object      T;
}
// * * * * * * * * * * * * * * * * * * * * * * * * * * * * * * * * * * * * * //

dimensions      [0 0 0 1 0 0 0];

internalField   nonuniform List<scalar> 
12000
(
448.4802
435.6099
434.0401
433.8129
433.7757
433.7632
433.7547
433.7468
433.7384
433.7294
433.7192
433.7069
433.6919
433.6746
433.6551
433.6328
433.607
433.5779
433.5461
433.5109
433.4721
433.4296
433.384
433.335
433.2822
433.2261
433.1668
433.1041
433.0382
432.9696
432.8985
432.825
432.748
432.6601
432.5656
432.4661
432.3584
432.2334
432.0876
431.9281
431.7741
431.6213
431.4366
431.2178
430.9871
430.7709
430.5473
430.272
429.9436
429.5966
429.2689
428.8589
428.3355
427.7528
427.1071
426.3071
425.2265
423.8204
421.6516
417.7445
448.467
436.1477
434.7841
434.7609
434.9635
435.2061
435.4528
435.693
435.9329
436.1734
436.3984
436.6004
436.7873
436.9745
437.1566
437.3161
437.4521
437.5812
437.7093
437.8231
437.9154
437.9973
438.0766
438.1455
438.199
438.2433
438.2813
438.3081
438.3231
438.3308
438.3298
438.3184
438.2976
438.2666
438.2237
438.169
438.1024
438.0234
437.9316
437.8265
437.7072
437.5715
437.4171
437.2422
437.0447
436.8224
436.5733
436.2921
435.9784
435.6256
435.225
434.759
434.2278
433.601
432.8526
431.8861
430.5606
428.7017
425.7464
420.3412
449.0058
436.9138
435.5007
435.5681
435.9287
436.3428
436.7607
437.1668
437.5568
437.929
438.2772
438.5996
438.8971
439.1743
439.4312
439.6674
439.8831
440.0802
440.2605
440.4241
440.5713
440.7032
440.8211
440.9257
441.0172
441.0962
441.1632
441.2184
441.262
441.2941
441.3151
441.3249
441.3244
441.3099
441.2819
441.2405
441.1855
441.1167
441.0332
440.9345
440.8199
440.6882
440.5382
440.3684
440.1768
439.9608
439.7184
439.445
439.1344
438.7798
438.3822
437.939
437.4264
436.8161
436.0654
435.1119
433.8429
431.9102
428.6006
421.7155
449.8771
437.653
436.143
436.2427
436.7004
437.2264
437.7513
438.2557
438.7342
439.1877
439.616
440.0155
440.3883
440.7305
441.0445
441.3341
441.6008
441.8458
442.0703
442.2753
442.4619
442.6311
442.7838
442.9207
443.0424
443.1492
443.2416
443.3196
443.3835
443.4331
443.4684
443.4903
443.498
443.4894
443.4648
443.4244
443.3679
443.2948
443.2044
443.0961
442.9689
442.822
442.6542
442.4643
442.2505
442.0125
441.7469
441.4509
441.1199
440.7493
440.3308
439.8516
439.2928
438.6458
437.8756
436.9218
435.6348
433.7174
430.3389
422.65
450.8563
438.3857
436.7546
436.8439
437.3517
437.9479
438.5441
439.1152
439.6547
440.162
440.639
441.0861
441.5055
441.895
442.2548
442.5869
442.8938
443.1771
443.438
443.677
443.8953
444.0939
444.2736
444.4351
444.579
444.7057
444.8154
444.9084
444.9847
445.0443
445.0877
445.115
445.1245
445.1159
445.0895
445.0452
444.9832
444.9026
444.8025
444.682
444.5403
444.3761
444.1884
443.9755
443.7359
443.4685
443.1705
442.8401
442.4759
442.0701
441.6039
441.0743
440.4849
439.8091
439.0096
438.0296
436.7424
434.852
431.4911
423.3726
451.8951
439.1112
437.3392
437.3813
437.8986
438.53
439.1697
439.7859
440.3698
440.9195
441.4349
441.9173
442.3689
442.7915
443.1852
443.55
443.8877
444.1999
444.4879
444.7523
444.9939
445.2136
445.4123
445.5907
445.7493
445.8887
446.0092
446.1109
446.1941
446.2587
446.3053
446.3332
446.3416
446.331
446.3014
446.2527
446.1847
446.0966
445.9875
445.8564
445.7021
445.5233
445.3184
445.086
444.8243
444.5312
444.2047
443.8429
443.443
442.9999
442.5061
441.9516
441.328
440.618
439.7901
438.7864
437.4885
435.6129
432.2912
423.9288
452.9545
439.8229
437.9022
437.8742
438.3716
439.0118
439.6735
440.3172
440.9303
441.5092
442.0534
442.5636
443.041
443.487
443.9036
444.2918
444.6521
444.9854
445.2927
445.5747
445.8323
446.0663
446.2775
446.4667
446.6343
446.7811
446.9074
447.0137
447.1
447.1666
447.2135
447.2404
447.2473
447.2345
447.2021
447.1498
447.0772
446.9836
446.8679
446.729
446.5656
446.376
446.1586
445.9116
445.6329
445.3207
444.9728
444.5866
444.1585
443.6844
443.1591
442.5757
441.9237
441.1861
440.3334
439.3108
438.0052
436.1415
432.8543
424.3319
454.0237
440.5211
438.4467
438.3323
438.7877
439.4169
440.0844
440.7419
441.3723
441.9698
442.5332
443.0627
443.5592
444.0235
444.4569
444.8609
445.2365
445.5841
445.9044
446.1982
446.4662
446.7093
446.9283
447.1237
447.2964
447.447
447.5761
447.6841
447.7714
447.8382
447.8845
447.9103
447.9158
447.9013
447.8668
447.8121
447.7367
447.6397
447.5201
447.3766
447.2076
447.0114
446.786
446.5294
446.2393
445.9136
445.5495
445.1441
444.6946
444.1974
443.6479
443.04
442.3638
441.6032
440.7302
439.6923
438.3803
436.5268
433.2774
424.6487
455.0957
441.2111
438.975
438.7645
439.1634
439.7658
440.4244
441.0834
441.7211
442.3291
442.9046
443.4469
443.9564
444.4337
444.8794
445.2945
445.68
446.0367
446.3653
446.6663
446.9406
447.189
447.4121
447.6108
447.786
447.9382
448.0682
448.1765
448.2636
448.3298
448.3753
448.4003
448.4049
448.3894
448.3539
448.2982
448.2215
448.1231
448.0018
447.8562
447.6846
447.4849
447.2549
446.9923
446.6944
446.3585
445.9818
445.5615
445.0949
444.579
444.0099
443.382
442.6863
441.9076
441.0192
439.9702
438.6546
436.8107
433.5943
424.9086
456.0399
441.8907
439.4904
439.1778
439.5091
440.072
440.7105
441.3613
441.9981
442.6096
443.1911
443.7409
444.2585
444.7441
445.198
445.6208
446.013
446.3755
446.7092
447.0146
447.2926
447.5438
447.7691
447.9693
448.1452
448.2977
448.4274
448.5352
448.6215
448.6868
448.7316
448.7559
448.76
448.7442
448.7085
448.6526
448.5759
448.4775
448.3561
448.2102
448.0379
447.8369
447.6047
447.3386
447.0355
446.6924
446.3063
445.8744
445.3942
444.8631
444.278
443.6341
442.9232
442.1307
441.2308
440.1738
438.8564
437.0227
433.8426
425.1475
457.1277
442.5566
439.99
439.5741
439.8319
440.3469
440.9567
441.5914
442.2202
442.8288
443.4108
443.9632
444.4848
444.9751
445.4342
445.8622
446.2595
446.6265
446.964
447.2725
447.5528
447.8056
448.0319
448.2324
448.4082
448.5601
448.689
448.7958
448.881
448.9453
448.9892
449.0129
449.0167
449.0009
448.9655
448.9101
448.8341
448.7366
448.6162
448.4713
448.2998
448.0992
447.8667
447.599
447.2928
446.9445
446.5507
446.1086
445.616
445.0713
444.4726
443.8157
443.0931
442.2908
441.3833
440.322
439.0054
437.1822
434.0348
425.3654
458.3485
443.216
440.4779
439.9592
440.1406
440.6014
441.1749
441.7863
442.4007
443.0008
443.5784
444.1291
444.6507
445.1425
445.604
446.0353
446.4366
446.808
447.1496
447.4616
447.7445
447.999
448.2261
448.4267
448.6021
448.7532
448.881
448.9864
449.0702
449.1332
449.176
449.1989
449.2024
449.1865
449.1514
449.0966
449.0215
448.9252
448.8063
448.663
448.4931
448.2938
448.0621
447.7943
447.4864
447.1342
446.7333
446.2807
445.7752
445.2172
444.6068
443.9404
443.2102
442.402
441.4903
440.4271
439.1127
437.3001
434.186
425.5749
459.4752
443.8922
440.9636
440.334
440.434
440.8348
441.366
441.9483
442.5429
443.1297
443.6983
444.2429
444.7602
445.249
445.7087
446.142
446.5503
446.9316
447.2829
447.6022
447.8896
448.1456
448.3728
448.5733
448.7481
448.8983
449.0246
449.1284
449.2105
449.2718
449.3132
449.335
449.3376
449.3215
449.2863
449.232
449.1578
449.0627
448.9453
448.8038
448.6359
448.4386
448.2086
447.9417
447.6334
447.2792
446.8721
446.4061
445.8834
445.3104
444.6913
444.0202
443.2866
442.4761
441.5633
440.5009
439.1903
437.3881
434.303
425.7701
460.7142
444.5691
441.4436
440.7044
440.7244
441.0646
441.5503
442.0988
442.6681
443.2357
443.789
444.3206
444.826
445.306
445.7655
446.2057
446.6236
447.0151
447.3756
447.7025
447.9956
448.2568
448.4883
448.6912
448.8663
449.0146
449.1378
449.2383
449.3177
449.3767
449.416
449.4362
449.4377
449.4207
449.3853
449.331
449.2574
449.1633
449.0473
448.9076
448.7417
448.5466
448.319
448.0543
447.7451
447.384
446.9667
446.49
445.9545
445.3681
444.7406
444.0673
443.333
442.5227
441.6109
440.5505
439.244
437.4511
434.392
425.9497
461.9672
445.2513
441.9209
441.0738
441.0158
441.2942
441.7315
442.2428
442.7835
443.3286
443.8638
444.3802
444.8738
445.3494
445.8114
446.2565
446.6785
447.0727
447.4371
447.7702
448.0709
448.3386
448.5739
448.7786
448.9543
449.1027
449.2254
449.3245
449.4015
449.4578
449.4947
449.513
449.513
449.495
449.4588
449.4043
449.3308
449.2373
449.1223
448.9842
448.8203
448.6266
448.3985
448.1313
447.819
447.4546
447.0317
446.5472
446.0032
445.4067
444.7678
444.0901
443.3586
442.5503
441.6407
440.5834
439.2814
437.4968
434.4584
426.1003
463.2208
445.9333
442.4008
441.4465
441.3102
441.5262
441.9139
442.3862
442.8964
443.4177
443.934
444.435
444.92
445.3937
445.855
446.2989
446.7213
447.1183
447.4868
447.824
448.1282
448.399
448.6373
448.8439
449.0207
449.1694
449.292
449.3904
449.4664
449.5214
449.5567
449.5731
449.5715
449.5522
449.515
449.4598
449.3858
449.2921
449.177
449.0383
448.8734
448.6785
448.4492
448.1804
447.8657
447.4987
447.0734
446.5854
446.0347
445.4288
444.7814
444.1004
443.3703
442.5643
441.6574
440.6032
439.3052
437.5269
434.5033
426.2165
464.4591
446.6196
442.8875
441.8234
441.6093
441.7636
442.1017
442.5346
443.014
443.5116
444.01
444.4987
444.9747
445.441
445.8977
446.3403
446.7636
447.1624
447.5323
447.8707
448.1764
448.4492
448.689
448.8968
449.0742
449.2232
449.3456
449.4434
449.5185
449.5724
449.6062
449.621
449.6177
449.5969
449.5584
449.5017
449.4264
449.3314
449.2151
449.0752
448.9089
448.7124
448.4815
448.2106
447.8938
447.5246
447.0967
446.606
446.0527
445.4432
444.7899
444.1037
443.3735
442.5711
441.6679
440.6173
439.3235
437.5513
434.5398
426.2993
465.6714
447.3151
443.3792
442.2051
441.9143
442.0085
442.2982
442.6926
443.142
443.6165
444.0979
444.574
445.0412
445.5014
445.9536
446.3929
446.8137
447.211
447.5806
447.9195
448.2257
448.4983
448.7377
448.9451
449.122
449.2702
449.3917
449.4885
449.5623
449.6146
449.6468
449.6598
449.6548
449.6323
449.592
449.5337
449.4567
449.3601
449.2421
449.1006
448.9326
448.7344
448.5016
448.2289
447.9101
447.539
447.1092
446.6165
446.0604
445.4471
444.7898
444.1005
443.3706
442.5717
441.6717
440.6246
439.3348
437.5678
434.5646
426.3477
466.8546
448.0137
443.8752
442.5919
442.2262
442.2625
442.5059
442.8636
443.2844
443.7375
444.2033
444.6687
445.1276
445.5805
446.0266
446.4612
446.8786
447.2732
447.6405
447.9771
448.2811
448.5517
448.7892
448.9946
449.1694
449.3154
449.4347
449.5293
449.6009
449.651
449.681
449.6918
449.6847
449.6603
449.6184
449.5583
449.4795
449.3811
449.2614
449.1182
448.9485
448.7486
448.5139
448.2392
447.9184
447.5453
447.1137
446.6193
446.0616
445.4463
444.7863
444.0946
443.3652
442.5693
441.6725
440.6288
439.343
437.5812
434.5856
426.3811
468.0036
448.7104
444.3745
442.9839
442.5459
442.527
442.7267
443.0501
443.4446
443.8781
444.33
444.7864
445.238
445.6836
446.1231
446.5517
446.9635
447.353
447.7155
448.0476
448.3474
448.6138
448.8471
449.0483
449.2191
449.3613
449.4771
449.5682
449.6366
449.6837
449.7108
449.719
449.7095
449.683
449.6392
449.5773
449.4969
449.3967
449.2754
449.1306
448.9592
448.7575
448.5209
448.2441
447.9213
447.5463
447.1131
446.6172
446.058
445.4412
444.7797
444.0871
443.3587
442.5657
441.672
440.6318
439.3501
437.5934
434.6055
426.4104
469.1155
449.4024
444.8764
443.3811
442.8734
442.8024
442.9617
443.2535
443.624
444.04
444.4796
444.928
445.3745
445.814
446.2456
446.6663
447.0705
447.4525
447.8078
448.1329
448.4257
448.6855
448.9124
449.1076
449.2726
449.4094
449.5201
449.6066
449.6707
449.714
449.7376
449.7427
449.7304
449.7015
449.6558
449.5922
449.5101
449.4084
449.2854
449.1389
448.9658
448.7622
448.5237
448.245
447.9203
447.5434
447.1086
446.6114
446.0512
445.4335
444.7711
444.0778
443.3508
442.5608
441.6703
440.6336
439.356
437.6049
434.6253
426.4441
470.1892
450.0896
445.3805
443.7835
443.2091
443.0893
443.2112
443.4742
443.823
444.2231
444.6518
445.093
445.5352
445.97
446.3937
446.8049
447.1992
447.5714
447.9169
448.2324
448.516
448.7669
448.9853
449.1725
449.3301
449.4601
449.5645
449.6453
449.7042
449.7428
449.7623
449.7637
449.7483
449.7168
449.6689
449.6035
449.5197
449.4165
449.292
449.144
448.9692
448.7639
448.5236
448.243
447.9164
447.5377
447.1013
446.6029
446.0419
445.4238
444.7612
444.0683
443.3429
442.5558
441.6685
440.6354
439.3622
437.6167
434.6461
426.4837
471.2191
450.7776
445.8874
444.1913
443.5529
443.3875
443.475
443.7118
444.0408
444.4264
444.8446
445.2785
445.7155
446.1465
446.5643
446.9653
447.3477
447.7077
448.041
448.3446
448.6166
448.8566
449.0648
449.2424
449.3912
449.5131
449.6102
449.6844
449.7373
449.7706
449.7854
449.7829
449.7639
449.7293
449.6791
449.6119
449.5265
449.4216
449.2957
449.1462
448.9699
448.7631
448.5211
448.2388
447.9104
447.5301
447.0924
446.593
446.0314
445.4132
444.7509
444.0589
443.3354
442.5511
441.6669
440.6375
439.3685
437.6288
434.6673
426.5273
472.2074
451.4656
446.3975
444.6048
443.9052
443.6968
443.7525
443.9653
444.276
444.6478
445.0556
445.4813
445.9117
446.3368
446.7489
447.1424
447.5126
447.8579
448.1769
448.4667
448.7255
448.9528
449.1492
449.3159
449.4548
449.5676
449.6566
449.7235
449.77
449.7975
449.8073
449.8005
449.7777
449.74
449.6871
449.6178
449.5307
449.4243
449.2969
449.1461
448.9684
448.7601
448.5166
448.2327
447.9029
447.5212
447.0823
446.5821
446.0202
445.4022
444.7407
444.05
443.3286
442.5471
441.666
440.64
439.3754
437.6414
434.6895
426.5733
473.1536
452.1519
446.911
445.0242
444.2658
444.0168
444.0429
444.2333
444.5269
444.8852
445.2821
445.6986
446.1206
446.5374
446.9409
447.325
447.6853
448.0184
448.322
448.5957
448.8396
449.0531
449.2367
449.3916
449.5196
449.6228
449.703
449.7621
449.8018
449.8234
449.828
449.8167
449.7901
449.749
449.6935
449.622
449.533
449.425
449.2962
449.144
448.965
448.7554
448.5105
448.2253
447.8941
447.5113
447.0715
446.5708
446.0089
445.3914
444.7311
444.042
443.3229
442.544
441.6659
440.6434
439.383
437.6547
434.7125
426.6211
474.0551
452.8343
447.4278
445.4495
444.6342
444.3468
444.3451
444.5147
444.7919
445.1368
445.5222
445.9282
446.34
446.7464
447.139
447.5114
447.8591
448.179
448.4692
448.7287
448.9573
449.1556
449.3253
449.4676
449.5844
449.6775
449.7487
449.7999
449.8326
449.8482
449.8476
449.8318
449.8014
449.757
449.6986
449.6248
449.5339
449.4244
449.2941
449.1405
448.9602
448.7493
448.5031
448.2167
447.8844
447.5007
447.0602
446.5592
445.9975
445.3809
444.722
444.0349
443.318
442.5418
441.6667
440.6476
439.3913
437.6688
434.7369
426.6725
475.026
453.5101
447.9467
445.8798
445.0099
444.6859
444.6581
444.8078
445.0691
445.4006
445.7738
446.1682
446.5684
446.9626
447.3423
447.7011
448.0345
448.3395
448.6146
448.859
449.073
449.2574
449.4136
449.5431
449.6482
449.7309
449.793
449.8362
449.862
449.8716
449.8659
449.8457
449.8116
449.764
449.7028
449.6268
449.534
449.4228
449.291
449.1359
448.9543
448.7421
448.4947
448.2072
447.8739
447.4894
447.0484
446.5474
445.9862
445.3708
444.7137
444.0289
443.3145
442.5409
441.6686
440.6528
439.4006
437.684
434.7629
426.7296
475.8707
454.1861
448.4687
446.3126
445.3916
445.0331
444.9806
445.1114
445.3572
445.675
446.0354
446.4171
446.8042
447.1848
447.55
447.8935
448.211
448.4998
448.7587
448.9872
449.1858
449.3558
449.4985
449.6158
449.7097
449.7822
449.8352
449.8705
449.8896
449.8934
449.8828
449.8585
449.8209
449.7701
449.7062
449.628
449.5335
449.4206
449.2873
449.1308
448.9479
448.7344
448.4859
448.1973
447.8632
447.478
447.0368
446.5359
445.9754
445.3614
444.7064
444.0242
443.3124
442.5412
441.6717
440.6591
439.4108
437.7
434.7903
426.7945
476.6885
454.8622
448.9898
446.7464
445.778
445.3871
445.3111
445.4237
445.6541
445.958
446.3048
446.6727
447.0454
447.4108
447.7601
448.087
448.3873
448.6589
448.9005
449.1124
449.2952
449.4504
449.5795
449.6846
449.7675
449.8303
449.8747
449.9025
449.9151
449.9134
449.8983
449.8701
449.8292
449.7756
449.7091
449.6288
449.5325
449.4181
449.2834
449.1256
448.9414
448.7267
448.4771
448.1875
447.8526
447.467
447.0255
446.5249
445.9653
445.3528
444.7001
444.0206
443.3114
442.5427
441.6758
440.6662
439.4218
437.7166
434.8184
426.8671
477.479
455.5338
449.5102
447.1815
446.1675
445.7462
445.6479
445.7429
445.958
446.2474
446.5798
446.9327
447.2897
447.6386
447.9705
448.2794
448.5616
448.8149
449.0388
449.2335
449.4003
449.5406
449.6563
449.7492
449.8215
449.8748
449.9111
449.9319
449.9384
449.9316
449.9122
449.8805
449.8366
449.7804
449.7117
449.6294
449.5314
449.4156
449.2796
449.1206
448.9352
448.7195
448.4689
448.1784
447.8429
447.4568
447.0152
446.515
445.9562
445.3454
444.695
444.0182
443.3117
442.5453
441.681
440.6742
439.4332
437.7332
434.8464
426.9456
478.2461
456.2
450.0315
447.6171
446.558
446.1087
445.9893
446.0669
446.2665
446.5409
446.8578
447.1946
447.5344
447.8653
448.1786
448.4686
448.7317
448.9662
449.1719
449.3494
449.5002
449.6258
449.7283
449.8095
449.8715
449.9159
449.9445
449.9586
449.9595
449.948
449.9247
449.8897
449.8432
449.7847
449.714
449.6299
449.5304
449.4132
449.2761
449.116
448.9297
448.713
448.4615
448.1703
447.8342
447.4478
447.0062
446.5062
445.9485
445.3392
444.6912
444.0171
443.3129
442.5487
441.6867
440.6825
439.4447
437.7494
434.8731
427.0252
478.9898
456.8579
450.5511
448.0518
446.9501
446.4737
446.3336
446.3939
446.5775
446.8359
447.1363
447.4556
447.777
448.0886
448.3822
448.6524
448.8958
449.1113
449.2988
449.4592
449.5942
449.7056
449.7953
449.8654
449.9175
449.9535
449.9749
449.9829
449.9785
449.9627
449.9358
449.8979
449.849
449.7886
449.7161
449.6303
449.5294
449.4111
449.2729
449.112
448.9248
448.7073
448.4552
448.1635
447.8269
447.4403
446.9987
446.4991
445.9423
445.3346
444.6889
444.0175
443.3156
442.5533
441.6934
440.6915
439.4565
437.7652
434.8979
427.1004
479.708
457.5068
451.069
448.4845
447.3429
446.8403
446.6794
446.722
446.8888
447.1302
447.4129
447.7133
448.0151
448.3064
448.5794
448.8291
449.0526
449.249
449.4185
449.5623
449.682
449.7797
449.8573
449.9168
449.9598
449.9879
450.0026
450.0049
449.9958
449.9759
449.9456
449.9052
449.8542
449.792
449.718
449.6309
449.5288
449.4094
449.2704
449.1087
448.9208
448.7028
448.4502
448.158
447.8211
447.4343
446.993
446.4941
445.9382
445.3321
444.6883
444.0193
443.3196
442.559
441.7009
440.7012
439.4686
437.7806
434.9204
427.1653
480.4038
458.1454
451.583
448.9149
447.7346
447.2073
447.0255
447.0494
447.1984
447.4217
447.6852
447.9656
448.2466
448.5167
448.7685
448.9974
449.201
449.3786
449.5306
449.6583
449.7635
449.8482
449.9144
449.9639
449.9984
450.0193
450.0279
450.025
450.0115
449.9879
449.9546
449.9117
449.8588
449.7952
449.7199
449.6316
449.5284
449.4082
449.2685
449.1061
448.9177
448.6992
448.4461
448.1537
447.8167
447.43
446.9889
446.4906
445.9357
445.331
444.6892
444.0225
443.3247
442.5657
441.7094
440.7115
439.4811
437.7957
434.9404
427.2162
481.0749
458.7706
452.0921
449.3425
448.1243
447.573
447.3701
447.3745
447.5043
447.7081
447.9513
448.2106
448.4698
448.7181
448.9484
449.1565
449.3404
449.4996
449.6347
449.7471
449.8386
449.9112
449.9668
450.0071
450.0338
450.048
450.0509
450.0434
450.0259
449.999
449.9629
449.9176
449.863
449.7981
449.7217
449.6324
449.5284
449.4075
449.2671
449.1041
448.9153
448.6964
448.4432
448.1508
447.8139
447.4273
446.9865
446.4886
445.9347
445.3316
444.6919
444.0274
443.3313
442.5738
441.7191
440.7228
439.4942
437.8108
434.9587
427.2528
481.7259
459.385
452.5963
449.7663
448.5107
447.9356
447.7116
447.6957
447.8052
447.9879
448.2095
448.4466
448.6835
448.9096
449.1183
449.3058
449.4705
449.6119
449.731
449.829
449.9077
449.969
450.0148
450.0467
450.0661
450.0743
450.0721
450.0602
450.0391
450.0092
449.9706
449.9232
449.8669
449.8008
449.7236
449.6335
449.5287
449.4072
449.2662
449.1029
448.9137
448.6947
448.4415
448.149
447.8123
447.4261
446.9858
446.4887
445.9357
445.3339
444.696
444.0336
443.3394
442.5831
441.7298
440.735
439.5079
437.8263
434.9763
427.2786
482.3487
459.9844
453.0941
450.1876
448.8925
448.293
448.0479
448.0112
448.0995
448.2602
448.4592
448.6733
448.8872
449.0908
449.278
449.4453
449.5912
449.7158
449.8196
449.9041
449.971
450.022
450.0587
450.0829
450.0957
450.0983
450.0914
450.0756
450.0513
450.0187
449.9778
449.9286
449.8707
449.8035
449.7255
449.6348
449.5294
449.4074
449.266
449.1024
448.913
448.694
448.4407
448.1484
447.812
447.4262
446.9864
446.49
445.9381
445.3378
444.7018
444.0415
443.3488
442.5937
441.7415
440.7482
439.5226
437.8426
434.9942
427.2977
482.8772
460.5673
453.5845
450.6055
449.2688
448.6442
448.3774
448.319
448.385
448.5229
448.6985
448.8891
449.0799
449.2612
449.4272
449.5749
449.703
449.8115
449.9011
449.9731
450.029
450.0705
450.099
450.1161
450.123
450.1205
450.1093
450.0899
450.0627
450.0276
449.9847
449.9338
449.8745
449.8063
449.7276
449.6363
449.5305
449.4081
449.2664
449.1026
448.9132
448.6942
448.4411
448.1491
447.813
447.4277
446.9885
446.4929
445.942
445.3431
444.7089
444.0506
443.3595
442.6055
441.7546
440.7626
439.5386
437.8602
435.0134
427.3157
483.4733
461.1382
454.0683
451.0179
449.6382
448.9875
448.6985
448.6176
448.6604
448.7746
448.9263
449.0933
449.2611
449.4205
449.5661
449.6951
449.8063
449.8997
449.976
450.0364
450.0822
450.115
450.1362
450.1468
450.1482
450.141
450.1259
450.1033
450.0734
450.0361
449.9913
449.9389
449.8784
449.8092
449.7299
449.6382
449.532
449.4093
449.2674
449.1036
448.9142
448.6953
448.4425
448.1508
447.8152
447.4304
446.9919
446.4971
445.9472
445.3497
444.7172
444.0608
443.3712
442.6182
441.7686
440.778
439.5555
437.8789
435.034
427.3352
484.1585
461.6954
454.544
451.4234
449.9992
449.3218
449.01
448.9058
448.9249
449.015
449.1426
449.2861
449.4312
449.5694
449.6954
449.8065
449.9017
449.981
450.0449
450.0946
450.1313
450.1561
450.1704
450.1753
450.1716
450.1602
450.1416
450.116
450.0835
450.0442
449.9977
449.9439
449.8823
449.8123
449.7324
449.6403
449.5339
449.4109
449.269
449.1052
448.916
448.6974
448.4449
448.1537
447.8186
447.4344
446.9966
446.5026
445.9538
445.3575
444.7267
444.072
443.3839
442.632
441.7836
440.7944
439.5735
437.8986
435.0558
427.3584
484.7557
462.2439
455.0125
451.8216
450.3516
449.6465
449.3113
449.1832
449.1779
449.2437
449.3473
449.4675
449.5906
449.7083
449.8156
449.9098
449.99
450.056
450.1085
450.1483
450.1765
450.1941
450.2022
450.2017
450.1935
450.1782
450.1562
450.1279
450.0931
450.0519
450.0039
449.9489
449.8863
449.8156
449.7352
449.6427
449.536
449.413
449.2711
449.1075
448.9185
448.7003
448.4483
448.1576
447.8231
447.4396
447.0025
446.5093
445.9615
445.3664
444.7371
444.0841
443.3973
442.6465
441.7992
440.8113
439.592
437.919
435.0785
427.3842
485.347
462.7791
455.4718
452.2118
450.6947
449.9609
449.6015
449.4489
449.4191
449.4604
449.5403
449.6378
449.7397
449.8378
449.9273
450.0056
450.0717
450.1255
450.1674
450.198
450.2184
450.2293
450.2317
450.2264
450.214
450.1951
450.1701
450.1392
450.1023
450.0594
450.01
449.9538
449.8903
449.8189
449.7381
449.6453
449.5384
449.4154
449.2736
449.1102
448.9216
448.7038
448.4524
448.1623
447.8285
447.4457
447.0094
446.517
445.9702
445.3763
444.7484
444.0971
443.4115
442.6616
441.8155
440.8289
439.6111
437.9399
435.1018
427.4116
485.9219
463.3025
455.9224
452.5934
451.0277
450.2643
449.8801
449.7027
449.6482
449.6654
449.722
449.7976
449.8791
449.9585
450.0312
450.0947
450.1477
450.19
450.222
450.2442
450.2574
450.2622
450.2593
450.2495
450.2333
450.2112
450.1834
450.1501
450.1112
450.0666
450.0159
449.9587
449.8944
449.8224
449.7411
449.6481
449.5411
449.4181
449.2766
449.1135
448.9254
448.7081
448.4572
448.1678
447.8347
447.4527
447.0172
446.5257
445.9798
445.3871
444.7606
444.1107
443.4263
442.6774
441.8324
440.8471
439.6307
437.9613
435.1255
427.4391
486.4791
463.8129
456.3624
452.9653
451.35
450.5561
450.1468
449.9445
449.8655
449.859
449.893
449.9474
450.0094
450.0713
450.1282
450.1776
450.2184
450.2501
450.2729
450.2873
450.2937
450.2928
450.2851
450.2712
450.2515
450.2264
450.196
450.1604
450.1197
450.0736
450.0216
449.9635
449.8985
449.826
449.7443
449.6511
449.5441
449.4212
449.2799
449.1172
448.9296
448.7129
448.4627
448.174
447.8417
447.4604
447.0258
446.5351
445.9902
445.3985
444.7733
444.1249
443.4417
442.6937
441.8497
440.8656
439.6507
437.9831
435.1495
427.466
486.9388
464.3106
456.7933
453.3282
451.6623
450.8359
450.4012
450.1743
450.0712
450.0415
450.0538
450.0879
450.1315
450.1767
450.2188
450.2552
450.2845
450.3062
450.3205
450.3275
450.3277
450.3215
450.3093
450.2916
450.2686
450.2407
450.2079
450.1704
450.1279
450.0804
450.0273
449.9683
449.9027
449.8297
449.7477
449.6543
449.5472
449.4245
449.2836
449.1213
448.9342
448.7182
448.4687
448.1808
447.8493
447.4689
447.0351
446.5454
446.0013
445.4108
444.7868
444.1397
443.4576
442.7105
441.8675
440.8846
439.6711
438.0051
435.1737
427.4925
487.4767
464.7931
457.211
453.6812
451.9647
451.1033
450.6427
450.3921
450.2657
450.2137
450.205
450.22
450.2461
450.2756
450.3038
450.3279
450.3465
450.3589
450.3651
450.3652
450.3595
450.3484
450.332
450.3107
450.2848
450.2543
450.2193
450.1799
450.1359
450.087
450.0329
449.9731
449.9069
449.8336
449.7512
449.6577
449.5507
449.4282
449.2876
449.1259
448.9394
448.7241
448.4754
448.1883
447.8576
447.4781
447.0451
446.5562
446.0131
445.4236
444.8008
444.1549
443.4739
442.7276
441.8856
440.9039
439.6917
438.0275
435.1982
427.5193
488.0144
465.2631
457.6179
454.0248
452.2571
451.3589
450.8722
450.5984
450.4494
450.3761
450.3475
450.3442
450.3538
450.3686
450.3837
450.3963
450.4048
450.4085
450.4072
450.4008
450.3895
450.3736
450.3533
450.3287
450.2999
450.267
450.2301
450.189
450.1435
450.0934
450.0384
449.9778
449.9112
449.8375
449.7549
449.6612
449.5543
449.432
449.2919
449.1308
448.945
448.7304
448.4824
448.1962
447.8665
447.4878
447.0557
446.5677
446.0255
445.4369
444.8152
444.1706
443.4906
442.7451
441.9041
440.9235
439.7127
438.0501
435.2231
427.5467
488.5457
465.7228
458.0149
454.3587
452.5389
451.6029
451.09
450.7938
450.6232
450.5294
450.4819
450.4613
450.4554
450.4562
450.459
450.4608
450.4598
450.4553
450.4468
450.4343
450.4178
450.3974
450.3733
450.3455
450.3141
450.2791
450.2403
450.1976
450.1508
450.0997
450.0437
449.9826
449.9155
449.8414
449.7586
449.6648
449.558
449.4362
449.2965
449.136
448.9509
448.7371
448.49
448.2047
447.8758
447.4981
447.0669
446.5797
446.0383
445.4507
444.8301
444.1866
443.5076
442.7629
441.9228
440.9434
439.734
438.0731
435.2484
427.5748
489.0673
466.1722
458.4018
454.6828
452.8104
451.8358
451.297
450.9792
450.7878
450.6745
450.609
450.5721
450.5514
450.5391
450.5303
450.5218
450.5118
450.4995
450.4842
450.4659
450.4444
450.4198
450.3921
450.3614
450.3275
450.2904
450.2499
450.2058
450.1578
450.1057
450.049
449.9873
449.9198
449.8454
449.7624
449.6685
449.5619
449.4404
449.3013
449.1415
448.9571
448.7441
448.4978
448.2134
447.8854
447.5086
447.0783
446.592
446.0515
445.4648
444.8452
444.2028
443.5248
442.7809
441.9417
440.9634
439.7554
438.0962
435.2738
427.6034
489.5779
466.6096
458.7781
454.9973
453.072
452.0582
451.4937
451.155
450.9438
450.812
450.7295
450.6771
450.6425
450.6178
450.5978
450.5796
450.5611
450.5413
450.5196
450.4957
450.4695
450.4408
450.4098
450.3762
450.34
450.301
450.2589
450.2136
450.1646
450.1116
450.0542
449.992
449.9241
449.8495
449.7662
449.6723
449.566
449.4449
449.3064
449.1472
448.9635
448.7513
448.506
448.2225
447.8954
447.5196
447.0902
446.6047
446.065
445.4792
444.8605
444.2193
443.5422
442.7991
441.9608
440.9836
439.7769
438.1194
435.2993
427.632
490.0764
467.0341
459.143
455.3019
453.3247
452.2723
451.6805
451.3212
451.0916
450.9425
450.8439
450.7768
450.729
450.6925
450.662
450.6345
450.6079
450.581
450.5532
450.5239
450.4931
450.4607
450.4264
450.3901
450.3517
450.311
450.2675
450.2209
450.171
450.1173
450.0593
449.9966
449.9284
449.8535
449.77
449.6763
449.5702
449.4496
449.3116
449.1531
448.9702
448.7588
448.5144
448.2318
447.9057
447.5308
447.1022
446.6176
446.0787
445.4937
444.876
444.2358
443.5595
442.8172
441.9799
441.0038
439.7984
438.1425
435.3246
427.6603
490.5596
467.4446
459.4962
455.5972
453.5692
452.4784
451.8587
451.4792
451.2322
451.0665
450.9527
450.8717
450.8114
450.7636
450.7232
450.6868
450.6524
450.6187
450.5849
450.5506
450.5154
450.4793
450.4419
450.4031
450.3627
450.3202
450.2754
450.2278
450.1771
450.1228
450.0643
450.0012
449.9326
449.8575
449.774
449.6803
449.5746
449.4544
449.3171
449.1592
448.9771
448.7665
448.523
448.2414
447.9162
447.5422
447.1146
446.6307
446.0926
445.5084
444.8916
444.2524
443.577
442.8354
441.999
441.024
439.8199
438.1657
435.35
427.6884
491.0227
467.8399
459.8374
455.8831
453.8059
452.6768
452.0289
451.6294
451.3659
451.1846
451.0564
450.9622
450.8899
450.8314
450.7814
450.7365
450.6947
450.6544
450.6149
450.5757
450.5364
450.4967
450.4564
450.4152
450.3728
450.3288
450.2828
450.2343
450.1829
450.128
450.0692
450.0057
449.9368
449.8616
449.7781
449.6846
449.5791
449.4594
449.3227
449.1655
448.9842
448.7745
448.5319
448.2512
447.927
447.5539
447.1271
446.6441
446.1067
445.5232
444.9073
444.269
443.5945
442.8537
442.0182
441.0443
439.8416
438.189
435.3755
427.7159
491.4646
468.22
460.1664
456.1601
454.0352
452.8681
452.1921
451.773
451.4935
451.2975
451.1555
451.0488
450.965
450.8962
450.837
450.784
450.7349
450.6883
450.6434
450.5995
450.5561
450.5131
450.47
450.4265
450.3822
450.3368
450.2896
450.2403
450.1883
450.133
450.0738
450.01
449.941
449.8657
449.7823
449.689
449.5839
449.4646
449.3284
449.1719
448.9914
448.7826
448.5409
448.2611
447.9379
447.5657
447.1398
446.6575
446.1208
445.5381
444.923
444.2856
443.612
442.872
442.0374
441.0646
439.8633
438.2124
435.401
427.7429
491.9684
468.586
460.4839
456.4285
454.2578
453.0538
452.35
451.9103
451.615
451.4052
451.2502
451.1316
451.0369
450.9582
450.8902
450.8292
450.7732
450.7205
450.6703
450.6218
450.5746
450.5283
450.4826
450.4369
450.3909
450.3441
450.296
450.2459
450.1934
450.1377
450.0782
450.0143
449.9452
449.8699
449.7865
449.6934
449.5887