/*--------------------------------*- C++ -*----------------------------------*\
| =========                 |                                                 |
| \\      /  F ield         | OpenFOAM: The Open Source CFD Toolbox           |
|  \\    /   O peration     | Version:  2312                                  |
|   \\  /    A nd           | Website:  www.openfoam.com                      |
|    \\/     M anipulation  |                                                 |
\*---------------------------------------------------------------------------*/
FoamFile
{
    version     2.0;
    format      ascii;
    arch        "LSB;label=32;scalar=64";
    class       volVectorField;
    location    "4650";
    object      U;
}
// * * * * * * * * * * * * * * * * * * * * * * * * * * * * * * * * * * * * * //

dimensions      [0 1 -1 0 0 0 0];

internalField   nonuniform List<vector> 
12000
(
(-0.02673803 0.062877 0)
(-0.06397767 0.06813216 0)
(-0.1063081 0.07299618 0)
(-0.1523583 0.0616898 0)
(-0.1914874 0.04820293 0)
(-0.2290032 0.06306669 0)
(-0.2713001 0.09585871 0)
(-0.320921 0.09847472 0)
(-0.3634337 0.04766317 0)
(-0.3890006 0.01557879 0)
(-0.4126209 0.05994758 0)
(-0.4526282 0.104471 0)
(-0.4947338 0.06911 0)
(-0.5193308 0.003071905 0)
(-0.5314035 0.003321651 0)
(-0.5522942 0.06189315 0)
(-0.5849066 0.07651603 0)
(-0.6101725 0.02247291 0)
(-0.619864 -0.01027077 0)
(-0.6297212 0.0253022 0)
(-0.6503537 0.05489568 0)
(-0.6699126 0.02675603 0)
(-0.6784718 -0.002339132 0)
(-0.684961 0.01234685 0)
(-0.6967827 0.02699698 0)
(-0.7070728 0.01164136 0)
(-0.7117799 0.002100033 0)
(-0.716986 0.01211254 0)
(-0.7236924 0.01053494 0)
(-0.7265343 -0.001879785 0)
(-0.7269777 -0.0005926035 0)
(-0.7288292 0.004667039 0)
(-0.7304923 0.006042217 0)
(-0.731525 0.0005609923 0)
(-0.7291527 -0.01405457 0)
(-0.7219117 -0.02863288 0)
(-0.7128149 -0.02033748 0)
(-0.7081175 0.01244989 0)
(-0.7070264 0.01896785 0)
(-0.7030462 -0.0159022 0)
(-0.6881226 -0.06511657 0)
(-0.6640675 -0.06550415 0)
(-0.6494582 0.004911744 0)
(-0.6468716 0.0443724 0)
(-0.6415773 -0.01453861 0)
(-0.6173256 -0.1032409 0)
(-0.5788782 -0.08199218 0)
(-0.5583387 0.01994532 0)
(-0.5528229 0.0366983 0)
(-0.5348225 -0.06919406 0)
(-0.488162 -0.1269986 0)
(-0.4482603 -0.02979592 0)
(-0.4290198 -0.001727734 0)
(-0.3932314 -0.08472707 0)
(-0.3425687 -0.1189732 0)
(-0.2917272 -0.07622289 0)
(-0.2416176 -0.07033503 0)
(-0.1834983 -0.1019728 0)
(-0.1034558 -0.1211069 0)
(-0.04086162 -0.1064312 0)
(-0.03041706 0.1841454 0)
(-0.06003628 0.1724527 0)
(-0.1053746 0.1796106 0)
(-0.1418606 0.1822798 0)
(-0.1853686 0.1735511 0)
(-0.2256713 0.1662397 0)
(-0.2598492 0.166097 0)
(-0.2841161 0.1667999 0)
(-0.3121835 0.1488005 0)
(-0.3512527 0.1257618 0)
(-0.384166 0.1257326 0)
(-0.4031315 0.1298358 0)
(-0.4164512 0.1213254 0)
(-0.4398506 0.1022206 0)
(-0.4702957 0.09233067 0)
(-0.4915963 0.09169555 0)
(-0.4998171 0.08908764 0)
(-0.510416 0.07732508 0)
(-0.5308374 0.06653646 0)
(-0.5499019 0.06269971 0)
(-0.5577038 0.06047707 0)
(-0.5629381 0.05372545 0)
(-0.5745605 0.04556874 0)
(-0.5868247 0.04057623 0)
(-0.5928503 0.0367507 0)
(-0.5970943 0.03153854 0)
(-0.6037857 0.02640097 0)
(-0.6090381 0.02228471 0)
(-0.6110275 0.01746217 0)
(-0.6133754 0.0117171 0)
(-0.6161795 0.00709109 0)
(-0.6166402 0.00545593 0)
(-0.6152922 0.0006923485 0)
(-0.6120331 -0.005193103 0)
(-0.6094349 -0.01205593 0)
(-0.608451 -0.01835495 0)
(-0.6073656 -0.02220169 0)
(-0.6008791 -0.02458406 0)
(-0.587771 -0.02893485 0)
(-0.5748259 -0.03734255 0)
(-0.5706262 -0.0448554 0)
(-0.5695082 -0.05140508 0)
(-0.5615942 -0.0552344 0)
(-0.5373494 -0.05904396 0)
(-0.5107989 -0.06811343 0)
(-0.5008515 -0.07909713 0)
(-0.4977174 -0.08728239 0)
(-0.4799041 -0.09359154 0)
(-0.4414067 -0.1009768 0)
(-0.4091544 -0.1137371 0)
(-0.3993728 -0.1261513 0)
(-0.381918 -0.1394528 0)
(-0.3423315 -0.1503941 0)
(-0.3047651 -0.1606326 0)
(-0.286017 -0.1754914 0)
(-0.2384095 -0.2162849 0)
(-0.2068406 -0.2342873 0)
(-0.1453437 -0.2857988 0)
(-0.09207103 -0.3081079 0)
(-0.04422248 -0.3189862 0)
(-0.02654284 0.3140255 0)
(-0.05133033 0.2962355 0)
(-0.0912886 0.2927072 0)
(-0.1199663 0.2898016 0)
(-0.1523466 0.281243 0)
(-0.1821647 0.2709547 0)
(-0.210504 0.2605876 0)
(-0.2367722 0.2441308 0)
(-0.2610704 0.230225 0)
(-0.2827672 0.2205962 0)
(-0.3125515 0.2003656 0)
(-0.332435 0.1888896 0)
(-0.3507667 0.175002 0)
(-0.3685037 0.1604168 0)
(-0.386993 0.1484789 0)
(-0.4035223 0.1387418 0)
(-0.4173477 0.1281854 0)
(-0.4303094 0.1163983 0)
(-0.4436508 0.1055271 0)
(-0.4561509 0.09674836 0)
(-0.4666032 0.08830696 0)
(-0.4757698 0.07899003 0)
(-0.484679 0.0698209 0)
(-0.492934 0.06177477 0)
(-0.4998362 0.05407188 0)
(-0.5056638 0.04604671 0)
(-0.5107616 0.03826816 0)
(-0.5148526 0.03098314 0)
(-0.5178119 0.02355559 0)
(-0.5199038 0.01594358 0)
(-0.5217466 0.008404955 0)
(-0.5221569 0.003176946 0)
(-0.5210004 -0.00588401 0)
(-0.5189909 -0.01394712 0)
(-0.5163816 -0.02226939 0)
(-0.5131714 -0.03074189 0)
(-0.5090539 -0.0388614 0)
(-0.5033949 -0.04653232 0)
(-0.4961161 -0.05482173 0)
(-0.4879078 -0.06430626 0)
(-0.4792675 -0.07465538 0)
(-0.4697686 -0.08470207 0)
(-0.4586077 -0.09364976 0)
(-0.4452353 -0.1034324 0)
(-0.4305189 -0.1148345 0)
(-0.4153059 -0.1276168 0)
(-0.3993148 -0.1399103 0)
(-0.381093 -0.1513655 0)
(-0.3603078 -0.1644186 0)
(-0.3386123 -0.1790951 0)
(-0.315454 -0.1930889 0)
(-0.2958756 -0.201801 0)
(-0.2640321 -0.2231582 0)
(-0.2408262 -0.2435082 0)
(-0.2004126 -0.2871247 0)
(-0.171602 -0.3135548 0)
(-0.1351235 -0.3480432 0)
(-0.1032828 -0.3902286 0)
(-0.06123153 -0.442124 0)
(-0.02524683 -0.4632275 0)
(-0.01960107 0.4081046 0)
(-0.04291072 0.3808738 0)
(-0.0727036 0.3727432 0)
(-0.09714443 0.3637456 0)
(-0.122161 0.3514336 0)
(-0.1450147 0.3370542 0)
(-0.1663996 0.3224744 0)
(-0.1867382 0.3074247 0)
(-0.2081505 0.2915548 0)
(-0.2246932 0.2791251 0)
(-0.2427614 0.2647597 0)
(-0.2614035 0.2461855 0)
(-0.2803229 0.2251017 0)
(-0.2967128 0.2077687 0)
(-0.3121768 0.1932271 0)
(-0.3267393 0.1795427 0)
(-0.340428 0.1660003 0)
(-0.3533419 0.1526613 0)
(-0.3654141 0.139873 0)
(-0.3762976 0.1278926 0)
(-0.3860666 0.1163407 0)
(-0.3948524 0.10502 0)
(-0.4028786 0.09392524 0)
(-0.4100716 0.08314195 0)
(-0.4162987 0.07259652 0)
(-0.4216061 0.06218376 0)
(-0.4260666 0.05190139 0)
(-0.4296229 0.04174472 0)
(-0.4320909 0.03164051 0)
(-0.4341712 0.02147789 0)
(-0.4353445 0.01362638 0)
(-0.4353744 0.002107419 0)
(-0.434243 -0.008609597 0)
(-0.4325145 -0.01915098 0)
(-0.4298647 -0.02977827 0)
(-0.4264362 -0.0405371 0)
(-0.4221446 -0.0515777 0)
(-0.4168162 -0.06283746 0)
(-0.4103793 -0.07444386 0)
(-0.402934 -0.08649817 0)
(-0.3946352 -0.09900034 0)
(-0.3854596 -0.1119286 0)
(-0.3751893 -0.1253096 0)
(-0.3634209 -0.1393556 0)
(-0.3508762 -0.1538686 0)
(-0.3374001 -0.169561 0)
(-0.3225945 -0.1864103 0)
(-0.3066508 -0.2044306 0)
(-0.2893261 -0.2231048 0)
(-0.2695433 -0.2396776 0)
(-0.2540776 -0.252336 0)
(-0.2269041 -0.2828827 0)
(-0.2031148 -0.3110495 0)
(-0.1757271 -0.3396212 0)
(-0.1503852 -0.3676359 0)
(-0.1255933 -0.3982381 0)
(-0.09875089 -0.4350314 0)
(-0.07187074 -0.4803784 0)
(-0.04273754 -0.5323937 0)
(-0.01689064 -0.5592865 0)
(-0.01433069 0.4874612 0)
(-0.03445415 0.4564662 0)
(-0.05767713 0.4440018 0)
(-0.07810721 0.4311143 0)
(-0.09856889 0.4156176 0)
(-0.1177867 0.3981094 0)
(-0.1363516 0.3796015 0)
(-0.1541344 0.3602201 0)
(-0.1705602 0.3404308 0)
(-0.1866001 0.3200055 0)
(-0.2006646 0.3033957 0)
(-0.2146482 0.2884073 0)
(-0.2262471 0.2730456 0)
(-0.2412212 0.2517123 0)
(-0.254858 0.2323773 0)
(-0.2666322 0.2179901 0)
(-0.2784819 0.2028175 0)
(-0.2886666 0.187984 0)
(-0.2992898 0.1706712 0)
(-0.3083643 0.1553993 0)
(-0.3168207 0.1409816 0)
(-0.3243936 0.1270336 0)
(-0.3311853 0.1134301 0)
(-0.3371872 0.1001228 0)
(-0.3423941 0.08705216 0)
(-0.3468162 0.07415619 0)
(-0.3504727 0.06139487 0)
(-0.3533261 0.04872932 0)
(-0.3555282 0.03609846 0)
(-0.3568508 0.02598738 0)
(-0.3573666 0.01252029 0)
(-0.356882 -0.0003526739 0)
(-0.355949 -0.0132231 0)
(-0.3542094 -0.02608087 0)
(-0.3515749 -0.03907104 0)
(-0.3484293 -0.05215644 0)
(-0.3446339 -0.06566428 0)
(-0.3398297 -0.07954421 0)
(-0.3341803 -0.0937856 0)
(-0.3276791 -0.1084703 0)
(-0.3203403 -0.1236595 0)
(-0.3121338 -0.139402 0)
(-0.303262 -0.1557682 0)
(-0.2926901 -0.1728775 0)
(-0.2827645 -0.187545 0)
(-0.2700862 -0.2073632 0)
(-0.2578999 -0.2271127 0)
(-0.2435062 -0.2466972 0)
(-0.2309981 -0.2640261 0)
(-0.2152379 -0.2863158 0)
(-0.1960895 -0.3149786 0)
(-0.1769469 -0.3430043 0)
(-0.1583168 -0.3699043 0)
(-0.1391637 -0.3981536 0)
(-0.1192273 -0.4293886 0)
(-0.09832904 -0.4642521 0)
(-0.07660124 -0.5036598 0)
(-0.0551715 -0.5491297 0)
(-0.03264345 -0.6032156 0)
(-0.01225831 -0.6336505 0)
(-0.01101273 0.548868 0)
(-0.02766635 0.5148212 0)
(-0.04545077 0.4984493 0)
(-0.06152676 0.4826528 0)
(-0.07743255 0.4649583 0)
(-0.09250588 0.4456532 0)
(-0.1071483 0.4254454 0)
(-0.1212527 0.4047361 0)
(-0.1348263 0.3839152 0)
(-0.148204 0.3629239 0)
(-0.1609039 0.3422268 0)
(-0.172407 0.322391 0)
(-0.1839552 0.303872 0)
(-0.1926993 0.2873341 0)
(-0.2047199 0.2668021 0)
(-0.2146648 0.2476447 0)
(-0.2240375 0.2296742 0)
(-0.2324784 0.212216 0)
(-0.2404718 0.1949839 0)
(-0.2480553 0.1781322 0)
(-0.2549979 0.1617641 0)
(-0.2612745 0.145795 0)
(-0.2668856 0.1301722 0)
(-0.2718306 0.114848 0)
(-0.2761112 0.09977935 0)
(-0.2797327 0.08492537 0)
(-0.2827041 0.07025231 0)
(-0.2850225 0.05572953 0)
(-0.2867905 0.0413137 0)
(-0.2876303 0.02703057 0)
(-0.2875623 0.01264344 0)
(-0.287316 -0.001859047 0)
(-0.2866056 -0.01667874 0)
(-0.2851492 -0.03171949 0)
(-0.282866 -0.04701368 0)
(-0.2802536 -0.06014612 0)
(-0.2765975 -0.07658925 0)
(-0.2724687 -0.09290192 0)
(-0.2675913 -0.1093886 0)
(-0.2620389 -0.1262329 0)
(-0.2557908 -0.1435462 0)
(-0.248844 -0.1614119 0)
(-0.2411934 -0.1799105 0)
(-0.2329259 -0.1990321 0)
(-0.2237355 -0.2193069 0)
(-0.2133862 -0.2405838 0)
(-0.2029038 -0.26114 0)
(-0.1929823 -0.2816271 0)
(-0.1792265 -0.3073604 0)
(-0.1654788 -0.3344965 0)
(-0.1510805 -0.3619021 0)
(-0.1367785 -0.3898179 0)
(-0.1219077 -0.4189859 0)
(-0.106289 -0.450045 0)
(-0.09006475 -0.4832439 0)
(-0.07347705 -0.5191122 0)
(-0.05673816 -0.5586612 0)
(-0.04030122 -0.6035113 0)
(-0.0237661 -0.6550991 0)
(-0.008569442 -0.6857939 0)
(-0.008596397 0.5982148 0)
(-0.02208474 0.5607435 0)
(-0.03575867 0.5409952 0)
(-0.04827938 0.5229703 0)
(-0.06055302 0.5036401 0)
(-0.07224835 0.4829886 0)
(-0.08364178 0.4614977 0)
(-0.09467814 0.4395597 0)
(-0.1053887 0.4174971 0)
(-0.1158196 0.3954945 0)
(-0.1259553 0.3737826 0)
(-0.1356914 0.3523568 0)
(-0.1447502 0.3312578 0)
(-0.1539485 0.3112699 0)
(-0.1603785 0.2936021 0)
(-0.1693251 0.2732835 0)
(-0.1766419 0.2533456 0)
(-0.1837612 0.2340546 0)
(-0.1902936 0.2151257 0)
(-0.1963473 0.1966304 0)
(-0.2018809 0.1785444 0)
(-0.206884 0.1608324 0)
(-0.2113497 0.1434562 0)
(-0.215275 0.126377 0)
(-0.2186592 0.1095555 0)
(-0.2215032 0.09295168 0)
(-0.2238085 0.07652522 0)
(-0.225573 0.06023232 0)
(-0.2268034 0.04402247 0)
(-0.2274852 0.02787801 0)
(-0.227528 0.01160737 0)
(-0.2273059 -0.002624926 0)
(-0.2267096 -0.01953318 0)
(-0.2255176 -0.03630453 0)
(-0.2239157 -0.05307502 0)
(-0.2215434 -0.07002258 0)
(-0.2184909 -0.08740955 0)
(-0.215133 -0.1051355 0)
(-0.2112576 -0.123273 0)
(-0.2068653 -0.1418797 0)
(-0.2019303 -0.1610162 0)
(-0.1964375 -0.1807303 0)
(-0.1903513 -0.2010506 0)
(-0.1838937 -0.2219945 0)
(-0.1760661 -0.243392 0)
(-0.1691515 -0.2643187 0)
(-0.1603581 -0.2876938 0)
(-0.1501546 -0.3140375 0)
(-0.1397612 -0.3409316 0)
(-0.128971 -0.368374 0)
(-0.1179271 -0.3968626 0)
(-0.1064778 -0.4264099 0)
(-0.09457362 -0.4571496 0)
(-0.0822809 -0.4893279 0)
(-0.06969324 -0.5233071 0)
(-0.05690045 -0.5596321 0)
(-0.04398244 -0.5992016 0)
(-0.03125863 -0.643646 0)
(-0.01846419 -0.6950134 0)
(-0.006557795 -0.726533 0)
(-0.006581675 0.6380651 0)
(-0.01724395 0.5977352 0)
(-0.02754662 0.5747038 0)
(-0.03701134 0.5545033 0)
(-0.04624821 0.5336793 0)
(-0.05510171 0.5119431 0)
(-0.06377053 0.4895702 0)
(-0.07223308 0.4668556 0)
(-0.08050307 0.4440387 0)
(-0.08856632 0.4212798 0)
(-0.09639322 0.398702 0)
(-0.1039611 0.3763726 0)
(-0.1112984 0.354346 0)
(-0.1180583 0.3326121 0)
(-0.125193 0.3115348 0)
(-0.1297435 0.292466 0)
(-0.1362847 0.2715995 0)
(-0.1415423 0.2509492 0)
(-0.1467105 0.2308146 0)
(-0.1514375 0.2110673 0)
(-0.1557694 0.191696 0)
(-0.1596862 0.1726715 0)
(-0.1631833 0.153966 0)
(-0.1662574 0.1355498 0)
(-0.1689076 0.1173909 0)
(-0.1711358 0.09945442 0)
(-0.1729449 0.08170287 0)
(-0.1743384 0.06409515 0)
(-0.1753228 0.04658565 0)
(-0.1759006 0.02912926 0)
(-0.1760926 0.01167165 0)
(-0.1758553 -0.004048853 0)
(-0.1751739 -0.02200067 0)
(-0.1741853 -0.03995696 0)
(-0.1728086 -0.05800734 0)
(-0.1710191 -0.07621487 0)
(-0.1688288 -0.09478684 0)
(-0.166261 -0.1137234 0)
(-0.1632934 -0.133097 0)
(-0.1599182 -0.1529718 0)
(-0.1561208 -0.1734163 0)
(-0.151878 -0.1944973 0)
(-0.1472074 -0.2162719 0)
(-0.1418004 -0.2388556 0)
(-0.1364978 -0.2620199 0)
(-0.1294791 -0.2872314 0)
(-0.1223437 -0.3134979 0)
(-0.1146536 -0.3403552 0)
(-0.1067852 -0.3679332 0)
(-0.09854713 -0.3964071 0)
(-0.08994689 -0.4258354 0)
(-0.08100838 -0.4563011 0)
(-0.07175684 -0.4879376 0)
(-0.06223559 -0.5209417 0)
(-0.05250693 -0.5556034 0)
(-0.04265551 -0.592388 0)
(-0.03277596 -0.6320768 0)
(-0.02307054 -0.6760381 0)
(-0.01356692 -0.7257592 0)
(-0.00471812 -0.7564733 0)
(-0.004897071 0.6680401 0)
(-0.01316781 0.625059 0)
(-0.02074949 0.5992113 0)
(-0.02775984 0.577397 0)
(-0.03453651 0.5556357 0)
(-0.04103561 0.5333119 0)
(-0.04739326 0.5105061 0)
(-0.05361746 0.4873863 0)
(-0.05972194 0.464128 0)
(-0.06569744 0.4408751 0)
(-0.07152915 0.4177332 0)
(-0.07719852 0.3947726 0)
(-0.08269338 0.3720495 0)
(-0.0879941 0.3496254 0)
(-0.09287282 0.3274189 0)
(-0.09811372 0.3057481 0)
(-0.1012827 0.2855826 0)
(-0.1059892 0.2642914 0)
(-0.109695 0.2431333 0)
(-0.1133385 0.2223918 0)
(-0.1166367 0.2019834 0)
(-0.1196237 0.1819032 0)
(-0.122287 0.1621318 0)
(-0.124626 0.1426469 0)
(-0.1266411 0.1234226 0)
(-0.1283355 0.104429 0)
(-0.1297135 0.08563252 0)
(-0.1307803 0.0669959 0)
(-0.1315419 0.04847668 0)
(-0.1320016 0.03002885 0)
(-0.1321862 0.01160277 0)
(-0.1320029 -0.00541362 0)
(-0.1314572 -0.02419721 0)
(-0.130696 -0.04306476 0)
(-0.1296485 -0.06208971 0)
(-0.1283052 -0.08134823 0)
(-0.1266591 -0.1009266 0)
(-0.1247104 -0.1208961 0)
(-0.1224476 -0.1413344 0)
(-0.1198598 -0.1623193 0)
(-0.1169352 -0.1839307 0)
(-0.1136415 -0.2062517 0)
(-0.1101079 -0.2293809 0)
(-0.1058373 -0.2533582 0)
(-0.101722 -0.2780037 0)
(-0.09678956 -0.3038309 0)
(-0.09174643 -0.3305591 0)
(-0.08635315 -0.3582861 0)
(-0.08060822 -0.3869326 0)
(-0.07449586 -0.4164874 0)
(-0.06803936 -0.4469541 0)
(-0.06127238 -0.4783588 0)
(-0.05424235 -0.5107712 0)
(-0.04700751 -0.5443313 0)
(-0.03963344 -0.5792896 0)
(-0.03219342 -0.6160814 0)
(-0.02475861 -0.6554798 0)
(-0.01746348 -0.6988939 0)
(-0.01031439 -0.7480287 0)
(-0.003571786 -0.7790601 0)
(-0.003374818 0.6917975 0)
(-0.009666872 0.6467688 0)
(-0.01532926 0.6183359 0)
(-0.02020109 0.5948449 0)
(-0.02483444 0.5720102 0)
(-0.02927529 0.5489691 0)
(-0.03365041 0.5256481 0)
(-0.03798222 0.5021368 0)
(-0.04228593 0.478546 0)
(-0.04655067 0.454972 0)
(-0.05075583 0.4314899 0)
(-0.05487465 0.408155 0)
(-0.0588807 0.3850047 0)
(-0.06274831 0.3620669 0)
(-0.06646632 0.3393628 0)
(-0.06985037 0.3168367 0)
(-0.07353953 0.2947724 0)
(-0.07560605 0.2738051 0)
(-0.07882324 0.2521929 0)
(-0.08127385 0.2306974 0)
(-0.0836998 0.2095508 0)
(-0.0858801 0.1886983 0)
(-0.08783396 0.1681446 0)
(-0.08955525 0.1478779 0)
(-0.0910449 0.1278809 0)
(-0.09230627 0.1081285 0)
(-0.09334443 0.08858977 0)
(-0.09416547 0.0692274 0)
(-0.09477534 0.04999733 0)
(-0.09517523 0.0308509 0)
(-0.09539589 0.01173608 0)
(-0.09533294 -0.006326588 0)
(-0.09500109 -0.02568765 0)
(-0.09453027 -0.04517179 0)
(-0.09387025 -0.06484635 0)
(-0.09301988 -0.08478233 0)
(-0.09197159 -0.1050571 0)
(-0.09071988 -0.1257461 0)
(-0.08925739 -0.1469264 0)
(-0.08757642 -0.1686738 0)
(-0.08566651 -0.1910611 0)
(-0.08353525 -0.2141539 0)
(-0.08103363 -0.2380064 0)
(-0.078636 -0.2626218 0)
(-0.07533777 -0.2886145 0)
(-0.07209423 -0.3155464 0)
(-0.06840672 -0.3433934 0)
(-0.06441494 -0.3721535 0)
(-0.06009811 -0.4017923 0)
(-0.05546837 -0.4322716 0)
(-0.05055761 -0.46356 0)
(-0.04541116 -0.4956598 0)
(-0.04007962 -0.5286339 0)
(-0.03461535 -0.5626243 0)
(-0.0290729 -0.5978827 0)
(-0.02350741 -0.6348396 0)
(-0.01797706 -0.6742336 0)
(-0.01256874 -0.7173529 0)
(-0.007364645 -0.7655905 0)
(-0.002507154 -0.795941 0)
(-0.002281164 0.7099761 0)
(-0.006711232 0.6615194 0)
(-0.01041692 0.6303863 0)
(-0.01357268 0.6055552 0)
(-0.01653314 0.5821475 0)
(-0.0194034 0.5589577 0)
(-0.02224795 0.535691 0)
(-0.02508127 0.5122939 0)
(-0.02790329 0.488788 0)
(-0.03070308 0.4652162 0)
(-0.03346695 0.4416273 0)
(-0.03619534 0.4180713 0)
(-0.038899 0.3946046 0)
(-0.04156725 0.3712773 0)
(-0.04417263 0.3481241 0)
(-0.0466971 0.3251694 0)
(-0.04897361 0.3023736 0)
(-0.05150416 0.2799907 0)
(-0.05278239 0.2584462 0)
(-0.05489326 0.2366858 0)
(-0.05639344 0.2150723 0)
(-0.05787572 0.1937117 0)
(-0.05917629 0.1726258 0)
(-0.06032195 0.1518195 0)
(-0.0613147 0.1312839 0)
(-0.06216264 0.1110018 0)
(-0.06287616 0.09094787 0)
(-0.06346647 0.07108601 0)
(-0.06393954 0.05137076 0)
(-0.06429239 0.03175177 0)
(-0.06455262 0.01217374 0)
(-0.0646184 -0.006678011 0)
(-0.06450208 -0.02642612 0)
(-0.06430645 -0.04631596 0)
(-0.06399332 -0.06641391 0)
(-0.0635608 -0.08679054 0)
(-0.06300063 -0.107521 0)
(-0.06230538 -0.1286836 0)
(-0.06146657 -0.1503597 0)
(-0.06047459 -0.1726342 0)
(-0.05931902 -0.1955952 0)
(-0.05797578 -0.2193345 0)
(-0.05651662 -0.2439516 0)
(-0.05460421 -0.2695753 0)
(-0.05287934 -0.2961041 0)
(-0.05070974 -0.323736 0)
(-0.04839244 -0.3523647 0)
(-0.04577281 -0.3819471 0)
(-0.04283285 -0.4124277 0)
(-0.03958017 -0.443689 0)
(-0.03606641 -0.4756384 0)
(-0.03235599 -0.5082543 0)
(-0.02850939 -0.5415881 0)
(-0.02457858 -0.575768 0)
(-0.0206113 -0.6110418 0)
(-0.01665152 -0.6478365 0)
(-0.01274145 -0.6868892 0)
(-0.00893329 -0.7295018 0)
(-0.005277059 -0.7771499 0)
(-0.001815387 -0.807632 0)
(-0.002198788 0.722429 0)
(-0.005337849 0.6722072 0)
(-0.007621879 0.6392049 0)
(-0.009478849 0.6133591 0)
(-0.01108321 0.5893554 0)
(-0.0125486 0.5657372 0)
(-0.01397733 0.5421222 0)
(-0.01541343 0.5184191 0)
(-0.01688631 0.4946375 0)
(-0.01840821 0.4708341 0)
(-0.01997939 0.4470857 0)
(-0.02157108 0.4235617 0)
(-0.02317105 0.4002617 0)
(-0.02475379 0.3770533 0)
(-0.02631439 0.3539073 0)
(-0.02783314 0.3308223 0)
(-0.02930298 0.3078372 0)
(-0.03058716 0.2849473 0)
(-0.03197827 0.2623776 0)
(-0.0326775 0.2402924 0)
(-0.03359724 0.2182719 0)
(-0.03435043 0.1965124 0)
(-0.03508088 0.1750444 0)
(-0.03577095 0.1538862 0)
(-0.03641663 0.1330377 0)
(-0.03701127 0.1124865 0)
(-0.03755313 0.09222043 0)
(-0.03803956 0.07218332 0)
(-0.03847403 0.05229388 0)
(-0.03885228 0.03249361 0)
(-0.03920174 0.0127224 0)
(-0.03943461 -0.006624865 0)
(-0.03956264 -0.02656227 0)
(-0.03966591 -0.04666606 0)
(-0.0397122 -0.06699988 0)
(-0.03969989 -0.08763819 0)
(-0.03962134 -0.1086572 0)
(-0.03946936 -0.1301363 0)
(-0.03923594 -0.1521571 0)
(-0.03891258 -0.174803 0)
(-0.03848747 -0.1981567 0)
(-0.0379633 -0.2222956 0)
(-0.03721786 -0.2472891 0)
(-0.03663767 -0.2731519 0)
(-0.03538064 -0.3002117 0)
(-0.03432165 -0.3283046 0)
(-0.03308468 -0.3575517 0)
(-0.03142254 -0.3880705 0)
(-0.02949134 -0.4195046 0)
(-0.02723255 -0.4515968 0)
(-0.02474061 -0.4841786 0)
(-0.02211559 -0.5172204 0)
(-0.01942216 -0.5508263 0)
(-0.01668911 -0.5851662 0)
(-0.01394805 -0.6205176 0)
(-0.01122404 -0.657328 0)
(-0.008543649 -0.6963401 0)
(-0.005936659 -0.7388258 0)
(-0.003460591 -0.7861364 0)
(-0.001155543 -0.8164438 0)
(-0.0008694959 0.7331318 0)
(-0.002592151 0.6794817 0)
(-0.003130468 0.6437306 0)
(-0.00337668 0.6161757 0)
(-0.003375691 0.5914192 0)
(-0.003390768 0.5676488 0)
(-0.003486362 0.5442378 0)
(-0.003712375 0.5209484 0)
(-0.004087213 0.4976915 0)
(-0.004639639 0.474419 0)
(-0.005201157 0.4510785 0)
(-0.006175537 0.4275539 0)
(-0.006915786 0.4039336 0)
(-0.007840199 0.3803882 0)
(-0.008786985 0.3569772 0)
(-0.00972668 0.3336878 0)
(-0.01058682 0.3104541 0)
(-0.01130181 0.2872836 0)
(-0.01196471 0.2642863 0)
(-0.01232294 0.2417529 0)
(-0.01281184 0.2197356 0)
(-0.01324645 0.1981225 0)
(-0.01372365 0.1768337 0)
(-0.01421941 0.155797 0)
(-0.01473344 0.1349915 0)
(-0.01524461 0.1144087 0)
(-0.0158378 0.09401744 0)
(-0.01638265 0.07381123 0)
(-0.0169497 0.05376675 0)
(-0.01749458 0.03383468 0)
(-0.0180427 0.0139547 0)
(-0.01852555 -0.005721499 0)
(-0.01894486 -0.02571549 0)
(-0.0193972 -0.04589877 0)
(-0.01981983 -0.06632973 0)
(-0.0202278 -0.08707338 0)
(-0.02061063 -0.1082113 0)
(-0.02096391 -0.1298243 0)
(-0.02128282 -0.1519979 0)
(-0.02156206 -0.1748231 0)
(-0.02179423 -0.1983991 0)
(-0.0219673 -0.2228312 0)
(-0.02207457 -0.2482163 0)
(-0.02203255 -0.2746906 0)
(-0.02198305 -0.3021876 0)
(-0.02169542 -0.3307734 0)
(-0.02086992 -0.3608064 0)
(-0.0200105 -0.3921262 0)
(-0.01888742 -0.4243971 0)
(-0.01733739 -0.457257 0)
(-0.01567452 -0.490234 0)
(-0.01392853 -0.5234307 0)
(-0.0121864 -0.5570973 0)
(-0.01043912 -0.5914268 0)
(-0.008703396 -0.6266968 0)
(-0.00699337 -0.6633494 0)
(-0.005324305 -0.7021207 0)
(-0.003710342 -0.7442715 0)
(-0.002189265 -0.7911455 0)
(-0.0007602088 -0.8213667 0)
(-0.0005078152 0.7382811 0)
(-0.001415329 0.6814701 0)
(-0.001482702 0.6436125 0)
(-0.001050958 0.6155097 0)
(-0.0004016321 0.5905906 0)
(0.0003242219 0.5668494 0)
(0.001088592 0.5435628 0)
(0.001866789 0.5204344 0)
(0.002638687 0.4973253 0)
(0.003406837 0.4741561 0)
(0.004038223 0.4509969 0)
(0.004757894 0.427963 0)
(0.004903769 0.4051086 0)
(0.00485757 0.3823623 0)
(0.004631304 0.3594592 0)
(0.00409007 0.3361774 0)
(0.003708433 0.312574 0)
(0.003196683 0.2889782 0)
(0.002722369 0.265655 0)
(0.002069996 0.2428963 0)
(0.00166709 0.2207958 0)
(0.001285997 0.199117 0)
(0.0009942404 0.1777368 0)
(0.0007413025 0.1566341 0)
(0.0005429553 0.1358525 0)
(0.0003021473 0.1154271 0)
(6.911227e-05 0.09530471 0)
(-0.0002811998 0.07532075 0)
(-0.0006806461 0.05539717 0)
(-0.00115336 0.03552878 0)
(-0.001695748 0.01568432 0)
(-0.00226221 -0.004146382 0)
(-0.002859995 -0.02409245 0)
(-0.00349376 -0.04423232 0)
(-0.004188555 -0.06466054 0)
(-0.004877659 -0.08542699 0)
(-0.005583224 -0.1066039 0)
(-0.00628948 -0.1282697 0)
(-0.006993115 -0.1505082 0)
(-0.007695451 -0.1734104 0)
(-0.008396801 -0.1970764 0)
(-0.009090143 -0.2216067 0)
(-0.009754931 -0.2470838 0)
(-0.01036201 -0.2736333 0)
(-0.01088808 -0.3015977 0)
(-0.01118975 -0.3311498 0)
(-0.01139015 -0.3620044 0)
(-0.0112545 -0.3940816 0)
(-0.01059305 -0.42727 0)
(-0.009901094 -0.4607183 0)
(-0.00901878 -0.4938696 0)
(-0.007927212 -0.527084 0)
(-0.006868185 -0.5607562 0)
(-0.005850445 -0.5950823 0)
(-0.004851057 -0.6303404 0)
(-0.003876212 -0.6669789 0)
(-0.002927989 -0.7057396 0)
(-0.002011624 -0.7478815 0)
(-0.001161617 -0.794733 0)
(-0.0003803946 -0.825235 0)
(-0.0004880085 0.7434083 0)
(-0.0002955871 0.6826979 0)
(2.80804e-06 0.6430306 0)
(0.001170499 0.6136469 0)
(0.002530147 0.5880022 0)
(0.004006128 0.5638341 0)
(0.005503114 0.5402701 0)
(0.006977055 0.5169621 0)
(0.008394263 0.4938013 0)
(0.009711926 0.4708421 0)
(0.01082216 0.4481621 0)
(0.01180518 0.4257919 0)
(0.01263182 0.4036895 0)
(0.01336078 0.3815199 0)
(0.01388484 0.3589665 0)
(0.01463018 0.335989 0)
(0.01484983 0.3130018 0)
(0.0149671 0.2901106 0)
(0.0149195 0.2673529 0)
(0.01463896 0.2446854 0)
(0.01443561 0.2222147 0)
(0.01418558 0.2001698 0)
(0.01394454 0.1785515 0)
(0.01369765 0.1573179 0)
(0.01339443 0.1364596 0)
(0.01307819 0.1159837 0)
(0.01275497 0.09585984 0)
(0.01239847 0.07600113 0)
(0.01200159 0.05631917 0)
(0.01154656 0.03674766 0)
(0.01102575 0.01717724 0)
(0.0104374 -0.002468547 0)
(0.009718252 -0.02214426 0)
(0.008893017 -0.04213987 0)
(0.008002464 -0.06244164 0)
(0.007055812 -0.0831215 0)
(0.006066962 -0.104237 0)
(0.005040986 -0.1258573 0)
(0.003984353 -0.1480525 0)
(0.002905331 -0.1708877 0)
(0.001814033 -0.1944817 0)
(0.0007226019 -0.2190193 0)
(-0.0003437285 -0.2446574 0)
(-0.0013414 -0.2715252 0)
(-0.002249177 -0.2997769 0)
(-0.00304945 -0.329589 0)
(-0.003724597 -0.3610987 0)
(-0.004154713 -0.394114 0)
(-0.004462245 -0.4279728 0)
(-0.004431717 -0.462098 0)
(-0.003932304 -0.4960871 0)
(-0.003484425 -0.5295615 0)
(-0.002926157 -0.5630832 0)
(-0.002443474 -0.5972749 0)
(-0.001975219 -0.632418 0)
(-0.001531628 -0.6689435 0)
(-0.001109177 -0.7075732 0)
(-0.000720907 -0.7495366 0)
(-0.0003941563 -0.7961082 0)
(-0.0001424148 -0.8263773 0)
(-0.0001150007 0.746398 0)
(8.335664e-06 0.6824003 0)
(0.001207956 0.6400734 0)
(0.00293952 0.6094962 0)
(0.004951621 0.5833455 0)
(0.007044821 0.5590244 0)
(0.009133249 0.5355432 0)
(0.0111507 0.5124952 0)
(0.01304698 0.4897268 0)
(0.0147915 0.467193 0)
(0.01637057 0.4448764 0)
(0.01777023 0.4228217 0)
(0.01899563 0.4009009 0)
(0.02005423 0.3788006 0)
(0.02100443 0.3564556 0)
(0.02165753 0.3341142 0)
(0.02229764 0.3116779 0)
(0.02282275 0.2891695 0)
(0.0232 0.2666857 0)
(0.02370778 0.2443203 0)
(0.02380544 0.2222706 0)
(0.02394073 0.2005333 0)
(0.02392776 0.1791618 0)
(0.0238239 0.1581705 0)
(0.02361862 0.1375377 0)
(0.02331708 0.1172318 0)
(0.02292869 0.09722085 0)
(0.02246472 0.07744349 0)
(0.021932 0.05782405 0)
(0.02133783 0.03830535 0)
(0.02068139 0.01886 0)
(0.01994092 -0.0004927664 0)
(0.01907143 -0.01967389 0)
(0.01802876 -0.03936812 0)
(0.01691087 -0.05945508 0)
(0.0156987 -0.07994997 0)
(0.01442422 -0.1009017 0)
(0.0130905 -0.1223801 0)
(0.01170862 -0.1444723 0)
(0.01029688 -0.1672783 0)
(0.008877195 -0.1909152 0)
(0.00747171 -0.2155221 0)
(0.006100134 -0.2412564 0)
(0.004786972 -0.2682923 0)
(0.003563679 -0.2968153 0)
(0.002457001 -0.3269665 0)
(0.001480043 -0.3587828 0)
(0.0006390609 -0.3921594 0)
(-4.119331e-05 -0.4267661 0)
(-0.0004736504 -0.4618477 0)
(-0.0007668626 -0.4963916 0)
(-0.0008021936 -0.5300488 0)
(-0.000772618 -0.5635906 0)
(-0.0007109561 -0.59781 0)
(-0.0006301678 -0.6329829 0)
(-0.0005400081 -0.6695364 0)
(-0.0003800159 -0.7081844 0)
(-0.0003130492 -0.7501212 0)
(-0.0002145874 -0.7967027 0)
(-8.412159e-05 -0.8272926 0)
(-2.280827e-05 0.7486163 0)
(0.0005872625 0.6803664 0)
(0.002135208 0.6356874 0)
(0.004243452 0.6038927 0)
(0.006678625 0.5771439 0)
(0.0092062 0.5526004 0)
(0.01174078 0.5291487 0)
(0.01420853 0.5063117 0)
(0.01656064 0.4838878 0)
(0.01876212 0.4618011 0)
(0.02078745 0.4400311 0)
(0.0226157 0.4185883 0)
(0.02423251 0.3973426 0)
(0.02563428 0.375972 0)
(0.0268285 0.3542694 0)
(0.02783697 0.3322167 0)
(0.0287092 0.3099062 0)
(0.02943574 0.2875228 0)
(0.0300637 0.2652495 0)
(0.03044504 0.2432695 0)
(0.03086397 0.2215301 0)
(0.03104702 0.2000942 0)
(0.03112411 0.1790379 0)
(0.03105815 0.1583652 0)
(0.03086031 0.1380572 0)
(0.03053252 0.1180816 0)
(0.03008082 0.09839025 0)
(0.02951416 0.07891669 0)
(0.02884152 0.05958733 0)
(0.02807204 0.04034085 0)
(0.02721427 0.02115488 0)
(0.02626253 0.002088403 0)
(0.02520145 -0.01668307 0)
(0.02398247 -0.03601405 0)
(0.02264286 -0.05582085 0)
(0.02121191 -0.07608943 0)
(0.01971136 -0.09685494 0)
(0.01815668 -0.1181827 0)
(0.01656372 -0.1401612 0)
(0.01495061 -0.1628997 0)
(0.01333917 -0.1865318 0)
(0.01175391 -0.2112139 0)
(0.01022109 -0.2371135 0)
(0.008767856 -0.2644015 0)
(0.007419061 -0.2932451 0)
(0.006194946 -0.3237779 0)
(0.005113356 -0.3560345 0)
(0.004187758 -0.3898593 0)
(0.003422122 -0.424832 0)
(0.002814363 -0.4602712 0)
(0.00237922 -0.4953797 0)
(0.002107832 -0.5295878 0)
(0.001919159 -0.5633845 0)
(0.001737454 -0.5976918 0)
(0.001517186 -0.6329315 0)
(0.001295539 -0.6695279 0)
(0.0009726821 -0.7081768 0)
(0.0007346639 -0.7501306 0)
(0.0004289765 -0.796722 0)
(7.106247e-05 -0.8273119 0)
(2.1033e-05 0.749996 0)
(0.0008620405 0.67768 0)
(0.002637684 0.6305151 0)
(0.005033186 0.5974059 0)
(0.00777238 0.5700085 0)
(0.01061169 0.5452289 0)
(0.01345982 0.5218098 0)
(0.01623864 0.4991923 0)
(0.01889846 0.4771185 0)
(0.02140439 0.4554713 0)
(0.02373578 0.4342025 0)
(0.02587857 0.4132993 0)
(0.02782652 0.3925869 0)
(0.02957972 0.3717303 0)
(0.03112881 0.3505466 0)
(0.03247018 0.3290575 0)
(0.03360049 0.307354 0)
(0.03451665 0.2855627 0)
(0.0352378 0.2638022 0)
(0.03575263 0.2421688 0)
(0.03614258 0.2208105 0)
(0.03627659 0.1998561 0)
(0.03629022 0.1792545 0)
(0.03612474 0.1590067 0)
(0.0358057 0.139102 0)
(0.03533697 0.1195058 0)
(0.03472844 0.1001632 0)
(0.03399141 0.08100429 0)
(0.03313722 0.06195626 0)
(0.0321757 0.04296247 0)
(0.03111378 0.02401662 0)
(0.02995005 0.005219615 0)
(0.02874943 -0.0131726 0)
(0.02741285 -0.03210657 0)
(0.02591252 -0.05160329 0)
(0.02432672 -0.07164815 0)
(0.02268235 -0.09225269 0)
(0.02099739 -0.113473 0)
(0.01928945 -0.135401 0)
(0.01757805 -0.1581537 0)
(0.01588475 -0.1818677 0)
(0.01423177 -0.2066961 0)
(0.01264088 -0.2328049 0)
(0.01113315 -0.2603649 0)
(0.009727542 -0.2895369 0)
(0.008438838 -0.3204408 0)
(0.007276933 -0.3531033 0)
(0.006249553 -0.3873812 0)
(0.00536635 -0.4228656 0)
(0.004636456 -0.4588246 0)
(0.004055902 -0.494337 0)
(0.003605007 -0.5287636 0)
(0.003208795 -0.5625481 0)
(0.002816428 -0.5966958 0)
(0.002391945 -0.6317816 0)
(0.001957732 -0.6682284 0)
(0.001516775 -0.7067682 0)
(0.001075155 -0.7486531 0)
(0.0006168188 -0.7952406 0)
(0.0001766346 -0.82617 0)
(-1.943846e-05 0.7512575 0)
(0.0009457403 0.674388 0)
(0.002862013 0.624617 0)
(0.005439066 0.5901489 0)
(0.008366567 0.5620894 0)
(0.01140144 0.5370713 0)
(0.01444807 0.5136942 0)
(0.01742653 0.4913125 0)
(0.02028771 0.4696065 0)
(0.02299786 0.4484134 0)
(0.02553705 0.4276479 0)
(0.02790519 0.4072599 0)
(0.03008217 0.3870984 0)
(0.03205933 0.3668547 0)
(0.03380778 0.3463038 0)
(0.03531971 0.325438 0)
(0.03659234 0.3043422 0)
(0.03762642 0.2831419 0)
(0.03842222 0.2619739 0)
(0.03900188 0.2409681 0)
(0.03931087 0.2202311 0)
(0.03948413 0.199774 0)
(0.03942363 0.1796444 0)
(0.03919216 0.1598613 0)
(0.03878121 0.1404065 0)
(0.03820464 0.1212368 0)
(0.03747516 0.1022913 0)
(0.0366063 0.08349941 0)
(0.03561108 0.0647924 0)
(0.03450096 0.04612074 0)
(0.03328528 0.02747283 0)
(0.0319773 0.008885191 0)
(0.03063588 -0.00958338 0)