/*--------------------------------*- C++ -*----------------------------------*\
| =========                 |                                                 |
| \\      /  F ield         | OpenFOAM: The Open Source CFD Toolbox           |
|  \\    /   O peration     | Version:  2312                                  |
|   \\  /    A nd           | Website:  www.openfoam.com                      |
|    \\/     M anipulation  |                                                 |
\*---------------------------------------------------------------------------*/
FoamFile
{
    version     2.0;
    format      ascii;
    arch        "LSB;label=32;scalar=64";
    class       volScalarField;
    location    "2500";
    object      alphat;
}
// * * * * * * * * * * * * * * * * * * * * * * * * * * * * * * * * * * * * * //

dimensions      [1 -1 -1 0 0 0 0];

internalField   nonuniform List<scalar> 
12000
(
4.353754e-05
0.0001425186
0.0001520398
0.0001640425
0.0001744677
0.000184217
0.0001864298
0.0001749869
0.0001691389
0.0001758194
0.0001851438
0.0001829637
0.0001688943
0.0001649522
0.0001746765
0.0001830551
0.0001728709
0.0001605409
0.0001628773
0.0001737437
0.0001733237
0.0001621206
0.0001580512
0.0001638692
0.0001679162
0.0001633981
0.000158262
0.0001578609
0.0001596711
0.0001602603
0.0001585718
0.0001555398
0.0001541758
0.0001561902
0.000157787
0.0001572314
0.0001534699
0.000148177
0.0001470719
0.0001574581
0.0001702031
0.0001565728
0.0001345282
0.0001380374
0.000172951
0.0001771973
0.0001366775
0.0001308676
0.0001614322
0.0001742653
0.0001423319
0.000133475
0.000148052
0.0001478411
0.0001344986
0.0001250984
0.0001126261
9.084242e-05
8.363488e-05
6.542403e-05
2.798155e-05
0.0001906276
0.0002204834
0.0002687096
0.0003095264
0.0003477829
0.0003888904
0.0004355906
0.0004878666
0.0005410325
0.0005924123
0.0006456887
0.0007070698
0.0007687524
0.0008219822
0.0008702282
0.000926154
0.0009897405
0.001044819
0.001086914
0.001130761
0.001185443
0.001238385
0.001277723
0.001311264
0.001351206
0.001394458
0.001431494
0.00146097
0.001487355
0.001513958
0.001541293
0.001565116
0.001578896
0.001571286
0.001563365
0.00156062
0.001607032
0.001608664
0.001592029
0.001539154
0.00143333
0.001499972
0.001526867
0.001469799
0.001368649
0.001275937
0.001329232
0.001245242
0.001161667
0.001080255
0.000982756
0.0008739382
0.0007632812
0.0006512907
0.0005262428
0.0003941591
0.0002408968
0.0001321486
5.852114e-05
2.917414e-05
0.0002727415
0.0003400751
0.0004143558
0.0004974953
0.0005952677
0.0006983812
0.0008031338
0.0009142954
0.001024383
0.001132869
0.001240176
0.001346444
0.001448859
0.001544191
0.001634707
0.00172146
0.001804192
0.001880462
0.001950315
0.002015624
0.002077117
0.002133659
0.002184608
0.002230888
0.002273308
0.002311819
0.002346058
0.002358547
0.002334982
0.002286174
0.002289062
0.002413457
0.002424119
0.002324546
0.002322437
0.002364117
0.002437221
0.002470837
0.002397519
0.002317436
0.002374944
0.002454507
0.002433996
0.002410309
0.002368311
0.0023443
0.002297701
0.002244425
0.002176696
0.002088692
0.001977472
0.001833304
0.001610057
0.001176438
0.001038093
0.0008837316
0.0005706767
0.0002252914
5.847092e-05
2.80774e-05
0.0002838811
0.0003971036
0.0005017352
0.0006273205
0.0007675174
0.0009186025
0.001072294
0.001230022
0.001384508
0.001530337
0.001668156
0.001798325
0.001922215
0.002037767
0.002146911
0.002249475
0.002345489
0.002435159
0.002518862
0.002597074
0.002669988
0.002737982
0.002799375
0.002853024
0.002899739
0.002941007
0.002977228
0.003008798
0.002956621
0.00298649
0.003073244
0.003084312
0.003093078
0.003093747
0.003093552
0.003085573
0.003072524
0.003054615
0.003031505
0.00300217
0.002966009
0.002923173
0.002874329
0.002818582
0.002753618
0.002679311
0.002593985
0.002498246
0.002389741
0.002268393
0.002131989
0.001981144
0.001625609
0.001563929
0.001296017
0.0009886932
0.0006389113
0.0002892361
5.667558e-05
2.740878e-05
0.000296483
0.0004543031
0.0005908367
0.0007520594
0.0009255719
0.001105321
0.001284072
0.001458797
0.001631145
0.001800379
0.001964981
0.00212425
0.002270847
0.002405239
0.002529571
0.002644848
0.002751616
0.002850214
0.002940637
0.003023025
0.00309733
0.003163959
0.003224908
0.003282162
0.003335491
0.00338367
0.003425843
0.003462403
0.003493627
0.003519132
0.003538074
0.00355359
0.003563164
0.003567028
0.003565172
0.003557596
0.003544248
0.003525497
0.003501135
0.00347082
0.003434185
0.003391845
0.003342724
0.003284803
0.003218686
0.003143106
0.003056846
0.002957972
0.002844274
0.002714331
0.002557612
0.002370049
0.002140995
0.001885138
0.001586385
0.001232901
0.0008118231
0.0003545433
5.643556e-05
2.749115e-05
0.0002985773
0.0004898821
0.0006500393
0.0008315366
0.001024718
0.001223921
0.001424992
0.001623571
0.001815533
0.0019993
0.0021725
0.002332535
0.002484524
0.002627103
0.002758961
0.002880991
0.002994312
0.003099577
0.003197356
0.003288535
0.003373666
0.003453279
0.003527567
0.003596628
0.003660231
0.003718016
0.003769678
0.003815407
0.003854888
0.003886901
0.003913982
0.003934295
0.003947817
0.00395449
0.003954419
0.003947416
0.0039329
0.003911447
0.00388346
0.003848036
0.003804156
0.003749624
0.003685545
0.003611541
0.003526567
0.00342951
0.00331935
0.003195428
0.003055464
0.00289415
0.00270563
0.002493294
0.002253756
0.001975339
0.001649027
0.001269951
0.0008398446
0.0003870233
5.548403e-05
2.773123e-05
0.0002939114
0.0005167145
0.0006978326
0.0008944154
0.001102968
0.001316467
0.001528291
0.001733699
0.001931667
0.002119436
0.002295602
0.00246104
0.002617902
0.002766772
0.002907091
0.003038306
0.003161056
0.003276248
0.003384808
0.003487553
0.003584965
0.003677246
0.003764349
0.003846048
0.003922011
0.003991871
0.00405527
0.004111932
0.004160445
0.004203081
0.004238067
0.004265187
0.004284397
0.004295761
0.004299423
0.004295164
0.004282733
0.004261297
0.004229693
0.004188373
0.004137594
0.004076885
0.004005523
0.003922755
0.003827765
0.003719932
0.003598385
0.003460494
0.003302682
0.003122261
0.0029154
0.002683698
0.002417586
0.002117902
0.001779547
0.001385469
0.00092582
0.0004254357
5.56578e-05
2.820375e-05
0.0002860669
0.0005325876
0.0007311401
0.0009370556
0.001152516
0.001371501
0.001588137
0.001798389
0.002000015
0.002191448
0.002372055
0.002542181
0.002703023
0.002856018
0.003002462
0.003142563
0.003277079
0.003405619
0.003528364
0.003645901
0.003758083
0.003865136
0.003966875
0.004062927
0.004152824
0.004236062
0.004312144
0.004378903
0.004439556
0.004491648
0.004534922
0.004569148
0.004594427
0.004610075
0.004615876
0.004611552
0.004596993
0.004572182
0.004536773
0.004490366
0.004432513
0.004362645
0.004280094
0.004184178
0.004074306
0.003949303
0.003807067
0.003645353
0.003462633
0.003257878
0.003028198
0.002775085
0.002440768
0.002138253
0.001815957
0.001407472
0.0009410166
0.0004421889
5.504143e-05
2.888501e-05
0.0002747298
0.0005385416
0.0007531828
0.0009662607
0.001185454
0.001406759
0.001625459
0.001838041
0.002042341
0.00223726
0.00242262
0.00259887
0.002766814
0.00292703
0.00308148
0.003230896
0.003376039
0.003517312
0.003654767
0.003787906
0.003916254
0.004039345
0.004156649
0.004267556
0.00437142
0.004467614
0.004554677
0.004633484
0.004703056
0.004762668
0.004811956
0.004850744
0.004879075
0.004896525
0.0049028
0.004897646
0.004880835
0.004852123
0.0048112
0.004757694
0.004691167
0.004611143
0.004517173
0.0044087
0.004284657
0.004143575
0.003984012
0.003804848
0.003605014
0.003383126
0.003080728
0.002713097
0.002417034
0.00216645
0.001873211
0.001459304
0.0009809263
0.0004619872
5.527799e-05
2.960306e-05
0.0002636427
0.0005399217
0.0007682878
0.0009860871
0.001205976
0.001426922
0.001645458
0.001858646
0.002064688
0.00226278
0.002452954
0.002635783
0.002812146
0.00298296
0.003149027
0.003311256
0.003470172
0.003625986
0.003778663
0.003927754
0.004072378
0.004211432
0.004343792
0.004468407
0.004584249
0.004690273
0.004785251
0.004872242
0.004948873
0.005014483
0.00506854
0.005110626
0.005140512
0.005157935
0.005162689
0.005154571
0.005133366
0.005098821
0.005050636
0.004988463
0.004911961
0.004820825
0.004714483
0.004592054
0.004452515
0.004294893
0.004118362
0.003922131
0.003705379
0.003358648
0.002970312
0.002653659
0.002394061
0.002154474
0.001883086
0.001473095
0.0009910221
0.0004714829
5.491049e-05
3.027865e-05
0.0002514375
0.0005345255
0.0007745127
0.0009971491
0.001217632
0.001437474
0.001654821
0.00186778
0.002075112
0.002276385
0.00247186
0.002662247
0.002848441
0.003031257
0.003211141
0.003388096
0.003561033
0.003728491
0.003893324
0.004054813
0.004211903
0.00436336
0.004508085
0.004645012
0.004773215
0.004891971
0.00499905
0.005094354
0.005176951
0.005246553
0.005302883
0.00534577
0.005375098
0.005390612
0.005392145
0.005379541
0.005352627
0.005311183
0.005254917
0.005183437
0.005096318
0.004993828
0.004875136
0.004739427
0.004585999
0.00441425
0.00422355
0.004013249
0.003658306
0.003256374
0.002916153
0.002634619
0.002391202
0.002164089
0.00190485
0.001495025
0.001008324
0.0004807449
5.506111e-05
3.08695e-05
0.0002398679
0.0005257008
0.0007754204
0.001001984
0.001221942
0.001439979
0.001655962
0.001868698
0.002077408
0.002282006
0.00248286
0.002680504
0.002875184
0.003066333
0.003188704
0.003285046
0.003406493
0.003569056
0.003788666
0.004085086
0.004353389
0.004517397
0.004673959
0.004821283
0.004958128
0.005083515
0.005196124
0.005295792
0.00538157
0.005452992
0.005509706
0.005551459
0.005578152
0.005589763
0.005586266
0.00556761
0.005533732
0.005484559
0.005420025
0.00534008
0.005244482
0.005131972
0.005002196
0.0048547
0.004688863
0.004504845
0.004301922
0.003964226
0.00355359
0.003189869
0.002882511
0.002616425
0.002377667
0.002150278
0.001893404
0.001503879
0.00101486
0.0004859138
5.489354e-05
3.130791e-05
0.0002294727
0.000514659
0.0007720988
0.001002251
0.00122218
0.001438604
0.001652922
0.001865046
0.002074764
0.002282061
0.002487087
0.002689686
0.002888834
0.003008338
0.00306033
0.003125139
0.003220119
0.003349999
0.003520299
0.003731248
0.004004911
0.004352187
0.004737199
0.004989014
0.005131957
0.005261849
0.005377578
0.005478806
0.005564909
0.005635562
0.005690583
0.005729913
0.005753477
0.005761151
0.005752868
0.005728568
0.005688182
0.005631619
0.005558737
0.005469338
0.005363116
0.005239893
0.005099503
0.004941809
0.004766721
0.004573089
0.004269618
0.003862155
0.003482465
0.003151857
0.002864571
0.002608154
0.002374673
0.002153409
0.001903424
0.001512152
0.001021587
0.0004901308
5.494182e-05
3.162172e-05
0.0002196574
0.0005024921
0.000765161
0.0009988504
0.001219159
0.001434216
0.001647013
0.001858472
0.00206889
0.002278333
0.002486578
0.002692814
0.002895149
0.002949193
0.002963745
0.003001398
0.003075907
0.003188129
0.003340205
0.003534554
0.003770191
0.004063972
0.004425259
0.004841067
0.005236627
0.005412597
0.005530095
0.005632194
0.005718362
0.005788271
0.00584171
0.005878559
0.005898739
0.005902193
0.00588889
0.00585881
0.005811926
0.005748206
0.005667603
0.005570053
0.005455478
0.005323789
0.005174877
0.005008604
0.0048248
0.004588793
0.004188599
0.003789564
0.00343497
0.003126434
0.00285117
0.002599174
0.002365504
0.002142267
0.001893872
0.001517796
0.00102547
0.0004920633
5.49218e-05
3.184168e-05
0.0002112431
0.000490057
0.0007560931
0.0009927301
0.001213669
0.001427945
0.001639724
0.001850804
0.002061875
0.002273097
0.002484044
0.002693468
0.002898949
0.002928104
0.002914039
0.002931377
0.00299309
0.003094352
0.003233093
0.003412659
0.003640049
0.003922267
0.004269612
0.004674639
0.005110539
0.005496406
0.005657136
0.005759616
0.00584535
0.00591406
0.005965557
0.005999728
0.006016515
0.006015893
0.005997868
0.005962465
0.005909717
0.005839665
0.005752349
0.005647808
0.00552608
0.005387189
0.005231139
0.005057907
0.004867433
0.004540994
0.004137358
0.003753488
0.003416129
0.003118465
0.00284824
0.002598595
0.002366567
0.002145859
0.001899699
0.001522128
0.001028924
0.000494742
5.491336e-05
3.192899e-05
0.0002040304
0.00047781
0.0007455565
0.0009846138
0.001206451
0.001420466
0.001631773
0.001842843
0.002054787
0.00226785
0.002481442
0.002693918
0.002902373
0.002926888
0.002889055
0.0028888
0.002941481
0.003037637
0.00317126
0.003344308
0.003564383
0.003842551
0.004186715
0.004597715
0.005046723
0.005473234
0.005758809
0.005861862
0.005947288
0.006014907
0.006064598
0.006096293
0.006109976
0.006105664
0.006083405
0.006043277
0.005985379
0.005909829
0.005816758
0.005706309
0.005578625
0.005433841
0.005272069
0.005093391
0.004865838
0.004485614
0.004090355
0.003726501
0.003403564
0.003110503
0.002842549
0.002593887
0.002361453
0.002140767
0.001896113
0.001524156
0.001030503
0.0004952762
5.493161e-05
3.198986e-05
0.0001978724
0.0004663006
0.0007342208
0.0009750833
0.001198029
0.001412373
0.001623848
0.001835536
0.002048901
0.002264256
0.002480829
0.002696636
0.002908383
0.002936744
0.002880643
0.002866436
0.002913269
0.003007858
0.003140585
0.00331239
0.003531608
0.003810561
0.004159778
0.004578017
0.005042792
0.005494158
0.005837824
0.005941702
0.006027172
0.006093982
0.006142181
0.006171765
0.006182771
0.006175267
0.006149352
0.006105164
0.006042874
0.00596268
0.005864809
0.005749506
0.00561702
0.005467597
0.005301456
0.005118773
0.00484364
0.004458623
0.004065257
0.003708449
0.003395158
0.003110393
0.002845214
0.002596743
0.002364813
0.002144374
0.001899506
0.001527135
0.0010326
0.0004966713
5.493551e-05
3.195707e-05
0.0001929525
0.0004559135
0.0007231184
0.0009652674
0.001189472
0.001404698
0.001617043
0.001830057
0.002045475
0.002263617
0.002483467
0.002702651
0.002917443
0.002950759
0.002880182
0.002855689
0.002899681
0.002995582
0.003130494
0.003304094
0.003525288
0.003808224
0.004165464
0.00459712
0.005077491
0.005544247
0.005898847
0.006003505
0.006089013
0.006155204
0.006202176
0.006229978
0.006238701
0.006228465
0.006199426
0.006151784
0.006085781
0.0060017
0.005899855
0.005780584
0.005644237
0.005491154
0.005321647
0.005135974
0.004822957
0.004432028
0.004045185
0.003695852
0.003385399
0.003104541
0.002844722
0.002597847
0.002364398
0.002143598
0.001899118
0.001527709
0.001032883
0.0004968286
5.496739e-05
3.189738e-05
0.0001889223
0.0004466383
0.000712147
0.0009552246
0.001180917
0.001397641
0.001611677
0.001826899
0.002045197
0.002266815
0.002490471
0.002713432
0.002931626
0.002963898
0.002882214
0.002852078
0.002896558
0.002995784
0.003134357
0.003311916
0.003538443
0.003829363
0.004198189
0.004645329
0.005142224
0.00561614
0.00594645
0.006051593
0.006137001
0.006202594
0.006248471
0.006274719
0.006281469
0.006268888
0.006237186
0.006186625
0.006117518
0.006030225
0.005925146
0.005802704
0.005663335
0.005507458
0.005335455
0.00514764
0.004820184
0.004425033
0.00403934
0.003692927
0.003385324
0.003106036
0.002845634
0.002599224
0.002367425
0.002146889
0.001901996
0.001529747
0.00103416
0.000497524
5.498601e-05
3.17944e-05
0.0001859211
0.0004390894
0.0007025621
0.0009462086
0.001173575
0.001392452
0.001609109
0.00182751
0.00204956
0.002275347
0.002503302
0.00273027
0.00295151
0.002976166
0.002885238
0.002853224
0.002900777
0.00300555
0.00315115
0.003335001
0.003567239
0.003865278
0.004248034
0.004714894
0.005229004
0.00570158
0.005984587
0.006089792
0.006174853
0.006239751
0.006284554
0.006309369
0.006314354
0.006299715
0.006265709
0.006212657
0.006140936
0.006050979
0.005943259
0.005818277
0.005676538
0.005518525
0.005344671
0.00515532
0.004815905
0.004417758
0.004033864
0.003690505
0.003385329
0.003106801
0.002846729
0.002600229
0.002369105
0.002149125
0.001904759
0.001530096
0.001034122
0.0004973621
5.502867e-05
3.170539e-05
0.0001835538
0.0004323822
0.00069373
0.0009379765
0.001167345
0.001389007
0.001609112
0.001831603
0.002058242
0.002288805
0.002521273
0.002751976
0.002976147
0.002979787
0.002883757
0.002856608
0.002913376
0.003025895
0.003174531
0.003363133
0.003606943
0.003920676
0.004319962
0.004804826
0.005332296
0.005796721
0.006016292
0.006121116
0.006205549
0.006269648
0.00631332
0.006336748
0.006340105
0.006323622
0.006287598
0.006232403
0.006158473
0.006066304
0.005956435
0.005829429
0.00568585
0.005526227
0.005351029
0.005160622
0.004818695
0.004418125
0.004033652
0.003691056
0.003387062
0.003109766
0.002849949
0.002602368
0.002372355
0.002153029
0.001907104
0.001531584
0.00103502
0.0004977512
5.506747e-05
3.160625e-05
0.0001820414
0.0004271585
0.0006863596
0.0009312893
0.001163144
0.001388469
0.001613072
0.001840685
0.002072809
0.002308871
0.002546326
0.002780531
0.003006721
0.002977318
0.002881933
0.002864415
0.00292636
0.003045353
0.003207124
0.003409918
0.003662745
0.003987304
0.004402336
0.004904486
0.005442435
0.00589446
0.006043851
0.006147912
0.006231467
0.00629452
0.006337002
0.006359062
0.00636088
0.006342709
0.006304883
0.006247813
0.006171988
0.006077958
0.005966315
0.005837674
0.005692644
0.005531788
0.005355595
0.00516444
0.004822129
0.004420194
0.004036296
0.003695568
0.003391762
0.003112931
0.00285229
0.002606523
0.002376919
0.002156415
0.001910763
0.001532375
0.00103535
0.000497804
5.5107e-05
3.152478e-05
0.0001812428
0.0004233419
0.0006807595
0.0009266596
0.001161537
0.001391273
0.001621233
0.001854734
0.002092858
0.002334452
0.002576333
0.0028142
0.00304198
0.002970184
0.00287338
0.002867251
0.002946842
0.003081804
0.003251311
0.003458452
0.003719898
0.00406079
0.004499007
0.005021299
0.005557553
0.005945667
0.006068931
0.006171866
0.006254283
0.006316123
0.006357326
0.006378005
0.006378339
0.006358595
0.006319132
0.006260401
0.00618293
0.006087315
0.005974195
0.005844226
0.005698048
0.005536249
0.005359329
0.005167661
0.004828804
0.004425868
0.004040453
0.003697246
0.003393896
0.003118477
0.002858414
0.002611506
0.002381589
0.002161085
0.00191403
0.001533763
0.001036178
0.0004980707
5.515302e-05
3.147532e-05
0.0001804606
0.0004200509
0.0006761288
0.0009236454
0.001162409
0.001397532
0.001633799
0.001874096
0.002118992
0.002366764
0.002612674
0.002852398
0.003048927
0.002946289
0.002862994
0.002879817
0.002977824
0.003119516
0.003292769
0.003505696
0.003781161
0.004144282
0.004608779
0.005150852
0.005674343
0.005970769
0.006092544
0.006194093
0.006275176
0.006335674
0.006375523
0.006394804
0.006393689
0.006372457
0.006331487
0.006271258
0.006192336
0.006095354
0.005980986
0.00584992
0.005702821
0.005540289
0.005362828
0.005170802
0.004835239
0.004430762
0.004043001
0.00370077
0.003400674
0.003126123
0.002865267
0.002616788
0.002383825
0.002164715
0.001918592
0.001534907
0.001036769
0.0004982123
5.519625e-05
3.141152e-05
0.0001803514
0.0004184024
0.0006739592
0.0009237696
0.001167109
0.001408373
0.001651748
0.001899498
0.002151393
0.002403419
0.002653046
0.00289378
0.003022731
0.00291779
0.002861241
0.002899911
0.003007305
0.003153881
0.003333561
0.003558725
0.003852249
0.004239354
0.004729587
0.005286656
0.005789679
0.005995293
0.006115372
0.006215356
0.006294961
0.006354022
0.00639246
0.006410329
0.006407796
0.006385144
0.00634277
0.006281178
0.006200962
0.006102786
0.005987353
0.005855372
0.005707525
0.005544419
0.005366552
0.005174276
0.004840568
0.004434255
0.004046679
0.003706426
0.003407634
0.00313298
0.00287232
0.002623975
0.002391165
0.002168693
0.001919831
0.001536393
0.001037685
0.0004985356
5.524492e-05
3.13932e-05
0.0001806079
0.000417238
0.0006732487
0.000926221
0.001174997
0.00142331
0.001674618
0.001930284
0.002187558
0.002445238
0.00269739
0.00293813
0.00298563
0.002891883
0.002860977
0.002918457
0.003035849
0.00319075
0.003379428
0.003618015
0.003932502
0.004346917
0.004862127
0.005422213
0.005882078
0.006019771
0.006137967
0.00623623
0.006314234
0.006371771
0.006408746
0.006425189
0.006421259
0.006397243
0.006353551
0.006290705
0.006209324
0.006110094
0.00599374
0.005860987
0.005712523
0.005548957
0.005370777
0.005178315
0.004845445
0.004437541
0.004050877
0.003713372
0.003415815
0.003141516
0.002879816
0.002629719
0.002395136
0.002172249
0.00192302
0.001537843
0.001038505
0.0004987953
5.529172e-05
3.140224e-05
0.0001808315
0.0004169232
0.0006741889
0.0009313177
0.001186592
0.001442987
0.001703074
0.001965314
0.002229952
0.002491947
0.002745852
0.002985649
0.002948113
0.00286346
0.00286034
0.002939223
0.003068832
0.00323126
0.003429753
0.003684407
0.004022949
0.004467169
0.005006965
0.005556365
0.005909347
0.00604466
0.006160748
0.006257117
0.006333388
0.006389315
0.006424775
0.00643978
0.006434477
0.006409152
0.006364219
0.006300218
0.006217783
0.00611762
0.006000467
0.005867059
0.005718086
0.005554149
0.005375721
0.005183112
0.004849118
0.004440464
0.004055071
0.003720024
0.003424195
0.003150305
0.002888047
0.002636779
0.00240069
0.002175992
0.001925343
0.001539479
0.001039518
0.0004991534
5.534306e-05
3.143207e-05
0.0001814434
0.0004174654
0.000677054
0.0009393203
0.001202291
0.001467929
0.001735305
0.00200626
0.002276696
0.002541799
0.002795746
0.002989036
0.002902833
0.002838471
0.002864359
0.002961158
0.003102068
0.003273267
0.003484
0.003757969
0.004123532
0.004597745
0.005155839
0.005685625
0.005935313
0.006068559
0.006182765
0.006277412
0.006352089
0.006406531
0.006440585
0.006454247
0.006447664
0.006421108
0.006375028
0.006309965
0.006226579
0.006125588
0.006007739
0.00587377
0.005724368
0.005560122
0.005381486
0.005188745
0.004851202
0.00444247
0.004059398
0.003726856
0.003432882
0.003159356
0.002896098
0.002643099
0.002405287
0.002179354
0.001927887
0.001541167
0.001040546
0.0004995182
5.539294e-05
3.148346e-05
0.0001822692
0.0004189976
0.0006817928
0.0009509786
0.00122244
0.001495869
0.001773239
0.002051548
0.002326844
0.002593802
0.002846425
0.002939957
0.002856293
0.002820871
0.002871871
0.002986758
0.003137779
0.003318364
0.003543625
0.003840302
0.004235513
0.004737958
0.005305503
0.005806261
0.005961867
0.006092885
0.006205095
0.00629794
0.00637097
0.006423894
0.006456534
0.00646887
0.006461041
0.006433341
0.006386175
0.006320138
0.006235891
0.006134163
0.006015704
0.005881253
0.005731486
0.005566977
0.005388158
0.005195285
0.004852093
0.00444296
0.004063129
0.003733949
0.003442227
0.003169115
0.002904794
0.002649993
0.002410279
0.002182759
0.001930277
0.001542964
0.001041677
0.0004999272
5.544525e-05
3.155965e-05
0.0001833802
0.0004215806
0.0006894675
0.0009652683
0.001245473
0.001529409
0.001815579
0.002100656
0.002379853
0.002647413
0.002897209
0.002881282
0.002808392
0.002807577
0.002886409
0.003016735
0.003176688
0.003367456
0.003609689
0.003932293
0.004360552
0.004891768
0.005450901
0.005842172
0.005988787
0.006117544
0.006227739
0.006318772
0.006390152
0.006441562
0.006472798
0.006483828
0.006474785
0.00644596
0.006397795
0.006330865
0.00624584
0.006143452
0.006024456
0.005889582
0.005739496
0.005574751
0.005395756
0.005202738
0.004851724
0.00444241
0.004066335
0.003741336
0.003452015
0.003179147
0.002913469
0.002656599
0.002414858
0.002185807
0.001932471
0.001544839
0.00104288
0.000500378
5.549704e-05
3.165686e-05
0.0001846229
0.000424926
0.0006977618
0.0009825652
0.001273179
0.001567213
0.001861786
0.002152606
0.002434254
0.002700707
0.002890463
0.0028199
0.002768631
0.002802356
0.002904637
0.003047725
0.003216961
0.003420258
0.003682698
0.004034179
0.004495338
0.005048381
0.005589582
0.005871553
0.006015783
0.006142387
0.006250637
0.006339905
0.006409674
0.006459603
0.00648947
0.006499234
0.006489026
0.006459141
0.006410028
0.006342265
0.006256524
0.006153541
0.006034063
0.005898811
0.005748434
0.005583464
0.005404284
0.005211093
0.00484988
0.004440639
0.004069251
0.003749028
0.003462303
0.003189583
0.002922372
0.002663277
0.002419388
0.002188738
0.001934595
0.001546777
0.001044141
0.0005008532
5.554876e-05
3.177612e-05
0.0001861131
0.000429358
0.0007089167
0.001003237
0.001304518
0.001608497
0.001910834
0.002206303
0.002488972
0.0027526
0.002823109
0.00275847
0.002742319
0.002805866
0.002927749
0.003081854
0.003260628
0.00347882
0.003764832
0.004147478
0.00463963
0.005206085
0.005719601
0.005900869
0.006042855
0.006167416
0.006273806
0.006361375
0.006429588
0.006478081
0.006506623
0.006515168
0.006503845
0.006472953
0.006422947
0.006354406
0.006268007
0.006164479
0.006044563
0.005908965
0.005758313
0.005593113
0.005413721
0.005220308
0.004846348
0.004437715
0.004072326
0.003757344
0.003473149
0.003200305
0.00293128
0.002669745
0.002423579
0.002191288
0.001936425
0.001548782
0.001045486
0.0005013873
5.560086e-05
3.191492e-05
0.0001878412
0.0004348396
0.0007223287
0.001027207
0.001339554
0.001653194
0.00196244
0.00226126
0.002543376
0.00279718
0.002750539
0.002700018
0.002723652
0.002816768
0.002954385
0.003117649
0.00330687
0.003542625
0.003855702
0.004273036
0.004795719
0.005356934
0.005774315
0.005930431
0.0060702
0.006192764
0.006297344
0.006383263
0.006449964
0.006497063
0.006524322
0.00653169
0.006519298
0.006487449
0.006436599
0.006367333
0.006280325
0.006176299
0.006055983
0.005920065
0.005769145
0.005603702
0.005424057
0.005228438
0.004841191
0.004434719
0.004075748
0.003766119
0.00348434
0.003211176
0.002940145
0.002676035
0.00242753
0.002193627
0.00193817
0.001550822
0.00104687
0.0005019455
5.565081e-05
3.207128e-05
0.0001898548
0.0004415282
0.0007377408
0.001053699
0.001377074
0.001699687
0.002014571
0.002315105
0.00259488
0.002725438
0.002679117
0.00266173
0.002717338
0.002832871
0.002983323
0.003155601
0.003357239
0.00361381
0.003956803
0.004408512
0.004955147
0.005500095
0.005806191
0.005960034
0.006097733
0.00621841
0.006321263
0.006405596
0.006470838
0.006516588
0.006542607
0.006548841
0.006535425
0.006502664
0.006451017
0.006381072
0.006293498
0.006189012
0.006068326
0.005932106
0.005780928
0.005615237
0.005435322
0.005223798
0.004834038
0.004432349
0.004079891
0.003775374
0.003495755
0.003222036
0.002948802
0.00268197
0.002431038
0.002195501
0.001939555
0.001552892
0.001048316
0.0005025607
5.57019e-05
3.224397e-05
0.0001921027
0.0004492671
0.0007554236
0.001083163
0.001417514
0.001748474
0.002068095
0.002369226
0.00264425
0.002648638
0.002613655
0.002632922
0.002720155
0.002854365
0.003015119
0.003196519
0.003412939
0.003693526
0.004068373
0.004552276
0.005114238
0.00563312
0.0058379
0.005989672
0.006125457
0.006244367
0.006345586
0.006428405
0.006492245
0.006536695
0.006561515
0.006566657
0.006552258
0.00651863
0.006466226
0.006395636
0.006307532
0.006202615
0.006081581
0.005945069
0.005793628
0.005627672
0.005447455
0.005217888
0.004825713
0.004429683
0.004084658
0.003785351
0.003507646
0.003233053
0.002957359
0.002687652
0.002434247
0.002197139
0.001940851
0.001554977
0.001049788
0.0005031979
5.574944e-05
3.243248e-05
0.000194669
0.0004583187
0.0007746874
0.001114124
0.001458844
0.001796935
0.002119221
0.002417413
0.002591623
0.002571549
0.002562095
0.002618106
0.002730481
0.002878701
0.003048316
0.003239965
0.003473864
0.003781897
0.004191585
0.004706042
0.00526579
0.005705138
0.005869788
0.006019569
0.006153527
0.00627075
0.006370408
0.006451751
0.006514239
0.00655743
0.006581088
0.00658517
0.006569821
0.006535356
0.006482229
0.006411036
0.006322434
0.006217111
0.006095742
0.005958941
0.005807227
0.005640982
0.005460427
0.005210748
0.004816562
0.004427219
0.004090039
0.00379595
0.003519906
0.003244129
0.002965721
0.002692975
0.002437012
0.002198321
0.001941796
0.001557056
0.001051288
0.0005038741
5.579845e-05
3.263366e-05
0.000197534
0.0004682539
0.0007961963
0.001147611
0.001502191
0.001846193
0.002169196
0.002465009
0.002513397
0.002501344
0.002528602
0.002614269
0.002745905
0.002905396
0.003083584
0.00328756
0.003542153
0.003879943
0.004323913
0.004863145
0.005408502
0.005739187
0.005901822
0.006049746
0.006181983
0.006297605
0.006395763
0.006475702
0.006536874
0.00657884
0.006601368
0.00660442
0.006588148
0.006552873
0.006499061
0.006427292
0.006338214
0.006232499
0.006110801
0.005973706
0.005821702
0.005655137
0.0054742
0.005202822
0.004806919
0.004424951
0.004096017
0.00380713
0.003532484
0.003255218
0.002973862
0.002697947
0.002439403
0.002199213
0.001942614
0.001559128
0.001052795
0.000504556
5.584314e-05
3.285016e-05
0.0002007394
0.0004794581
0.0008183157
0.001181097
0.001544045
0.001892177
0.002215634
0.002416424
0.00243677
0.002448905
0.002507346
0.00261856
0.002765697
0.002934359
0.003121542
0.003340233
0.003618459
0.003987535
0.004463442
0.005018918
0.005540638
0.005773098
0.005933954
0.006080198
0.006210845
0.006324963
0.006421698
0.006500288
0.006560188
0.006600964
0.006622393
0.006624445
0.006607279
0.006571223
0.006516744
0.006444415
0.006354874
0.006248773
0.006126741
0.005989337
0.005837015
0.005670092
0.005488722
0.005194213
0.004796831
0.004423119
0.004102742
0.003818911
0.00354533
0.003266249
0.002981709
0.002702485
0.002441299
0.002199617
0.001943059
0.001561158
0.001054296
0.0005052511
5.588928e-05
3.307826e-05
0.0002042941
0.0004916557
0.0008422315
0.00121578
0.001586977
0.001938617
0.002258245
0.002346411
0.002366921
0.002408473
0.002498483
0.002629573
0.002788177
0.002964963
0.003162294
0.003398174
0.003703002
0.004105349
0.004610308
0.005167399
0.005634454
0.005807185
0.005966388
0.006111063
0.006240218
0.006352909
0.006448278
0.006525565
0.006584227
0.006623841
0.006644194
0.006645269
0.006627234
0.006590415
0.006535283
0.006462407
0.006372408
0.006265919
0.006143541
0.006005804
0.005853129
0.005685799
0.005503939
0.005184985
0.004787019
0.004421971
0.004110295
0.003831291
0.003558395
0.003277169
0.002989227
0.002706585
0.00244275
0.002199674
0.001943337
0.001563169
0.001055793
0.0005059375
5.59306e-05
3.332039e-05
0.000208225
0.0005047396
0.0008667069
0.001250378
0.001627103
0.001978477
0.002207533
0.002274376
0.002314927
0.002385762
0.002498292
0.00264438
0.002812486
0.002997553
0.003206766
0.003462298
0.003795624
0.004231081
0.00476128
0.005306843
0.005670584
0.00584164
0.005999277
0.006142466
0.006270198
0.006381519
0.006475564
0.006551582
0.00660903
0.006647501
0.006666795
0.006666906
0.006648013
0.006610447
0.006554679
0.006481265
0.00639081
0.006283925
0.006161182
0.006023078
0.00587
0.0057022
0.005519776
0.005175017
0.004777704
0.004422009
0.004118894
0.003844238
0.00357158
0.003287889
0.002996343
0.002710171
0.002443653
0.002199224
0.001943242
0.001565116
0.001057263
0.0005066204
5.597319e-05
3.357467e-05
0.0002124959
0.0005184464
0.000891359
0.001283875
0.001665024
0.002005099
0.00214458
0.002212034
0.002277543
0.002372637
0.002503841
0.002662196
0.002838726
0.003032783
0.003255926