/*--------------------------------*- C++ -*----------------------------------*\
| =========                 |                                                 |
| \\      /  F ield         | OpenFOAM: The Open Source CFD Toolbox           |
|  \\    /   O peration     | Version:  2312                                  |
|   \\  /    A nd           | Website:  www.openfoam.com                      |
|    \\/     M anipulation  |                                                 |
\*---------------------------------------------------------------------------*/
FoamFile
{
    version     2.0;
    format      ascii;
    arch        "LSB;label=32;scalar=64";
    class       volScalarField;
    location    "2500";
    object      G;
}
// * * * * * * * * * * * * * * * * * * * * * * * * * * * * * * * * * * * * * //

dimensions      [1 0 -3 0 0 0 0];

internalField   nonuniform List<scalar> 
12000
(
10558.66
10028.35
9796.936
9658.053
9566.101
9499.976
9447.818
9402.648
9362.492
9327.884
9299.243
9275.79
9255.911
9237.993
9220.921
9204.121
9187.417
9170.892
9154.789
9139.38
9124.841
9111.176
9098.211
9085.673
9073.304
9060.953
9048.582
9036.218
9023.9
9011.657
8999.522
8987.533
8975.735
8964.141
8952.692
8941.265
8929.749
8918.166
8906.36
8893.574
8878.867
8862.362
8845.484
8829.132
8811.947
8792.726
8772.475
8752.181
8729.642
8702.239
8669.921
8633.599
8593.2
8548.598
8499.68
8443.079
8373.375
8280.47
8158.028
7944.624
10876.35
10557.67
10324.2
10156.75
10025.83
9913.716
9818.619
9739.927
9675.675
9623.054
9578.988
9540.61
9505.755
9473.117
9442.03
9412.131
9383.198
9355.126
9327.916
9301.588
9276.087
9251.246
9226.854
9202.757
9178.922
9155.418
9132.343
9109.76
9087.662
9065.989
9044.652
9023.557
9002.611
8981.737
8960.883
8940.039
8919.207
8898.305
8877.105
8855.271
8832.585
8809.098
8784.981
8760.304
8735.115
8709.608
8683.806
8657.236
8629.036
8598.236
8563.542
8523.441
8477.022
8424.476
8366.64
8303.726
8234.562
8152.077
8052.206
7916.436
10886.4
10689.95
10498.1
10357.65
10248.65
10141.08
10034.54
9939.479
9861.621
9799.368
9747.686
9701.775
9658.645
9617.081
9576.955
9538.587
9502.39
9468.693
9437.63
9409.051
9382.536
9357.5
9333.367
9309.701
9286.249
9262.892
9239.559
9216.184
9192.686
9168.989
9145.029
9120.757
9096.134
9071.127
9045.722
9019.95
8993.86
8967.399
8940.38
8912.56
8883.788
8853.979
8822.983
8790.757
8757.727
8724.547
8691.358
8657.756
8623.376
8587.727
8549.324
8505.889
8455.829
8399.583
8340.071
8280.985
8222.363
8154.438
8074.821
7980.433
10803.4
10682.5
10517.8
10383.65
10297.87
10222.78
10137.13
10045.53
9960.375
9888.24
9828.512
9777.252
9730.42
9685.202
9640.216
9595.321
9551.281
9509.289
9470.475
9435.552
9404.716
9377.747
9354.203
9333.575
9315.356
9299.04
9284.104
9270.023
9256.304
9242.509
9228.267
9213.262
9197.205
9179.832
9160.932
9140.388
9118.134
9094.045
9067.922
9039.642
9009.264
8976.871
8942.413
8906.053
8868.645
8831.296
8794.334
8757.238
8719.431
8680.287
8638.393
8591.946
8540.479
8486.175
8433.085
8383.013
8331.022
8266.566
8198.599
8126.805
10670.46
10615.87
10488.31
10346.86
10256.6
10206.65
10160.87
10100.21
10027.62
9953.707
9886.334
9828.372
9779.06
9735.811
9695.631
9656.157
9616.182
9575.631
9535.162
9495.729
9458.27
9423.571
9392.207
9364.516
9340.562
9320.144
9302.83
9288.047
9275.159
9263.534
9252.564
9241.664
9230.267
9217.85
9203.996
9188.424
9170.942
9151.362
9129.563
9105.665
9080.009
9052.827
9024.051
8993.736
8962.508
8931.064
8899.26
8866.194
8831.115
8793.745
8753.981
8712.21
8670.025
8629.752
8591.827
8551.478
8500.997
8438.964
8388.472
8341.961
10556.63
10550.44
10471.46
10334.27
10220.73
10165.41
10146.48
10127.02
10087.99
10030.36
9963.93
9898.356
9839.786
9790.645
9750.522
9717.305
9688.207
9660.554
9632.257
9602.051
9569.537
9535.052
9499.411
9463.607
9428.554
9394.933
9363.165
9333.444
9305.805
9280.168
9256.359
9234.125
9213.16
9193.164
9173.903
9155.209
9136.916
9118.844
9100.921
9083.264
9065.973
9048.738
9030.782
9011.365
8990.151
8966.921
8941.237
8912.785
8881.967
8849.987
8818.652
8790.167
8766.201
8745.579
8722.142
8686.675
8636.638
8584.252
8556.843
8536.229
10506.64
10521.33
10486.04
10372.66
10241.29
10156.61
10131.53
10134.98
10131.95
10106.05
10058.17
9996.833
9931.359
9869.285
9815.709
9773.07
9741.187
9717.75
9699.23
9681.911
9662.723
9639.668
9611.864
9579.318
9542.62
9502.674
9460.512
9417.18
9373.666
9330.849
9289.465
9250.102
9213.229
9179.237
9148.446
9121.044
9097.016
9076.184
9058.329
9043.14
9029.925
9017.388
9003.892
8988.04
8968.992
8946.448
8920.801
8893.403
8866.37
8842.048
8822.671
8809.762
8802.235
8793.994
8774.753
8737.526
8689.718
8651.816
8643.488
8639.071
10510.14
10524.45
10516.76
10438.53
10310.3
10195.64
10138.27
10132.36
10145.13
10148.11
10129.33
10089.17
10033.3
9968.895
9903.266
9842.924
9792.396
9753.482
9725.324
9705.172
9689.407
9674.439
9657.302
9635.929
9609.21
9576.895
9539.425
9497.722
9452.979
9406.482
9359.482
9313.14
9268.504
9226.505
9187.881
9153.067
9122.138
9094.893
9070.935
9049.57
9029.626
9009.539
8987.864
8963.765
8937.126
8908.57
8879.664
8852.818
8830.498
8814.432
8805.311
8802.097
8800.254
8790.961
8765.342
8723.693
8681.189
8656.837
8657.596
8656.022
10538.55
10542.02
10544.73
10500.48
10395.39
10268.01
10173.14
10133.69
10134.68
10147.38
10150.68
10136.02
10102.79
10053.7
9993.138
9926.701
9860.41
9799.563
9747.764
9706.504
9675.294
9652.152
9634.25
9618.569
9602.439
9583.885
9561.755
9535.664
9505.817
9472.802
9437.403
9400.478
9362.876
9325.354
9288.46
9252.432
9217.212
9182.582
9148.238
9113.735
9078.475
9041.998
9004.403
8966.44
8929.24
8894.174
8862.941
8837.352
8818.64
8806.929
8800.922
8797.088
8788.797
8768.116
8732.011
8688.602
8654.58
8640.049
8641.204
8634.329
10567.71
10558.62
10559.75
10539.99
10467.25
10347.87
10227.28
10147.49
10117.42
10118.51
10126.92
10127.62
10114.99
10088.04
10047.11
9993.516
9930.131
9861.439
9792.769
9729.182
9674.485
9630.667
9597.837
9574.588
9558.585
9547.186
9537.934
9528.84
9518.478
9505.939
9490.72
9472.597
9451.492
9427.342
9399.975
9369.09
9334.381
9295.728
9253.278
9207.427
9158.892
9108.926
9059.361
9012.194
8969.032
8930.918
8898.541
8872.312
8852.161
8837.183
8824.887
8810.299
8786.725
8750.077
8704.675
8663.461
8638.653
8629.238
8625.795
8611.645
10584.56
10564.66
10558.42
10551.03
10508.32
10410.99
10283.08
10170.66
10103.32
10079.1
10077.86
10080.74
10078.23
10067.57
10047.59
10016.61
9973.266
9917.992
9853.633
9784.934
9717.376
9655.963
9604.341
9564.392
9536.266
9518.726
9509.633
9506.434
9506.551
9507.642
9507.731
9505.227
9498.865
9487.601
9470.547
9447.031
9416.772
9380.03
9337.594
9290.715
9241.102
9190.924
9142.486
9097.584
9057.031
9020.764
8988.336
8959.311
8933.259
8909.082
8883.771
8852.057
8809.229
8756.71
8704.897
8667.123
8647.99
8637.81
8626.843
8604.59
10578.5
10551.21
10537.34
10532.46
10511.01
10441.1
10323.5
10194.58
10095.08
10041.1
10022.42
10019.73
10019.44
10016.62
10010.3
9999.061
9979.979
9950.132
9908.274
9855.573
9795.351
9732.251
9671.229
9616.668
9571.716
9537.959
9515.404
9502.716
9497.619
9497.348
9499.059
9500.134
9498.359
9491.996
9479.849
9461.365
9436.724
9406.773
9372.812
9336.372
9299.119
9262.7
9228.353
9196.443
9166.399
9137.178
9107.874
9078.023
9047.259
9014.215
8975.484
8926.725
8867.026
8803.385
8749.024
8713.621
8694.372
8677.791
8657.88
8625.51
10543.51
10513.29
10495.41
10488.17
10478.66
10435.19
10341.09
10214.71
10095.89
10015
9976.289
9965.133
9964.675
9965.69
9966.089
9965.928
9963.89
9956.886
9941.417
9915.035
9877.17
9829.281
9774.527
9717.101
9661.422
9611.314
9569.398
9536.774
9513.039
9496.591
9485.096
9475.987
9466.893
9455.964
9442.1
9425.081
9405.505
9384.484
9363.236
9342.797
9323.895
9306.824
9291.225
9276.018
9259.746
9241.147
9219.501
9194.41
9164.974
9128.808
9082.272
9023.303
8955.742
8890.454
8839.45
8806.354
8783.521
8758.427
8730.965
8687.537
10482.17
10454.78
10438.43
10429.03
10425.26
10403.95
10340.21
10233.08
10111.22
10011.19
9952.359
9930.344
9928.613
9932.846
9936.953
9940.794
9945.404
9950.1
9952.199
9948.104
9934.58
9909.667
9873.147
9826.575
9772.93
9715.971
9659.482
9606.597
9559.369
9518.645
9484.216
9455.158
9430.235
9408.298
9388.612
9371.019
9355.834
9343.518
9334.341
9328.213
9324.673
9322.844
9321.415
9318.856
9313.875
9305.749
9294.093
9278.026
9255.245
9222.014
9175.235
9116.252
9053.17
8997.732
8957.393
8929.492
8904.831
8874.77
8845.024
8794.66
10410.12
10390.63
10380.51
10371.93
10371.09
10366.03
10332.38
10254.48
10144.42
10035.56
9958.172
9921.355
9914.36
9920.148
9927.114
9932.004
9936.412
9942.269
9949.497
9955.894
9958.072
9952.512
9936.388
9908.116
9867.641
9816.417
9757.118
9693.147
9628.094
9565.257
9507.296
9456.069
9412.624
9377.342
9350.156
9330.707
9318.37
9312.195
9310.928
9313.159
9317.466
9322.444
9326.764
9329.432
9330.067
9328.73
9325.072
9317.185
9301.191
9272.763
9230.669
9180.025
9131.355
9094.168
9069.881
9051.22
9030.125
9002.5
8977.78
8929.653
10349.53
10340.18
10338.02
10333.02
10333.94
10338.46
10328.37
10281.04
10192.49
10085.34
9993.189
9937.674
9918.547
9920.969
9929.177
9934.898
9937.475
9939.637
9943.626
9949.599
9955.774
9959.181
9956.393
9944.146
9919.907
9882.376
9831.825
9770.16
9700.699
9627.699
9555.726
9489.008
9430.914
9383.644
9348.147
9324.172
9310.414
9304.788
9304.859
9308.287
9313.105
9317.795
9321.387
9323.636
9324.972
9325.818
9325.329
9320.45
9306.548
9280.318
9243.603
9204.608
9173.756
9156.254
9148.162
9140.359
9127.445
9108.931
9094.765
9058.605
10318.95
10317.7
10321.58
10320.68
10322.27
10329.73
10333.14
10310.51
10246.72
10150.23
10049.84
9974.758
9936.916
9928.921
9934.685
9941.187
9943.34
9942.126
9940.456
9940.284
9941.764
9943.536
9943.254
9938.015
9924.793
9900.981
9864.977
9816.671
9757.654
9691.072
9621.137
9552.44
9489.229
9434.828
9391.263
9359.093
9337.493
9324.606
9318.09
9315.63
9315.239
9315.427
9315.381
9315.088
9314.982
9314.928
9313.02
9305.383
9288.001
9260.208
9227.262
9198.791
9182.777
9179.641
9182.344
9182.743
9178.52
9171.181
9168.226
9148.502
10323.26
10325.07
10330.8
10332.34
10333.19
10338.35
10345.32
10338.01
10296.91
10217.34
10117.31
10026.51
9966.924
9941.934
9939.872
9945.386
9948.355
9945.931
9939.734
9932.328
9925.301
9918.952
9912.642
9905.1
9894.605
9879.189
9856.982
9826.65
9787.787
9741.121
9688.46
9632.424
9576.045
9522.314
9473.754
9432.063
9397.957
9371.264
9351.197
9336.619
9326.244
9318.872
9313.684
9310.291
9308.196
9305.784
9299.735
9285.97
9262.356
9231.605
9201.498
9180.882
9173.781
9176.763
9182.432
9185.633
9186.716
9187.588
9191.765
9185.494
10353.25
10352.77
10356.15
10357.56
10356.53
10356.69
10360.39
10359.43
10335.94
10276.27
10185.39
10086.71
10007.23
9961.209
9945.336
9945.701
9948.431
9945.929
9936.96
9923.537
9908.087
9892.262
9876.964
9862.649
9849.422
9836.928
9824.267
9810.054
9792.666
9770.562
9742.621
9708.421
9668.411
9623.897
9576.839
9529.498
9484.086
9442.506
9406.174
9375.882
9351.788
9333.597
9320.787
9312.479
9306.81
9300.341
9288.542
9267.923
9238.909
9207.103
9180.892
9166.273
9162.922
9165.279
9167.774
9168.94
9170.853
9174.608
9180.002
9179.466
10392.1
10386.34
10384.99
10384.21
10380.97
10376.18
10374.06
10373.4
10361.63
10321.51
10246.4
10149.2
10055.64
9987.957
9952.965
9942.202
9940.97
9937.534
9926.934
9909.621
9888.294
9865.648
9843.71
9824.02
9807.832
9796.003
9788.693
9785.112
9783.468
9781.185
9775.328
9763.176
9742.781
9713.361
9675.42
9630.618
9581.468
9530.948
9482.042
9437.316
9398.681
9367.332
9343.624
9326.594
9313.356
9299.25
9279.519
9252.197
9220.254
9190.704
9170.334
9161.005
9158.718
9157.57
9154.824
9152.082
9151.972
9154.181
9156.37
9154.192
10424.73
10413.87
10407.77
10403.9
10398.8
10390.93
10384.02
10381.08
10375.76
10351.94
10295.43
10207.66
10107.8
10021.11
9963.713
9935.622
9925.146
9918.525
9907.09
9888.771
9865.68
9841.074
9817.669
9797.358
9781.499
9771.081
9766.594
9767.743
9773.25
9780.855
9787.579
9790.19
9785.749
9772.093
9748.154
9714.106
9671.341
9622.266
9569.933
9517.62
9468.469
9425.087
9388.911
9359.354
9333.404
9306.602
9275.588
9240.868
9207.452
9182.007
9168.068
9163.261
9161.309
9157.248
9150.9
9145.409
9142.877
9141.687
9139.34
9132.046
10444.07
10430.36
10421.05
10414.16
10407.68
10398.96
10389.88
10384.59
10381.64
10368.95
10329.76
10256.07
10157.58
10057.29
9977.493
9927.759
9903.021
9890.628
9879.207
9863.389
9843.401
9822.111
9802.393
9786.053
9773.932
9766.361
9763.424
9764.927
9770.238
9778.157
9786.921
9794.348
9798.067
9795.783
9785.557
9766.107
9737.067
9699.128
9654.016
9604.324
9553.182
9503.607
9457.474
9414.575
9372.664
9329.13
9283.659
9239.891
9204.152
9181.441
9171.594
9169.089
9167.049
9162
9155.14
9149.358
9145.53
9141.383
9135.755
9124.122
10450.55
10436.79
10426.26
10416.96
10409.31
10401.02
10392.04
10385.24
10381.74
10374.43
10348.21
10289.66
10198.86
10092.39
9994.26
9922.286
9880.211
9859.802
9848.908
9838.685
9826.085
9812.213
9799.39
9789.192
9782.003
9777.476
9775.119
9774.593
9775.726
9778.367
9782.218
9786.693
9790.803
9793.112
9791.817
9785.01
9771.034
9748.868
9718.418
9680.641
9637.322
9590.365
9540.802
9488.248
9431.661
9371.36
9310.95
9257.148
9216.778
9192.691
9181.866
9177.558
9173.847
9168.705
9163.284
9158.833
9154.809
9149.098
9142.421
9129.492
10450.19
10437.97
10427.52
10416.36
10407.17
10399.12
10390.88
10382.97
10376.92
10369.94
10351.24
10306.27
10227.69
10123.55
10014.97
9924.593
9864.944
9834.705
9823.494
9819.864
9816.705
9812.034
9806.77
9802.214
9798.772
9795.997
9793.191
9789.919
9786.219
9782.538
9779.532
9777.812
9777.649
9778.744
9780.122
9780.228
9777.197
9769.222
9754.922
9733.545
9704.797
9668.284
9623.026
9567.799
9502.679
9430.967
9359.729
9297.686
9251.23
9221.3
9203.682
9192.523
9184.018
9177.293
9172.493
9168.736
9164.368
9158.012
9151.894
9140.545
10449.08
10438.37
10428.18
10415.34
10403.89
10394.63
10386
10376.46
10366.7
10356.8
10341.02
10307.1
10243.59
10150.12
10041.28
9939.995
9865.287
9823.699
9809.23
9809.869
9814.889
9818.51
9819.454
9818.539
9816.618
9813.819
9809.778
9804.171
9797.07
9789.021
9780.926
9773.814
9768.571
9765.686
9765.094
9766.139
9767.664
9768.183
9766.043
9759.424
9746.104
9723.188
9687.431
9636.622
9571.68
9497.985
9424.356
9359.583
9308.556
9270.826
9242.668
9220.686
9203.73
9191.837
9184.048
9177.887
9171.273
9163.74
9158.128
9149.332
10450.82
10440.08
10429.24
10414.44
10399.92
10387.61
10376.54
10364.34
10350.65
10336.89
10321.61
10296.52
10249.39
10173.22
10074.25
9971.255
9885.948
9831.896
9809.462
9808.898
9817.662
9826.474
9831.31
9832.015
9829.861
9825.887
9820.447
9813.515
9805.12
9795.593
9785.581
9775.917
9767.448
9760.885
9756.703
9755.09
9755.904
9758.594
9762.012
9764.072
9761.397
9749.428
9723.561
9681.288
9624.268
9558.646
9492.738
9433.234
9382.533
9339.211
9300.996
9267.421
9239.776
9218.861
9203.282
9190.235
9178.072
9167.094
9159.957
9151.975
10455.22
10441.95
10429.03
10411.73
10393.67
10377.03
10361.91
10346.42
10329.69
10313.31
10298.42
10280.78
10249.77
10194.46
10112.96
10016.84
9926.321
9859.634
9824.255
9815.488
9821.711
9831.46
9837.861
9839.058
9836.166
9830.951
9824.571
9817.414
9809.494
9800.835
9791.644
9782.291
9773.23
9764.965
9758.061
9753.151
9750.843
9751.443
9754.455
9757.973
9758.353
9750.754
9730.85
9697.097
9652.065
9601.509
9551.369
9504.705
9460.908
9417.77
9374.47
9332.751
9295.397
9263.767
9236.949
9213.177
9191.971
9174.171
9162.047
9150.481
10458.38
10440.22
10424.08
10404
10382.71
10361.88
10342.6
10324.34
10306.47
10290.03
10276.96
10265.93
10249.12
10214.52
10154.04
10071.01
9980.767
9902.947
9851.336
9828.128
9825.485
9831.816
9837.867
9839.404
9836.416
9830.76
9824.198
9817.602
9811.092
9804.473
9797.551
9790.234
9782.532
9774.601
9766.833
9759.912
9754.694
9751.806
9750.993
9750.502
9747.035
9736.768
9717.237
9689.024
9655.8
9622.241
9591.056
9561.378
9529.885
9493.749
9452.898
9409.812
9367.398
9327.166
9289.25
9253.715
9221.574
9193.985
9173.393
9152.295
10454.83
10430.52
10411.14
10388.78
10365.61
10342.32
10320.61
10301.42
10284.74
10270.9
10261.26
10255.93
10249.98
10232.67
10192.55
10125.77
10040.83
9955.459
9887.503
9846.291
9829.934
9829.043
9833.116
9835.264
9833.353
9828.421
9822.405
9816.66
9811.605
9807.027
9802.484
9797.545
9791.892
9785.416
9778.316
9771.124
9764.508
9758.799
9753.383
9746.385
9735.163
9717.714
9694.32
9668.124
9643.753
9624.525
9610.152
9596.798
9579.527
9555.226
9523.758
9486.856
9446.291
9403.163
9358.555
9314.217
9272.413
9234.348
9203.674
9167.753
10439.89
10410.15
10389
10365.93
10343.13
10320.29
10299.12
10281.46
10267.95
10258.35
10252.85
10251.78
10252.59
10247.2
10223.78
10173.61
10098.18
10010.63
9929.715
9870.468
9837.825
9826.695
9827.031
9829.722
9829.876
9826.764
9821.865
9816.872
9812.679
9809.31
9806.285
9803.005
9798.993
9794.042
9788.268
9782.005
9775.47
9768.267
9759.007
9745.54
9726.039
9700.588
9672.177
9646.006
9627.022
9617.101
9613.897
9612.263
9607.137
9595.655
9577.158
9551.805
9519.601
9480.782
9436.745
9390.008
9343.336
9297.591
9258.548
9205.863
10412.4
10379.99
10359.75
10338.36
10318.5
10299.12
10281.48
10267.46
10258.05
10252.74
10250.76
10252.04
10255.64
10256.57
10244.88
10209.78
10146.93
10063.35
9975.518
9901.461
9852.352
9828.79
9823.173
9825.399
9827.843
9827.281
9823.96
9819.532
9815.393
9812.041
9809.216
9806.356
9802.994
9798.977
9794.428
9789.463
9783.712
9775.885
9763.793
9745.177
9719.229
9687.975
9656.36
9630.451
9614.554
9609.097
9610.767
9614.721
9617.043
9615.634
9609.362
9596.889
9576.654
9547.955
9511.779
9470.24
9425.708
9378.238
9335.954
9269.772
10375.77
10344.82
10328.42
10311.15
10296.26
10282.38
10270.1
10260.64
10254.95
10252.61
10252.5
10254.17
10257.55
10260.39
10255.74
10233.15
10184.49
10110.52
10022.9
9939.481
9875.81
9838.535
9824.322
9823.907
9827.754
9829.872
9828.52
9824.675
9820.015
9815.631
9811.744
9808.076
9804.341
9800.514
9796.705
9792.723
9787.535
9779.046
9764.603
9742.318
9712.654
9679.202
9647.768
9623.915
9610.42
9606.335
9608.258
9612.657
9617.363
9621.295
9623.199
9620.983
9612.363
9596.051
9572.232
9541.816
9506.135
9464.119
9425.546
9354.116
10337.29
10311.81
10301.3
10289.72
10280.59
10272.59
10265.72
10260.31
10256.98
10255.64
10255.49
10256.02
10257.54
10259.69
10258.55
10245.63
10211.2
10150.79
10070
9983.582
9908.859
9857.714
9832.251
9826.056
9829.197
9833.304
9834.13
9831.209
9825.999
9820.091
9814.373
9809.1
9804.32
9800.127
9796.488
9792.743
9787.184
9777.197
9760.241
9735.391
9704.559
9672.378
9644.422
9624.687
9613.948
9610.13
9610.264
9612.379
9615.907
9620.646
9625.586
9628.784
9628.225
9622.624
9611.468
9594.35
9571.468
9540.661
9511.944
9445.917
10305.47
10287.92
10283.59
10277.81
10273.75
10270.39
10267.43
10264.49
10261.81
10259.7
10258.06
10256.68
10255.98
10256.52
10256.75
10250.76
10229.14
10183.96
10114.88
10031.59
9950.388
9886.578
9847.861
9832.355
9831.647
9836.07
9838.844
9837.381
9832.206
9825.056
9817.496
9810.481
9804.492
9799.678
9795.662
9791.17
9783.918
9771.212
9751.265
9724.592
9694.501
9666.022
9643.648
9629.283
9621.797
9618.425
9616.859
9616.37
9617.351
9620.067
9623.918
9627.729
9630.43
9631.253
9629.421
9623.727
9613.633
9596.32
9580.459
9529.032
10286.82
10277.21
10277.56
10276.23
10275.45
10274.55
10273.25
10270.88
10267.44
10263.54
10259.79
10256.47
10253.98
10253.09
10253.65
10252.19
10240.88
10210.4
10155.63
10080.49
9997.837
9924.016
9871.363
9843.417
9835.171
9837.286
9841.063
9841.449
9837.301
9829.909
9821.271
9813.037
9806.132
9800.652
9795.716
9789.396
9779.086
9762.546
9739.279
9711.426
9683.336
9659.745
9643.538
9634.572
9630.353
9627.977
9625.819
9623.839
9622.654
9622.543
9623.277
9624.595
9626.513
9628.985
9631.452
9632.668
9631.963
9626.501
9622.447
9590.108
10283.49
10279.6
10282
10282.88
10283.25
10282.64
10280.95
10277.66
10272.73
10266.89
10261.21
10256.39
10252.81
10251.05
10251.54
10252.62
10248.66
10230.66
10190.58
10126.96
10047.76
9967.846
9902.342
9860.051
9840.754
9837.283
9840.251
9842.34
9840.202
9833.964
9825.556
9817.08
9809.794
9803.64
9797.189
9788.004
9773.565
9752.594
9726.191
9697.948
9672.649
9654.103
9643.419
9638.86
9637.319
9636.232
9634.57
9632.468
9630.248
9627.927
9625.498
9623.387
9622.384
9623.049
9625.319
9628.502
9632.252
9634.254
9637.804
9623.211
10292.86
10291.32
10293.05
10293.87
10293.69
10291.96
10288.73
10283.86
10277.43
10270.15
10263.18
10257.42
10253.31
10251.15
10251.38
10253.48
10253.94
10245.31
10218.52
10168.03
10096.48
10015.2
9939.772
9883.064
9850.167
9837.717
9837.272
9840.064
9840.42
9836.655
9829.929
9822.319
9815.161
9808.19
9799.56
9786.68
9767.597
9742.374
9713.686
9686.078
9664.058
9650.063
9643.582
9641.941
9642.111
9642.166
9641.504
9640.11
9637.836
9634.401
9629.894
9625.05
9620.946
9618.446
9617.993
9619.624
9623.426
9627.816
9633.671
9631.023
10309.14
10306.81
10306.05
10305.24
10303.61
10300.38
10295.54
10289.26
10281.85
10273.91
10266.37
10260.16
10255.76
10253.32
10253.09
10255.09
10257.51
10254.97
10238.97
10201.62
10140.75
10062.99
9982.041
9912.898
9865.451
9841.162
9834.226
9835.765
9838.208
9837.672
9833.797
9827.954
9821.192
9813.036
9801.545
9784.488
9760.947
9732.463
9702.934
9677.15
9658.693
9648.459
9644.718
9644.526
9645.402
9646.111
9646.291
9645.667
9643.721
9640.027
9634.711
9628.503
9622.371
9617.184
9613.692
9612.446
9613.747
9616.621
9620.501
9622.455
10325.96
10321.01
10317.27
10314.24
10311.1
10306.8
10301.05
10294.15
10286.51
10278.61
10271.08
10264.68
10259.95
10257.03
10256.03
10257.15
10259.71
10260.38
10252.25
10226.77
10178.24
10108.32
10027.05
9949.261
9888.217
9850.354
9833.88
9831.421
9834.486
9837.026
9836.537
9832.92
9826.489
9816.595
9801.657
9780.382
9753.241
9723.114
9694.513
9671.719
9656.939
9649.643
9647.405
9647.542
9648.318
9649.06
9649.483
9649.107
9647.287
9643.656
9638.386
9632.045
9625.313
9618.891
9613.554
9609.948
9608.242
9607.775
9607.637
9608.215
10338.75
10330.97
10324.95
10319.98
10315.79
10311.18
10305.53
10298.94
10291.79
10284.42
10277.2
10270.69
10265.42
10261.67
10259.54
10259.25
10260.79
10262.46
10259.38
10243.69
10207.74
10148.83
10072.37
9990.875
9918.991
9867.358
9838.923
9829.366
9830.638
9835.053
9837.643
9836.163
9829.716
9817.519
9798.81
9773.748
9744.351
9714.471
9688.517
9669.627
9658.46
9653.386
9651.806
9651.609
9651.767
9651.959
9651.889
9651.011
9648.8
9645.102
9640.166
9634.395
9628.199
9622.056
9616.518
9611.93
9608.09
9604.396
9600.445
9596.678
10345.98
10336.4
10329.38
10323.27
10318.58
10314.28
10309.5
10303.96
10297.79
10291.2
10284.39
10277.71
10271.69
10266.78
10263.2
10261.2
10261.08
10262.3
10261.89
10253.54
10229.15
10182.89
10115.44
10035.48
9956.868
9892.942
9851.292
9831.773
9828.258
9832.383
9836.848
9836.858
9829.911
9815.073
9792.717
9764.751
9734.669
9706.792
9684.78
9670.251
9662.423
9659
9657.612
9656.813
9656.099
9655.307
9654.118
9652.083
9648.957
9644.863
9640.14
9635.108
9630.02
9625.131
9620.617
9616.311
9611.624
9605.935
9599.752
9591.685
10348.82
10338.95
10332.19
10325.79
10321
10317.21
10313.56
10309.36
10304.36
10298.58
10292.11
10285.21
10278.36
10272.13
10266.93
10263.1
10261.09
10261.03
10261.5
10258.02
10243.23
10209.62
10153.88
10080.13
9999.582
9926.365
9871.784
9840.286
9828.92
9829.884
9834.193
9834.539
9826.614
9809.235
9783.944
9754.356
9725.133
9700.55
9683.098
9672.822
9667.826
9665.587
9664.189
9662.767
9661.114
9659.096
9656.426
9652.873
9648.518
9643.735
9638.958
9634.5
9630.552
9627.16
9624.073
9620.634
9616.058
9609.796
9603.214
9592.733
10350.02
10341.07
10335.33
10329.23
10324.47
10320.96
10318.13
10315.06
10311.1
10306.01
10299.8
10292.68
10285.07
10277.58
10270.81
10265.24
10261.37
10259.67
10259.77
10258.93
10251.23
10228.89
10185.81
10121.72
10044
9965.614
9900.012
9855.82
9834.003
9828.603
9830.06
9829.138
9819.825
9800.518
9773.614
9743.998
9716.978
9696.361
9683.348
9676.676
9673.796
9672.312
9670.818
9668.844
9666.292
9663.008
9658.805
9653.717
9648.112
9642.537
9637.494
9633.332
9630.197
9627.92
9625.887
9623.154
9619.024
9613.154
9607.431
9596.753
10352.34
10344.82
10340.22
10334.61
10329.75
10326.05
10323.36
10320.81
10317.49
10312.89
10306.89
10299.63
10291.47
10283.02
10274.95
10267.87
10262.34
10258.95
10257.9
10257.86
10254.63
10241.21
10210.16
10157.68
10086.87
10007.96
9934.644
9878.536
9844.558
9829.67
9825.16
9820.98
9809.882
9789.657
9762.93
9735.049
9711.304
9694.742
9685.455
9681.364
9679.761
9678.606
9676.93
9674.464
9671.096
9666.669
9661.145
9654.801
9648.191
9641.943
9636.589
9632.476
9629.666
9627.774
9625.969
9623.312
9619.423
9614.243
9609.751
9600.335
10357.48
10351.13
10347.24
10341.97
10336.8
10332.38
10329.07
10326.27
10323.06
10318.7
10312.89
10305.66
10297.28
10288.28
10279.32
10271.08
10264.18
10259.19
10256.59
10256.01
10254.88
10247.65
10226.85
10186.41
10125.5
10050.59
9973.768
9907.893
9861.19
9834.183
9820.497
9810.775
9797.358
9777.333
9752.726
9728.321
9708.647
9695.842
9689.269
9686.62
9685.466
9684.229
9682.244
9679.287
9675.194
9669.849
9663.38
9656.231
9649.034
9642.413
9636.862
9632.652
9629.684
9627.396
9624.938
9621.636
9617.526
9612.791
9609.165
9601.311
10365.6
10359.69
10355.82
10350.52
10344.82
10339.36
10334.83
10331.11
10327.48
10323.13
10317.52
10310.52
10302.25
10293.12
10283.72
10274.72
10266.74
10260.34
10256.09
10254.16
10253.31
10249.68
10236.78
10207.6
10158.26
10091.16
10015.24
9942.743
9883.952
9843.058
9817.294
9799.622
9783.063
9764.064
9743.264
9723.812
9708.767
9699.287
9694.446
9692.254
9690.875
9689.21
9686.763
9683.272
9678.539
9672.537
9665.537
9658.072
9650.76
9644.149
9638.617
9634.259
9630.771
9627.498
9623.768
9619.317
9614.547
9609.748
9606.27
9599.349
10375.57
10369.22
10364.74
10359.02
10352.67
10346.1
10340.14
10335.11
10330.68
10326.11
10320.71
10314.09
10306.21
10297.31
10287.86
10278.46
10269.71
10262.15
10256.33
10252.72
10251
10248.92
10241.52
10222.02
10184.63
10127.97
10056.93
9981.411
9912.254
9856.865
9816.873
9788.995
9768.105
9750.314
9734.327
9720.795
9710.712
9704.214
9700.421
9698.049
9696.03
9693.705
9690.665
9686.593
9681.305
9674.885
9667.719
9660.358
9653.347
9647.102
9641.806
9637.311
9633.12
9628.602
9623.396
9617.654
9611.99
9606.64
9602.623
9595.602
10385.59
10378.15
10372.69
10366.26
10359.28
10351.81
10344.57
10338.2
10332.8
10327.85
10322.6
10316.44
10309.12
10300.69
10291.47
10281.96
10272.72
10264.27
10257.15
10251.9
10248.81
10246.91
10242.95
10231.17
10204.98
10159.99
10096.81
10021.78
9944.834
9875.688
9820.497
9780.672
9753.977
9736.722
9725.561
9718.186
9713.151
9709.482
9706.488
9703.727
9700.933
9697.854
9694.149
9689.486
9683.738
9677.105
9670.041
9663.076
9656.653
9651.01
9646.089
9641.485
9636.585
9630.904
9624.423
9617.596
9611.059
9604.882
9599.927
9591.898
10393.96
10385.18
10378.7
10371.49
10364
10355.99
10347.91
10340.49
10334.16
10328.72
10323.5
10317.76
10311.04
10303.2
10294.39
10285
10275.52
10266.47
10258.36
10251.77
10247.28
10244.88
10242.8
10236.73
10220.16
10186.65
10132.97
10061.42
9979.826
9899.04
9829.181
9776.567
9742.547
9724.322
9716.882
9715.034
9714.799
9713.974
9711.932
9708.958
9705.498
9701.688
9697.315
9692.104
9686.019
9679.346
9672.568
9666.167
9660.461
9655.489
9650.945
9646.238
9640.757
9634.24
9626.953
9619.467
9612.289
9605.285
9599.358
9589.869
10399.62
10389.66
10382.43
10374.57
10366.77
10358.59
10350.21
10342.19
10335.12
10329.13
10323.77
10318.31
10312.13
10304.91
10296.63
10287.53
10278.04
10268.66
10259.9
10252.35
10246.74
10243.62
10242.4
10240.14
10231.04
10207.64
10163.73
10097.81
10014.95
9925.877
9843.501
9778.471
9735.906
9714.615
9708.774
9710.928
9714.81
9716.857
9716.17
9713.414
9709.558
9705.121
9700.128
9694.459
9688.184
9681.637
9675.281
9669.517
9664.517
9660.122
9655.832
9650.989
9645.112
9638.185
9630.633
9622.965
9615.482
9607.88
9601.246
9590.38
10402.42
10391.7
10384.14
10375.9
10367.98
10359.94
10351.69
10343.52
10335.99
10329.45
10323.77
10318.39
10312.64
10306.01
10298.32
10289.67
10280.38
10270.92
10261.81
10253.67
10247.29
10243.5
10242.47
10242.36
10238.31
10222.73
10187.67
10128.64
10047.81
9954.712
9863.45
9787.731
9736.06
9709.435
9702.357
9706.201
9712.986
9717.74
9718.835
9716.824
9712.916
9708.004
9702.468
9696.45
9690.145
9683.89
9678.072
9672.962
9668.566
9664.544
9660.305
9655.264
9649.168
9642.209
9634.831
9627.359
9619.893
9612.042
9605.11
9593.355
10402.97
10392.02
10384.52
10376.2
10368.33
10360.55
10352.67
10344.67
10336.93
10329.92
10323.81
10318.31
10312.82
10306.74
10299.7
10291.63
10282.72
10273.38
10264.15
10255.7
10248.86
10244.54
10243.22
10243.8
10242.36
10231.86
10203.88
10152.12
10076.27
9983.822
9888.375
9804.954
9744.543
9710.624
9699.213
9701.882
9709.796
9716.693
9719.797
9718.999
9715.405
9710.205
9704.225
9697.963
9691.77
9685.957
9680.775
9676.306
9672.363
9668.48
9664.087
9658.797
9652.613
9645.857
9638.884
9631.804
9624.578
9616.813
9609.973
9597.996
10402.28
10391.52
10384.35
10376.2
10368.46
10360.94
10353.45
10345.76
10338.01
10330.66
10324.09
10318.34
10312.96
10307.35
10300.98
10293.58
10285.18
10276.12
10266.95
10258.39
10251.3
10246.52
10244.51
10244.5
10243.37
10235.15
10212.05
10167.29
10098.78
10011.5
9917.029
9829.818
9762.054
9719.623
9701.038
9699.45
9706.229
9714.182
9719.139
9719.846
9716.917
9711.673
9705.385
9698.973
9692.99
9687.716
9683.217
9679.338
9675.693
9671.753
9667.074
9661.526
9655.333
9648.857
9642.311
9635.631
9628.73
9621.277
9614.783
9603.192
10401.34
10391
10384.26
10376.41
10368.84
10361.49
10354.25
10346.85
10339.23
10331.7
10324.77
10318.7
10313.31
10308.05
10302.29
10295.58
10287.78
10279.12
10270.14
10261.62
10254.37
10249.08
10245.97
10244.26
10241.48
10233.03
10212.62
10174.15
10114.56
10036.29
9947.728
9861.055
9788.251
9737.122
9709.243
9700.496
9703.571
9710.952
9717.119
9719.364
9717.417
9712.451
9706.069
9699.61
9693.875
9689.139
9685.277
9681.881
9678.387
9674.274
9669.285
9663.534
9657.382
9651.149
9644.91
9638.517
9631.911
9624.852
9618.783
9607.976
10400.83
10390.94
10384.57
10377.06
10369.66
10362.36
10355.22
10348.01
10340.56
10333.05
10325.91
10319.56
10314.04
10308.96
10303.67
10297.58
10290.39
10282.21
10273.56
10265.18
10257.82
10251.87
10247.19
10242.85
10236.93
10226.31
10206.73
10173.62
10123.75
10057.19
9978.59
9896.63
9821.75
9762.869