/*--------------------------------*- C++ -*----------------------------------*\
| =========                 |                                                 |
| \\      /  F ield         | OpenFOAM: The Open Source CFD Toolbox           |
|  \\    /   O peration     | Version:  2312                                  |
|   \\  /    A nd           | Website:  www.openfoam.com                      |
|    \\/     M anipulation  |                                                 |
\*---------------------------------------------------------------------------*/
FoamFile
{
    version     2.0;
    format      ascii;
    arch        "LSB;label=32;scalar=64";
    class       volScalarField;
    location    "2500";
    object      ILambda_6_0;
}
// * * * * * * * * * * * * * * * * * * * * * * * * * * * * * * * * * * * * * //

dimensions      [1 0 -3 0 0 0 0];

internalField   nonuniform List<scalar> 
12000
(
1163.463
1162.031
1160.157
1157.484
1153.82
1149.216
1143.942
1138.41
1133.072
1128.333
1124.48
1121.663
1119.888
1119.049
1118.954
1119.363
1120.021
1120.68
1121.123
1121.178
1120.729
1119.724
1118.172
1116.143
1113.76
1111.177
1108.571
1106.113
1103.956
1102.217
1100.967
1100.229
1099.976
1100.143
1100.64
1101.358
1102.188
1103.035
1103.819
1104.486
1105.006
1105.373
1105.598
1105.704
1105.719
1105.665
1105.56
1105.413
1105.222
1104.97
1104.638
1104.202
1103.637
1102.926
1102.057
1101.029
1099.868
1098.526
1097.341
1094.988
1160.312
1157.571
1153.414
1147.994
1141.799
1135.483
1129.691
1124.924
1121.469
1119.392
1118.57
1118.752
1119.619
1120.833
1122.076
1123.073
1123.609
1123.534
1122.774
1121.326
1119.258
1116.701
1113.834
1110.867
1108.013
1105.469
1103.395
1101.895
1101.013
1100.731
1100.978
1101.64
1102.586
1103.673
1104.774
1105.785
1106.631
1107.273
1107.703
1107.938
1108.014
1107.972
1107.853
1107.69
1107.501
1107.292
1107.049
1106.75
1106.364
1105.859
1105.207
1104.388
1103.396
1102.238
1100.937
1099.525
1098.055
1096.523
1095.217
1093.015
1156.299
1150.827
1144.474
1137.963
1132.013
1127.151
1123.65
1121.538
1120.659
1120.74
1121.46
1122.498
1123.559
1124.397
1124.815
1124.677
1123.907
1122.496
1120.498
1118.028
1115.25
1112.36
1109.562
1107.048
1104.975
1103.448
1102.513
1102.157
1102.314
1102.879
1103.722
1104.711
1105.722
1106.655
1107.44
1108.038
1108.441
1108.667
1108.747
1108.72
1108.626
1108.494
1108.341
1108.169
1107.965
1107.707
1107.364
1106.903
1106.297
1105.527
1104.585
1103.479
1102.23
1100.872
1099.447
1098.003
1096.593
1095.223
1094.102
1092.362
1146.837
1139.814
1133.461
1128.307
1124.613
1122.384
1121.437
1121.484
1122.195
1123.251
1124.362
1125.28
1125.808
1125.798
1125.159
1123.865
1121.955
1119.533
1116.757
1113.825
1110.948
1108.33
1106.14
1104.499
1103.463
1103.03
1103.137
1103.68
1104.529
1105.546
1106.601
1107.586
1108.424
1109.072
1109.518
1109.774
1109.875
1109.859
1109.768
1109.634
1109.478
1109.305
1109.104
1108.854
1108.525
1108.083
1107.5
1106.753
1105.834
1104.746
1103.511
1102.161
1100.738
1099.293
1097.876
1096.531
1095.304
1094.192
1093.327
1092.079
1134.879
1129.519
1125.705
1123.426
1122.464
1122.51
1123.228
1124.298
1125.437
1126.402
1126.994
1127.061
1126.501
1125.275
1123.411
1121.005
1118.212
1115.231
1112.279
1109.569
1107.283
1105.551
1104.44
1103.952
1104.027
1104.56
1105.418
1106.457
1107.541
1108.557
1109.423
1110.091
1110.549
1110.81
1110.907
1110.883
1110.781
1110.638
1110.477
1110.303
1110.11
1109.875
1109.567
1109.152
1108.597
1107.881
1106.989
1105.926
1104.709
1103.371
1101.955
1100.511
1099.092
1097.746
1096.515
1095.429
1094.507
1093.732
1093.17
1092.37
1126.589
1124.441
1123.509
1123.55
1124.25
1125.307
1126.45
1127.445
1128.093
1128.236
1127.762
1126.618
1124.818
1122.446
1119.651
1116.633
1113.614
1110.818
1108.435
1106.609
1105.415
1104.863
1104.897
1105.411
1106.27
1107.325
1108.434
1109.48
1110.375
1111.068
1111.543
1111.813
1111.913
1111.887
1111.781
1111.633
1111.469
1111.298
1111.113
1110.892
1110.604
1110.213
1109.686
1108.997
1108.131
1107.09
1105.889
1104.561
1103.149
1101.702
1100.276
1098.92
1097.68
1096.588
1095.663
1094.911
1094.325
1093.864
1093.562
1093.052
1124.472
1124.611
1125.307
1126.341
1127.475
1128.49
1129.191
1129.412
1129.029
1127.974
1126.243
1123.91
1121.117
1118.062
1114.974
1112.084
1109.598
1107.67
1106.388
1105.766
1105.754
1106.247
1107.106
1108.178
1109.315
1110.393
1111.319
1112.038
1112.531
1112.812
1112.915
1112.885
1112.773
1112.617
1112.448
1112.277
1112.096
1111.887
1111.617
1111.249
1110.748
1110.086
1109.246
1108.227
1107.043
1105.725
1104.315
1102.865
1101.429
1100.061
1098.807
1097.703
1096.77
1096.016
1095.435
1095.005
1094.7
1094.463
1094.325
1093.918
1126.248
1127.352
1128.501
1129.538
1130.288
1130.586
1130.296
1129.332
1127.676
1125.387
1122.599
1119.509
1116.351
1113.367
1110.774
1108.74
1107.363
1106.667
1106.607
1107.076
1107.934
1109.023
1110.187
1111.298
1112.255
1113.001
1113.514
1113.806
1113.911
1113.878
1113.757
1113.594
1113.418
1113.244
1113.068
1112.869
1112.616
1112.271
1111.796
1111.161
1110.347
1109.35
1108.183
1106.874
1105.467
1104.012
1102.565
1101.182
1099.911
1098.79
1097.844
1097.082
1096.498
1096.076
1095.785
1095.589
1095.455
1095.318
1095.231
1094.774
1129.504
1130.592
1131.396
1131.77
1131.572
1130.703
1129.126
1126.886
1124.107
1120.984
1117.756
1114.674
1111.97
1109.824
1108.348
1107.573
1107.46
1107.903
1108.758
1109.862
1111.054
1112.198
1113.188
1113.962
1114.496
1114.798
1114.906
1114.869
1114.741
1114.568
1114.385
1114.207
1114.033
1113.844
1113.607
1113.283
1112.834
1112.226
1111.438
1110.464
1109.313
1108.014
1106.608
1105.148
1103.689
1102.289
1100.999
1099.858
1098.894
1098.119
1097.528
1097.106
1096.823
1096.645
1096.533
1096.447
1096.359
1096.21
1096.083
1095.494
1132.449
1132.936
1132.85
1132.087
1130.598
1128.412
1125.646
1122.492
1119.193
1116.011
1113.19
1110.927
1109.345
1108.487
1108.316
1108.729
1109.579
1110.698
1111.918
1113.096
1114.12
1114.923
1115.478
1115.793
1115.904
1115.863
1115.726
1115.542
1115.35
1115.168
1114.995
1114.813
1114.591
1114.289
1113.865
1113.284
1112.523
1111.571
1110.438
1109.149
1107.745
1106.278
1104.807
1103.389
1102.077
1100.914
1099.929
1099.137
1098.535
1098.108
1097.828
1097.66
1097.566
1097.506
1097.445
1097.352
1097.213
1096.983
1096.772
1096.049
1134.124
1133.476
1132.09
1129.971
1127.225
1124.042
1120.671
1117.384
1114.442
1112.055
1110.36
1109.412
1109.179
1109.559
1110.402
1111.534
1112.783
1113.994
1115.054
1115.887
1116.463
1116.791
1116.905
1116.86
1116.714
1116.519
1116.316
1116.128
1115.955
1115.78
1115.572
1115.29
1114.891
1114.338
1113.603
1112.674
1111.559
1110.281
1108.879
1107.407
1105.922
1104.485
1103.15
1101.963
1100.956
1100.143
1099.526
1099.091
1098.809
1098.647
1098.565
1098.523
1098.486
1098.423
1098.312
1098.139
1097.905
1097.58
1097.288
1096.486
1133.589
1131.553
1128.844
1125.639
1122.197
1118.802
1115.731
1113.212
1111.398
1110.353
1110.052
1110.395
1111.229
1112.374
1113.65
1114.896
1115.991
1116.855
1117.454
1117.794
1117.912
1117.862
1117.706
1117.499
1117.285
1117.089
1116.914
1116.744
1116.549
1116.287
1115.913
1115.387
1114.68
1113.776
1112.679
1111.412
1110.014
1108.536
1107.038
1105.581
1104.222
1103.01
1101.977
1101.143
1100.508
1100.061
1099.775
1099.614
1099.54
1099.512
1099.493
1099.453
1099.367
1099.223
1099.015
1098.744
1098.422
1098.033
1097.697
1096.892
1130.503
1127.276
1123.767
1120.265
1117.062
1114.404
1112.463
1111.314
1110.94
1111.242
1112.064
1113.221
1114.523
1115.805
1116.935
1117.83
1118.451
1118.805
1118.926
1118.871
1118.704
1118.484
1118.257
1118.051
1117.873
1117.708
1117.525
1117.282
1116.933
1116.434
1115.755
1114.876
1113.799
1112.545
1111.15
1109.667
1108.156
1106.679
1105.296
1104.056
1102.997
1102.138
1101.485
1101.024
1100.73
1100.568
1100.5
1100.482
1100.478
1100.455
1100.39
1100.267
1100.082
1099.836
1099.537
1099.196
1098.831
1098.427
1098.093
1097.342
1125.347
1121.758
1118.43
1115.634
1113.56
1112.301
1111.848
1112.104
1112.911
1114.077
1115.406
1116.722
1117.888
1118.814
1119.458
1119.825
1119.949
1119.888
1119.709
1119.474
1119.233
1119.017
1118.834
1118.672
1118.499
1118.275
1117.95
1117.479
1116.828
1115.975
1114.92
1113.679
1112.289
1110.802
1109.277
1107.78
1106.372
1105.105
1104.017
1103.134
1102.459
1101.982
1101.679
1101.514
1101.448
1101.439
1101.446
1101.438
1101.389
1101.284
1101.117
1100.889
1100.609
1100.289
1099.944
1099.584
1099.226
1098.85
1098.554
1097.872
1119.767
1116.878
1114.684
1113.315
1112.78
1112.986
1113.775
1114.947
1116.3
1117.65
1118.851
1119.808
1120.476
1120.856
1120.982
1120.915
1120.723
1120.472
1120.215
1119.987
1119.797
1119.636
1119.473
1119.266
1118.965
1118.522
1117.9
1117.075
1116.041
1114.815
1113.431
1111.941
1110.404
1108.887
1107.453
1106.157
1105.041
1104.13
1103.432
1102.938
1102.624
1102.455
1102.39
1102.387
1102.405
1102.409
1102.374
1102.283
1102.13
1101.916
1101.65
1101.344
1101.013
1100.672
1100.332
1099.999
1099.684
1099.356
1099.105
1098.468
1115.697
1114.312
1113.721
1113.884
1114.655
1115.834
1117.21
1118.592
1119.828
1120.817
1121.507
1121.899
1122.029
1121.955
1121.749
1121.48
1121.206
1120.962
1120.764
1120.602
1120.447
1120.256
1119.978
1119.564
1118.971
1118.174
1117.164
1115.954
1114.577
1113.084
1111.535
1109.998
1108.538
1107.213
1106.067
1105.129
1104.407
1103.894
1103.568
1103.393
1103.328
1103.33
1103.356
1103.372
1103.349
1103.271
1103.129
1102.926
1102.669
1102.373
1102.052
1101.722
1101.395
1101.08
1100.783
1100.5
1100.233
1099.942
1099.721
1099.075
1114.526
1114.754
1115.539
1116.733
1118.136
1119.553
1120.824
1121.842
1122.555
1122.959
1123.09
1123.008
1122.788
1122.5
1122.206
1121.946
1121.737
1121.572
1121.423
1121.247
1120.991
1120.604
1120.042
1119.273
1118.287
1117.095
1115.727
1114.232
1112.672
1111.116
1109.63
1108.275
1107.099
1106.131
1105.383
1104.851
1104.511
1104.329
1104.264
1104.269
1104.304
1104.33
1104.318
1104.251
1104.119
1103.925
1103.676
1103.385
1103.07
1102.746
1102.427
1102.122
1101.839
1101.575
1101.328
1101.087
1100.847
1100.563
1100.338
1099.628
1116.284
1117.6
1119.065
1120.528
1121.838
1122.888
1123.623
1124.039
1124.17
1124.079
1123.842
1123.534
1123.218
1122.939
1122.717
1122.546
1122.401
1122.238
1122.004
1121.644
1121.111
1120.372
1119.412
1118.238
1116.88
1115.385
1113.815
1112.24
1110.728
1109.343
1108.135
1107.137
1106.363
1105.809
1105.454
1105.265
1105.197
1105.207
1105.249
1105.284
1105.283
1105.227
1105.104
1104.917
1104.673
1104.387
1104.075
1103.754
1103.438
1103.139
1102.863
1102.612
1102.381
1102.162
1101.945
1101.715
1101.466
1101.149
1100.887
1100.071
1119.892
1121.479
1122.858
1123.951
1124.712
1125.14
1125.271
1125.169
1124.914
1124.584
1124.244
1123.944
1123.706
1123.527
1123.384
1123.232
1123.018
1122.684
1122.181
1121.472
1120.538
1119.384
1118.037
1116.543
1114.964
1113.37
1111.833
1110.417
1109.177
1108.147
1107.346
1106.77
1106.399
1106.201
1106.131
1106.143
1106.192
1106.237
1106.247
1106.2
1106.086
1105.906
1105.667
1105.383
1105.072
1104.751
1104.436
1104.139
1103.867
1103.622
1103.402
1103.198
1102.999
1102.794
1102.57
1102.311
1102.016
1101.635
1101.312
1100.377
1123.811
1124.998
1125.809
1126.259
1126.394
1126.283
1126.009
1125.653
1125.287
1124.962
1124.705
1124.517
1124.372
1124.229
1124.033
1123.725
1123.252
1122.573
1121.667
1120.534
1119.199
1117.707
1116.119
1114.507
1112.944
1111.498
1110.224
1109.163
1108.332
1107.733
1107.346
1107.137
1107.064
1107.079
1107.134
1107.189
1107.209
1107.172
1107.067
1106.893
1106.658
1106.376
1106.065
1105.742
1105.426
1105.128
1104.857
1104.616
1104.401
1104.207
1104.022
1103.834
1103.631
1103.4
1103.129
1102.81
1102.443
1101.985
1101.593
1100.552
1126.856
1127.371
1127.53
1127.417
1127.126
1126.745
1126.351
1125.999
1125.719
1125.516
1125.368
1125.232
1125.052
1124.769
1124.325
1123.676
1122.798
1121.688
1120.366
1118.877
1117.282
1115.652
1114.063
1112.585
1111.278
1110.183
1109.323
1108.699
1108.294
1108.075
1107.998
1108.015
1108.077
1108.14
1108.171
1108.144
1108.047
1107.88
1107.648
1107.368
1107.055
1106.731
1106.412
1106.111
1105.839
1105.598
1105.387
1105.198
1105.023
1104.848
1104.661
1104.449
1104.201
1103.909
1103.567
1103.17
1102.727
1102.196
1101.743
1100.626
1128.63
1128.547
1128.255
1127.856
1127.435
1127.054
1126.75
1126.529
1126.373
1126.241
1126.076
1125.816
1125.401
1124.783
1123.934
1122.846
1121.539
1120.054
1118.452
1116.805
1115.19
1113.681
1112.339
1111.21
1110.319
1109.669
1109.245
1109.014
1108.933
1108.951
1109.019
1109.092
1109.133
1109.116
1109.028
1108.867
1108.639
1108.359
1108.046
1107.719
1107.395
1107.091
1106.816
1106.574
1106.364
1106.179
1106.009
1105.844
1105.669
1105.471
1105.241
1104.969
1104.649
1104.279
1103.859
1103.388
1102.879
1102.292
1101.798
1100.641
1129.32
1128.954
1128.528
1128.127
1127.798
1127.558
1127.392
1127.26
1127.106
1126.867
1126.48
1125.893
1125.073
1124.01
1122.718
1121.238
1119.63
1117.966
1116.325
1114.783
1113.406
1112.242
1111.319
1110.642
1110.198
1109.955
1109.868
1109.888
1109.962
1110.044
1110.095
1110.089
1110.01
1109.855
1109.631
1109.352
1109.037
1108.706
1108.379
1108.07
1107.791
1107.546
1107.335
1107.152
1106.987
1106.828
1106.662
1106.476
1106.259
1106.002
1105.699
1105.349
1104.949
1104.503
1104.016
1103.488
1102.934
1102.316
1101.801
1100.634
1129.553
1129.186
1128.854
1128.601
1128.425
1128.291
1128.147
1127.927
1127.566
1127.009
1126.218
1125.179
1123.904
1122.43
1120.816
1119.136
1117.469
1115.895
1114.482
1113.281
1112.324
1111.62
1111.155
1110.898
1110.805
1110.825
1110.905
1110.996
1111.059
1111.063
1110.994
1110.845
1110.625
1110.347
1110.03
1109.696
1109.363
1109.049
1108.765
1108.517
1108.304
1108.121
1107.959
1107.805
1107.646
1107.469
1107.262
1107.018
1106.728
1106.392
1106.008
1105.58
1105.111
1104.607
1104.073
1103.513
1102.938
1102.309
1101.79
1100.632
1129.824
1129.622
1129.459
1129.332
1129.199
1128.996
1128.66
1128.131
1127.369
1126.355
1125.097
1123.63
1122.012
1120.315
1118.623
1117.016
1115.565
1114.327
1113.336
1112.602
1112.114
1111.843
1111.743
1111.764
1111.849
1111.95
1112.023
1112.039
1111.979
1111.837
1111.621
1111.344
1111.025
1110.687
1110.349
1110.029
1109.74
1109.487
1109.272
1109.089
1108.928
1108.778
1108.624
1108.454
1108.257
1108.022
1107.743
1107.418
1107.046
1106.631
1106.176
1105.688
1105.172
1104.633
1104.077
1103.505
1102.927
1102.302
1101.79
1100.648
1130.396
1130.345
1130.247
1130.071
1129.761
1129.262
1128.528
1127.539
1126.299
1124.84
1123.218
1121.506
1119.788
1118.147
1116.659
1115.382
1114.353
1113.588
1113.077
1112.79
1112.683
1112.703
1112.794
1112.904
1112.988
1113.015
1112.965
1112.832
1112.62
1112.344
1112.023
1111.68
1111.337
1111.011
1110.716
1110.458
1110.24
1110.055
1109.895
1109.748
1109.599
1109.436
1109.245
1109.019
1108.749
1108.433
1108.07
1107.665
1107.22
1106.743
1106.239
1105.715
1105.176
1104.625
1104.066
1103.498
1102.927
1102.313
1101.81
1100.683
1131.198
1131.113
1130.857
1130.396
1129.696
1128.734
1127.513
1126.062
1124.436
1122.709
1120.964
1119.289
1117.762
1116.444
1115.378
1114.581
1114.044
1113.74
1113.624
1113.643
1113.739
1113.858
1113.955
1113.993
1113.953
1113.828
1113.621
1113.346
1113.024
1112.677
1112.328
1111.995
1111.693
1111.431
1111.208
1111.022
1110.862
1110.717
1110.573
1110.415
1110.231
1110.011
1109.749
1109.44
1109.085
1108.687
1108.25
1107.781
1107.285
1106.771
1106.243
1105.706
1105.164
1104.617
1104.066
1103.507
1102.948
1102.343
1101.849
1100.735
1131.861
1131.501
1130.86
1129.936
1128.738
1127.298
1125.669
1123.925
1122.154
1120.444
1118.876
1117.517
1116.411
1115.579
1115.015
1114.692
1114.567
1114.585
1114.686
1114.814
1114.922
1114.973
1114.944
1114.826
1114.624
1114.351
1114.027
1113.676
1113.321
1112.982
1112.674
1112.405
1112.178
1111.989
1111.83
1111.686
1111.545
1111.392
1111.215
1111.002
1110.746
1110.444
1110.096
1109.703
1109.271
1108.807
1108.318
1107.81
1107.29
1106.762
1106.23
1105.697
1105.162
1104.625
1104.085
1103.537
1102.987
1102.392
1101.904
1100.803
1131.947
1131.113
1129.963
1128.543
1126.915
1125.157
1123.358
1121.611
1120.001
1118.599
1117.451
1116.583
1115.991
1115.649
1115.513
1115.528
1115.633
1115.77
1115.89
1115.953
1115.936
1115.827
1115.631
1115.359
1115.034
1114.679
1114.318
1113.972
1113.656
1113.381
1113.15
1112.958
1112.798
1112.656
1112.518
1112.37
1112.198
1111.991
1111.742
1111.446
1111.103
1110.715
1110.288
1109.828
1109.342
1108.838
1108.323
1107.801
1107.276
1106.752
1106.228
1105.705
1105.182
1104.655
1104.125
1103.585
1103.043
1102.455
1101.973
1100.887
1131.116
1129.766
1128.162
1126.4
1124.577
1122.794
1121.141
1119.692
1118.501
1117.595
1116.972
1116.608
1116.461
1116.472
1116.581
1116.728
1116.86
1116.935
1116.929
1116.83
1116.64
1116.371
1116.044
1115.685
1115.318
1114.964
1114.642
1114.36
1114.124
1113.929
1113.767
1113.626
1113.492
1113.348
1113.181
1112.98
1112.737
1112.447
1112.109
1111.726
1111.302
1110.845
1110.362
1109.86
1109.347
1108.828
1108.308
1107.789
1107.273
1106.759
1106.247
1105.735
1105.221
1104.703
1104.18
1103.648
1103.113
1102.534
1102.059
1100.991
1129.341
1127.623
1125.799
1123.988
1122.294
1120.799
1119.562
1118.614
1117.959
1117.572
1117.411
1117.419
1117.531
1117.687
1117.83
1117.919
1117.925
1117.835
1117.651
1117.385
1117.058
1116.694
1116.321
1115.96
1115.63
1115.342
1115.1
1114.901
1114.738
1114.598
1114.466
1114.327
1114.165
1113.97
1113.733
1113.448
1113.115
1112.735
1112.315
1111.86
1111.379
1110.878
1110.367
1109.85
1109.332
1108.816
1108.304
1107.796
1107.291
1106.789
1106.286
1105.783
1105.276
1104.765
1104.25
1103.725
1103.199
1102.63
1102.165
1101.114
1126.941
1125.161
1123.448
1121.914
1120.633
1119.644
1118.953
1118.541
1118.365
1118.368
1118.483
1118.647
1118.802
1118.904
1118.923
1118.843
1118.665
1118.402
1118.074
1117.707
1117.327
1116.959
1116.621
1116.326
1116.078
1115.876
1115.711
1115.572
1115.442
1115.307
1115.15
1114.961
1114.729
1114.45
1114.121
1113.746
1113.328
1112.875
1112.395
1111.895
1111.384
1110.867
1110.35
1109.836
1109.327
1108.822
1108.322
1107.825
1107.331
1106.836
1106.341
1105.844
1105.345
1104.842
1104.334
1103.82
1103.305
1102.748
1102.293
1101.256
1124.506
1123.002
1121.701
1120.678
1119.954
1119.516
1119.323
1119.319
1119.436
1119.608
1119.776
1119.891
1119.922
1119.853
1119.683
1119.422
1119.094
1118.723
1118.337
1117.961
1117.615
1117.312
1117.058
1116.852
1116.686
1116.546
1116.419
1116.288
1116.137
1115.953
1115.727
1115.453
1115.129
1114.757
1114.342
1113.891
1113.411
1112.912
1112.4
1111.884
1111.367
1110.853
1110.344
1109.841
1109.344
1108.851
1108.361
1107.873
1107.385
1106.898
1106.409
1105.92
1105.428
1104.935
1104.439
1103.936
1103.433
1102.886
1102.44
1101.409
1122.655
1121.677
1120.947
1120.491
1120.284
1120.273
1120.391
1120.57
1120.75
1120.879
1120.924
1120.865
1120.702
1120.446
1120.117
1119.742
1119.35
1118.966
1118.612
1118.301
1118.041
1117.83
1117.662
1117.523
1117.397
1117.27
1117.124
1116.946
1116.726
1116.457
1116.138
1115.77
1115.357
1114.908
1114.429
1113.929
1113.417
1112.9
1112.382
1111.868
1111.359
1110.857
1110.361
1109.87
1109.383
1108.899
1108.416
1107.934
1107.453
1106.972
1106.492
1106.012
1105.532
1105.05
1104.566
1104.074
1103.579
1103.038
1102.596
1101.56
1121.813
1121.425
1121.232
1121.224
1121.346
1121.534
1121.726
1121.869
1121.926
1121.879
1121.724
1121.472
1121.143
1120.765
1120.366
1119.974
1119.612
1119.293
1119.026
1118.811
1118.639
1118.5
1118.377
1118.253
1118.113
1117.941
1117.726
1117.463
1117.149
1116.785
1116.375
1115.926
1115.448
1114.948
1114.435
1113.916
1113.398
1112.882
1112.373
1111.871
1111.376
1110.886
1110.4
1109.918
1109.438
1108.96
1108.483
1108.008
1107.534
1107.063
1106.593
1106.125
1105.657
1105.187
1104.712
1104.226
1103.735
1103.193
1102.748
1101.697
1122.053
1122.13
1122.286
1122.493
1122.701
1122.859
1122.931
1122.895
1122.749
1122.501
1122.172
1121.79
1121.385
1120.986
1120.614
1120.287
1120.013
1119.793
1119.619
1119.479
1119.358
1119.238
1119.103
1118.936
1118.728
1118.471
1118.162
1117.801
1117.394
1116.947
1116.469
1115.968
1115.454
1114.934
1114.414
1113.898
1113.388
1112.885
1112.389
1111.9
1111.415
1110.934
1110.455
1109.979
1109.504
1109.032
1108.563
1108.097
1107.634
1107.175
1106.718
1106.261
1105.803
1105.34
1104.868
1104.383
1103.888
1103.337
1102.884
1101.81
1123.105
1123.407
1123.659
1123.844
1123.934
1123.912
1123.775
1123.531
1123.203
1122.818
1122.407
1121.999
1121.619
1121.284
1121.002
1120.776
1120.599
1120.459
1120.34
1120.224
1120.094
1119.933
1119.732
1119.48
1119.176
1118.819
1118.415
1117.969
1117.492
1116.991
1116.476
1115.954
1115.432
1114.914
1114.403
1113.899
1113.403
1112.913
1112.429
1111.948
1111.47
1110.995
1110.521
1110.051
1109.584
1109.12
1108.662
1108.208
1107.757
1107.31
1106.863
1106.414
1105.96
1105.498
1105.023
1104.53
1104.024
1103.46
1102.993
1101.895
1124.508
1124.786
1124.921
1124.924
1124.799
1124.563
1124.236
1123.848
1123.431
1123.015
1122.626
1122.282
1121.993
1121.761
1121.581
1121.44
1121.323
1121.211
1121.085
1120.931
1120.736
1120.491
1120.192
1119.839
1119.438
1118.994
1118.517
1118.016
1117.499
1116.976
1116.452
1115.933
1115.42
1114.915
1114.418
1113.927
1113.443
1112.962
1112.484
1112.009
1111.536
1111.066
1110.599
1110.137
1109.681
1109.229
1108.783
1108.341
1107.902
1107.462
1107.02
1106.573
1106.116
1105.647
1105.161
1104.655
1104.134
1103.554
1103.073
1101.953
1125.808
1125.895
1125.809
1125.589
1125.268
1124.879
1124.457
1124.033
1123.635
1123.281
1122.985
1122.747
1122.564
1122.422
1122.306
1122.198
1122.078
1121.93
1121.741
1121.503
1121.209
1120.861
1120.463
1120.021
1119.544
1119.043
1118.525
1118
1117.474
1116.953
1116.438
1115.932
1115.434
1114.943
1114.457
1113.976
1113.498
1113.022
1112.549
1112.079
1111.613
1111.151
1110.695
1110.245
1109.801
1109.362
1108.927
1108.494
1108.06
1107.622
1107.178
1106.724
1106.257
1105.774
1105.274
1104.752
1104.215
1103.619
1103.126
1101.991
1126.723
1126.576
1126.284
1125.904
1125.48
1125.05
1124.643
1124.281
1123.977
1123.734
1123.547
1123.404
1123.29
1123.185
1123.071
1122.929
1122.748
1122.515
1122.228
1121.885
1121.49
1121.05
1120.574
1120.072
1119.553
1119.026
1118.498
1117.975
1117.459
1116.951
1116.451
1115.959
1115.473
1114.992
1114.513
1114.037
1113.563
1113.092
1112.625
1112.163
1111.706
1111.257
1110.813
1110.376
1109.944
1109.515
1109.086
1108.655
1108.219
1107.775
1107.321
1106.854
1106.372
1105.873
1105.356
1104.819
1104.269
1103.662
1103.161
1102.018
1127.204
1126.889
1126.488
1126.061
1125.649
1125.28
1124.968
1124.719
1124.528
1124.385
1124.272
1124.172
1124.063
1123.929
1123.754
1123.529
1123.247
1122.909
1122.518
1122.08
1121.605
1121.103
1120.583
1120.054
1119.525
1118.999
1118.481
1117.972
1117.471
1116.978
1116.491
1116.009
1115.529
1115.052
1114.578
1114.106
1113.638
1113.175
1112.717
1112.267
1111.823
1111.387
1110.956
1110.528
1110.103
1109.677
1109.246
1108.81
1108.364
1107.907
1107.438
1106.954
1106.456
1105.941
1105.411
1104.863
1104.304
1103.691
1103.186
1102.041
1127.393
1127.029
1126.637
1126.27
1125.955
1125.701
1125.508
1125.364
1125.253
1125.157
1125.054
1124.927
1124.76
1124.542
1124.267
1123.935
1123.547
1123.112
1122.638
1122.136
1121.615
1121.085
1120.553
1120.026
1119.506
1118.995
1118.493
1117.999
1117.511
1117.028
1116.548
1116.07
1115.594
1115.121
1114.652
1114.187
1113.728
1113.277
1112.833
1112.395
1111.965
1111.539
1111.115
1110.691
1110.265
1109.833
1109.394
1108.944
1108.483
1108.01
1107.524
1107.025
1106.512
1105.986
1105.447
1104.892
1104.329
1103.714
1103.209
1102.063
1127.516
1127.215
1126.921
1126.673
1126.481
1126.338
1126.231
1126.139
1126.043
1125.923
1125.764
1125.554
1125.287
1124.96
1124.577
1124.145
1123.673
1123.17
1122.648
1122.117
1121.583
1121.054
1120.532
1120.019
1119.516
1119.021
1118.533
1118.049
1117.568
1117.089
1116.613
1116.138
1115.667
1115.201
1114.741
1114.287
1113.842
1113.404
1112.973
1112.547
1112.124
1111.702
1111.278
1110.85
1110.415
1109.97
1109.515
1109.049
1108.571
1108.082
1107.581
1107.07
1106.548
1106.015
1105.472
1104.915
1104.351
1103.736
1103.232
1102.085
1127.773
1127.597
1127.432
1127.3
1127.2
1127.115
1127.027
1126.916
1126.766
1126.565
1126.305
1125.985
1125.607
1125.178
1124.708
1124.206
1123.683
1123.15
1122.615
1122.084
1121.56
1121.046
1120.541
1120.045
1119.556
1119.072
1118.59
1118.111
1117.633
1117.157
1116.685
1116.217
1115.754
1115.3
1114.852
1114.413
1113.981
1113.555
1113.132
1112.711
1112.289
1111.863
1111.43
1110.989
1110.539
1110.077
1109.605
1109.123
1108.63
1108.128
1107.618
1107.099
1106.573
1106.038
1105.495
1104.938
1104.375
1103.759
1103.254
1102.101
1128.265
1128.212
1128.145
1128.078
1128.002
1127.902
1127.763
1127.571
1127.32
1127.008
1126.636
1126.211
1125.743
1125.242
1124.719
1124.185
1123.648
1123.115
1122.589
1122.074
1121.568
1121.071
1120.582
1120.096
1119.614
1119.134
1118.655
1118.178
1117.704
1117.234
1116.77
1116.313
1115.864
1115.424
1114.99
1114.563
1114.141
1113.72
1113.298
1112.874
1112.443
1112.004
1111.557
1111.099
1110.631
1110.152
1109.665
1109.169
1108.667
1108.157
1107.643
1107.122
1106.595
1106.061
1105.518
1104.961
1104.397
1103.778
1103.27
1102.106
1128.972
1128.988
1128.951
1128.873
1128.749
1128.571
1128.33
1128.027
1127.662
1127.242
1126.777
1126.277
1125.755
1125.22
1124.681
1124.147
1123.62
1123.103
1122.596
1122.099
1121.608
1121.123
1120.64
1120.16
1119.68
1119.202
1118.726
1118.254
1117.788
1117.329
1116.878
1116.436
1116.001
1115.573
1115.15
1114.729
1114.308
1113.884
1113.455
1113.018
1112.572
1112.116
1111.651
1111.175
1110.692
1110.2
1109.702
1109.199
1108.691
1108.18
1107.665
1107.145
1106.619
1106.085
1105.541
1104.981
1104.413
1103.788
1103.274
1102.093
1129.785
1129.792
1129.709
1129.554
1129.33
1129.038
1128.682
1128.268
1127.807
1127.31
1126.789
1126.253
1125.714
1125.179
1124.651
1124.133
1123.625
1123.127
1122.637
1122.151
1121.668
1121.187
1120.706
1120.227
1119.75
1119.276
1118.808
1118.347
1117.894
1117.45
1117.013
1116.584
1116.16
1115.739
1115.318
1114.895
1114.466
1114.031
1113.586
1113.132
1112.668
1112.195
1111.713
1111.224
1110.729
1110.23
1109.727
1109.221
1108.713
1108.202
1107.688
1107.168
1106.642
1106.106
1105.558
1104.993
1104.417
1103.782
1103.259
1102.061
1130.556
1130.485
1130.303
1130.033
1129.691
1129.287
1128.833
1128.339
1127.819
1127.285
1126.746
1126.209
1125.68
1125.162
1124.654
1124.156
1123.665
1123.18
1122.697
1122.215
1121.734
1121.254
1120.776
1120.3
1119.83
1119.367
1118.912
1118.466
1118.028
1117.597
1117.172
1116.751
1116.33
1115.907
1115.479
1115.044
1114.6
1114.147
1113.685
1113.212
1112.732
1112.244
1111.751
1111.254
1110.754
1110.252
1109.748
1109.243
1108.736
1108.226
1107.711
1107.19
1106.66
1106.118
1105.563
1104.989
1104.403
1103.757
1103.223
1102.008
1131.164
1130.976
1130.673
1130.29
1129.846
1129.36
1128.844
1128.311
1127.773
1127.237
1126.708
1126.19
1125.682
1125.185
1124.694
1124.209
1123.727
1123.245
1122.764
1122.283
1121.803
1121.326
1120.855
1120.389
1119.932
1119.484
1119.044
1118.612
1118.186
1117.764
1117.343
1116.92
1116.493
1116.058
1115.616
1115.163
1114.701
1114.23
1113.75
1113.263
1112.771
1112.274
1111.776
1111.276
1110.775
1110.273
1109.771
1109.267
1108.76
1108.248
1107.73
1107.203
1106.666
1106.116
1105.55
1104.965
1104.367
1103.71
1103.166
1101.937
1131.544
1131.238
1130.831
1130.363
1129.856
1129.329
1128.794
1128.259
1127.732
1127.214
1126.708
1126.211
1125.722
1125.238
1124.756
1124.275
1123.794
1123.312
1122.832
1122.354
1121.88
1121.413
1120.954
1120.504
1120.063
1119.629
1119.202
1118.78
1118.358
1117.935
1117.508
1117.074
1116.632
1116.18
1115.719
1115.248
1114.768
1114.281
1113.789
1113.293
1112.795
1112.296
1111.796
1111.297
1110.797
1110.297
1109.795
1109.289
1108.779
1108.262
1107.737
1107.202
1106.654
1106.093
1105.516
1104.919
1104.31
1103.643
1103.092
1101.856
1131.705
1131.311
1130.839
1130.328
1129.802
1129.272
1128.748
1128.233
1127.728
1127.234
1126.746
1126.264
1125.784
1125.305
1124.824
1124.343
1123.862
1123.383
1122.908
1122.439
1121.978
1121.526
1121.083
1120.648
1120.22
1119.797
1119.375
1118.952
1118.525
1118.092
1117.65
1117.199
1116.738
1116.267
1115.787
1115.3
1114.808
1114.312
1113.814
1113.314
1112.815
1112.317
1111.819
1111.32
1110.821
1110.32
1109.815
1109.305
1108.787
1108.262
1107.727
1107.18
1106.621
1106.048
1105.46
1104.854
1104.237
1103.564
1103.008
1101.772
1131.708
1131.272
1130.778
1130.265
1129.75
1129.24
1128.74
1128.25
1127.766
1127.287
1126.809
1126.332
1125.853
1125.372
1124.892
1124.412
1123.936
1123.466
1123.003
1122.549
1122.104
1121.668
1121.24
1120.816
1120.394
1119.971
1119.544
1119.111
1118.67
1118.219
1117.758
1117.287
1116.808
1116.321
1115.828
1115.331
1114.832
1114.333
1113.833
1113.335
1112.837
1112.34
1111.843
1111.344
1110.842
1110.336
1109.824
1109.305
1108.778
1108.242
1107.695
1107.137
1106.567
1105.984
1105.388
1104.775
1104.154
1103.48
1102.924
1101.698
1131.639
1131.201
1130.719
1130.228
1129.738
1129.254
1128.776
1128.302
1127.829
1127.355
1126.878
1126.4
1125.92
1125.441
1124.964
1124.493
1124.029
1123.573
1123.127
1122.69
1122.26
1121.836
1121.414
1120.991
1120.565
1120.133
1119.692
1119.242
1118.781
1118.31
1117.83
1117.343
1116.849
1116.352
1115.852
1115.352
1114.852
1114.353
1113.855
1113.358
1112.861
1112.364
1111.864
1111.361
1110.853
1110.338
1109.816
1109.286
1108.747
1108.199
1107.641
1107.073
1106.495
1105.906
1105.305
1104.69
1104.07
1103.401
1102.85
1101.646
1131.57
1131.155
1130.702
1130.237
1129.771
1129.305
1128.839
1128.37
1127.898
1127.422
1126.945
1126.467
1125.991
1125.519
1125.054
1124.598
1124.151
1123.713
1123.282
1122.858
1122.436
1122.013
1121.588
1121.156
1120.716
1120.266
1119.805
1119.335
1118.855
1118.367
1117.872
1117.374
1116.873
1116.372
1115.871
1115.371
1114.873
1114.376
1113.879
1113.382
1112.884
1112.382
1111.876
1111.364
1110.846
1110.32
1109.787
1109.245
1108.695
1108.136
1107.57
1106.995
1106.412
1105.821
1105.221
1104.611
1103.997
1103.34
1102.8
1101.629
1131.545
1131.16
1130.731
1130.286
1129.832
1129.373
1128.908
1128.437
1127.964
1127.488
1127.014
1126.543
1126.078
1125.622
1125.174
1124.736
1124.305
1123.88
1123.458
1123.036
1122.611
1122.18
1121.741
1121.292
1120.832
1120.361
1119.881
1119.393
1118.898
1118.398