/*--------------------------------*- C++ -*----------------------------------*\
| =========                 |                                                 |
| \\      /  F ield         | OpenFOAM: The Open Source CFD Toolbox           |
|  \\    /   O peration     | Version:  2312                                  |
|   \\  /    A nd           | Website:  www.openfoam.com                      |
|    \\/     M anipulation  |                                                 |
\*---------------------------------------------------------------------------*/
FoamFile
{
    version     2.0;
    format      ascii;
    arch        "LSB;label=32;scalar=64";
    class       volScalarField;
    location    "2500";
    object      ILambda_3_0;
}
// * * * * * * * * * * * * * * * * * * * * * * * * * * * * * * * * * * * * * //

dimensions      [1 0 -3 0 0 0 0];

internalField   nonuniform List<scalar> 
12000
(
1141.009
1093.993
1049.291
1007.834
969.7231
934.8238
902.9402
873.8662
847.4027
823.3648
801.5803
781.8863
764.1263
748.15
733.814
720.9821
709.5254
699.3236
690.2652
682.2469
675.1727
668.9531
663.5053
658.752
654.6211
651.0454
647.9628
645.3165
643.0544
641.129
639.497
638.1196
636.9623
635.9945
635.1863
634.5083
633.9301
633.4323
633.0107
632.6557
632.3274
631.9729
631.5795
631.1857
630.79
630.323
629.7412
629.0861
628.3729
627.5377
626.5283
625.3491
623.991
622.3934
620.5145
618.2791
615.7101
612.306
609.104
599.7819
1168.068
1178.881
1185.159
1186.872
1184.433
1178.347
1169.115
1157.204
1143.044
1127.023
1109.494
1090.777
1071.159
1050.9
1030.232
1009.359
988.4642
967.7042
947.2161
927.1167
907.5053
888.4646
870.063
852.3555
835.3848
819.183
803.7723
789.1657
775.3686
762.3793
750.1901
738.7878
728.1547
718.2692
709.107
700.6422
692.8479
685.6936
679.1433
673.1614
667.7211
662.8002
658.3664
654.37
650.7721
647.5566
644.7032
642.166
639.9036
637.9002
636.1404
634.5897
633.2152
631.9986
630.9205
629.9542
629.0949
628.2742
627.788
626.8317
1158.717
1160.619
1163.787
1167.821
1172.272
1176.733
1180.857
1184.357
1187.003
1188.615
1189.06
1188.242
1186.103
1182.614
1177.773
1171.602
1164.141
1155.447
1145.589
1134.647
1122.71
1109.87
1096.226
1081.877
1066.924
1051.467
1035.604
1019.431
1003.04
986.5194
969.953
953.4191
936.9909
920.7357
904.7152
888.9854
873.5965
858.5934
844.015
829.8941
816.2588
803.1331
790.5372
778.4855
766.9865
756.0458
745.6672
735.8505
726.5902
717.8789
709.7084
702.0681
694.9446
688.323
682.1892
676.5196
671.3285
666.4515
662.5495
656.5277
1150.514
1150.723
1150.997
1151.494
1152.329
1153.569
1155.237
1157.318
1159.769
1162.522
1165.493
1168.587
1171.702
1174.732
1177.572
1180.117
1182.271
1183.941
1185.045
1185.509
1185.268
1184.269
1182.468
1179.834
1176.342
1171.983
1166.752
1160.656
1153.711
1145.938
1137.367
1128.034
1117.981
1107.254
1095.902
1083.98
1071.542
1058.648
1045.355
1031.723
1017.812
1003.682
989.3886
974.9904
960.5421
946.0969
931.7052
917.4149
903.2714
889.317
875.5907
862.1282
848.9626
836.122
823.6379
811.5084
799.8602
788.2338
778.7253
762.1616
1138.425
1138.925
1139.362
1139.743
1140.086
1140.424
1140.793
1141.238
1141.799
1142.515
1143.418
1144.534
1145.878
1147.458
1149.272
1151.307
1153.544
1155.954
1158.502
1161.144
1163.835
1166.521
1169.15
1171.663
1174.004
1176.114
1177.937
1179.418
1180.504
1181.146
1181.298
1180.921
1179.976
1178.434
1176.267
1173.455
1169.984
1165.843
1161.028
1155.54
1149.385
1142.575
1135.126
1127.056
1118.39
1109.156
1099.384
1089.108
1078.364
1067.19
1055.627
1043.716
1031.499
1019.016
1006.319
993.4139
980.5011
966.9371
955.6741
934.3132
1128.354
1128.589
1128.839
1129.107
1129.385
1129.665
1129.942
1130.212
1130.476
1130.74
1131.013
1131.308
1131.643
1132.033
1132.499
1133.059
1133.733
1134.536
1135.485
1136.59
1137.86
1139.3
1140.911
1142.689
1144.625
1146.708
1148.92
1151.24
1153.644
1156.104
1158.589
1161.064
1163.494
1165.841
1168.065
1170.128
1171.988
1173.608
1174.947
1175.968
1176.635
1176.914
1176.773
1176.183
1175.118
1173.554
1171.472
1168.854
1165.689
1161.967
1157.682
1152.832
1147.419
1141.444
1134.925
1127.839
1120.332
1111.872
1104.732
1089.614
1124.593
1124.346
1124.121
1123.929
1123.775
1123.658
1123.577
1123.527
1123.504
1123.504
1123.521
1123.553
1123.596
1123.65
1123.715
1123.793
1123.888
1124.006
1124.155
1124.343
1124.581
1124.879
1125.249
1125.703
1126.251
1126.907
1127.678
1128.574
1129.603
1130.769
1132.076
1133.525
1135.113
1136.837
1138.69
1140.662
1142.74
1144.91
1147.154
1149.452
1151.781
1154.119
1156.437
1158.71
1160.908
1163.002
1164.961
1166.754
1168.351
1169.72
1170.832
1171.657
1172.167
1172.334
1172.135
1171.533
1170.558
1168.98
1167.582
1163.251
1125.507
1124.997
1124.486
1123.988
1123.509
1123.052
1122.619
1122.212
1121.832
1121.48
1121.154
1120.854
1120.578
1120.326
1120.095
1119.884
1119.689
1119.51
1119.345
1119.194
1119.056
1118.932
1118.823
1118.734
1118.666
1118.625
1118.616
1118.645
1118.719
1118.847
1119.036
1119.295
1119.632
1120.055
1120.573
1121.193
1121.922
1122.765
1123.728
1124.813
1126.023
1127.358
1128.816
1130.395
1132.089
1133.891
1135.793
1137.782
1139.848
1141.974
1144.144
1146.34
1148.542
1150.73
1152.878
1154.967
1156.961
1158.878
1160.462
1162.776
1128.601
1128.014
1127.415
1126.815
1126.219
1125.629
1125.048
1124.476
1123.913
1123.363
1122.824
1122.299
1121.789
1121.293
1120.814
1120.35
1119.903
1119.472
1119.057
1118.658
1118.273
1117.902
1117.544
1117.199
1116.865
1116.542
1116.23
1115.93
1115.641
1115.365
1115.103
1114.859
1114.634
1114.432
1114.257
1114.114
1114.008
1113.946
1113.932
1113.973
1114.076
1114.248
1114.495
1114.825
1115.242
1115.753
1116.364
1117.078
1117.899
1118.831
1119.874
1121.029
1122.295
1123.67
1125.148
1126.73
1128.383
1130.2
1131.738
1134.759
1131.745
1131.205
1130.645
1130.078
1129.508
1128.936
1128.364
1127.792
1127.22
1126.649
1126.079
1125.51
1124.942
1124.377
1123.815
1123.256
1122.701
1122.152
1121.608
1121.07
1120.539
1120.016
1119.5
1118.993
1118.494
1118.003
1117.521
1117.047
1116.581
1116.122
1115.671
1115.227
1114.79
1114.36
1113.936
1113.521
1113.113
1112.714
1112.326
1111.95
1111.588
1111.243
1110.918
1110.616
1110.342
1110.098
1109.891
1109.724
1109.603
1109.533
1109.519
1109.567
1109.682
1109.869
1110.131
1110.476
1110.894
1111.438
1111.911
1113.05
1133.942
1133.506
1133.045
1132.573
1132.094
1131.61
1131.122
1130.63
1130.135
1129.635
1129.132
1128.625
1128.114
1127.599
1127.08
1126.556
1126.029
1125.498
1124.963
1124.426
1123.886
1123.344
1122.8
1122.256
1121.711
1121.166
1120.622
1120.08
1119.539
1119
1118.464
1117.93
1117.4
1116.872
1116.348
1115.827
1115.308
1114.792
1114.28
1113.769
1113.261
1112.756
1112.253
1111.754
1111.257
1110.765
1110.277
1109.795
1109.321
1108.855
1108.4
1107.958
1107.53
1107.12
1106.731
1106.364
1106.025
1105.707
1105.451
1105.031
1134.167
1133.896
1133.597
1133.282
1132.955
1132.62
1132.277
1131.927
1131.569
1131.204
1130.831
1130.451
1130.063
1129.668
1129.264
1128.853
1128.433
1128.005
1127.569
1127.125
1126.673
1126.214
1125.746
1125.272
1124.79
1124.301
1123.806
1123.305
1122.799
1122.287
1121.771
1121.25
1120.726
1120.199
1119.669
1119.137
1118.602
1118.066
1117.528
1116.989
1116.448
1115.906
1115.363
1114.819
1114.273
1113.725
1113.176
1112.624
1112.07
1111.513
1110.954
1110.391
1109.824
1109.253
1108.679
1108.099
1107.521
1106.91
1106.406
1105.375
1131.874
1131.791
1131.679
1131.55
1131.409
1131.257
1131.097
1130.927
1130.749
1130.561
1130.363
1130.155
1129.938
1129.71
1129.471
1129.222
1128.961
1128.69
1128.408
1128.115
1127.81
1127.495
1127.169
1126.831
1126.483
1126.124
1125.754
1125.374
1124.984
1124.584
1124.174
1123.754
1123.326
1122.888
1122.442
1121.988
1121.526
1121.056
1120.58
1120.096
1119.606
1119.109
1118.607
1118.099
1117.585
1117.066
1116.541
1116.011
1115.475
1114.933
1114.385
1113.829
1113.267
1112.695
1112.115
1111.523
1110.927
1110.285
1109.755
1108.63
1127.188
1127.258
1127.301
1127.332
1127.353
1127.369
1127.378
1127.38
1127.376
1127.365
1127.346
1127.318
1127.281
1127.235
1127.179
1127.112
1127.034
1126.944
1126.844
1126.731
1126.606
1126.47
1126.32
1126.159
1125.985
1125.798
1125.599
1125.387
1125.163
1124.926
1124.677
1124.416
1124.142
1123.856
1123.559
1123.249
1122.928
1122.595
1122.251
1121.895
1121.529
1121.151
1120.763
1120.365
1119.956
1119.537
1119.108
1118.669
1118.221
1117.761
1117.292
1116.812
1116.321
1115.818
1115.304
1114.774
1114.237
1113.654
1113.173
1112.129
1121.486
1121.582
1121.661
1121.736
1121.813
1121.892
1121.974
1122.059
1122.145
1122.231
1122.317
1122.402
1122.485
1122.564
1122.639
1122.709
1122.774
1122.831
1122.882
1122.925
1122.959
1122.985
1123.001
1123.007
1123.003
1122.989
1122.963
1122.926
1122.878
1122.819
1122.747
1122.663
1122.568
1122.459
1122.339
1122.206
1122.06
1121.901
1121.73
1121.546
1121.349
1121.139
1120.916
1120.68
1120.43
1120.168
1119.892
1119.603
1119.301
1118.985
1118.655
1118.31
1117.951
1117.576
1117.186
1116.777
1116.356
1115.89
1115.504
1114.632
1116.705
1116.685
1116.656
1116.633
1116.621
1116.622
1116.636
1116.662
1116.701
1116.75
1116.809
1116.877
1116.953
1117.035
1117.123
1117.216
1117.312
1117.411
1117.512
1117.614
1117.715
1117.816
1117.916
1118.013
1118.107
1118.198
1118.284
1118.365
1118.44
1118.51
1118.573
1118.629
1118.677
1118.717
1118.748
1118.771
1118.784
1118.787
1118.78
1118.763
1118.734
1118.695
1118.643
1118.58
1118.504
1118.416
1118.315
1118.2
1118.071
1117.928
1117.77
1117.597
1117.407
1117.201
1116.976
1116.732
1116.472
1116.17
1115.919
1115.295
1114.567
1114.332
1114.092
1113.862
1113.648
1113.453
1113.278
1113.122
1112.985
1112.866
1112.765
1112.682
1112.614
1112.562
1112.525
1112.501
1112.491
1112.493
1112.506
1112.53
1112.563
1112.606
1112.657
1112.716
1112.781
1112.853
1112.93
1113.011
1113.097
1113.185
1113.276
1113.369
1113.462
1113.556
1113.65
1113.742
1113.833
1113.921
1114.006
1114.087
1114.164
1114.236
1114.302
1114.362
1114.415
1114.46
1114.496
1114.524
1114.541
1114.548
1114.543
1114.526
1114.495
1114.45
1114.389
1114.31
1114.215
1114.087
1113.98
1113.629
1115.523
1115.078
1114.625
1114.179
1113.747
1113.331
1112.934
1112.556
1112.196
1111.856
1111.535
1111.232
1110.948
1110.681
1110.433
1110.202
1109.989
1109.792
1109.612
1109.448
1109.301
1109.169
1109.052
1108.949
1108.861
1108.787
1108.726
1108.679
1108.643
1108.62
1108.607
1108.606
1108.615
1108.633
1108.66
1108.696
1108.739
1108.789
1108.845
1108.906
1108.973
1109.043
1109.116
1109.192
1109.27
1109.349
1109.427
1109.504
1109.58
1109.652
1109.72
1109.783
1109.839
1109.887
1109.926
1109.954
1109.97
1109.964
1109.959
1109.819
1118.768
1118.201
1117.616
1117.03
1116.451
1115.882
1115.324
1114.778
1114.245
1113.725
1113.218
1112.725
1112.246
1111.781
1111.33
1110.893
1110.47
1110.062
1109.669
1109.292
1108.929
1108.582
1108.25
1107.933
1107.632
1107.347
1107.078
1106.824
1106.586
1106.364
1106.157
1105.966
1105.789
1105.628
1105.481
1105.349
1105.231
1105.127
1105.036
1104.958
1104.892
1104.838
1104.796
1104.764
1104.742
1104.729
1104.726
1104.729
1104.74
1104.757
1104.778
1104.803
1104.83
1104.858
1104.885
1104.91
1104.931
1104.941
1104.952
1104.868
1122.786
1122.211
1121.61
1121
1120.388
1119.777
1119.169
1118.564
1117.964
1117.368
1116.778
1116.193
1115.613
1115.039
1114.471
1113.91
1113.355
1112.808
1112.269
1111.738
1111.216
1110.704
1110.201
1109.708
1109.226
1108.754
1108.295
1107.847
1107.412
1106.99
1106.581
1106.185
1105.803
1105.435
1105.081
1104.741
1104.416
1104.106
1103.81
1103.53
1103.263
1103.012
1102.775
1102.552
1102.344
1102.149
1101.967
1101.799
1101.643
1101.498
1101.365
1101.241
1101.127
1101.02
1100.92
1100.825
1100.735
1100.639
1100.564
1100.345
1126.185
1125.686
1125.157
1124.613
1124.062
1123.507
1122.949
1122.388
1121.825
1121.26
1120.693
1120.124
1119.554
1118.981
1118.408
1117.833
1117.257
1116.68
1116.104
1115.527
1114.952
1114.377
1113.805
1113.234
1112.666
1112.101
1111.54
1110.984
1110.433
1109.887
1109.347
1108.814
1108.288
1107.77
1107.26
1106.759
1106.267
1105.785
1105.313
1104.851
1104.4
1103.961
1103.533
1103.117
1102.713
1102.32
1101.94
1101.572
1101.216
1100.872
1100.54
1100.218
1099.907
1099.605
1099.313
1099.027
1098.751
1098.466
1098.235
1097.737
1128.359
1127.958
1127.526
1127.079
1126.624
1126.164
1125.7
1125.231
1124.759
1124.282
1123.8
1123.314
1122.823
1122.326
1121.824
1121.316
1120.803
1120.285
1119.761
1119.233
1118.699
1118.161
1117.618
1117.071
1116.52
1115.966
1115.408
1114.848
1114.286
1113.722
1113.156
1112.59
1112.023
1111.456
1110.89
1110.325
1109.761
1109.2
1108.641
1108.085
1107.533
1106.985
1106.442
1105.903
1105.37
1104.843
1104.321
1103.806
1103.297
1102.795
1102.3
1101.81
1101.327
1100.85
1100.378
1099.91
1099.451
1098.971
1098.579
1097.772
1129.294
1128.973
1128.623
1128.259
1127.89
1127.517
1127.142
1126.764
1126.383
1126
1125.612
1125.221
1124.825
1124.424
1124.017
1123.605
1123.187
1122.764
1122.333
1121.897
1121.454
1121.004
1120.548
1120.085
1119.615
1119.139
1118.656
1118.167
1117.672
1117.171
1116.664
1116.151
1115.632
1115.109
1114.58
1114.047
1113.509
1112.967
1112.421
1111.872
1111.32
1110.764
1110.206
1109.646
1109.085
1108.521
1107.956
1107.39
1106.824
1106.256
1105.688
1105.118
1104.548
1103.977
1103.404
1102.828
1102.255
1101.65
1101.152
1100.124
1129.589
1129.298
1128.98
1128.653
1128.324
1127.994
1127.666
1127.338
1127.011
1126.683
1126.356
1126.027
1125.697
1125.364
1125.029
1124.691
1124.35
1124.005
1123.656
1123.303
1122.945
1122.582
1122.214
1121.84
1121.462
1121.077
1120.686
1120.29
1119.887
1119.478
1119.062
1118.64
1118.212
1117.776
1117.334
1116.886
1116.431
1115.969
1115.5
1115.025
1114.543
1114.054
1113.559
1113.058
1112.55
1112.036
1111.515
1110.988
1110.455
1109.915
1109.368
1108.814
1108.253
1107.685
1107.108
1106.521
1105.932
1105.3
1104.779
1103.683
1129.794
1129.497
1129.176
1128.846
1128.517
1128.189
1127.865
1127.545
1127.227
1126.912
1126.6
1126.29
1125.98
1125.672
1125.365
1125.057
1124.75
1124.442
1124.133
1123.824
1123.512
1123.2
1122.885
1122.568
1122.248
1121.926
1121.601
1121.272
1120.94
1120.604
1120.265
1119.921
1119.572
1119.219
1118.861
1118.498
1118.129
1117.755
1117.375
1116.989
1116.596
1116.197
1115.792
1115.38
1114.96
1114.534
1114.099
1113.657
1113.207
1112.748
1112.28
1111.802
1111.314
1110.815
1110.305
1109.781
1109.25
1108.673
1108.197
1107.169
1130.258
1129.939
1129.594
1129.243
1128.892
1128.543
1128.199
1127.859
1127.524
1127.192
1126.864
1126.539
1126.218
1125.899
1125.583
1125.268
1124.956
1124.646
1124.338
1124.03
1123.725
1123.42
1123.116
1122.812
1122.509
1122.207
1121.904
1121.601
1121.298
1120.995
1120.69
1120.385
1120.078
1119.769
1119.459
1119.147
1118.833
1118.516
1118.196
1117.872
1117.546
1117.215
1116.88
1116.541
1116.197
1115.848
1115.493
1115.132
1114.764
1114.389
1114.005
1113.613
1113.212
1112.8
1112.377
1111.94
1111.495
1111.008
1110.605
1109.713
1131.021
1130.687
1130.327
1129.957
1129.587
1129.218
1128.853
1128.491
1128.132
1127.777
1127.425
1127.076
1126.73
1126.387
1126.046
1125.708
1125.372
1125.039
1124.708
1124.38
1124.053
1123.729
1123.407
1123.087
1122.769
1122.453
1122.139
1121.827
1121.516
1121.207
1120.9
1120.593
1120.288
1119.984
1119.681
1119.379
1119.077
1118.775
1118.473
1118.171
1117.869
1117.566
1117.261
1116.956
1116.648
1116.339
1116.027
1115.711
1115.392
1115.069
1114.741
1114.406
1114.065
1113.717
1113.36
1112.991
1112.616
1112.204
1111.864
1111.097
1131.778
1131.458
1131.109
1130.749
1130.385
1130.021
1129.657
1129.294
1128.933
1128.572
1128.213
1127.855
1127.498
1127.142
1126.786
1126.432
1126.079
1125.728
1125.377
1125.028
1124.681
1124.334
1123.99
1123.647
1123.305
1122.966
1122.628
1122.292
1121.959
1121.627
1121.297
1120.969
1120.643
1120.319
1119.997
1119.677
1119.358
1119.042
1118.727
1118.413
1118.101
1117.79
1117.48
1117.17
1116.862
1116.553
1116.245
1115.935
1115.625
1115.313
1114.999
1114.682
1114.361
1114.035
1113.703
1113.363
1113.02
1112.644
1112.335
1111.637
1132.096
1131.823
1131.518
1131.199
1130.874
1130.546
1130.217
1129.885
1129.552
1129.218
1128.883
1128.546
1128.207
1127.867
1127.525
1127.183
1126.838
1126.493
1126.147
1125.8
1125.452
1125.104
1124.755
1124.406
1124.057
1123.708
1123.359
1123.011
1122.663
1122.315
1121.969
1121.623
1121.278
1120.935
1120.592
1120.251
1119.911
1119.573
1119.235
1118.9
1118.565
1118.232
1117.9
1117.57
1117.24
1116.911
1116.583
1116.256
1115.928
1115.6
1115.271
1114.941
1114.608
1114.273
1113.933
1113.587
1113.239
1112.862
1112.553
1111.861
1131.567
1131.365
1131.129
1130.879
1130.62
1130.357
1130.089
1129.819
1129.545
1129.267
1128.987
1128.702
1128.414
1128.122
1127.827
1127.527
1127.225
1126.919
1126.609
1126.297
1125.981
1125.663
1125.341
1125.017
1124.69
1124.361
1124.03
1123.697
1123.362
1123.026
1122.687
1122.348
1122.007
1121.666
1121.323
1120.98
1120.637
1120.292
1119.948
1119.603
1119.258
1118.913
1118.567
1118.222
1117.877
1117.531
1117.185
1116.839
1116.492
1116.144
1115.795
1115.444
1115.09
1114.734
1114.373
1114.007
1113.639
1113.241
1112.915
1112.194
1130.06
1129.929
1129.765
1129.586
1129.4
1129.208
1129.013
1128.815
1128.612
1128.406
1128.195
1127.981
1127.762
1127.538
1127.31
1127.077
1126.84
1126.597
1126.351
1126.099
1125.843
1125.582
1125.317
1125.047
1124.773
1124.494
1124.212
1123.925
1123.635
1123.341
1123.043
1122.741
1122.437
1122.128
1121.817
1121.503
1121.185
1120.865
1120.543
1120.217
1119.889
1119.559
1119.227
1118.892
1118.555
1118.216
1117.874
1117.53
1117.183
1116.833
1116.48
1116.124
1115.764
1115.399
1115.028
1114.65
1114.269
1113.857
1113.518
1112.771
1127.786
1127.701
1127.585
1127.457
1127.322
1127.186
1127.046
1126.905
1126.762
1126.617
1126.468
1126.317
1126.162
1126.004
1125.842
1125.676
1125.506
1125.331
1125.153
1124.97
1124.782
1124.59
1124.393
1124.192
1123.986
1123.775
1123.559
1123.338
1123.113
1122.883
1122.648
1122.408
1122.164
1121.915
1121.662
1121.403
1121.141
1120.873
1120.602
1120.326
1120.045
1119.76
1119.471
1119.177
1118.879
1118.577
1118.27
1117.958
1117.641
1117.32
1116.993
1116.66
1116.321
1115.975
1115.621
1115.258
1114.889
1114.488
1114.157
1113.418
1125.277
1125.195
1125.084
1124.964
1124.841
1124.718
1124.597
1124.476
1124.356
1124.237
1124.118
1123.998
1123.878
1123.757
1123.634
1123.51
1123.385
1123.258
1123.128
1122.996
1122.861
1122.724
1122.583
1122.44
1122.293
1122.142
1121.988
1121.831
1121.669
1121.504
1121.334
1121.16
1120.982
1120.799
1120.612
1120.42
1120.224
1120.023
1119.817
1119.606
1119.39
1119.169
1118.943
1118.712
1118.475
1118.232
1117.984
1117.73
1117.469
1117.202
1116.928
1116.647
1116.357
1116.059
1115.751
1115.432
1115.105
1114.744
1114.447
1113.764
1123.178
1123.052
1122.9
1122.742
1122.585
1122.43
1122.28
1122.133
1121.991
1121.851
1121.716
1121.583
1121.453
1121.325
1121.199
1121.075
1120.953
1120.832
1120.711
1120.592
1120.473
1120.354
1120.236
1120.117
1119.997
1119.877
1119.756
1119.634
1119.511
1119.386
1119.259
1119.13
1118.999
1118.866
1118.73
1118.591
1118.449
1118.304
1118.155
1118.003
1117.847
1117.687
1117.522
1117.353
1117.179
1117.001
1116.817
1116.627
1116.431
1116.228
1116.018
1115.801
1115.575
1115.34
1115.095
1114.838
1114.572
1114.273
1114.027
1113.437
1121.997
1121.798
1121.576
1121.347
1121.121
1120.9
1120.684
1120.474
1120.27
1120.072
1119.879
1119.691
1119.509
1119.332
1119.159
1118.991
1118.828
1118.668
1118.513
1118.361
1118.213
1118.069
1117.927
1117.788
1117.653
1117.519
1117.388
1117.26
1117.133
1117.007
1116.883
1116.76
1116.638
1116.517
1116.396
1116.275
1116.154
1116.033
1115.911
1115.788
1115.664
1115.538
1115.41
1115.28
1115.148
1115.013
1114.874
1114.732
1114.585
1114.434
1114.277
1114.113
1113.943
1113.765
1113.578
1113.379
1113.173
1112.937
1112.742
1112.253
1121.925
1121.651
1121.351
1121.046
1120.742
1120.443
1120.149
1119.86
1119.578
1119.302
1119.032
1118.768
1118.51
1118.258
1118.011
1117.771
1117.536
1117.307
1117.084
1116.866
1116.653
1116.446
1116.244
1116.048
1115.856
1115.669
1115.488
1115.31
1115.138
1114.969
1114.805
1114.645
1114.489
1114.336
1114.187
1114.041
1113.898
1113.757
1113.619
1113.484
1113.35
1113.217
1113.086
1112.956
1112.826
1112.697
1112.567
1112.436
1112.304
1112.17
1112.033
1111.893
1111.748
1111.598
1111.442
1111.277
1111.105
1110.909
1110.748
1110.328
1122.783
1122.455
1122.099
1121.735
1121.37
1121.008
1120.65
1120.295
1119.945
1119.599
1119.258
1118.922
1118.59
1118.264
1117.942
1117.626
1117.315
1117.009
1116.708
1116.413
1116.124
1115.84
1115.561
1115.288
1115.021
1114.76
1114.504
1114.254
1114.009
1113.77
1113.537
1113.309
1113.086
1112.869
1112.657
1112.45
1112.249
1112.052
1111.86
1111.672
1111.489
1111.31
1111.134
1110.962
1110.794
1110.628
1110.465
1110.304
1110.144
1109.986
1109.827
1109.668
1109.508
1109.346
1109.18
1109.009
1108.833
1108.637
1108.477
1108.068
1124.143
1123.795
1123.417
1123.028
1122.636
1122.243
1121.851
1121.46
1121.071
1120.684
1120.299
1119.917
1119.537
1119.16
1118.785
1118.414
1118.045
1117.68
1117.319
1116.961
1116.607
1116.257
1115.911
1115.57
1115.232
1114.9
1114.572
1114.249
1113.931
1113.618
1113.31
1113.007
1112.709
1112.417
1112.13
1111.848
1111.571
1111.3
1111.035
1110.774
1110.519
1110.269
1110.023
1109.783
1109.547
1109.315
1109.088
1108.864
1108.644
1108.426
1108.211
1107.997
1107.785
1107.572
1107.358
1107.141
1106.923
1106.685
1106.491
1106.029
1125.525
1125.189
1124.822
1124.442
1124.055
1123.666
1123.275
1122.883
1122.49
1122.097
1121.703
1121.31
1120.916
1120.522
1120.128
1119.735
1119.342
1118.951
1118.56
1118.17
1117.782
1117.395
1117.01
1116.627
1116.246
1115.868
1115.492
1115.118
1114.748
1114.38
1114.015
1113.654
1113.297
1112.943
1112.592
1112.246
1111.903
1111.565
1111.231
1110.901
1110.575
1110.253
1109.936
1109.623
1109.315
1109.01
1108.709
1108.412
1108.118
1107.828
1107.54
1107.254
1106.97
1106.686
1106.402
1106.116
1105.83
1105.524
1105.273
1104.708
1126.575
1126.272
1125.935
1125.585
1125.227
1124.865
1124.5
1124.132
1123.762
1123.39
1123.016
1122.64
1122.262
1121.883
1121.501
1121.118
1120.734
1120.348
1119.962
1119.574
1119.185
1118.795
1118.405
1118.015
1117.624
1117.233
1116.842
1116.452
1116.061
1115.672
1115.283
1114.895
1114.508
1114.122
1113.737
1113.354
1112.973
1112.593
1112.216
1111.84
1111.467
1111.096
1110.727
1110.36
1109.996
1109.634
1109.274
1108.917
1108.561
1108.207
1107.854
1107.503
1107.151
1106.8
1106.447
1106.091
1105.736
1105.356
1105.045
1104.364
1127.178
1126.908
1126.605
1126.288
1125.964
1125.636
1125.304
1124.97
1124.633
1124.293
1123.951
1123.607
1123.26
1122.911
1122.56
1122.206
1121.85
1121.492
1121.131
1120.768
1120.403
1120.036
1119.667
1119.296
1118.923
1118.549
1118.172
1117.795
1117.415
1117.035
1116.653
1116.27
1115.886
1115.501
1115.115
1114.729
1114.342
1113.954
1113.566
1113.178
1112.789
1112.4
1112.011
1111.623
1111.234
1110.845
1110.456
1110.066
1109.677
1109.286
1108.895
1108.503
1108.109
1107.712
1107.312
1106.907
1106.502
1106.067
1105.709
1104.936
1127.428
1127.179
1126.899
1126.605
1126.305
1126.001
1125.696
1125.388
1125.078
1124.767
1124.453
1124.138
1123.821
1123.502
1123.182
1122.859
1122.534
1122.207
1121.878
1121.547
1121.214
1120.879
1120.541
1120.201
1119.86
1119.515
1119.169
1118.821
1118.47
1118.117
1117.762
1117.405
1117.046
1116.685
1116.322
1115.957
1115.59
1115.22
1114.849
1114.476
1114.101
1113.724
1113.346
1112.965
1112.582
1112.198
1111.811
1111.422
1111.03
1110.635
1110.238
1109.837
1109.432
1109.022
1108.607
1108.184
1107.758
1107.299
1106.922
1106.103
1127.541
1127.296
1127.021
1126.734
1126.441
1126.146
1125.85
1125.553
1125.255
1124.957
1124.658
1124.358
1124.057
1123.756
1123.454
1123.151
1122.847
1122.542
1122.236
1121.929
1121.62
1121.31
1120.999
1120.686
1120.372
1120.056
1119.739
1119.42
1119.099
1118.777
1118.452
1118.126
1117.798
1117.468
1117.135
1116.801
1116.464
1116.125
1115.784
1115.441
1115.095
1114.746
1114.395
1114.041
1113.684
1113.325
1112.962
1112.595
1112.225
1111.851
1111.472
1111.088
1110.699
1110.304
1109.901
1109.489
1109.073
1108.621
1108.249
1107.434
1127.736
1127.482
1127.197
1126.901
1126.601
1126.299
1125.996
1125.694
1125.391
1125.089
1124.788
1124.487
1124.186
1123.885
1123.585
1123.285
1122.986
1122.686
1122.387
1122.087
1121.788
1121.488
1121.189
1120.889
1120.589
1120.288
1119.987
1119.685
1119.383
1119.08
1118.776
1118.472
1118.166
1117.859
1117.551
1117.242
1116.931
1116.619
1116.305
1115.989
1115.672
1115.352
1115.03
1114.706
1114.379
1114.049
1113.716
1113.38
1113.04
1112.696
1112.347
1111.992
1111.632
1111.265
1110.891
1110.506
1110.116
1109.691
1109.341
1108.563
1128.152
1127.88
1127.58
1127.267
1126.95
1126.632
1126.314
1125.995
1125.678
1125.361
1125.045
1124.73
1124.416
1124.103
1123.791
1123.48
1123.17
1122.861
1122.554
1122.247
1121.941
1121.636
1121.331
1121.028
1120.726
1120.424
1120.123
1119.822
1119.522
1119.222
1118.923
1118.624
1118.326
1118.027
1117.728
1117.43
1117.131
1116.831
1116.532
1116.231
1115.93
1115.628
1115.324
1115.019
1114.713
1114.405
1114.094
1113.781
1113.465
1113.146
1112.822
1112.494
1112.161
1111.821
1111.475
1111.118
1110.757
1110.361
1110.036
1109.306
1128.803
1128.517
1128.202
1127.874
1127.541
1127.207
1126.871
1126.536
1126.201
1125.867
1125.533
1125.2
1124.869
1124.538
1124.208
1123.88
1123.552
1123.226
1122.902
1122.578
1122.256
1121.935
1121.616
1121.298
1120.981
1120.666
1120.352
1120.039
1119.728
1119.418
1119.109
1118.801
1118.495
1118.189
1117.885
1117.581
1117.278
1116.976
1116.674
1116.373
1116.072
1115.771
1115.47
1115.169
1114.868
1114.566
1114.263
1113.958
1113.651
1113.343
1113.031
1112.716
1112.397
1112.073
1111.743
1111.404
1111.06
1110.685
1110.377
1109.681
1129.602
1129.31
1128.988
1128.653
1128.312
1127.968
1127.623
1127.277
1126.93
1126.584
1126.237
1125.891
1125.545
1125.2
1124.855
1124.511
1124.168
1123.826
1123.484
1123.144
1122.805
1122.467
1122.13
1121.795
1121.46
1121.127
1120.796
1120.466
1120.137
1119.81
1119.484
1119.16
1118.837
1118.515
1118.195
1117.876
1117.559
1117.242
1116.927
1116.613
1116.3
1115.988
1115.676
1115.365
1115.055
1114.744
1114.434
1114.123
1113.811
1113.498
1113.183
1112.866
1112.545
1112.221
1111.891
1111.554
1111.213
1110.843
1110.538
1109.854
1130.403
1130.117
1129.799
1129.467
1129.128
1128.786
1128.441
1128.095
1127.747
1127.398
1127.049
1126.699
1126.348
1125.998
1125.647
1125.295
1124.944
1124.594
1124.243
1123.893
1123.543
1123.194
1122.845
1122.497
1122.15
1121.804
1121.458
1121.114
1120.77
1120.428
1120.086
1119.746
1119.407
1119.069
1118.732
1118.396
1118.061
1117.728
1117.396
1117.065
1116.735
1116.405
1116.077
1115.75
1115.423
1115.096
1114.77
1114.444
1114.117
1113.789
1113.46
1113.13
1112.796
1112.459
1112.118
1111.77
1111.419
1111.039
1110.727
1110.031
1131.073
1130.8
1130.495
1130.176
1129.849
1129.518
1129.183
1128.846
1128.507
1128.167
1127.824
1127.481
1127.136
1126.79
1126.444
1126.096
1125.748
1125.399
1125.049
1124.7
1124.349
1123.999
1123.648
1123.298
1122.947
1122.597
1122.246
1121.896
1121.546
1121.196
1120.847
1120.498
1120.15
1119.802
1119.454
1119.107
1118.761
1118.416
1118.071
1117.726
1117.382
1117.039
1116.696
1116.354
1116.012
1115.669
1115.327
1114.985
1114.642
1114.298
1113.952
1113.605
1113.255
1112.902
1112.544
1112.179
1111.813
1111.416
1111.09
1110.369
1131.524
1131.269
1130.982
1130.68
1130.37
1130.056
1129.737
1129.416
1129.093
1128.767
1128.439
1128.11
1127.779
1127.446
1127.112
1126.777
1126.44
1126.102
1125.763
1125.423
1125.082
1124.74
1124.398
1124.055
1123.711
1123.366
1123.021
1122.675
1122.329
1121.983
1121.636
1121.289
1120.941
1120.593
1120.245
1119.897
1119.549
1119.201
1118.852
1118.503
1118.154
1117.805
1117.456
1117.107
1116.757
1116.406
1116.055
1115.702
1115.349
1114.994
1114.637
1114.278
1113.916
1113.549
1113.178
1112.799
1112.418
1112.006
1111.667
1110.922
1131.746
1131.507
1131.237
1130.952
1130.659
1130.362
1130.06
1129.756
1129.449
1129.14
1128.83
1128.517
1128.202
1127.886
1127.568
1127.249
1126.928
1126.606
1126.283
1125.958
1125.633
1125.306
1124.978
1124.649
1124.319
1123.987
1123.655
1123.322
1122.988
1122.653
1122.318
1121.981
1121.644
1121.306
1120.967
1120.627
1120.286
1119.945
1119.603
1119.26
1118.916
1118.571
1118.226
1117.879
1117.531
1117.182
1116.832
1116.48
1116.125
1115.769
1115.41
1115.048
1114.682
1114.311
1113.935
1113.55
1113.163
1112.743
1112.398
1111.639
1131.785
1131.559
1131.301
1131.029
1130.749
1130.464
1130.176
1129.885
1129.592
1129.297
1129
1128.702
1128.402
1128.1
1127.798
1127.494
1127.188
1126.882
1126.574
1126.266
1125.956
1125.645
1125.333
1125.02
1124.706
1124.391
1124.075
1123.758
1123.44
1123.121
1122.801
1122.48
1122.158
1121.835
1121.511
1121.185
1120.859
1120.531
1120.203
1119.873
1119.542
1119.209
1118.876
1118.54
1118.203
1117.865
1117.524
1117.181
1116.835
1116.487
1116.136
1115.78
1115.42
1115.055
1114.683
1114.303
1113.919
1113.502
1113.159
1112.401
1131.727
1131.506
1131.254
1130.988
1130.714
1130.437
1130.156
1129.872
1129.587
1129.3
1129.012
1128.723
1128.432
1128.141
1127.848
1127.554
1127.26
1126.965
1126.669
1126.373
1126.075
1125.777
1125.478
1125.179
1124.878
1124.577
1124.276
1123.973
1123.67
1123.366
1123.061
1122.755
1122.448
1122.141
1121.832
1121.523
1121.212
1120.9
1120.588
1120.274
1119.958
1119.642
1119.323
1119.003
1118.682
1118.358
1118.032
1117.704
1117.373
1117.039
1116.701
1116.359
1116.013
1115.66
1115.301
1114.933
1114.56
1114.154
1113.82
1113.077
1131.65
1131.429
1131.178
1130.913
1130.64
1130.364
1130.084
1129.803
1129.519
1129.235
1128.949
1128.663
1128.375
1128.087
1127.799
1127.51
1127.22
1126.931
1126.64
1126.35
1126.059
1125.768
1125.477
1125.185
1124.893
1124.601
1124.308
1124.015
1123.722
1123.428
1123.134
1122.84
1122.545
1122.249
1121.953
1121.656
1121.358
1121.06
1120.76
1120.46
1120.159
1119.856
1119.553
1119.248
1118.941
1118.632
1118.322
1118.009
1117.693
1117.375
1117.052
1116.726
1116.395
1116.058
1115.714
1115.361
1115.003
1114.613
1114.292
1113.573
1131.608
1131.385
1131.132
1130.864
1130.59
1130.311
1130.029
1129.745
1129.46
1129.173
1128.886
1128.597
1128.309
1128.019
1127.73
1127.44
1127.15
1126.86
1126.57
1126.281
1125.991
1125.701
1125.411
1125.122
1124.832
1124.543
1124.253
1123.964
1123.675
1123.386
1123.096
1122.807
1122.518
1122.228
1121.939
1121.649
1121.358
1121.068