/*--------------------------------*- C++ -*----------------------------------*\
| =========                 |                                                 |
| \\      /  F ield         | OpenFOAM: The Open Source CFD Toolbox           |
|  \\    /   O peration     | Version:  2312                                  |
|   \\  /    A nd           | Website:  www.openfoam.com                      |
|    \\/     M anipulation  |                                                 |
\*---------------------------------------------------------------------------*/
FoamFile
{
    version     2.0;
    format      ascii;
    arch        "LSB;label=32;scalar=64";
    class       volScalarField;
    location    "2500";
    object      k;
}
// * * * * * * * * * * * * * * * * * * * * * * * * * * * * * * * * * * * * * //

dimensions      [0 2 -2 0 0 0 0];

internalField   nonuniform List<scalar> 
12000
(
0.002363754
0.004802704
0.005674254
0.006568444
0.007259225
0.007890188
0.008440456
0.008941727
0.00938748
0.009790495
0.01015983
0.01050046
0.01081027
0.01108394
0.0113342
0.011564
0.01177747
0.01196271
0.01212413
0.01226904
0.01240174
0.01251769
0.01261054
0.01268884
0.01275435
0.01281023
0.01284835
0.01287348
0.01288516
0.01288781
0.01287453
0.01286301
0.01283129
0.0127994
0.01275516
0.01271564
0.01266705
0.01261857
0.01252735
0.01236972
0.01220418
0.01213435
0.01210984
0.01194545
0.01159478
0.01138579
0.01129984
0.01115013
0.0106995
0.01037838
0.01012566
0.009805322
0.009312708
0.008811282
0.008320021
0.007676865
0.007057784
0.00611837
0.005641534
0.005299404
0.002557875
0.006071116
0.006825468
0.007758873
0.008581509
0.009397287
0.01032943
0.01135445
0.01242809
0.01346872
0.01441407
0.0153473
0.01640495
0.01742786
0.01829101
0.01903856
0.01986988
0.02077443
0.02156389
0.02217425
0.022765
0.02344742
0.02409718
0.0246143
0.02504363
0.02550298
0.0259703
0.0263848
0.0267297
0.02703122
0.0273083
0.02757928
0.0278356
0.02804486
0.02817189
0.0283075
0.02843176
0.02855127
0.02864006
0.02866846
0.02866138
0.02863568
0.02859153
0.02851602
0.02837437
0.02820544
0.02782788
0.02736562
0.02699124
0.02654125
0.02573366
0.02462943
0.02357784
0.02248606
0.02094157
0.01878122
0.01610465
0.01239123
0.009248075
0.008951931
0.003588341
0.007394506
0.008674494
0.01016811
0.0116405
0.01332344
0.01480245
0.01620263
0.01755518
0.01875573
0.01990098
0.02096962
0.02202888
0.0229899
0.02387035
0.02464395
0.02535452
0.02603265
0.02665779
0.02719562
0.02765545
0.02808117
0.02848886
0.02885578
0.02915998
0.02941589
0.02965069
0.02987049
0.03006965
0.03024363
0.03039287
0.0305108
0.03061663
0.03075228
0.03087964
0.03096429
0.03104501
0.03114027
0.03126329
0.0314007
0.03151459
0.03159847
0.03170652
0.03190273
0.0321444
0.0323273
0.03248687
0.03266566
0.03290858
0.03305442
0.03306364
0.03293806
0.03249346
0.03162903
0.03002056
0.02758294
0.02401734
0.01944806
0.0125361
0.01133468
0.004222949
0.007432551
0.009072691
0.01087774
0.01272232
0.01459365
0.01635608
0.0179308
0.01945583
0.02076072
0.02181818
0.02274025
0.02355193
0.02427143
0.02492551
0.0255236
0.02605938
0.02655416
0.02700876
0.02741873
0.02778378
0.02812067
0.02843574
0.02871495
0.02894063
0.02912338
0.02928273
0.02942538
0.02955328
0.02967001
0.02974632
0.02981505
0.02991423
0.03001603
0.03011606
0.03021578
0.03032133
0.03043656
0.03057351
0.03074063
0.03093505
0.03114886
0.03137691
0.03165215
0.03197479
0.03231294
0.0326423
0.0329336
0.03322234
0.03346996
0.03365237
0.03371777
0.03360622
0.03265144
0.03088163
0.02855834
0.02555191
0.02110887
0.01467204
0.01260104
0.004757951
0.007419568
0.009482019
0.01156608
0.01363852
0.0155557
0.01723289
0.01862484
0.01982434
0.02092502
0.02190179
0.02274852
0.02348911
0.0240948
0.02459316
0.02502302
0.02539666
0.02572748
0.02601667
0.02625006
0.02642772
0.02657145
0.02669683
0.02682386
0.02695568
0.02709092
0.02722363
0.02733073
0.02743193
0.0275558
0.02768143
0.02781019
0.02794965
0.02810765
0.02828482
0.02848295
0.02870798
0.02896384
0.02926458
0.02961468
0.03001554
0.03046538
0.03095664
0.03149993
0.03209869
0.03274649
0.03342577
0.03412358
0.03476322
0.03539035
0.03594506
0.03609353
0.03574949
0.03492719
0.03366446
0.03169131
0.02856175
0.02378764
0.01649937
0.01357897
0.005228326
0.00729382
0.009481697
0.01165741
0.01375215
0.01562279
0.01723932
0.01861421
0.01977628
0.0207438
0.02154571
0.02221504
0.02272926
0.02313803
0.02344761
0.02367409
0.02385407
0.02399702
0.02410952
0.02419801
0.02427722
0.02435642
0.02444264
0.02453715
0.02464129
0.02475546
0.02487966
0.02501406
0.02516466
0.02533507
0.0255254
0.02573854
0.02597913
0.02625115
0.02655832
0.02690732
0.027303
0.02773408
0.02821557
0.02876928
0.02938663
0.03006267
0.03078291
0.03154596
0.03236109
0.03322003
0.03410421
0.03499319
0.03588272
0.03665424
0.03714
0.03728388
0.03709671
0.03639596
0.03495734
0.03260659
0.02915779
0.02424006
0.0171366
0.01412019
0.005584429
0.007117813
0.00942334
0.01163784
0.01373368
0.01559002
0.01716141
0.01843622
0.0194437
0.02024624
0.0208627
0.02131855
0.02166463
0.0219424
0.02215482
0.02228732
0.02234683
0.02237018
0.02237641
0.02238173
0.02239695
0.02242892
0.02248206
0.02255896
0.02266128
0.02279025
0.02294715
0.02313311
0.02335046
0.02360175
0.02388866
0.02421334
0.02457825
0.02498763
0.02544127
0.02594506
0.02650811
0.0271305
0.02780652
0.02853616
0.02932612
0.03017999
0.03109522
0.03206534
0.0330834
0.03413636
0.03522092
0.03630813
0.03729259
0.03809816
0.03867861
0.03892253
0.03875345
0.03798188
0.03646777
0.03407018
0.03058503
0.02558638
0.01823412
0.0146045
0.005918707
0.006949906
0.009291213
0.01149545
0.01355027
0.01534396
0.01683904
0.01803559
0.0189649
0.01967096
0.02019007
0.0205505
0.02078671
0.02093385
0.02102855
0.02108823
0.02111082
0.02110647
0.02108217
0.02105457
0.02104438
0.02105995
0.02110873
0.02119433
0.021319
0.0214843
0.02169141
0.0219414
0.0222354
0.02257466
0.02296047
0.02339451
0.02387754
0.02441253
0.02500019
0.02564051
0.02633617
0.02708991
0.02790422
0.0287798
0.02971644
0.03071228
0.03176336
0.03286357
0.03400553
0.03518475
0.03635959
0.03746814
0.03846726
0.03930636
0.03990909
0.0401424
0.03990287
0.03898907
0.03726355
0.03463942
0.0309426
0.02577438
0.01839652
0.01483908
0.006201462
0.006773871
0.009122658
0.01130035
0.01331139
0.01505928
0.016502
0.01764571
0.01852484
0.01918051
0.01965072
0.0199686
0.0201667
0.02027154
0.02030395
0.0203011
0.02028385
0.02026145
0.02024713
0.02024439
0.02025575
0.0202944
0.02036969
0.02048803
0.02065284
0.02086624
0.02112961
0.0214438
0.02180904
0.02222538
0.02269313
0.02321303
0.02378818
0.02441944
0.02510537
0.02584707
0.02664546
0.02750157
0.02841572
0.02938755
0.03041539
0.03149645
0.03262686
0.03380425
0.03501729
0.03623157
0.03741501
0.03853592
0.03955223
0.04039928
0.04098986
0.04119055
0.04085765
0.03981869
0.03798199
0.03530441
0.03159942
0.02643513
0.01901299
0.01507793
0.006460504
0.006620562
0.008958872
0.01110474
0.01305116
0.01473246
0.01612452
0.01723754
0.01809694
0.01873881
0.0192003
0.0195158
0.01971704
0.01983299
0.01988704
0.0199013
0.0198963
0.01988777
0.01989093
0.01991918
0.01997937
0.02007
0.02019635
0.02036395
0.02057714
0.02083808
0.02114737
0.02150972
0.02192973
0.02240582
0.02293708
0.02352288
0.02416571
0.02486477
0.02561693
0.02642298
0.02728337
0.0281983
0.02916734
0.03018922
0.03126211
0.03238409
0.03355239
0.03475286
0.03596485
0.03716897
0.0383418
0.03945065
0.04044752
0.04126703
0.0418161
0.04195664
0.04153103
0.04038784
0.03844975
0.03567498
0.03186388
0.02658065
0.01907863
0.01519187
0.006661335
0.006466971
0.008789826
0.01088177
0.01276827
0.01440524
0.01576305
0.01685131
0.01770195
0.01835136
0.01883297
0.0191798
0.01942226
0.01958777
0.01969925
0.01977618
0.01983373
0.01987929
0.01991656
0.01997624
0.02006914
0.02020315
0.02037894
0.02059811
0.02086477
0.02118278
0.02155499
0.02197925
0.0224524
0.02297611
0.0235511
0.02417779
0.02485935
0.02559528
0.02638197
0.02721957
0.02810801
0.02904692
0.03003531
0.03107184
0.03215512
0.03328125
0.03443979
0.03561912
0.03680641
0.03798491
0.0391299
0.04020772
0.04117074
0.04195398
0.04246243
0.04254699
0.04204999
0.04084001
0.03883963
0.0360109
0.03216496
0.02687565
0.01938602
0.01529239
0.0068118
0.006320193
0.008608497
0.01065887
0.01248776
0.01406867
0.01539276
0.01647359
0.0173352
0.01800829
0.01852831
0.01892592
0.01922906
0.01946179
0.01964341
0.01978681
0.01990944
0.02003031
0.02016729
0.02031516
0.0204835
0.02067934
0.02091175
0.02118665
0.02150339
0.02186426
0.02227186
0.02272712
0.02323017
0.0237811
0.02437992
0.02502773
0.0257269
0.0264762
0.02727287
0.02811687
0.02900797
0.02994562
0.03092886
0.0319564
0.03302438
0.0341259
0.03525363
0.03639878
0.03754929
0.03868804
0.03979204
0.04082896
0.04175585
0.04250963
0.04297346
0.04300344
0.0424505
0.04118999
0.03913867
0.03625001
0.03235073
0.02699934
0.01943575
0.01536278
0.006911142
0.00618306
0.008436006
0.01044244
0.01220343
0.01373292
0.01503163
0.01610858
0.01698648
0.01769422
0.01826086
0.01871581
0.01908445
0.01938908
0.01964793
0.01987995
0.02009835
0.02031448
0.02053803
0.02077523
0.02103224
0.02131336
0.0216206
0.02195379
0.02231567
0.02271284
0.02314927
0.02362698
0.02414742
0.02471128
0.02531893
0.02597162
0.0266711
0.02741629
0.02820542
0.02903838
0.02991475
0.03083362
0.03179383
0.03279252
0.03382598
0.03488927
0.03597588
0.03707713
0.03818173
0.03927454
0.04033387
0.04133214
0.04223092
0.04295242
0.04336792
0.04334749
0.04274752
0.04144445
0.03935208
0.03642697
0.03249734
0.02713155
0.01957464
0.01538905
0.006971324
0.006051407
0.008261051
0.0102204
0.01192453
0.01340813
0.01467819
0.01575036
0.01664577
0.01739065
0.01800999
0.0185278
0.01896694
0.01934889
0.01969368
0.02002284
0.0203446
0.02066453
0.02098849
0.02132159
0.02166788
0.02202994
0.02240827
0.02280253
0.02321307
0.02364129
0.02409426
0.02458241
0.0251086
0.02567355
0.02627782
0.02692256
0.02760901
0.02833675
0.02910497
0.02991361
0.03076227
0.0316501
0.03257554
0.03353636
0.03452919
0.03554959
0.03659144
0.03764674
0.03870483
0.03975155
0.04076923
0.04173694
0.04261234
0.04330067
0.04367825
0.04361923
0.04298758
0.04165909
0.03954162
0.03658408
0.03262522
0.02722425
0.01961844
0.01544002
0.006998424
0.005920247
0.008088024
0.01000005
0.01164957
0.01308825
0.01433397
0.01540195
0.01631521
0.01709591
0.01776668
0.0183478
0.01885999
0.01932314
0.01975875
0.02019035
0.02062156
0.02105194
0.02148272
0.0219158
0.02235229
0.02279211
0.02323446
0.0236786
0.02412543
0.02457801
0.0250424
0.02552901
0.02604896
0.02660429
0.02719511
0.02782206
0.02848598
0.0291871
0.02992542
0.03070112
0.03151412
0.03236396
0.03324944
0.03416857
0.03511842
0.03609507
0.03709311
0.03810518
0.03912152
0.04012896
0.0411152
0.04206228
0.04291221
0.04356875
0.04391423
0.04382429
0.0431651
0.04181096
0.03966898
0.03669125
0.03271762
0.02730648
0.01969357
0.01544298
0.006995614
0.005797572
0.007921375
0.009783059
0.0113786
0.01277387
0.01399494
0.01506081
0.01599126
0.01680681
0.01752734
0.01817215
0.01875916
0.01930627
0.01983571
0.02037229
0.02091655
0.02146083
0.02200034
0.02253274
0.02305588
0.02356722
0.02406449
0.0245472
0.0250175
0.0254809
0.02594582
0.0264239
0.02692766
0.02746478
0.0280346
0.02863735
0.02927362
0.02994414
0.03064948
0.03139004
0.03216606
0.03297734
0.03382315
0.03470195
0.03561135
0.03654783
0.03750648
0.03848073
0.03946205
0.04044066
0.04140726
0.04233801
0.04316574
0.04379587
0.04411642
0.0440038
0.04332529
0.04195431
0.03979467
0.0367954
0.03280031
0.02736348
0.01971761
0.01547052
0.006982715
0.005677652
0.007757371
0.009568004
0.01111224
0.01246671
0.01366466
0.01472771
0.0156752
0.01652592
0.01729772
0.01800746
0.01867101
0.01930396
0.01992639
0.02056686
0.02122368
0.02188108
0.02252693
0.0231539
0.02375643
0.0243297
0.0248706
0.02537938
0.02586064
0.02632297
0.02677784
0.0272385
0.02772021
0.0282333
0.02877692
0.02935124
0.02995694
0.0305952
0.03126697
0.03197282
0.03271336
0.03348875
0.03429855
0.03514159
0.03601574
0.03691781
0.0378433
0.03878625
0.03973903
0.04069487
0.04164604
0.04256181
0.04337223
0.04398179
0.0442805
0.0441473
0.04345129
0.04206468
0.03989091
0.03687938
0.03287271
0.02742463
0.01976706
0.01547302
0.00695461
0.00556922
0.007604756
0.00936044
0.01085308
0.01216818
0.01334457
0.014406
0.01537138
0.01625788
0.01708133
0.01785619
0.0185956
0.01931206
0.02002923
0.02077294
0.0215404
0.02230735
0.02305372
0.02376701
0.02443857
0.02506196
0.02563392
0.02615625
0.02663659
0.02708738
0.02752365
0.0279613
0.02841735
0.02890286
0.02941736
0.02996125
0.03053541
0.0311414
0.03178048
0.03245347
0.03316128
0.03390437
0.03468263
0.03549516
0.03634015
0.03721468
0.03811457
0.03903423
0.03996654
0.04090659
0.04184744
0.04275244
0.04355015
0.04414614
0.0444304
0.04428181
0.04357185
0.04217292
0.03998594
0.03695943
0.03293585
0.02746566
0.01978478
0.01548878
0.006922266
0.005470848
0.007456797
0.009156924
0.01060114
0.01188037
0.01303778
0.01409891
0.01508375
0.01600814
0.01688559
0.01772721
0.01854374
0.01934503
0.02015269
0.02099584
0.02186876
0.02273806
0.02357564
0.02436408
0.02509204
0.02575213
0.0263419
0.02686569
0.02733492
0.02776612
0.02817799
0.02858937
0.0290183
0.02947486
0.02995923
0.0304723
0.03101536
0.03159032
0.03219875
0.03284174
0.03352045
0.0342356
0.0349873
0.03577488
0.03659673
0.03745012
0.03833106
0.03923415
0.04015248
0.0410815
0.04201407
0.04291098
0.04369962
0.04428561
0.04455979
0.04440147
0.04368073
0.04226976
0.04007187
0.03703555
0.03300114
0.02751882
0.01982233
0.01549386
0.006888193
0.005382945
0.007322743
0.008964271
0.01036052
0.01160635
0.01274849
0.01381409
0.01482194
0.01578636
0.01671865
0.01762799
0.01852177
0.01940467
0.02030003
0.02123866
0.02221042
0.02317262
0.02408948
0.02493922
0.02570906
0.02639202
0.02698739
0.02750234
0.02795232
0.0283583
0.02874255
0.02912645
0.02952824
0.02995611
0.03041106
0.03089457
0.03140844
0.03195491
0.03253589
0.03315273
0.03380683
0.03449909
0.03522978
0.03599837
0.03680333
0.03764199
0.03851036
0.03940297
0.04031285
0.04123551
0.04216363
0.04305586
0.0438386
0.04441751
0.04468399
0.04451726
0.04378742
0.04236602
0.04015688
0.037109
0.0330596
0.02755985
0.0198415
0.01550672
0.006863527
0.005312971
0.007197762
0.00877983
0.0101304
0.01134733
0.01247821
0.01355214
0.01458684
0.01559467
0.01658318
0.01755964
0.01852778
0.01949152
0.02047232
0.0215034
0.02256646
0.02360943
0.02459106
0.02548778
0.02628579
0.02697808
0.02756671
0.02806346
0.02848841
0.02886631
0.02922207
0.02957882
0.02995458
0.03035526
0.03078271
0.03123908
0.03172664
0.03224797
0.03280525
0.03340013
0.03403417
0.03470839
0.03542316
0.03617798
0.03697134
0.0378005
0.03866135
0.03954821
0.04045385
0.04137339
0.04229903
0.04318861
0.04396771
0.04454162
0.04480188
0.04462826
0.04389094
0.04246079
0.04024331
0.03718819
0.03312851
0.02761491
0.01987848
0.01551897
0.006841757
0.005250436
0.007082673
0.008607065
0.009917101
0.01110987
0.01223615
0.01332385
0.01439029
0.01544468
0.0164934
0.01753901
0.01857893
0.01961613
0.0206761
0.02179319
0.02293682
0.02404781
0.02508038
0.02600788
0.02681726
0.02750543
0.02807811
0.0285508
0.02894761
0.02929656
0.02962451
0.02995563
0.03030725
0.03068308
0.03108578
0.03151815
0.03198292
0.03248293
0.03302062
0.03359786
0.03421633
0.03487715
0.03558068
0.03632641
0.03711275
0.03793682
0.0387943
0.03967922
0.04058395
0.04150312
0.04242831
0.04331675
0.04409334
0.04466356
0.04491914
0.04473942
0.04399389
0.04255553
0.04033052
0.03726635
0.03319474
0.02766571
0.01990449
0.01553381
0.006834162
0.00521089
0.006985216
0.008449419
0.009719909
0.0108951
0.01202334
0.01313114
0.01423255
0.01533479
0.01644173
0.01755203
0.018665
0.01977314
0.02090747
0.02210576
0.02332124
0.02448546
0.02555046
0.02649242
0.02730127
0.02797603
0.02852532
0.02896882
0.02933505
0.02965516
0.02995772
0.03026661
0.03059621
0.03094993
0.03133109
0.03174298
0.03218869
0.03267128
0.03319339
0.0337571
0.03436415
0.03501567
0.03571202
0.03645259
0.03723567
0.03805819
0.03891556
0.03980149
0.04070793
0.04162884
0.04255512
0.04344409
0.0442201
0.04478727
0.04503693
0.04485095
0.04409977
0.04265513
0.04042263
0.0373513
0.03327009
0.02772491
0.01994051
0.01555049
0.00683516
0.005179092
0.006893577
0.008304744
0.009544467
0.01070874
0.01184535
0.01297845
0.01411925
0.01527421
0.01644317
0.01761542
0.01879066
0.01996481
0.02117305
0.0224447
0.02371676
0.02491636
0.02599882
0.02694329
0.0277413
0.0283937
0.02891291
0.02932363
0.02965864
0.02995148
0.03023139
0.03052106
0.03083123
0.03116589
0.03152886
0.03192382
0.03235419
0.03282318
0.03333359
0.03388762
0.03448707
0.03513303
0.03582578
0.03656461
0.03734762
0.03817151
0.03903141
0.03992065
0.04083072
0.04175492
0.04268354
0.04357383
0.04434883
0.04491204
0.04515629
0.04496498
0.04420887
0.04275878
0.04051744
0.03743652
0.03334408
0.02778052
0.01997075
0.01556886
0.006844237
0.00516351
0.006821474
0.00817839
0.009392934
0.01055533
0.01170782
0.01287091
0.01405604
0.0152648
0.01648311
0.01771668
0.01895027
0.02018903
0.0214713
0.02280541
0.02411825
0.02533904
0.02642677
0.02736229
0.02813878
0.02876054
0.02924488
0.02962146
0.02992647
0.0301946
0.03045461
0.03072758
0.0310211
0.03133972
0.03168775
0.03206921
0.03248776
0.03294675
0.03344903
0.03399692
0.03459218
0.03523584
0.03592807
0.03666801
0.03745356
0.03828118
0.03914565
0.04003994
0.04095508
0.04188378
0.04281573
0.04370756
0.04448137
0.04504095
0.04527998
0.04508252
0.04431998
0.04286442
0.04061935
0.03753091
0.03342437
0.02784233
0.02000845
0.01558954
0.006868923
0.005165628
0.006759304
0.008074307
0.009270319
0.01043479
0.01160727
0.01280682
0.01403946
0.01529142
0.01657032
0.01785868
0.01914472
0.02044496
0.02179695
0.02318269
0.02452367
0.02575288
0.02683315
0.02774811
0.0284939
0.02907884
0.02952536
0.02986783
0.03014502
0.0303916
0.03063488
0.03089351
0.03117312
0.03147873
0.03181503
0.03218631
0.03259641
0.03304873
0.03354619
0.0340911
0.03468519
0.03532938
0.03602371
0.03676714
0.03755734
0.0383905
0.03926109
0.04016169
0.04108287
0.04201684
0.04295263
0.04384605
0.04461835
0.04517395
0.04540769
0.04520507
0.0444376
0.04297606
0.04072227
0.03762315
0.03350304
0.02790246
0.02004323
0.01561146
0.006903185
0.005169146
0.006710955
0.007988748
0.009174469
0.01035013
0.01155141
0.01279352
0.01406443
0.01537494
0.01670656
0.01804537
0.01937698
0.02073066
0.02214577
0.02357295
0.02492917
0.02615357
0.02721469
0.02809954
0.02880743
0.0293512
0.02975853
0.03006792
0.03031974
0.03054811
0.03077849
0.031025
0.0312934
0.03158898
0.03191667
0.0322809
0.03268567
0.03313442
0.03363004
0.03417482
0.0347704
0.03541759
0.03611627
0.03686519
0.0376618
0.03850199
0.03937991
0.04028775
0.04121564
0.04215532
0.04309522
0.04399012
0.04476059
0.04531162
0.04553933
0.04533059
0.04455743
0.04309049
0.04083042
0.03772189
0.03358766
0.0279676
0.02008254
0.01563549
0.006949026
0.005186025
0.006677284
0.007927624
0.009110362
0.01030601
0.01154471
0.01281828
0.01414425
0.015504
0.01688267
0.01826403
0.01964021
0.02104941
0.02251809
0.0239729
0.02533107
0.02653896
0.02757075
0.02841714
0.02908131
0.02958122
0.02994977
0.03022865
0.03045841
0.03067147
0.03089122
0.03112797
0.03138771
0.031676
0.03199792
0.032358
0.03276031
0.03320828
0.03370474
0.03425191
0.03485131
0.03550362
0.03620853
0.0369646
0.03776901
0.03861736
0.03950348
0.04041917
0.04135414
0.04229973
0.04324382
0.04413982
0.04490788
0.04545376
0.04567513
0.04546034
0.04468165
0.04320863
0.04094036
0.03782058
0.03367138
0.02803171
0.02012099
0.01566107
0.007004853
0.005210328
0.006660323
0.00788921
0.009083856
0.01030505
0.01156937
0.01289606
0.01426905
0.01567402
0.01709363
0.01850998
0.01993185
0.02140092
0.02291114
0.02437913
0.02572614
0.02690647
0.02790004
0.02870123
0.02931765
0.02977273
0.03010421
0.03035582
0.03056696
0.03076747
0.03097861
0.03120775
0.03146121
0.03174473
0.03206346
0.03242202
0.03282443
0.03327409
0.03377371
0.03432542
0.03493061
0.03558978
0.03630245
0.03706693
0.03788016
0.03873745
0.03963229
0.04055613
0.04149828
0.04244986
0.04339816
0.04429483
0.04505961
0.04559936
0.04581363
0.04559238
0.04480811
0.04332945
0.04105366
0.03792292
0.03375857
0.0280988
0.02016177
0.01568791
0.007071404
0.005243934
0.006661941
0.007888806
0.009088567
0.01033588
0.01164726
0.01301893
0.01443701
0.01588362
0.01733937
0.01878506
0.02024955
0.02177639
0.02331806
0.02478541
0.02610898
0.02725236
0.02820054
0.02895161
0.02951789
0.02992835
0.03022488
0.03045234
0.03064841
0.03084041
0.03104477
0.03126857
0.03151818
0.03179939
0.0321174
0.03247681
0.0328816
0.0333351
0.03383989
0.03439798
0.03501059
0.03567807
0.03639971
0.0371736
0.03799642
0.03886318
0.03976704
0.04069911
0.04164834
0.04260568
0.04355795
0.04445469
0.0452153
0.04574816
0.04595496
0.0457272
0.04493742
0.04345289
0.04116887
0.03802614
0.03384595
0.02816593
0.02020301
0.01571656
0.007147019
0.005284181
0.006678557
0.007899279
0.009127043
0.01041384
0.01176935
0.01318507
0.01464405
0.01612588
0.01760964
0.01908716
0.02060061
0.02217512
0.02373359
0.02518723
0.02647752
0.02757628
0.02847316
0.02917038
0.02968562
0.03005328
0.03031839
0.03052539
0.03070928
0.03089488
0.03109438
0.03131483
0.03156266
0.03184373
0.0321632
0.03252557
0.03293474
0.03339394
0.0339056
0.0344716
0.03509297
0.03576988
0.03650141
0.03728542
0.03811831
0.03899482
0.0399078
0.04084801
0.04180403
0.04276677
0.0437226
0.0446186
0.04537401
0.04589912
0.04609796
0.04586358
0.0450684
0.04357817
0.04128595
0.03813098
0.03393454
0.02823388
0.02024475
0.01574534
0.007231966
0.005332263
0.006715395
0.007948208
0.009205526
0.01053274
0.01193172
0.01338874
0.01488367
0.01639453
0.01789973
0.01941429
0.02098445
0.02259329
0.02415257
0.02558017
0.02682831
0.02787606
0.02871726
0.02935863
0.02982359
0.03015154
0.03038932
0.0305796
0.03075402
0.03093498
0.03113134
0.03135028
0.03159828
0.03188116
0.03220401
0.03257117
0.03298646
0.03345293
0.03397289
0.03454801
0.03517918
0.03586633
0.03660836
0.03740288
0.03824605
0.03913234
0.04005431
0.04100241
0.04196484
0.04293252
0.04389136
0.04478562
0.0455348
0.04605145
0.04624213
0.04600125
0.04520091
0.04370509
0.04140444
0.03823664
0.0340236
0.02830239
0.02028765
0.01577588
0.007324734
0.005387996
0.006773432
0.008029206
0.009323239
0.01069352
0.01213528
0.01363064
0.01515727
0.0166923
0.01821535
0.01976687
0.02139186
0.02302372
0.02456988
0.02596086
0.02715982
0.02815158
0.02893393
0.02951856
0.02993471
0.03022611
0.03044038
0.03061753
0.03078603
0.0309638
0.03115878
0.03137805
0.03162809
0.03191463
0.03224257
0.03261613
0.03303898
0.03351404
0.03404341
0.03462862
0.03527033
0.03596829
0.03672115
0.03752631
0.03837969
0.03927554
0.04020614
0.04116172
0.04213015
0.04310231
0.04406331
0.04495474
0.04569675
0.04620438
0.04638673
0.04613944
0.04533415
0.04383284
0.04152357
0.03834248
0.0341123
0.0283701
0.02032968
0.01580549
0.007425008
0.005452976
0.006853799
0.008141463
0.009476915
0.0108904
0.01237154
0.01389921
0.01544966
0.01699922
0.01855337
0.0201603
0.02182379
0.02346035
0.0249807
0.02632679
0.02747083
0.02840266
0.0291242
0.02965264
0.03002297
0.03028207
0.03047674
0.03064366
0.03080849
0.03098465
0.03117985
0.03140112
0.03165483
0.03194656
0.03228106
0.03266238
0.03309403
0.03357874
0.03411845
0.03471445
0.03536723
0.03607631
0.03684011
0.03765579
0.03851903
0.03942385
0.04036232
0.04132447
0.04229863
0.04327567
0.04423766
0.04512499
0.0458589
0.04635704
0.04653101
0.04627757
0.0454677
0.04396121
0.04164332
0.0384486
0.03420117
0.0284383
0.02037295
0.0158367
0.00753187
0.005527134
0.006958012
0.008287662
0.009668864
0.01112581
0.01264415
0.01420062
0.01577054
0.01732992
0.01891542
0.02057924
0.02227084
0.02389786
0.0253813
0.02667553
0.02776024
0.02862946
0.0292896
0.02976384
0.03009237
0.03032381
0.03050279
0.03066211
0.03082476
0.03100064
0.03119741
0.03142209
0.0316809
0.03197916
0.03232145
0.03271164
0.03315307
0.03364827
0.03419897
0.03480627
0.03547042
0.03619072
0.03696538
0.03779131
0.03866399
0.03957719
0.04052284
0.0414908
0.04247003
0.04345131
0.04441331
0.04529536
0.04602018
0.04650836
0.04667395
0.04641467
0.04560063
0.04408916
0.04176255
0.03855377
0.03428856
0.02850461
0.0204144
0.01586633
0.007644892
0.005612368
0.007086707
0.008464953
0.009893288
0.01139054
0.01293953
0.01451623
0.01609629
0.01768027
0.01931792
0.02102653
0.02272867
0.02433179
0.02576952
0.0270066
0.02802853
0.02883332
0.02943236
0.02985493
0.03014568
0.03035377
0.03052065
0.03067544
0.03083709
0.03101403
0.03121378
0.03144322
0.03170835
0.03201429
0.03236541
0.03276537
0.03321733
0.03372362
0.03428576
0.03490462
0.03558024
0.0363117
0.03709697
0.03793275
0.03881429
0.0397352
0.04068723
0.04166015
0.0426436
0.04362829
0.04458922
0.04546481
0.04617972
0.0466576
0.04681499
0.04655036
0.04573274
0.0442168
0.04188162
0.03865861
0.03437564
0.02857105
0.02045679
0.01589747
0.007763157
0.005708922
0.007240994
0.008676171
0.0101531
0.01168854
0.01326438
0.01485697
0.01644208
0.0180547
0.01975108
0.02149228
0.02318936
0.02475786
0.02614337
0.02731923
0.0282758
0.02901528
0.02955473
0.02992934
0.03018694
0.0303757
0.03053332
0.0306859
0.03084778
0.03102703
0.03123102
0.03146639
0.03173891
0.03205346
0.03241421
0.03282464
0.03328769
0.03380548
0.0343793
0.03500981
0.03569683
0.03643921
0.0372347
0.03807979
0.03896952
0.03989732
0.04085482
0.04183171
0.0428184
0.04380557
0.04476427
0.0456323
0.04633655
0.04680391
0.04695334
0.04668387
0.04586321
0.04434312
0.04199931
0.03876166
0.03446045
0.02863484
0.02049671
0.01592676
0.007886788
0.005818738
0.007420747
0.008915765
0.01043869
0.01200595
0.01360092
0.01520082
0.016807
0.01847037
0.02021408
0.02197132
0.02364937
0.02517384
0.02650164
0.02761303
0.02850255
0.02917704
0.02965965
0.02999088
0.03022027
0.03039361
0.03054445
0.03069611
0.03085929
0.03104184
0.03125102
0.03149327
0.03177402
0.03209794
0.03246897
0.03289036
0.03336485
0.03389435
0.0344799
0.03512197
0.03582013
0.03657303
0.0373782
0.03823191
0.03912904
0.04006283
0.0410248
0.04200457
0.04299345
0.04398207
0.04493735
0.04579671
0.04648967
0.04694647
0.04708837
0.04681475
0.04599183
0.0444682
0.04211604
0.03886368
0.03454435
0.02869829
0.02053716
0.01595752
0.008014586
0.005941819
0.007625352
0.009184642
0.0107534
0.01235028
0.01396024
0.0155623
0.0171945
0.01891726
0.02069942
0.02245751
0.02410428
0.02557769
0.02684385
0.02788844
0.02871009
0.02932077
0.02974987
0.03004238
0.03024817
0.03040961
0.03055618
0.03070785
0.03087327
0.03106012
0.03127545
0.03152536
0.03181503
0.03214888
0.03253063
0.03296328
0.03344937
0.03399057
0.03458771
0.03524102
0.03594988
0.03671271
0.03752686
0.0383884
0.03929203
0.04023085
0.04119627
0.04217785
0.04316775
0.04415663
0.04510721
0.0459569
0.0466381
0.04708445
0.04721935
0.04694234
0.04611785
0.04459113
0.04223061
0.03896317
0.03462532
0.02875858
0.02057478
0.0159863
0.00814712
0.006079964
0.007854845
0.009478618
0.01108687
0.01270375
0.01431852
0.01594036
0.01762436
0.01939675
0.02119988
0.02294451
0.02455125
0.02596849
0.02716993
0.02814603
0.02889976
0.02944876
0.02982835
0.03008672
0.03027281
0.0304251
0.03056993
0.03072261
0.03089121
0.03108328
0.03130556
0.03156378
0.0318629
0.03220709
0.0325998
0.03304384
0.03354148
0.03409421
0.03470261
0.03536668
0.03608561
0.03685762
0.03767988
0.03854831
0.03945745
0.04040031
0.04136816
0.04235046
0.0433402
0.0443281
0.04527267
0.04611176
0.04678094
0.04721718
0.0473458
0.04706628
0.04624112
0.04471198
0.04234341
0.0390609
0.03470476
0.02881804
0.0206126
0.01601638
0.00828324
0.006232453
0.008105312
0.009793209
0.01143822
0.01307189
0.0146923
0.01634401
0.01808662
0.01989928
0.02170951
0.02342954
0.02498905
0.02634588
0.02748011
0.02838667
0.02907335
0.02956379
0.02989865
0.03012788
0.03029808
0.03044352
0.0305877
0.03074218
0.03091476
0.03111271
0.03134247
0.03160949
0.03191841
0.03227316
0.03267695
0.03313231
0.03364133
0.03420524
0.03482439
0.03549857
0.03622676
0.03700701
0.03783632
0.03871049
0.03962397
0.04056971
0.04153893
0.042521
0.0435096
0.04449531
0.0454326
0.04626031
0.04691741
0.04734399
0.04746712
0.04718598
0.04636097
0.04482989
0.04245332
0.03915545
0.03478078
0.02887405
0.02064748
0.01604433
0.008423274
0.006399646
0.008376189
0.0101254
0.01179954
0.01344068
0.01508146
0.01678484
0.01857915
0.0204201
0.02222485
0.02391025
0.02541643
0.02670949
0.02777474
0.02861151
0.02923291
0.02966867
0.02996383
0.03016864
0.03032632
0.03046684
0.03061115
0.030768
0.03094513
0.03114952
0.0313872
0.0316633
0.03198222
0.0323476
0.03276238
0.03322886
0.03374889
0.03432348
0.03495273
0.03563621
0.03637272
0.03716011
0.03799522
0.03887375
0.03979009
0.04073717
0.04170631
0.04268766
0.04367541
0.04465737
0.045586
0.04640179
0.04704694
0.04746447
0.04758296
0.04730122
0.04647727
0.04494494
0.04256069
0.03924756
0.03485473
0.02892885
0.02068236
0.01607334
0.008566024
0.006580346
0.008661316
0.01046716
0.01216609
0.01382133
0.01549765
0.0172578
0.01909657
0.02095249
0.02274012
0.02438368
0.02583242
0.02705928
0.02805443
0.0288219
0.02938041
0.02976547
0.03002538
0.03020958
0.03035746
0.03049562
0.03064077
0.03080081
0.03098315
0.03119445
0.03144037
0.03172576
0.03205472
0.03243063
0.03285618
0.0333334
0.03386394
0.03444857
0.03508714
0.03577904
0.03652285
0.03731626
0.03815597
0.03903759
0.03995545
0.04090251
0.04187021
0.04285
0.04383639
0.04481327
0.04573224
0.04653574
0.04716918
0.04757835
0.04769308
0.04741159
0.04658944
0.0450563
0.04266445
0.03933593
0.03492489
0.02898004
0.02071434
0.01610009
0.008711723
0.006772604
0.008958649
0.01081817
0.01253598
0.01421602
0.01594525
0.01775949
0.01963241
0.02149166
0.02325317
0.02484916
0.02623704
0.02739576
0.02832024
0.02901955
0.02951837
0.02985738
0.03008677
0.03025394
0.03039418
0.03053119
0.03067783
0.03084162
0.03102963
0.03124812
0.03150243
0.03179713
0.03213604
0.03252226
0.03295821
0.03344568
0.0339861
0.03458002
0.03522705
0.03592638
0.03667642
0.03747471
0.03831783
0.03920131
0.04011948
0.04106536
0.0420305
0.04300761
0.04399151
0.04496212
0.04587053
0.04666138
0.04728337
0.04768483
0.04779671
0.04751652
0.04669715
0.04516392
0.04276488
0.03942124
0.03499254
0.02902972
0.02074612
0.01612764
0.008859173
0.006975032
0.009262447
0.011166
0.01291141
0.01463645
0.01642186
0.01828477
0.02018179
0.02203419
0.02376209
0.02530583
0.02663009
0.02771926