/*--------------------------------*- C++ -*----------------------------------*\
| =========                 |                                                 |
| \\      /  F ield         | OpenFOAM: The Open Source CFD Toolbox           |
|  \\    /   O peration     | Version:  2312                                  |
|   \\  /    A nd           | Website:  www.openfoam.com                      |
|    \\/     M anipulation  |                                                 |
\*---------------------------------------------------------------------------*/
FoamFile
{
    version     2.0;
    format      ascii;
    arch        "LSB;label=32;scalar=64";
    class       volScalarField;
    location    "2500";
    object      omega;
}
// * * * * * * * * * * * * * * * * * * * * * * * * * * * * * * * * * * * * * //

dimensions      [0 0 -1 0 0 0 0];

internalField   nonuniform List<scalar> 
12000
(
43.37295
19.51018
21.02668
22.47915
23.53952
24.46694
25.24801
25.93992
26.5407
27.07128
27.54804
27.98074
28.36974
28.70884
29.01441
29.2918
29.5478
29.76925
29.95997
30.12955
30.28374
30.41902
30.52681
30.61682
30.69144
30.75526
30.79901
30.8274
30.84003
30.84226
30.82618
30.81207
30.77504
30.73756
30.68571
30.63891
30.58307
30.5275
30.4302
30.24995
30.04545
29.94864
29.91971
29.75401
29.33246
29.05642
28.9377
28.78042
28.23433
27.80233
27.47416
27.06577
26.42591
25.72839
25.03845
24.11473
23.18664
21.70144
20.89804
45.11689
72.98543
22.45942
21.73051
22.27203
22.21973
21.89492
21.50903
21.09599
20.60452
20.12361
19.65741
19.19419
18.72793
18.29143
17.94668
17.6386
17.29283
16.91438
16.6272
16.43191
16.21318
15.92716
15.66674
15.50829
15.374
15.19275
14.99096
14.83583
14.72637
14.62857
14.51951
14.40437
14.31772
14.30044
14.29922
14.28669
14.27348
14.26643
14.34577
14.51376
14.71906
14.82776
14.85478
15.07482
15.59008
16.0705
16.30076
16.65862
17.55405
18.52197
19.33465
20.36949
21.96538
24.03532
26.29918
29.28293
33.6655
42.65009
58.59607
83.57443
76.91392
21.93652
20.66237
19.86335
18.91831
18.0753
17.09661
16.25479
15.45427
14.72237
14.11269
13.57267
13.12315
12.71888
12.38299
12.06969
11.78612
11.54138
11.3347
11.1453
10.96316
10.79949
10.66345
10.54673
10.435
10.32866
10.23647
10.16089
10.0981
10.04393
9.993821
9.945443
9.909713
9.901108
9.901369
9.900071
9.910064
9.937334
9.987334
10.05806
10.13602
10.21616
10.32623
10.48189
10.66995
10.86972
11.09975
11.39518
11.76185
12.19296
12.72422
13.40623
14.28729
15.3474
16.69104
18.74422
22.16811
27.97663
46.19437
91.40687
79.16428
21.15105
18.47855
17.51749
16.36272
15.3178
14.32279
13.43232
12.68895
12.01431
11.41011
10.89856
10.46079
10.07705
9.754401
9.474252
9.226512
9.011964
8.824472
8.657015
8.504853
8.370082
8.251218
8.147374
8.05516
7.973869
7.903671
7.844453
7.795005
7.756236
7.720735
7.697766
7.695645
7.700117
7.718314
7.751271
7.799442
7.863595
7.946838
8.053024
8.185298
8.344921
8.532268
8.756974
9.025465
9.341186
9.704223
10.12026
10.60914
11.18448
11.86059
12.66091
13.60142
14.62797
15.90365
17.80389
20.97218
26.98503
41.90993
95.33467
80.9694
20.18707
16.85734
15.79333
14.60662
13.51321
12.51454
11.62401
10.87459
10.25144
9.709077
9.229056
8.805885
8.441932
8.128285
7.857987
7.62264
7.417911
7.237994
7.075062
6.925948
6.794055
6.680187
6.58324
6.498575
6.42538
6.363764
6.309199
6.264926
6.236384
6.219018
6.21428
6.218126
6.236612
6.269491
6.317273
6.381535
6.463673
6.566776
6.693098
6.844784
7.023688
7.228683
7.466795
7.74669
8.069955
8.440986
8.867129
9.343566
9.90256
10.55195
11.26076
12.05659
13.06652
14.34032
16.09462
18.74577
23.86327
38.33554
98.28311
82.52956
19.67828
15.6134
14.45055
13.30292
12.24049
11.28805
10.45047
9.729349
9.112925
8.583728
8.134911
7.743629
7.393324
7.079327
6.800722
6.557573
6.343273
6.153205
5.984041
5.834685
5.70387
5.590257
5.492118
5.408187
5.33771
5.280185
5.235199
5.202995
5.184133
5.179763
5.186728
5.20818
5.244844
5.297597
5.367816
5.457101
5.564601
5.693354
5.848263
6.030391
6.242266
6.487186
6.766499
7.087134
7.454883
7.875219
8.355233
8.908022
9.526545
10.20363
10.9732
11.86907
12.91026
14.18502
15.90202
18.54612
23.46461
36.4092
99.89368
83.73047
19.4821
14.69489
13.42386
12.33749
11.33493
10.43398
9.638084
8.945506
8.347325
7.828545
7.376424
6.984338
6.643263
6.340889
6.06601
5.815376
5.591877
5.393798
5.219532
5.067079
4.934633
4.820677
4.723962
4.643515
4.57861
4.528731
4.493478
4.472752
4.467852
4.476097
4.499405
4.538223
4.593307
4.664646
4.753425
4.862016
4.991402
5.142495
5.31808
5.520708
5.752999
6.017957
6.318993
6.660526
7.047181
7.486947
7.985091
8.536323
9.147397
9.836079
10.6167
11.50431
12.54414
13.78558
15.37989
17.81246
22.443
35.20211
101.2958
84.87202
19.51844
14.04211
12.64349
11.60801
10.66624
9.817381
9.06388
8.402203
7.824119
7.318622
6.873223
6.479482
6.130738
5.823237
5.550437
5.304896
5.082933
4.882815
4.704584
4.548884
4.414844
4.301253
4.206895
4.130749
4.071974
4.029894
4.003988
3.995459
4.000789
4.021858
4.058767
4.111626
4.180816
4.267234
4.371458
4.494838
4.638843
4.805112
4.995683
5.212949
5.459652
5.739011
6.054885
6.412079
6.817279
7.272807
7.7807
8.35032
8.992608
9.717035
10.53159
11.44504
12.49061
13.7215
15.31201
17.72598
22.22632
34.14303
101.9609
85.84513
19.78342
13.62103
12.05445
11.04955
10.16917
9.371956
8.65691
8.023088
7.464126
6.970718
6.532949
6.14312
5.79422
5.480815
5.201218
4.953025
4.732005
4.536392
4.363265
4.210691
4.079181
3.968504
3.87807
3.806993
3.754404
3.719516
3.702355
3.701151
3.715876
3.746538
3.793145
3.856158
3.935705
4.032136
4.146351
4.279452
4.432826
4.608109
4.807278
5.032649
5.287015
5.573776
5.89748
6.262444
6.670972
7.128165
7.641747
8.220224
8.871437
9.604057
10.42978
11.36289
12.39595
13.58835
15.12179
17.45101
21.85796
33.75703
102.6233
86.72962
20.12282
13.329
11.60304
10.60761
9.772071
9.021685
8.347824
7.745143
7.207865
6.728952
6.300951
5.917407
5.573145
5.263562
4.985648
4.737001
4.515539
4.320083
4.149721
4.002902
3.877163
3.771876
3.686599
3.620765
3.573605
3.54435
3.5333
3.537826
3.558584
3.595286
3.647842
3.716798
3.802289
3.904365
4.023892
4.161955
4.319913
4.49942
4.702458
4.931475
5.189526
5.480255
5.806696
6.17232
6.582537
7.044054
7.564289
8.150917
8.812136
9.563007
10.4143
11.35409
12.38718
13.58122
15.11206
17.42661
21.74696
33.17871
102.9355
87.40858
20.58353
13.19656
11.26941
10.25514
9.457218
8.749044
8.109412
7.534208
7.018829
6.556501
6.141105
5.767275
5.430663
5.127635
4.855596
4.612401
4.396085
4.204595
4.037122
3.893158
3.772036
3.672049
3.591816
3.530627
3.487838
3.46273
3.455091
3.463346
3.487549
3.527423
3.5829
3.654485
3.742347
3.846549
3.96791
4.107486
4.266622
4.446965
4.65061
4.880262
5.138956
5.428773
5.753607
6.118444
6.529147
6.992143
7.514864
8.105414
8.781763
9.553029
10.41026
11.34398
12.36721
13.54475
15.05322
17.32935
21.60595
33.05507
103.2131
87.90349
21.05924
13.12826
11.0165
9.974251
9.197707
8.523473
7.917536
7.370245
6.876094
6.430929
6.029634
5.667979
5.342822
5.0522
4.791771
4.556694
4.345376
4.157298
3.992416
3.851545
3.734353
3.63859
3.562463
3.504883
3.465086
3.442445
3.43657
3.446473
3.471969
3.51282
3.569133
3.641394
3.729722
3.834241
3.955723
4.09521
4.254026
4.433801
4.636527
4.864314
5.119566
5.406423
5.729032
6.092415
6.502653
6.965817
7.490096
8.09103
8.779557
9.557751
10.41386
11.34337
12.36544
13.54462
15.05404
17.32424
21.56211
32.7811
103.4127
88.21043
21.50716
13.12801
10.8301
9.737426
8.970585
8.326427
7.751906
7.232152
6.761198
6.334726
5.949698
5.60364
5.295549
5.02172
4.77539
4.551101
4.346123
4.160462
3.997364
3.857119
3.739276
3.643477
3.569171
3.514458
3.477176
3.456375
3.451709
3.462537
3.488585
3.529618
3.585706
3.657153
3.744142
3.847046
3.966699
4.104176
4.260817
4.438312
4.638597
4.864059
5.11766
5.402828
5.723628
6.084907
6.492364
6.954109
7.482116
8.091513
8.790491
9.570934
10.4236
11.34843
12.36596
13.54227
15.04535
17.30563
21.52252
32.72685
103.499
88.36998
21.96062
13.15364
10.68676
9.540157
8.774279
8.150553
7.602382
7.108333
6.660679
6.254941
5.88854
5.560438
5.271166
5.014403
4.779505
4.564306
4.369177
4.194454
4.038439
3.901809
3.785089
3.688394
3.611894
3.555344
3.517698
3.496989
3.491989
3.502077
3.526954
3.566442
3.620632
3.689829
3.774338
3.874656
3.991636
4.126375
4.28024
4.454888
4.65234
4.875003
5.125789
5.40817
5.726339
6.085361
6.49137
6.95311
7.486679
8.105986
8.80939
9.589065
10.43914
11.36236
12.37982
13.55535
15.05617
17.30798
21.51272
32.66839
103.6565
88.41581
22.311
13.19141
10.57254
9.37048
8.597828
7.989388
7.462943
6.992276
6.566779
6.181799
5.834833
5.525668
5.255512
5.017117
4.800916
4.60196
4.419532
4.253637
4.104123
3.971208
3.855382
3.757318
3.677779
3.617331
3.575804
3.552187
3.544839
3.552696
3.575266
3.612289
3.663784
3.730007
3.811355
3.908431
4.022119
4.153556
4.304155
4.475611
4.669963
4.889652
5.13763
5.417435
5.733323
6.090449
6.495069
6.959308
7.499241
8.122352
8.825787
9.603159
10.45053
11.37141
12.38665
13.55946
15.05703
17.30664
21.50401
32.61369
103.6982
88.38007
22.59152
13.23715
10.48005
9.220765
8.435577
7.836461
7.328877
6.879289
6.474749
6.109842
5.78266
5.493211
5.243065
5.025246
4.82866
4.647439
4.479691
4.325033
4.183386
4.054892
3.940117
3.840194
3.756707
3.691154
3.644286
3.615714
3.604189
3.608361
3.627532
3.661259
3.709456
3.772321
3.850291
3.944028
4.054429
4.182656
4.330142
4.498619
4.69016
4.907246
5.152844
5.430518
5.744582
6.100327
6.505292
6.97351
7.518896
8.144887
8.848394
9.624782
10.47131
11.392
12.40796
13.58202
15.08038
17.32675
21.51518
32.61705
103.7932
88.31173
22.78341
13.2694
10.39862
9.085671
8.284605
7.690273
7.197378
6.766389
6.381585
6.036603
5.729338
5.459938
5.229981
5.03289
4.857004
4.694815
4.543126
4.400907
4.267858
4.144048
4.030218
3.928053
3.840048
3.768763
3.715849
3.681548
3.664915
3.664559
3.679527
3.709354
3.753823
3.813085
3.8876
3.978046
4.085317
4.210598
4.355339
4.521288
4.710525
4.925527
5.169253
5.445261
5.757875
6.112434
6.518021
6.988895
7.536728
8.164034
8.867017
9.641011
10.48435
11.40216
12.41577
13.58779
15.08459
17.33067
21.51894
32.60612
103.821
88.23814
22.88913
13.29106
10.31991
8.956703
8.138328
7.546004
7.065359
6.651308
6.285355
5.960028
5.672875
5.42387
5.214347
5.038095
4.883215
4.740626
4.60558
4.476168
4.351781
4.232475
4.119254
4.014448
3.921558
3.844285
3.785211
3.745096
3.723168
3.717974
3.728462
3.754124
3.794704
3.850329
3.921456
4.008767
4.113155
4.235816
4.37821
4.542091
4.729546
4.943052
5.185562
5.46062
5.77254
6.12666
6.533219
7.006728
7.556872
8.185445
8.88913
9.66344
10.50638
11.42394
12.43836
13.61164
15.10987
17.35719
21.54495
32.62465
103.8708
88.16424
22.93589
13.2895
10.24175
8.833432
7.997298
7.404562
6.933327
6.534332
6.186417
5.880702
5.613799
5.385385
5.19644
5.040878
4.906648
4.783374
4.664691
4.54769
4.43139
4.315869
4.20256
4.094629
3.996697
3.913586
3.848708
3.803201
3.77626
3.76637
3.772462
3.794007
3.830777
3.882901
3.950837
4.03527
4.137094
4.257506
4.397967
4.560231
4.746379
4.958878
5.200666
5.475266
5.786969
6.141085
6.548219
7.022918
7.574051
8.202901
8.906017
9.679252
10.52125
11.43774
12.45037
13.62205
15.11977
17.36825
21.55983
32.64067
103.8835
88.09032
22.90379
13.26147
10.15378
8.707875
7.855614
7.262053
6.799665
6.414986
6.08453
5.798064
5.551558
5.344015
5.175859
5.040803
4.926835
4.822222
4.718997
4.61325
4.503791
4.391042
4.277006
4.165665
4.062725
3.974177
3.904169
3.854003
3.82263
3.808466
3.810505
3.828243
3.861514
3.910466
3.975568
4.057512
4.157198
4.275823
4.414846
4.576014
4.761397
4.973445
5.215068
5.489757
5.801757
6.156331
6.564373
7.040483
7.592865
8.2224
8.925614
9.698702
10.54073
11.45757
12.47081
13.64378
15.14335
17.39496
21.59272
32.68285
103.9137
88.04048
22.87013
13.22394
10.06225
8.581905
7.715226
7.120563
6.666321
6.295406
5.982173
5.714674
5.488483
5.301841
5.154564
5.039839
4.944874
4.857268
4.767661
4.671598
4.56776
4.456557
4.34069
4.225469
4.117851
4.024666
3.950484
3.89657
3.861495
3.84364
3.842137
3.856508
3.88674
3.932971
3.995686
4.075588
4.173589
4.290884
4.428925
4.589447
4.774505
4.986524
5.228383
5.503529
5.816151
6.171445
6.580276
7.057218
7.610296
8.240115
8.943065
9.715393
10.55642
11.47256
12.48521
13.65831
15.15964
17.41426
21.61711
32.71818
103.9424
87.99022
22.7619
13.15839
9.961046
8.454332
7.575059
6.980055
6.533624
6.176302
5.879968
5.631834
5.426051
5.260219
5.13342
5.038023
4.960945
4.888792
4.811179
4.7227
4.622037
4.510663
4.392436
4.273536
4.161872
4.064971
3.987602
3.930834
3.892813
3.871904
3.867438
3.879053
3.906771
3.950792
4.011616
4.089959
4.186745
4.303165
4.440665
4.600967
4.786102
4.998472
5.24092
5.516847
5.830387
6.186664
6.596455
7.074284
7.628044
8.258069
8.960799
9.732845
10.57375
11.48976
12.50293
13.67768
15.18125
17.44005
21.65
32.75751
103.9816
87.97604
22.66324
13.08121
9.850015
8.320525
7.433002
6.839862
6.402515
6.058814
5.77929
5.550289
5.364894
5.219796
5.113261
5.036692
4.976405
4.917544
4.848776
4.765092
4.666081
4.55379
4.432749
4.310169
4.195049
4.095502
4.016125
3.957285
3.916931
3.893613
3.886809
3.89626
3.92203
3.96437
4.023802
4.101055
4.197068
4.31303
4.450376
4.610812
4.79635
5.009363
5.252657
5.52959
5.844239
6.201659
6.612427
7.09098
7.645343
8.275794
8.97833
9.749122
10.5887
11.50457
12.51878
13.6951
15.20111
17.46384
21.67908
32.79929
104.0289
87.9862
22.59598
12.99778
9.738771
8.190031
7.294628
6.703596
6.275341
5.945111
5.682689
5.472733
5.307555
5.183102
5.096104
5.037049
4.991357
4.942864
4.880356
4.799798
4.701145
4.586882
4.462384
4.336172
4.218299
4.117145
4.036783
3.976602
3.934514
3.909409
3.900868
3.908726
3.933089
3.974259
4.032778
4.109391
4.205048
4.320936
4.45848
4.619369
4.805596
5.019501
5.263856
5.541976
5.857881
6.216562
6.628402
7.107791
7.662865
8.293488
8.995258
9.764943
10.6039
11.52009
12.53619
13.71466
15.22291
17.48968
21.7103
32.83982
104.0815
88.01582
22.51556
12.89959
9.612699
8.052086
7.155564
6.570085
6.151819
5.836135
5.591032
5.400235
5.25513
5.151019
5.082593
5.039343
5.005617
4.964964
4.906871
4.827716
4.727779
4.610303
4.481933
4.352469
4.232713
4.130916
4.050381
3.989534
3.946312
3.919994
3.910267
3.917053
3.940508
3.980978
4.039026
4.115408
4.211085
4.327239
4.465284
4.626895
4.814039
5.029031
5.274607
5.554037
5.871292
6.231298
6.644301
7.124649
7.680347
8.310863
9.011841
9.78054
10.61866
11.5345
12.55105
13.73225
15.24475
17.51492
21.73953
32.88061
104.1404
88.10346
22.46715
12.80489
9.491698
7.919237
7.020904
6.440793
6.033878
5.733247
5.505738
5.333993
5.208589
5.124067
5.073199
5.043924
5.019962
4.984874
4.928938
4.849064
4.746226
4.624623
4.492206
4.360015
4.239372
4.137925
4.057815
3.996787
3.95298
3.925986
3.915596
3.921807
3.944824
3.985033
4.043014
4.119538
4.215569
4.332286
4.471094
4.633648
4.821896
5.038122
5.285031
5.565852
5.884508
6.245865
6.660081
7.141438
7.697717
8.32796
9.027952
9.795503
10.63311
11.54971
12.56833
13.75177
15.26636
17.53969
21.76946
32.9208
104.2013
88.2234
22.4295
12.71025
9.369474
7.787915
6.890614
6.318088
5.923386
5.638229
5.428282
5.275222
5.168698
5.102522
5.067659
5.051057
5.034574
5.002414
4.946186
4.863662
4.756487
4.629932
4.493493
4.359602
4.239213
4.139128
4.05984
3.998947
3.955089
3.927946
3.917398
3.923508
3.946524
3.986872
4.045153
4.122145
4.218824
4.33636
4.476148
4.639829
4.829327
5.0469
5.29522
5.577478
5.897553
6.26026
6.675729
7.158144
7.714949
8.344861
9.043758
9.809998
10.64676
11.56356
12.58374
13.77019
15.28855
17.56544
21.79923
32.96194
104.267
88.37967
22.40223
12.61761
9.250065
7.661251
6.766592
6.203041
5.821316
5.551849
5.359343
5.224592
5.136629
5.087871
5.067818
5.061284
5.049564
5.017901
4.959245
4.87238
4.759864
4.628778
4.489391
4.3544
4.235063
4.136683
4.058349
3.997743
3.954047
3.927015
3.916597
3.922902
3.946218
3.987001
4.045862
4.123595
4.221159
4.339726
4.480674
4.645626
4.836485
5.055483
5.305261
5.588975
5.910463
6.274493
6.691254
7.174805
7.732085
8.361533
9.059217
9.824155
10.66038
11.578
12.6003
13.78948
15.31049
17.59009
21.82786
33.00119
104.3372
88.56431
22.38117
12.52733
9.1331
7.539178
6.649613
6.096328
5.728264
5.474735
5.299383
5.182262
5.111875
5.078695
5.071776
5.073423
5.064223
5.030819
4.967916
4.87535
4.757217
4.620731
4.478383
4.343416
4.225902
4.12977
4.052868
3.993003
3.949879
3.92335
3.913435
3.92029
3.944238
3.985757
4.045472
4.124164
4.222825
4.342592
4.484835
4.651162
4.843452
5.063913
5.315156
5.600305
5.923162
6.288456
6.706514
7.191275
7.749002
8.377793
9.073999
9.837421
10.67298
11.59137
12.61591
13.80831
15.33269
17.61529
21.85664
33.04135
104.4126
88.77606
22.36552
12.44166
9.023055
7.425535
6.541574
5.99915
5.6451
5.407394
5.248814
5.148864
5.095751
5.078632
5.082132
5.088325
5.078465
5.041086
4.972397
4.873342
4.748172
4.606788
4.46248
4.328567
4.213757
4.119771
4.044161
3.985357
3.94315
3.917465
3.90838
3.916092
3.940958
3.983473
4.044274
4.124146
4.224056
4.345154
4.488796
4.65657
4.850336
5.072277
5.324975
5.611523
5.935692
6.302176
6.721514
7.207517
7.765637
8.393624
9.088236
9.850192
10.68534
11.60486
12.63195
13.82752
15.35479
17.63966
21.88393
33.07952
104.4963
89.00852
22.36254
12.36286
8.919984
7.320073
6.443156
5.9124
5.572566
5.350446
5.208094
5.124593
5.086756
5.082587
5.095762
5.104364
5.09158
5.048296
4.972165
4.865321
4.733498
4.587869
4.442642
4.310646
4.198927
4.107231
4.033069
3.975536
3.93448
3.909887
3.901883
3.910703
3.936718
3.980439
4.042509
4.123713
4.225011
4.347545
4.49266
4.661926
4.857183
5.080593
5.334714
5.622611
5.948024
6.315615
6.73621
7.223472
7.781867
8.408831
9.101653
9.862068
10.69686
11.61769
12.64756
13.84656
15.37689
17.66393
21.91062
33.11694
104.5842
89.26415
22.36301
12.29142
8.82664
7.225526
6.356074
5.836942
5.510887
5.30366
5.176883
5.10955
5.087383
5.094556
5.113264
5.121222
5.103367
5.052758
4.96836
4.852853
4.714226
4.565023
4.419842
4.290436
4.182017
4.092715
4.020158
3.964064
3.924351
3.901058
3.894347
3.904475
3.931828
3.976926
4.040413
4.123072
4.225855
4.349895
4.496522
4.667291
4.864025
5.088867
5.344353
5.63353
5.960116
6.328739
6.750575
7.239088
7.797593
8.42331
9.114238
9.873194
10.70788
11.63035
12.66328
13.8658
15.39899
17.68765
21.93598
33.15241
104.68
89.54218
22.36716
12.2304
8.743948
7.142057
6.280458
5.773026
5.460573
5.268035
5.156681
5.104919
5.095884
5.112897
5.134037
5.138196
5.112907
5.053147
4.959549
4.835581
4.690753
4.539034
4.395079
4.269061
4.163683
4.076487
4.005723
3.951273
3.91311
3.89132
3.886096
3.897711
3.92656
3.973171
4.03819
4.122393
4.226727
4.35231
4.500459
4.672713
4.870879
5.097082
5.353847
5.644211
5.971885
6.341535
6.764646
7.254286
7.812655
8.436919
9.125871
9.883433
10.7182
11.64255
12.67877
13.88493
15.42089
17.71077
21.9599
33.18493
104.7744
89.8466
22.37578
12.17742
8.674179
7.072406
6.218176
5.721621
5.421872
5.243023
5.145866
5.108878
5.112094
5.135993
5.156287
5.154777
5.120882
5.051507
4.947377
4.814561
4.664097
4.510904
4.369035
4.246716
4.144278
4.059132
3.990267
3.937596
3.901135
3.881003
3.877414
3.890653
3.921124
3.969357
4.035995
4.121807
4.227731
4.354871
4.504528
4.678224
4.877748
5.105209
5.363118
5.654505
5.983081
6.353952
6.778604
7.269085
7.826976
8.449573
9.136509
9.892803
10.7279
11.65446
12.69426
13.90422
15.44287
17.73359
21.98288
33.21573
104.8719
90.17812
22.39428
12.13935
8.616737
7.014762
6.167911
5.681878
5.394001
5.228002
5.146691
5.123049
5.136095
5.163273
5.179841
5.170188
5.126054
5.045582
4.931089
4.789923
4.634848
4.481312
4.342215
4.223696
4.124171
4.041117
3.974206
3.923396
3.888744
3.870391
3.868551
3.883523
3.915709
3.965642
4.033956
4.121412
4.22894
4.357631
4.508762
4.683841
4.884639
5.113253
5.372184
5.664458
5.993793
6.3658
6.791951
7.283148
7.840342
8.461077
9.145948
9.901095
10.73677
11.66584
12.70948
13.92331
15.46444
17.75544
22.00383
33.24215
104.9617
90.53654
22.42006
12.10976
8.575959
6.973723
6.132494
5.655279
5.378877
5.228045
5.158085
5.146075
5.166516
5.193477
5.203676
5.183994
5.128303
5.036333
4.911261
4.76231
4.603756
4.451095
4.315495
4.200449
4.103473
4.022593
3.957738
3.9089
3.876166
3.859704
3.859707
3.876493
3.910465
3.962149
4.032176
4.121292
4.230419
4.360623
4.513173
4.689559
4.891536
5.121187
5.381007
5.674023
6.003966
6.377008
6.804591
7.296342
7.852625
8.47136
9.154177
9.908356
10.74492
11.67685
12.72465
13.94255
15.48615
17.77718
22.02428
33.2675
105.0514
90.91717
22.45583
12.10127
8.546483
6.943823
6.108226
5.64017
5.376408
5.235713
5.180592
5.178083
5.202247
5.22544
5.227184
5.196141
5.12818
5.023855
4.888283
4.732407
4.571609
4.420787
4.289023
4.177171
4.082518
4.003857
3.941125
3.894345
3.863616
3.849112
3.851031
3.869691
3.905494
3.958961
4.030714
4.121487
4.232177
4.363847
4.517747
4.695351
4.898399
5.128963
5.389533
5.683137
6.013525
6.387479
6.816394
7.308528
7.863698
8.480306
9.1611
9.914495
10.75224
11.68735
12.73955
13.96155
15.50734
17.79778
22.0425
33.28845
105.1322
91.31671
22.50373
12.10257
8.539315
6.932706
6.101039
5.640416
5.383717
5.25682
5.212921
5.217513
5.242072
5.258591
5.249812
5.206263
5.125203
5.008314
4.862636
4.700888
4.539021
4.390725
4.262834
4.154061
4.061694
3.985237
3.92464
3.879951
3.851274
3.838775
3.842654
3.863225
3.900882
3.956138
4.029605
4.122002
4.234214
4.367286
4.522452
4.701173
4.905175
5.13652
5.397694
5.691731
6.022398
6.39713
6.827261
7.319584
7.873433
8.487821
9.166672
9.919522
10.75878
11.69745
12.75439
13.98068
15.52868
17.81835
22.06053
33.30932
105.2147
91.72749
22.56187
12.11873
8.541465
6.934102
6.103351
5.648516
5.405964
5.289963
5.254948
5.263544
5.284727
5.292302
5.271211
5.214
5.11911
4.989723
4.834688
4.668323
4.50662
4.361488
4.2372
4.131183
4.041096
3.966855
3.90843
3.865873
3.839285
3.828825
3.834689
3.857184
3.896695
3.953725
4.028873
4.122847
4.236513
4.370902
4.527234
4.706956
4.911784
5.143774
5.405409
5.69973
6.03052
6.405888
6.837077
7.329365
7.881697
8.493803
9.170823
9.923382
10.76449
11.70704
12.76892
13.9995
15.54937
17.8376
22.0762
33.32613
105.2908
92.14848
22.63309
12.15113
8.560526
6.947566
6.120414
5.674589
5.441013
5.333867
5.305295
5.314483
5.328991
5.325778
5.291118
5.21937
5.110245
4.968573
4.80513
4.635434
4.474932
4.333392
4.212254
4.108589
4.020814
3.948824
3.892608
3.85222
3.827747
3.819344
3.827203
3.85162
3.892969
3.951743
4.028524
4.124006
4.239039
4.374639
4.532016
4.712606
4.918121
5.150614
5.412572
5.707044
6.037818
6.413693
6.845774
7.337767
7.888384
8.49819
9.173538
9.926101
10.76941
11.71621
12.78334
14.01836
15.57009
17.85675
22.09178
33.34346
105.371
92.57513
22.71744
12.1986
8.594788
6.977088
6.151631
5.714572
5.488826
5.388256
5.36283
5.369082
5.374731
5.35858
5.309065
5.221971
5.098493
4.945122
4.774458
4.6027
4.444132
4.30621
4.188051
4.086642
4.001114
3.931349
3.877335
3.839111
3.816754
3.810406
3.82025
3.846568
3.889721
3.950187
4.028535
4.125438
4.241733
4.378423
4.536706
4.718011
4.92405
5.156884
5.419015
5.713516
6.044199
6.420507
6.853282
7.344687
7.893405
8.500939
9.174739
9.927628
10.77345
11.72482
12.79737
14.03676
15.58998
17.8744
22.10485
33.35676
105.4464
93.00914
22.8167
12.26157
8.643036
7.020079
6.199504
5.767813
5.547413
5.451852
5.426752
5.42669
5.420958
5.390232
5.324784
5.221614
5.084044
4.919788
4.743198
4.57056
4.414455
4.28005
4.16469
4.065468
3.98212
3.914545
3.862714
3.826641
3.806384
3.802071
3.813872
3.842051
3.886954
3.949044
4.028875
4.127098
4.244537
4.382181
4.541215
4.723062
4.929432
5.162396
5.424477
5.718786
6.049592
6.426561
6.859596
7.349992
7.89667
8.502072
9.175038
9.928546
10.77692
11.73298
12.81117
14.05505
15.60971
17.89181
22.11778
33.37061
105.5255
93.44841
22.92852
12.33739
8.705565
7.078577
6.261546
5.833296
5.616824
5.523738
5.495018
5.486109
5.46712
5.420711
5.33877
5.219809
5.067708
4.893345
4.71206
4.53964
4.386548
4.255075
4.14196
4.044945
3.963805
3.898432
3.848782
3.814847
3.796671
3.794361
3.808077
3.838064
3.884649
3.948282
4.029498
4.128932
4.24739
4.385848
4.545481
4.727707
4.934237
5.167149
5.42899
5.722909
6.053824
6.43143
6.8644
7.353488
7.897828
8.501037
9.17263
9.926958
10.77888
11.74028
12.82439
14.0727
15.62844
17.90758
22.12812
33.38025
105.5989
93.89522
23.05391
12.42673
8.779487
7.15427
6.337898
5.910131
5.695817
5.602227
5.567287
5.546912
5.51286
5.449515
5.350147
5.214679
5.049221
4.866088
4.681436
4.510024
4.36003
4.231232
4.120171
4.025283
3.946306
3.883103
3.835598
3.803763
3.787646
3.78729
3.802863
3.834588
3.882774
3.947854
4.030348
4.130871
4.250215
4.389346
4.549429
4.731877
4.938407
5.171111
5.432559
5.725939
6.056824
6.434921
6.867645
7.355251
7.897589
8.498853
9.169695
9.925214
10.78057
11.74724
12.83733
14.09007
15.64683
17.92297
22.13824
33.39023
105.6743
94.34684
23.18975
12.52535
8.872388
7.244201
6.425009
5.997292
5.783356
5.686411
5.642506
5.608463
5.557781
5.476432
5.359097
5.207333
5.029202
4.838543
4.651671
4.481808
4.334848
4.208563
4.099471
4.006616
3.929724
3.868629
3.823219
3.793437
3.779317
3.780857
3.798217
3.831597
3.881288
3.947709
4.031362
4.132846
4.252939
4.392596
4.552979
4.735498
4.941876
5.174216
5.435113
5.727796
6.058475
6.436881
6.869147
7.355334
7.895479
8.494798
9.165005
9.92199
10.7814
11.75344
12.84951
14.10659
15.66406
17.93665
22.14577
33.39594
105.7429
94.80399
23.3369
12.63923
8.979438
7.345608
6.522822
6.094143
5.878443
5.775374
5.720008
5.670342
5.601621
5.501342
5.365676
5.197945
5.008094
4.811177
4.623117
4.455189
4.311072
4.187074
4.079858
3.988968
3.914103
3.85506
3.811687
3.783897
3.771697
3.775059
3.79412
3.82906
3.88015
3.947793
4.032477
4.134784
4.255483
4.39552
4.556054
4.738499
4.944582
5.17642
5.43663
5.728459
6.058865
6.437464
6.869236
7.353763
7.891673
8.4892
9.158914
9.917315
10.78023
11.75852
12.86106
14.12265
15.68084
17.94991
22.1531
33.40194
105.8125
95.2609
23.48961
12.7653
9.09872
7.457894
6.630888
6.199961
5.980081
5.868135
5.799033
5.732034
5.644069
5.524146
5.370029
5.186887
4.986417
4.784476
4.596166
4.430593
4.288743
4.166513
4.061187
3.972268
3.899415
3.842383
3.800992
3.77513
3.764774
3.769874
3.79054
3.826934
3.879305
3.948044
4.033623
4.13661
4.257764
4.398031
4.55857
4.740802
4.946472
5.177705
5.437185
5.728288
6.058326
6.436901
6.867766
7.350414
7.886172
8.482145
9.151717
9.912
10.77907
11.76325
12.87201
14.13784
15.6964
17.96147
22.15793
33.40373
105.8752
95.71825
23.64822
12.90322
9.230041
7.58105
6.748771
6.313896
6.087453
5.964073
5.878941
5.792969
5.684651
5.544502
5.372011
5.174316
4.964498
4.758707
4.570772
4.40757
4.267802
4.147205
4.043664
3.956627
3.885711
3.830623
3.791146
3.767135
3.758537
3.765278
3.787445
3.825176
3.878703
3.948402
4.034732
4.138248
4.259704
4.400041
4.560421
4.742275
4.947354
5.17792
5.436624
5.726728
6.056195
6.434523
6.864359
7.34517
7.878931
8.473568
9.143181
9.905439
10.77671
11.76694
12.88209
14.1523
15.71134
17.97253
22.16253
33.40537
105.9388
96.17071
23.80896
13.05075
9.372261
7.714635
6.876002
6.435177
6.199575
6.062286
5.959208
5.852834
5.723226
5.562474
5.371827
5.160687
4.942781
4.734164
4.547033
4.386105
4.248259
4.129204
4.027359
3.942121
3.873057
3.819827
3.782175
3.759922
3.752979
3.761254
3.784804
3.823746
3.878295
3.948813
4.035747
4.139641
4.261242
4.401493
4.561566
4.742905
4.947349
5.177076
5.434774
5.723939
6.052867
6.430696
6.859278
7.338221
7.870131
8.463648
9.133491
9.897845
10.7734
11.76974
12.89128
14.16573
15.72497
17.98187
22.16484
33.40471
105.9958
96.62044
23.97288
13.20779
9.52503
7.858351
7.012066
6.563072
6.315705
6.162189
6.039413
5.911439
5.75991
5.578632
5.370807
5.146715
4.921769
4.711134
4.525061
4.366234
4.23013
4.112527
4.012295
3.928774
3.861472
3.810007
3.774085
3.753486
3.748089
3.757779
3.782586
3.822606
3.878037
3.94923
4.03662
4.14074
4.262337
4.402357
4.561981
4.742703
4.946293
5.174982
5.431531
5.719883
6.048385
6.425432
6.852584
7.329677
7.859901
8.452535
9.122833
9.889426
10.7693
11.77174
12.8996
14.17829
15.73786
17.9906
22.16553
33.40319
106.0536
97.06393
24.13789
13.37244
9.687131
8.011419
7.1562
6.696763
6.435106
6.263205
6.119125
5.968462
5.794439
5.592587
5.3679
5.132378
4.901609
4.689777
4.505057
4.347994
4.213313
4.097109
3.998426
3.916552
3.850938
3.801154
3.766863
3.747813
3.743844
3.754825
3.780757
3.821718
3.87789
3.949612
4.037312
4.141516
4.262969
4.402624
4.561686
4.741612
4.944228
5.171795
5.42712
5.714575
6.042532
6.418665
6.844321
7.319622
7.848322
8.440267
9.111154
9.879959
10.76417
11.77285
12.90707
14.18991
15.74972
17.9983
22.16619
33.39821
106.1039
97.50481
24.30581
13.54474
9.858156
8.173311
7.307723
6.835522
6.557155
6.36486
6.198008
6.023723
5.826857
5.604748
5.364159
5.118285
4.882694
4.670241
4.486994
4.331352
4.197809
4.082959
3.985768
3.90547
3.84146
3.793261
3.760498
3.742881
3.740218
3.752359
3.779281
3.821044
3.877815
3.949925
4.037795
4.141945
4.263124
4.402296
4.560646
4.739667
4.941211
5.16757
5.421592
5.708044
6.03531
6.410392
6.834481
7.308012
7.8353
8.426779
9.098696
9.870466
10.75921
11.77321
12.91302
14.20007
15.76059
18.00555
22.16682
33.39438
106.155
97.94073
24.47553
13.72305
10.03682
8.34304
7.465747
6.978573
6.681243
6.466717
6.275781
6.077114
5.857261
5.615397
5.359906
5.10481
4.865261
4.652541
4.470689
4.3163
4.183783
4.070182
3.974388
3.895566
3.833056
3.786332
3.754979
3.738679
3.737192
3.750361
3.778136
3.820561
3.87779
3.950151
4.038057
4.142025
4.26281
4.401364
4.558898
4.73692
4.937304
5.162374
5.415019
5.700373
6.026832
6.400774
6.823287
7.295144
7.821193
8.41234
9.085102
9.859032
10.75206
11.77328
12.91947
14.21045
15.77072
18.01121
22.16605
33.38477
106.1978
98.37544
24.64878
13.90733
10.22256
8.519862
7.629469
7.125201
6.806833
6.568417
6.35225
6.128622
5.885835
5.624867
5.355521
5.092272
4.849484
4.636716
4.456129
4.302852
4.171272
4.058822
3.964319
3.886863
3.825735
3.780363
3.750289
3.735209
3.734759
3.748814
3.777299
3.820246
3.877798
3.950276
4.038086
4.141748
4.262011
4.399843
4.556464
4.733399
4.932544
5.156254
5.407454
5.691609
6.017119
6.389804
6.810693
7.280905
7.80582
8.396893
9.071162
9.848523
10.74617
11.77127
12.9224
14.21767
15.77928
18.01641
22.16406
33.3783
106.24
98.80674
24.82501
14.09613
10.41405
8.702681
7.798002
7.274724
6.933418
6.669616
6.427257
6.178296
5.912815
5.633517
5.35137
5.080942
4.835508
4.622823
4.443339
4.291027
4.160298
4.048901
3.95558
3.879374
3.819512
3.77537
3.746453
3.732442
3.732894
3.747695
3.776754
3.820087
3.877829