/*--------------------------------*- C++ -*----------------------------------*\
| =========                 |                                                 |
| \\      /  F ield         | OpenFOAM: The Open Source CFD Toolbox           |
|  \\    /   O peration     | Version:  2312                                  |
|   \\  /    A nd           | Website:  www.openfoam.com                      |
|    \\/     M anipulation  |                                                 |
\*---------------------------------------------------------------------------*/
FoamFile
{
    version     2.0;
    format      ascii;
    arch        "LSB;label=32;scalar=64";
    class       surfaceScalarField;
    location    "2500";
    object      phi;
}
// * * * * * * * * * * * * * * * * * * * * * * * * * * * * * * * * * * * * * //

dimensions      [1 0 -1 0 0 0 0];

oriented        oriented;

internalField   nonuniform List<scalar> 
23740
(
-0.0001308108
0.0001305179
-0.0002668062
0.0001359951
-0.0004069174
0.000140111
-0.0005457009
0.0001387833
-0.0006776408
0.0001319398
-0.0008019122
0.0001242714
-0.0009213173
0.0001194052
-0.00103676
0.0001154429
-0.001142311
0.000105551
-0.001235318
9.300755e-05
-0.001321009
8.569086e-05
-0.001407586
8.657741e-05
-0.001489169
8.15831e-05
-0.001557361
6.819327e-05
-0.001614765
5.740417e-05
-0.001672577
5.78117e-05
-0.001733449
6.087226e-05
-0.001786599
5.315046e-05
-0.001827049
4.045102e-05
-0.001863704
3.665483e-05
-0.00190466
4.095664e-05
-0.001944525
3.986445e-05
-0.001975218
3.069357e-05
-0.00199938
2.416228e-05
-0.002024533
2.515294e-05
-0.002051131
2.659837e-05
-0.002074262
2.313134e-05
-0.002092178
1.791628e-05
-0.002107033
1.485501e-05
-0.002120991
1.395882e-05
-0.002134542
1.355087e-05
-0.002146025
1.148296e-05
-0.002152857
6.832739e-06
-0.002155868
3.010615e-06
-0.002159053
3.185904e-06
-0.002162138
3.085041e-06
-0.002164896
2.758839e-06
-0.00216194
-2.955717e-06
-0.002148319
-1.36213e-05
-0.002127113
-2.120617e-05
-0.002114582
-1.253064e-05
-0.002113221
-1.360729e-06
-0.00210059
-1.263057e-05
-0.002057424
-4.316575e-05
-0.00201024
-4.71844e-05
-0.001987271
-2.296879e-05
-0.001962308
-2.496326e-05
-0.001900577
-6.173122e-05
-0.001824058
-7.651953e-05
-0.001761997
-6.206048e-05
-0.001693835
-6.816188e-05
-0.001594535
-9.929983e-05
-0.001475598
-0.0001189376
-0.001351808
-0.0001237895
-0.001206678
-0.0001451301
-0.001041211
-0.0001654673
-0.0008268594
-0.0002143516
-0.0005826791
-0.0002441802
-0.0002952286
-0.0002874503
-0.0002952285
-0.0001338705
0.0002643877
-0.0002647812
0.0002669052
-0.0003896779
0.0002650073
-0.0005069317
0.0002560367
-0.0006184398
0.0002434477
-0.0007226568
0.0002284884
-0.0008139472
0.0002106957
-0.000895431
0.0001969268
-0.0009705258
0.000180646
-0.001042906
0.0001653883
-0.001109982
0.0001527669
-0.001165342
0.0001419381
-0.001214542
0.0001307834
-0.001264845
0.0001184968
-0.001314865
0.0001074249
-0.001355925
9.887177e-05
-0.001386503
9.145149e-05
-0.001416498
8.31455e-05
-0.001450709
7.4662e-05
-0.001481949
6.789569e-05
-0.00150362
6.26278e-05
-0.001520927
5.717204e-05
-0.001541278
5.104443e-05
-0.001562627
4.551182e-05
-0.001578667
4.119352e-05
-0.001589368
3.729983e-05
-0.001599259
3.302216e-05
-0.001609832
2.848974e-05
-0.001619111
2.413449e-05
-0.001625463
2.031087e-05
-0.00162893
1.701872e-05
-0.001631504
1.405757e-05
-0.001634606
9.934889e-06
-0.001635793
4.197424e-06
-0.001633414
8.078716e-07
-0.001627131
-3.197673e-06
-0.001617486
-6.885849e-06
-0.001608256
-1.218473e-05
-0.001602841
-1.903625e-05
-0.001598366
-2.56807e-05
-0.001580184
-3.071287e-05
-0.001545914
-3.56302e-05
-0.001515265
-4.327937e-05
-0.001504787
-5.364367e-05
-0.001488824
-6.314757e-05
-0.001440182
-7.161091e-05
-0.001382793
-8.235247e-05
-0.001348193
-9.633112e-05
-0.001313302
-0.0001114106
-0.00124823
-0.000127133
-0.001170702
-0.0001456901
-0.001102668
-0.0001673335
-0.001032813
-0.0001887923
-0.0009487218
-0.000207881
-0.0008507591
-0.0002430928
-0.0007326785
-0.0002835478
-0.000594747
-0.000352283
-0.000433381
-0.0004055461
-0.0002367766
-0.0004840545
-0.0005320051
-0.000104121
0.000368508
-0.0002026818
0.0003654654
-0.0002948125
0.0003571375
-0.0003797923
0.0003410162
-0.0004587131
0.0003223683
-0.0005357591
0.0003055343
-0.0006085372
0.0002834738
-0.0006768464
0.0002652363
-0.0007406303
0.0002444302
-0.0007984168
0.0002231751
-0.0008484856
0.0002028361
-0.0008924749
0.0001859278
-0.0009334907
0.0001717997
-0.0009708142
0.0001558208
-0.001005743
0.0001423541
-0.001037272
0.0001304013
-0.001065261
0.0001194407
-0.001091139
0.0001090245
-0.001115804
9.932709e-05
-0.001138481
9.057377e-05
-0.00115833
8.247721e-05
-0.001175882
7.472401e-05
-0.001192064
6.722631e-05
-0.001206831
6.027951e-05
-0.001219567
5.393021e-05
-0.001230179
4.791236e-05
-0.001239145
4.198847e-05
-0.001246764
3.610833e-05
-0.001252806
3.017771e-05
-0.001257088
2.459344e-05
-0.00126022
2.015106e-05
-0.001261237
1.50741e-05
-0.001260802
9.500919e-06
-0.001259045
2.440402e-06
-0.001254729
-3.50783e-06
-0.001248488
-9.438086e-06
-0.001239659
-1.57138e-05
-0.001229079
-2.27649e-05
-0.00121735
-3.076502e-05
-0.001203772
-3.925847e-05
-0.00118683
-4.765465e-05
-0.001165898
-5.656139e-05
-0.001142273
-6.690497e-05
-0.001116955
-7.896115e-05
-0.001088401
-9.170195e-05
-0.001054807
-0.0001052045
-0.001016382
-0.0001207778
-0.0009767124
-0.0001360007
-0.0009315523
-0.0001565707
-0.000880502
-0.0001781833
-0.0008253694
-0.0002008228
-0.0007682306
-0.0002244723
-0.0007051566
-0.0002518663
-0.0006268051
-0.0002862325
-0.0005349351
-0.0003349627
-0.000430585
-0.0003878978
-0.0003424544
-0.0004404135
-0.0002412641
-0.0005067362
-0.0001328032
-0.0005925152
-0.0006648083
-7.472774e-05
0.0004432349
-0.0001457722
0.0004365091
-0.0002112313
0.000422596
-0.0002726055
0.00040239
-0.0003297053
0.0003794677
-0.0003807766
0.0003566055
-0.0004294928
0.0003321899
-0.0004719443
0.0003076878
-0.0005158527
0.0002883388
-0.0005594222
0.0002667448
-0.0006015071
0.0002449212
-0.0006406583
0.0002250793
-0.0006767441
0.0002078858
-0.000710305
0.0001893821
-0.0007409027
0.0001729521
-0.0007687102
0.0001582091
-0.0007938731
0.000144604
-0.0008167219
0.0001318737
-0.0008377212
0.0001203267
-0.0008574932
0.0001103461
-0.0008754815
0.0001004658
-0.000891754
9.099678e-05
-0.0009058765
8.13491e-05
-0.0009181118
7.251501e-05
-0.0009284629
6.428158e-05
-0.0009370121
5.646188e-05
-0.0009439649
4.894153e-05
-0.0009502513
4.239502e-05
-0.0009548808
3.480748e-05
-0.0009580025
2.771544e-05
-0.0009595549
2.170376e-05
-0.0009588639
1.438338e-05
-0.0009563557
6.993116e-06
-0.0009533743
-5.406253e-07
-0.0009487423
-8.139483e-06
-0.0009421649
-1.601508e-05
-0.0009336307
-2.424767e-05
-0.0009234894
-3.290596e-05
-0.0009119578
-4.229634e-05
-0.0008988047
-5.241133e-05
-0.0008832172
-6.324193e-05
-0.0008648266
-7.495189e-05
-0.0008454108
-8.632073e-05
-0.0008236184
-0.0001007534
-0.0007990835
-0.0001162369
-0.0007712815
-0.0001330065
-0.0007408111
-0.0001512483
-0.0007074282
-0.0001693836
-0.0006708024
-0.0001931965
-0.0006324785
-0.0002165073
-0.0005910615
-0.0002422399
-0.0005426668
-0.000272867
-0.0004836083
-0.0003109247
-0.0004137794
-0.0003560614
-0.0003466375
-0.0004021044
-0.0002838598
-0.0004506754
-0.0002168277
-0.0005074456
-0.0001483817
-0.000575182
-7.928257e-05
-0.0006616142
-0.0007440908
-5.47199e-05
0.000497954
-0.0001081345
0.0004899231
-0.0001575874
0.0004720484
-0.0002044145
0.0004492167
-0.000248688
0.0004237409
-0.0002895759
0.0003974932
-0.0003277998
0.0003704137
-0.0003632041
0.0003430921
-0.0003929584
0.0003180932
-0.0004217679
0.0002955544
-0.000451434
0.0002745874
-0.0004812778
0.0002549234
-0.0005080644
0.0002346727
-0.0005336593
0.0002149772
-0.0005570372
0.0001963304
-0.0005784702
0.0001796424
-0.0005981097
0.0001642437
-0.0006160703
0.0001498345
-0.000632397
0.0001366535
-0.0006472835
0.0001252328
-0.0006608594
0.0001140418
-0.0006731093
0.0001032469
-0.0006839923
9.22323e-05
-0.0006934213
8.194419e-05
-0.0007014115
7.227199e-05
-0.0007080075
6.305809e-05
-0.0007132323
5.416644e-05
-0.000717224
4.638699e-05
-0.0007200496
3.763328e-05
-0.0007215399
2.920598e-05
-0.0007208391
2.100325e-05
-0.0007191457
1.269022e-05
-0.0007163896
4.237281e-06
-0.0007124982
-4.431685e-06
-0.0007073585
-1.327895e-05
-0.0007008572
-2.25161e-05
-0.000692898
-3.220658e-05
-0.0006842092
-4.159449e-05
-0.0006738804
-5.262494e-05
-0.0006620262
-6.426538e-05
-0.0006486225
-7.664549e-05
-0.0006337139
-8.986035e-05
-0.0006170538
-0.0001029807
-0.0005985863
-0.0001192209
-0.0005783841
-0.000136439
-0.0005562931
-0.0001550975
-0.0005321236
-0.0001754178
-0.0005040899
-0.0001974173
-0.0004763264
-0.00022096
-0.0004453298
-0.0002475038
-0.0004081467
-0.0002794229
-0.0003649055
-0.0003161082
-0.000320504
-0.0003553262
-0.0002790118
-0.0003975535
-0.0002373611
-0.000443755
-0.0001924649
-0.0004955716
-0.0001458663
-0.000554044
-9.850294e-05
-0.0006225453
-5.194454e-05
-0.0007081724
-0.0007960354
-3.723209e-05
0.0005351855
-7.344839e-05
0.0005261389
-0.0001067741
0.0005053737
-0.0001381906
0.0004806329
-0.0001678664
0.0004534165
-0.00019571
0.0004253367
-0.000222343
0.0003970466
-0.0002484868
0.0003692359
-0.0002731889
0.0003427954
-0.0002956056
0.0003179711
-0.0003160233
0.0002950053
-0.000335481
0.0002743812
-0.0003556493
0.0002548412
-0.0003763926
0.0002357207
-0.0003968034
0.0002167414
-0.0004155003
0.0001983394
-0.0004326741
0.0001814177
-0.0004485085
0.0001656691
-0.0004629201
0.0001510653
-0.0004752474
0.0001375603
-0.0004860088
0.0001248034
-0.0004953613
0.0001125995
-0.0005039906
0.0001008618
-0.0005116591
8.961284e-05
-0.0005182286
7.884168e-05
-0.0005236651
6.849476e-05
-0.0005279931
5.849462e-05
-0.0005304414
4.883549e-05
-0.000532073
3.926509e-05
-0.0005326775
2.981067e-05
-0.0005321114
2.043729e-05
-0.0005304374
1.101645e-05
-0.0005277231
1.523195e-06
-0.0005239365
-8.218056e-06
-0.00051959
-1.762517e-05
-0.0005140341
-2.807177e-05
-0.0005073876
-3.885292e-05
-0.0004996403
-4.934157e-05
-0.0004907902
-6.147486e-05
-0.0004809031
-7.415236e-05
-0.0004699656
-8.758282e-05
-0.000457911
-0.0001019148
-0.0004435452
-0.0001173464
-0.0004285197
-0.0001342463
-0.0004124472
-0.0001525114
-0.0003951835
-0.000172361
-0.0003771425
-0.0001934587
-0.0003580587
-0.000216501
-0.000336178
-0.0002428406
-0.0003101154
-0.0002735664
-0.0002824261
-0.0003071121
-0.0002549086
-0.0003436256
-0.0002266701
-0.0003835646
-0.0001965865
-0.000427637
-0.0001643725
-0.000475969
-0.0001310697
-0.0005288743
-9.743052e-05
-0.000587683
-6.439953e-05
-0.0006555761
-3.298543e-05
-0.0007395863
-0.0008290208
-2.577516e-05
0.0005609602
-5.071095e-05
0.0005510743
-7.347163e-05
0.0005281341
-9.481588e-05
0.0005019769
-0.0001151143
0.0004737147
-0.0001345652
0.0004447875
-0.0001535378
0.0004160192
-0.0001723405
0.0003880386
-0.0001908733
0.0003613281
-0.0002089464
0.0003360443
-0.0002260142
0.0003120731
-0.0002409315
0.0002892986
-0.0002545024
0.0002684122
-0.0002677518
0.0002489702
-0.0002819059
0.0002308956
-0.0002963958
0.0002128294
-0.0003102087
0.0001952308
-0.0003230136
0.0001784741
-0.000334502
0.0001625539
-0.0003446539
0.0001477123
-0.0003535684
0.000133718
-0.0003613702
0.0001204014
-0.0003681797
0.0001076714
-0.0003740343
9.546761e-05
-0.0003789321
8.373958e-05
-0.0003828644
7.242721e-05
-0.0003858329
6.146329e-05
-0.0003877916
5.079432e-05
-0.0003888294
4.030305e-05
-0.0003889672
2.994866e-05
-0.0003881924
1.966267e-05
-0.0003865419
9.366138e-06
-0.0003844739
-5.446713e-07
-0.000381554
-1.113774e-05
-0.0003778168
-2.136221e-05
-0.000373308
-3.25804e-05
-0.0003680582
-4.41025e-05
-0.0003613441
-5.60555e-05
-0.000354117
-6.870179e-05
-0.0003462131
-8.205616e-05
-0.0003375392
-9.625654e-05
-0.0003280166
-0.0001114373
-0.0003176275
-0.0001277354
-0.0003065141
-0.0001453596
-0.0002947074
-0.000164318
-0.0002825034
-0.0001845649
-0.0002690777
-0.0002068844
-0.000253318
-0.0002322606
-0.0002354207
-0.0002607379
-0.0002172667
-0.0002917203
-0.0001987975
-0.0003255813
-0.0001795215
-0.0003629015
-0.0001590736
-0.0004040125
-0.0001374374
-0.0004492731
-0.00011468
-0.0004987262
-9.13276e-05
-0.0005522267
-6.803248e-05
-0.0006109781
-4.520288e-05
-0.0006784055
-2.347043e-05
-0.0007613186
-0.0008524912
-1.605266e-05
0.0005770126
-3.160983e-05
0.0005666313
-4.552746e-05
0.0005420516
-5.864583e-05
0.0005150952
-7.145464e-05
0.0004865234
-8.416075e-05
0.0004574935
-9.694882e-05
0.0004288072
-0.0001099066
0.0004009964
-0.0001229245
0.000374346
-0.0001358157
0.0003489355
-0.000148472
0.0003247295
-0.0001607791
0.0003016058
-0.0001720531
0.0002796863
-0.0001821291
0.0002590464
-0.0001911714
0.000239938
-0.000200526
0.0002221841
-0.0002103159
0.0002050208
-0.0002203403
0.0001884986
-0.0002301783
0.000172392
-0.0002391031
0.0001566373
-0.0002470245
0.0001416395
-0.0002539514
0.0001273284
-0.0002599479
0.0001136681
-0.0002650534
0.0001005732
-0.000269294
8.798026e-05
-0.00027269
7.582333e-05
-0.0002752625
6.403595e-05
-0.0002770207
5.255261e-05
-0.0002780163
4.12988e-05
-0.0002782754
3.020792e-05
-0.0002778181
1.920557e-05
-0.0002766752
8.223364e-06
-0.0002751949
-2.024886e-06
-0.0002730657
-1.326674e-05
-0.0002697851
-2.464263e-05
-0.0002660102
-3.635516e-05
-0.000261663
-4.844959e-05
-0.0002566946
-6.102371e-05
-0.0002511709
-7.422536e-05
-0.0002450814
-8.814556e-05
-0.0002384207
-0.000102917
-0.0002312009
-0.0001186569
-0.0002234522
-0.000135484
-0.0002154151
-0.0001533966
-0.0002070325
-0.0001727005
-0.0001975868
-0.0001940106
-0.0001866018
-0.0002178693
-0.0001748979
-0.0002439644
-0.000163176
-0.0002724596
-0.0001512513
-0.0003036449
-0.0001388434
-0.000337989
-0.0001257359
-0.0003760089
-0.000111487
-0.0004182612
-9.583859e-05
-0.0004649215
-7.921793e-05
-0.0005153468
-6.241383e-05
-0.0005690307
-4.592132e-05
-0.0006274704
-2.995967e-05
-0.000694367
-1.501097e-05
-0.0007762671
-0.0008675021
-9.579332e-06
0.0005865917
-1.865953e-05
0.0005757113
-2.65623e-05
0.0005499542
-3.399863e-05
0.0005225314
-4.14406e-05
0.0004939653
-4.92114e-05
0.0004652642
-5.750205e-05
0.0004370978
-6.629051e-05
0.0004097848
-7.547549e-05
0.0003835309
-8.494267e-05
0.0003584027
-9.460495e-05
0.0003343918
-0.0001044515
0.0003114523
-0.0001143452
0.00028958
-0.0001239829
0.0002686842
-0.0001327363
0.0002486914
-0.0001404632
0.000229911
-0.0001475048
0.0002120625
-0.0001539739
0.0001949678
-0.0001603521
0.0001787703
-0.0001666915
0.0001629768
-0.0001725473
0.0001474955
-0.0001777775
0.0001325587
-0.0001823378
0.0001182285
-0.0001862338
0.0001044694
-0.0001894734
9.121999e-05
-0.0001920715
7.84215e-05
-0.0001940465
6.601114e-05
-0.0001954181
5.392432e-05
-0.0001962127
4.209353e-05
-0.0001964564
3.045173e-05
-0.0001961776
1.892684e-05
-0.0001954034
7.449341e-06
-0.0001939576
-3.470535e-06
-0.0001920651
-1.515914e-05
-0.0001896853
-2.702229e-05
-0.0001868586
-3.918171e-05
-0.0001835888
-5.171931e-05
-0.0001798748
-6.473751e-05
-0.0001757515
-7.834858e-05
-0.0001712332
-9.266374e-05
-0.0001663474
-0.0001078027
-0.0001611576
-0.0001238466
-0.0001557672
-0.0001408743
-0.0001498961
-0.0001592675
-0.0001431516
-0.0001794449
-0.0001356194
-0.0002015426
-0.0001279734
-0.0002255152
-0.0001203401
-0.0002515976
-0.0001126575
-0.000280142
-0.0001048094
-0.0003114929
-9.656987e-05
-0.0003462285
-8.746992e-05
-0.0003851088
-7.718364e-05
-0.0004285474
-6.597193e-05
-0.0004761331
-5.439394e-05
-0.0005269247
-4.287232e-05
-0.0005805522
-3.167396e-05
-0.0006386687
-2.092755e-05
-0.0007051133
-1.083523e-05
-0.0007863592
-0.0008783373
-5.034177e-06
0.0005916258
-9.669405e-06
0.0005803464
-1.298824e-05
0.0005532729
-1.602743e-05
0.0005255705
-1.942072e-05
0.0004973585
-2.337941e-05
0.0004692229
-2.799847e-05
0.0004417168
-3.332138e-05
0.0004151077
-3.933604e-05
0.0003895455
-4.594285e-05
0.0003650095
-5.303605e-05
0.000341485
-6.050839e-05
0.0003189247
-6.82079e-05
0.0002972795
-7.600709e-05
0.0002764834
-8.374727e-05
0.0002564317
-9.094962e-05
0.0002371135
-9.741682e-05
0.0002185298
-0.0001031029
0.0002006539
-0.0001078557
0.0001835233
-0.0001121602
0.0001672814
-0.0001163063
0.0001516417
-0.0001201932
0.0001364458
-0.0001236295
0.0001216649
-0.0001265896
0.0001074296
-0.0001290712
9.370169e-05
-0.0001310827
8.043311e-05
-0.0001326367
6.756525e-05
-0.0001337479
5.503566e-05
-0.0001344332
4.277893e-05
-0.0001347098
3.072843e-05
-0.000134596
1.881322e-05
-0.0001341097
6.963087e-06
-0.0001330835
-4.496582e-06
-0.0001317281
-1.651443e-05
-0.0001300328
-2.871752e-05
-0.0001280172
-4.119713e-05
-0.0001256917
-5.404472e-05
-0.0001230689
-6.736023e-05
-0.0001201655
-8.125185e-05
-0.0001169974
-9.583169e-05
-0.0001136342
-0.0001111658
-0.0001100756
-0.0001274051
-0.0001060728
-0.000144877
-0.0001015127
-0.0001638274
-9.668304e-05
-0.0001842745
-9.185854e-05
-0.000206367
-8.706396e-05
-0.0002303097
-8.226471e-05
-0.0002563968
-7.745812e-05
-0.0002849485
-7.245791e-05
-0.000316493
-6.681689e-05
-0.0003518694
-6.022442e-05
-0.0003917011
-5.288573e-05
-0.000435886
-4.520757e-05
-0.0004838111
-3.73394e-05
-0.0005347927
-2.93997e-05
-0.0005884918
-2.157863e-05
-0.0006464896
-1.401302e-05
-0.0007126788
-6.926045e-06
-0.000793446
-0.0008852634
-1.274145e-06
0.0005928998
-1.597431e-06
0.0005806695
-1.255065e-06
0.0005529304
-1.173606e-06
0.0005254889
-1.964329e-06
0.0004981491
-3.567628e-06
0.0004708261
-5.961407e-06
0.0004441105
-9.166186e-06
0.0004183124
-1.310584e-05
0.0003934852
-1.772724e-05
0.0003696309
-2.29346e-05
0.0003466923
-2.861898e-05
0.000324609
-3.465861e-05
0.0003033192
-4.093752e-05
0.0002827624
-4.737023e-05
0.0002628645
-5.377159e-05
0.0002435149
-5.987221e-05
0.0002246305
-6.544728e-05
0.0002062291
-7.025213e-05
0.0001883282
-7.408081e-05
0.0001711102
-7.712357e-05
0.0001546846
-7.974634e-05
0.0001390687
-8.21066e-05
0.0001240253
-8.410242e-05
0.0001094255
-8.575784e-05
9.535724e-05
-8.709248e-05
8.176786e-05
-8.812503e-05
6.859792e-05
-8.886681e-05
5.577756e-05
-8.932528e-05
4.323752e-05
-8.950531e-05
3.090857e-05
-8.941257e-05
1.872059e-05
-8.90993e-05
6.649922e-06
-8.838145e-05
-5.214325e-06
-8.742743e-05
-1.746834e-05
-8.624397e-05
-2.990087e-05
-8.484193e-05
-4.259905e-05
-8.323146e-05
-5.565508e-05
-8.142457e-05
-6.916701e-05
-7.942746e-05
-8.324884e-05
-7.728365e-05
-9.79754e-05
-7.493664e-05
-0.0001135127
-7.224596e-05
-0.0001300957
-6.926722e-05
-0.0001478556
-6.624284e-05
-0.0001668517
-6.326217e-05
-0.000187255
-6.034519e-05
-0.0002092839
-5.749116e-05
-0.0002331636
-5.471374e-05
-0.0002591741
-5.188011e-05
-0.000287782
-4.859865e-05
-0.0003197744
-4.457336e-05
-0.0003558946
-3.995606e-05
-0.0003963183
-3.505534e-05
-0.0004407866
-3.000026e-05
-0.0004888661
-2.480027e-05
-0.0005399926
-1.94974e-05
-0.0005937945
-1.427721e-05
-0.0006517097
-9.352674e-06
-0.0007176032
-4.850953e-06
-0.0007979476
-0.0008901143
7.039015e-07
0.0005921957
2.437674e-06
0.0005789357
4.9506e-06
0.0005504174
7.434339e-06
0.0005230051
9.483152e-06
0.0004961002
1.048052e-05
0.0004698286
1.013259e-05
0.0004444584
8.703166e-06
0.0004197418
6.401801e-06
0.0003957865
3.328496e-06
0.0003727041
-4.132145e-07
0.000350434
-4.737994e-06
0.0003289338
-9.569276e-06
0.0003081505
-1.484958e-05
0.0002880427
-2.044385e-05
0.0002684588
-2.608318e-05
0.0002491543
-3.148438e-05
0.0002300318
-3.643878e-05
0.0002111836
-4.083686e-05
0.0001927264
-4.45263e-05
0.0001747997
-4.741457e-05
0.000157573
-4.947715e-05
0.0001411314
-5.098692e-05
0.0001255352
-5.222562e-05
0.0001106644
-5.325495e-05
9.638669e-05
-5.411627e-05
8.262929e-05
-5.48125e-05
6.929427e-05
-5.534622e-05
5.631139e-05
-5.571484e-05
4.360624e-05
-5.591326e-05
3.11071e-05
-5.593669e-05
1.874413e-05
-5.581982e-05
6.533162e-06
-5.541699e-05
-5.617053e-06
-5.484927e-05
-1.803595e-05
-5.412284e-05
-3.06272e-05
-5.324425e-05
-4.347754e-05
-5.222087e-05
-5.667836e-05
-5.105666e-05
-7.033111e-05
-4.97793e-05
-8.45261e-05
-4.834713e-05
-9.940747e-05
-4.671685e-05
-0.0001151429
-4.49856e-05
-0.0001318268
-4.32777e-05
-0.0001495634
-4.162294e-05
-0.0001685063
-4.003764e-05
-0.0001888402
-3.855432e-05
-0.0002107671
-3.718842e-05
-0.0002345294
-3.58542e-05
-0.0002605082
-3.424419e-05
-0.0002893919
-3.206337e-05
-0.0003219551
-2.936948e-05
-0.0003585883
-2.639369e-05
-0.000399294
-2.328335e-05
-0.0004438968
-2.006909e-05
-0.0004920803
-1.672189e-05
-0.0005433397
-1.324232e-05
-0.000597274
-9.751866e-06
-0.0006552001
-6.356465e-06
-0.0007209984
-3.11903e-06
-0.0008011849
-0.0008932333
1.852361e-06
0.0005903432
4.993347e-06
0.0005757945
9.065576e-06
0.0005463451
1.304324e-05
0.0005190273
1.628811e-05
0.0004928553
1.846866e-05
0.000467648
1.984758e-05
0.0004430794
2.019335e-05
0.0004193959
1.946925e-05
0.0003965105
1.786606e-05
0.0003743073
1.546964e-05
0.0003528304
1.237705e-05
0.0003320264
8.642791e-06
0.0003118848
4.297457e-06
0.0002923881
-4.636249e-07
0.0002732199
-5.317102e-06
0.0002540078
-1.002577e-05
0.0002347406
-1.442987e-05
0.0002155878
-1.842227e-05
0.0001967189
-2.19128e-05
0.0001782904
-2.478199e-05
0.0001604423
-2.693424e-05
0.0001432838
-2.832283e-05
0.0001269239
-2.917205e-05
0.0001115137
-2.9748e-05
9.696277e-05
-3.020778e-05
8.308919e-05
-3.063939e-05
6.9726e-05
-3.103088e-05
5.6703e-05
-3.135908e-05
4.393455e-05
-3.160675e-05
3.135487e-05
-3.176183e-05
1.889932e-05
-3.178873e-05
6.560161e-06
-3.163168e-05
-5.774003e-06
-3.136838e-05
-1.829915e-05
-3.099644e-05
-3.099904e-05
-3.051397e-05
-4.395991e-05
-2.991899e-05
-5.727325e-05
-2.921414e-05
-7.103585e-05
-2.839577e-05
-8.534438e-05
-2.747918e-05
-0.000100324
-2.654498e-05
-0.000116077
-2.564604e-05
-0.0001327257
-2.479846e-05
-0.0001504109
-2.402161e-05
-0.0001692831
-2.334514e-05
-0.0001895166
-2.280779e-05
-0.0002113043
-2.240858e-05
-0.0002349285
-2.191589e-05
-0.0002610008
-2.100845e-05
-0.0002902993
-1.963359e-05
-0.0003233298
-1.794886e-05
-0.000360273
-1.611002e-05
-0.0004011327
-1.419318e-05
-0.0004458136
-1.219426e-05
-0.0004940791
-1.007866e-05
-0.0005454553
-7.848864e-06
-0.0005995037
-5.623996e-06
-0.0006574249
-3.592684e-06
-0.0007230296
-1.827205e-06
-0.0008029502
-0.0008950605
2.704545e-06
0.0005876385
6.931103e-06
0.0005715679
1.196985e-05
0.0005413062
1.681684e-05
0.0005141802
2.09184e-05
0.0004887536
2.418719e-05
0.0004643791
2.644676e-05
0.0004408197
2.773602e-05
0.0004181066
2.806592e-05
0.0003961805
2.739595e-05
0.0003749772
2.587162e-05
0.0003543547
2.355484e-05
0.0003343432
2.051863e-05
0.000314921
1.682106e-05
0.0002960857
1.265403e-05
0.000277387
8.3246e-06
0.0002583373
4.080258e-06
0.000238985
9.625802e-08
0.000219572
-3.507459e-06
0.0002003228
-6.64006e-06
0.0001814231
-9.235009e-06
0.0001630374
-1.125844e-05
0.0001453073
-1.269403e-05
0.0001283597
-1.350166e-05
0.0001123215
-1.38386e-05
9.729983e-05
-1.397199e-05
8.322271e-05
-1.409904e-05
6.985317e-05
-1.429813e-05
5.69022e-05
-1.454111e-05
4.417764e-05
-1.479474e-05
3.160861e-05
-1.50366e-05
1.914129e-05
-1.521637e-05
6.740027e-06
-1.530981e-05
-5.680458e-06
-1.536488e-05
-1.824399e-05
-1.537733e-05
-3.09865e-05
-1.534673e-05
-4.399042e-05
-1.527489e-05
-5.734499e-05
-1.516681e-05
-7.114384e-05
-1.501801e-05
-8.549309e-05
-1.484256e-05
-0.0001004993
-1.465153e-05
-0.0001162679
-1.445105e-05
-0.0001329261
-1.425282e-05
-0.000150609
-1.406874e-05
-0.000169467
-1.391997e-05
-0.0001896653
-1.383069e-05
-0.0002113935
-1.374595e-05
-0.0002350132
-1.349108e-05
-0.0002612555
-1.292825e-05
-0.000290862
-1.210539e-05
-0.0003241526
-1.114559e-05
-0.0003612327
-1.013505e-05
-0.0004021432
-9.106477e-06
-0.0004468421
-8.037697e-06
-0.0004951478
-6.882476e-06
-0.0005466104
-5.604153e-06
-0.000600782
-4.249363e-06
-0.0006587796
-2.877228e-06
-0.0007244017
-1.466921e-06
-0.0008043604
-0.0008965274
2.958061e-06
0.0005846803
7.702453e-06
0.0005668233
1.329909e-05
0.0005357094
1.874477e-05
0.0005087344
2.350676e-05
0.0004839915
2.73476e-05
0.0004605382
3.013653e-05
0.0004380307
3.190668e-05
0.0004163364
3.270818e-05
0.000395379
3.261858e-05
0.0003750667
3.163221e-05
0.000355341
2.98282e-05
0.0003361472
2.729039e-05
0.0003174588
2.411555e-05
0.0002992605
2.047026e-05
0.0002810323
1.661722e-05
0.0002621905
1.281105e-05
0.0002427913
9.232262e-06
0.0002231509
5.999881e-06
0.0002035553
3.202155e-06
0.000184221
9.051582e-07
0.0001653346
-8.616966e-07
0.0001470743
-2.116939e-06
0.0001296151
-2.907271e-06
0.000113112
-3.273381e-06
9.766608e-05
-3.342777e-06
8.329223e-05
-3.319886e-06
6.983039e-05
-3.362902e-06
5.694533e-05
-3.505998e-06
4.432084e-05
-3.712676e-06
3.181539e-05
-3.954283e-06
1.9383e-05
-4.190815e-06
6.976658e-06
-4.402184e-06
-5.468992e-06
-4.613432e-06
-1.803264e-05
-4.815592e-06
-3.078424e-05
-5.00694e-06
-4.379898e-05
-5.188336e-06
-5.71635e-05
-5.361025e-06
-7.097106e-05
-5.529181e-06
-8.532484e-05
-5.696888e-06
-0.0001003315
-5.863938e-06
-0.0001161007
-6.035081e-06
-0.0001327548
-6.217487e-06
-0.0001504265
-6.42365e-06
-0.0001692608
-6.675052e-06
-0.0001894138
-6.973816e-06
-0.0002110947
-7.162825e-06
-0.0002348241
-7.058168e-06
-0.0002613601
-6.71314e-06
-0.0002912069
-6.240289e-06
-0.0003246254
-5.72032e-06
-0.0003617526
-5.169964e-06
-0.0004026935
-4.604828e-06
-0.0004474072
-4.006931e-06
-0.0004957456
-3.358746e-06
-0.0005472585
-2.682574e-06
-0.0006014581
-2.010799e-06
-0.0006594513
-1.330974e-06
-0.0007250814
-6.516296e-07
-0.0008050397
-0.000897179
3.021253e-06
0.0005816589
8.008167e-06
0.0005618362
1.385469e-05
0.0005298627
1.956517e-05
0.0005030238
2.460878e-05
0.0004789477
2.87249e-05
0.0004564219
3.180015e-05
0.0004349553
3.381868e-05
0.0004143177
3.484167e-05
0.0003943559
3.492601e-05
0.0003749823
3.413924e-05
0.0003561277
3.256743e-05
0.0003377189
3.031197e-05
0.0003197143
2.748866e-05
0.0003020839
2.42415e-05
0.0002842796
2.079011e-05
0.0002656419
1.738175e-05
0.0002461998
1.419409e-05
0.0002263387
1.133693e-05
0.0002064126
8.882814e-06
0.0001866753
6.879554e-06
0.000167338
5.34769e-06
0.0001486064
4.272131e-06
0.0001306908
3.599374e-06
0.0001137849
3.24713e-06
9.801847e-05
3.131726e-06
8.340777e-05
3.138061e-06
6.982418e-05
3.115799e-06
5.696771e-05
3.005014e-06
4.443174e-05
2.831728e-06
3.198878e-05
2.613174e-06
1.960165e-05
2.368336e-06
7.221595e-06
2.110254e-06
-5.210815e-06
1.827065e-06
-1.774936e-05
1.532611e-06
-3.04897e-05
1.230508e-06
-4.349679e-05
9.227259e-07
-5.685563e-05
6.094638e-07
-7.065771e-05
2.860617e-07
-8.500135e-05
-5.415012e-08
-9.999122e-05
-4.159746e-07
-0.0001157388
-8.063787e-07
-0.0001323643
-1.235972e-06
-0.0001499969
-1.721083e-06
-0.0001687756
-2.283875e-06
-0.0001888509
-2.875643e-06
-0.0002105028
-3.349287e-06
-0.0002343503
-3.615132e-06
-0.0002610942
-3.687547e-06
-0.0002911345
-3.614472e-06
-0.0003246984
-3.481199e-06
-0.0003618858
-3.308953e-06
-0.0004028657
-3.097577e-06
-0.0004476185
-2.836068e-06
-0.0004960071
-2.507848e-06
-0.0005475867
-2.0988e-06
-0.0006018671
-1.622248e-06
-0.0006599278
-1.102083e-06
-0.0007256015
-5.441423e-07
-0.0008055975
-0.0008977232
2.799078e-06
0.0005788596
7.725568e-06
0.0005569095
1.352851e-05
0.0005240596
1.920856e-05
0.0004973435
2.423891e-05
0.0004739172
2.835495e-05
0.0004523057
3.144557e-05
0.0004318645
3.349521e-05
0.0004122679
3.453684e-05
0.0003933141
3.464566e-05
0.0003748734
3.392283e-05
0.0003568505
3.247359e-05
0.0003391682
3.041449e-05
0.0003217734
2.787208e-05
0.0003046263
2.497846e-05
0.0002871732
2.192073e-05
0.0002686998
1.892327e-05
0.0002491974
1.614814e-05
0.0002291139
1.368974e-05
0.0002088712
1.160386e-05
0.0001887613
9.921782e-06
0.0001690203
8.650331e-06
0.000149878
7.766041e-06
0.0001315752
7.212778e-06
0.0001143383
6.908622e-06
9.832277e-05
6.763844e-06
8.355268e-05
6.69865e-06
6.988949e-05
6.631711e-06
5.703476e-05
6.519496e-06
4.454406e-05
6.362007e-06
3.214638e-05
6.164269e-06
1.979949e-05
5.931978e-06
7.453982e-06
5.67003e-06
-4.948772e-06
5.372869e-06
-1.745211e-05
5.051027e-06
-3.016777e-05
4.70687e-06
-4.315254e-05
4.342188e-06
-5.649086e-05
3.958139e-06
-7.027358e-05
3.554834e-06
-8.459796e-05
3.13142e-06
-9.956771e-05
2.686035e-06
-0.0001152934
2.214763e-06
-0.000131893
1.711016e-06
-0.000149493
1.164615e-06
-0.0001682291
5.622381e-07
-0.0001882484
-3.359204e-08
-0.0002099069
-5.195833e-07
-0.0002338643
-8.64729e-07
-0.000260749
-1.062472e-06
-0.0002909366
-1.142032e-06
-0.0003246188
-1.12676e-06
-0.000361901
-1.076216e-06
-0.0004029161
-1.033611e-06
-0.000447661
-9.695257e-07
-0.0004960711
-8.759252e-07
-0.0005476803
-7.509033e-07
-0.0006019921
-5.971228e-07
-0.0006600815
-4.092954e-07
-0.0007257893
-2.218835e-07
-0.0008057849
-0.000897945
2.390903e-06
0.0005764684
7.086482e-06
0.0005522137
1.262163e-05
0.0005185242
1.802869e-05
0.0004919363
2.280242e-05
0.0004691433
2.669131e-05
0.0004484166
2.958949e-05
0.0004289662
3.148326e-05
0.000410374
3.24003e-05
0.000392397
3.242545e-05
0.0003748482
3.168113e-05
0.0003575948
3.028621e-05
0.000340563
2.836585e-05
0.0003236937
2.604934e-05
0.0003069429
2.346856e-05
0.0002897541
2.079411e-05
0.0002713743
1.821825e-05
0.0002517733
1.587506e-05
0.0002314573
1.383732e-05
0.0002109091
1.214254e-05
0.0001904563
1.080558e-05
0.0001703574
9.818127e-06
0.0001508656
9.14531e-06
0.0001322482
8.725185e-06
0.0001147586
8.477332e-06
9.857077e-05
8.319427e-06
8.371072e-05
8.187382e-06
7.002166e-05
8.055791e-06
5.716647e-05
7.914078e-06
4.468588e-05
7.749757e-06
3.23108e-05
7.55638e-06
1.999297e-05
7.331345e-06
7.679113e-06
7.073614e-06
-4.690947e-06
6.780343e-06
-1.715875e-05
6.454691e-06
-2.984202e-05
6.097725e-06
-4.279549e-05
5.71076e-06
-5.610381e-05
5.295126e-06
-6.985785e-05
4.851976e-06
-8.415472e-05
4.382254e-06
-9.909791e-05
3.88667e-06
-0.0001147977
3.365428e-06
-0.0001313717
2.817956e-06
-0.0001489455
2.242493e-06
-0.0001676536
1.635434e-06
-0.0001876413
1.041785e-06
-0.0002093132
5.356467e-07
-0.0002333581
1.392072e-07
-0.0002603524
-1.584919e-07
-0.0002906389
-3.726224e-07
-0.0003244046
-4.981334e-07
-0.0003617755
-5.673931e-07
-0.0004028468
-5.992291e-07
-0.0004476292
-6.021226e-07
-0.0004960682
-5.686088e-07
-0.0005477137
-5.02873e-07
-0.0006020578
-3.976308e-07
-0.0006601867
-2.664235e-07
-0.0007259205
-1.459385e-07
-0.0008059053
-0.000898091
1.953676e-06
0.0005745144
6.225325e-06
0.0005479417
1.130734e-05
0.0005134419
1.625863e-05
0.0004869847
2.059894e-05
0.0004648028
2.408446e-05
0.0004449309
2.661577e-05
0.0004264347
2.819519e-05
0.0004087944