/*--------------------------------*- C++ -*----------------------------------*\
| =========                 |                                                 |
| \\      /  F ield         | OpenFOAM: The Open Source CFD Toolbox           |
|  \\    /   O peration     | Version:  2312                                  |
|   \\  /    A nd           | Website:  www.openfoam.com                      |
|    \\/     M anipulation  |                                                 |
\*---------------------------------------------------------------------------*/
FoamFile
{
    version     2.0;
    format      ascii;
    arch        "LSB;label=32;scalar=64";
    class       volScalarField;
    location    "2500";
    object      qin;
}
// * * * * * * * * * * * * * * * * * * * * * * * * * * * * * * * * * * * * * //

dimensions      [1 0 -3 0 0 0 0];

internalField   uniform 0;

boundaryField
{
    plate
    {
        type            calculated;
        value           nonuniform List<scalar> 
200
(
1803.683
1792.181
1779.619
1747.392
1700.175
1661.087
1644.7
1647.47
1657.714
1666.844
1670.857
1667.239
1654.244
1632.843
1607.956
1586.806
1575.289
1574.983
1582.836
1593.421
1601.959
1606.2
1606.526
1604.838
1603.17
1602.723
1603.487
1604.386
1603.813
1600.372
1593.588
1584.266
1574.302
1565.982
1561.084
1560.22
1562.704
1566.977
1571.319
1574.508
1576.146
1576.595
1576.635
1577.046
1578.298
1580.425
1583.093
1585.784
1588.01
1589.475
1590.141
1590.19
1589.918
1589.611
1589.455
1589.503
1589.704
1589.965
1590.216
1590.445
1590.695
1591.035
1591.516
1592.14
1592.856
1593.575
1594.203
1594.676
1594.977
1595.137
1595.218
1595.283
1595.379
1595.518
1595.681
1595.83
1595.923
1595.929
1595.84
1595.666
1595.434
1595.182
1594.949
1594.778
1594.714
1594.805
1595.105
1595.669
1596.549
1597.785
1599.393
1601.364
1603.651
1606.179
1608.843
1611.52
1614.082
1616.405
1618.38
1619.923
1620.979
1621.531
1621.594
1621.22
1620.49
1619.508
1618.39
1617.252
1616.2
1615.317
1614.658
1614.246
1614.078
1614.131
1614.372
1614.766
1615.278
1615.879
1616.54
1617.226
1617.9
1618.521
1619.055
1619.482
1619.81
1620.069
1620.31
1620.581
1620.917
1621.314
1621.735
1622.116
1622.396
1622.542
1622.569
1622.539
1622.54
1622.653
1622.912
1623.294
1623.726
1624.125
1624.448
1624.729
1625.079
1625.645
1626.532
1627.727
1629.054
1630.205
1630.832
1630.687
1629.757
1628.313
1626.864
1625.973
1626.004
1626.878
1627.985
1628.337
1627.019
1623.791
1619.586
1616.568
1617.559
1624.947
1639.508
1659.759
1682.254
1702.795
1718.011
1726.541
1729.308
1728.822
1727.961
1728.772
1731.663
1735.188
1736.556
1733.078
1724.356
1714.175
1710.305
1721.128
1750.358
1793.495
1839.289
1875.869
1897.036
1903.775
1900.447
1890.994
1881.442
1886.204
1924.328
1999.003
2083.45
2143.497
2181.023
2241.364
)
;
    }
    riser
    {
        type            calculated;
        value           nonuniform List<scalar> 
200
(
2641.241
2672.797
2703.685
2777.065
2889.916
2991.603
3042.634
3046.827
3031.238
3016.388
3010.526
3018.888
3047.708
3098.805
3163.749
3225.681
3268.301
3284.84
3280.365
3266.752
3255.079
3250.744
3253.18
3258.573
3262.994
3264.42
3263.443
3262.961
3267.072
3279.405
3301.372
3331.136
3363.937
3393.762
3415.599
3427.205
3429.57
3426.03
3420.596
3416.383
3414.774
3415.49
3417.279
3418.779
3419.139
3418.25
3416.61
3414.99
3414.076
3414.229
3415.414
3417.281
3419.348
3421.195
3422.589
3423.519
3424.142
3424.668
3425.257
3425.962
3426.726
3427.437
3427.992
3428.352
3428.558
3428.709
3428.919
3429.265
3429.763
3430.367
3430.995
3431.567
3432.042
3432.428
3432.782
3433.189
3433.727
3434.45
3435.372
3436.471
3437.697
3438.988
3440.278
3441.502
3442.596
3443.488
3444.098
3444.34
3444.132
3443.412
3442.15
3440.369
3438.145
3435.612
3432.948
3430.361
3428.07
3426.279
3425.166
3424.86
3425.433
3426.896
3429.194
3432.211
3435.782
3439.702
3443.747
3447.697
3451.356
3454.574
3457.254
3459.357
3460.9
3461.936
3462.542
3462.8
3462.787
3462.575
3462.228
3461.818
3461.418
3461.101
3460.923
3460.91
3461.049
3461.282
3461.523
3461.693
3461.758
3461.751
3461.778
3461.988
3462.521
3463.448
3464.737
3466.24
3467.745
3469.047
3470.027
3470.687
3471.139
3471.53
3471.957
3472.39
3472.667
3472.575
3471.993
3471.035
3470.117
3469.892
3471.04
3473.992
3478.688
3484.479
3490.279
3494.92
3497.651
3498.566
3498.758
3500.041
3504.205
3512.041
3522.534
3532.723
3538.505
3536.209
3524.314
3504.431
3480.951
3459.413
3444.329
3437.515
3437.679
3441.351
3444.608
3444.867
3442.111
3439.208
3440.987
3451.931
3472.907
3498.542
3517.549
3517.344
3491.229
3443.559
3388.587
3343.069
3317.774
3314.115
3327.529
3352.155
3378.906
3388.205
3353.798
3268.824
3167.834
3103.487
3085.529
3082.701
)
;
    }
    topAndBottom
    {
        type            calculated;
        value           nonuniform List<scalar> 
120
(
2905.758
2878.491
2850.852
2827.144
2810.39
2797.577
2784.242
2768.347
2751.156
2735.386
2722.994
2714.225
2708.026
2702.975
2697.94
2692.272
2685.755
2678.529
2671.007
2663.719
2657.099
2651.312
2646.214
2641.468
2636.726
2631.771
2626.562
2621.194
2615.818
2610.586
2605.614
2600.98
2596.728
2592.883
2589.447
2586.393
2583.649
2581.079
2578.506
2575.75
2572.703
2569.376
2565.891
2562.424
2559.145
2556.159
2553.476
2550.939
2548.146
2544.479
2539.369
2532.753
2525.355
2518.369
2512.501
2507.07
2500.325
2490.928
2481.141
2470.351
2616.605
2605.737
2594.374
2584.577
2578.249
2573.549
2568.093
2561.062
2553.482
2546.97
2542.46
2539.799
2538.163
2536.688
2534.835
2532.415
2529.473
2526.178
2522.768
2519.484
2516.491
2513.813
2511.339
2508.892
2506.314
2503.524
2500.521
2497.351
2494.075
2490.747
2487.418
2484.142
2480.982
2478.003
2475.254
2472.74
2470.391
2468.059
2465.541
2462.656
2459.325
2455.625
2451.765
2448
2444.524
2441.41
2438.574
2435.741
2432.428
2428.025
2422.1
2414.794
2406.999
2399.933
2394.182
2388.882
2382.135
2372.58
2362.093
2351.415
)
;
    }
    frontAndBack
    {
        type            empty;
    }
}


// ************************************************************************* //
