/*--------------------------------*- C++ -*----------------------------------*\
| =========                 |                                                 |
| \\      /  F ield         | OpenFOAM: The Open Source CFD Toolbox           |
|  \\    /   O peration     | Version:  2312                                  |
|   \\  /    A nd           | Website:  www.openfoam.com                      |
|    \\/     M anipulation  |                                                 |
\*---------------------------------------------------------------------------*/
FoamFile
{
    version     2.0;
    format      ascii;
    arch        "LSB;label=32;scalar=64";
    class       volScalarField;
    location    "2500";
    object      qr;
}
// * * * * * * * * * * * * * * * * * * * * * * * * * * * * * * * * * * * * * //

dimensions      [1 0 -3 0 0 0 0];

internalField   uniform 0;

boundaryField
{
    plate
    {
        type            calculated;
        value           nonuniform List<scalar> 
200
(
-1853.717
-1855.815
-1859.847
-1866.751
-1875.543
-1883.486
-1888.813
-1889.461
-1888.95
-1889.619
-1892.383
-1896.328
-1901.923
-1908.328
-1915.255
-1921.557
-1926.703
-1930.315
-1932.833
-1934.864
-1936.878
-1939.285
-1941.775
-1944.359
-1946.642
-1948.567
-1950.238
-1951.687
-1953.172
-1954.835
-1956.767
-1958.869
-1960.95
-1962.74
-1964.041
-1964.794
-1965.086
-1965.113
-1965.085
-1965.142
-1965.345
-1965.646
-1965.955
-1966.173
-1966.252
-1966.194
-1966.042
-1965.859
-1965.713
-1965.637
-1965.64
-1965.698
-1965.778
-1965.843
-1965.874
-1965.864
-1965.825
-1965.767
-1965.703
-1965.633
-1965.559
-1965.468
-1965.356
-1965.224
-1965.08
-1964.932
-1964.798
-1964.678
-1964.581
-1964.502
-1964.437
-1964.371
-1964.304
-1964.225
-1964.146
-1964.062
-1963.989
-1963.919
-1963.864
-1963.811
-1963.769
-1963.719
-1963.667
-1963.594
-1963.509
-1963.391
-1963.251
-1963.06
-1962.837
-1962.55
-1962.228
-1961.842
-1961.429
-1960.973
-1960.513
-1960.041
-1959.602
-1959.182
-1958.828
-1958.515
-1958.29
-1958.106
-1958.014
-1957.957
-1957.957
-1957.985
-1958.031
-1958.053
-1958.108
-1958.108
-1958.097
-1958.016
-1957.938
-1957.827
-1957.683
-1957.511
-1957.322
-1957.123
-1956.926
-1956.711
-1956.481
-1956.29
-1956.102
-1955.885
-1955.697
-1955.533
-1955.35
-1955.153
-1954.938
-1954.715
-1954.504
-1954.308
-1954.133
-1953.977
-1953.81
-1953.649
-1953.503
-1953.356
-1953.187
-1953.008
-1952.821
-1952.651
-1952.491
-1952.342
-1952.183
-1952.01
-1951.794
-1951.552
-1951.284
-1951.063
-1950.908
-1950.877
-1950.94
-1951.094
-1951.236
-1951.326
-1951.28
-1951.157
-1950.986
-1950.957
-1951.133
-1951.608
-1952.176
-1952.637
-1952.518
-1951.618
-1949.737
-1947.22
-1944.397
-1941.98
-1940.22
-1939.471
-1939.372
-1939.825
-1940.184
-1940.481
-1940.344
-1940.326
-1940.401
-1941.345
-1942.74
-1944.6
-1945.4
-1944.664
-1941.395
-1936.92
-1932.1
-1929.203
-1928.284
-1930.023
-1933.155
-1938.149
-1943.604
-1948.99
-1951.93
-1953.987
-1953.047
-1950.649
-1953.133
-1959.649
)
;
    }
    riser
    {
        type            calculated;
        value           nonuniform List<scalar> 
200
(
1342.915
1364.224
1382.176
1432.945
1513.41
1586.32
1622.725
1625.229
1613.57
1602.456
1598.055
1603.956
1624.875
1661.955
1709.167
1754.161
1785.136
1797.15
1793.9
1784.004
1775.515
1772.355
1774.115
1778.023
1781.224
1782.246
1781.522
1781.152
1784.12
1793.061
1809.003
1830.608
1854.419
1876.066
1891.914
1900.331
1902.04
1899.459
1895.503
1892.431
1891.251
1891.758
1893.046
1894.123
1894.374
1893.718
1892.518
1891.33
1890.656
1890.757
1891.608
1892.954
1894.448
1895.781
1896.787
1897.457
1897.905
1898.283
1898.708
1899.217
1899.771
1900.287
1900.69
1900.952
1901.103
1901.216
1901.37
1901.623
1901.985
1902.433
1902.89
1903.314
1903.664
1903.952
1904.213
1904.515
1904.914
1905.446
1906.125
1906.93
1907.83
1908.775
1909.721
1910.619
1911.423
1912.08
1912.533
1912.717
1912.576
1912.062
1911.155
1909.869
1908.261
1906.427
1904.499
1902.624
1900.964
1899.667
1898.86
1898.637
1899.054
1900.115
1901.782
1903.971
1906.56
1909.401
1912.334
1915.197
1917.847
1920.177
1922.116
1923.636
1924.747
1925.489
1925.919
1926.095
1926.074
1925.906
1925.64
1925.326
1925.019
1924.77
1924.621
1924.591
1924.669
1924.814
1924.963
1925.059
1925.077
1925.041
1925.027
1925.145
1925.495
1926.13
1927.024
1928.073
1929.122
1930.022
1930.685
1931.115
1931.391
1931.623
1931.878
1932.137
1932.281
1932.157
1931.675
1930.92
1930.193
1929.969
1930.74
1932.821
1936.168
1940.313
1944.462
1947.771
1949.697
1950.308
1950.393
1951.268
1954.235
1959.867
1967.423
1974.761
1978.903
1977.185
1968.504
1954.025
1936.929
1921.23
1910.2
1905.158
1905.165
1907.702
1909.924
1909.954
1907.78
1905.479
1906.554
1914.254
1929.211
1947.526
1961.024
1960.591
1941.382
1906.556
1866.454
1833.241
1814.766
1812.087
1821.931
1840.082
1860.008
1867.578
1843.944
1784.116
1711.328
1664.387
1651.164
1649.238
)
;
    }
    topAndBottom
    {
        type            calculated;
        value           nonuniform List<scalar> 
120
(
-170.4061
-72.80064
-34.28533
-12.40865
0.6205094
11.67815
17.84386
18.96057
17.00057
14.49698
13.18084
14.09839
17.23025
20.73519
22.68471
23.38975
24.048
24.0398
22.17353
19.65917
18.69847
18.79848
18.28557
17.14016
16.39381
15.87902
14.75508
12.85792
10.82329
8.987699
7.409539
6.094672
5.048531
4.290383
3.835606
3.665852
3.709954
3.844336
3.911078
3.753722
3.271585
2.46925
1.461838
0.4183718
-0.510169
-1.233381
-1.741154
-2.164087
-2.855526
-4.374719
-7.23393
-11.47941
-16.4431
-21.04591
-24.6417
-27.80478
-31.80321
-35.29867
-18.45099
148.0569
397.8665
510.6481
514.5308
508.3562
503.9769
500.9205
497.1715
492.0359
486.438
481.8211
479.0288
477.9436
477.8434
477.9387
477.7273
477.0478
475.9614
474.6208
473.2168
471.9607
471.0165
470.4139
470.0384
469.7191
469.3224
468.784
468.0982
467.2998
466.4433
465.5834
464.7627
464.0114
463.3558
462.849
462.6067
462.7997
463.5018
464.1776
464.1223
463.4194
463.2813
464.3926
465.4314
464.7012
464.1018
466.4488
470.5746
473.0223
474.4035
477.2993
480.766
482.7616
484.8834
490.3144
499.401
511.5513
525.3923
545.9655
577.4297
636.5295
)
;
    }
    frontAndBack
    {
        type            empty;
    }
}


// ************************************************************************* //
