/*--------------------------------*- C++ -*----------------------------------*\
| =========                 |                                                 |
| \\      /  F ield         | OpenFOAM: The Open Source CFD Toolbox           |
|  \\    /   O peration     | Version:  2312                                  |
|   \\  /    A nd           | Website:  www.openfoam.com                      |
|    \\/     M anipulation  |                                                 |
\*---------------------------------------------------------------------------*/
FoamFile
{
    version     2.0;
    format      ascii;
    arch        "LSB;label=32;scalar=64";
    class       volScalarField;
    location    "2500";
    object      T;
}
// * * * * * * * * * * * * * * * * * * * * * * * * * * * * * * * * * * * * * //

dimensions      [0 0 0 1 0 0 0];

internalField   nonuniform List<scalar> 
12000
(
442.4998
435.4078
434.5705
434.4134
434.3353
434.2655
434.1959
434.1243
434.0513
433.9773
433.9017
433.8229
433.7404
433.6554
433.5684
433.4783
433.384
433.2865
433.1868
433.0846
432.979
432.87
432.7586
432.6451
432.5288
432.4094
432.2873
432.1629
432.036
431.9065
431.7747
431.6421
431.5094
431.3751
431.2332
431.0769
430.9093
430.7571
430.6378
430.5066
430.2914
430.0093
429.782
429.6514
429.4493
429.0799
428.699
428.4443
428.1464
427.6706
427.1339
426.6294
426.042
425.271
424.3663
423.29
421.9945
420.0739
417.3471
412.6421
442.7554
436.1251
435.5606
435.7077
435.9713
436.2576
436.5366
436.7973
437.0518
437.3096
437.5507
437.7546
437.9401
438.129
438.3118
438.4588
438.5687
438.6755
438.7919
438.8916
438.9553
439.0034
439.0598
439.1154
439.1489
439.162
439.171
439.1813
439.186
439.178
439.1574
439.1319
439.1084
439.0783
439.0299
438.9681
438.8893
438.8047
438.7088
438.5965
438.4637
438.3129
438.1441
437.9527
437.7356
437.4857
437.2023
436.8752
436.4994
436.0583
435.5432
434.9312
434.1868
433.2825
432.1999
430.8395
429.0293
426.3401
422.1949
414.7212
443.3714
436.8992
436.3956
436.7224
437.2112
437.7332
438.2501
438.7401
439.1987
439.6273
440.0236
440.3851
440.7137
441.0145
441.2889
441.5347
441.7518
441.9453
442.1198
442.2754
442.411
442.5286
442.6321
442.7228
442.8
442.8637
442.9157
442.9574
442.9895
443.0116
443.0243
443.0269
443.0198
443.0055
442.9793
442.936
442.877
442.8032
442.716
442.6163
442.5015
442.3686
442.2145
442.0374
441.8356
441.6042
441.3388
441.0293
440.6758
440.2641
439.7804
439.2099
438.5334
437.7139
436.6689
435.2702
433.3781
430.6078
425.8141
415.7564
444.1927
437.5819
437.0733
437.504
438.138
438.8026
439.4543
440.0726
440.6571
441.2021
441.7038
442.1597
442.5715
442.9446
443.2802
443.5806
443.8487
444.088
444.3017
444.4922
444.6615
444.8114
444.9438
445.0601
445.1616
445.2492
445.3237
445.3859
445.4362
445.4752
445.502
445.5157
445.5165
445.5068
445.4839
445.4436
445.3876
445.316
445.2293
445.128
445.0107
444.8738
444.7137
444.531
444.321
444.0789
443.799
443.4755
443.1025
442.6679
442.1613
441.5688
440.8684
440.0018
438.9106
437.5192
435.6202
432.8039
427.8688
416.4764
445.0319
438.2219
437.6779
438.1607
438.8883
439.6526
440.3961
441.0986
441.7529
442.3611
442.9209
443.4309
443.891
444.3058
444.6778
445.0101
445.3063
445.57
445.8043
446.0123
446.1973
446.3617
446.5071
446.6347
446.7457
446.8413
446.9224
446.9898
447.0446
447.0867
447.1151
447.1306
447.134
447.1241
447.098
447.057
447.0015
446.9313
446.8461
446.7444
446.6244
446.484
446.3205
446.1316
445.9129
445.6596
445.3664
445.0269
444.6328
444.175
443.6412
443.0119
442.2588
441.3432
440.2082
438.7725
436.8595
434.0588
429.1261
417.0076
445.916
438.8323
438.2122
438.6978
439.4701
440.294
441.0983
441.8587
442.5648
443.2142
443.8071
444.3464
444.8358
445.2775
445.6732
446.0257
446.3386
446.6157
446.8604
447.0759
447.2662
447.4339
447.5811
447.7092
447.8197
447.9138
447.9928
448.0574
448.1091
448.1477
448.1734
448.1864
448.1864
448.1729
448.1446
448.1022
448.0459
447.975
447.8888
447.7858
447.6641
447.5216
447.3554
447.1622
446.9378
446.6776
446.3755
446.0248
445.6174
445.1422
444.5837
443.9217
443.1314
442.1793
441.0155
439.5545
437.6245
434.8191
429.8963
417.3608
446.8273
439.4207
438.7066
439.1672
439.9535
440.8097
441.6509
442.447
443.1863
443.8651
444.483
445.0422
445.5467
446.0005
446.4067
446.768
447.0875
447.3688
447.6154
447.8309
448.0188
448.1821
448.3233
448.4446
448.5477
448.6344
448.7059
448.7635
448.8079
448.8398
448.8595
448.8669
448.8621
448.8444
448.8135
448.7698
448.7129
448.6421
448.5562
448.4538
448.3327
448.1907
448.0248
447.8315
447.6065
447.3448
447.0404
446.686
446.2719
445.7853
445.2107
444.5283
443.7129
442.7306
441.5339
440.0456
438.1011
435.2987
430.3961
417.6223
447.7916
439.9984
439.1713
439.5856
440.362
441.2291
442.0899
442.9078
443.6685
444.3669
445.0024
445.5764
446.0915
446.5514
446.9602
447.3219
447.6402
447.9186
448.1607
448.3701
448.5502
448.7044
448.8355
448.9462
449.0386
449.1147
449.1761
449.2242
449.2598
449.2838
449.2966
449.2982
449.2887
449.2676
449.235
449.1908
449.1343
449.0646
448.9806
448.8805
448.7622
448.6233
448.4606
448.2706
448.0488
447.7901
447.4879
447.134
446.7179
446.2267
445.644
444.9486
444.1147
443.1048
441.8762
440.3698
438.4214
435.6205
430.7355
417.7929
448.7962
440.5687
439.6184
439.975
440.7258
441.5887
442.4563
443.2859
444.0599
444.7713
445.4185
446.002
446.5241
446.9875
447.3959
447.7534
448.0647
448.3339
448.5654
448.7631
448.9309
449.0722
449.1903
449.288
449.368
449.4323
449.4827
449.5208
449.5476
449.564
449.5703
449.567
449.5538
449.5306
449.4973
449.4534
449.3983
449.3309
449.2497
449.1531
449.0388
448.9043
448.7463
448.5612
448.3445
448.0905
447.7922
447.4413
447.0269
446.5359
445.951
445.2474
444.3894
443.3463
442.0947
440.5779
438.6281
435.8322
430.9628
417.9319
449.8224
441.1364
440.0558
440.3471
441.0615
441.9088
442.7734
443.6066
444.3872
445.106
445.7596
446.3479
446.872
447.3348
447.7397
448.0908
448.3927
448.6505
448.8688
449.0524
449.2057
449.3325
449.4364
449.5206
449.5879
449.6406
449.6806
449.7095
449.7285
449.7383
449.7395
449.7323
449.7166
449.6923
449.659
449.6163
449.5631
449.4984
449.4206
449.3279
449.218
449.0883
448.9355
448.7557
448.5443
448.2954
448.0021
447.6556
447.2453
446.7576
446.1694
445.4485
444.5686
443.5106
442.2469
440.7213
438.7707
435.9798
431.1259
418.035
450.8638
441.7051
440.4864
440.7081
441.3795
442.2038
443.0586
443.8896
444.6717
445.3931
446.0489
446.6373
447.1592
447.6168
448.0138
448.3548
448.6452
448.8904
449.0953
449.2652
449.4044
449.5172
449.6075
449.679
449.7346
449.7768
449.8077
449.8287
449.8411
449.8457
449.8429
449.833
449.8158
449.7911
449.7584
449.7171
449.6661
449.6042
449.5297
449.4409
449.3353
449.2103
449.0624
448.8877
448.6814
448.4377
448.1495
447.8082
447.4028
446.9142
446.3144
445.5792
444.6898
443.6243
442.3528
440.8207
438.8679
436.0807
431.2382
418.1277
451.8895
442.2787
440.9221
441.0732
441.6964
442.4897
443.3267
444.1486
444.9263
445.6454
446.2988
446.8834
447.3977
447.844
448.2263
448.5529
448.8318
449.0672
449.2628
449.4224
449.5498
449.6495
449.7273
449.7874
449.8329
449.8662
449.8894
449.904
449.9112
449.9118
449.9061
449.8943
449.8762
449.8515
449.8196
449.7797
449.7308
449.6715
449.6001
449.5147
449.413
449.292
449.1484
448.9782
448.7765
448.5376
448.2544
447.9181
447.5138
447.018
446.4084
445.6669
444.7739
443.7049
442.4281
440.8884
438.9321
436.1502
431.3194
418.2045
452.8792
442.8622
441.3647
441.4445
442.0185
442.7781
443.5936
444.4016
445.1697
445.8805
446.5245
447.0971
447.597
448.0257
448.3919
448.7067
448.9751
449.2001
449.385
449.5342
449.652
449.7433
449.8125
449.8634
449.9001
449.9258
449.9427
449.9523
449.9555
449.953
449.9451
449.932
449.9134
449.8888
449.8577
449.8191
449.772
449.7149
449.6462
449.5637
449.4651
449.3475
449.2075
449.0411
448.8434
448.6087
448.3301
447.9961
447.5879
447.0852
446.4707
445.7267
444.8321
443.7607
442.4802
440.937
438.9794
436.1996
431.3769
418.2751
453.832
443.4493
441.8128
441.8222
442.3473
443.072
443.8631
444.6538
445.4082
446.1061
446.7362
447.2931
447.7752
448.1842
448.5327
448.8338
449.0906
449.305
449.4799
449.6191
449.7276
449.8102
449.8716
449.9158
449.9464
449.9664
449.9784
449.984
449.9841
449.9794
449.97
449.9559
449.9369
449.9126
449.8821
449.8446
449.799
449.7436
449.6769
449.5966
449.5005
449.3855
449.2483
449.0848
448.8903
448.6591
448.3833
448.0485
447.6356
447.1286
446.5116
445.7668
444.8718
443.7994
442.5159
440.9676
439.0073
436.2303
431.4136
418.3331
454.7464
444.033
442.264
442.2058
442.6839
443.3735
444.1386
444.9094
445.6469
446.3284
446.9413
447.4796
447.9422
448.3313
448.6617
448.9473
449.1909
449.3932
449.5569
449.6862
449.7857
449.8605
449.9149
449.9531
449.9786
449.9944
450.0028
450.0055
450.0034
449.997
449.9866
449.9719
449.9527
449.9285
449.8986
449.8619
449.8173
449.7633
449.698
449.6195
449.5252
449.4122
449.277
449.1158
448.9236
448.6949
448.4197
448.0823
447.6665
447.1574
446.5395
445.7945
444.8993
443.826
442.5411
440.9915
439.0306
436.2542
431.4424
418.3809
455.6266
444.6126
442.7176
442.5952
443.0287
443.6841
444.4225
445.1713
445.889
446.5512
447.1443
447.6621
448.1039
448.4726
448.7839
449.0527
449.2817
449.4711
449.6232
449.7421
449.8327
449.8997
449.9477
449.9807
450.0019
450.0142
450.02
450.0206
450.017
450.0096
449.9984
449.9833
449.9641
449.94
449.9105
449.8744
449.8306
449.7775
449.7133
449.6359
449.5429
449.4312
449.2976
449.1378
448.9473
448.7198
448.4439
448.1041
447.686
447.1757
446.5575
445.8123
444.9169
443.8431
442.5569
441.0053
439.0432
436.2675
431.4575
418.4114
456.4783
445.184
443.1718
442.9897
443.3818
444.0045
444.7159
445.4411
446.1368
446.7771
447.3479
447.8432
448.2628
448.6104
448.9019
449.1528
449.3662
449.542
449.6821
449.7905
449.8721
449.9317
449.9737
450.0018
450.0193
450.0289
450.0325
450.0317
450.027
450.0189
450.0073
449.992
449.9728
449.949
449.9197
449.8841
449.8408
449.7883
449.7248
449.6482
449.556
449.4453
449.3126
449.1538
448.9644
448.7372
448.46
448.1185
447.699
447.1877
446.5693
445.8244
444.9292
443.8552
442.5686
441.0163
439.0536
436.2774
431.468
418.4293
457.3083
445.747
443.6259
443.3886
443.7424
444.3342
445.0186
445.7189
446.3903
447.0063
447.5526
448.0235
448.4196
448.7454
449.0166
449.249
449.4463
449.6079
449.7356
449.8334
449.9062
449.9586
449.9949
450.0186
450.0329
450.04
450.042
450.0401
450.0347
450.0261
450.0143
449.999
449.9799
449.9562
449.9272
449.8919
449.849
449.7969
449.7338
449.6577
449.566
449.4557
449.3235
449.1653
448.9764
448.7491
448.4708
448.1279
447.7072
447.1951
446.5761
445.8311
444.9361
443.862
442.5748
441.022
439.0586
436.2817
431.4717
418.4355
458.121
446.3014
444.0789
443.7907
444.1096
444.672
445.3294
446.0037
446.649
447.2384
447.7581
448.2029
448.5741
448.8771
449.1276
449.3415
449.5223
449.6695
449.7848
449.8721
449.9362
449.9818
450.0127
450.0324
450.0437
450.0488
450.0494
450.0466
450.0407
450.0318
450.02
450.0047
449.9857
449.9623
449.9335
449.8984
449.8558
449.8039
449.7411
449.6652
449.5737
449.4636
449.3316
449.1735
448.9848
448.7572
448.4781
448.1343
447.7127
447.2
446.5808
445.8355
444.9402
443.8658
442.5786
441.0257
439.0619
436.2839
431.4734
418.4381
458.9164
446.8434
444.5296
444.1953
444.4818
445.0163
445.6467
446.2936
446.9109
447.4718
447.9628
448.3799
448.7252
449.0048
449.2346
449.43
449.5944
449.7271
449.83
449.9071
449.9629
450.0019
450.0279
450.0439
450.0525
450.0559
450.0554
450.0518
450.0455
450.0364
450.0245
450.0094
449.9905
449.9673
449.9388
449.9039
449.8614
449.8097
449.7471
449.6713
449.5798
449.4698
449.3377
449.1795
448.9906
448.7627
448.4829
448.1381
447.7158
447.2027
446.5831
445.8377
444.942
443.8673
442.58
441.0272
439.0631
436.2838
431.4727
418.4401
459.6928
447.3791
444.9787
444.6013
444.8577
445.365
445.9681
446.5865
447.1739
447.7043
448.165
448.5531
448.8717
449.1275
449.3368
449.5142
449.6624
449.7808
449.8716
449.9388
449.9868
450.0197
450.0411
450.0538
450.0601
450.0619
450.0604
450.0562
450.0495
450.0402
450.0282
450.0131
449.9944
449.9713
449.943
449.9083
449.866
449.8145
449.7519
449.6761
449.5847
449.4745
449.3423
449.1839
448.9947
448.7663
448.4859
448.1404
447.7173
447.2036
446.5837
445.838
444.9422
443.8675
442.5803
441.0274
439.0625
436.2822
431.4714
418.4457
460.4455
447.905
445.425
445.0078
445.2357
445.7165
446.2918
446.8802
447.436
447.934
448.363
448.7211
449.0125
449.2444
449.4336
449.5935
449.7258
449.8305
449.9097
449.9675
450.0082
450.0355
450.0528
450.0625
450.0668
450.0672
450.0648
450.06
450.0529
450.0433
450.0312
450.0161
449.9974
449.9744
449.9462
449.9117
449.8695
449.8181
449.7557
449.68
449.5884
449.4782
449.3457
449.187
448.9973
448.7684
448.4874
448.1412
447.7175
447.2033
446.5832
445.8373
444.9415
443.8669
442.5798
441.027
439.0619
436.2805
431.4703
418.4535
461.1629
448.4328
445.8706
445.4144
445.6145
446.0686
446.615
447.1719
447.6943
448.1585
448.5546
448.8821
449.1461
449.3547
449.5246
449.6677
449.7849
449.8762
449.9444
449.9935
450.0274
450.0497
450.0633
450.0704
450.0729
450.0721
450.0689
450.0634
450.0559
450.0461
450.0337
450.0185
449.9998
449.9768
449.9486
449.9142
449.8721
449.8208
449.7584
449.6827
449.5912
449.4808
449.348
449.189
448.9989
448.7694
448.4878
448.1411
447.7167
447.2021
446.5817
445.8361
444.9404
443.8658
442.5786
441.0258
439.0601
436.2778
431.4683
418.4631
461.8424
448.9594
446.314
445.8201
445.9928
446.4197
446.936
447.4597
447.9471
448.3761
448.7385
449.0352
449.2718
449.4581
449.61
449.7369
449.8394
449.918
449.9759
450.017
450.0449
450.0627
450.073
450.0778
450.0787
450.0768
450.0727
450.0667
450.0587
450.0485
450.0359
450.0205
450.0016
449.9785
449.9504
449.9159
449.8739
449.8226
449.7602
449.6845
449.5929
449.4823
449.3494
449.19
448.9994
448.7695
448.4875
448.14
447.7151
447.2001
446.5798
445.8346
444.9392
443.8645
442.5768
441.0239
439.0578
436.2743
431.4657
418.4729
462.4843
449.478
446.7596
446.2258
446.3701
446.7685
447.2531
447.7419
448.1927
448.5854
448.9136
449.1794
449.3891
449.5543
449.6893
449.8009
449.8894
449.9563
450.0048
450.0386
450.0611
450.0748
450.0822
450.0849
450.0843
450.0813
450.0765
450.0698
450.0613
450.0507
450.0378
450.0221
450.0031
449.9799
449.9516
449.917
449.8749
449.8236
449.7612
449.6854
449.5937
449.483
449.3498
449.1901
448.9992
448.7688
448.4862
448.1382
447.7128
447.1976
446.5775
445.8324
444.9374
443.8631
442.5756
441.0219
439.0545
436.2703
431.4627
418.4827
463.0983
449.9904
447.2053
446.6328
446.7469
447.1145
447.5648
448.0163
448.4287
448.7842
449.0784
449.3142
449.4983
449.6437
449.7628
449.8599
449.9354
449.9916
450.0315
450.0588
450.0762
450.0863
450.0909
450.0917
450.0897
450.0858
450.0802
450.0729
450.0638
450.0528
450.0396
450.0236
450.0043
449.9809
449.9524
449.9177
449.8755
449.824
449.7614
449.6855
449.5936
449.4828
449.3494
449.1894
448.9981
448.7673
448.4842
448.1357
447.7099
447.1947
446.5749
445.8304
444.9358
443.8616
442.5737
441.0193
439.0509
436.2657
431.4592
418.4924
463.6841
450.4938
447.6491
447.0392
447.1215
447.4556
447.8687
448.2807
448.6536
448.9719
449.2326
449.4395
449.5997
449.7268
449.831
449.9144
449.978
450.0243
450.0565
450.0777
450.0906
450.0973
450.0994
450.0984
450.0952
450.0903
450.0839
450.0759
450.0663
450.0549
450.0413
450.0249
450.0053
449.9817
449.953
449.9181
449.8756
449.824
449.7612
449.6851
449.593
449.4819
449.3482
449.1879
448.9963
448.7652
448.4816
448.1326
447.7066
447.1915
446.5721
445.8282
444.9341
443.8601
442.5718
441.0164
439.0466
436.2604
431.4551
418.5029
464.2433
450.9877
448.0895
447.4427
447.4915
447.7893
448.1627
448.5338
448.8668
449.1482
449.3762
449.5554
449.694
449.8045
449.8946
449.9651
450.0177
450.055
450.08
450.0958
450.1045
450.108
450.1079
450.1052
450.1007
450.0949
450.0876
450.079
450.0688
450.0569
450.0428
450.0262
450.0062
449.9823
449.9533
449.9182
449.8755
449.8236
449.7606
449.6842
449.5919
449.4805
449.3465
449.186
448.994
448.7625
448.4784
448.1289
447.7027
447.1879
446.5692
445.826
444.9325
443.8585
442.5695
441.0129
439.0416
436.2543
431.4505
418.5149
464.7768
451.4717
448.525
447.8414
447.8545
448.1133
448.4453
448.7745
449.0677
449.3132
449.5103
449.6633
449.7821
449.8774
449.9539
450.0125
450.0549
450.084
450.1026
450.1133
450.1181
450.1187
450.1164
450.1121
450.1064
450.0995
450.0914
450.082
450.0712
450.0588
450.0443
450.0273
450.007
449.9827
449.9535
449.9181
449.8752
449.823
449.7597
449.6831
449.5904
449.4788
449.3445
449.1837
448.9915
448.7595
448.4748
448.1248
447.6986
447.1841
446.5661
445.8237
444.9308
443.8568
442.5671
441.009
439.0359
436.2474
431.445
418.5286
465.285
451.9454
448.9542
448.2334
448.2083
448.4261
448.7153
449.0024
449.2566
449.4676
449.6353
449.7641
449.8648
449.9459
450.0097
450.0571
450.0902
450.1117
450.1244
450.1304
450.1315
450.1294
450.125
450.1191
450.1122
450.1043
450.0953
450.0851
450.0737
450.0607
450.0457
450.0282
450.0076
449.983
449.9535
449.9178
449.8746
449.8222
449.7587
449.6818
449.5888
449.4769
449.3423
449.1812
448.9888
448.7564
448.471
448.1205
447.6941
447.1801
446.5629
445.8215
444.9291
443.855
442.5643
441.0044
439.0293
436.2394
431.4385
418.5432
465.7676
452.4078
449.3757
448.6166
448.5517
448.7267
448.9723
449.2177
449.434
449.612
449.7518
449.859
449.9434
450.0108
450.0623
450.0993
450.1238
450.1385
450.1456
450.1472
450.145
450.1401
450.1338
450.1264
450.1182
450.1091
450.0992
450.0882
450.0761
450.0625
450.047
450.0291
450.0081
449.9832
449.9534
449.9174
449.8739
449.8213
449.7575
449.6803
449.5871
449.4749
449.3401
449.1788
448.9861
448.7533
448.4672
448.1161
447.6897
447.1762
446.5599
445.8193
444.9275
443.8531
442.5612
440.9992
439.0219
436.2304
431.4306
418.557
466.2247
452.8584
449.788
448.99
448.8834
449.0145
449.2164
449.4209
449.6008
449.7476
449.8614
449.949
450.0182
450.0723
450.1123
450.1395
450.1561
450.1644
450.1664
450.1639
450.1584
450.1511
450.1427
450.1338
450.1243
450.1141
450.1031
450.0912
450.0784
450.0642
450.0482
450.0298
450.0084
449.9832
449.953
449.9168
449.8731
449.8202
449.7562
449.6788
449.5854
449.4729
449.338
449.1764
448.9835
448.7502
448.4633
448.1117
447.6852
447.1724
446.557
445.8174
444.9259
443.8511
442.5577
440.9934
439.0135
436.2203
431.4211
418.5679
466.6572
453.2966
450.1903
449.3524
449.2027
449.2893
449.4479
449.6128
449.758
449.8754
449.9654
450.035
450.0897
450.1311
450.1601
450.1782
450.1874
450.1897
450.1869
450.1805
450.1719
450.1621
450.1519
450.1414
450.1304
450.119
450.1069
450.0942
450.0806
450.0657
450.0492
450.0304
450.0086
449.983
449.9525
449.9161
449.8721
449.819
449.7548
449.6772
449.5836
449.471
449.3359
449.1742
448.9811
448.7473
448.4596
448.1074
447.6811
447.1689
446.5545
445.8157
444.9245
443.8491
442.554
440.987
439.0043
436.2091
431.4099
418.5741
467.0672
453.7218
450.5818
449.7033
449.5096
449.5515
449.6677
449.7945
449.9067
449.9964
450.0649
450.1178
450.1584
450.1874
450.206
450.2156
450.2178
450.2145
450.207
450.1969
450.1853
450.1732
450.1611
450.149
450.1365
450.1238
450.1107
450.0971
450.0827
450.0672
450.0501
450.0308
450.0086
449.9827
449.9519
449.9152
449.871
449.8177
449.7533
449.6756
449.5819
449.4692
449.334
449.1722
448.9788
448.7443
448.4558
448.1033
447.6772
447.1657
446.5523
445.8143
444.9234
443.8471
442.55
440.98
438.9943
436.197
431.3973
418.5744
467.4582
454.1342
450.962
450.0424
449.8041
449.8017
449.8767
449.9671
450.0482
450.1121
450.1607
450.1977
450.2244
450.2417
450.2504
450.2518
450.2475
450.2387
450.2268
450.2131
450.1987
450.1843
450.1703
450.1564
450.1425
450.1284
450.1143
450.0997
450.0846
450.0684
450.0508
450.0311
450.0085
449.9822
449.9512
449.9143
449.8699
449.8164
449.7518
449.6739
449.5802
449.4674
449.3322
449.1705
448.9768
448.7415
448.4523
448.0995
447.6737
447.1631
446.5507
445.8135
444.9226
443.8453
442.5458
440.9726
438.9838
436.1842
431.3835
418.5689
467.8328
454.5337
451.3308
450.3695
450.0867
450.0407
450.0761
450.1317
450.1832
450.2235
450.2534
450.2748
450.2882
450.2941
450.2934
450.2871
450.2763
450.2623
450.2461
450.229
450.2118
450.1952
450.1793
450.1637
450.1482
450.1328
450.1176
450.1021
450.0862
450.0695
450.0513
450.0312
450.0083
449.9817
449.9505
449.9133
449.8687
449.815
449.7503
449.6724
449.5785
449.4658
449.3306
449.1689
448.9749
448.7388
448.449
448.096
447.6706
447.1609
446.5496
445.8131
444.9221
443.8436
442.5416
440.9649
438.9726
436.1708
431.3689
418.5589
468.1936
454.9206
451.6878
450.6849
450.3579
450.2696
450.2669
450.2895
450.3133
450.3313
450.3432
450.3493
450.3498
450.3449
450.3352
450.3214
450.3043
450.2851
450.2648
450.2443
450.2246
450.2059
450.188
450.1706
450.1536
450.1369
450.1206
450.1042
450.0876
450.0703
450.0517
450.0311
450.0079
449.9811
449.9496
449.9122
449.8675
449.8137
449.7489
449.6709
449.577
449.4643
449.3292
449.1675
448.9733
448.7365
448.4459
448.0928
447.668
447.1593
446.5491
445.8132
444.9221
443.8422
442.5374
440.9568
438.9611
436.157
431.354
418.5462
468.5414
455.2953
452.0335
450.9891
450.6186
450.4893
450.45
450.4412
450.4389
450.4358
450.4301
450.4214
450.4095
450.3942
450.3757
450.3546
450.3314
450.3072
450.2828
450.2591
450.2369
450.2161
450.1963
450.1771
450.1585
450.1406
450.1232
450.1061
450.0888
450.0709
450.0518
450.031
450.0074
449.9804
449.9487
449.9112
449.8663
449.8124
449.7476
449.6695
449.5757
449.463
449.3279
449.1664
448.9719
448.7344
448.4432
448.0901
447.6659
447.1583
446.5492
445.814
444.9225
443.8409
442.5331
440.9484
438.9491
436.1429
431.339
418.5327
468.876
455.6579
452.3681
451.2827
450.8696
450.7008
450.6267
450.5881
450.5608
450.537
450.5142
450.4913
450.4674
450.442
450.415
450.3866
450.3574
450.3282
450.2999
450.2733
450.2486
450.2257
450.2039
450.183
450.163
450.1439
450.1255
450.1076
450.0896
450.0713
450.0518
450.0306
450.0069
449.9796
449.9478
449.9101
449.8651
449.8112
449.7463
449.6683
449.5745
449.4619
449.3269
449.1655
448.9708
448.7326
448.4409
448.0878
447.6644
447.1579
446.5499
445.8152
444.9233
443.8399
442.5286
440.9397
438.9367
436.1285
431.324
418.5197
469.1966
456.009
452.6921
451.5663
451.1118
450.9051
450.7978
450.7302
450.6787
450.6349
450.5956
450.5589
450.5234
450.4881
450.4528
450.4173
450.3822
450.3482
450.3161
450.2866
450.2596
450.2346
450.2109
450.1884
450.167
450.1467
450.1274
450.1087
450.0902
450.0714
450.0516
450.0301
450.0062
449.9788
449.9468
449.909
449.864
449.8101
449.7452
449.6672
449.5735
449.461
449.3262
449.1649
448.97
448.7311
448.439
448.0861
447.6635
447.1582
446.5512
445.817
444.9244
443.8389
442.5241
440.9306
438.9239
436.1139
431.309
418.5077
469.5023
456.349
453.006
451.8406
451.3461
451.103
450.9635
450.8678
450.7926
450.7294
450.6742
450.6242
450.5775
450.5326
450.4889
450.4465
450.4056
450.3669
450.3313
450.299
450.2698
450.2427
450.2172
450.1931
450.1704
450.1491
450.129
450.1096
450.0906
450.0713
450.0513
450.0296
450.0054
449.9779
449.9458
449.908
449.863
449.8091
449.7443
449.6664
449.5728
449.4604
449.3258
449.1647
448.9695
448.7299
448.4375
448.0849
447.6633
447.1591
446.5531
445.8193
444.9259
443.8381
442.5194
440.9212
438.9107
436.0991
431.2942
418.4965
469.7924
456.6782
453.3103
452.1065
451.5735
451.2955
451.124
451.0004
450.9025
450.8208
450.7502
450.6874
450.6296
450.5752
450.5233
450.474
450.4274
450.3844
450.3453
450.3104
450.279
450.25
450.2227
450.1971
450.1733
450.151
450.1301
450.1102
450.0907
450.0711
450.0508
450.0289
450.0046
449.977
449.9449
449.9071
449.8621
449.8082
449.7435
449.6658
449.5724
449.4602
449.3258
449.1647
448.9691
448.729
448.4364
448.0844
447.6637
447.1607
446.5556
445.822
444.9278
443.8374
442.5146
440.9115
438.8972
436.084
431.2793
418.4859
470.0669
456.997
453.6057
452.3649
451.795
451.482
451.2786
451.1282
451.0084
450.9089
450.8236
450.7481
450.6795
450.6157
450.5558
450.4997
450.4477
450.4004
450.3582
450.3208
450.2872
450.2562
450.2273
450.2005
450.1756
450.1525
450.1309
450.1105
450.0906
450.0707
450.0501
450.0281
450.0038
449.9761
449.944
449.9062
449.8612
449.8075
449.743
449.6654
449.5722
449.4603
449.3262
449.1651
448.9691
448.7285
448.4359
448.0845
447.6648
447.163
446.5588
445.8253
444.9299
443.8368
442.5097
440.9015
438.8834
436.069
431.2647
418.4753
470.3266
457.3062
453.893
452.6167
452.0108
451.6623
451.4274
451.2512
451.1106
450.994
450.8943
450.8065
450.727
450.6539
450.5862
450.5235
450.4663
450.4151
450.3699
450.3301
450.2944
450.2615
450.2311
450.2031
450.1773
450.1535
450.1314
450.1105
450.0903
450.0702
450.0495
450.0273
450.0029
449.9752
449.9431
449.9054
449.8606
449.807
449.7426
449.6653
449.5723
449.4607
449.3269
449.1658
448.9694
448.7284
448.436
448.0852
447.6665
447.1659
446.5625
445.829
444.9323
443.8363
442.5046
440.8914
438.8696
436.054
431.2502
418.4645
470.5728
457.6063
454.1735
452.8634
452.2197
451.8355
451.5705
451.3697
451.2091
451.076
450.9622
450.8622
450.7721
450.6898
450.6143
450.5453
450.4832
450.4283
450.3803
450.3383
450.3006
450.2659
450.2341
450.2051
450.1785
450.1541
450.1316
450.1103
450.0899
450.0696
450.0487
450.0265
450.0021
449.9744
449.9424
449.9048
449.8601
449.8067
449.7425
449.6654
449.5727
449.4614
449.3279
449.1669
448.9701
448.7288
448.4366
448.0865
447.6689
447.1694
446.5667
445.8332
444.935
443.8359
442.4996
440.8812
438.8557
436.0392
431.2361
418.4537
470.8069
457.8986
454.4487
453.1034
452.4213
452.0024
451.7084
451.484
451.3042
451.1549
451.0272
450.9151
450.8145
450.7232
450.6402
450.5652
450.4985
450.4401
450.3895
450.3453
450.3057
450.2693
450.2363
450.2064
450.1792
450.1543
450.1314
450.1099
450.0893
450.0689
450.048
450.0257
450.0013
449.9737
449.9418
449.9043
449.8598
449.8066
449.7426
449.6658
449.5734
449.4624
449.3293
449.1683
448.9711
448.7297
448.4377
448.0884
447.6719
447.1734
446.5715
445.8378
444.9381
443.8357
442.4947
440.8711
438.8421
436.0247
431.2224
418.4431
471.03
458.1833
454.7182
453.3369
452.6164
452.1636
451.8415
451.5944
451.3958
451.2307
451.0893
450.9652
450.8542
450.7541
450.6637
450.583
450.5121
450.4506
450.3976
450.3513
450.3097
450.2719
450.2378
450.2071
450.1793
450.1541
450.131
450.1094
450.0886
450.0681
450.0472
450.025
450.0006
449.9731
449.9413
449.904
449.8597
449.8067
449.743
449.6664
449.5743
449.4636
449.3309
449.17
448.9726
448.731
448.4394
448.0909
447.6755
447.1781
446.5768
445.8428
444.9415
443.8358
442.49
440.8612
438.8287
436.0106
431.2093
418.4329
471.2433
458.4607
454.9816
453.5642
452.8056
452.3196
451.9703
451.7011
451.4841
451.3033
451.1483
451.0123
450.8911
450.7823
450.685
450.599
450.5241
450.4597
450.4045
450.3562
450.3128
450.2737
450.2386
450.2073
450.1791
450.1536
450.1304
450.1086
450.0879
450.0674
450.0465
450.0243
450
449.9726
449.941
449.9039
449.8598
449.807
449.7436
449.6673
449.5755
449.4652
449.3328
449.172
448.9743
448.7328
448.4416
448.0939
447.6796
447.1832
446.5825
445.8483
444.9453
443.8362
442.4856
440.8516
438.8157
435.997
431.1969
418.4233
471.4473
458.7309
455.2388
453.7857
452.9894
452.4709
452.095
451.8041
451.5691
451.3727
451.2042
451.0564
450.925
450.808
450.7041
450.6131
450.5346
450.4676
450.4103
450.36
450.315
450.2747
450.2389
450.2069
450.1785
450.1529
450.1295
450.1078
450.0871
450.0666
450.0458
450.0237
449.9995
449.9723
449.9408
449.9039
449.86
449.8075
449.7444
449.6684
449.577
449.467
449.3349
449.1742
448.9764
448.735
448.4444
448.0976
447.6843
447.1889
446.5887
445.8542
444.9495
443.837
442.4817
440.8425
438.8033
435.9842
431.1851
418.4144
471.6425
458.9939
455.4897
454.0016
453.1682
452.6178
452.2159
451.9037
451.6507
451.4389
451.2568
451.0973
450.9562
450.8311
450.721
450.6255
450.5436
450.4742
450.4149
450.3629
450.3164
450.2751
450.2386
450.2062
450.1775
450.1519
450.1285
450.1069
450.0863
450.0659
450.0452
450.0232
449.9991
449.972
449.9408
449.9041
449.8604
449.8082
449.7454
449.6698
449.5787
449.4692
449.3373
449.1766
448.9788
448.7377
448.4477
448.1019
447.6896
447.195
446.5954
445.8605
444.9542
443.8384
442.4783
440.834
438.7915
435.9719
431.174
418.4061
471.829
459.2497
455.7342
454.2121
453.3424
452.7606
452.3331
451.9998
451.729
451.5017
451.3063
451.1353
450.9846
450.8518
450.7359
450.6362
450.5514
450.4798
450.4186
450.3649
450.3171
450.275
450.2378
450.2052
450.1764
450.1507
450.1274
450.1059
450.0854
450.0652
450.0446
450.0228
449.9989
449.972
449.9409
449.9044
449.861
449.8091
449.7466
449.6713
449.5807
449.4716
449.34
449.1793
448.9816
448.7409
448.4516
448.1066
447.6953
447.2016
446.6026
445.8675
444.9596
443.8405
442.4756
440.8263
438.7805
435.9605
431.1635
418.3981
472.0073
459.4984
455.9725
454.4174
453.5122
452.8995
452.4467
452.0925
451.8039
451.5612
451.3525
451.1702
451.0103
450.8703
450.749
450.6454
450.558
450.4843
450.4213
450.3661
450.3172
450.2743
450.2367
450.2038
450.175
450.1493
450.1262
450.1049
450.0846
450.0646
450.0442
450.0225
449.9988
449.972
449.9412
449.9049
449.8618
449.8101
449.748
449.6731
449.5829
449.4742
449.3429
449.1823
448.9848
448.7446
448.456
448.1121
447.7019
447.209
446.6103
445.8746
444.965
443.8431
442.4738
440.8194
438.7702
435.9495
431.1533
418.3901
472.1777
459.7401
456.2046
454.6176
453.6777
453.0348
452.5569
452.1818
451.8754
451.6174
451.3955
451.2023
451.0334
450.8866
450.7603
450.6532
450.5633
450.4879
450.4232
450.3666
450.3168
450.2732
450.2353
450.2023
450.1734
450.1479
450.125
450.1038
450.0838
450.064
450.0438
450.0224
449.9988
449.9723
449.9416
449.9056
449.8628
449.8114
449.7496
449.6751
449.5852
449.477
449.3461
449.1857
448.9885
448.7487
448.461
448.118
447.7088
447.2167
446.6185
445.8828
444.9719
443.8466
442.4726
440.8132
438.7607
435.9394
431.1436
418.382
472.3408
459.9749
456.4304
454.813
453.8393
453.1665
452.6637
452.2678
451.9436
451.6704
451.4355
451.2316
451.0542
450.901
450.7701
450.6598
450.5677
450.4905
450.4244
450.3665
450.3158
450.2718
450.2336
450.2005
450.1717
450.1463
450.1236
450.1028
450.083
450.0635
450.0435
450.0223
449.999
449.9727
449.9423
449.9065
449.8639
449.8128
449.7513
449.6772
449.5878
449.4801
449.3496
449.1893
448.9925
448.7534
448.4665
448.1246
447.7165
447.2253
446.6273
445.8909
444.9783
443.8505
442.4725
440.808
438.7519
435.9297
431.1343
418.3738
472.4972
460.2031
456.6502
455.0034
453.9969
453.2947
452.7672
452.3505
452.0085
451.7201
451.4725
451.2582
451.0728
450.9135
450.7784
450.6653
450.5711
450.4924
450.4249
450.3659
450.3145
450.2701
450.2317
450.1986
450.1699
450.1447
450.1223
450.1017
450.0822
450.063
450.0433
450.0224
449.9994