/*--------------------------------*- C++ -*----------------------------------*\
| =========                 |                                                 |
| \\      /  F ield         | OpenFOAM: The Open Source CFD Toolbox           |
|  \\    /   O peration     | Version:  2312                                  |
|   \\  /    A nd           | Website:  www.openfoam.com                      |
|    \\/     M anipulation  |                                                 |
\*---------------------------------------------------------------------------*/
FoamFile
{
    version     2.0;
    format      ascii;
    arch        "LSB;label=32;scalar=64";
    class       volScalarField;
    location    "4650";
    object      alphat;
}
// * * * * * * * * * * * * * * * * * * * * * * * * * * * * * * * * * * * * * //

dimensions      [1 -1 -1 0 0 0 0];

internalField   nonuniform List<scalar> 
12000
(
2.892497e-05
0.0001509846
0.0001566383
0.0001678058
0.000198197
0.0002262251
0.0002018762
0.0001609507
0.0001559997
0.0002134925
0.0002581272
0.0001852849
0.0001449513
0.0001607889
0.0002244975
0.0002211829
0.0001621355
0.0001481259
0.0001808859
0.0002085975
0.0001741635
0.0001535266
0.0001675689
0.0001834618
0.0001696924
0.0001605752
0.000168608
0.0001704666
0.0001616637
0.0001620804
0.000167534
0.0001669784
0.0001626584
0.000157056
0.0001536852
0.0001596619
0.0001758711
0.0001748459
0.0001516293
0.0001356044
0.0001418011
0.0001817407
0.0002048516
0.0001482586
0.0001159363
0.0001293401
0.0002024241
0.000215925
0.0001215712
0.0001032134
0.0001483212
0.0002117664
0.0001223497
9.784876e-05
0.0001203339
0.0001251695
9.673303e-05
7.476078e-05
6.754665e-05
5.513987e-05
1.784318e-05
0.0001985862
0.0002304078
0.000267942
0.0002911132
0.0003350552
0.0003790139
0.0004400138
0.0005128907
0.0005658018
0.0006026952
0.0006750697
0.0007774349
0.0008624693
0.0008979028
0.0009446803
0.00104536
0.001157308
0.001214114
0.001244767
0.001326261
0.001436806
0.001507188
0.001545029
0.001612632
0.001695087
0.001748225
0.001791459
0.001853284
0.00190352
0.00192766
0.001954897
0.001991
0.002018699
0.002037299
0.002034572
0.002014527
0.00200146
0.002002204
0.001998501
0.001956296
0.001874995
0.001799137
0.001472757
0.001722035
0.00163071
0.001495392
0.001276708
0.001032798
0.001218719
0.001071776
0.0009347348
0.0007765574
0.0006945381
0.0005683538
0.0004391884
0.0003071242
0.0001872914
9.672866e-05
5.21251e-05
2.571929e-05
0.0002427949
0.0003336416
0.0004051218
0.0005098885
0.0006167624
0.000739495
0.0008732065
0.001019135
0.001146065
0.001280744
0.001449036
0.001600532
0.0017431
0.00187151
0.001999522
0.002130492
0.002254942
0.002363527
0.002465574
0.002567589
0.002664041
0.002748542
0.00282517
0.002898307
0.002964852
0.003022967
0.003075422
0.003122917
0.003162499
0.00319696
0.003225332
0.003250164
0.00326888
0.003281433
0.00328696
0.003286256
0.003279525
0.00326652
0.003246843
0.003220228
0.003186455
0.003140549
0.003088594
0.003019778
0.002945443
0.002805137
0.002540222
0.002409687
0.002298414
0.002232556
0.001888241
0.001687107
0.001385148
0.001165657
0.001082146
0.0007664733
0.0004260976
0.0001575522
5.142793e-05
2.791175e-05
0.0002727122
0.0004197431
0.0005403436
0.0007016827
0.0008777612
0.001072193
0.001279049
0.001491556
0.001703314
0.001916025
0.002120727
0.002315037
0.002494776
0.002661669
0.002818887
0.002965832
0.003101221
0.003225147
0.003339275
0.003444845
0.003541827
0.003630509
0.003711628
0.003785535
0.003852261
0.00391208
0.003965289
0.004012675
0.00405353
0.004087158
0.004114332
0.004135824
0.004150374
0.004157515
0.004156848
0.004148106
0.004130803
0.00410436
0.004068142
0.004021433
0.00396332
0.00389271
0.003806408
0.003708186
0.003594243
0.003463559
0.003314117
0.003143284
0.002950215
0.002588562
0.002096016
0.001942588
0.001745876
0.001642066
0.001303872
0.0009439584
0.0005729549
0.000233589
5.228808e-05
2.808116e-05
0.0003006359
0.0005066229
0.0006799276
0.0008953402
0.00113093
0.00138127
0.001638611
0.001896401
0.00214788
0.002390324
0.00262236
0.002842227
0.003046541
0.003231708
0.003399901
0.003554985
0.003698216
0.003830804
0.003952814
0.004065345
0.004169209
0.004265083
0.004353442
0.004434518
0.004508475
0.004575442
0.004634599
0.004688715
0.004734302
0.004772406
0.004803664
0.004827703
0.004844114
0.0048523
0.00485187
0.004842983
0.00482512
0.004797739
0.004760285
0.004712201
0.004652841
0.004581494
0.004497041
0.004398238
0.004283143
0.004152169
0.004001665
0.003830833
0.003472847
0.002984333
0.002912424
0.002747526
0.002450291
0.002099006
0.001694004
0.001224277
0.0007308718
0.0002871128
5.202368e-05
2.869069e-05
0.0003235481
0.0005830115
0.0008020912
0.001058751
0.001337163
0.001627241
0.001919855
0.002207363
0.002483602
0.00274424
0.00298828
0.003216504
0.003431274
0.003632925
0.003819103
0.003989515
0.004145274
0.004289224
0.004422221
0.004545062
0.004658603
0.004763551
0.004860403
0.004949462
0.005030899
0.005102798
0.005170112
0.00522906
0.005279606
0.005322177
0.005356367
0.005382126
0.005398952
0.005406446
0.00540384
0.005391112
0.00536774
0.005333269
0.005287042
0.005228366
0.005156477
0.005070495
0.004969413
0.004852102
0.004716822
0.00456103
0.00438662
0.004189773
0.003964387
0.003704923
0.003408779
0.003077406
0.002709079
0.002299869
0.001847152
0.001354355
0.0008351872
0.0003443317
5.225293e-05
2.949562e-05
0.0003300279
0.0006470569
0.0009064361
0.00119351
0.001499724
0.001813043
0.002124328
0.002427584
0.002718909
0.00299591
0.003258165
0.003503044
0.003729822
0.003939817
0.004133419
0.004312134
0.004478473
0.004633325
0.004777666
0.004912276
0.005037797
0.005154709
0.005263306
0.005363705
0.005455875
0.005538662
0.005614815
0.005681817
0.005739562
0.005787833
0.005826216
0.005854934
0.005873373
0.005881101
0.0058777
0.005862919
0.005836159
0.005797042
0.005745161
0.005680027
0.005601054
0.005507517
0.005398573
0.005273024
0.005129882
0.004965476
0.004782347
0.004572335
0.004331893
0.004058825
0.003750243
0.00340174
0.003008126
0.002564722
0.002068543
0.001520808
0.0009373075
0.0003851708
5.227035e-05
3.023587e-05
0.0003369742
0.0006983413
0.0009918208
0.001298288
0.001618425
0.001945379
0.002272632
0.002591703
0.002896552
0.003184552
0.003453482
0.003705033
0.003940124
0.004159101
0.004364067
0.004556865
0.004737825
0.004907517
0.005066769
0.005216279
0.005356551
0.005487909
0.005610534
0.005724395
0.005826417
0.005922521
0.006008289
0.006083448
0.0061485
0.006203083
0.006246627
0.00627913
0.006299847
0.006308264
0.00630397
0.006286596
0.006255743
0.006211032
0.00615206
0.006078374
0.005989457
0.005884704
0.005763312
0.005624369
0.00546638
0.005285237
0.005081916
0.004850904
0.004590033
0.00429648
0.003966129
0.00359459
0.003177401
0.002710504
0.002191164
0.001620581
0.001011963
0.0004261153
5.234076e-05
3.208084e-05
0.0003399045
0.0007329866
0.001055175
0.001375944
0.001710205
0.002047657
0.002380031
0.002702918
0.003013298
0.003308294
0.003586768
0.003849033
0.004095829
0.004328065
0.00454684
0.004753998
0.004950838
0.005137529
0.005314254
0.005480898
0.005637401
0.005783572
0.005918981
0.006044443
0.006159409
0.006266608
0.006363446
0.006449472
0.006523468
0.006585011
0.006633849
0.006670004
0.006692764
0.006701587
0.006696042
0.006675757
0.006640377
0.006589554
0.006522903
0.006439954
0.006340264
0.006223417
0.006088868
0.005935986
0.005762184
0.005564932
0.005345668
0.005101411
0.004828567
0.004522036
0.004177801
0.00379089
0.003355696
0.002867139
0.002321502
0.001719556
0.001075712
0.0004550189
5.236958e-05
3.145495e-05
0.0003544667
0.0007607541
0.001105853
0.001441317
0.001778748
0.002117969
0.002452987
0.002779489
0.003094529
0.003396184
0.003683637
0.003956932
0.004216611
0.004463479
0.004698456
0.004921871
0.005133947
0.00533468
0.005524416
0.005705244
0.005876914
0.006039333
0.00619255
0.006335355
0.006466075
0.006585717
0.006693207
0.006788006
0.006869523
0.00693721
0.006990694
0.007029768
0.007053739
0.007062056
0.007054267
0.007029998
0.006988942
0.006930863
0.0068556
0.006761946
0.006649309
0.006517717
0.006366901
0.00619617
0.006006335
0.005794465
0.005560045
0.005299715
0.005010671
0.004689786
0.00433158
0.003928717
0.003476737
0.002971292
0.002408649
0.001789422
0.001126688
0.0004828892
5.235006e-05
3.0942e-05
0.0003513912
0.0007716658
0.001137117
0.001480363
0.00182135
0.002161863
0.002498532
0.00282788
0.003147334
0.003455327
0.003751203
0.004034929
0.004306782
0.004567112
0.004815076
0.005052376
0.00527993
0.005498786
0.005708908
0.005908502
0.006097699
0.006276314
0.006443958
0.006598602
0.006742425
0.006873337
0.00699072
0.007093974
0.007182499
0.007255723
0.007313224
0.007354609
0.007379122
0.007386184
0.007375304
0.007346058
0.007298062
0.007230964
0.007144417
0.007039285
0.006915652
0.006772686
0.006609675
0.006425971
0.006220799
0.005993014
0.005742557
0.005467281
0.005164362
0.004829536
0.004457484
0.0040439
0.003580979
0.003062171
0.002483738
0.001846368
0.001164061
0.0005012812
5.231972e-05
3.475298e-05
0.0003334753
0.0007703626
0.001159929
0.001514609
0.00185867
0.002198869
0.002534752
0.002864312
0.003185824
0.003498232
0.003801047
0.004094116
0.004377412
0.004650105
0.004913662
0.00516711
0.005410742
0.005644775
0.005869109
0.006083429
0.006287175
0.006479732
0.006660508
0.006827917
0.006983117
0.007124325
0.007250769
0.007361708
0.00745643
0.007534245
0.007594556
0.00763689
0.007660826
0.007665961
0.007651893
0.007618248
0.007564679
0.007490874
0.007396537
0.007281379
0.007145182
0.006987821
0.006809185
0.006609103
0.006387345
0.006143414
0.00587727
0.005588077
0.005273844
0.004930259
0.004550809
0.004128118
0.003655698
0.003126796
0.002538112
0.00188999
0.001195783
0.0005188037
5.226841e-05
3.444852e-05
0.0003308328
0.0007643217
0.001164249
0.001526745
0.001872846
0.002212251
0.002547236
0.002877416
0.003201772
0.003519287
0.003829013
0.004130035
0.004421124
0.00470132
0.004878071
0.005050521
0.005230896
0.005494688
0.005782656
0.006110302
0.006417182
0.006651203
0.006845137
0.007025125
0.007190871
0.007340998
0.007474696
0.007591412
0.007690568
0.007771598
0.00783401
0.007877298
0.007900849
0.007904137
0.007886698
0.007848135
0.007788114
0.007706371
0.007602712
0.007477008
0.007329195
0.007159255
0.006967119
0.006752775
0.006516153
0.00613815
0.005802031
0.005528836
0.005299866
0.004998216
0.004615299
0.004188522
0.003710467
0.003175426
0.002578448
0.001920333
0.0012154
0.0005286083
5.219227e-05
3.456527e-05
0.0003224809
0.0007537225
0.001164417
0.001534288
0.001883419
0.002223081
0.002557472
0.002887305
0.00321197
0.003530441
0.003841406
0.00414286
0.004358437
0.004460669
0.004551922
0.004665142
0.004843404
0.005094333
0.005395519
0.005714181
0.005988678
0.006259046
0.006552341
0.006878166
0.007219033
0.00751185
0.007651136
0.007773006
0.007876485
0.007960785
0.008025269
0.008069311
0.008092298
0.008093682
0.008072992
0.008029853
0.007963983
0.00787519
0.007763363
0.007628432
0.007470464
0.007289777
0.007034035
0.006633674
0.006264071
0.005928099
0.005613846
0.005366417
0.00520827
0.005040715
0.00465804
0.004230415
0.003750133
0.003210851
0.002608629
0.001944564
0.001232885
0.0005382535
5.215876e-05
3.50854e-05
0.0003129031
0.0007386286
0.001155128
0.001533469
0.001887088
0.002228025
0.00256197
0.002890744
0.003214313
0.003531637
0.003840759
0.004110534
0.004228255
0.004304208
0.004421858
0.004592237
0.004782674
0.004970697
0.00519061
0.005438807
0.005739493
0.006041008
0.006344923
0.006656765
0.006978889
0.007285222
0.007567631
0.007820218
0.008013854
0.008101199
0.008167798
0.008212776
0.00823546
0.008235313
0.008211877
0.008164805
0.008093882
0.007999042
0.007880386
0.007681494
0.007411707
0.007113196
0.006791048
0.0064428
0.006070319
0.005717857
0.005434888
0.005224337
0.005064264
0.004926116
0.00468484
0.00425854
0.003777181
0.003235134
0.002628765
0.001959379
0.001241893
0.0005422944
5.209028e-05
3.56192e-05
0.0003042364
0.0007228747
0.001143971
0.001528162
0.001885544
0.002227603
0.002560888
0.00288809
0.003209637
0.003524548
0.003830815
0.004029622
0.004146091
0.004278922
0.004410042
0.004546038
0.004696279
0.004874391
0.00509684
0.005354204
0.005622275
0.005909764
0.006204027
0.006499464
0.006789309
0.007064587
0.007314708
0.007537614
0.007742988
0.00794676
0.008170574
0.008242616
0.00817992
0.008146318
0.008099095
0.008027592
0.007925606
0.007791032
0.007622965
0.007419644
0.007179984
0.006904729
0.006595889
0.006263296
0.005924802
0.00559936
0.00530433
0.005077958
0.004945709
0.004867276
0.004703588
0.004277786
0.00379573
0.003251958
0.002643301
0.001970874
0.001249769
0.0005458902
5.204696e-05
3.608591e-05
0.0002970222
0.0007068736
0.001128764
0.001517208
0.001878477
0.002222138
0.002555024
0.002880524
0.003199676
0.00351203
0.003816142
0.004047515
0.004177124
0.004274902
0.00437883
0.004502918
0.004664023
0.004869758
0.005082533
0.005317472
0.00556756
0.00584153
0.006120414
0.006399242
0.006670771
0.006925888
0.007156243
0.00735986
0.007545129
0.007736581
0.00797842
0.00806813
0.007988505
0.007933874
0.007881912
0.00781413
0.007721484
0.00759827
0.007439995
0.007243467
0.00700909
0.006740784
0.006443668
0.006125377
0.00580002
0.005489322
0.005218112
0.005007874
0.004867667
0.004785954
0.004671013
0.004291032
0.003809935
0.003265488
0.002654698
0.00197994
0.001256232
0.0005490162
5.197985e-05
3.647102e-05
0.0002901508
0.0006909739
0.001112237
0.00150484
0.001869022
0.002213878
0.002546224
0.002869902
0.003186451
0.003495821
0.003796829
0.004016562
0.004149611
0.0042626
0.004382743
0.00452039
0.004680407
0.004859986
0.005072523
0.005312766
0.005576525
0.005835663
0.00610051
0.006363669
0.006616556
0.006850845
0.007060738
0.007246527
0.007419749
0.007611487
0.007882008
0.00800855
0.007920058
0.007840945
0.007774915
0.007702615
0.007608579
0.007483901
0.007324388
0.007128478
0.00689665
0.006631612
0.006338656
0.006026576
0.005708595
0.005402715
0.005131257
0.004919925
0.004787367
0.004720739
0.004631098
0.004297072
0.003816488
0.003271455
0.002659664
0.001983426
0.001257929
0.0005494413
5.193394e-05
3.674222e-05
0.0002848629
0.000677004
0.0010956
0.001489563
0.001855731
0.002202106
0.002534407
0.00285673
0.0031711
0.003477979
0.003776743
0.004019231
0.00416375
0.004281211
0.004401805
0.0045402
0.00470372
0.004894754
0.005114617
0.005347651
0.005595385
0.005854228
0.006119087
0.006378748
0.006624995
0.006850954
0.007053029
0.007233426
0.007402146
0.007576405
0.007774399
0.007994604
0.007995226
0.007835545
0.007742652
0.00766089
0.007561614
0.007431936
0.007266837
0.00706537
0.006829233
0.006562256
0.00627037
0.005962227
0.00565024
0.005351307
0.00508579
0.004876921
0.004742773
0.004675918
0.004598109
0.004301738
0.003821829
0.003276581
0.002664017
0.00198673
0.001260376
0.0005506855
5.188515e-05
3.701324e-05
0.0002804995
0.0006640899
0.001079057
0.001473667
0.001842206
0.00218929
0.00252135
0.002842502
0.003155101
0.00346009
0.003757451
0.004039699
0.004199763
0.004330674
0.004464093
0.004612032
0.00478043
0.004971017
0.005181863
0.005416088
0.005666398
0.005927862
0.006187104
0.006438527
0.006675019
0.006890502
0.007082039
0.007252305
0.007411513
0.007576899
0.007766994
0.00799505
0.008020327
0.007860935
0.00774841
0.00764636
0.007532027
0.007391468
0.007217973
0.007010026
0.006769522
0.006500683
0.006209679
0.005904921
0.005597851
0.005303951
0.00504237
0.004836379
0.004705272
0.004644057
0.004578504
0.004303731
0.003824113
0.003278477
0.002665232
0.001987378
0.001260494
0.0005506261
5.183159e-05
3.71566e-05
0.000277373
0.0006532844
0.001063782
0.001457615
0.001826839
0.002174733
0.00250703
0.002827635
0.003139201
0.003443163
0.003740074
0.004029179
0.004255944
0.004407097
0.004549917
0.004703993
0.004876556
0.005070285
0.005284322
0.005516882
0.005762313
0.006016072
0.006268818
0.006514115
0.006743269
0.006950358
0.007132809
0.007292798
0.007438886
0.007587254
0.007761633
0.007994756
0.008045894
0.007892543
0.007762174
0.007639866
0.007509691
0.007357702
0.007175819
0.006961761
0.006717407
0.006447233
0.006157501
0.005856293
0.005554266
0.005265779
0.005008623
0.004805104
0.00467454
0.00461416
0.004555803
0.004304248
0.003824971
0.003279113
0.002665422
0.001987086
0.001260544
0.0005507106
5.178678e-05
3.739607e-05
0.000275475
0.0006443709
0.001049808
0.00144227
0.001811784
0.002160555
0.002492867
0.002813106
0.003124071
0.003427479
0.0037242
0.004015264
0.004299939
0.004501194
0.004658391
0.004820902
0.004997743
0.005191919
0.005405076
0.00563589
0.005877894
0.0061245
0.006370733
0.006607107
0.006826427
0.007023539
0.007195915
0.007345065
0.007477681
0.007607991
0.007763153
0.00799197
0.008065469
0.007919173
0.007774357
0.007636191
0.007491951
0.007328723
0.007138505
0.006918769
0.006671229
0.006400303
0.006112112
0.005814336
0.005516918
0.005233346
0.00498054
0.004780385
0.004652414
0.004595121
0.004543087
0.004304171
0.003824931
0.00327873
0.002664667
0.00198622
0.001259497
0.0005501062
5.172694e-05
3.749288e-05
0.000274541
0.0006370884
0.001037272
0.001427557
0.001796914
0.002146048
0.002478805
0.002799143
0.003110041
0.003413492
0.003710711
0.004002408
0.004289471
0.004572499
0.004789193
0.004959796
0.005141502
0.005339912
0.005552008
0.005774059
0.006008677
0.006249489
0.00648954
0.006717127
0.006926306
0.007112412
0.007273843
0.007412894
0.007536437
0.007655629
0.007783624
0.007928728
0.008073546
0.008006179
0.007793311
0.007632325
0.00747766
0.007306298
0.007108906
0.006883643
0.006632775
0.006360871
0.006073894
0.005779104
0.005485812
0.005206755
0.004958065
0.00476106
0.004635153
0.004579678
0.004531794
0.004303321
0.003823953
0.003277324
0.002662803
0.001984378
0.001258194
0.0005495698
5.169217e-05
3.770345e-05
0.0002741654
0.0006317659
0.001027137
0.001414977
0.001783374
0.002132487
0.002465569
0.002786253
0.003097528
0.003401566
0.003699852
0.003993392
0.004282936
0.004568964
0.004851707
0.005125407
0.005310335
0.005499316
0.005707774
0.005929651
0.00616016
0.006394208
0.00662261
0.006839075
0.007037667
0.007213308
0.007363973
0.00749158
0.007602595
0.007707644
0.007818304
0.007939801
0.00807371
0.008025696
0.007819992
0.007645658
0.00747494
0.007290917
0.007084663
0.006853605
0.006599511
0.006326697
0.006040861
0.005748846
0.005459382
0.005184567
0.004939996
0.004746562
0.00462353
0.004570583
0.004525935
0.0043027
0.003823041
0.003275965
0.002661118
0.001982496
0.001256582
0.0005486866
5.163987e-05
3.776476e-05
0.0002752556
0.0006283379
0.001018467
0.001403267
0.001770799
0.002119937
0.002453464
0.002774767
0.003086805
0.003391856
0.003691568
0.003987106
0.004279282
0.004568643
0.004855534
0.005140161
0.005422447
0.00569362
0.005893752
0.006099777
0.006320141
0.006545595
0.006765486
0.0069731
0.007161227
0.007326182
0.007466177
0.007582451
0.007679789
0.007766493
0.00785402
0.007957207
0.008087575
0.008047368
0.007842698
0.007657855
0.007474133
0.007278582
0.007063613
0.006826781
0.006569608
0.006296082
0.006011523
0.005722305
0.005436582
0.005165681
0.00492516
0.004735333
0.004615179
0.004564425
0.004521915
0.004302018
0.003821826
0.003274087
0.002658773
0.001980102
0.001254726
0.0005478192
5.161906e-05
3.778539e-05
0.0002769853
0.0006257525
0.001011362
0.001393405
0.001759698
0.002108788
0.002442847
0.002765008
0.003078155
0.003384609
0.003686118
0.003983941
0.004278945
0.004571682
0.004862426
0.005151178
0.005437625
0.005721105
0.006000631
0.006274708
0.006506264
0.006710985
0.006914201
0.007111369
0.007291808
0.007447712
0.007576542
0.007680553
0.007764353
0.007835228
0.007903524
0.007982693
0.008091696
0.00805571
0.007861811
0.007669823
0.007473837
0.007267272
0.007044253
0.006802331
0.006542667
0.00626886
0.00598581
0.005699415
0.005417313
0.005150225
0.004913706
0.004727647
0.004610739
0.004562494
0.004521563
0.004302039
0.003821172
0.003272694
0.002656832
0.001977984
0.001252961
0.0005469088
5.157955e-05
3.909267e-05
0.0002737861
0.0006232694
0.001005719
0.00138541
0.001750642
0.002099527
0.00243414
0.002757356
0.003071946
0.003380222
0.003683969
0.003984489
0.004282666
0.004579017
0.004873723
0.005166637
0.005457274
0.005744804
0.00602805
0.006305502
0.006575381
0.006835612
0.007083182
0.007263014
0.007423248
0.007566265
0.007685664
0.007779256
0.007850257
0.007904984
0.007952825
0.008008876
0.008097455
0.008063417
0.007875676
0.00767694
0.007471841
0.007256664
0.007026908
0.006780613
0.006518901
0.006245065
0.005963576
0.005679867
0.005401151
0.005137784
0.004905095
0.004722751
0.00460915
0.004563369
0.004523413
0.004302588
0.003820734
0.003271293
0.002654753
0.001975686
0.001251049
0.0005459663
5.156953e-05
4.075457e-05
0.0002764909
0.000617284
0.001002403
0.001379151
0.001743049
0.002092041
0.00242752
0.002752168
0.00306866
0.00337928
0.003685817
0.003989577
0.004291423
0.00459181
0.004890816
0.005188148
0.005483155
0.005774833
0.006061838
0.006342524
0.006614973
0.006877042
0.00712641
0.007360725
0.007568345
0.007699514
0.007801887
0.007883126
0.007943401
0.007986591
0.008019458
0.008047113
0.008067934
0.008065427
0.007922351
0.007684585
0.007466855
0.007246165
0.007012219
0.006762681
0.006499252
0.006225391
0.005945305
0.005664009
0.005388357
0.005128444
0.004899447
0.004720859
0.00461076
0.004567583
0.004528117
0.004304134
0.003821249
0.003270693
0.002653323
0.001973893
0.001249435
0.000545082
5.154654e-05
4.136973e-05
0.0002802033
0.0006067042
0.001001298
0.001374872
0.001737559
0.002086638
0.002423261
0.002749775
0.003068719
0.003382309
0.003692297
0.003999953
0.004306081
0.004611047
0.004914799
0.005216891
0.005516497
0.005812436
0.006103201
0.006387001
0.006661812
0.006925417
0.007175526
0.007409768
0.007626267
0.00782195
0.007936309
0.008004275
0.00804926
0.008076917
0.008091762
0.008097267
0.008091673
0.008069678
0.007929866
0.007696642
0.007471574
0.00724225
0.007001843
0.006748365
0.006483154
0.006209277
0.005930551
0.005651572
0.005378819
0.005122154
0.004896634
0.00472163
0.004614927
0.004574184
0.004534603
0.004305871
0.003821855
0.003270334
0.002652027
0.001972135
0.001247795
0.0005441916
5.154567e-05
4.158926e-05
0.0002834361
0.0005974071
0.0009971049
0.00137226
0.001734034
0.002083728
0.002421865
0.00275076
0.003072776
0.003390027
0.003704192
0.00401646
0.004327535
0.004637655
0.004946614
0.00525379
0.005558178
0.005858417
0.006152842
0.006439535
0.006716356
0.00698098
0.007231213
0.007464881
0.007679511
0.007873057
0.008043608
0.00814592
0.008180048
0.008187957
0.008180525
0.00816072
0.008128351
0.008085981
0.007942943
0.007709894
0.007478174
0.007241438
0.006995109
0.006737868
0.006471039
0.006197265
0.005919755
0.005642532
0.005371944
0.005118013
0.004895815
0.004724537
0.004621554
0.004583518
0.004543624
0.004309017
0.003823596
0.003270934
0.002651644
0.001971079
0.001246638
0.0005434637
5.153035e-05
4.16325e-05
0.0002867338
0.0005891544
0.0009829705
0.001372173
0.001732745
0.002083072
0.002423256
0.002755218
0.003081079
0.003402812
0.003721977
0.004039639
0.004356358
0.004672206
0.004986794
0.00529931
0.005608554
0.00591299
0.006210799
0.006499773
0.006777906
0.007043047
0.007292772
0.00752508
0.007737388
0.00792794
0.008094963
0.008236925
0.008309177
0.008308886
0.008280416
0.008235219
0.008178013
0.008109205
0.0079539
0.00772165
0.007485659
0.007242959
0.006991455
0.006730743
0.00646211
0.0061879
0.005911571
0.005636687
0.005369138
0.005118213
0.004899014
0.004730785
0.004630885
0.004595063
0.004554496
0.004313156
0.003826118
0.003271906
0.002651576
0.001970313
0.001245519
0.0005427542
5.153394e-05
4.194268e-05
0.0002900706
0.0005822545
0.0009702958
0.001373917
0.001733892
0.002085441
0.002428512
0.002764026
0.003094422
0.003421434
0.003746414
0.004070239
0.004393277
0.004715394
0.005035993
0.005354064
0.005668156
0.005976415
0.006276828
0.006567756
0.0068468
0.007111663
0.007360141
0.007590035
0.007799316
0.007986172
0.00814901
0.008286484
0.008397513
0.008428761
0.008391306
0.008324795
0.008239704
0.008140076
0.007970672
0.007738166
0.007497917
0.007249791
0.00699357
0.006730037
0.006461333
0.006188985
0.005914637
0.005639467
0.005370881
0.005120837
0.004904656
0.004740439
0.004645165
0.004612283
0.00457012
0.004318426
0.003829674
0.003273961
0.002652364
0.001970206
0.001245048
0.0005422811
5.153552e-05
4.2087e-05
0.0002934758
0.0005764156
0.0009579858
0.001377739
0.001737599
0.002090782
0.002436856
0.002777431
0.003113321
0.003446488
0.003778161
0.004108971
0.004438993
0.004767766
0.005094323
0.005417222
0.005735427
0.006047165
0.006350434
0.006642775
0.006921989
0.007185866
0.00743236
0.007659259
0.007864799
0.00804733
0.008205441
0.008337975
0.008444035
0.008522981
0.008502484
0.008422144
0.008311925
0.008180451
0.00799345
0.007757538
0.007512083
0.007259586
0.00700071
0.00673606
0.006464998
0.006189044
0.00591112
0.005639027
0.005376447
0.005130968
0.004916454
0.004753741
0.004659029
0.004627227
0.004584125
0.004324407
0.003833875
0.003276566
0.002653698
0.001970387
0.001244598
0.0005418791
5.155385e-05
4.254658e-05
0.0002966528
0.0005713663
0.0009474476
0.001382865
0.001743494
0.002099214
0.002449413
0.002794988
0.003137611
0.003478225
0.003817257
0.0041551
0.004491915
0.004827158
0.005159834
0.005488682
0.005811537
0.006126528
0.006431571
0.006724474
0.007003044
0.007265149
0.007508869
0.007732116
0.007933316
0.008111009
0.008263975
0.008391244
0.008492099
0.008566058
0.008602022
0.008521686
0.008390096
0.008227036
0.008020693
0.007779526
0.007528262
0.007269307
0.007003769
0.006733053
0.006460404
0.006187373
0.005914937
0.005644819
0.005382824
0.005138458
0.004925385
0.004763609
0.004670748
0.004641273
0.004597235
0.004331288
0.0038389
0.003279837
0.0026554
0.00197111
0.00124463
0.0005416625
5.157132e-05
4.263903e-05
0.000300374
0.0005679995
0.0009388865
0.001389824
0.001752203
0.002111295
0.002466385
0.002818139
0.003167574
0.003515445
0.003862538
0.004208856
0.004553713
0.004896208
0.005235106
0.005568809
0.00589541
0.006212859
0.006519022
0.006811756
0.007088953
0.007348612
0.007588825
0.007807885
0.008004299
0.0081768
0.008324361
0.008446196
0.008541751
0.008610692
0.00865288
0.00861313
0.008474299
0.008282884
0.008054497
0.007803133
0.007542165
0.007276736
0.007009336
0.0067399
0.006468618
0.006195692
0.005922778
0.005651343
0.005388414
0.005144147
0.004934735
0.004778348
0.004690189
0.004660093
0.004612272
0.004339171
0.003844808
0.003283949
0.002657959
0.001972369
0.00124495
0.0005416305
5.158876e-05
4.291489e-05
0.000303189
0.0005650184
0.0009302393
0.001397244
0.001762731
0.002126117
0.00248721
0.002846292
0.00320396
0.003560664
0.00391653
0.004271206
0.004623872
0.004973336
0.005318081
0.00565632
0.005986078
0.006305284
0.006611847
0.006903702
0.007178854
0.007435419
0.007671677
0.007886102
0.00807739
0.008244464
0.008386483
0.008502832
0.008593111
0.008657117
0.008694815
0.008691415
0.00855363
0.008342848
0.008091472
0.007827934
0.007560732
0.007293251
0.007024626
0.006754207
0.00648089
0.006206593
0.005932841
0.005662662
0.005401107
0.005157958
0.004948554
0.004792469
0.004705984
0.00468033
0.004633073
0.004347873
0.003851379
0.003288598
0.002660935
0.00197399
0.001245613
0.000541795
5.16059e-05
4.404787e-05
0.0003070337
0.0005645078
0.0009250788
0.001397153
0.001777268
0.002145921
0.00251396
0.002881159
0.003247649
0.003613447
0.003978247
0.004341341
0.004701623
0.005057642
0.005407685
0.005749849
0.006082125
0.006402461
0.006708823
0.006999215
0.007271784
0.007524804
0.007756731
0.007966234
0.008152201
0.008313747
0.008450206
0.008561123
0.008646237
0.008705457
0.008738834
0.008746538
0.008630046
0.008410553
0.008138777
0.007862147
0.007587426
0.00731463
0.007042653
0.006770163
0.006496847
0.006222706
0.00594884
0.00567798
0.005415878
0.00517286
0.004964637
0.004810645
0.004726177
0.004700475
0.004649832
0.004357307
0.003858627
0.003293819
0.002664358
0.001975946
0.001246343
0.0005419377
5.163124e-05
4.285118e-05
0.0003144163
0.0005644678
0.0009207351
0.001393254
0.001794178
0.002168785
0.002544565
0.002920736
0.00329686
0.003672408
0.004046583
0.004418269
0.004786057
0.005148297
0.005503155
0.005848686
0.006182886
0.00650375
0.00680932
0.007097639
0.007367162
0.007616253
0.007843564
0.008047959
0.008228517
0.008384531
0.0085155
0.008621113
0.008701229
0.008755852
0.008785102
0.008789185
0.008705822
0.008480644
0.008189236
0.007898835
0.007616238
0.00733972
0.007065832
0.006792033
0.00651727
0.006241736
0.005966717
0.00569509
0.005432582
0.005189489
0.00498168
0.004828914
0.004746638
0.004723121
0.004671117
0.004367697
0.003866743
0.003299834
0.002668447
0.001978297
0.001247538
0.0005423336
5.166317e-05
4.220025e-05
0.0003178221
0.0005642879
0.0009158552
0.001390132
0.001813176
0.002194674
0.002578967
0.002964702
0.003350851
0.003736344
0.004119928
0.004500128
0.004875264
0.005243498
0.005602888
0.00595144
0.006287161
0.006608103
0.006912421
0.007198323
0.007464443
0.00770934
0.007931862
0.008131066
0.008306215
0.008456774
0.008582392
0.008682883
0.008758203
0.008808433
0.008833741
0.00883437
0.008772124
0.008542588
0.008235711
0.007934602
0.007645752
0.007365786
0.00708985
0.006814664
0.006538822
0.006262299
0.005986212
0.005713588
0.005450283
0.005206837
0.00499936
0.004847703
0.004767048
0.004744649
0.00469083
0.004378528
0.003875302
0.003306286
0.002672986
0.001981157
0.001248968
0.0005426608
5.169375e-05
4.292344e-05
0.0003160725
0.0005653707
0.000912205
0.001386581
0.001835078
0.002224424
0.002618006
0.003013889
0.003410453
0.003806093
0.004199109
0.004587676
0.004969862
0.005343668
0.005707072
0.006058069
0.006394716
0.006715175
0.00701775
0.00730086
0.007563269
0.007803765
0.008021391
0.008215394
0.008385206
0.008530444
0.008650883
0.008746448
0.008817178
0.008863211
0.008884755
0.008882063
0.008827051
0.008595413
0.008278513
0.007970074
0.007676751
0.007394307
0.007116865
0.006840431
0.006563292
0.006285369
0.006007829
0.005733894
0.005469518
0.005225411
0.005017907
0.004867029
0.004787808
0.004766496
0.004710829
0.004389957
0.0038844
0.003313198
0.002677872
0.001984211
0.001250473
0.0005432261
5.172883e-05
4.459819e-05
0.0003193632
0.0005675954
0.0009098229
0.00138497
0.001859547
0.002257502
0.002661071
0.003067655
0.003474993
0.003880924
0.004283304
0.004679984
0.005068818
0.005447694
0.005814558
0.006167445
0.006504512
0.006824065
0.007124371
0.007404469
0.007663016
0.00789905