/*--------------------------------*- C++ -*----------------------------------*\
| =========                 |                                                 |
| \\      /  F ield         | OpenFOAM: The Open Source CFD Toolbox           |
|  \\    /   O peration     | Version:  2312                                  |
|   \\  /    A nd           | Website:  www.openfoam.com                      |
|    \\/     M anipulation  |                                                 |
\*---------------------------------------------------------------------------*/
FoamFile
{
    version     2.0;
    format      ascii;
    arch        "LSB;label=32;scalar=64";
    class       volScalarField;
    location    "4650";
    object      G;
}
// * * * * * * * * * * * * * * * * * * * * * * * * * * * * * * * * * * * * * //

dimensions      [1 0 -3 0 0 0 0];

internalField   nonuniform List<scalar> 
12000
(
25478.08
22799.47
21603.5
20715.84
19790.72
18862.45
18075.86
17506.96
17134.3
16889.36
16714.01
16598.75
16583.92
16713.1
16971.12
17262.32
17452.94
17447.2
17239.67
16905.14
16538.13
16191.99
15860.48
15506.33
15107.37
14684.95
14298.13
14012.81
13868.73
13862.87
13953.72
14079.03
14176.51
14199.54
14125.66
13957.71
13719.6
13448.31
13184
12960.93
12801.59
12714.98
12698.95
12744.9
12841.51
12976.99
13139.67
13318.24
13501.74
13678.97
13838.83
13971.37
14072.3
14143.11
14186.01
14198.4
14174.68
14104.02
14013.94
13797.79
27819.59
26103.1
24686.66
23365.6
22039.27
20879.56
20025.36
19441.72
19009.29
18631.61
18286.05
18024.72
17925.54
18013.73
18214.65
18383.44
18389.36
18188.7
17833.91
17419.26
17010.51
16611.82
16186.44
15705.46
15184.39
14683.95
14279.67
14023.83
13922.38
13935.88
13998.5
14042.66
14018.62
13904.41
13706.35
13452.81
13184.17
12941.7
12758.05
12651.58
12625.8
12673.03
12779.91
12931.91
13115.18
13316.34
13521.8
13718.03
13892.78
14035.91
14139.72
14199.25
14213.78
14188.25
14132.03
14053.49
13955.42
13828.91
13696.68
13464
28208.98
27128.49
25765.81
24449.98
23273.23
22272.66
21453.52
20771.77
20171.78
19630.61
19184.87
18914.44
18875.05
19027.76
19233.53
19325.58
19202.46
18872.17
18422.59
17948.78
17494.18
17043.97
16563.95
16047.1
15532.95
15090.71
14782.51
14631.95
14614.44
14670.25
14729.26
14734.45
14655.89
14493.49
14271.13
14026.29
13798.75
13621.04
13512.48
13477.61
13508.82
13591.59
13709.89
13849.42
13998.25
14145.57
14280.49
14392.33
14472.23
14514.78
14518.22
14483.31
14412.38
14310.34
14186.05
14049.95
13908.78
13755.65
13607.23
13366.66
28220.98
27472.91
26050.25
24684.52
23727.83
23006.1
22289.7
21520.05
20760.54
20112.19
19678.48
19526.44
19628.69
19842.35
19967.74
19853.67
19471.54
18909.1
18297.93
17731.53
17228.59
16756.05
16282.37
15816.93
15411.15
15127.76
15003.34
15027.51
15147.23
15289.4
15387.51
15400.69
15320.47
15166.5
14975.75
14789.86
14644.22
14560.78
14545.74
14591.51
14681.93
14798.18
14923.46
15045.03
15153.65
15241.85
15302.36
15328.01
15313.37
15256.87
15161.46
15032.83
14876.71
14698.23
14503.85
14301.41
14098.77
13891.36
13707.46
13412.45
28059.4
27487.94
26078.23
24653.3
23726.42
23115.59
22501.3
21777.6
21032.03
20422.82
20081.91
20040.19
20191.88
20334.79
20276.04
19933.31
19362.26
18699.87
18072.47
17532.23
17056.91
16599.23
16141.19
15714.82
15382.15
15195.38
15165.35
15254.98
15396.51
15519.27
15573.44
15541.52
15436.9
15293.77
15153.66
15053.08
15015.04
15045.75
15136.28
15267.91
15418.55
15568.3
15702.2
15810.59
15887.65
15929.52
15932.9
15894.69
15813.22
15690.29
15532.39
15349.05
15149.06
14937.82
14718.2
14492.81
14268.76
14046.95
13867.15
13584.03
27863.47
27287.82
26027
24601.12
23443.31
22642.95
22068.32
21557.09
21059.48
20648.36
20417.22
20369.66
20391.55
20319.42
20045.76
19580.65
19029.23
18511.08
18084.39
17724.56
17362.98
16949.7
16493.22
16054.49
15707.15
15494.83
15410.63
15405.38
15414.22
15384.42
15292.13
15144.64
14971.83
14812.94
14703.79
14667.49
14710.2
14821.92
14981.44
15163.24
15343.8
15505.35
15636.59
15731.39
15786.99
15802.53
15778.16
15714.64
15613.74
15479.55
15319.66
15144.36
14963.34
14781.85
14600.24
14417.47
14239.64
14074.54
13957.75
13790.36
27698.79
26911.57
25787.63
24358.37
22894.92
21815.16
21231.48
20943.62
20750.65
20604.57
20526.83
20486.24
20381.58
20117.15
19682.41
19164.07
18684.75
18320.13
18055.67
17808.26
17490.78
17071.74
16591.5
16131.75
15765.37
15519.89
15371.83
15267.53
15153.53
14999.19
14804.06
14591.66
14396.84
14253.03
14183.04
14194.58
14280.25
14421.17
14592.91
14771.68
14938.65
15081.38
15192.8
15269.2
15308.9
15311.84
15279.68
15215.61
15123.95
15010.02
14880.62
14744.16
14608.89
14479.72
14357.01
14240.36
14136.53
14057.67
14023.62
14001.86
27339.11
25981.05
24789.67
23368.6
21855.6
20697.55
20067.5
19834.45
19824.79
19944.06
20119.41
20234.5
20157.01
19821.36
19278.61
18665.54
18117.29
17690.4
17347.19
17003.17
16596.99
16133.61
15677.07
15306.36
15068.59
14957.94
14926.39
14912.99
14872.13
14787.47
14669.88
14545.65
14443.41
14384.67
14379.47
14426.17
14513.99
14627.01
14748.59
14864.81
14965.99
15046.21
15101.59
15128.92
15125.61
15090.65
15025.8
14935.83
14827.35
14707.23
14581.78
14457.1
14339.13
14232.34
14138.83
14060.97
14006.28
13985.1
14001.32
14057.69
26044.47
24045.75
22904.89
21851.98
20761.35
19749.81
18999.36
18647.71
18712.51
19077.83
19532.87
19845.23
19849.13
19509.95
18924.9
18254.23
17627.52
17087.25
16600.07
16115.53
15624.01
15173.92
14842.9
14689.53
14719.78
14886.08
15112.99
15330.22
15494.9
15596.08
15645.61
15664.41
15671.57
15679.03
15690.94
15705.62
15718.28
15723.48
15716.83
15695.54
15657.98
15602.65
15527.22
15428.63
15304.31
15154.08
14981.75
14795.19
14604.66
14419.94
14248.11
14093.45
13958.96
13847.6
13762.36
13706.36
13683.41
13694.66
13728.16
13794.79
11287.2
14441.45
15941.39
16730.15
16988.13
16726.13
16299.6
16176.46
16560.76
17308.11
18095.37
18633.82
18791.35
18603.29
18206.31
17743.18
17290.14
16844.07
16367.22
15849.43
15341.89
14941.36
14740.45
14779.9
15031.52
15416.48
15841.84
16233.27
16550.15
16782.84
16940.27
17037.37
17087.26
17098.71
17076.78
17024.57
16944.55
16839.2
16710.7
16560.35
16388.07
16192.41
15971.37
15723.72
15450.75
15157.74
14854.64
14555.28
14274.86
14026.35
13817.3
13649.35
13520.91
13431.32
13382.38
13375.03
13404.59
13458.2
13510.14
13579.41
10882.2
13331.01
14652.1
15413.95
15696.45
15521.85
15201.44
15163.4
15598.72
16345.88
17071.16
17518.23
17627.03
17495.11
17263.42
17015.24
16741.28
16377.57
15879.51
15277.97
14681.63
14228.61
14021.72
14087.14
14374.93
14792.18
15244.04
15661.82
16010.59
16281.99
16482.12
16621.76
16711.36
16759.41
16772.42
16755.18
16710.81
16640.46
16542.95
16414.81
16251.24
16048.02
15803.59
15520.92
15208.27
14879.19
14551.36
14244.42
13976.78
13761.86
13605.03
13503.31
13449.23
13437.1
13465.99
13534.18
13629.41
13727
13800.9
13872.57
24200.19
20302.72
18881.41
18075.65
17321.92
16618.18
16097.1
15915.36
16108.54
16508.38
16851.96
16967.71
16860.59
16653.22
16461.9
16307.58
16114.82
15784.44
15279.19
14662.49
14070.62
13643.71
13461.95
13521.6
13754.58
14070.12
14391.67
14673.88
14900.78
15074.87
15206.4
15306.93
15386.55
15452.76
15509.83
15558.5
15596
15616.36
15611.07
15570.44
15485.84
15352.45
15171.55
14951.43
14706.62
14455.94
14219.93
14017.96
13865.17
13769.61
13730.51
13739.07
13782.71
13851.39
13940.7
14046.39
14154.66
14238.8
14290.75
14299.18
10531.94
11804.63
12761.35
13414.7
13651.44
13672.99
13745.07
14001.45
14418.1
14860.43
15175.29
15290.09
15251.53
15174.94
15147.28
15162.79
15140.49
15002.53
14745.66
14452.45
14241.53
14198.43
14333.81
14588.98
14875.03
15115.82
15271.88
15340.53
15341.81
15302.98
15248.56
15196.59
15158.17
15137.85
15134.28
15141.33
15149.69
15148.66
15127.67
15077.95
14994.38
14877.3
14733.38
14574.97
14417.86
14278.3
14170.29
14103.54
14081.91
14102.65
14156.74
14231.04
14311.65
14387.36
14450.77
14495.27
14512.57
14485.81
14437.61
14274.9
9506.76
10446.34
11391.39
12307.29
12968.51
13359.56
13644.54
13917.53
14162.67
14339.54
14430.56
14444.52
14414.74
14384.9
14375.25
14362.36
14305.3
14199.99
14108.16
14130.1
14341.9
14744.38
15258.07
15762.54
16150.37
16364.45
16404.47
16309.77
16134.76
15929.79
15731.95
15563.39
15433.1
15339.69
15274.47
15225.02
15178.68
15125.41
15059.38
14979.5
14889.28
14796.38
14711.55
14646.68
14612.05
14613.73
14651.99
14721.19
14810.89
14907.51
14996.76
15066.13
15106.13
15109.24
15068.21
14976.6
14836.63
14647.34
14465.14
14097.43
9237.327
9701.171
10308.42
11093.38
12003.06
12859.46
13498.03
13811.3
13800.37
13596.04
13380.46
13278.11
13310.95
13421.79
13520.8
13533.64
13446.89
13329.89
13308.61
13498.45
13937.21
14560.87
15233.97
15811.25
16193.12
16349.43
16309.81
16136.44
15896.74
15646.21
15422.04
15243.61
15115.76
15032.82
14982.82
14951.98
14928.77
14906.78
14885.76
14870.75
14870.12
14893.25
14948.37
15040.6
15170.01
15330.27
15508.43
15686.63
15845.39
15967.35
16040.5
16059.57
16024.3
15934.61
15787.47
15580.42
15325.13
15033.19
14779.6
14327.45
9199.874
9455.332
9847.292
10457.2
11446.63
12646.76
13626.93
14033.52
13823.27
13247.59
12666.27
12347.07
12363.36
12612.02
12910.95
13114.94
13192.94
13230.54
13363.03
13685.81
14197.9
14805.9
15375.44
15792.84
16003.2
16013.72
15872.28
15640.29
15373.05
15111.3
14880.81
14695.34
14559.88
14473.23
14430.27
14424.18
14449.02
14501.54
14581.92
14692.8
14837.07
15015.71
15226.21
15462.12
15712.9
15963.83
16196.62
16391.37
16530.56
16603.38
16608.34
16552.32
16445.78
16296.47
16106.96
15879.33
15626.93
15364.71
15153.92
14817.68
9207.061
9317.477
9600.186
10170.58
11211.58
12556.95
13692.22
14164.84
13887.76
13125.89
12298.38
11759.75
11655.01
11902.21
12297.85
12668.02
12963.86
13251.08
13624.28
14121.09
14692.76
15235.69
15649.4
15880.24
15930.96
15842.25
15665.51
15443.42
15203.67
14962.3
14730.09
14517.5
14336.36
14198.91
14115.61
14093.29
14134.56
14238.36
14400.78
14615.24
14871.94
15157.39
15454.85
15746.05
16013.03
16239.27
16410.05
16513.53
16543.49
16502.72
16403.91
16266.05
16107.62
15940.98
15771.91
15604.01
15444.32
15303.13
15203.29
15090.99
9232.834
9233.069
9461.87
10120.54
11257.27
12595.87
13659.89
14088.58
13826.93
13102.48
12285.66
11711.83
11533.7
11688.58
12000.89
12332.41
12662.46
13054.62
13564.26
14172.63
14790.36
15310.92
15666.08
15847.89
15894
15855.84
15772.44
15661.11
15522.77
15353.44
15154.17
14935.88
14718.8
14528.16
14388.37
14318.02
14327.05
14416.29
14578.57
14800.2
15062.16
15341.29
15612.39
15851.27
16038.01
16158.95
16206.91
16181.04
16087.5
15940.81
15762.84
15577.73
15405.09
15256.39
15136.78
15048.52
14991.07
14966.89
14962.33
15021.45
9260.913
9197.822
9437.779
10236.5
11446.8
12660.44
13516.27
13843
13657.97
13134.87
12541.73
12118.96
11960.86
12002.35
12120.75
12255.45
12445
12768.46
13259.43
13867.73
14488.15
15020.97
15416.57
15680.91
15850.61
15962
16033.04
16062.61
16040.64
15959.81
15822.89
15644.35
15447.4
15258.62
15102.38
14996.44
14949.92
14963.34
15030.09
15138.29
15272.15
15413.17
15541.58
15638.77
15690.16
15687.62
15630.29
15523.95
15380.07
15214.93
15047.59
14895.83
14771.88
14681.58
14627.25
14609.77
14625.08
14669.33
14710.73
14828.07
9272.336
9217.844
9568.121
10485.24
11639.95
12621.52
13260.77
13560.85
13566.19
13358.59
13068.52
12812.69
12627.56
12483.25
12357.51
12288.38
12357.59
12627.91
13092.91
13677.37
14279.95
14821.55
15268.16
15623.06
15903.7
16122.43
16280.69
16374.28
16401.85
16370.05
16293.34
16190.1
16077.71
15968.92
15870.33
15782.9
15703.8
15628.56
15553.18
15475.2
15393.9
15309.26
15220.67
15126.27
15023.84
14912.79
14795.91
14679.56
14571.94
14480.7
14411.17
14365.71
14344.23
14345.96
14371.31
14421.28
14491.86
14576.38
14639.78
14764.44
9269.51
9318.176
9868.609
10817.14
11755.74
12462.76
12983.69
13399.52
13705.5
13859.51
13837.51
13637.65
13286.28
12862.42
12498.06
12331.01
12440.73
12814
13361.15
13966.29
14536.71
15025.83
15426.29
15748.24
16000.6
16185.09
16301.32
16355.04
16362.28
16346.66
16331.83
16333.29
16353.51
16381.91
16399.1
16383.29
16316.26
16187.62
15996.71
15752.59
15472.2
15176.88
14887.92
14622.58
14392.27
14203.63
14061.24
13968.96
13928.38
13935.67
13980.65
14050.19
14133.77
14227.09
14331.09
14447.7
14572.98
14701.27
14797.5
14961.58
9274.489
9535.83
10305.56
11168.69
11829.43
12348.02
12885.49
13488.75
14085.26
14540.46
14704.22
14482.26
13923.81
13241.65
12719.23
12565.6
12822.11
13373.19
14033.11
14641.48
15114.9
15444.21
15660.27
15799.04
15884.1
15927.73
15940.72
15940.45
15951.36
15998.16
16096.29
16244.5
16423.38
16599.92
16736.1
16798.11
16763.09
16622.46
16382.03
16060.11
15684.4
15287.55
14901.87
14554.12
14262.47
14036.99
13882.61
13801.48
13791.84
13844.58
13942.58
14066.04
14201.07
14343.91
14497.05
14662.21
14833.89
15010.12
15153.8
15402.38
9321.619
9901.562
10832.13
11560.04
12055.12
12546.88
13156.43
13874.97
14630.52
15267.06
15556.85
15340.06
14681.38
13878.14
13297.39
13173.34
13508.54
14120.01
14768
15273.63
15568.09
15674.34
15658.15
15585.71
15504.85
15446.07
15431.21
15479.01
15604.02
15810.86
16088.61
16409.33
16732.43
17013.27
17212.69
17304.3
17277.46
17136.27
16896.25
16580.55
16216.7
15833.69
15458.93
15114.99
14817.59
14575.98
14395.37
14279.18
14228.31
14237.91
14295.9
14387.17
14501.33
14636.53
14794.67
14974.62
15167.92
15376.56
15560.6
15888.72
9467.036
10463.62
11509.31
12201.89
12721.84
13252.19
13841.21
14524.13
15300.2
16014.97
16391.01
16233.74
15610.49
14832.1
14262.89
14118.29
14383.07
14870.69
15353.35
15672.77
15781.94
15722.71
15576.4
15422.15
15317.91
15299.52
15386.41
15585.2
15889.05
16275.45
16706.69
17134.92
17511.28
17795.68
17963.9
18009.82
17942.72
17781.59
17548.94
17266.3
16952.24
16622.44
16290.48
15968.25
15665.96
15392.19
15154.58
14960.57
14817.07
14728.28
14693.66
14708.63
14768.32
14870.25
15011.68
15186.2
15382.24
15603.21
15806.28
16166.35
9938.536
11605.93
12830.64
13625.11
14204.79
14645.73
15053.91
15594.55
16309.94
17011.83
17404.74
17316.5
16824.16
16192.79
15706.18
15520.36
15617.92
15861.07
16089.14
16198.44
16170.29
16051.32
15913.73
15822.35
15819.67
15925.74
16143.17
16460.68
16853.78
17285.54
17710.48
18082.3
18363.26
18531.43
18583.23
18530.83
18395.88
18202.18
17969.75
17711.64
17434.13
17139.41
16829.49
16509.3
16187.73
15876.51
15587.89
15333.27
15123.12
14967.26
14873.53
14845.29
14880
14970.44
15106.7
15278.07
15472.35
15691.31
15891.27
16227.08
11428.73
13779.14
14999.23
15695.88
16068.65
16224.1
16394.56
16791.09
17394.61
17974.68
18290.55
18257.02
17958.93
17559.97
17203.49
16959.62
16822.34
16739.66
16655.63
16542.83
16411.53
16297.09
16238.46
16261.77
16375.11
16571.58
16834.71
17141.74
17464.75
17772.09
18032.19
18219.46
18319.77
18332.85
18270.36
18150.94
17994.17
17815.57
17623.78
17420.24
17201.16
16961.33
16698.74
16418.06
16131.24
15854.37
15602.71
15387.31
15215.65
15094.79
15032.43
15032.97
15092.16
15196.98
15332.37
15488.44
15658.44
15842.45
16005.15
16252.56
26090.78
23703.02
22466.47
21622.94
20805.96
20073.04
19645.42
19598.23
19768.24
19917.16
19919.17
19787.17
19577.31
19310.31
18971.73
18553.67
18081.45
17607.69
17189.88
16871.05
16671.42
16589.39
16607.7
16700.89
16841.91
17006.3
17173.32
17324.98
17445
17519.49
17539.54
17504.12
17421.19
17305.52
17174.32
17042.35
16918.65
16805.6
16699.76
16593.91
16479.59
16350.23
16204.43
16048.18
15894.19
15757.56
15649.81
15575.13
15531.86
15517.95
15534.42
15582.33
15655.88
15740.91
15823.52
15900.17
15975.32
16051.23
16115.04
16190.33
27548.55
25854.9
24585.91
23584.29
22573.59
21686.9
21153.16
20953.39
20874.18
20761.96
20630.94
20557.31
20536.77
20459.4
20197.31
19705.27
19054.58
18390.77
17857.48
17536.04
17427.24
17472.18
17590.51
17713.27
17798.44
17829.58
17805.62
17730.59
17608.44
17443.54
17243.87
17023.28
16800.56
16595.38
16423.39
16292.87
16204.16
16151.61
16126.48
16119.49
16122.61
16130.38
16141.21
16157.96
16186.57
16232.42
16295.82
16369.7
16442.01
16501.48
16542.32
16563.21
16561.67
16531
16465.82
16370.77
16261.5
16146.16
16044.57
15873.89
27981.05
26963.66
25807.99
24810.82
23915.79
23186.7
22687.24
22307.85
21909.24
21509.89
21251.31
21220.87
21341.47
21413.61
21248.23
20782.99
20112.18
19425.89
18905.94
18642.25
18609.99
18706.07
18811.67
18842.64
18767.92
18598.67
18364.66
18094.3
17806.34
17512
17221.01
16946.03
16702.48
16505.02
16363.57
16281.22
16254.99
16278.39
16344.11
16445.62
16577.34
16734.3
16911.61
17104.05
17305.15
17505.78
17692.86
17849.71
17958.46
18004.19
17978.78
17882.23
17720.38
17500.79
17231.59
16923.9
16598.31
16267.12
15984.87
15566.14
28073.14
27462.1
26317.49
25205.46
24481.26
24110.27
23795.99
23271.68
22537.72
21836.74
21432.39
21415.55
21663.77
21930.17
21981.5
21711.34
21177.58
20551.37
20013.47
19662.11
19482.22
19380.56
19252.05
19033.3
18719.4
18347.32
17965.99
17612.97
17306.45
17050
16841.75
16681.18
16570.95
16514.85
16515.06
16570.74
16678.51
16834.03
17033.27
17272.74
17548.47
17854.48
18181.3
18515.23
18838.51
19130.61
19370.45
19538.7
19619.33
19600.56
19476.47
19250.13
18935.49
18553.96
18126.55
17668.1
17196.07
16719.35
16319.98
15744.32
28047.56
27709.12
26601.69
25369.56
24738.45
24638.76
24468.59
23834.89
22860.24
21952
21451.52
21460.71
21851.96
22363.77
22721.44
22747.79
22421.15
21852.86
21203.37
20593.27
20060.52
19576
19091.55
18582.66
18063.04
17571.95
17150.55
16824.17
16597.77
16461.88
16401.97
16405.34
16463.63
16572.04
16727.33
16926.57
17166.61
17444.33
17756.78
18100.73
18471.55
18861.47
19257.82
19642.46
19992.98
20286.11
20501.86
20626.36
20651.55
20572.78
20388.06
20101.92
19730.54
19300.55
18838.64
18359.5
17872.4
17375.24
16961.89
16354.4
27953.6
27726.54
26750
25604.65
25006.35
24847.78
24538.62
23781.46
22781.69
21945.23
21562
21696.52
22217.9
22875.21
23391.83
23563.22
23319.6
22724.3
21916.82
21040.69
20195.13
19425.59
18742.1
18143.99
17634.43
17221.41
16911.08
16701.99
16584.42
16543.9
16565.91
16639.08
16756.12
16913.05
17107.67
17338.1
17601.74
17894.77
18212.29
18548.48
18896.39
19246.79
19586.79
19899.33
20165.08
20366.47
20491.99
20537.84
20505.59
20397.71
20215.47
19962.06
19648.5
19294.81
18922.03
18539.79
18149.32
17735.97
17387.34
16827.93
27832.18
27549.48
26798.49
25986.76
25364.4
24770.77
24007.25
23125.49
22359.64
21927.09
21916.18
22277.18
22854.92
23437.23
23816.71
23850.05
23491.69
22792.74
21872.63
20878.01
19942.63
19158.76
18566.19
18158.3
17899.08
17742.32
17646.45
17582.3
17534.3
17497.82
17474.96
17470.94
17491.64
17542.16
17625.8
17743.21
17891.74
18065.57
18256.67
18456.39
18656.4
18848.42
19023.01
19169.11
19275.75
19335.48
19347.31
19316.55
19251.25
19157.68
19038.06
18892.07
18720.62
18528.17
18320.83
18099.54
17861.69
17585.11
17337.45
16857.63
27677.96
27238.31
26775.03
26344.45
25562.7
24347.86
23083.41
22191.16
21829.93
21929.97
22336.1
22882.42
23408.77
23776.53
23890.63
23706.95
23225.41
22486.33
21574.5
20615.68
19751.35
19096.82
18704.59
18553.41
18566.87
18649.19
18719.26
18729.9
18669.6
18552.15
18402.79
18247.12
18105.11
17989.38
17905.69
17853.92
17829.21
17823.3
17826.72
17831.14
17830.83
17822.52
17804.09
17773.67
17730.47
17676.74
17618.92
17566.25
17527.45
17507.71
17507.21
17520.71
17537.87
17545.69
17533.41
17494.07
17426.17
17307.46
17179.88
16816.82
27478.89
26847.16
26612.41
26318.05
25247.47
23592.23
22133.9
21408.9
21424.13
21894.18
22521.15
23097.99
23505.3
23694.88
23668.69
23441.98
23014.76
22381.66
21571.98
20678.75
19844.43
19207.56
18844.73
18743.31
18816.96
18949.72
19042.16
19039.2
18933.19
18749.35
18525.55
18296.12
18083.81
17898.64
17740.75
17604.04
17479.43
17357.48
17230.66
17095.24
16952.03
16805.67
16662.96
16531.44
16418.89
16333.62
16284.13
16277.82
16319.32
16409.65
16545.49
16717.22
16906.71
17089.53
17244.36
17360.89
17441.26
17468.81
17465.15
17262.55
27043.58
26071.9
25832.64
25373.2
24135.59
22537.93
21308.44
20831.01
21028.02
21587.84
22200.9
22670.8
22932.28
23019.72
23000.46
22901.84
22680.98
22261.03
21604.23
20763.89
19877.31
19106.78
18568.33
18289.83
18215.69
18246.47
18286.79
18277.89
18205.32
18086.77
17952.04
17826.21
17721.19
17635.64
17559.5
17479.78
17385.04
17267.99
17126.66
16964.37
16789.04
16611.91
16446
16304.59
16199.78
16141.12
16134.67
16182.84
16285.28
16439.76
16641.64
16880.88
17139.09
17391.58
17616.71
17804.86
17960.13
18074.24
18160.51
18118.48
25787.5
24546.23
24318.04
23828.2
22875.34
21808.58
21012.13
20697.72
20855.1
21289.84
21740.73
22024.47
22117.27
22122.46
22157.66
22249.85
22310.07
22193.8
21795.66
21115.17
20259.8
19393.29
18664.81
18157.18
17874.07
17762.21
17749.31
17776.5
17812.89
17852.36
17900.52
17961.49
18030.9
18095.89
18140.02
18149.06
18115.1
18037.83
17923.36
17781.93
17625.73
17467.71
17321.11
17198.82
17111.61
17065.99
17063.12
17100.42
17174.63
17283.83
17426.16
17596.38
17783.65
17973.04
18150.58
18308.3
18447.94
18569.51
18684.54
18752.95
12637.83
16361.04
18376.94
19234.31
19564.55
19648.36
19615.71
19634.79
19845.85
20221.43
20588.87
20801.54
20869.52
20932.71
21128.05
21476.78
21867.37
22122.8
22094.07
21726.53
21075.29
20274.2
19480.64
18822.72
18368.58
18124.32
18053.36
18103.32
18226.82
18390.18
18571.34
18753.43
18919.69
19052.85
19138.15
19167.34
19141.12
19068.32
18962.64
18838.45
18707.95
18580.58
18464.17
18365.73
18290.3
18238.83
18207.43
18190.19
18183.47
18188.03
18206.95
18242.12
18293.17
18358.14
18433.28
18512.63
18593.35
18680.45
18781.42
18905.37
12698.26
16287.13
18058.92
18812
19337.08
19771.07
19982.16
19995.04
19978.63
20028.41
20098.43
20119.69
20115.56
20190.6
20434.93
20847.05
21326.6
21721.23
21888.25
21743.91
21288.2
20601.75
19817.62
19078.52
18495.78
18125.16
17965.67
17976.74
18101.81
18287.2
18491.26
18684.9
18848.37
18968.63
19038.84
19059.4
19038.2
18988.76
18926.29
18863.42
18807.64
18761.64
18725.59
18699.02
18680.64
18666.76
18650.97
18626.71
18591.32
18547.66
18502.08
18461.48
18432.72
18422.76
18435.67
18469.14
18518.03
18586.58
18673.09
18824.53
25626.38
24092.68
23256.39
22548.5
22138.29
21998.58
21862.02
21568.56
21157.26
20733.31
20364.79
20083.68
19917.48
19892.89
20018.55
20272.23
20599.33
20917.68
21128.83
21140.94
20900.38
20417.38
19769.09
19075.03
18455.9
17995.31
17721.16
17610.82
17612.44
17669.36
17737.19
17789.89
17817.43
17820.08
17803.39
17775.53
17745.97
17724.25
17717.93
17730.59
17761
17804.38
17854.76
17906.97
17956.99
18000.92
18034.36
18053.37
18056.55
18046.32
18028.23
18009.5
17998.34
18003.34
18031.12
18083.15
18154.6
18243.93
18333.57
18499.51
26698.55
25172.14
24101.05
23415.79
22890.72
22479.49
22150.58
21794.83
21316.64
20735.26
20171.01
19745.97
19504.68
19416.54
19434.19
19541.04
19748.66
20056.21
20414.07
20723.91
20876.68
20802.74
20503.59
20048.33
19539.98
19071.79
18695.63
18414.32
18195.92
17998.05
17789.13
17558.49
17314.84
17077.66
16867.68
16700.37
16583.37
16516.82
16495.02
16508.38
16545.49
16595.25
16648.6
16699.7
16746.17
16788.34
16827.71
16865.33
16901.13
16934.87
16968.02
17004.54
17049.89
17109.33
17187.14
17285.62
17399.83
17521.24
17613.61
17768.53
26835.42
25314.14
24171.51
23691.69
23310.38
22829.21
22372.73
21938.63
21388.77
20692.9
19998.65
19478.89
19180.85
19030.04
18942.27
18912.14
19007.4
19295.28
19771.2
20340.26
20855.57
21183.07
21254.15
21082.29
20741.73
20325.19
19903.94
19507.72
19128.74
18741.87
18327.47
17885.62
17437.21
17015.05
16651.35
16367.76
16170.94
16053.58
15999.09
15987.23
15998.93
16019.03
16037.36
16048.88
16053.79
16057.02
16066.03
16086.84
16120.84
16165.3
16217.44
16277.71
16348.92
16433.41
16532.39
16646.34
16769.25
16888.21
16960.63
17065.74
26466.74
24591.33
23193.91
22630.16
22456.52
22305.69
22064.28
21647.37
20974.7
20115.38
19293.8
18714.88
18415.35
18285.06
18202.91
18145.07
18187.06
18424.77
18888.52
19507.71
20137.3
20621
20853.37
20812.02
20550.47
20162.04
19736.04
19326.9
18946.78
18579.24
18202.28
17807.52
17407.41
17030.17
16707.79
16463.9
16306.77
16228.89
16211.87
16233.37
16272.88
16314.7
16348.39
16368.48
16374.86
16373.05
16372.29
16380.87
16401.52
16431.03
16464.9
16502.29
16546.41
16600.98
16667.63
16745.28
16826.84
16899.73
16935.12
16978.29
25195.01
22954.27
21496.26
20835.88
20907.47
21294.26
21505.32
21251.24
20521.22
19528.94
18577.62
17897.5
17549.7
17451.69
17483.23
17581.75
17765.91
18090.26
18577.22
19175.12
19764.66
20204.75
20390.04
20290.48
19956.39
19490.61
19004.56
18579.33
18247.07
17996.35
17793.33
17605.69
17418.37
17236.46
17077.85
16961.77
16899.42
16890.36
16924.53
16987.37
17064.41
17143.51
17215.03
17271.71
17309.76
17330.29
17338.85
17342.02
17342.93
17339.84
17329.4
17312
17293.93
17284.09
17288.06
17304.56
17325.46
17343.59
17350.56
17371.31
12828.89
14756.13
15426.35
15890.28
16828.12
18064.97
19011.34
19286.01
18915.93
18170.43
17349.42
16678.41
16282.75
16191.18
16360.65
16720.86
17215.81
17814.64
18489.2
19182.55
19798.16
20221.52
20362.93
20196.65
19774.9
19209.87
18633.73
18155.45
17832.35
17665.13
17613.63
17622.54
17644.77
17654.32
17646.84
17631.88
17622.82
17629.75
17656.9
17703.72
17766.67
17840.25
17917.11
17988.46
18045.87
18083.71
18100.48
18097.89
18078.1
18041.46
17987.43
17918.61
17844.2
17777.62
17728.32
17695.74
17672.13
17659.71
17661.34
17712.78
11728.95
13134.51
13955.78
14501.18
15397.65
16628.41
17691.16
18204.29
18152.15
17718.17
17089.75
16425.23
15885.1
15611.03
15668.65
16028.1
16602.46
17300.76
18050.81
18786.88
19429.61
19885.79
20073.75
19958.41
19573.57
19017.26
18421.89
17912.66
17572.05
17423.15
17435.32
17545.98
17687.39
17807.73
17880.63
17903.48
17889.13
17856.49
17823.6
17804.07
17805.84
17830.88
17875.6
17931.83
17988.85
18036
18065.25
18072.73
18058.38
18023.8
17970.77
17902.64
17827.28
17756.51
17699.17
17656.26
17624.52
17616.63
17634.19
17737.58
11500.48
12351.89
13224.58
13849.36
14509.24
15348.87
16194.12
16824.85
17156.42
17190.27
16942.42
16472.5
15928.55
15507.16
15354.9
15506.24
15902.18
16453.29
17086.7
17750.28
18390.04
18933.29
19296.77
19415.85
19275.52
18923.85
18460.12
18002.86
17652.15
17461.67
17429.99
17511.73
17640.75
17754.74
17812.2
17798.14
17720.07
17599.19
17461.03
17328.5
17218.17
17139.14
17093.62
17078.3
17085.73
17106.08
17129.51
17149.05
17162.34
17170.62
17175.69
17177.99
17177.59
17175.77
17174.27
17175.53
17183.98
17219.04
17270.77
17420.88
11541.68
12054.69
13049.34
13918.09
14393.9
14678.45
15069.8
15663.61
16329.76
16843.92
17029.47
16848.16
16414.94
15932.36
15585.1
15464.89
15567.11
15841.12
16242.63
16750.37
17346.05
17985.03
18586.06
19050.11
19297.17
19299.5
19093.84
18767.12
18423.48
18148.2
17983.35
17922.74
17924.65
17933.79
17902.33
17802.85
17631.07
17400.81
17135.22
16858.73
16591.9
16349.76
16142.4
15975.87
15852.45
15770.56
15725.6
15712.57
15728.92
15774.98
15850.73
15951.08
16064.16
16175.36
16275.01
16365.09
16455.44
16564.63
16664.3
16854.53
11657.21
11960.26
13022.14
14131.04
14563.76
14446.94
14420.28
14883.86
15726.41
16566.7
17082.27
17160.03
16878.31
16417.93
15965.83
15645.55
15497.82
15510.93
15669.58
15982
16467.36
17118.96
17875.4
18623.26
19231.71
19600.08
19693.52
19550.65
19262.32
18933.92
18648.75
18446.37
18320.85
18235.1
18141.93
18002.59
17796.73
17523.24
17194.59
16829.47
16447.27
16066.01
15702.43
15372.28
15089.35
14863.65
14700.36
14601.06
14566.5
14598.07
14695.12
14848.72
15037.95
15235.7
15422.64
15598.11
15770.98
15951.81
16095.68
16318.28
11815.18
12069.39
13084.67
14224.45
14706.67
14549.44
14388.63
14716.18
15501.31
16382.55
17018.75
17262.97
17147.41
16802.93
16384.62
16015.09
15755.1
15614.07
15590.11
15704.56
16001.12
16510.64
17209.85
18005.75
18758.1
19328.3
19628.91
19650.34
19455.39
19148.02
18832.73
18581.56
18419.41
18328.74
18267.33
18189.15
18059.93
17863.42
17599.41
17277.8
16913
16521.22
16120.03
15728.23
15364.69
15046.07
14784.98
14589.96
14467.3
14422.48
14457.95
14566.93
14729.14
14916.55
15108.11
15300.12
15495.13
15693.87
15847.6
16074.52
12014.44
12379.11
13254.08
14197.36
14766.41
14904.23
14924.52
15164
15698.11
16355.7
16906.8
17206.03
17225.6
17028.15
16723.27
16419
16181.68
16027.03
15947.74
15951.66
16076.68
16369.2
16843.41
17452.07
18089.97
18629.35
18967.92
19065.31
18952.39
18712.66
18446.93
18237.65
18126.33
18109.9
18153.15
18208.62
18234.63
18205.24
18111.1
17954.71
17744.6
17491.54
17207.25
16904.35
16596.13
16295.74
16015.34
15765.94
15558.14
15402.44
15307.17
15273.83
15293.85
15352.01
15435.25
15538.36
15656.46
15784.71
15887.65
16060.94
12266.23
12870.73
13591.93
14276.18
14943.52
15489.58
15823.16
16022.81
16247.83
16568.86
16919.27
17172.13
17239.83
17123.4
16900.67
16675.82
16524.34
16465.63
16476.29
16528.48
16621.24
16781.82
17038.9
17389.61
17784.42
18140.38
18374.77
18440.32
18344.45
18144.75
17924.78
17762.69
17706.09
17762.12
17903.77
18086.4
18265.82
18410.49
18505.01
18546.85
18540.19
18490.62
18402.32
18277.62
18118
17925.71
17705.13
17463.59
17211.33
16960.55
16723.74
16511.93
16333.62
16194.11
16094.29
16029.57
15990.42
15972.71
15966.62
16017.16
12708.33
13749.12
14405.63
14906.17
15611.21
16418.94
16982.25
17161.15
17129.3
17132.07
17255
17412.26
17477.88
17399.17
17221
17041.83
16950.07
16980.06
17106.9
17275.68
17441.4
17592.2
17743.78
17913.61
18095.66
18253.49
18335.44
18301.79
18147.96
17911.39
17659.43
17465
17381.6
17428.36
17589.49
17825.91
18091.96
18349.73
18576.36
18763.64
18912.65
19027.02
19107.69
19150.78
19148.75
19093.57
18980.15
18808.28
18582.3
18309.72
18000.94
17671.23
17341.99
17036.18
16767.67
16534.59
16327.76
16146.9
16011.53
15895.32
13802.94
15271.91
15785.66
16051.54
16604.25
17402.54
18020.54
18174.7
17977.15
17741.62
17674.2
17761.92
17867.45
17871.24
17747.29
17557.52
17399.29
17346.54
17415.86
17570.86
17754.66
17925.11
18069.98
18196.76
18309.54
18392.13
18409.32
18324.89
18124.72
17831.16
17500.88
17207.37
17016.75
16967.65
17062.74
17273.53
17554.43
17859.12
18152.93
18417.83
18649.95
18852.66
19029.01
19176.89
19288.39
19352.71
19359.84
19302.7
19176.96
18980.42
18715.09
18392.38
18035.99
17675.1
17329.84
17002.5
16689.34
16392.22
16156.18
15876.51
23759.45
21947.36
20716.44
19918.91
19678.59
19868
20071.19
19953.87
19522.78
19039.75
18756.51
18732.86
18841.74
18893.43
18762.67
18446.43
18042.33
17680.05
17453.33
17388.14
17454.42
17601.5
17788.64
17993.18
18198.51
18377.6
18487.51
18480.57
18325.77
18027.82
17632.94
17217.87
16866.9
16646.68
16588.76
16685.32
16898
17174.82