/*--------------------------------*- C++ -*----------------------------------*\
| =========                 |                                                 |
| \\      /  F ield         | OpenFOAM: The Open Source CFD Toolbox           |
|  \\    /   O peration     | Version:  2312                                  |
|   \\  /    A nd           | Website:  www.openfoam.com                      |
|    \\/     M anipulation  |                                                 |
\*---------------------------------------------------------------------------*/
FoamFile
{
    version     2.0;
    format      ascii;
    arch        "LSB;label=32;scalar=64";
    class       volScalarField;
    location    "4650";
    object      ILambda_2_0;
}
// * * * * * * * * * * * * * * * * * * * * * * * * * * * * * * * * * * * * * //

dimensions      [1 0 -3 0 0 0 0];

internalField   nonuniform List<scalar> 
12000
(
3254.55
2496.712
1918.039
1495.234
1195.456
988.6965
850.9238
763.7615
713.1111
687.8792
679.3351
681.0152
688.6775
699.8987
713.26
727.4631
740.8987
751.8901
759.2693
762.7441
762.7882
760.1925
755.6255
749.4767
742.0046
733.5902
724.8724
716.6789
709.8177
704.8601
702.0106
701.0919
701.6121
702.8666
704.0917
704.6105
703.9634
701.9878
698.8378
694.9248
690.8095
687.034
683.9632
681.7788
680.534
680.2195
680.7466
681.9325
683.5696
685.4779
687.5444
689.5094
691.0516
691.9794
692.1988
691.5491
689.7639
686.2083
682.0035
667.184
3838.057
3821.705
3613.778
3283.13
2893.944
2494.082
2115.266
1776.318
1486.661
1249.145
1062.101
920.8755
819.1247
749.9346
706.7003
683.6041
675.6483
678.4521
688.1078
701.2331
715.1402
727.9509
738.5463
746.3693
751.1984
753.0083
751.9441
748.3563
742.8146
736.058
728.8867
722.0384
716.0891
711.3942
708.0641
705.9775
704.8257
704.1848
703.6041
702.6989
701.2244
699.1216
696.5064
693.6004
690.6563
687.909
685.5619
683.7698
682.616
682.1083
682.2043
682.8606
683.9847
685.4042
686.9245
688.3566
689.6259
690.2311
691.1783
688.5108
3776.712
3847.214
3901.349
3896.867
3813.223
3649.279
3416.734
3133.956
2821.421
2498.715
2182.731
1886.728
1620.021
1388.132
1193.326
1035.333
912.0913
820.335
756.0162
714.6382
691.5642
682.3216
682.8605
689.7137
700.0432
711.6038
722.6807
732.0407
738.9048
742.9226
744.1269
742.8579
739.6638
735.1964
730.1127
724.9924
720.2759
716.2291
712.9357
710.3187
708.1869
706.299
704.4319
702.4281
700.2134
697.7904
695.2244
692.6272
690.1336
687.8769
685.9665
684.4937
683.5313
683.1107
683.2149
683.7715
684.7307
685.9265
687.2862
689.349
3747.815
3760.131
3794.089
3842.712
3889.019
3913.274
3898.562
3833.817
3714.744
3543.352
3326.679
3075.185
2801.125
2517.091
2234.831
1964.441
1713.92
1489.028
1293.342
1128.439
994.1528
888.898
810.0251
754.1914
717.701
696.7837
687.8035
687.4039
692.6083
700.8916
710.2251
719.0948
726.4861
731.8388
734.9759
736.0171
735.2849
733.2124
730.2601
726.8483
723.3092
719.8628
716.6181
713.5945
710.7533
708.0301
705.3609
702.7003
700.0325
697.3745
694.7702
692.2822
689.9869
687.9672
686.302
685.0501
684.2506
683.9454
683.9174
685.0778
3723.631
3724.934
3729.397
3743.422
3770.492
3808.972
3852.201
3890.036
3910.976
3904.232
3861.342
3777.17
3650.289
3482.85
3280.043
3049.311
2799.465
2539.831
2279.506
2026.766
1788.636
1570.62
1376.579
1208.747
1067.863
953.3774
863.7073
796.4974
748.8753
717.6842
699.6904
691.7615
691.0121
694.9132
701.3616
708.7099
715.762
721.7379
726.2167
729.0649
730.3587
730.3059
729.1779
727.2538
724.7845
721.9726
718.9674
715.8693
712.7404
709.6178
706.5256
703.4852
700.5206
697.6648
694.9594
692.4589
690.2129
688.2777
686.752
685.1759
3701.676
3702.832
3703.174
3703.756
3707.391
3717.551
3736.885
3765.975
3802.682
3842.188
3877.606
3900.94
3904.157
3880.201
3823.797
3731.98
3604.295
3442.729
3251.405
3036.117
2803.792
2561.911
2317.971
2079.005
1851.204
1639.656
1448.193
1279.349
1134.401
1013.486
915.7544
839.5611
782.6706
742.4642
716.1375
700.8777
694.0117
693.1205
696.117
701.2883
707.3053
713.205
718.3514
722.3816
725.1464
726.6502
726.9975
726.3487
724.8854
722.7878
720.2199
717.3235
714.2165
710.9949
707.7362
704.5098
701.3703
698.3375
695.7619
691.9011
3696.436
3694.037
3692.761
3692.057
3691.626
3691.968
3694.511
3701.319
3714.456
3735.247
3763.676
3798.027
3834.846
3869.197
3895.151
3906.418
3897.02
3861.907
3797.442
3701.729
3574.744
3418.297
3235.844
3032.173
2813.017
2584.633
2353.388
2125.379
1906.12
1700.302
1511.637
1342.773
1195.286
1069.738
965.7818
882.2997
817.5753
769.4683
735.5888
713.4582
700.6479
694.8908
694.1624
696.7313
701.1818
706.4113
711.6095
716.2237
719.9169
722.5238
724.0079
724.4228
723.8803
722.5224
720.5061
717.9793
715.1054
711.9083
709.0462
703.8973
3705.547
3691.533
3675.695
3660.507
3647.591
3637.696
3631.083
3627.978
3628.887
3634.66
3646.332
3664.81
3690.489
3722.908
3760.505
3800.541
3839.196
3871.821
3893.318
3898.577
3882.934
3842.578
3774.884
3678.623
3554.063
3402.931
3228.278
3034.242
2825.762
2608.254
2387.287
2168.273
1956.202
1755.424
1569.493
1401.072
1251.904
1122.831
1013.867
924.3089
852.8668
797.813
757.1304
728.6539
710.1968
699.6557
695.0914
694.7854
697.2723
701.3514
706.0815
710.7621
714.9068
718.2088
720.5144
721.7623
722.047
721.2677
720.2654
716.4538
3807.551
3909.082
3961.652
3974.672
3959.118
3924.957
3880.407
3831.835
3783.972
3740.252
3703.164
3674.535
3655.705
3647.573
3650.541
3664.391
3688.153
3719.997
3757.204
3796.229
3832.855
3862.441
3880.222
3881.65
3862.715
3820.249
3752.144
3657.508
3536.715
3391.375
3224.215
3038.898
2839.791
2631.7
2419.606
2208.403
2002.666
1806.455
1623.17
1455.454
1305.148
1173.298
1060.2
965.4813
888.2087
827.0069
780.1861
745.8648
722.0826
706.8985
698.4698
695.113
695.3434
697.8973
701.7431
706.0541
710.2721
713.8398
716.7748
718.738
1024.775
1668.765
2231.506
2703.579
3083.721
3376.433
3590.134
3735.559
3824.462
3868.617
3879.134
3866.044
3838.103
3802.742
3766.089
3733.022
3707.223
3691.205
3686.325
3692.801
3709.735
3735.176
3766.234
3799.247
3829.999
3853.988
3866.709
3863.948
3842.055
3798.178
3730.442
3638.056
3521.357
3381.769
3221.709
3044.432
2853.833
2654.227
2450.119
2245.978
2046.032
1854.091
1673.413
1506.605
1355.576
1221.527
1104.981
1005.838
923.4653
856.7893
804.4071
764.6905
735.8877
716.2157
703.9321
697.4123
695.149
695.9637
698.1296
703.8473
543.287
460.1313
563.0788
809.2512
1149.695
1539.993
1943.516
2332.204
2686.27
2993.358
3247.387
3447.284
3595.721
3697.982
3760.982
3792.459
3800.339
3792.244
3775.13
3755.019
3736.809
3724.153
3719.391
3723.539
3736.338
3756.357
3781.151
3807.464
3831.48
3849.092
3856.183
3848.902
3823.906
3778.574
3711.164
3620.904
3508.033
3373.771
3220.235
3050.306
2867.465
2675.599
2478.799
2281.166
2086.622
1898.753
1720.681
1554.972
1403.579
1267.826
1148.416
1045.481
958.6396
887.0812
829.6464
784.9567
751.3899
727.4351
711.4757
699.51
3476.963
2891.738
2353.489
1910.488
1592.255
1409.018
1355.498
1415.594
1566.761
1783.718
2041.36
2316.828
2590.805
2848.179
3078.199
3274.265
3433.467
3555.972
3644.36
3702.943
3737.13
3752.844
3756.028
3752.22
3746.226
3741.869
3741.831
3747.578
3759.36
3776.284
3796.461
3817.192
3835.206
3846.913
3848.668
3837.026
3808.972
3762.116
3694.836
3606.375
3496.877
3367.369
3219.693
3056.397
2880.59
2695.777
2505.682
2314.074
2124.599
1940.637
1765.182
1600.748
1449.315
1312.298
1190.555
1084.382
993.7607
917.1793
859.0537
788.9229
1121.461
1709.926
2058.052
2199.553
2187.504
2078.822
1926.037
1772.717
1651.271
1582.52
1576.559
1634.469
1750.418
1913.857
2111.577
2329.502
2554.111
2773.48
2977.953
3160.478
3316.662
3444.623
3544.672
3618.905
3670.735
3704.413
3724.569
3735.786
3742.247
3747.444
3753.974
3763.416
3776.293
3792.103
3809.428
3826.088
3839.349
3846.141
3843.305
3827.814
3796.992
3748.689
3681.422
3594.463
3487.886
3362.556
3220.077
3062.705
2893.22
2714.789
2530.807
2344.745
2160.001
1979.757
1806.913
1643.778
1493.053
1352.803
1240.486
1077.371
691.9703
775.0668
983.5604
1244.67
1496.2
1697.343
1828.645
1888.264
1887.025
1843.349
1778.713
1714.052
1667.213
1651.437
1674.717
1739.89
1845.245
1985.472
2152.757
2337.904
2531.359
2724.069
2908.147
3077.315
3227.138
3355.078
3460.388
3543.883
3607.63
3654.588
3688.233
3712.188
3729.897
3744.342
3757.833
3771.867
3787.057
3803.142
3819.051
3833.032
3842.815
3845.804
3839.286
3820.637
3787.507
3737.989
3670.746
3585.102
3481.085
3359.431
3221.547
3069.435
2905.593
2732.875
2554.459
2373.222
2193.808
2012.599
1862.194
1610.663
728.7111
686.6329
673.1691
714.6831
815.8079
964.1295
1138.025
1313.771
1470.785
1594.762
1678.859
1723.39
1734.539
1722.537
1699.695
1678.55
1670.343
1683.925
1725.12
1796.523
1897.661
2025.432
2174.723
2339.113
2511.586
2685.184
2853.551
3011.356
3154.556
3280.527
3388.06
3477.243
3549.261
3606.129
3650.405
3684.883
3712.31
3735.137
3755.318
3774.17
3792.289
3809.541
3825.099
3837.541
3844.978
3845.219
3835.948
3814.898
3780.024
3729.649
3662.583
3578.209
3476.535
3358.175
3224.472
3076.754
2919.295
2745.861
2597.575
2312.839
752.121
739.6937
713.8223
684.4177
666.8518
675.2788
718.2568
797.0502
906.134
1035.129
1171.334
1302.181
1417.222
1509.439
1575.835
1617.372
1638.389
1645.671
1647.358
1651.857
1666.871
1698.642
1751.456
1827.41
1926.427
2046.478
2183.955
2334.134
2491.676
2651.124
2807.33
2955.816
3093.024
3216.462
3324.748
3417.557
3495.488
3559.877
3612.571
3655.681
3691.353
3721.546
3747.858
3771.389
3792.664
3811.603
3827.544
3839.315
3845.336
3843.753
3832.587
3809.886
3773.879
3723.075
3656.528
3573.213
3475.16
3354.238
3247.92
3007.569
757.6675
757.5041
753.1547
740.9228
720.5079
695.9058
674.4204
664.6232
674.1139
707.767
766.8179
848.8018
948.1798
1057.415
1168.246
1272.934
1365.282
1441.338
1499.71
1541.528
1570.088
1590.294
1607.961
1629.111
1659.311
1703.139
1763.807
1842.955
1940.619
2055.353
2184.463
2324.332
2470.783
2619.448
2766.117
2907.024
3039.071
3159.972
3268.309
3363.518
3445.804
3516.006
3575.421
3625.614
3668.222
3704.778
3736.548
3764.419
3788.817
3809.677
3826.451
3838.154
3843.462
3840.777
3828.499
3804.564
3769.008
3714.156
3664.587
3519.737
760.2706
760.3513
760.8801
760.4856
756.8472
747.8201
732.6199
712.5764
691.1826
673.4789
665.0489
670.9352
694.7114
737.8682
799.5905
876.9241
965.2622
1059.043
1152.53
1240.561
1319.154
1385.925
1440.263
1483.289
1517.619
1546.972
1575.707
1608.321
1648.985
1701.15
1767.262
1848.591
1945.187
2055.95
2178.787
2310.843
2448.774
2589.029
2728.122
2862.868
2990.574
3109.166
3217.253
3314.132
3399.733
3474.523
3539.373
3595.406
3643.84
3685.84
3722.383
3754.156
3781.488
3804.287
3822.153
3833.994
3839.637
3834.255
3828.882
3778.374
761.2226
761.2354
761.4296
762.0621
762.9121
763.0738
761.0804
755.3705
744.9225
729.7867
711.3452
692.255
676.1097
666.8996
668.3856
683.5063
713.922
759.7636
819.6149
890.7161
969.3433
1051.297
1132.429
1209.124
1278.703
1339.672
1391.833
1436.24
1475.013
1511.067
1547.768
1588.573
1636.684
1694.756
1764.677
1847.428
1943.042
2050.642
2168.555
2294.479
2425.688
2559.254
2692.26
2821.993
2946.1
3062.704
3170.465
3268.596
3356.828
3435.344
3504.676
3565.588
3618.953
3665.613
3706.335
3741.488
3771.72
3795.772
3815.9
3828.213
759.2758
759.8828
760.3302
760.773
761.4269
762.4372
763.6717
764.5669
764.157
761.2914
754.9593
744.6271
730.5125
713.7265
696.2504
680.7463
670.2339
667.6906
675.6428
695.8158
728.8949
774.4302
830.8931
895.8704
966.3623
1039.142
1111.124
1179.702
1243.018
1300.122
1351.044
1396.74
1438.959
1480.03
1522.607
1569.399
1622.908
1685.209
1757.773
1841.362
1935.985
2040.925
2154.817
2275.774
2401.549
2529.697
2657.754
2783.39
2904.537
3019.492
3126.972
3226.134
3316.564
3398.214
3471.353
3536.435
3593.985
3645.235
3686.329
3742.112
756.364
757.0286
757.6663
758.2723
758.8641
759.5322
760.4298
761.6701
763.1912
764.6632
765.4747
764.8073
761.7877
755.6915
746.1575
733.3668
718.1468
701.9731
686.8627
675.1713
669.3251
671.528
683.4893
706.2098
739.8577
783.7472
836.4215
895.8243
959.5368
1025.047
1090.022
1152.544
1211.298
1265.684
1315.853
1362.661
1407.559
1452.431
1499.399
1550.615
1608.061
1673.373
1747.713
1831.674
1925.247
2027.836
2138.315
2255.124
2376.389
2500.054
2624.021
2746.274
2864.983
2978.6
3085.87
3186.038
3278.008
3364.116
3432.669
3537.643
755.6498
755.6356
755.7484
755.9988
756.3547
756.7771
757.2688
757.8986
758.7756
759.9877
761.5291
763.2358
764.748
765.5182
764.8687
762.1004
756.6335
748.1598
736.7745
723.0614
708.1115
693.4653
680.9841
672.6666
670.4352
675.9231
690.2901
714.0927
747.2235
788.9264
837.8856
892.3723
950.4341
1010.101
1069.586
1127.462
1182.789
1235.193
1284.887
1332.623
1379.613
1427.391
1477.668
1532.169
1592.478
1659.899
1735.355
1819.314
1911.756
2012.184
2119.665
2232.9
2350.317
2470.191
2590.667
2710.231
2826.212
2941.691
3035.879
3193.838
758.2564
757.4137
756.7252
756.2613
756.0505
756.0804
756.3095
756.6988
757.2379
757.9536
758.9007
760.1353
761.6747
763.4528
765.2799
766.8215
767.6058
767.0678
764.6273
759.7927
752.275
742.0902
729.6328
715.7036
701.4824
688.4481
678.2518
672.561
672.8938
680.4642
696.0585
719.9575
751.9135
791.1829
836.611
886.7567
940.043
994.9165
1049.999
1104.216
1156.892
1207.801
1257.177
1305.675
1354.301
1404.312
1457.093
1514.034
1576.407
1645.261
1721.335
1805.001
1896.235
1994.639
2099.368
2209.646
2322.826
2443.161
2544.374
2731.517
763.9184
762.2133
760.1187
757.7128
755.1644
752.6803
750.4537
748.6343
747.3205
746.5667
746.3973
746.8188
747.828
749.4107
751.5306
754.108
756.9927
759.9399
762.5982
764.5168
765.1795
764.0632
760.716
754.8447
746.3958
735.6185
723.0955
709.7343
696.7175
685.4164
677.2763
673.6876
675.859
684.7054
700.766
724.1601
754.5851
791.3569
833.4863
879.7837
928.9787
979.845
1031.315
1082.576
1133.138
1182.871
1232.008
1281.109
1331.008
1382.732
1437.403
1496.146
1559.983
1629.776
1706.05
1789.412
1878.507
1978.752
2064.855
2240.45
770.7042
776.9351
785.5226
794.1723
801.1733
805.5796
807.0886
805.858
802.3361
797.12
790.8495
784.1347
777.5117
771.4196
766.1935
762.0662
759.1715
757.5446
757.1184
757.7168
759.0494
760.7151
762.2191
763.0072
762.5177
760.2475
755.8236
749.0721
740.073
729.1924
717.0848
704.664
693.0433
683.451
677.1304
675.2352
678.7316
688.3179
704.3702
726.9189
755.6584
789.988
829.0791
871.9612
917.618
965.0836
1013.531
1062.344
1111.167
1159.931
1208.851
1258.403
1309.27
1362.302
1418.343
1478.575
1542.654
1616.211
1679.016
1817.028
696.0956
589.7298
530.0114
508.0944
513.6766
537.3792
571.4056
609.6654
647.693
682.4694
712.1937
736.0369
753.9027
766.2097
773.7035
777.3031
777.9833
776.6876
774.2679
771.4424
768.768
766.6221
765.1927
764.4786
764.3012
764.33
764.1235
763.1838
761.0211
757.2237
751.5238
743.8535
734.3823
723.5311
711.9604
700.5326
690.2518
682.1881
677.393
676.8157
681.2287
691.1695
706.9055
728.4225
755.4402
787.45
823.7723
863.6262
906.2057
950.7552
996.6361
1043.383
1090.734
1138.672
1187.331
1237.347
1288.29
1344.854
1391.511
1494.435
3394.246
2776.026
2238.163
1787.52
1423.613
1141.133
931.6089
784.7594
689.585
635.226
611.585
609.7351
622.1401
642.7259
666.8389
691.1239
713.3532
732.2324
747.2012
758.2462
765.7304
770.2462
772.4914
773.1669
772.8982
772.1766
771.3229
770.4731
769.5839
768.4602
766.7981
764.2422
760.449
755.1508
748.213
739.6773
729.7879
718.9947
707.9364
697.4016
688.2752
681.4732
677.8747
678.2559
683.2345
693.2284
708.4322
728.8148
754.1351
783.976
817.7914
854.9637
894.8582
936.9022
980.5525
1025.669
1071.22
1120.534
1160.548
1244.237
3779.3
3743.721
3572.64
3300.751
2966.584
2604.512
2242.395
1901.111
1594.897
1332.098
1116.146
946.6236
820.3228
732.2002
676.2081
645.9692
635.2914
638.5285
650.8055
668.1293
687.4089
706.4095
723.6608
738.3368
750.1225
759.0774
765.5058
769.8389
772.5359
774.0063
774.5563
774.3609
773.4594
771.7735
769.1421
765.3688
760.2742
753.7479
745.7929
736.557
726.3493
715.6374
705.0293
695.2378
687.0351
681.2002
678.465
679.4643
684.6952
694.4876
708.9905
728.1734
751.8384
779.6662
811.1841
846.0848
883.1868
924.8056
959.4943
1031.603
3736.967
3783.027
3818.189
3811.527
3744.209
3610.234
3413.833
3166.191
2882.409
2578.958
2271.708
1974.569
1698.687
1452.098
1239.73
1063.678
923.6365
817.4216
741.5174
691.5908
662.9465
650.9015
651.071
659.5664
673.1141
689.1033
705.5772
721.1807
735.0771
746.8466
756.3782
763.7637
769.2032
772.9268
775.1375
775.9763
775.5098
773.7373
770.6131
766.0803
760.1079
752.7282
744.0667
734.3633
723.9797
713.394
703.1816
693.9858
686.4808
681.3302
679.146
680.4524
685.6534
695.0262
708.6616
726.6648
748.3842
775.6288
799.6249
854.4905
3716.423
3724.468
3748.253
3783.395
3817.923
3836.733
3825.509
3773.354
3674.16
3526.952
3335.414
3106.912
2851.3
2579.691
2303.333
2032.684
1776.727
1542.539
1335.103
1157.312
1010.138
892.9068
803.6405
739.419
696.7369
671.8252
660.9251
660.5021
667.3997
678.9333
692.9302
707.725
722.119
735.3155
746.8408
756.4619
764.1067
769.7969
773.5947
775.5674
775.7697
774.2413
771.0173
766.1475
759.7187
751.8773
742.8466
732.9377
722.5504
712.1653
702.326
693.6151
686.6232
681.9256
680.0189
681.4195
686.1568
695.7138
705.1054
734.6518
3706.244
3705.045
3706.439
3715.153
3734.023
3762.258
3795.208
3825.143
3842.626
3838.109
3803.366
3732.54
3622.748
3474.251
3290.25
3076.4
2840.139
2589.941
2334.583
2082.477
1841.146
1616.833
1414.272
1236.606
1085.434
960.946
862.1453
787.0988
733.2101
697.4819
676.756
667.9142
668.0371
674.5155
685.116
698.0074
711.7529
725.2761
737.8121
748.8484
758.0663
765.2865
770.425
773.4595
774.4092
773.3257
770.2928
765.4332
758.9176
750.9748
741.8983
732.048
721.8459
711.7702
702.3207
694.0694
687.3785
683.3065
680.3612
685.0961
3692.048
3692.512
3691.858
3691.044
3692.319
3698.466
3711.774
3733.084
3761.121
3792.346
3821.288
3841.211
3844.953
3825.791
3778.217
3698.521
3585.142
3438.773
3262.234
3060.167
2838.589
2604.381
2364.764
2126.796
1896.958
1680.817
1482.805
1306.106
1152.638
1023.123
917.2224
833.7145
770.7023
725.8235
696.4517
679.8761
673.4506
674.7087
681.4419
691.7454
704.0335
717.0317
729.7519
741.457
751.6205
759.887
766.0367
769.9567
771.6194
771.0683
768.4102
763.8112
757.4961
749.7478
740.8995
731.3546
721.4959
711.8565
703.192
692.4943
3678.055
3678.825
3679.309
3679.129
3678.241
3677.232
3677.416
3680.651
3688.869
3703.471
3724.797
3751.771
3781.789
3810.837
3833.836
3845.129
3839.057
3810.528
3755.521
3671.465
3557.473
3414.402
3244.769
3052.524
2842.737
2621.214
2394.096
2167.475
1947.048
1737.837
1543.982
1368.618
1213.836
1080.696
969.3241
879.0276
808.456
755.7658
718.7877
695.1818
682.5736
678.6644
681.316
688.6074
698.868
710.6888
722.9183
734.6457
745.1781
754.0135
760.8145
765.3836
767.6429
767.614
765.4115
761.207
755.3144
747.7434
740.3944
726.0524
3664.317
3664.889
3665.47
3665.946
3666.086
3665.646
3664.538
3663.055
3662.003
3662.647
3666.51
3675.051
3689.307
3709.553
3735.05
3763.919
3793.171
3818.878
3836.477
3841.154
3828.266
3793.761
3734.532
3648.687
3535.715
3396.524
3233.374
3049.709
2849.906
2638.988
2422.302
2205.208
1992.795
1789.636
1599.611
1425.778
1270.312
1134.512
1018.837
923.0018
846.0899
786.6835
743.0018
713.033
694.6563
685.7459
684.2568
688.2886
696.1308
706.289
717.4965
728.7136
739.1184
748.0887
755.1964
760.133
762.8987
763.0021
762.3219
754.6143
3653.032
3653.236
3653.938
3655.154
3656.737
3658.428
3659.866
3660.673
3660.601
3659.681
3658.318
3657.312
3657.795
3661.071
3668.396
3680.721
3698.442
3721.189
3747.703
3775.805
3802.475
3824.037
3836.415
3835.451
3817.234
3778.422
3716.51
3630.038
3518.709
3383.418
3226.197
3050.079
2858.904
2657.083
2449.342
2240.459
2035.031
1837.26
1650.79
1478.59
1322.88
1185.12
1066.024
965.6246
883.352
818.1405
768.5386
732.8218
709.1007
695.4181
689.8332
690.4902
695.6709
703.832
713.6329
723.9196
733.8468
742.4631
749.7429
755.4649
3642.719
3635.114
3625.333
3615.618
3607.624
3602.284
3599.893
3600.23
3602.718
3606.596
3611.094
3615.6
3619.785
3623.685
3627.724
3632.661
3639.476
3649.2
3662.709
3680.518
3702.593
3728.213
3755.903
3783.446
3807.978
3826.156
3834.382
3829.064
3806.884
3765.049
3701.509
3615.116
3505.718
3374.18
3222.339
3052.896
2869.259
2675.348
2475.385
2273.675
2074.407
1881.468
1698.295
1527.76
1372.105
1232.902
1111.059
1006.859
920.0155
849.7544
794.9044
753.9926
725.3381
707.1472
697.5804
694.864
697.2094
703.4062
710.4259
724.6723
3711.416
3807.26
3859.494
3876.399
3867.655
3842.136
3807.271
3768.886
3731.226
3697.098
3668.079
3644.768
3627.055
3614.39
3606.029
3601.246
3599.488
3600.473
3604.213
3610.972
3621.162
3635.203
3653.353
3675.547
3701.255
3729.389
3758.263
3785.626
3808.745
3824.558
3829.86
3821.516
3796.676
3752.982
3688.736
3603.03
3495.817
3367.934
3221.055
3057.613
2880.662
2693.725
2500.61
2305.233
2111.442
1922.855
1742.723
1573.832
1418.419
1278.14
1154.052
1046.639
955.8456
881.1469
821.5991
775.9926
742.688
720.5242
706.3774
701.3725
1210.75
1787.892
2292.782
2717.001
3059.422
3324.064
3518.468
3652.296
3736.159
3780.68
3795.799
3790.307
3771.594
3745.56
3716.661
3688.057
3661.825
3639.205
3620.851
3607.056
3597.937
3593.566
3594.032
3599.446
3609.895
3625.353
3645.581
3670.018
3697.699
3727.199
3756.629
3783.671
3805.672
3819.765
3823.034
3812.685
3786.224
3741.618
3677.435
3592.942
3488.167
3363.91
3221.711
3063.776
2892.871
2712.187
2525.193
2335.48
2146.607
1961.96
1784.633
1617.323
1462.258
1321.15
1195.177
1084.968
990.7862
911.4888
851.2875
781.1521
789.2793
722.1613
823.2556
1052.447
1364.688
1719.582
2084.179
2433.543
2750.378
3024.171
3250.082
3427.723
3559.955
3651.788
3709.435
3739.539
3748.59
3742.525
3726.488
3704.736
3680.645
3656.798
3635.112
3616.976
3603.385
3595.04
3592.411
3595.763
3605.142
3620.345
3640.86
3665.822
3693.977
3723.668
3752.857
3779.181
3800.036
3812.701
3814.468
3802.795
3775.444
3730.623
3667.087
3584.226
3482.11
3361.494
3223.794
3071.022
2905.699
2730.739
2549.324
2364.766
2180.383
1999.353
1824.66
1658.759
1504.621
1360.358
1244.63
1075.407
3280.07
2674.253
2150.744
1744.705
1473.402
1337.776
1326.36
1419.543
1593.394
1822.809
2083.912
2355.696
2620.969
2866.739
3084.177
3268.247
3417.144
3531.63
3614.341
3669.14
3700.553
3713.312
3712.01
3700.878
3683.649
3663.511
3643.108
3624.575
3609.59
3599.416
3594.939
3596.681
3604.803
3619.09
3638.941
3663.357
3690.939
3719.913
3748.171
3773.343
3792.886
3804.196
3804.729
3792.13
3764.354
3719.777
3657.289
3576.355
3477.058
3360.101
3226.78
3078.936
2918.879
2749.265
2573.103
2393.132
2213.955
2031.774
1880.123
1623.567
3623.891
3588.647
3414.321
3136.509
2801.426
2454.474
2134.44
1870.612
1681.796
1576.668
1555.097
1610.011
1729.463
1898.645
2101.679
2323.097
2548.94
2767.494
2969.665
3149.077
3301.926
3426.682
3523.695
3594.754
3642.662
3670.847
3683.029
3682.967
3674.262
3660.23
3643.82
3627.568
3613.579
3603.517
3598.599
3599.595
3606.823
3620.149
3638.99
3662.326
3688.727
3716.397
3743.231
3766.9
3784.94
3794.861
3794.26
3780.93
3752.976
3708.898
3647.677
3568.825
3472.423
3359.087
3230.107
3086.706
2933.004
2762.714
2616.509
2333.586
3562.938
3611.509
3648.081
3639.884
3566.815
3423.809
3218.75
2968.792
2696.331
2425.206
2177.559
1971.612
1820.356
1731.053
1705.417
1740.296
1828.676
1960.845
2125.567
2311.165
2506.427
2701.303
2887.379
3058.124
3208.963
3337.188
3441.767
3523.081
3582.627
3622.726
3646.24
3656.33
3656.253
3649.191
3638.126
3625.742
3614.357
3605.865
3601.707
3602.842
3609.736
3622.362
3640.208
3662.303
3687.259
3713.322
3738.45
3760.389
3776.778
3785.245
3783.517
3769.519
3741.477
3697.969
3638.15
3561.081
3468.853
3353.493
3251.604
3018.474
3529.488
3533.506
3551.281
3579.885
3607.695
3619.042
3598.865
3536.164
3426.027
3270.211
3076.503
2857.29
2627.725
2403.833
2200.77
2031.423
1905.448
1828.752
1803.41
1827.94
1897.841
2006.311
2145.026
2304.925
2476.916
2652.464
2824.042
2985.428
3131.868
3260.104
3368.313
3455.964
3523.632
3572.779
3605.538
3624.496
3632.5
3632.478
3627.292
3619.611
3611.81
3605.885
3603.398
3605.432
3612.569
3624.883
3641.953
3662.891
3686.388
3710.779
3734.113
3754.245
3768.931
3775.905
3773.108
3758.198
3731.092
3684.1
3641.271
3506.165
3582.215
3670.334
3722.174
3749.932
3764.935
3773.807
3777.615
3772.649
3752.18
3708.629
3635.566
3529.214
3389.315
3219.37
3026.304
2819.703
2610.773
2411.21
2232.098
2082.982
1971.168
1901.309
1875.26
1892.19
1948.892
2040.245
2159.757
2300.131
2453.81
2613.464
2772.383
2924.773
3065.95
3192.436
3301.965
3393.429
3466.758
3522.776
3563.025
3589.589
3604.909
3611.618
3612.38
3609.753
3606.068
3603.331
3603.149
3606.671
3614.559
3626.972
3643.58
3663.589
3685.794
3708.621
3730.289
3748.547
3762.138
3765.745
3768.561
3731.331
1301.727
1820.145
2270.475
2647.925
2955.127
3199.278
3389.652
3535.38
3643.798
3719.619
3764.9
3779.596
3762.475
3712.166
3628.141
3511.47
3365.278
3194.841
3007.376
2811.564
2616.894
2432.938
2268.631
2131.635
2027.858
1961.143
1933.136
1943.35
1989.356
2067.108
2171.339
2295.982
2434.607
2580.818
2728.592
2872.562
3008.214
3132.011
3241.452
3335.058
3412.315
3473.568
3519.89
3552.933
3574.768
3587.725
3594.236
3596.696
3597.335
3598.11
3600.616
3606.027
3615.056
3627.923
3644.402
3663.728
3684.987
3706.318
3726.202
3747.757
997.7789
1019.588
1156.398
1378.69
1653.962
1953.806
2256.032
2544.865
2810.117
3045.872
3249.084
3418.33
3552.857
3652.026
3715.114
3741.426
3730.61
3683.067
3600.34
3485.402
3342.778
3178.488
2999.805
2814.869
2632.195
2460.148
2306.42
2177.579
2078.709
2013.177
1982.537
1986.557
2023.362
2089.673
2181.102
2292.495
2418.279
2552.792
2690.59
2826.694
2956.795
3077.386
3185.848
3280.467
3360.413
3425.669
3476.933
3515.492
3543.08
3561.736
3573.652
3581.036
3585.984
3590.36
3595.726
3603.259
3613.55
3627.746
3641.418
3672.899
1056.655
1009.849
971.8855
969.0837
1017.421
1121.968
1279.258
1480.309
1713.318
1965.745
2225.727
2482.864
2728.498
2955.651
3158.778
3333.469
3476.202
3584.202
3655.426
3688.66
3683.675
3641.414
3564.129
3455.452
3320.353
3164.987
2996.43
2822.327
2650.49
2488.474
2343.168
2220.447
2124.89
2059.598
2026.115
2024.437
2053.13
2109.503
2189.852
2289.734
2404.254
2528.355
2657.08
2785.805
2910.435
3027.54
3134.453
3229.312
3311.059
3379.398
3434.72
3477.998
3510.667
3534.487
3551.413
3563.471
3572.467
3580.881
3587.04
3604.667
1092.295
1079.183
1052.235
1015.21
978.2922
954.2963
955.2957
990.4531
1064.989
1180.035
1333.116
1518.984
1730.539
1959.685
2198.027
2437.377
2670.075
2889.157
3088.438
3262.547
3406.965
3518.086
3593.312
3631.165
3631.402
3595.102
3524.703
3423.97
3297.879
3152.419
2994.327
2830.761
2668.951
2515.834
2377.725
2260.02
2166.97
2101.525
2065.262
2058.395
2079.854
2127.433
2197.983
2287.64
2392.075
2506.738
2627.101
2748.866
2868.149
2981.625
3086.624
3181.192
3264.106
3334.847
3393.548
3440.923
3478.04
3506.871
3526.863
3550.719
1113.952
1109.877
1103.249
1090.068
1067.911
1037.444
1002.599
969.8674
947.143
942.4157
962.6318
1012.889
1096
1212.384
1360.233
1535.846
1734.06
1948.696
2172.975
2399.871
2622.397
2833.841
3027.956
3199.129
3342.536
3454.295
3531.612
3572.898
3577.871
3547.594
3484.471
3392.169
3275.468
3140.056
2992.269
2838.789
2686.333
2541.335
2409.656
2296.336
2205.391
2139.681
2100.841
2089.282
2104.249
2143.946
2205.692
2286.116
2381.372
2487.358
2599.924
2715.079
2829.148
2938.93
3041.763
3135.717
3219.119
3292.726
3349.529
3423.814
1136.142
1130.992
1126.667
1122.373
1116.159
1105.615
1088.761
1064.854
1034.915
1001.857
970.2003
945.5346
933.8476
940.8466
971.3619
1028.9
1115.369
1230.983
1374.309
1542.426
1731.158
1935.343
2149.11
2366.158
2580.013
2784.279
2972.865
3140.211
3281.489
3392.794
3471.3
3515.39
3524.738
3500.333
3444.449
3360.549
3253.135
3127.54
2989.68
2845.784
2702.105
2564.641
2438.88
2329.57
2240.548
2174.613
2133.464
2117.687
2126.806
2159.377
2213.126
2285.113
2371.915
2469.841
2575.042
2684.008
2792.45
2900.881
2990.565
3133.034
1161.175
1154.949
1149.048
1143.867
1139.449
1135.254
1130.111
1122.385
1110.377
1092.825
1069.353
1040.758
1009.115
977.6875
950.6568
932.7425
928.7593
943.1769
979.7316
1041.123
1128.813
1242.926
1382.249
1544.306
1725.494
1921.266
2126.34
2334.93
2540.986
2738.441
2921.453
3084.642
3223.311
3333.642
3412.861
3459.36
3472.769
3453.976
3405.084
3329.314
3230.856
3114.673
2986.272
2851.449
2716.037
2585.646
2465.433
2359.903
2272.741
2206.699
2163.534
2143.991
2147.833
2173.945
2220.339
2284.747
2362.909
2456.718
2540.161
2706.565
1186.633
1180.334
1173.56
1166.537
1159.623
1153.185
1147.441
1142.258
1137.033
1130.727
1122.041
1109.684
1092.679
1070.654
1044.066
1014.316
983.7441
955.5054
933.3466
921.3158
923.4419
943.4161
984.3068
1048.327
1136.665
1249.39
1385.419
1542.55
1717.55
1906.289
2103.914
2305.048
2504.018
2695.089
2872.704
3031.723
3167.641
3276.783
3356.463
3405.101
3422.288
3408.801
3366.561
3298.535
3208.598
3101.349
2981.901
2855.65
2728.036
2604.321
2489.368
2387.46
2302.146
2236.151
2191.221
2168.504
2166.858
2190.063
2217.792
2321.464
1209.005
1209.099
1210.486
1211.643
1211.477
1209.459
1205.566
1200.121
1193.568
1186.256
1178.278
1169.392
1159.031
1146.405
1130.669
1111.138
1087.503
1060.014
1029.604
997.9408
967.3854
940.8779
921.7571
913.5364
919.6582
943.2484
986.8903
1052.433
1140.843
1252.11
1385.201
1538.073
1707.734
1890.349
2081.393
2275.83
2468.32
2653.449
2825.956
2980.959
3114.17
3222.077
3302.098
3352.691
3373.41
3364.924
3328.969
3268.263
3186.377
3087.561
2976.558
2858.388
2738.133
2620.736
2510.767
2412.415
2328.677
2263.719
2215.162
2190.791
1172.056
1096.832
1052.872
1034.218
1033.933
1045.684
1064.223
1085.509
1106.663
1125.817
1141.904
1154.41
1163.147
1168.047
1169.024
1165.897
1158.399
1146.237
1129.208
1107.341
1081.024
1051.116
1019.015
986.666
956.5138
931.4048
914.44
908.7983
917.5413
943.4164
988.6703
1054.887
1142.856
1252.485
1382.751
1531.708
1696.527
1873.598
2058.657
2246.959
2433.468
2613.069
2780.788
2932.001
3062.639
3169.358
3249.684
3302.111
3326.163
3322.399
3292.38
3238.584
3164.293
3073.425
2970.395
2859.774
2746.806
2633.578
2537.566
2396.525
3009.057
2590.02
2224.367
1916.901
1667.482
1472.671
1326.845
1223.124
1154.142
1112.648
1091.941
1086.134
1090.277
1100.363
1113.246
1126.511
1138.319
1147.269
1152.282
1152.533
1147.429
1136.627
1120.078
1098.092
1071.397
1041.177
1009.092
977.2479