/*--------------------------------*- C++ -*----------------------------------*\
| =========                 |                                                 |
| \\      /  F ield         | OpenFOAM: The Open Source CFD Toolbox           |
|  \\    /   O peration     | Version:  2312                                  |
|   \\  /    A nd           | Website:  www.openfoam.com                      |
|    \\/     M anipulation  |                                                 |
\*---------------------------------------------------------------------------*/
FoamFile
{
    version     2.0;
    format      ascii;
    arch        "LSB;label=32;scalar=64";
    class       volScalarField;
    location    "4650";
    object      k;
}
// * * * * * * * * * * * * * * * * * * * * * * * * * * * * * * * * * * * * * //

dimensions      [0 2 -2 0 0 0 0];

internalField   nonuniform List<scalar> 
12000
(
0.001907185
0.004258205
0.005115086
0.006009228
0.00673226
0.007420545
0.008058447
0.0086313
0.009109754
0.009548349
0.009973376
0.0103948
0.01074317
0.01103494
0.01131182
0.01159049
0.01185366
0.01205249
0.01222722
0.01239687
0.01256558
0.01269508
0.0127899
0.01287951
0.01295848
0.01301484
0.01304693
0.01307226
0.01307801
0.01307218
0.01304592
0.01302156
0.01297676
0.012926
0.0128434
0.01267248
0.01245438
0.01229036
0.01223971
0.0120967
0.01178303
0.011281
0.01084945
0.01076675
0.01072857
0.01028109
0.009475401
0.009033933
0.008905831
0.008770708
0.007975195
0.007174582
0.006957599
0.006494068
0.005862188
0.005070104
0.004494277
0.003928668
0.003329544
0.00314742
0.002062125
0.005211986
0.006185727
0.007210723
0.008088948
0.008845456
0.009869838
0.01136173
0.01297169
0.01386415
0.01430957
0.01557256
0.01716981
0.01841087
0.01877812
0.01924789
0.02045483
0.02164211
0.02228826
0.02253797
0.02328443
0.02421183
0.02485514
0.02522167
0.02575677
0.02637615
0.02683398
0.02721823
0.02768414
0.02811001
0.02842145
0.02869225
0.02899458
0.02930531
0.0295617
0.02976089
0.02987275
0.02995425
0.02996856
0.02993318
0.02990379
0.02979737
0.02966575
0.02935401
0.02864787
0.02812731
0.02767797
0.0271828
0.02595624
0.02448053
0.02337583
0.02231782
0.02075195
0.01833983
0.0166069
0.01435539
0.0115825
0.008512178
0.00588622
0.005795046
0.003075896
0.006514615
0.008072355
0.009727466
0.01168462
0.0135075
0.0153809
0.01726772
0.01909524
0.02063557
0.02172204
0.02280757
0.02400258
0.02508087
0.02589414
0.0265841
0.02731494
0.0280626
0.0287062
0.02922919
0.02973144
0.03026498
0.03078848
0.03125563
0.03169158
0.0321335
0.03257399
0.03299396
0.03340454
0.03381681
0.03422109
0.03457927
0.03495378
0.03535493
0.03574309
0.03612464
0.03647603
0.03676856
0.0370165
0.03727406
0.03756273
0.0378143
0.03790634
0.03790358
0.03778831
0.0376932
0.03751802
0.03710616
0.03646565
0.03562193
0.03463757
0.03345752
0.03186386
0.02989536
0.02721479
0.0238272
0.01983635
0.01458646
0.008550559
0.007798277
0.003894299
0.007065296
0.009192807
0.01144604
0.01395292
0.01633405
0.0186325
0.02078106
0.02262232
0.02420101
0.02562786
0.02679495
0.02776309
0.0285547
0.02923815
0.02983927
0.03038161
0.03087906
0.03131852
0.03172852
0.03213185
0.03254154
0.03295103
0.03335322
0.03375406
0.03416109
0.03457366
0.03498937
0.0354101
0.03583581
0.03623137
0.03663324
0.03706878
0.03749706
0.03791599
0.03832229
0.0387136
0.03908347
0.03942445
0.0397345
0.04001042
0.04024274
0.04041404
0.04047732
0.04047221
0.0403876
0.0401931
0.03985713
0.03933577
0.03858015
0.03764616
0.03633425
0.03448639
0.03228087
0.02964091
0.02658083
0.02271189
0.01775432
0.01145658
0.009414243
0.004656215
0.007548462
0.0102117
0.01298725
0.01587091
0.01852965
0.02090825
0.02295771
0.02467496
0.02608909
0.02729967
0.02834759
0.02925459
0.02995867
0.03043932
0.03085117
0.03121646
0.03155713
0.0318876
0.03221542
0.03255039
0.03289489
0.03325334
0.0336263
0.03401493
0.03442028
0.03484207
0.03527951
0.03573167
0.03617105
0.03661505
0.03709057
0.03757577
0.03806675
0.03855604
0.0390391
0.03952161
0.03999634
0.04045452
0.04088976
0.04129551
0.0416629
0.04198343
0.04223317
0.04239718
0.04244602
0.04238651
0.04218601
0.04186444
0.04136994
0.04046997
0.03913762
0.0375251
0.03556881
0.03311449
0.02996091
0.02583422
0.02037397
0.01320617
0.01057612
0.005351725
0.007909907
0.01092184
0.01398157
0.01701787
0.01975293
0.02211698
0.02409474
0.02570968
0.02699351
0.0279924
0.02879143
0.02944747
0.0300286
0.03049478
0.03083477
0.03113913
0.03142298
0.03170952
0.03199407
0.03228582
0.03259396
0.03292425
0.03327967
0.03366175
0.03407095
0.03450674
0.03496783
0.03545179
0.03595602
0.03648197
0.03702797
0.03759382
0.03817754
0.03877426
0.03936461
0.0399527
0.04054572
0.04112988
0.04169474
0.04223123
0.04272877
0.04317498
0.04355677
0.04385646
0.04402738
0.04406576
0.04401079
0.04374709
0.04313126
0.04217333
0.04089529
0.0392748
0.03721984
0.03461834
0.03134661
0.02721778
0.0218853
0.01481801
0.01150492
0.005998099
0.008208058
0.01142874
0.01461543
0.017671
0.02036416
0.02262716
0.0244701
0.02594526
0.02711264
0.02803314
0.02876992
0.02934702
0.02979329
0.03017505
0.03047992
0.0307139
0.03094198
0.03117642
0.03142695
0.03170124
0.03200599
0.03234575
0.03272316
0.03313932
0.03359417
0.03408683
0.03461594
0.03517968
0.03577576
0.03640229
0.03704997
0.03772033
0.03841618
0.03912985
0.03985506
0.04058177
0.04130708
0.04202516
0.04272675
0.04340091
0.04403451
0.04461183
0.04511723
0.04552364
0.04582896
0.04598525
0.04594406
0.04561869
0.04501306
0.04411226
0.04287585
0.0412493
0.03916466
0.03653256
0.0332177
0.02899278
0.02344967
0.01597019
0.01219924
0.006565528
0.008458058
0.0117851
0.01496485
0.01793093
0.0205012
0.0226642
0.02445583
0.02589266
0.02701048
0.02786649
0.02850656
0.02899296
0.0293695
0.02966544
0.02994115
0.03020361
0.03044139
0.03068579
0.03095124
0.03124872
0.03158537
0.03196591
0.03239325
0.03286834
0.0333902
0.0339571
0.03456652
0.0352157
0.03590646
0.03663562
0.03739904
0.03819235
0.03900983
0.03984684
0.04069782
0.04155602
0.04241396
0.04326316
0.04409325
0.04489189
0.04564438
0.04633393
0.04693763
0.04744019
0.04779621
0.04793082
0.04785012
0.04751203
0.0468878
0.04593679
0.04461606
0.04287612
0.04065492
0.03786884
0.03439479
0.03003043
0.02440377
0.01692258
0.01273969
0.007302452
0.008677719
0.01199541
0.01509853
0.01794478
0.02046268
0.02256286
0.02425742
0.02560551
0.02666637
0.02748634
0.02811383
0.0285966
0.02897621
0.02928701
0.02955902
0.02983715
0.0301291
0.03042572
0.03074598
0.03109949
0.03149305
0.03193043
0.03241265
0.03294652
0.03353802
0.03418464
0.03488378
0.03563281
0.03642441
0.03725518
0.03812759
0.03903637
0.03996917
0.04092198
0.04188927
0.04286396
0.04383756
0.04479987
0.04573855
0.04663876
0.04748248
0.04824864
0.04891014
0.04943921
0.04980411
0.04994902
0.04986667
0.04950412
0.0488243
0.04778963
0.04636136
0.0444965
0.04214157
0.03922166
0.03561906
0.03112857
0.02535817
0.01766081
0.01313605
0.007424341
0.008850478
0.01213204
0.01512942
0.01789398
0.02027841
0.02228311
0.02392148
0.02523836
0.02628486
0.02711003
0.02776092
0.02828106
0.02870886
0.02907733
0.02941339
0.02973827
0.03007748
0.03043536
0.03080923
0.0312227
0.03168352
0.0321977
0.03277029
0.03339841
0.03407788
0.0348096
0.0355924
0.03642389
0.03730066
0.03821891
0.03918265
0.04018601
0.04121388
0.04226142
0.04332242
0.04438916
0.04545216
0.04649997
0.04751876
0.048492
0.04940031
0.05022064
0.0509298
0.05148986
0.05185697
0.05198655
0.05185469
0.05141397
0.05062782
0.04946281
0.04788685
0.04586403
0.04334736
0.04026738
0.03651102
0.03187939
0.02599394
0.01823442
0.01343225
0.007497076
0.008936826
0.01219634
0.0150962
0.01770724
0.01999246
0.02193223
0.02354254
0.02486095
0.02593219
0.0268012
0.02751042
0.02809852
0.02859967
0.02904328
0.02944657
0.02983771
0.03023929
0.0306758
0.03115488
0.0316656
0.03221723
0.03281597
0.03346574
0.03416798
0.0349227
0.03572915
0.03658583
0.03749043
0.03843991
0.03943061
0.0404662
0.04154112
0.04264063
0.04375895
0.0448891
0.04602266
0.04714943
0.04825714
0.04933106
0.05035343
0.05130276
0.05215339
0.05287287
0.05342675
0.05377594
0.05387178
0.05367829
0.05314934
0.05224887
0.05094917
0.04922656
0.04705413
0.04439201
0.0411751
0.03729265
0.03254542
0.02654885
0.01866419
0.01362951
0.008585534
0.009053637
0.01223314
0.01503748
0.01753828
0.01973347
0.0216154
0.02320058
0.02452166
0.02561796
0.02652988
0.02729929
0.02796378
0.02855554
0.02909384
0.02960914
0.03011278
0.03062008
0.03114767
0.03170697
0.03230642
0.03294563
0.03362835
0.03435733
0.03513438
0.03596009
0.03683429
0.03775592
0.03872306
0.03973278
0.04078158
0.04187144
0.04299738
0.04414704
0.04531397
0.04649065
0.04766799
0.04883513
0.04997898
0.05108372
0.05213032
0.05309596
0.05395353
0.05467354
0.05521569
0.05553551
0.05558618
0.05531989
0.05468728
0.05365819
0.05221579
0.05034719
0.04803292
0.04523677
0.04189504
0.03789728
0.03304463
0.02695553
0.0190014
0.01377462
0.00864143
0.009110517
0.012224
0.01491036
0.01729402
0.01939809
0.02122646
0.0227962
0.0241367
0.02528335
0.02627229
0.02713432
0.02789723
0.02858559
0.02922604
0.02983971
0.03045028
0.03107257
0.03171381
0.03238038
0.03307663
0.03380572
0.03457235
0.03538164
0.03623441
0.03712947
0.03806494
0.03903965
0.04005333
0.04110471
0.04219155
0.04331416
0.04446855
0.04564524
0.04683711
0.04803598
0.04923242
0.05041518
0.05157094
0.05268377
0.05373448
0.05469964
0.05555086
0.05625204
0.05676545
0.05704184
0.05703484
0.05668154
0.05593703
0.05478404
0.05321793
0.0512301
0.04880182
0.04589826
0.04245598
0.03836416
0.03342281
0.02724842
0.01921075
0.01384518
0.008735086
0.009133341
0.01220165
0.01479737
0.01709094
0.01912977
0.02092721
0.02250013
0.02387226
0.0250695
0.02611849
0.02704493
0.02787712
0.02864307
0.02937633
0.0301003
0.03082709
0.0315625
0.03230967
0.03307383
0.03386187
0.03468335
0.03554356
0.03644116
0.03737125
0.03832841
0.03931043
0.04032337
0.04137203
0.042453
0.04356405
0.04470427
0.0458711
0.04705863
0.04825922
0.04946389
0.05066265
0.0518438
0.05299362
0.05409587
0.05513111
0.05607625
0.05690342
0.05758046
0.05806754
0.05830962
0.0582477
0.05781771
0.05696952
0.05569132
0.05401342
0.05193043
0.04941116
0.04642195
0.04289936
0.03873278
0.03372295
0.02748771
0.01939797
0.01390561
0.008930448
0.009142514
0.0121605
0.01469079
0.01691516
0.01890309
0.02067725
0.0222529
0.02364712
0.02488038
0.02597649
0.02696074
0.02785851
0.02870538
0.02953537
0.03035928
0.03118115
0.03200797
0.03284915
0.03371009
0.03459389
0.03550127
0.03643434
0.03739483
0.03838156
0.03939208
0.0404258
0.04148339
0.04256364
0.04366534
0.04479119
0.04594247
0.04711651
0.048309
0.04951174
0.05071571
0.05191011
0.05308264
0.05421893
0.05530219
0.05631525
0.05723989
0.05804979
0.05870967
0.05917576
0.05939157
0.05928833
0.05879333
0.05785751
0.05647212
0.05466813
0.05247763
0.04987736
0.04681411
0.04322258
0.03899072
0.03391808
0.02762154
0.01947261
0.01391289
0.009108244
0.009145909
0.01212309
0.01459478
0.0167578
0.01869963
0.02044925
0.02202215
0.02343321
0.02469974
0.02584087
0.02687781
0.02784104
0.02876759
0.02967749
0.03058127
0.03148798
0.03240423
0.03333397
0.03427784
0.03523622
0.03621157
0.03720553
0.03821869
0.0392513
0.04030322
0.04137463
0.04246609
0.04357777
0.04470841
0.0458543
0.04700814
0.04817327
0.04935924
0.0505592
0.05175869
0.05294602
0.05410941
0.05523593
0.0563107
0.05731625
0.0582309
0.05902686
0.05966837
0.06010906
0.06029006
0.06014227
0.05959278
0.05858288
0.05709785
0.05518471
0.05290499
0.05023397
0.04710774
0.04346069
0.03918069
0.034068
0.02773942
0.01956066
0.01391783
0.009252717
0.009159216
0.01208659
0.01450969
0.01662218
0.01852427
0.02024999
0.02181594
0.02323578
0.02452471
0.02570034
0.02678293
0.02780031
0.02878693
0.02976726
0.03075016
0.03173934
0.03273566
0.03373809
0.03474927
0.03577149
0.0368058
0.03785207
0.03891082
0.03998314
0.04106978
0.04217156
0.04328926
0.04442298
0.045571
0.04672837
0.04788559
0.04904759
0.0502294
0.05142686
0.05262425
0.05380837
0.05496694
0.05608704
0.05715408
0.05815058
0.05905448
0.05983703
0.06046084
0.06087779
0.06102741
0.06083937
0.06023817
0.05916845
0.05761557
0.05562185
0.05326099
0.05052485
0.0473481
0.04365583
0.03933417
0.03418275
0.02781755
0.01959881
0.0139031
0.009367013
0.009169059
0.01205587
0.01444014
0.01651022
0.01837553
0.02007652
0.02163187
0.02305518
0.02436049
0.02556391
0.02668402
0.02774779
0.02878843
0.02982958
0.03087565
0.03192861
0.03298845
0.03405512
0.0351276
0.03620485
0.03728661
0.03837514
0.03947215
0.04057832
0.04169471
0.04282256
0.04396285
0.04511558
0.0462786
0.04744602
0.04860624
0.04976396
0.05093856
0.05213051
0.05332441
0.0545052
0.05565968
0.0567749
0.05783631
0.05882614
0.05972171
0.06049355
0.06110324
0.06150135
0.06162616
0.06140701
0.06076533
0.05964304
0.05802377
0.05595459
0.0535191
0.05072561
0.04750599
0.04377542
0.03942003
0.03423898
0.02784886
0.01960859
0.01386972
0.009447038
0.009191501
0.01204556
0.01439025
0.01641851
0.01824748
0.01992222
0.02146336
0.02288536
0.02420209
0.02542897
0.02658326
0.02768813
0.02877419
0.02986178
0.03095895
0.03206535
0.03317875
0.03429651
0.03541615
0.0365373
0.03766044
0.0387861
0.03991508
0.0410488
0.04218911
0.04333771
0.04449563
0.04566261
0.04683623
0.04801146
0.04918142
0.05034097
0.05150392
0.05268668
0.05387833
0.05505808
0.05621136
0.05732507
0.05838461
0.05937191
0.06026357
0.06102897
0.06162829
0.06201061
0.06211298
0.06186461
0.06118572
0.0600193
0.05834903
0.05622236
0.05372765
0.05088762
0.04763374
0.04387358
0.03949189
0.03428678
0.02787208
0.01961259
0.01384051
0.009524514
0.009233341
0.01205082
0.01435579
0.01634421
0.01813749
0.01978446
0.0213088
0.02272613
0.02405057
0.02529688
0.02648077
0.02761887
0.02873718
0.02986123
0.03099826
0.03214525
0.03329935
0.03445729
0.03561653
0.03677503
0.03793186
0.03908719
0.04024248
0.04139983
0.04256123
0.04372852
0.04490279
0.0460838
0.04726923
0.0484542
0.04963187
0.05079515
0.0519566
0.05313585
0.05432581
0.0555067
0.05666292
0.0577802
0.05884312
0.05983283
0.06072497
0.06148775
0.06208001
0.0624495
0.06253223
0.0622574
0.061544
0.06033553
0.05861632
0.05643636
0.05388965
0.05100763
0.04772063
0.0439316
0.03952521
0.03430111
0.02787227
0.01960342
0.01379327
0.009568516
0.009287608
0.01207936
0.01434321
0.01628851
0.01804392
0.01966119
0.02116601
0.02257515
0.02390309
0.02516402
0.02637228
0.02754165
0.02869011
0.02984007
0.03100133
0.0321773
0.03336182
0.03455042
0.03573964
0.03692697
0.03811126
0.03929248
0.04047175
0.0416509
0.04283204
0.0440172
0.04520762
0.04640323
0.04760203
0.04879958
0.04998894
0.05116108
0.05232654
0.05350669
0.05469857
0.05588406
0.05704676
0.05817113
0.05924064
0.06023544
0.06113009
0.06189158
0.06247739
0.06283411
0.06289697
0.06259546
0.06184838
0.06060075
0.05883812
0.05661207
0.05402019
0.05110308
0.04779002
0.04397867
0.0395525
0.03430831
0.02787081
0.01958796
0.01375713
0.00963994
0.009378941
0.01213529
0.01434806
0.01624969
0.01796576
0.01955118
0.02103363
0.02243122
0.02375877
0.02503006
0.02625826
0.02745535
0.02863134
0.02980119
0.03098172
0.03217451
0.03337759
0.03458788
0.03579988
0.03701015
0.03821705
0.03942043
0.04062108
0.04182063
0.04302116
0.04422463
0.04543227
0.04664411
0.04785844
0.04907133
0.05027599
0.05146195
0.05263674
0.05382224
0.05501956
0.05621254
0.05738411
0.05851762
0.05959542
0.06059652
0.06149433
0.0622546
0.06283361
0.06317694
0.06321924
0.0628904
0.0621094
0.06082299
0.05901867
0.05675057
0.05411975
0.0511717
0.04783436
0.04400247
0.03955984
0.03430406
0.02785092
0.01955992
0.01370605
0.009676771
0.009485481
0.01221199
0.01437449
0.01622745
0.01790225
0.0194535
0.02091068
0.02229301
0.0236157
0.0248921
0.02613425
0.02735266
0.02855565
0.02974912
0.03094208
0.03214583
0.03336235
0.03458534
0.03581181
0.03703981
0.03826607
0.03948925
0.04070955
0.04192847
0.04314811
0.04437035
0.04559633
0.04682593
0.04805732
0.04928666
0.05050832
0.05171627
0.05290783
0.05409779
0.05530083
0.05650483
0.05768784
0.05883192
0.05991875
0.06092648
0.06182742
0.06258609
0.06315766
0.06348681
0.06350783
0.06315114
0.06233652
0.06101285
0.05916993
0.05686428
0.05419957
0.05122522
0.04786775
0.0440188
0.03956085
0.03429448
0.02783401
0.01953725
0.01367017
0.009748273
0.00962771
0.01232357
0.01442803
0.01622834
0.01785492
0.0193674
0.02079552
0.02215878
0.02347224
0.0247486
0.02599878
0.02723188
0.02845503
0.02967305
0.03088869
0.03210319
0.03332343
0.03455589
0.03579528
0.03703627
0.03827696
0.0395167
0.04075483
0.04199251
0.04323128
0.04447266
0.04571763
0.04696608
0.04821623
0.04946442
0.05070528
0.05193304
0.05314299
0.05434677
0.05556017
0.05677436
0.05796845
0.05912353
0.06021991
0.06123443
0.06213821
0.06289462
0.0634578
0.0637717
0.0637704
0.06338472
0.06253609
0.06117557
0.0592957
0.05695573
0.05426158
0.05126429
0.04788894
0.04402544
0.039556
0.03427759
0.02780715
0.01950423
0.01362299
0.009785989
0.009806678
0.01246192
0.01450302
0.01624359
0.01782186
0.01929332
0.02068931
0.02202978
0.02332954
0.02460053
0.02585257
0.02709354
0.0283294
0.0295642
0.03080012
0.03203772
0.03327659
0.03451592
0.03575946
0.03701068
0.03826537
0.03952008
0.04077506
0.04203063
0.04328796
0.0445483
0.04581238
0.04707999
0.04834951
0.04961764
0.05087942
0.05212842
0.05335788
0.05457765
0.05580402
0.05703011
0.0582359
0.05940198
0.06050756
0.06152825
0.06243393
0.06318686
0.06374028
0.06403764
0.06401326
0.06359617
0.06271374
0.06131739
0.05940267
0.05703157
0.05431168
0.05129466
0.04790396
0.04402778
0.03954849
0.03426234
0.02778619
0.01948007
0.01359181
0.009818233
0.009998386
0.01262834
0.01460231
0.01628033
0.01780354
0.01923065
0.0205915
0.02190586
0.02318799
0.02444902
0.02569776
0.02694104
0.02818384
0.02942942
0.03067947
0.0319344
0.03319357
0.0344557
0.03571942
0.03698304
0.03824721
0.03951488
0.04078571
0.04205876
0.04333415
0.04461284
0.0458956
0.04718224
0.04847117
0.04975923
0.05104162
0.05231198
0.05356274
0.05480111
0.0560419
0.05728009
0.05849728
0.05967369
0.06078744
0.06181291
0.0627188
0.06346638
0.06400814
0.0642872
0.06423835
0.06378953
0.06287314
0.06144165
0.0594938
0.0570944
0.0543523
0.05131839
0.04791435
0.04402707
0.03953852
0.03424408
0.02776074
0.0194501
0.01355238
0.0101931
0.01023415
0.01283038
0.01472919
0.01633922
0.01780467
0.01918245
0.02050438
0.02178922
0.02305033
0.02429788
0.02553968
0.02678161
0.02802777
0.0292807
0.03054154
0.03181029
0.0330861
0.03436761
0.03565314
0.0369409
0.03822943
0.03951753
0.04080402
0.04209141
0.04338369
0.04468039
0.04598133
0.04728615
0.04859349
0.04990051
0.05120277
0.05249402
0.053766
0.05502309
0.05627842
0.05752862
0.05875655
0.05994204
0.06106227
0.06209056
0.06299461
0.06373478
0.06426297
0.06452211
0.0644475
0.06396786
0.06301762
0.06155199
0.05957294
0.05714798
0.05438681
0.05133867
0.0479234
0.04402692
0.03953137
0.03423133
0.02774321
0.01942928
0.01352769
0.01066656
0.01052239
0.01305414
0.01488087
0.01641765
0.01782025
0.01914808
0.02042927
0.02168243
0.02292027
0.02415212
0.02538488
0.02662354
0.02787141
0.02913032
0.03040085
0.03168256
0.03297425
0.03427423
0.03558054
0.03689119
0.03820431
0.03951816
0.04083119
0.04214252
0.04345191
0.04476286
0.04607934
0.04740045
0.04872427
0.05004792
0.05136718
0.0526768
0.0539716
0.05524876
0.05651517
0.05777512
0.05901357
0.06020716
0.06133215
0.06236126
0.06326146
0.06399239
0.06450548
0.06474359
0.06464259
0.06413216
0.06314875
0.06165034
0.05964216
0.0571944
0.05441721
0.05135722
0.04793257
0.04402882
0.03952586
0.03421931
0.02772488
0.01940638
0.01349864
0.01087649
0.01081313
0.0132899
0.01505422
0.01651475
0.01785377
0.01912822
0.0203672
0.02158769
0.02280149
0.024017
0.02524023
0.02647527
0.02772465
0.02898951
0.03026982
0.03156462
0.03287226
0.03419065
0.03551745
0.03685029
0.03818711
0.03952574
0.04086455
0.04220176
0.04353613
0.04486671
0.04619641
0.04752987
0.04886684
0.05020444
0.05153862
0.05286444
0.05417685
0.05547147
0.05675218
0.05802246
0.05926868
0.06046803
0.06159602
0.06262439
0.06351923
0.06423955
0.06473643
0.0649528
0.06482517
0.06428436
0.06326884
0.06173935
0.05970433
0.05723639
0.0544458
0.05137593
0.04794325
0.04403309
0.03952436
0.03421334
0.02771466
0.01939242
0.01348178
0.01098943
0.01110916
0.01354534
0.01524892
0.01663295
0.0179073
0.01912885
0.0203236
0.02151025
0.02269944
0.02389846
0.02511228
0.02634405
0.02759542
0.02886674
0.0301573
0.03146556
0.03278937
0.03412622
0.03547343
0.03682834
0.0381881
0.03954978
0.04091181
0.04227258
0.04363054
0.0449844
0.04633306
0.04767812
0.04902394
0.05037149
0.05171728
0.05305649
0.05438387
0.05569381
0.05698775
0.0582678
0.05952092
0.06072468
0.0618541
0.06288015
0.06376816
0.06447661
0.0649564
0.06515069
0.06499662
0.06442624
0.06337991
0.0618211
0.05976141
0.05727586
0.05447452
0.05139683
0.04795745
0.04404193
0.03952879
0.03421154
0.02770742
0.01937934
0.01346145
0.01106266
0.01140679
0.01381198
0.01545641
0.01676966
0.01797556
0.01914153
0.02029515
0.0214503
0.0226168
0.02380105
0.02500709
0.02623715
0.02749194
0.02877099
0.03007281
0.0313952
0.03273541
0.03409045
0.03545715
0.03683163
0.03821165
0.0395953
0.04097933
0.04236192
0.04374127
0.04511589
0.04648441
0.04784559
0.04920086
0.05055456
0.05190767
0.05325633
0.05459503
0.0559176
0.05722352
0.05851249
0.05977121
0.06097775
0.06210688
0.06312896
0.0640087
0.06470418
0.06516612
0.06533796
0.06515757
0.06455853
0.06348308
0.06189731
0.05981562
0.05731509
0.05450524
0.05142121
0.04797601
0.04405559
0.03953831
0.03421768
0.02770683
0.01937392
0.01345125
0.01121632
0.01173134
0.01409503
0.01567765
0.0169212
0.01806135
0.01917693
0.02029133
0.02141462
0.02255963
0.02373106
0.02493152
0.02616199
0.02742216
0.02871058
0.03002497
0.03136246
0.03271939
0.0340914
0.03547464
0.03686821
0.03826799
0.03967074
0.04107414
0.04247577
0.04387367
0.04526616
0.04665171
0.04802896
0.04939661
0.05075651
0.05211312
0.05346663
0.0548126
0.05614481
0.05746054
0.05875664
0.06001932
0.06122698
0.06235416
0.06337066
0.06424061
0.06492182
0.06536534
0.06551537
0.06531023
0.06468443
0.06358168
0.06197068
0.05986889
0.05735561
0.05453948
0.05145015
0.04799934
0.04407423
0.03955271
0.03422785
0.02771355
0.01937256
0.01344113
0.01132926
0.01205022
0.0143885
0.01591401
0.01708954
0.01816443
0.01922996
0.02030535
0.02140648
0.02253406
0.02369557
0.02489327
0.02612688
0.02739466
0.0286936
0.03001977
0.03136834
0.03273858
0.03412685
0.03552963
0.03694129
0.03835865
0.0397786
0.04119868
0.0426165
0.04403004
0.04543748
0.04683722
0.04822777
0.04960776
0.05097585
0.05233481
0.05368954
0.05503876
0.05637704
0.0576999
0.05900131
0.06026656
0.06147408
0.06259803
0.06360785
0.06446761
0.06513511
0.06556113
0.06568927
0.06545867
0.0648065
0.0636787
0.06204573
0.05992672
0.05740175
0.05457916
0.05148465
0.04802892
0.04409958
0.03957394
0.03424439
0.02772407
0.01937818
0.01343921
0.0115353
0.0123828
0.01469542
0.01616525
0.01727459
0.01828605
0.01930439
0.02034614
0.02142152
0.02253853
0.02369726
0.02489509
0.02613103
0.02740453
0.02871269
0.03005186
0.03141872
0.03280635
0.03421103
0.03562864
0.03705523
0.03848711
0.03992143
0.04135529
0.04278632
0.04421244
0.0456318
0.04704272
0.04844366
0.04983315
0.05120977
0.05257274
0.05392629
0.05527523
0.05661613
0.0579433
0.05924789
0.06051414
0.06172039
0.06284055
0.06384358
0.0646927
0.06534515
0.06575199
0.0658582
0.06560379
0.0649271
0.06377539
0.06212111
0.05998528
0.05744956
0.0546216
0.05152317
0.0480631
0.04412945
0.03959939
0.03426502
0.02773895
0.01938553
0.01343712
0.01164473
0.01270654
0.01501275
0.01642977
0.01747671
0.0184302
0.01940674
0.02041867
0.0214746
0.02257848
0.02373031
0.02493071
0.02617662
0.02746273
0.02878462
0.03013783
0.03151776
0.03291941
0.03433811
0.03576895
0.03720797
0.03865167
0.04009721
0.04154187
0.04298325
0.04441922
0.04584786
0.04726743
0.04867628
0.05007285
0.05145562
0.05282307
0.05417688
0.05552271
0.05686253
0.05819078
0.05949636
0.06076215
0.06196582
0.06308033
0.06407408
0.06491038
0.06554694
0.06593532
0.06602096
0.06574405
0.06504373
0.06386819
0.06219274
0.06004183
0.05749837
0.05466726
0.05156595
0.04810228
0.04416507
0.03963111
0.0342923
0.02776038
0.01939955
0.01343906
0.01181455
0.0130198
0.01533418
0.01670988
0.01769983
0.01859674
0.01953345
0.02052049
0.02156293
0.02266208
0.0238166
0.02502332
0.02627771
0.02757445
0.02890829
0.03027389
0.03166593
0.03307903
0.03450806
0.03594863
0.03739702
0.03885006
0.04030455
0.04175774
0.04320722
0.04465079
0.04608649
0.04751248
0.04892706
0.05032854
0.05171533
0.05308584
0.05443932
0.05578081
0.05711682
0.05844318
0.05974733
0.06101041
0.06220899
0.06331563
0.06429866
0.0651216
0.06574225
0.06611232
0.06617749
0.06587893
0.06515701
0.06396126
0.06226806
0.06010308
0.05755088
0.05471692
0.05161307
0.0481456
0.04420458
0.03966633
0.03432264
0.02778451
0.01941528
0.01343954
0.0122247
0.01338633
0.01567912
0.01700556
0.01793881
0.01879132
0.01969685
0.020665
0.02169778
0.02279425
0.02395106
0.0251636
0.02642631
0.02773323
0.02907807
0.03045477
0.03185719
0.0332797
0.03471725
0.03616591
0.03762202
0.03908222
0.04054339
0.04200279
0.04345794
0.04490664
0.04634693
0.04777696
0.04919499
0.05059927
0.05198802
0.0533595
0.05471193
0.0560489
0.05737863
0.0587
0.06000002
0.06125822
0.06245021
0.06354803
0.06451975
0.06532878
0.06593318
0.06628517
0.066331
0.06601237
0.06527029
0.06405537
0.06234574
0.06016908
0.05761067
0.0547741
0.05166721
0.04819553
0.04425005
0.03970701
0.03435771
0.02781287
0.01943512
0.01344659
0.01199511
0.01369414
0.01601627
0.01730696
0.01819469
0.01900901
0.01988565
0.02083812
0.02186474
0.02296188
0.02412405
0.02534483
0.02661717
0.0279341
0.02928868
0.03067435
0.03208498
0.03351516
0.03496018
0.03641595
0.03787852
0.03934435
0.0408104
0.04227405
0.04373294
0.04518497
0.04662799
0.04806005
0.04947927
0.05088395
0.05227236
0.05364276
0.05499329
0.05632544
0.0576474
0.05896202
0.0602562
0.06150801
0.06269199
0.06377968
0.0647391
0.06553386
0.0661223
0.06645679
0.0664842
0.06614658
0.0653856
0.06415281
0.06242758
0.06023915
0.0576741
0.05483535
0.0517259
0.04825016
0.04430044
0.03975235
0.03439625
0.02784414
0.01945765
0.01345311
0.01191591
0.01397216
0.01635449
0.01762076
0.01846849
0.01925028
0.02010357
0.02104565
0.02207053
0.02317152
0.02434093
0.02557049
0.02685214
0.02817809
0.02954112
0.03093446
0.03235215
0.03378885
0.03523982
0.03670066
0.03816749
0.039637
0.04110623
0.04257249
0.04403328
0.04548639
0.0469299
0.04836195
0.04978066
0.05118418
0.05257068
0.05393831
0.05528522
0.05661143
0.05792517
0.059232
0.06051879
0.0617625
0.06293693
0.06401327
0.06495952
0.06573947
0.06631172
0.06662852
0.06663804
0.06628221
0.06550328
0.06425363
0.06251385
0.0603146
0.05774328
0.05490186
0.05178928
0.04830916
0.04435514
0.03980294
0.03444264
0.02788325
0.01948364
0.01346571
0.0122295
0.01426638
0.01670087
0.01795077
0.01876773
0.01952557
0.02036181
0.02129815
0.02232424
0.02343062
0.02460772
0.02584609
0.02713668
0.02847113
0.0298418
0.03124187
0.03266534
0.03410679
0.03556143
0.03702499
0.03849382
0.03996461
0.0414344
0.0429006
0.04436088
0.04581305
0.04725511
0.04868518
0.05010145
0.05150197
0.05288476
0.05424782
0.05558913
0.05690811
0.05821313
0.059511
0.06078864
0.06202234
0.06318538
0.06424881
0.06518069
0.06594505
0.06650076
0.06680005
0.06679204
0.06641862
0.06562255
0.06435691
0.06260332
0.06039371
0.05781628
0.05497209
0.05185627
0.04837141
0.04441205
0.0398535
0.03448566
0.02791805
0.0195104
0.01347595
0.01282317
0.01460743
0.01705713
0.01829615
0.0190901
0.0198304
0.02065469
0.02158928
0.02261961
0.02373347
0.02491943
0.02616682
0.02746586
0.02880775
0.03018472
0.03158988
0.03301722
0.03446144
0.03591787
0.03738242
0.03885154
0.04032198
0.04179081
0.04325544
0.04471364
0.04616338
0.04760256
0.04902916
0.0504412
0.0518367
0.05321367
0.05457011
0.05590398
0.05721441
0.05850984
0.05979764
0.0610646
0.06228654
0.06343654
0.06448566
0.06540216
0.06615028
0.06668921
0.06697136
0.06694619
0.06655582
0.06574337
0.06446248
0.06269574
0.06047616
0.05789266
0.05504543
0.05192621
0.04843683
0.0444728
0.03990931
0.03453575
0.0279603
0.01953962
0.01349144
0.0131395
0.01494864
0.0174228
0.01865902
0.01943809
0.02016746
0.02098446
0.0219205
0.02295693
0.02407903
0.02527378
0.02652956
0.02783606
0.02918423
0.0305662
0.03197511
0.033405
0.03485065
0.03630751
0.03777163
0.03923943
0.04070786
0.04217415
0.04363584
0.04509058
0.04653617
0.04797053
0.04939165
0.05079755
0.05218622
0.05355565
0.05490381
0.05622866
0.05752941
0.05881456
0.06009129
0.06134615
0.06255473
0.06369016
0.06472369
0.06562388
0.06635525
0.06687722
0.06714242
0.06710048
0.06669371
0.06586549
0.06456996
0.06279048
0.06056109
0.05797138
0.05512082
0.05199776
0.04850316
0.04453347
0.03996367
0.03458287
0.02799873
0.0195683
0.01350312
0.01332187
0.01524633
0.01778633
0.01903769
0.01981254
0.02053781
0.02135175
0.02229193
0.02333593
0.02446678
0.02567012
0.02693354
0.02824637
0.02959942
0.03098482
0.03239579
0.0338265
0.03527189
0.03672756
0.03818962
0.03965466
0.04111963
0.04258182
0.04403883
0.04548834
0.04692816
0.04835618
0.04977033
0.05116858
0.05254891
0.0539093
0.05524771
0.05656215
0.05785215
0.05912626
0.06039095
0.06163242
0.06282621
0.06394571
0.06496257
0.06584567
0.06655986
0.06706474
0.06731314
0.06725476
0.06683205
0.0659886
0.06467896
0.06288718
0.06064827
0.05805244
0.05519847
0.05207163
0.04857214
0.04459731
0.04002196
0.03463482
0.02804276
0.01960043
0.01351702
0.01365772
0.01554848
0.0181607
0.01943729
0.02021592
0.02094253
0.02175668
0.02270294
0.02375546
0.02489519
0.02610665
0.02737685
0.02869487
0.03005149
0.0314389
0.03285047
0.03428052
0.03572413
0.03717705
0.03863553
0.0400963
0.04155635
0.04301309
0.04446402
0.04590683
0.04733932
0.04875936
0.05016489
0.05155385
0.05292423
0.05427401
0.05560118
0.05690379
0.05818194
0.05944424
0.06069591
0.06192273
0.06310039
0.06420273
0.06520191
0.06606726
0.06676388
0.06725158
0.06748332
0.06740879
0.06697056
0.06611237
0.06478908
0.06298535
0.06073704
0.05813495
0.05527725
0.05214617
0.04864116
0.04466038
0.0400785
0.034684
0.02808327
0.01963025
0.01352718
0.01349665
0.01585655
0.01854704
0.01985803
0.02064768
0.0213803
0.02219941
0.02315297
0.0242146
0.02536307
0.02658195
0.02785787
0.02917981
0.0305386
0.03192658
0.03333728
0.03476518
0.03620554
0.03765427
0.0391078
0.04056292
0.04201671
0.04346648
0.04490978