/*--------------------------------*- C++ -*----------------------------------*\
| =========                 |                                                 |
| \\      /  F ield         | OpenFOAM: The Open Source CFD Toolbox           |
|  \\    /   O peration     | Version:  2312                                  |
|   \\  /    A nd           | Website:  www.openfoam.com                      |
|    \\/     M anipulation  |                                                 |
\*---------------------------------------------------------------------------*/
FoamFile
{
    version     2.0;
    format      ascii;
    arch        "LSB;label=32;scalar=64";
    class       volScalarField;
    location    "4650";
    object      omega;
}
// * * * * * * * * * * * * * * * * * * * * * * * * * * * * * * * * * * * * * //

dimensions      [0 0 -1 0 0 0 0];

internalField   nonuniform List<scalar> 
12000
(
52.1242
18.45973
20.06411
21.58265
22.73727
23.77491
24.70101
25.51452
26.17329
26.75609
27.30546
27.84425
28.29327
28.65541
28.99216
29.3235
29.64228
29.88365
30.08696
30.28215
30.47591
30.63022
30.73836
30.83894
30.92784
30.99293
31.02872
31.05544
31.06181
31.05507
31.0235
30.99512
30.94394
30.88595
30.79689
30.61027
30.35021
30.1322
30.07123
29.93123
29.59136
28.99961
28.41466
28.23105
28.21673
27.76638
26.69952
26.02369
25.82512
25.67218
24.6706
23.37975
23.01228
22.31407
21.33109
19.96
18.86879
17.79332
16.58727
38.87434
91.36375
21.33448
20.45703
21.48838
21.66776
21.50653
21.20192
21.0116
20.56901
19.91732
19.28887
18.73219
17.92638
17.31952
16.96082
16.51824
15.85844
15.15141
14.86935
14.66185
14.21371
13.64014
13.34625
13.20929
12.92247
12.58824
12.41639
12.28951
12.08247
11.94434
11.92547
11.87167
11.77978
11.74349
11.73923
11.83564
12.00016
12.11365
12.11747
12.1285
12.38137
12.87626
13.36461
13.47587
13.49539
13.99934
15.03084
15.89137
16.13978
16.34802
17.76685
19.47045
20.52401
21.59088
23.93267
26.83221
31.05386
37.58626
50.67479
72.93168
94.43238
21.77277
19.69661
19.54422
18.63735
17.79465
16.88353
16.03729
15.18165
14.35197
13.46995
12.72306
12.11409
11.61564
11.16293
10.7209
10.33339
10.02583
9.780591
9.543055
9.318238
9.1393
9.009136
8.895654
8.790297
8.711266
8.659601
8.620564
8.594252
8.5908
8.599384
8.612765
8.639535
8.688942
8.751289
8.830664
8.919581
9.010976
9.109582
9.230622
9.381428
9.54721
9.713649
9.880137
10.07894
10.31236
10.58148
10.88039
11.21787
11.61539
12.05829
12.67155
13.43325
14.44825
15.65035
17.54253
21.14913
28.10008
44.89289
80.40068
96.67347
20.98722
17.80306
17.21536
16.14357
15.08933
14.07439
13.14352
12.25617
11.46958
10.78689
10.18026
9.654565
9.207285
8.830232
8.503576
8.224187
7.989493
7.787874
7.616643
7.473923
7.359144
7.267218
7.192928
7.135293
7.094542
7.068961
7.056717
7.056218
7.068285
7.086943
7.117874
7.164948
7.222459
7.291011
7.370996
7.462904
7.567012
7.683774
7.815059
7.963016
8.129387
8.315227
8.520729
8.749548
9.012902
9.313523
9.658604
10.05787
10.51907
11.08497
11.73388
12.44054
13.3651
14.61535
16.54203
19.58109
25.33004
40.40646
86.09267
98.61169
20.30575
16.36189
15.50193
14.36947
13.26377
12.23724
11.3118
10.49234
9.783498
9.189148
8.688765
8.265265
7.889581
7.550708
7.268824
7.029164
6.826299
6.655127
6.512501
6.394925
6.298791
6.221779
6.161624
6.116901
6.086523
6.069435
6.065923
6.071718
6.086381
6.111303
6.15001
6.199306
6.259153
6.329285
6.409788
6.501825
6.605481
6.720794
6.848402
6.989164
7.143941
7.314101
7.499378
7.701779
7.922625
8.166559
8.439918
8.756286
9.126764
9.543322
10.01119
10.62317
11.4556
12.61785
14.31511
17.12963
22.72745
37.79291
90.05051
100.4161
19.73852
15.18648
14.12955
13.0135
11.94275
10.97231
10.1174
9.376955
8.739256
8.192335
7.729606
7.337288
7.007074
6.714909
6.453466
6.234039
6.05023
5.896675
5.767226
5.659448
5.571461
5.501472
5.44787
5.409337
5.384783
5.375364
5.375043
5.386996
5.410525
5.44519
5.491063
5.548189
5.616909
5.697173
5.787337
5.888561
6.00317
6.13052
6.270896
6.425091
6.594062
6.779026
6.981726
7.20396
7.44436
7.711013
8.014125
8.347898
8.707005
9.12002
9.62401
10.25236
11.0547
12.13428
13.7117
16.28583
21.32673
35.29336
93.11192
102.1461
20.04782
14.29993
13.05511
11.97423
10.96565
10.06345
9.274782
8.593479
8.007419
7.504529
7.073674
6.703933
6.385642
6.116998
5.88425
5.679072
5.504621
5.357264
5.233846
5.131886
5.049473
4.984975
4.936993
4.904351
4.886068
4.882239
4.889616
4.9097
4.94192
4.986006
5.040983
5.106938
5.184969
5.274735
5.37623
5.488952
5.613849
5.751467
5.902125
6.06622
6.244211
6.43665
6.644613
6.86839
7.112377
7.378688
7.661027
7.963828
8.303129
8.694697
9.158425
9.727993
10.46241
11.46868
12.9595
15.4309
20.33679
33.96019
95.29716
103.9535
20.20047
13.64592
12.20365
11.15916
10.22031
9.385429
8.656114
8.024916
7.480185
7.010388
6.605053
6.254647
5.951612
5.689519
5.467725
5.277835
5.112221
4.971503
4.853701
4.757038
4.679824
4.620577
4.578006
4.550998
4.540771
4.54162
4.556034
4.58336
4.62313
4.675022
4.7389
4.814313
4.901347
5.000217
5.111106
5.23419
5.369763
5.518178
5.679788
5.854975
6.044148
6.247823
6.466255
6.701293
6.951791
7.216195
7.499093
7.808596
8.153086
8.544041
9.001924
9.559616
10.27219
11.23862
12.65677
14.98628
19.58553
32.49581
96.91556
105.8272
20.51423
13.21698
11.56196
10.52845
9.645962
8.869896
8.192078
7.603354
7.092988
6.650519
6.26654
5.933011
5.643462
5.392519
5.1759
4.992614
4.83715
4.7038
4.592144
4.500953
4.428916
4.374753
4.337302
4.315543
4.309559
4.316254
4.336454
4.369635
4.415389
4.473435
4.544232
4.627278
4.721901
4.828482
4.947323
5.078691
5.222866
5.38014
5.550799
5.735149
5.933354
6.14545
6.371108
6.610294
6.865101
7.135143
7.422554
7.729495
8.063462
8.438392
8.873258
9.400292
10.0751
10.99696
12.36354
14.63096
19.13294
31.73586
98.07444
83.16996
20.03218
12.86447
11.04425
10.01454
9.18433
8.463591
7.833397
7.283287
6.80365
6.385566
6.021147
5.70365
5.427426
5.187755
4.980536
4.802745
4.653087
4.5279
4.423075
4.337666
4.27071
4.221174
4.188071
4.170494
4.167896
4.178835
4.203181
4.240485
4.290403
4.352696
4.428074
4.516181
4.616117
4.728247
4.852909
4.990422
5.141075
5.305103
5.482636
5.674599
5.881455
6.103003
6.339559
6.590341
6.852366
7.126826
7.415641
7.722104
8.052274
8.416326
8.834799
9.344255
9.997509
10.88915
12.20894
14.39218
18.71613
30.85772
98.93096
84.60791
20.3739
12.73527
10.70732
9.641541
8.837478
8.156602
7.564812
7.048045
6.59646
6.201679
5.856392
5.554451
5.290818
5.061403
4.862744
4.691728
4.546209
4.424936
4.325649
4.245379
4.182954
4.137348
4.107663
4.093966
4.093751
4.107333
4.13421
4.173976
4.226333
4.291087
4.368931
4.459709
4.562702
4.678258
4.806755
4.948595
5.104201
5.274009
5.458451
5.656951
5.869266
6.095695
6.335983
6.589895
6.85707
7.13667
7.428536
7.734212
8.058997
8.414672
8.821804
9.310067
9.936777
10.8004
12.0892
14.23483
18.49516
30.41261
99.48782
110.1174
21.71668
12.78109
10.44674
9.327052
8.542889
7.899554
7.345147
6.860618
6.435281
6.061299
5.733083
5.445854
5.195452
4.977813
4.789615
4.627993
4.490325
4.374974
4.280319
4.204936
4.146813
4.104881
4.078213
4.066606
4.068301
4.083444
4.11166
4.152657
4.20622
4.272254
4.35137
4.443577
4.548294
4.665757
4.796298
4.940306
5.098203
5.27042
5.457366
5.659399
5.876716
6.109267
6.357008
6.618955
6.89385
7.180554
7.477334
7.783185
8.101885
8.44511
8.835095
9.307358
9.916389
10.75948
12.01912
14.1161
18.27534
29.90585
99.90543
88.19537
21.99405
12.85827
10.31118
9.117944
8.329694
7.707129
7.179104
6.719984
6.317739
5.964908
5.655356
5.384305
5.14825
4.944784
4.769067
4.616614
4.485265
4.373636
4.280985
4.206638
4.149954
4.10996
4.085174
4.074859
4.077908
4.094002
4.122779
4.164034
4.217665
4.283651
4.362382
4.454008
4.558403
4.67585
4.806721
4.951468
5.110581
5.284572
5.473938
5.679098
5.90029
6.137492
6.39016
6.65775
6.938597
7.231903
7.53517
7.843701
8.157596
8.488532
8.862796
9.318345
9.911196
10.73475
11.97481
14.04953
18.17203
29.66646
100.1483
89.01756
22.58569
13.00106
10.22294
8.960642
8.164089
7.558278
7.055079
6.621703
6.242902
5.91003
5.617542
5.36296
5.142961
4.948734
4.778689
4.630294
4.501784
4.392771
4.30353
4.233318
4.180663
4.143326
4.120358
4.111003
4.114625
4.130744
4.159118
4.199633
4.252187
4.316888
4.394085
4.484152
4.587344
4.703946
4.834308
4.978885
5.13818
5.312727
5.50306
5.709684
5.932952
6.172826
6.429471
6.704115
6.995236
7.29743
7.605278
7.913822
8.2222
8.541635
8.900552
9.340263
9.91718
10.72601
11.94862
13.99731
18.06898
29.41268
100.3897
89.95533
23.26465
13.20769
10.22233
8.867331
8.047451
7.448356
6.963024
6.549729
6.189978
5.874901
5.600233
5.362956
5.154149
4.97219
4.810817
4.669161
4.54692
4.443325
4.357329
4.288164
4.23495
4.196984
4.173294
4.163069
4.165648
4.180724
4.207936
4.247015
4.297862
4.360784
4.43622
4.524668
4.626593
4.742246
4.872016
5.016327
5.17566
5.350498
5.541275
5.748938
5.974898
6.219773
6.483201
6.764114
7.060289
7.366953
7.676509
7.982677
8.286016
8.59739
8.942404
9.365557
9.928698
10.72495
11.93514
13.97063
18.02332
29.30129
100.5132
90.6644
23.8996
13.43938
10.24589
8.809446
7.963147
7.36456
6.891479
6.49477
6.152736
5.855044
5.596792
5.372202
5.176608
5.003682
4.851584
4.718621
4.60344
4.504827
4.42189
4.354245
4.301474
4.262944
4.238106
4.226406
4.227347
4.240507
4.26585
4.303091
4.352149
4.413019
4.485714
4.571286
4.671222
4.785797
4.914969
5.059128
5.218868
5.394914
5.588046
5.799064
6.028633
6.27706
6.544035
6.828143
7.126185
7.432922
7.741781
8.046185
8.34416
8.646041
8.979063
9.389807
9.941809
10.72781
11.92677
13.94974
17.98488
29.23681
100.6021
91.19317
24.47797
13.68713
10.31454
8.795254
7.913875
7.307611
6.840304
6.455235
6.126842
5.842941
5.597664
5.386116
5.202101
5.040419
4.898067
4.773001
4.66372
4.569483
4.489982
4.42452
4.37266
4.333954
4.30816
4.294967
4.294099
4.304882
4.327984
4.362874
4.409496
4.467824
4.537837
4.620869
4.718878
4.832327
4.961052
5.105294
5.265584
5.442627
5.63722
5.85016
6.082057
6.333069
6.602578
6.88879
7.188155
7.494931
7.801675
8.101833
8.394659
8.690523
9.015326
9.414935
9.955101
10.73105
11.92167
13.93203
17.94171
29.12451
100.6197
91.57458
25.04552
13.95096
10.40861
8.801711
7.885646
7.26879
6.803583
6.426894
6.109614
5.837702
5.604396
5.404043
5.230155
5.07775
4.943741
4.825994
4.722985
4.633664
4.557278
4.493508
4.442244
4.403446
4.376844
4.36228
4.359628
4.368342
4.389164
4.421637
4.465727
4.521412
4.588648
4.668923
4.76461
4.876536
5.004533
5.148641
5.309281
5.487141
5.683013
5.897637
6.131512
6.384652
6.656241
6.944186
7.244587
7.55144
7.857122
8.154621
8.44244
8.731189
9.047961
9.439095
9.97111
10.7407
11.92516
13.93003
17.93694
29.11477
100.5612
91.81683
25.53294
14.21074
10.52094
8.836329
7.882235
7.24806
6.779423
6.406893
6.097593
5.835279
5.611718
5.420882
5.256236
5.112477
4.986226
4.875081
4.777361
4.691992
4.618411
4.556456
4.505974
4.466945
4.439379
4.423327
4.418814
4.425481
4.444021
4.474116
4.515804
4.569195
4.634557
4.712536
4.805424
4.915557
5.042964
5.187127
5.348311
5.527172
5.724485
5.940937
6.17691
6.43221
6.705729
6.995008
7.295758
7.601636
7.904845
8.198485
8.481397
8.764463
9.074971
9.459062
9.983979
10.74789
11.92723
13.92598
17.91646
29.05344
100.4896
92.00658
26.00765
14.47708
10.6472
8.884783
7.887503
7.236448
6.762596
6.391838
6.088199
5.833302
5.617281
5.434085
5.277124
5.140454
5.020557
4.914953
4.821883
4.740218
4.66932
4.608916
4.559048
4.519868
4.491597
4.4744
4.468418
4.473474
4.490209
4.518457
4.558334
4.610012
4.673804
4.750253
4.841637
4.950614
5.077576
5.222101
5.384334
5.564779
5.764089
5.982826
6.221208
6.478819
6.754261
7.04474
7.345644
7.650389
7.951053
8.240728
8.518384
8.795303
9.099381
9.477095
9.996273
10.75587
11.93174
13.927
17.91436
29.04159
100.3468
92.0879
26.41458
14.73471
10.78092
8.945365
7.90788
7.235641
6.75253
6.38016
6.079278
5.829214
5.618457
5.441109
5.290158
5.159454
5.044877
4.943868
4.854643
4.77604
4.707432
4.648595
4.599608
4.560699
4.532177
4.514333
4.507432
4.511466
4.527063
4.5542
4.593073
4.643917
4.70705
4.78291
4.87368
4.982223
5.109331
5.254744
5.418508
5.60096
5.802589
6.023794
6.264602
6.524355
6.801355
7.09249
7.392856
7.695683
7.993052
8.278282
8.550755
8.822251
9.12111
9.493834
10.00865
10.76532
11.93905
13.93175
17.91219
29.01284
100.2263
92.30528
26.81704
14.99067
10.91818
9.012143
7.933889
7.238279
6.745045
6.369351
6.069319
5.822442
5.615913
5.440878
5.293124
5.167
5.057171
4.960277
4.874433
4.798566
4.732083
4.674824
4.626934
4.5887
4.560477
4.542649
4.535566
4.539329
4.554611
4.581497
4.620258
4.671192
4.734627
4.810893
4.901978
5.010862
5.138747
5.285555
5.451241
5.63599
5.840123
6.063856
6.307007
6.56867
6.846868
7.138204
7.437537
7.737963
8.031599
8.312
8.578983
8.844899
9.138634
9.506896
10.01813
10.77242
11.94456
13.93586
17.91377
29.00167
100.0615
92.43162
27.17233
15.24047
11.0603
9.085491
7.965887
7.246466
6.740029
6.358546
6.057199
5.811542
5.607358
5.435726
5.289906
5.165038
5.056725
4.962079
4.878987
4.805865
4.741919
4.686841
4.640655
4.603698
4.576444
4.559377
4.552917
4.557221
4.57306
4.600569
4.640082
4.69196
4.756631
4.834678
4.927084
5.036484
5.16552
5.314364
5.482423
5.669709
5.876433
6.102666
6.34802
6.611345
6.890394
7.18151
7.479355
7.776947
8.066517
8.341958
8.603627
8.864499
9.153963
9.518855
10.02777
10.78105
11.95315
13.94466
17.92088
28.99483
99.94528
92.72737
27.57539
15.49154
11.20058
9.159475
7.999542
7.255716
6.735032
6.346121
6.041698
5.795533
5.592102
5.421541
5.277045
5.153674
5.047718
4.955681
4.874725
4.803195
4.740465
4.686329
4.641362
4.60602
4.580477
4.565062
4.560154
4.565866
4.583139
4.612142
4.653274
4.706943
4.773601
4.853829
4.948412
5.05974
5.190616
5.341557
5.512069
5.70203
5.911448
6.140177
6.387609
6.652348
6.931902
7.222385
7.518303
7.812644
8.097793
8.368021
8.624272
8.880181
9.165639
9.527611
10.03466
10.78714
11.95915
13.95077
17.92599
28.99087
99.80751
93.16741
27.9342
15.73278
11.34391
9.237057
8.035618
7.265977
6.729611
6.3317
6.022597
5.774398
5.5704
5.39996
5.255857
5.13291
5.02721
4.93568
4.856043
4.786892
4.727162
4.676332
4.634106
4.600722
4.576813
4.562917
4.559527
4.566868
4.58614
4.617332
4.660794
4.716976
4.786342
4.869394
4.966736
5.08062
5.213927
5.367377
5.540564
5.733285
5.945379
6.176493
6.425786
6.691628
6.971296
7.260714
7.55428
7.845015
8.125516
8.390485
8.641503
8.89288
9.174982
9.534867
10.04105
10.79388
11.9673
13.96115
17.93839
28.9992
99.72183
93.00162
28.25971
15.99022
11.49079
9.315728
8.071978
7.275694
6.722633
6.314526
5.999471
5.748008
5.542361
5.371176
5.226803
5.103839
4.998327
4.907323
4.828664
4.760827
4.702809
4.654123
4.614549
4.584107
4.563138
4.552151
4.551701
4.561852
4.583703
4.617464
4.663795
4.723024
4.795603
4.882008
4.982738
5.099794
5.235944
5.392121
5.56808
5.763554
5.978211
6.211485
6.462318
6.72886
7.008191
7.296085
7.586884
7.873687
8.149337
8.408996
8.654889
8.901993
9.181096
9.539312
10.04496
10.79825
11.97288
13.96834
17.94657
29.00108
99.6092
114.3083
29.22039
16.29183
11.64439
9.395417
8.108037
7.28432
6.71369
6.294396
5.972354
5.716646
5.508503
5.335912
5.190818
5.067594
4.962203
4.871704
4.793972
4.727521
4.671363
4.624913
4.587904
4.560357
4.54254
4.534807
4.537473
4.551186
4.57641
4.613671
4.663355
4.726059
4.802265
4.892418
4.996911
5.117461
5.256707
5.415778
5.594549
5.792671
6.009663
6.244778
6.496762
6.763577
7.042138
7.328117
7.615841
7.898522
8.169285
8.423774
8.664858
8.908164
9.184821
9.541916
10.04801
10.80277
11.97992
13.97906
17.96199
29.01824
99.53739
115.2398
29.7051
16.55303
11.79175
9.475209
8.144105
7.29198
6.70275
6.27128
5.941338
5.680587
5.469304
5.294846
5.148755
5.025176
4.919956
4.830109
4.753502
4.688641
4.634531
4.590564
4.556438
4.532088
4.517636
4.513352
4.519435
4.536734
4.565599
4.606515
4.659972
4.726475
4.806554
4.900688
5.009489
5.133879
5.275971
5.437825
5.619481
5.82016
6.039225
6.275821
6.528555
6.795234
7.072647
7.356392
7.640817
7.919276
8.185192
8.434691
8.67125
8.910982
9.185365
9.541956
10.04855
10.80511
11.98451
13.98648
17.97261
29.02915
99.46415
115.3938
30.0766
16.79269
11.93066
9.552599
8.17868
7.29784
6.689419
6.24513
5.906669
5.64033
5.425474
5.248852
5.101616
4.977673
4.872728
4.783721
4.708476
4.645468
4.593667
4.552423
4.521402
4.500471
4.48968
4.489193
4.499037
4.5201
4.552657
4.597316
4.654606
4.725017
4.809006
4.907113
5.019924
5.14818
5.293686
5.458425
5.642601
5.845485
6.066325
6.304102
6.557265
6.823483
7.099448
7.380728
7.661726
7.935963
8.197176
8.441986
8.674384
8.911357
9.184886
9.54158
10.04913
10.80722
11.98968
13.99612
17.98886
29.05378
99.43472
115.3842
30.50246
17.04972
12.07334
9.630844
8.213233
7.302728
6.674147
6.216245
5.868645
5.596249
5.377493
5.198519
5.05008
4.925828
4.82131
4.733366
4.659752
4.598894
4.549719
4.511527
4.483888
4.466593
4.459606
4.462981
4.477078
4.502162
4.538608
4.586946
4.647866
4.721988
4.809797
4.911783
5.028485
5.160509
5.309399
5.476996
5.66357
5.86843
6.090747
6.329375
6.582626
6.848061
7.122309
7.400951
7.678481
7.948592
8.205311
8.445688
8.674506
8.909196
9.181494
9.538462
10.04745
10.80725
11.99251
14.00249
18.00013
29.07114
99.39168
115.5871
30.91415
17.3112
12.20982
9.702102
8.243947
7.304262
6.656119
6.184597
5.827675
5.549028
5.326246
5.144887
4.995313
4.870908
4.76704
4.680427
4.608733
4.550313
4.504021
4.469111
4.445056
4.431605
4.428655
4.43613
4.454448
4.48372
4.524266
4.576481
4.640947
4.718461
4.809724
4.915247
5.035518
5.171073
5.323237
5.493579
5.682337
5.888878
6.112331
6.351455
6.604458
6.86882
7.141127
7.416986
7.691004
7.957102
8.209647
8.446003
8.671745
8.904394
9.176083
9.533778
10.04461
10.80722
11.99545
14.01004
18.0152
29.09913
99.37674
115.9015
31.38267
17.5914
12.3467
9.768742
8.271027
7.303797
6.635583
6.150331
5.784043
5.499159
5.272422
5.08881
4.938287
4.813963
4.711016
4.626027
4.556555
4.500866
4.457738
4.426307
4.406024
4.396543
4.397714
4.409524
4.432074
4.465538
4.51018
4.56634
4.634439
4.715159
4.80942
4.917974
5.04136
5.180088
5.335236
5.508047
5.698702
5.906607
6.130858
6.370131
6.622532
6.885478
7.155586
7.428615
7.699327
7.961753
8.210282
8.443294
8.666278
8.897378
9.168802
9.527418
10.04003
10.80482
11.99598
14.01455
18.0257
29.12073
99.38099
116.1248
31.8164
17.87059
12.48064
9.829898
8.293654
7.299609
6.612557
6.114044
5.738621
5.447635
5.217079
5.03139
4.880142
4.756164
4.654424
4.571342
4.504359
4.451634
4.411878
4.384126
4.367758
4.36236
4.367676
4.383726
4.410488
4.448089
4.496741
4.556739
4.628459
4.712365
4.809313
4.920379
5.046334
5.18774
5.345472
5.520438
5.712718
5.921716
6.146477
6.385616
6.637244
6.898814
7.166949
7.437237
7.704489
7.962875
8.208056
8.438131
8.659131
8.889297
9.160812
9.520512
10.03505
10.80222
11.99609
14.01962
18.03837
29.14921
99.43359
116.5822
32.29921
18.16772
12.61924
9.890815
8.314104
7.292761
6.587025
6.075681
5.691601
5.395015
5.161103
4.973738
4.82211
4.698777
4.598505
4.517567
4.453275
4.403697
4.367415
4.343421
4.330993
4.329688
4.339141
4.359338
4.390192
4.431781
4.48427
4.547911
4.623037
4.710077
4.809607
4.922741
5.050716
5.19427
5.354128
5.53088
5.724475
5.934319
6.159437
6.398403
6.649205
6.909174
7.174938
7.442314
7.706259
7.961779
8.203921
8.43135
8.650426
8.879682
9.151421
9.512366
10.02887
10.79853
11.99579
14.02248
18.04692
29.17052
99.48576
116.6997
32.68836
18.45065
12.75419
9.947757
8.331163
7.283841
6.560231
6.036555
5.644129
5.34215
5.105093
4.916319
4.764619
4.642243
4.543731
4.465204
4.40385
4.357615
4.32493
4.30471
4.296187
4.298849
4.312369
4.336552
4.37132
4.416699
4.472811
4.539861
4.618147
4.708059
4.810097
4.925154
5.054618
5.199714
5.361168
5.539303
5.733919
5.944336
6.169452
6.407752
6.65725
6.915409
7.178784
7.443599
7.705096
7.957792
8.197078
8.421934
8.639243
8.867991
9.140352
9.5028
10.02141
10.79345
11.9935
14.02423
18.05555
29.19204
99.5165
117.373
33.13879
18.75216
12.8948
10.00749
8.349454
7.274716
6.533035
5.997384
5.597177
5.290423
5.050744
4.860933
4.709394
4.58814
4.491527
4.415499
4.357078
4.314057
4.284842
4.268293
4.263602
4.270163
4.287576
4.315591
4.354082
4.403032
4.462518
4.53271
4.613868
4.706354
4.810638
4.927386
5.057999
5.204135
5.366667
5.545752
5.740971
5.951507
6.176204
6.413563
6.661573
6.917726
7.179093
7.441527
7.700324
7.950391
8.187429
8.41063
8.626982
8.855463
9.12834
9.492251
10.01309
10.78754
11.99038
14.02464
18.06095
29.20557
99.50845
118.2197
33.60114
19.02873
13.0286
10.05924
8.361106
7.2624
6.504439
5.957927
5.550697
5.239643
4.997726
4.807254
4.656291
4.536531
4.442103
4.368725
4.313279
4.273479
4.247709
4.23477
4.233759
4.244019
4.265093
4.296678
4.338603
4.390814
4.453355
4.526366
4.610076
4.704811
4.81101
4.929237
5.060764
5.207465
5.370544
5.550103
5.74553
5.955888
6.179965
6.416176
6.662729
6.917174
7.176366
7.436492
7.692981
7.940848
8.175927
8.397628
8.613225
8.841896
9.115813
9.48141
10.00438
10.78121
11.98687
14.02457
18.06806
29.22644
99.51013
100.1314
33.52411
19.26906
13.1634
10.11209
8.371675
7.249367
6.475575
5.918631
5.504815
5.189975
4.946321
4.755614
4.605516
4.487425
4.395234
4.324522
4.272085
4.235583
4.213295
4.203966
4.206512
4.220286
4.24479
4.27969
4.324781
4.379963
4.44524
4.520718
4.606611
4.703233
4.811009
4.930491
5.062726
5.20967
5.372953
5.552673
5.748039
5.957967
6.181196
6.416276
6.661295
6.913896
7.171088
7.429142
7.683587
7.929564
8.163055
8.383625
8.598691
8.827507
9.102228
9.469346
9.994409
10.77347
11.98174
14.02307
18.07029
29.2376
99.51882
100.0772
33.79618
19.55751
13.31145
10.16765
8.382666
7.237153
6.448514
5.882112
5.462488
5.144399
4.899279
4.708414
4.559109
4.442543
4.352431
4.284251
4.234699
4.201332
4.182302
4.176282
4.182146
4.199194
4.226871
4.264788
4.312698
4.370491
4.438156
4.51578
4.603549
4.701757
4.810814
4.931258
5.063988
5.211018
5.374281
5.553875
5.748894
5.95819
6.180452
6.41419
6.657595
6.908389
7.163674
7.419821
7.672456
7.91682
8.149014
8.368745
8.583581
8.812833
9.088568
9.457225
9.984218
10.76535
11.97617
14.02114
18.07413
29.25754
99.54925
118.4791
34.65691
19.87865
13.46631
10.22518
8.394789
7.22705
6.424424
5.849166
5.424119
5.103005
4.856607
4.665724
4.51733
4.402357
4.314359
4.248676
4.201881
4.171423
4.155387
4.152371
4.161224
4.181174
4.21163
4.252183
4.302556
4.362609
4.432311
4.511737
4.601055
4.700536
4.810572
4.931685
5.064711
5.211702
5.374744
5.55396
5.74836
5.95673
6.177765
6.410015
6.651742
6.90075
7.154229
7.408634
7.659675
7.90268
8.133845
8.35299
8.567783
8.797571
9.074343
9.444507
9.973331
10.75628
11.96903
14.01643
18.07405
29.2657
99.58216
119.7946
35.078
20.14707
13.61163
10.28118
8.407564
7.218725
6.402879
5.819387
5.389426
5.065683
4.818267
4.627524
4.480112
4.366737
4.280781
4.217446
4.173201
4.145409
4.13221
4.13189
4.143424
4.165964
4.19888
4.241737
4.294251
4.356248
4.427671
4.508567
4.599092
4.699511
4.810209
4.931708
5.064817
5.211608
5.374244
5.552841
5.746364
5.953587
6.17323
6.403899
6.64393
6.891207
7.143003
7.395848
7.645522
7.887421
8.117817
8.336614
8.551559
8.782015
9.059891
9.431584
9.962291
10.74729
11.96255
14.01338
18.07567
29.28285
99.65027
120.0715
35.37194
20.39525
13.75617
10.33852
8.422203
7.213004
6.384657
5.793497
5.359018
5.032899
4.784608
4.594062
4.447622
4.335774
4.251738
4.19059
4.148697
4.123348
4.112652
4.114758
4.128655
4.153462
4.188529
4.233379
4.287692
4.351279
4.424068
4.506097
4.597513
4.698576
4.809669
4.931313
5.06432
5.210775
5.372843
5.550622
5.743057
5.948943
6.167055
6.396072
6.634406
6.88002
7.130256
7.381709
7.630214
7.871222
8.101057
8.319684
8.534903
8.76607
9.045003
9.418089
9.950426
10.73703
11.95406
14.00741
18.07502
29.29233
99.71114
120.0642
35.60655
20.63468
13.90225
10.39879
8.440567
7.211962
6.371222
5.772522
5.333664
5.005263
4.756122
4.565726
4.420144
4.309654
4.227322
4.16811
4.128297
4.105103
4.096553
4.100787
4.11673
4.143472
4.180338
4.22683
4.282608
4.347465
4.421313
4.50418
4.596206
4.697648
4.808888
4.930451
5.063192
5.209194
5.37056
5.547356
5.73853
5.942932
6.159412
6.386734
6.623391
6.867417
7.116216
7.366433
7.613951
7.854259
8.083722
8.302351
8.517982
8.74996
9.030023
9.40456
9.93861
10.72699
11.94606
14.0021
18.07448
29.3025
99.75523
121.0901
35.96925
20.87295
14.04847
10.46066
8.461777
7.214001
6.362115
5.756517
5.313581
4.98301
4.733013
4.542677
4.397797
4.288459
4.207587
4.150036
4.112002
4.090638
4.083896
4.089921
4.107578
4.135931
4.17427
4.222078
4.278995
4.344802
4.419401
4.502813
4.595173
4.696739
4.807896
4.929176
5.061498
5.206937
5.367476
5.543141
5.732906
5.935698
6.150466
6.376067
6.611076
6.853589
7.101063
7.350186
7.596875
7.836648
8.065897
8.284659
8.500786
8.733591
9.01472
9.390563
9.926096
10.71591
11.93656
13.9947
18.07068
29.30757
99.76746
105.4984
35.76416
21.06558
14.19176
10.52678
8.487174
7.221217
6.358677
5.746354
5.299338
4.966511
4.715507
4.525033
4.380619
4.272166
4.192462
4.13626
4.099679
4.079812
4.074551
4.082036
4.101079
4.130706
4.170185
4.218981
4.276721
4.343174
4.418235
4.50192
4.594365
4.695827
4.806698
4.927514
5.05928
5.204049
5.363647
5.538055
5.726289
5.927378
6.140383
6.364264
6.597671
6.838758
7.085023
7.333188
7.579198
7.818589
8.047768
8.266786
8.483498
8.717181
8.999402
9.376567
9.913624
10.70499
11.92741
13.98787
18.06756
29.31243
99.79099
105.9336
35.98851
21.28618
14.3414
10.60097
8.516313
7.230934
6.359429
5.74131
5.290569
4.955561
4.703469
4.51267
4.368471
4.260614
4.18177
4.126598
4.091149
4.072454
4.06834
4.076946
4.097039
4.127615
4.167923
4.217408
4.275685
4.342508
4.417767
4.501477
4.593779
4.694934
4.805338
4.925535
5.056626
5.200635
5.359194
5.532236
5.71884
5.918155
6.129371
6.351547
6.583407
6.82315
7.068311
7.315635
7.561086
7.800212
8.029425
8.248775
8.466109
8.70066
8.983908
9.362275
9.90067
10.69332
11.91711
13.97932
18.06193
29.31429
99.81744
106.8961
36.35641
21.52777
14.49901
10.68342
8.550853
7.245215
6.365518
5.741959
5.287936
4.950487
4.696953
4.505517
4.361244
4.253694
4.17541
4.120963
4.086334
4.068501
4.065233
4.074661
4.0955
4.126719
4.167539
4.217387
4.275858
4.342759
4.417969
4.501492
4.593446
4.694106
4.803876
4.923326
5.053652
5.196821
5.354252
5.525826
5.710713
5.908202
6.117616
6.338115
6.568484
6.806963
7.051109
7.29769
7.54268
7.781635
8.010962
8.230705
8.448697
8.684125
8.968393
9.347953
9.887698
10.68171
11.90703
13.97128
18.05726
29.31623
99.86912
107.7661
36.66549
21.76195
14.66066
10.77294
8.591152
7.264761
6.376954
5.748018
5.290186
4.951038
4.69669
4.504527
4.359827
4.252158
4.174002
4.119851
4.085608
4.068184
4.06527
4.07496
4.096067
4.127527
4.168541
4.218523
4.277069
4.343875
4.418829
4.501945
4.593375
4.693371
4.802351
4.920977
5.050486
5.192719
5.348921
5.518916
5.701999
5.89762
6.105236
6.324093
6.553027
6.790308
7.033513
7.279426
7.524031
7.762883
7.992382
8.212558
8.431222
8.66751
8.952747
9.333403
9.874343
10.66948
11.89597
13.96172
18.05038
29.31776
99.92031
108.5742
36.86201
21.96725
14.81831
10.86723
8.637372
7.29
6.393939
5.759628
5.298212
4.956207
4.699591
4.506431
4.361268
4.253407
4.175222
4.121152
4.087071
4.06988
4.06728
4.07738
4.098736
4.130314
4.171322
4.221172
4.279449
4.345888
4.420367
4.502897
4.593619
4.692811
4.800875
4.918465
5.047045
5.188394
5.343278
5.511532
5.692735
5.886476
6.092317
6.30958
6.537139
6.773287
7.01562
7.260934
7.505222
7.744035
7.97376
8.194409
8.413764
8.650909
8.937092
9.318808
9.860917
10.65721
11.88501
13.95254
18.0443
29.31924
99.9808
109.4144
37.06795
22.16945
14.98122
10.96853
8.689322
7.32158
6.417495
5.777458
5.312044
4.967237
4.708803
4.514212
4.368054
4.259539
4.180945
4.126629
4.092402
4.075109
4.072396
4.08232
4.103505
4.134866
4.175583
4.225053
4.282853
4.348716
4.422521
4.504281
4.594138
4.692374
4.799424
4.916034
5.043662
5.183879
5.337264
5.503696
5.682972
5.874853
6.078983
6.29472
6.520967
6.756045
6.997567
7.242344
7.48637
7.725191
7.955177
8.176313
8.396349
8.634311
8.92137
9.304047
9.847197
10.64447
11.87333
13.94218
18.03606
29.31646
100.015
110.2251
37.25625
22.36186
15.14454
11.07655
8.751551
7.358475
6.444344
5.799816
5.330821
4.983244
4.722707
4.526496
4.379103
4.269652
4.190341
4.135463
4.100774
4.083071
4.079967
4.089482
4.11023
4.141109
4.181283
4.230139
4.287246
4.352336
4.425287
4.506113
4.594966
4.692131
4.798147
4.913752
5.040244
5.179117
5.330895
5.495517
5.672917
5.862982
6.065437
6.27969
6.504677
6.738737
6.979499
7.223784
7.467589
7.706446
7.936707
8.158329
8.379028
8.617773
8.905668
9.289267
9.833443
10.63176
11.86182
13.93232
18.02891
29.3151
100.0463
111.1503
37.49328
22.56495
15.31499
11.19377
8.823127
7.401787
6.476069
5.82691
5.354325
5.003896
4.74108
4.543037
4.394165
4.28351
4.203203
4.147477
4.112038
4.093644
4.089886
4.098734
4.118795
4.14895
4.188352
4.236378
4.292592
4.356726
4.428658
4.508408
4.596132
4.692174
4.797115
4.911597
5.036817
5.174213
5.32431
5.487114
5.662671
5.85097
6.051805
6.264626
6.488398
6.721482
6.96152
7.20534
7.448938
7.687836
7.918359
8.140439
8.361753
8.601219
8.889875
9.274312
9.819418
10.61865
11.8497
13.92142
18.01982
29.30957
100.0666
111.9307
37.68186
22.75185
15.48581
11.31817
8.903113
7.451772
6.51328
5.85896
5.382462
5.028952
4.763643
4.563551
4.412969
4.300866
4.219307
4.162474
4.126026
4.106684
4.102023
4.10996
4.129097
4.158301
4.196714
4.243708
4.298844
4.361853
4.432617
4.511161
4.597673
4.692563
4.79635
4.909564
5.033369
5.169187
5.317566
5.478577
5.652346
5.838935
6.038198
6.249627
6.472218
6.70435
6.94368
7.187043
7.430431
7.669354
7.900115
8.122618
8.344507
8.584652
8.874034
9.259284
9.805318
10.6055
11.83767
13.91093
18.01182
29.30623
100.0966
112.4772
37.84715
22.95276
15.66326
11.45045
8.990859
7.508412
6.55593
5.895773
5.415135
5.058282
4.790226
4.587837
4.435303
4.321509
4.238455
4.180269
4.142566
4.12203
4.116228
4.123017
4.141001
4.169035
4.206254
4.252025
4.305909
4.36764
4.437103
4.514354
4.599634
4.693303
4.795782
4.907596
5.029897
5.164089
5.310743
5.469989
5.642012
5.826938
6.02467
6.234742
6.456175
6.687371
6.926001
7.168904
7.412069
7.650994
7.881961
8.104845
8.327261
8.56803
8.858073
9.244058
9.79092
10.59193
11.82502
13.89947
18.002
29.29706
100.1131
125.5196
38.31442
23.15573
15.84256
11.58939
9.087491
7.574335
6.603992
5.936002
5.451471
5.091308
4.820415
4.615572
4.46089
4.345188
4.26041
4.200634
4.161438
4.139474
4.132303
4.13772
4.154336
4.180995
4.216828
4.261201
4.31368
4.374003
4.442091
4.518028
4.602
4.694304
4.795356
4.905688
5.02644