# Region type : patch riser
# Faces        : 200
# Area         : 6.7000000e-01
# Scale factor : 1.0000000e+00
# Time         	areaAverage(T)
4600           	3.9298323e+02
4700           	3.9303265e+02
4800           	3.9303378e+02
