# Region type : patch plate
# Faces        : 200
# Area         : 6.7000000e-01
# Scale factor : 1.0000000e+00
# Time         	areaAverage(T)
4600           	6.0749743e+02
4700           	6.0577697e+02
4800           	6.1046993e+02
