# Region type : patch riser
# Faces        : 200
# Area         : 6.7000000e-01
# Scale factor : 1.0000000e+00
# Time         	areaAverage(T)
3400           	3.8469802e+02
3500           	3.8473643e+02
3600           	3.8474974e+02
