# Region type : patch riser
# Faces        : 200
# Area         : 6.7000000e-01
# Scale factor : 1.0000000e+00
# Time         	areaAverage(T)
100            	4.0500000e+02
200            	4.0500000e+02
300            	4.0500000e+02
400            	4.0500000e+02
500            	4.0500000e+02
600            	4.0500000e+02
700            	4.0500000e+02
800            	4.0500000e+02
900            	4.0500000e+02
1000           	4.0500000e+02
1100           	4.0500000e+02
