# Region type : patch plate
# Faces        : 200
# Area         : 6.7000000e-01
# Scale factor : 1.0000000e+00
# Time         	areaAverage(T)
1600           	5.1921995e+02
1700           	5.1931378e+02
1800           	5.1937694e+02
1900           	5.1942558e+02
2000           	5.1946473e+02
