/*--------------------------------*- C++ -*----------------------------------*\
| =========                 |                                                 |
| \\      /  F ield         | OpenFOAM: The Open Source CFD Toolbox           |
|  \\    /   O peration     | Version:  2312                                  |
|   \\  /    A nd           | Website:  www.openfoam.com                      |
|    \\/     M anipulation  |                                                 |
\*---------------------------------------------------------------------------*/
FoamFile
{
    version     2.0;
    format      ascii;
    arch        "LSB;label=32;scalar=64";
    class       volScalarField;
    location    "4800";
    object      alphat;
}
// * * * * * * * * * * * * * * * * * * * * * * * * * * * * * * * * * * * * * //

dimensions      [1 -1 -1 0 0 0 0];

internalField   nonuniform List<scalar> 
12000
(
2.800197e-05
0.0001575051
0.0001771818
0.0001805633
0.000168367
0.0001625517
0.0001892575
0.0002367987
0.0002070134
0.0001559198
0.0001541385
0.0002109317
0.0002372411
0.0001746279
0.0001480431
0.0001733143
0.0002150708
0.0001858394
0.0001539379
0.0001636252
0.0001920336
0.000178535
0.00015566
0.0001633829
0.0001826248
0.0001705873
0.0001543577
0.000160723
0.0001724341
0.0001666878
0.0001597864
0.0001585752
0.0001573266
0.0001618304
0.0001691771
0.0001647014
0.0001506514
0.0001425321
0.0001572108
0.0001859511
0.0001729342
0.0001380506
0.0001216531
0.0001453159
0.0002293473
0.0001953969
0.0001152217
0.0001050839
0.0001571064
0.0002590728
0.0001344977
9.705858e-05
0.0001227991
0.0001600155
0.000125262
9.551505e-05
8.886481e-05
7.77238e-05
6.753845e-05
5.518569e-05
1.733644e-05
0.0001793198
0.0002069714
0.0002567153
0.000291764
0.0003373304
0.0003844504
0.0004283994
0.0004785726
0.000553663
0.0006354095
0.0006878994
0.0007280804
0.0008094777
0.0009133441
0.0009857318
0.001021709
0.001090446
0.001196975
0.00128037
0.001320406
0.001383748
0.001484323
0.001558865
0.001593431
0.001654828
0.001747684
0.001803724
0.001828695
0.001866864
0.001921284
0.001956491
0.001980917
0.001992287
0.001991506
0.002000416
0.002012716
0.002017965
0.001989429
0.00193657
0.001911338
0.001788898
0.001863982
0.001777695
0.001652608
0.001297097
0.001170787
0.001445775
0.001297621
0.0011605
0.0008596132
0.000954497
0.0008129733
0.0006838782
0.0005742891
0.0004363574
0.0002989274
0.0001832551
9.355921e-05
5.12788e-05
2.536745e-05
0.0002396706
0.0003312537
0.000404092
0.0004981734
0.0006110609
0.0007365219
0.0008673691
0.001004816
0.001155126
0.001303942
0.001407658
0.00157802
0.001719056
0.001861296
0.001990412
0.002109633
0.002229326
0.002346633
0.002452708
0.002548591
0.002642091
0.002731057
0.002809676
0.00288017
0.002947745
0.003009769
0.003061996
0.00310744
0.003147135
0.003184192
0.003212894
0.003237103
0.003254875
0.003267018
0.003273383
0.003273409
0.003267069
0.003253804
0.003233601
0.003205768
0.003169139
0.003121519
0.003069289
0.003006883
0.002893051
0.002802831
0.002684028
0.002431281
0.002193108
0.002184685
0.001905953
0.001676574
0.001377638
0.001169755
0.001085986
0.0007557271
0.0004210389
0.0001553246
5.070334e-05
2.766328e-05
0.0002660495
0.0004143381
0.0005371147
0.0006939934
0.0008728601
0.001066271
0.001268669
0.001477186
0.001690915
0.001901843
0.002106308
0.002235582
0.002480788
0.002647607
0.00280394
0.002949228
0.003084069
0.003208432
0.003322985
0.003428571
0.003525992
0.003615341
0.003696849
0.003771153
0.003838659
0.003899304
0.003953123
0.004001597
0.004042848
0.004077161
0.004104984
0.004127185
0.004142479
0.004150085
0.004149665
0.004141085
0.004124034
0.004097906
0.004061893
0.00401508
0.003956522
0.00388529
0.003798526
0.00369922
0.003584172
0.003451598
0.003299676
0.003127706
0.002934455
0.002539551
0.002080746
0.001945255
0.001736439
0.001634094
0.001297595
0.0009354149
0.00056442
0.0002294829
5.162148e-05
2.784238e-05
0.0002960393
0.0005014609
0.000676925
0.0008903664
0.001126532
0.001376426
0.001632269
0.001886864
0.002136591
0.002378139
0.002610491
0.002831498
0.003035834
0.003221144
0.003389859
0.003545445
0.003689081
0.003821075
0.003942922
0.004055676
0.004159879
0.004256057
0.004344709
0.004426169
0.004500587
0.004568038
0.004628005
0.004682547
0.004728734
0.004767489
0.004799412
0.004824145
0.004841083
0.00484976
0.00484971
0.004841087
0.004823393
0.004796075
0.004758529
0.004710116
0.004650145
0.004577933
0.004492423
0.004392414
0.004276413
0.00414374
0.003991551
0.003819165
0.003436933
0.002958697
0.002889369
0.002723216
0.002430394
0.002084299
0.001670839
0.001206318
0.0007206035
0.0002827214
5.140021e-05
2.844678e-05
0.0003176896
0.0005789266
0.0007995588
0.001054909
0.001332628
0.00162249
0.001915072
0.00220177
0.002477265
0.002737661
0.002982131
0.003210609
0.00342461
0.003625205
0.003810394
0.003981462
0.004138257
0.004282433
0.004415554
0.004538684
0.004652625
0.00475803
0.004855391
0.004945018
0.005027071
0.005099138
0.005167472
0.005227032
0.005278217
0.005321421
0.005356206
0.005382505
0.005399817
0.005407739
0.005405503
0.005393077
0.005369901
0.005335492
0.005289175
0.005230234
0.005157883
0.005071223
0.004969244
0.004850812
0.00471421
0.004557529
0.004381598
0.004183176
0.003956176
0.003695129
0.003397728
0.003065655
0.002697338
0.002288874
0.001837224
0.001345091
0.0008269513
0.0003396586
5.165804e-05
2.923835e-05
0.000326268
0.0006435659
0.0009046265
0.001191078
0.001496474
0.00180967
0.002121215
0.002424265
0.002715011
0.002991352
0.003252886
0.003498452
0.003725823
0.003936695
0.004131973
0.004311135
0.004477659
0.004632829
0.004777491
0.004912435
0.005038295
0.00515553
0.005264419
0.005365074
0.00545747
0.005540771
0.005617077
0.00568429
0.005742184
0.005790587
0.005829229
0.005858224
0.00587694
0.005884937
0.00588179
0.005867228
0.005840631
0.005801599
0.005749696
0.005684402
0.005605092
0.005510998
0.005401212
0.005274488
0.005129949
0.004964574
0.004779511
0.004567376
0.004324594
0.004048954
0.003737704
0.003386579
0.002990621
0.002545537
0.002049047
0.001503362
0.0009247557
0.0003791868
5.169195e-05
3.00286e-05
0.0003338112
0.0006958022
0.0009906289
0.001296889
0.001616552
0.001943118
0.00226996
0.002589266
0.002894205
0.00318258
0.003452629
0.003704713
0.003940801
0.004160937
0.004367045
0.00456074
0.004742415
0.004912696
0.005072417
0.005222288
0.005362838
0.005494437
0.005617199
0.005730931
0.00583294
0.005928369
0.00601325
0.006088402
0.006153539
0.006208161
0.006251633
0.006284077
0.00630476
0.00631317
0.006308894
0.00629155
0.006260724
0.00621601
0.006156977
0.00608314
0.005993937
0.005888716
0.005766586
0.005626732
0.005467816
0.005286006
0.005080932
0.004848411
0.004585924
0.0042903
0.003957961
0.003584675
0.003166236
0.002698762
0.002179622
0.001610041
0.001003438
0.0004211914
5.180188e-05
3.175827e-05
0.0003363545
0.0007299959
0.001054049
0.001375492
0.001709402
0.002046839
0.00237975
0.002702837
0.003013743
0.003309559
0.003589123
0.003852551
0.004100628
0.004334182
0.004554217
0.004762507
0.004960328
0.005147856
0.00532501
0.005491614
0.005647522
0.00579238
0.005927281
0.006053183
0.006168625
0.006275749
0.006372612
0.006457835
0.006531039
0.0065919
0.006640136
0.006675766
0.006698074
0.00670651
0.006700638
0.006680074
0.006644443
0.00659336
0.006526384
0.006443089
0.006343144
0.006226198
0.006091964
0.005939322
0.005765391
0.005568376
0.005348522
0.005102507
0.004827053
0.004517426
0.004170728
0.003781139
0.003343556
0.002853085
0.002306479
0.001705161
0.001064232
0.0004488545
5.181034e-05
3.113113e-05
0.0003520492
0.0007589146
0.001105517
0.001441427
0.001779071
0.002118602
0.002454215
0.002781461
0.003097464
0.00340029
0.003689073
0.003963786
0.004224926
0.00447324
0.004709573
0.004933904
0.005146324
0.005346567
0.005537631
0.00571936
0.00589179
0.006055151
0.006208267
0.006349088
0.006479323
0.006598069
0.006704601
0.006798348
0.006878785
0.006945416
0.006997904
0.007036071
0.007059235
0.00706686
0.007058509
0.007033832
0.006992559
0.00693451
0.006858775
0.006764463
0.006651672
0.006520144
0.006369297
0.006198792
0.00600918
0.005797458
0.005562399
0.005301099
0.005010876
0.004688919
0.004328197
0.003922458
0.00346859
0.002961521
0.002398011
0.001779024
0.001118011
0.000477775
5.18428e-05
3.067011e-05
0.0003494862
0.0007701456
0.001137032
0.00148127
0.001822909
0.002164085
0.002501603
0.002831995
0.003152691
0.003462108
0.003759536
0.00404489
0.004318381
0.004580293
0.004829566
0.005068253
0.005297321
0.005518062
0.005728154
0.005927849
0.006117049
0.006295426
0.006462444
0.006616073
0.006758819
0.006888485
0.007004526
0.007106378
0.007193483
0.007265305
0.007321454
0.007361565
0.007384904
0.007390906
0.007379085
0.007349018
0.007300315
0.007232601
0.007146383
0.007042139
0.006919074
0.006776569
0.006614005
0.006430657
0.006225684
0.00599837
0.005747821
0.005471959
0.005167754
0.004830883
0.004456535
0.004040822
0.003574569
0.003053078
0.002472922
0.001835227
0.001154554
0.000495707
5.177727e-05
3.445493e-05
0.0003314232
0.0007694413
0.001160236
0.001516155
0.001861217
0.002202378
0.002539345
0.00287018
0.003193164
0.003507201
0.003811734
0.004106565
0.004391613
0.004665963
0.004931345
0.005186568
0.005431801
0.005667125
0.005892226
0.006106796
0.006310341
0.006502336
0.006682228
0.006848626
0.007002464
0.007142168
0.007267011
0.007376303
0.00746938
0.007545603
0.007604419
0.007645392
0.007668114
0.007672195
0.007657247
0.007622901
0.00756882
0.007494689
0.007400211
0.007285114
0.007149237
0.006992401
0.006814423
0.006615138
0.006393539
0.006150797
0.0058854
0.005596381
0.005281462
0.004935956
0.00455351
0.004127344
0.003651878
0.003120209
0.002529568
0.001880688
0.001187427
0.0005136172
5.177086e-05
3.409891e-05
0.0003292183
0.000763649
0.001165197
0.001529106
0.001876507
0.002217189
0.002553564
0.002885299
0.003211361
0.003530686
0.003842405
0.004145702
0.004439573
0.004723343
0.004960834
0.005134051
0.005304477
0.005565327
0.005854683
0.006181678
0.006468956
0.006675537
0.006868952
0.007048011
0.007212444
0.007361045
0.007493058
0.007608013
0.007705389
0.007784664
0.007845389
0.007887103
0.007909219
0.007911242
0.007892729
0.0078533
0.007792633
0.007710472
0.007606619
0.007480934
0.007333336
0.007163776
0.006972197
0.006758659
0.006523087
0.00619251
0.005855507
0.005584244
0.005358782
0.005008402
0.004621538
0.004190665
0.003708609
0.003170281
0.002570864
0.001911644
0.001207471
0.0005236573
5.168001e-05
3.419692e-05
0.0003207951
0.0007528026
0.001164935
0.00153683
0.00188756
0.002228727
0.002564646
0.00289613
0.003222682
0.003543438
0.00385726
0.004162303
0.004425519
0.004527709
0.004614243
0.004724889
0.004900611
0.00515074
0.005452949
0.005771967
0.006043525
0.006310459
0.006590276
0.006891219
0.007213951
0.007533994
0.007671474
0.007791517
0.007893162
0.007975615
0.008038273
0.008080576
0.008101963
0.008101926
0.00808003
0.008035922
0.007969335
0.007880083
0.007768047
0.007633139
0.007475423
0.00729519
0.007019858
0.006660255
0.006308105
0.005965631
0.005664653
0.005449105
0.005285241
0.005053326
0.004666652
0.004234707
0.003750214
0.003207217
0.002602131
0.001936537
0.001225179
0.0005332219
5.166449e-05
3.47068e-05
0.000311537
0.0007381093
0.001156273
0.00153666
0.001892142
0.002234833
0.002570594
0.002901427
0.003227454
0.003547754
0.003860415
0.004152638
0.004279837
0.004358919
0.004476436
0.004643054
0.004826426
0.005006668
0.005218983
0.005459291
0.005749246
0.006043613
0.006356991
0.00667635
0.006987188
0.007261939
0.007519605
0.007769782
0.007998813
0.008117598
0.008182125
0.008225165
0.00824608
0.008244375
0.008219625
0.008171508
0.008099832
0.008004541
0.007885735
0.00767696
0.007413891
0.007120456
0.006794861
0.006433665
0.006072809
0.005757428
0.005500449
0.005301353
0.005140687
0.004999154
0.004695921
0.004264545
0.003778455
0.003232321
0.00262295
0.001951953
0.001234794
0.0005376821
5.157731e-05
3.525177e-05
0.0003028651
0.0007225666
0.001145811
0.001532045
0.001891469
0.002235574
0.002571069
0.002900803
0.003225298
0.003543612
0.003853789
0.004085389
0.004209389
0.004340953
0.004466974
0.004597057
0.004742178
0.004917861
0.005138162
0.005388648
0.005649632
0.005927805
0.006210839
0.006498121
0.006783729
0.007057941
0.007304273
0.007523967
0.007727923
0.007929207
0.008145429
0.008212985
0.008152536
0.008121403
0.008076691
0.008007637
0.007908617
0.007777902
0.007614086
0.007414783
0.007179135
0.006908085
0.00660517
0.006279746
0.005946042
0.005619674
0.005340222
0.005144606
0.005039531
0.004955899
0.004716039
0.004285318
0.003798449
0.003250452
0.002638522
0.001964157
0.00124322
0.0005417357
5.15383e-05
3.571825e-05
0.000295775
0.0007068261
0.001130851
0.001521597
0.001885168
0.002231197
0.002566639
0.002894965
0.003217231
0.003532952
0.00384062
0.00410114
0.004238124
0.004333423
0.004431552
0.004550384
0.004709164
0.004910417
0.005116865
0.005345828
0.005590367
0.00585927
0.006133886
0.006408922
0.006675095
0.006923083
0.007147078
0.007347918
0.007533139
0.007722938
0.007957668
0.008041156
0.007960784
0.007906735
0.007856694
0.007791753
0.0077026
0.007583365
0.007429229
0.00723699
0.007006982
0.006742572
0.006448687
0.006134912
0.005818324
0.005521042
0.005264659
0.005066139
0.004942268
0.004868496
0.004729498
0.004300351
0.003813545
0.003264273
0.00264994
0.001973283
0.001249286
0.0005442967
5.147313e-05
3.611216e-05
0.0002893655
0.0006913936
0.001114721
0.001509762
0.001876537
0.002224051
0.00255923
0.002885983
0.003205881
0.00351893
0.003824078
0.004066847
0.004206988
0.004318403
0.004433694
0.004565951
0.004720197
0.004895167
0.005103541
0.005340242
0.005598122
0.005849126
0.006105746
0.006362103
0.006610376
0.006841733
0.007049692
0.007234304
0.007406562
0.007595877
0.007859954
0.00797761
0.007887874
0.00781227
0.007747908
0.007677249
0.007585826
0.007464877
0.007309795
0.007118506
0.006891187
0.006630446
0.006341669
0.006034025
0.005721592
0.005424277
0.005166649
0.004974907
0.004863427
0.004809407
0.004707195
0.004307558
0.003821254
0.003271606
0.002656404
0.001978119
0.001252427
0.0005456288
5.142351e-05
3.640267e-05
0.0002839933
0.0006773922
0.001098222
0.001494818
0.001863733
0.002213128
0.002548574
0.002874181
0.003192014
0.003502561
0.003805176
0.004065363
0.004215134
0.004330606
0.004446217
0.004579427
0.004738507
0.004925697
0.005141826
0.005369638
0.005610763
0.00586251
0.006120443
0.00637411
0.006615768
0.006838531
0.007038585
0.007217703
0.007385037
0.007556692
0.007750122
0.007964415
0.007960981
0.007800451
0.007708434
0.007628838
0.007532718
0.007407153
0.007246946
0.007050719
0.006819674
0.00655732
0.006269696
0.005966164
0.005660283
0.005370179
0.005116956
0.004924327
0.004808634
0.004754632
0.004666155
0.004311721
0.003826084
0.003276029
0.002659808
0.001980394
0.001253834
0.0005461903
5.137598e-05
3.667898e-05
0.0002796809
0.0006644928
0.001081781
0.001479228
0.001850865
0.002201115
0.002536397
0.002860963
0.003177109
0.003485758
0.00378683
0.004079647
0.004246533
0.004375759
0.004504822
0.004648233
0.004812676
0.004999533
0.005206035
0.005434825
0.00567844
0.00593277
0.006185068
0.006430677
0.006663003
0.006875916
0.00706589
0.007234756
0.007391973
0.00755446
0.007740667
0.007963695
0.00798375
0.007821712
0.007709407
0.007609441
0.007498426
0.007362416
0.007194529
0.006992708
0.006758222
0.006494866
0.006208772
0.005908825
0.005607538
0.005321974
0.005072801
0.004884015
0.004772834
0.004726124
0.004650661
0.004314351
0.003828916
0.003278464
0.002661608
0.001981608
0.001254468
0.0005466149
5.132626e-05
3.683689e-05
0.0002765233
0.0006537395
0.001066717
0.001463517
0.001835987
0.002187281
0.002522888
0.002846902
0.003161971
0.003469462
0.00376981
0.004062217
0.004297916
0.004448235
0.00458754
0.004737932
0.004907175
0.005097588
0.005307704
0.005535238
0.005774457
0.006020776
0.006266037
0.006505007
0.006729714
0.006934112
0.007114857
0.007272913
0.007415776
0.007560164
0.007732676
0.007967012
0.008012168
0.007849327
0.007717101
0.007597527
0.007471572
0.007324704
0.007148904
0.006941488
0.006703654
0.006439372
0.006154844
0.005858646
0.005562457
0.005281931
0.005036814
0.00485008
0.004739244
0.004693722
0.004626557
0.004314684
0.003829615
0.003278947
0.002661638
0.001981168
0.001254318
0.0005464417
5.127153e-05
3.708177e-05
0.0002745905
0.0006447261
0.001052523
0.001448083
0.00182095
0.002173118
0.00250902
0.002832843
0.003147408
0.003454399
0.003754627
0.00404891
0.004336156
0.004540087
0.004695461
0.004855264
0.005030028
0.005221899
0.005431085
0.005654448
0.005888398
0.006128148
0.006368815
0.006599781
0.006814825
0.007008986
0.007179262
0.007325726
0.007454096
0.007580831
0.007737384
0.007967011
0.008027627
0.007871342
0.007727303
0.007592571
0.007452121
0.007293648
0.007109528
0.006896678
0.006655964
0.006391227
0.006108503
0.005815927
0.005524425
0.005248608
0.00500786
0.00482462
0.00471657
0.004674372
0.004613763
0.004314749
0.003829677
0.003278621
0.002660896
0.001980314
0.001253368
0.0005459891
5.122326e-05
3.718134e-05
0.0002737066
0.0006375973
0.001040182
0.001433542
0.001806196
0.002158806
0.002495194
0.002819217
0.003133795
0.003440853
0.003741511
0.004036341
0.004326355
0.004611768
0.004824425
0.004993233
0.005172431
0.005367007
0.005574387
0.005791985
0.00602121
0.006255126
0.006486481
0.006707087
0.006911674
0.007095538
0.007256246
0.007393329
0.007508412
0.007610547
0.007730436
0.007939364
0.008077123
0.007936959
0.007729237
0.007581062
0.007434607
0.007268749
0.00707725
0.006858877
0.006615095
0.00634972
0.00606854
0.005779246
0.005492108
0.005220906
0.004984308
0.004804229
0.004698305
0.004658144
0.004602116
0.004313893
0.003828705
0.00327724
0.002659083
0.001978515
0.001252056
0.0005453698
5.117453e-05
3.740698e-05
0.0002732111
0.0006320191
0.001029695
0.001420455
0.001792398
0.0021452
0.002482068
0.002806568
0.003121621
0.003429324
0.003731072
0.004027776
0.004320094
0.004608345
0.004892609
0.005155653
0.005337807
0.005525393
0.005731488
0.005950217
0.006173064
0.006396375
0.006615187
0.00682551
0.00701999
0.007193228
0.007342653
0.007469079
0.007577051
0.007675741
0.00777969
0.007904348
0.008042554
0.007982861
0.007767543
0.007592798
0.007426497
0.007248616
0.007049426
0.006825988
0.006579463
0.006313604
0.00603395
0.005747753
0.005464712
0.005197946
0.004965593
0.004789188
0.004686257
0.004648765
0.004596124
0.004313254
0.003827723
0.003275755
0.002657237
0.001976477
0.001250373
0.0005445635
5.113594e-05
3.745869e-05
0.0002742733
0.0006285733
0.001020967
0.001408812
0.001779729
0.002132607
0.002470031
0.00279527
0.003111189
0.003419982
0.003723209
0.004021945
0.004316912
0.004608569
0.004897203
0.00518302
0.005465797
0.005720501
0.00591628
0.006118054
0.006332283
0.006550161
0.006762519
0.006962507
0.007145235
0.007306813
0.007444613
0.007558667
0.007652773
0.007736148
0.007823416
0.00792688
0.008050749
0.007999197
0.007787877
0.007603146
0.007423476
0.007234048
0.00702645
0.006797586
0.006548262
0.006281907
0.00600369
0.0057204
0.005441221
0.0051787
0.004950513
0.004777828
0.004677954
0.004642894
0.004592535
0.004312594
0.003826521
0.003273911
0.002654926
0.001974131
0.001248541
0.0005436361
5.110192e-05
3.748674e-05
0.0002759868
0.0006257358
0.001013574
0.001398722
0.001768626
0.002121505
0.002459545
0.002785743
0.003102871
0.003413153
0.003718246
0.00401932
0.004317165
0.004612257
0.004904815
0.005194795
0.005481844
0.005765296
0.006044136
0.006316801
0.006518734
0.006713921
0.006911928
0.007103332
0.007277802
0.007429087
0.007555245
0.007656918
0.007737268
0.007803314
0.007867573
0.007948821
0.008059921
0.008014399
0.00780853
0.007613525
0.007421014
0.007221081
0.007005959
0.006772259
0.006520519
0.006253903
0.005977207
0.005696768
0.005421307
0.005162912
0.004938909
0.004770171
0.004673753
0.004641385
0.004592582
0.004312519
0.003825708
0.003272321
0.002652759
0.001971812
0.001246646
0.0005427124
5.107428e-05
3.880474e-05
0.0002723846
0.0006229338
0.001007729
0.001390485
0.001759243
0.002112186
0.002450973
0.002778377
0.00309707
0.00340927
0.003716673
0.0040205
0.004321558
0.004620297
0.004916845
0.005211009
0.005502271
0.005789788
0.006072382
0.006348566
0.006616621
0.006874472
0.007082907
0.007253693
0.007411272
0.007551676
0.007667914
0.007758014
0.007825108
0.007875851
0.00792183
0.007979222
0.008066989
0.008020888
0.007821944
0.007620828
0.007418808
0.007209851
0.006987821
0.006749697
0.006495895
0.006229261
0.005954182
0.005676545
0.005404652
0.005150232
0.004930339
0.004765594
0.004672732
0.004642962
0.004594965
0.004313027
0.003825282
0.003270971
0.002650726
0.001969584
0.00124479
0.0005417786
5.105482e-05
4.049115e-05
0.0002750994
0.0006190008
0.001004105
0.001384038
0.001751725
0.002104779
0.002444549
0.00277352
0.003094233
0.00340887
0.00371913
0.004026241
0.004330995
0.004633787
0.004934641
0.005233226
0.005528866
0.00582055
0.006106949
0.006386448
0.006657184
0.006917077
0.007163918
0.007395357
0.007562566
0.00768589
0.007786945
0.007865164
0.007919726
0.007954469
0.007977443
0.008004506
0.008065351
0.008046303
0.007854152
0.00762094
0.007410568
0.007197576
0.00697164
0.006730303
0.006474854
0.006208334
0.005934842
0.005659837
0.00539126
0.005140597
0.004924716
0.004764032
0.004674916
0.004647843
0.004600157
0.004314658
0.003825587
0.003270165
0.002649116
0.001967606
0.001243029
0.0005408477
5.10412e-05
4.101305e-05
0.000278751
0.0006084889
0.001002835
0.00137983
0.001746439
0.002099793
0.00244074
0.002771634
0.003094868
0.003412537
0.003726298
0.004037339
0.004346393
0.004653766
0.004959359
0.005262692
0.005562921
0.005858868
0.006149048
0.006431714
0.006704903
0.006966385
0.007214019
0.007445634
0.007658786
0.007831497
0.007923579
0.007985181
0.008026062
0.00804883
0.008058835
0.008061604
0.008057062
0.008031533
0.00787948
0.007638391
0.007413935
0.007190469
0.006958234
0.006713565
0.0064569
0.006190819
0.005919055
0.005646679
0.005381285
0.005134181
0.00492213
0.004765402
0.004680015
0.004655545
0.004607516
0.004316584
0.003826547
0.003269917
0.002647975
0.001965963
0.00124145
0.0005399911
5.10346e-05
4.152013e-05
0.0002821014
0.000599442
0.001002426
0.001376893
0.001742768
0.002096767
0.002439553
0.002773025
0.00309946
0.00342088
0.003738878
0.004054564
0.004368577
0.004681097
0.004991875
0.005300261
0.005605238
0.005905453
0.006199261
0.00648479
0.006759831
0.007022439
0.007270266
0.007501319
0.007712965
0.00790338
0.008064339
0.008124152
0.008148615
0.008153903
0.00814458
0.008124207
0.008091657
0.00804224
0.007887924
0.007649643
0.00741917
0.007188071
0.006949829
0.006701612
0.006443664
0.006177958
0.005907579
0.005637098
0.005374103
0.005130078
0.004921741
0.004769115
0.004687777
0.004666173
0.004617556
0.004319796
0.003828195
0.0032704
0.002647392
0.001964702
0.001240193
0.0005392177
5.102642e-05
4.136446e-05
0.0002853077
0.0005914891
0.000988378
0.001376845
0.00174168
0.002096531
0.002441507
0.002778124
0.003108482
0.003434447
0.003757487
0.004078587
0.004398244
0.004716478
0.005032864
0.005346566
0.005656384
0.005960807
0.006257937
0.00654562
0.006822158
0.007085178
0.007332451
0.007562123
0.007771506
0.007958989
0.008122849
0.008261596
0.008289376
0.008277144
0.008245072
0.008197139
0.008136278
0.008061857
0.00789969
0.007662983
0.007427301
0.007189374
0.006945582
0.00669386
0.006434216
0.006168275
0.00589941
0.005631514
0.005371728
0.005130776
0.004925738
0.004776467
0.004698555
0.004679231
0.004629652
0.004324124
0.003830893
0.003271663
0.002647469
0.001964087
0.001239251
0.0005385678
5.102716e-05
4.164128e-05
0.0002883417
0.0005844245
0.0009754726
0.001378423
0.001742869
0.002099286
0.002446836
0.002787336
0.003122368
0.003453713
0.003782645
0.00410996
0.00443596
0.004760466
0.005082857
0.005402025
0.005716447
0.006024256
0.006324043
0.00661386
0.006891257
0.007154054
0.007400188
0.007627413
0.007833828
0.008017675
0.008177411
0.00831173
0.00841569
0.008406209
0.008356443
0.00828525
0.008195777
0.008090203
0.007914623
0.007678497
0.00743888
0.0071955
0.006946976
0.006692617
0.00643326
0.006169447
0.005901982
0.005633763
0.005373182
0.005134262
0.004932538
0.004787488
0.004714346
0.004698284
0.004646645
0.004329527
0.003834432
0.003273515
0.002648128
0.001963834
0.001238568
0.0005380249
5.103326e-05
4.17816e-05
0.0002918368
0.0005786762
0.0009634009
0.001382642
0.001747025
0.002105033
0.002456218
0.002801458
0.003142409
0.003480084
0.003815746
0.004149987
0.004482802
0.004813638
0.005141417
0.005465434
0.005784171
0.006095944
0.006398378
0.006689411
0.006966876
0.007228624
0.007472725
0.007696944
0.007899619
0.008079156
0.008234189
0.008363596
0.008466511
0.008523933
0.008474565
0.008381958
0.008264003
0.008126018
0.007933569
0.007694792
0.007450213
0.007202497
0.006951327
0.00669582
0.006433942
0.006166716
0.005897499
0.005633848
0.00537993
0.005144268
0.004943886
0.004801016
0.00472913
0.00471418
0.004661324
0.004335797
0.003838883
0.003276338
0.002649575
0.001964162
0.00123828
0.0005377141
5.105192e-05
4.223237e-05
0.000294849
0.0005736261
0.0009530496
0.001387653
0.00175294
0.002113682
0.002469043
0.002819664
0.003166669
0.003511399
0.003854401
0.00419593
0.004535822
0.004873511
0.005208115
0.005537784
0.005860908
0.006175604
0.00647979
0.006771339
0.007048132
0.00730812
0.007549324
0.007769918
0.007968284
0.008143015
0.008292935
0.008417114
0.008514862
0.008585721
0.008581821
0.008483324
0.008340495
0.008169095
0.007956944
0.007713381
0.007463515
0.007209715
0.006952219
0.006691096
0.006428342
0.006164566
0.005901158
0.005639391
0.005386255
0.005152158
0.004954035
0.004812125
0.004742066
0.004729445
0.004675517
0.004342971
0.003844101
0.003279741
0.002651466
0.001964864
0.00123824
0.0005374463
5.106937e-05
4.232564e-05
0.0002988058
0.0005704775
0.000945
0.001395183
0.001762278
0.002126501
0.002486855
0.002843773
0.003198107
0.003550629
0.003901715
0.004251307
0.004598906
0.004943587
0.00528404
0.005618601
0.005945407
0.006262451
0.006567658
0.006858952
0.007134297
0.007391773
0.007629505
0.007845872
0.008039432
0.008208966
0.008353488
0.008472249
0.008564729
0.008630619
0.008669803
0.008581341
0.008422498
0.008220962
0.00798717
0.00773427
0.007475452
0.007215961
0.006957427
0.006698378
0.006437632
0.006174281
0.005909285
0.005645881
0.005391811
0.005159219
0.00496521
0.004829153
0.004764176
0.004750943
0.004692506
0.004351291
0.003850326
0.003284044
0.002654042
0.001966187
0.001238645
0.0005374595
5.10912e-05
4.260567e-05
0.0003013331
0.0005671975
0.0009359388
0.001403368
0.001772975
0.002141637
0.002508121
0.002872488
0.003235161
0.003596456
0.003956354
0.004314429
0.004669844
0.00502139
0.005367535
0.005706507
0.006036366
0.006355092
0.006660649
0.006951031
0.007224305
0.007478656
0.007712422
0.007924143
0.008112568
0.008276672
0.008415655
0.008528938
0.008616154
0.008677121
0.008711825
0.008665045
0.008504842
0.008280148
0.008021156
0.007755724
0.007491376
0.007230637
0.006971481
0.006711868
0.006449295
0.006184837
0.005919809
0.005657957
0.005405448
0.005173733
0.004979909
0.004844386
0.004781274
0.004772688
0.004714541
0.004360396
0.003857214
0.003288947
0.002657229
0.001967937
0.001239313
0.0005375902
5.110881e-05
4.372207e-05
0.0003052048
0.0005667546
0.0009313406
0.001406775
0.001788224
0.002162406
0.002536048
0.002908713
0.003280348
0.003650814
0.004019678
0.004386149
0.004749079
0.005107016
0.005458265
0.005800962
0.00613315
0.006452835
0.006758043
0.007046799
0.007317401
0.007568132
0.007797514
0.008004277
0.008187362
0.00834593
0.008479358
0.008587226
0.008669303
0.008725525
0.008755963
0.008741349
0.008586177
0.008346194
0.008064923
0.007786816
0.007515781
0.00725045
0.006988526
0.006727294
0.006465112
0.006201043
0.005935999
0.00567354
0.005420711
0.005189515
0.004997334
0.00486437
0.004803665
0.004795076
0.00473293
0.004370313
0.003864817
0.003294412
0.002660806
0.001969997
0.00124013
0.0005378012
5.113844e-05
4.251244e-05
0.0003127454
0.0005666211
0.0009274738
0.001403608
0.001805354
0.002185517
0.002566929
0.002948561
0.003329784
0.003709932
0.00408811
0.00446314
0.004833577
0.005197755
0.005553848
0.005899934
0.006234051
0.006554243
0.006858617
0.007145307
0.007412809
0.007659572
0.007884312
0.00808595
0.00826362
0.008416661
0.008544613
0.008647202
0.008724317
0.008775989
0.008802363
0.008803668
0.00866743
0.008417004
0.008114194
0.007821754
0.007543034
0.007274508
0.007011253
0.006749207
0.006485941
0.006220759
0.005954801
0.005691746
0.005438617
0.005207472
0.005015923
0.004884508
0.004826403
0.004820343
0.004756578
0.004381242
0.003873351
0.003300742
0.002665124
0.001972506
0.001241304
0.0005381003
5.11714e-05
4.184224e-05
0.0003163098
0.0005666573
0.0009227009
0.001400298
0.001825067
0.002212243
0.002602299
0.002993613
0.003384951
0.003775095
0.004162688
0.00454619
0.004923892
0.005293951
0.005654443
0.00600341
0.006338905
0.006659043
0.00696205
0.007246235
0.007510252
0.007752755
0.007972658
0.008169073
0.008341315
0.008488892
0.008611494
0.008708972
0.008781316
0.008828628
0.008851103
0.008848995
0.008735732
0.008478315
0.008158776
0.007855264
0.007570563
0.007299159
0.00703448
0.006771579
0.006507618
0.006241697
0.00597486
0.005710905
0.005457093
0.005225776
0.005034812
0.004904793
0.004848533
0.004843574
0.004777546
0.004392579
0.003882302
0.003307482
0.002669844
0.001975439
0.001242835
0.0005385099
5.120752e-05
4.25726e-05
0.0003142916
0.0005677128
0.0009193629
0.001397914
0.00184768
0.002242853
0.002642334
0.003043905
0.003445724
0.003846027
0.00424301
0.004634792
0.005019424
0.005394917
0.005759278
0.006110549
0.006446848
0.006766405
0.007067523
0.007348869
0.007609132
0.007847201
0.008062183
0.008253379
0.008420276
0.008562534
0.008679972
0.008772546
0.00884033
0.008883485
0.008902241
0.008896867
0.00879251
0.008531516
0.008199895
0.007888388
0.007599449
0.007326204
0.007060718
0.00679715
0.006532298
0.006265241
0.005997145
0.005731984
0.005477203
0.005245382
0.005054628
0.004925702
0.004871197
0.004867443
0.004799113
0.004404555
0.003891808
0.003314676
0.002674917
0.001978613
0.001244362
0.0005390576
5.124268e-05
4.428823e-05
0.0003176393
0.0005701082
0.0009170662
0.001396612
0.001872988
0.002276867
0.002686416
0.003098734
0.003511332
0.003921895
0.00432818
0.004727991
0.005119172
0.005499627
0.005867338
0.006220395
0.006557016
0.006875575