/*--------------------------------*- C++ -*----------------------------------*\
| =========                 |                                                 |
| \\      /  F ield         | OpenFOAM: The Open Source CFD Toolbox           |
|  \\    /   O peration     | Version:  2312                                  |
|   \\  /    A nd           | Website:  www.openfoam.com                      |
|    \\/     M anipulation  |                                                 |
\*---------------------------------------------------------------------------*/
FoamFile
{
    version     2.0;
    format      ascii;
    arch        "LSB;label=32;scalar=64";
    class       volScalarField;
    location    "4800";
    object      G;
}
// * * * * * * * * * * * * * * * * * * * * * * * * * * * * * * * * * * * * * //

dimensions      [1 0 -3 0 0 0 0];

internalField   nonuniform List<scalar> 
12000
(
25495.56
22816.32
21620.32
20732.88
19807.56
18877.6
18087.4
17513.65
17136.38
16888.37
16711.74
16596.88
16584.6
16718.91
16984.01
17282.75
17479.64
17477.71
17271.17
16934.96
16564.19
16213.05
15875.9
15515.53
15109.59
14679.48
14285
13993.84
13848.17
13846.87
13948.62
14089.13
14202.26
14236.94
14167
13993.65
13742.01
13452.63
13170.06
12932.25
12763.79
12674.39
12661.97
12716.67
12824.74
12971.69
13144.3
13331.06
13520.57
13700.9
13860.9
13993.06
14094.39
14165.64
14208.7
14221.54
14198.51
14127.9
14037.34
13818.63
27843.29
26125.03
24707.64
23386.05
22058.16
20894.85
20035.6
19447.13
19011.46
18632.49
18287.21
18027.84
17933.05
18027.86
18236.11
18410.93
18420.1
18219.49
17862.1
17443.07
17029
16624.61
16193.18
15705.55
15177.27
14669.72
14260
14002.46
13904.96
13928.59
14005.95
14065.9
14054.28
13945.34
13743.53
13477.84
13191.57
12930.18
12730.45
12613.65
12584.44
12634.72
12749.69
12912.83
13108.19
13320.48
13534.62
13736.37
13913.53
14056.85
14159.8
14218.47
14232.65
14207.22
14151.22
14072.71
13974.2
13846.59
13712.85
13477.05
28232.88
27151.01
25787.44
24470.67
23291.3
22286.09
21461.83
20776.22
20174.31
19632.97
19188.57
18921.39
18887.55
19047.18
19259.15
19354.85
19232.09
18899.35
18445.65
17967.02
17507.43
17052.16
16566.68
16043.74
15523.21
15075.41
14764.18
14614.94
14604.24
14671.89
14745.34
14763.72
14693.14
14530.8
14300.1
14040.29
13794.57
13599.51
13477.91
13436.42
13467.9
13556.84
13685.25
13836.63
13997.11
14154.35
14296.36
14411.96
14492.7
14534.41
14536.65
14500.86
14429.54
14327.49
14203.16
14066.55
13924.26
13769.49
13619.22
13375.79
28243.75
27494.83
26071.4
24703.99
23743.45
23016.38
22295.34
21523.08
20762.98
20115.63
19684.51
19537.06
19645.64
19865.65
19995.23
19881.97
19497.54
18930.94
18315.12
17744.32
17237.29
16760.53
16281.94
15810.81
15399.33
15111.82
14986.71
15015.05
15144.12
15299.32
15410.94
15434.1
15356.98
15197.76
14994.34
14791.24
14627.66
14529.25
14504.9
14548.34
14643.13
14768.82
14906.25
15040.3
15160
15256.76
15322.6
15350.18
15334.82
15276.4
15179.17
15049.27
14892.4
14713.55
14518.76
14315.34
14111.06
13901.62
13715.73
13418.45
28079.93
27508.36
26097.87
24670.05
23738.04
23121.89
22504.3
21779.61
21034.62
20427.23
20089.69
20053.09
20210.72
20358.35
20301.36
19957.2
19382.58
18716.06
18084.98
17541.63
17063.21
16601.72
16138.67
15706.46
15368.51
15178.96
15150.41
15246.59
15399.07
15534.78
15600.27
15574.28
15467.85
15315.09
15159.68
15041.65
14987.75
15007.19
15092.88
15226.55
15385.2
15546.86
15693.96
15814.57
15901.42
15949.98
15956.68
15918.66
15835.19
15709.56
15549.34
15364.37
15163.35
14951.49
14731.27
14504.78
14278.99
14055.23
13873.77
13589.51
27882.18
27307
26044.94
24614.59
23450.73
22645.96
22069.88
21559.03
21062.5
20653.32
20425.59
20382.86
20409.66
20340.56
20067.04
19599.7
19045.11
18524.05
18095.06
17732.94
17368.22
16950.28
16487.64
16042.28
15689.83
15476.07
15395.45
15398.83
15419.67
15402.1
15318.49
15173.03
14994.36
14822.94
14697.64
14645.37
14675.56
14780.42
14939.65
15127.44
15318.78
15493.6
15638.05
15743.99
15807.55
15827.6
15804.54
15739.77
15636.13
15498.85
15336.33
15159.14
14976.9
14794.63
14612.32
14428.53
14249.24
14082.65
13964.88
13797.44
27716.06
26929.61
25803.26
24368.09
22898.8
21816.33
21232.65
20945.41
20753.1
20608.71
20534.45
20498.59
20398.18
20135.74
19700.37
19179.82
18698
18331.26
18064.75
17814.4
17492.33
17066.85
16579.02
16112.24
15741.72
15496.98
15355.25
15261.91
15160.88
15017.89
14828.91
14615.22
14411.65
14253.91
14168.44
14166.63
14243.74
14382.22
14557.73
14745.45
14924.69
15080.68
15204.08
15289.61
15334.85
15339.89
15307.11
15240.71
15145.95
15028.87
14896.72
14758.14
14621.36
14491.08
14367.39
14249.69
14144.71
14064.86
14030.48
14009.18
27359.88
25999.81
24803.33
23375.52
21858.01
20698.58
20068.3
19834.73
19825.11
19946.56
20126.37
20246.69
20172.97
19838.21
19293.8
18677.92
18126.85
17697.34
17351
17002.45
16589.95
16118.89
15654.63
15278.25
15039.13
14932.9
14911.37
14911.58
14884.53
14810.09
14696.06
14567.55
14454.34
14381.06
14361.67
14397.89
14480.89
14595.26
14723.63
14850.46
14963.96
15056
15120.89
15154.36
15153.56
15118.05
15050.75
14957.57
14845.83
14722.65
14594.44
14467.41
14347.58
14239.24
14144.37
14065.36
14009.82
13988.1
14004.4
14061.15
26063.67
24060.98
22913.82
21855.64
20762.49
19749.52
18997.19
18643.92
18709.43
19078.79
19539.85
19857.63
19864.09
19524.04
18935.86
18261.51
17631.45
17087.9
16596.59
16106.41
15607.87
15150.43
14813.46
14657.65
14690.84
14866.06
15106.67
15339.45
15517.67
15626.76
15676.34
15687.35
15681.14
15673.4
15672.23
15678.87
15689.77
15699.17
15701.19
15690.95
15664.55
15618.53
15549.23
15453.12
15327.96
15174.61
14998.25
14807.9
14614.21
14426.79
14252.52
14095.66
13959.3
13846.36
13759.85
13703.03
13679.84
13691.2
13725.13
13791.98
11286.74
14443.47
15940.62
16727.54
16984.32
16719.98
16290.67
16166.76
16554.18
17307.99
18102.26
18645.34
18803.68
18613.23
18212.52
17745.88
17289.76
16840.24
16358.57
15834.37
15319.66
14912.84
14708.51
14749.28
15008.15
15405.89
15847.33
16254.49
16582.74
16819.37
16972.23
17057.51
17091.55
17087.25
17053.47
16995.59
16916.61
16817.83
16699.31
16559.85
16397.07
16207.9
15989.55
15740.94
15464.28
15166.28
14858.37
14555.32
14272.45
14022.24
13811.79
13642.57
13513.05
13422.69
13373.38
13366.23
13396.58
13451.23
13504.01
13573.45
10884.7
13331.24
14647.24
15405.27
15684.01
15505.63
15183.15
15146.61
15587.47
16342.21
17073.79
17523.6
17631.38
17496.28
17261.16
17010.08
16733.12
16365.09
15860.71
15251.38
14647.48
14189.3
13981.67
14052.17
14351.09
14784.04
15253.03
15685.21
16041.9
16312.6
16503.61
16628.18
16700.69
16733.84
16737.45
16717.88
16677.89
16616.74
16530.52
16413.07
16257.48
16058.31
15813.87
15527.86
15209.98
14875.42
14543.24
14233.75
13965.21
13750.35
13593.89
13492.54
13438.86
13427.33
13457.19
13526.81
13623.82
13723.05
13797.98
13869.25
24294.88
20348.78
18903.49
18083.16
17318.66
16607.67
16083.76
15903.88
16102.41
16508.15
16855.08
16970.4
16860.06
16648.69
16453.99
16296.68
16099.99
15763.58
15250.19
14624.73
14025.88
13596.13
13417.33
13486.29
13734.03
14067.27
14405.57
14699.41
14929.76
15098.21
15216.59
15299.94
15362.64
15416.09
15467.12
15517.12
15562.11
15593.57
15599.98
15569.02
15490.36
15358.6
15175.5
14950.65
14700.29
14444.84
14205.93
14003.21
13851.43
13757.85
13720.92
13731.4
13776.71
13847.03
13938.13
14045.74
14155.82
14241.11
14293.51
14299.71
10442.7
11734.93
12700.19
13358.12
13597.8
13622.59
13700.15
13964.84
14391.06
14841.26
15160.04
15274.87
15234.35
15155.79
15126.82
15140.69
15114.92
14971.05
14706.76
14406.93
14192.87
14152.12
14296.19
14565.8
14870.04
15129.43
15300.4
15376.56
15376.04
15326.66
15255.83
15185.76
15131.74
15101.52
15095.32
15106.69
15124.37
15134.69
15124.13
15081.73
15001.33
14883.39
14735.65
14572.09
14410.18
14267.48
14158.56
14092.98
14074
14098.01
14155.24
14232.06
14314.56
14391.8
14456.56
14502.1
14519.87
14492.51
14443.26
14275.61
9402.769
10357.58
11312.25
12234.57
12901.91
13300.14
13593.97
13876.98
14131.34
14314.24
14407.15
14420.1
14388.57
14357.6
14347.18
14332.35
14270.99
14159.39
14061.14
14079.29
14292.35
14702.38
15229.65
15752.06
16159.33
16390.57
16441.6
16349.06
16166.82
15947.26
15731.34
15545.56
15402.58
15303.16
15239.08
15196.65
15160.74
15118.32
15060.98
14986.13
14897.02
14802.1
14713.55
14644.86
14607.7
14608.88
14648.69
14720.95
14814.42
14914.74
15007
15078.36
15119.37
15122.78
15081.53
14989.07
14847.43
14655.36
14470.42
14095.68
9130.386
9603.307
10218.14
11007.98
11923.92
12790.13
13440.75
13765.45
13762.7
13561.91
13346
13241.81
13273.45
13384.19
13482.96
13493.7
13402.37
13279.59
13253.85
13443.22
13887.29
14522.32
15211.6
15807.49
16207.08
16376.48
16342.18
16164.85
15912.86
15644.93
15402.63
15209.45
15072.97
14988.5
14943.45
14922.07
14910.11
14898.45
14884.87
14873.68
14873.72
14895.56
14948.92
15040.18
15170.23
15332.86
15514.68
15697.08
15859.77
15984.77
16059.75
16079.4
16043.58
15952.49
15803.26
15593.41
15334.66
15038.55
14781.2
14322.01
9093.06
9354.397
9753.239
10367.96
11363.52
12574.12
13567.33
13985.4
13781.9
13207.59
12624.25
12302.74
12318.32
12567.63
12866.79
13069.01
13143.38
13177.37
13308.82
13635.23
14156.42
14778.36
15364.81
15799.31
16023.63
16041.66
15899.05
15657.05
15373.16
15092.19
14844.39
14647.02
14506.79
14422.39
14387.14
14391.87
14427.96
14489.91
14576.65
14690.76
14836.09
15014.93
15226.01
15463.6
15717.27
15971.99
16208.79
16407.11
16548.79
16622.69
16627.37
16569.95
16461.15
16308.91
16115.87
15884.28
15627.64
15361.2
15146.69
14805.53
9101.027
9214.711
9503.718
10081
11130.04
12485.85
13632.48
14114.23
13841.75
13079.92
12250.25
11710.14
11605.73
11854.03
12249.67
12617.85
12910.81
13196.64
13572.2
14076.39
14660.29
15218.99
15649.71
15895.87
15956.96
15870.93
15687.92
15451.61
15192.88
14932.26
14684.8
14463.7
14281.48
14149.35
14075.61
14064.56
14116.42
14228.46
14396.14
14613.35
14871.46
15158.2
15457.63
15751.59
16021.71
16250.88
16423.85
16528.38
16558.01
16515.53
16413.95
16272.72
16110.63
15940.11
15766.9
15594.81
15431.16
15286.66
15183.9
15069.76
9129.746
9130.471
9364.257
10032.48
11180.83
12530.28
13602.46
14035.9
13775.61
13050.31
12232.77
11660.14
11484.67
11641.52
11953.23
12281.71
12608.48
13000.02
13513.71
14131.37
14762.87
15299.94
15671.75
15867.26
15920.96
15882.04
15789.2
15661.75
15504.5
15318
15107.08
14884.54
14670.4
14488.05
14359.37
14300.43
14319.2
14415.39
14581.77
14805.44
15068.58
15349.06
15622.04
15863
16051.3
16172.64
16219.64
16191.48
16094.54
15943.62
15760.99
15571.28
15394.35
15241.63
15118.14
15026.29
14965.83
14939.65
14933.3
14993.37
9157.743
9094.667
9339.235
10150.04
11375.39
12600.48
13461.56
13788.78
13602.1
13077.78
12486.07
12067.68
11914.65
11958.77
12075.85
12206.54
12392.54
12715.95
13211.99
13830.51
14465.19
15014.33
15425.49
15701.32
15875.48
15982.76
16041.81
16054.44
16014.88
15920.18
15776.18
15598.3
15408.59
15231.15
15087.5
14993.02
14955.31
14974.33
15043.86
15152.97
15287.06
15428.43
15557.42
15654.86
15705.38
15700.38
15639.06
15527.71
15378.37
15207.73
15035.2
14878.82
14750.95
14657.35
14600.18
14580.37
14594.05
14637.67
14678.5
14798.73
9170.935
9116.348
9471.786
10402.28
11572.95
12565.49
13208.27
13506.92
13509.65
13301.53
13014.73
12764.72
12584.55
12441.41
12312.92
12239.65
12306.86
12579.75
13052.53
13649.24
14267.04
14824.48
15284.52
15647.15
15927.41
16137.22
16280.03
16355.51
16366.89
16324.74
16245.69
16148
16046.96
15952.19
15867.28
15791.01
15719.51
15648.32
15574.12
15495.58
15413.08
15327.26
15237.52
15141.46
15036.17
14920.69
14798.14
14675.6
14562.04
14465.55
14391.59
14342.52
14318.24
14317.93
14341.91
14391.16
14461.64
14546.85
14610.92
14739.54
9170.48
9219.955
9777.343
10739.09
11691.61
12408.09
12932.68
13348.26
13653.3
13808.56
13790.67
13595.39
13245.63
12819.26
12450.29
12280.33
12391.94
12772.9
13332.7
13953.63
14540.8
15044.82
15455.15
15779.02
16024.08
16193.26
16289.71
16323.97
16316.61
16294.41
16281.98
16293.51
16328.45
16372.58
16403.5
16397.65
16336.36
16209.76
16018.25
15772.08
15489.18
15191.47
14900.26
14632.35
14398.56
14205.26
14057.32
13959.35
13913.73
13917.02
13959.02
14026.36
14108.45
14201.05
14305.13
14422.51
14549.1
14679.25
14777.29
14945.84
9176.856
9441.659
10220.83
11095.72
11767.03
12293.89
12836.87
13443.06
14041.6
14499.84
14667.3
14446.84
13885.45
13197.1
12669.32
12515.38
12778.66
13342.91
14020.1
14647.13
15137.72
15479.47
15700.11
15833.56
15903.74
15926
15916.12
15896.73
15896.29
15941.44
16047.08
16209.4
16405.18
16597.61
16746.01
16815.46
16783.41
16642.39
16399.55
16074.44
15695.57
15296.04
14908.13
14558.22
14263.94
14035.02
13876.55
13791.28
13778.11
13828.3
13924.68
14047.2
14181.9
14325.15
14479.55
14646.7
14820.86
15000.01
15146.51
15400.1
9226.584
9813.405
10755.23
11492.94
11996.26
12496.31
13113.51
13837.94
14598.1
15238.77
15530.99
15312.38
14647.24
13836.14
13251.09
13129.85
13475.55
14103.25
14770.19
15294.41
15603.86
15718.18
15700.39
15615.91
15514.61
15431.7
15394.73
15427.44
15547.18
15758.84
16049.36
16387.18
16727.56
17022.43
17230.75
17326
17298.67
17154.5
16910.52
16590.96
16223.9
15838.53
15462.11
15116.85
14817.96
14574.31
14391.13
14272.24
14219.08
14227.18
14284.51
14375.87
14490.83
14627.61
14788.18
14971.27
15168.18
15380.89
15568.63
15902.78
9372.625
10381.83
11440.71
12142.88
12671.14
13210.08
13807.34
14497.6
15280.13
15999.63
16376.48
16214.56
15582.99
14797.24
14226.21
14087.31
14364.42
14868.42
15368.54
15703.61
15823.49
15767.01
15613.63
15443.12
15316.94
15276.44
15346.62
15537.89
15844.43
16242.17
16689.99
17135.89
17527.24
17821.45
17993.63
18038.58
17967.4
17800.99
17563.23
17276.35
16959.07
16626.94
16293.26
15969.64
15665.93
15390.46
15150.85
14954.87
14809.85
14720.39
14686.1
14702.42
14764.46
14869.63
15015.04
15194.14
15395.14
15621.55
15829.2
16196.79
9849.573
11538.19
12778.81
13584.33
14172.55
14620.28
15034.85
15582.9
16305.9
17012.43
17404.06
17308.79
16807.68
16171.1
15686.03
15508.51
15618.98
15876.95
16119.25
16239.72
16217
16095.44
15946.62
15837.36
15814.64
15903.96
16112.44
16430.76
16833.51
17280.64
17722.58
18109.19
18399.98
18571.89
18621.96
18564.13
18422.18
18221.69
17983.56
17721
17439.94
17142.21
16829.54
16506.78
16182.83
15869.41
15578.93
15323.05
15112.56
14957.5
14865.86
14841.01
14880.27
14976.11
15118.23
15295.79
15496.42
15722.14
15927.45
16272.18
11357.31
13738.24
14974.82
15681.34
16059.31
16217.18
16391.31
16794.93
17406.24
17989.61
18301.63
18259.46
17953.6
17552.59
17201.03
16967.2
16842.28
16771.85
16698.03
16591.38
16460.05
16338.04
16265
16270.28
16366.8
16552.5
16813.79
17127.96
17464.46
17787.63
18061.89
18258.69
18362.58
18373.54
18304.79
18177.15
18012.19
17826.68
17629.58
17421.91
17199.2
16955.79
16689.59
16405.58
16116.07
15837.47
15585.28
15370.7
15201.26
15083.97
15026.43
15032.93
15098.95
15211.01
15353.64
15516.88
15693.96
15885.27
16053.68
16310.45
26207.05
23789.41
22538.29
21684.64
20856.85
20114.45
19683.09
19638.06
19810.92
19957.58
19951.04
19808.24
19591.14
19323.78
18991.04
18582.24
18119.98
17655.04
17243.36
16926.06
16721.54
16627.74
16629.21
16704.49
16831.39
16989.27
17158.76
17320.31
17453.98
17541.65
17571.06
17539.48
17454.81
17333.08
17193.41
17052.6
16921.23
16802.31
16692.25
16583.08
16465.62
16333
16184.08
16025.45
15870.44
15734.56
15629.44
15559.11
15521.6
15514.41
15538.22
15593.79
15675.05
15767.53
15857.09
15940.28
16021.76
16104.08
16173.03
16256.47
27683.05
25969.28
24685.68
23671.61
22647.23
21749.15
21210.49
21010.69
20930.54
20812.37
20671.35
20588.25
20563.24
20487.77
20232.26
19748.93
19107.19
18451.16
17922.75
17601.03
17485.02
17516.01
17616.38
17721.73
17794.64
17821.54
17801.48
17735.94
17624.87
17468.85
17273.52
17052.19
16824.5
16611.71
16431.26
16292.89
16197.89
16140.82
16112.54
16103.12
16104.01
16109.74
16119.24
16136.09
16166.84
16217.01
16286.66
16368.18
16448.81
16516.59
16565.19
16593.03
16597.56
16572.12
16511.48
16420.49
16315.17
16203.9
16105.83
15940.44
28122.92
27094.37
25925.4
24915.45
24008.34
23270.43
22766.38
22383.31
21977.98
21568.4
21299.18
21261.56
21380.64
21456.53
21298.29
20841.87
20180.37
19502.34
18987.1
18721.75
18679.91
18759.59
18845.69
18859.03
18772.76
18599.97
18369.56
18106.83
17826.74
17537.44
17247.41
16969.63
16720.79
16516.99
16369.33
16281.72
16251.56
16272.36
16336.52
16437.1
16568.38
16725.56
16904.34
17100.09
17306.63
17514.57
17710.18
17875.93
17993.1
18046.05
18026.22
17933.51
17774.04
17555.89
17287.63
16980.73
16656.11
16326.2
16045.48
15628.66
28217.14
27601.11
26443.2
25316.97
24583.77
24209.43
23892.35
23360.32
22613.09
21897.49
21482.22
21461.01
21711.38
21984.63
22045.48
21786.14
21263.12
20645.22
20109.85
19752.44
19557.44
19434.34
19283.04
19045.43
18720.17
18345
17966.99
17620.27
17319.6
17066.36
16858.29
16695.75
16582.65
16523.81
16521.94
16576.39
16683.82
16839.84
17040.32
17281.68
17559.98
17869.45
18200.98
18541.11
18871.96
19172.45
19420.66
19596.44
19683.14
19668.48
19546.37
19320.03
19004.01
18620.5
18191.16
17731.14
17258.1
16780.84
16381.8
15805.78
28197.08
27856.06
26734.6
25486.68
24848.79
24749.65
24577.02
23931.34
22938.07
22012.44
21502.02
21510.58
21908.86
22432.26
22803.43
22843.28
22527.88
21965.27
21312.38
20688.08
20131.94
19619.68
19109.28
18581.37
18052.01
17559.69
17142.65
16822.54
16601.37
16468.32
16409.13
16412.29
16470.58
16579.82
16736.9
16938.69
17181.94
17463.51
17780.46
18129.59
18506.24
18902.57
19305.89
19697.89
20055.79
20355.69
20577.02
20705.51
20732.93
20654.56
20468.52
20179.66
19804.84
19371.47
18906.78
18425.67
17937.4
17439.53
17026.52
16417.86
28111.37
27880.24
26889.54
25729.58
25125.61
24966.08
24650.09
23876.51
22856.42
22004.47
21615.9
21755.51
22289.29
22962.16
23494.23
23678.48
23442.4
22845.95
22026.11
21126.72
20251.03
19450.99
18743.08
18130.49
17616.78
17207.34
16904.38
16702.76
16590.45
16552.44
16575.08
16648.39
16766.25
16925.21
17123.08
17357.77
17626.5
17925.43
18249.63
18593.12
18948.63
19306.5
19653.4
19971.87
20242.18
20446.44
20573.06
20618.46
20584.58
20474.22
20288.89
20032.11
19715.4
19359.21
18984.82
18601.79
18211.2
17797.8
17449.88
16888.39
27992.97
27704.15
26941.42
26120.21
25491.91
24889.65
24110.53
23209.03
22426.43
21986.15
21978.54
22351.73
22946.01
23544.56
23936.73
23977.03
23617.72
22907.7
21965.89
20941.71
19974.81
19164.45
18555.62
18143.2
17889.01
17742.5
17657.62
17601.94
17558.49
17522.94
17498.76
17492.87
17512.49
17563.43
17649.13
17770.1
17923.48
18103.22
18301.04
18507.83
18714.65
18912.51
19091.41
19239.92
19346.93
19405.1
19413.87
19379.31
19310.24
19213.4
19091.19
18943.39
18771.01
18578.48
18371.68
18151.17
17914.02
17637.35
17389.81
16904.89
27840.51
27391.42
26920.38
26485.6
25694.1
24459.42
23170.75
22258.99
21888.73
21991.48
22409.89
22973.86
23518.15
23899.87
24021.32
23836.8
23344.9
22585.4
21644.96
20654.43
19762.25
19089.89
18692.69
18547.96
18574.79
18672.02
18754.31
18772.24
18713.96
18594.38
18440.53
18279.92
18134.03
18016.33
17932.79
17883.11
17861.96
17860.59
17868.99
17878.19
17881.77
17875.84
17857.97
17826.26
17780.13
17722.29
17659.87
17603.03
17561.3
17540.26
17540
17554.94
17574.36
17584.77
17574.76
17536.7
17468.78
17348.07
17218.29
16844.74
27638.74
26995.47
26757.02
26459.26
25371.95
23688.47
22203.47
21463.75
21478.54
21959.5
22604.07
23200.35
23624.59
23825.37
23802.5
23569.54
23125.42
22465.63
21623.57
20699.19
19842.23
19195.81
18836.65
18748.19
18838.27
18985.6
19087.64
19088.43
18981.07
18792.4
18562.22
18326.71
18109.99
17922.77
17765.15
17630.49
17508.92
17390.2
17266.17
17132.61
16989.92
16842.61
16697.65
16563.02
16447.01
16358.42
16306.28
16298.63
16340.65
16433.45
16573.26
16749.67
16943.72
17130.15
17286.81
17402.71
17479.87
17501.29
17491.48
17272.23
27198.4
26210.17
25967.17
25499.44
24239.57
22613.7
21362.81
20877.61
21080.09
21654.41
22285.88
22773.65
23049.42
23145.52
23127.24
23019.6
22778.37
22328.66
21638.58
20769.43
19865.21
19090.8
18560.03
18295.39
18235.41
18276.56
18321.98
18313.4
18237.84
18114.72
17975.48
17846.52
17740.62
17656.51
17583.6
17507.85
17416.74
17302.21
17161.89
16999.07
16821.9
16642.05
16473.23
16329.47
16223.41
16164.81
16159.73
16210.65
16317.25
16477.11
16684.87
16929.39
17191.23
17444.84
17667.92
17850.47
17996.98
18099.4
18174.95
18111.98
25922.18
24661.13
24429.48
23929
22956.69
21870.33
21061.41
20744.72
20909.7
21358.7
21825.76
22123.69
22226.91
22237.8
22271.99
22353.58
22392.38
22246.83
21818.47
21114.67
20247.93
19382.24
18662.83
18166.86
17893.28
17786.65
17774.96
17800.89
17835.32
17873.49
17921.93
17985.26
18059.1
18129.98
18180.34
18194.67
18164.08
18087.85
17972.33
17828.37
17669.01
17508.04
17359.56
17237.16
17151.9
17109.96
17111.84
17154.28
17233.63
17347.58
17493.54
17665.3
17851.12
18035.48
18204.26
18349.74
18474.59
18579.82
18680.98
18728.76
12549.2
16338.85
18389.45
19258.13
19590.09
19674.05
19643.04
19667.51
19889.35
20279.69
20662.04
20886.81
20963.35
21031.06
21224.7
21562.67
21933.16
22163.4
22111.62
21729.64
21075.05
20279.57
19495.68
18846.53
18397.47
18154.43
18082.58
18131.64
18255.8
18422.06
18608.37
18797.41
18971.59
19112.53
19204.2
19237.35
19212.19
19137.88
19029.04
18901.24
18767.74
18638.81
18522.81
18426.99
18356.18
18310.44
18284.65
18271.74
18267.39
18272.03
18288.45
18318.16
18360.42
18413.24
18473.25
18535.4
18598.2
18668.21
18755.72
18865.24
12608.95
16264.61
18066.93
18829.63
19360.33
19800.85
20018.12
20037.4
20029.57
20089.81
20169.89
20199.23
20200.69
20277.42
20516.62
20914.73
21373.18
21745.45
21895.85
21744.88
21292.11
20614.1
19838.88
19105.6
18524.7
18153.29
17992.78
18004.62
18133.18
18324.65
18536.53
18738.6
18909.94
19036.42
19110.45
19132.09
19109.56
19057.33
18991.91
18927.17
18871.39
18827.48
18795.41
18774.24
18761.92
18753.61
18741.49
18717.82
18679.4
18629.18
18573.96
18521.16
18478.05
18452.04
18447.88
18464.37
18497.73
18553.77
18631.49
18778.99
25774.37
24214.61
23360.73
22636.29
22215.43
22071.72
21934.6
21642.38
21233.75
20812.98
20447.21
20168.18
20002.26
19973.1
20086.1
20319
20621.91
20919.96
21120.49
21132.93
20900.42
20427.95
19788.25
19098.9
18481.06
18020.28
17746.59
17638.63
17644.7
17707.39
17781.09
17838.67
17869.35
17873.1
17855.66
17825.74
17793.73
17770.24
17763.86
17778.77
17813.68
17863.11
17920.05
17978.27
18032.77
18078.68
18110.68
18124.25
18118.05
18095.23
18062.56
18028.57
18002.47
17993.46
18008.57
18049.93
18113.38
18198.54
18286.53
18459.04
26879.07
25321.63
24225.79
23523.47
22985.19
22564.29
22230.88
21875.45
21399.34
20818.95
20254.27
19827.74
19581.89
19482.16
19479.3
19560.16
19743.96
20037.47
20394.32
20713.98
20881.82
20822.72
20534.94
20086.99
19582.97
19117.67
18744.09
18465.36
18249.1
18052.09
17842.02
17607.98
17359.08
17115.72
16899.82
16727.98
16608.72
16542.68
16524.22
16543.23
16587.25
16643.63
16701.8
16754.78
16799.56
16836.25
16866.48
16891.78
16912.92
16930.96
16948.87
16972.14
17007.29
17059.9
17133.94
17231.3
17346.73
17472.11
17568.99
17736.64
27028.15
25471.42
24300.54
23806.21
23413.36
22920.96
22458.18
22023.58
21474.62
20777.63
20080.34
19555.61
19247.42
19077.47
18962.36
18903.74
18978.82
19261.03
19745.74
20332.84
20868.83
21214.89
21300.7
21140
20807.91
20397.65
19980.44
19585.57
19204.72
18812.5
18389.59
17937.05
17477.37
17045.18
16674.28
16387.27
16190.93
16077.36
16028.82
16023.57
16040.8
16063.67
16080.72
16086.41
16081.19
16070.87
16064.15
16068.46
16086.62
16117.16
16158.37
16211.6
16280.24
16366.46
16470.49
16591.38
16721.86
16848.94
16928.41
17046.13
26650.93
24732.21
23301.49
22721.21
22539.8
22385.14
22143.28
21727
21052.52
20188.27
19360.21
18772.39
18457.38
18302.54
18190.62
18107
18135.99
18376.65
18856.04
19496.87
20148.05
20650.22
20897.6
20868.43
20616.54
20234.86
19812.02
19401.98
19016.94
18641.14
18253.86
17848.45
17439.25
17056.13
16731.96
16490.35
16338.58
16267.52
16256.93
16282.72
16322.94
16360.91
16385.91
16393.04
16383.49
16364.44
16346.92
16340.87
16350.28
16372.53
16403.11
16440.94
16489.09
16550.9
16626.93
16714.36
16804.54
16884.61
16925.73
16976.94
25349.7
23057.39
21565.26
20886.97
20957.02
21352.87
21574.2
21324.01
20589.8
19588.42
18625.82
17930.67
17560.96
17435.1
17439.88
17521.85
17705.04
18042.83
18551.61
19172.78
19782.45
20238.12
20434.99
20343.78
20014.91
19550.99
19063.38
18633.67
18295.14
18037.77
17829.18
17638.33
17450.96
17272.35
17119.86
17011.44
16956.58
16953.04
16989.33
17050.01
17120.35
17188.6
17246.02
17286.84
17309.04
17315.37
17312.69
17308.5
17306.34
17304.07
17297.23
17285
17273.08
17270.31
17281.9
17305.46
17331.66
17353.16
17362.77
17386.77
12707.91
14675.49
15358.81
15831.1
16789.25
18056.46
19029.95
19318.76
18950.1
18198.15
17364.73
16673.66
16250.67
16130.94
16281.41
16639.16
17148.76
17773.75
18477.97
19197.9
19833.6
20269.99
20418.18
20253.51
19829.09
19258.27
18674.86
18189.82
17862.39
17694.57
17646.64
17662.79
17694.78
17714.93
17717.11
17709.12
17703.02
17708.14
17728.75
17765.03
17814.66
17873.61
17936.04
17994.69
18042.4
18074.2
18088.65
18087.12
18071.16
18040.12
17991.96
17927.92
17856.71
17792.38
17745.1
17714.33
17691.85
17679.89
17682.18
17735.87
11570.25
13008.72
13848.53
14407.18
15327.63
16592.28
17685.5
18216.55
18170.18
17732.41
17089.55
16398.61
15825.21
15522.61
15567.83
15935.51
16534.97
17266.8
18050.27
18813.72
19475.01
19940.56
20129.68
20009.08
19614.92
19048.15
18444.27
17931.11
17592.67
17452.01
17476.98
17602.45
17757.82
17888.68
17966.88
17988.99
17968.04
17923.97
17876.52
17841.35
17828.33
17840.97
17876.66
17927.85
17983.9
18033.55
18067.59
18080.87
18072.28
18042.64
17992.86
17925.59
17848.8
17775.36
17715.63
17671.56
17639.97
17633.61
17653.16
17763.19
11330.06
12202.96
13096.45
13739.25
14421.97
15289.44
16160.55
16810.61
17153.9
17188.84
16926.68
16427.61
15849.61
15403.67
15246.38
15413
15837.91
16422.58
17086.64
17773.38
18426.99
18974.97
19335.76
19447.5
19298.49
18940.24
18474.8
18022.21
17682.33
17506.91
17491.46
17587.11
17724.82
17840.59
17892.65
17866.99
17773.01
17634.23
17478.58
17331.05
17209.61
17123.85
17075.81
17061.58
17072.9
17098.76
17127.85
17151.91
17167.94
17177.19
17181.76
17182.33
17179.41
17175.2
17172.8
17175.8
17188.77
17231.03
17289.52
17454.21
11369.64
11895.57
12914.68
13809.82
14307.05
14607.89
15014.77
15626.69
16309.57
16828.85
17000.81
16791.41
16329.49
15831.53
15488.05
15387.4
15516.81
15817.68
16240.64
16762.34
17364.72
18004.96
18604.56
19067.45
19316.08
19324.31
19129.22
18816.76
18488.93
18228.14
18073.47
18016.47
18014.4
18012.47
17964.55
17845.63
17653.94
17405.37
17124.65
16837.05
16563.19
16317.42
16108.78
15942.35
15819.78
15738.95
15694.63
15681.36
15696.65
15741.55
15817.02
15918.64
16034.72
16150.75
16257.43
16357.32
16460.06
16583.81
16695.93
16907.1
11485.97
11796.11
12885.66
14029.12
14483.22
14373.02
14352.51
14831.32
15691.14
16536.09
17038.06
17092.87
16793.89
16331.56
15892.41
15592.85
15465.51
15493.5
15660.18
15975.32
16461.25
17114.82
17877.5
18637.2
19262.66
19651.31
19765.52
19640.92
19365.68
19043.22
18755.92
18543.64
18401.98
18296.28
18182.06
18022.91
17800.01
17512.84
17173.71
16800.7
16412.32
16025.53
15656.21
15319.91
15030.86
14799.83
14632.57
14531
14496.24
14530.32
14633.25
14796.36
14998.26
15210.88
15414.13
15607.07
15798.02
15996.97
16155.65
16398.04
11645.48
11905.29
12949.72
14126.84
14631.01
14478.5
14321.32
14660.26
15455.98
16335.33
16957.96
17189.13
17072.29
16740.05
16340.85
15988.59
15738.41
15598.9
15571.16
15681.43
15978.31
16496.06
17212.34
18032.33
18812
19408.18
19729.31
19762.98
19570.83
19257.17
18928.1
18658.14
18475.06
18364.07
18285.01
18192.87
18053.22
17848.84
17578.22
17250.09
16878.13
16478.16
16067.84
15666.76
15295.17
14971.19
14708.45
14515.85
14399.64
14365.1
14414.42
14540.31
14721.59
14928.84
15139.65
15349.44
15560.27
15772.47
15936.76
16172.53
11844.57
12219.28
13123.75
14101.22
14693.12
14842.18
14870.88
15117.19
15649.92
16296.56
16836.27
17134.61
17166.61
16988.64
16701.14
16406.15
16169.26
16009.78
15925.89
15930.61
16065.01
16375.82
16874.71
17509.97
18171.45
18727.3
19072.96
19167.78
19044.06
18787.78
18502.64
18273.87
18145.2
18114.99
18148.46
18197.67
18219.75
18187.28
18089.73
17929.1
17714.05
17455.87
17167.02
16861.1
16552.52
16255.35
15982.05
15743.26
15548.78
15408.14
15328.74
15311.33
15346.75
15419.05
15514.08
15625.59
15748.55
15878.26
15981.83
16147.77
12094.74
12719.76
13471.36
14184.38
14876
15443.71
15793.28
15995.09
16207
16510.47
16852.79
17112.05
17195.01
17093.59
16880.03
16658.53
16508.31
16453.51
16474.3
16543.95
16659.75
16845.06
17123.76
17488.78
17888.1
18238.48
18458.82
18504.75
18387.02
18166.26
17928.33
17752.67
17687.24
17738.76
17879.21
18062.76
18244.06
18390.68
18486.95
18530.73
18527.06
18482.32
18401.15
18285.98
18138.19
17959.56
17753.6
17526.53
17287.48
17047.67
16818.83
16611.79
16435.53
16295.97
16193.89
16123.85
16076.2
16047.41
16031.75
16063.05
12540.98
13621.23
14311.2
14835.49
15565.68
16403.94
16988.74
17164.98
17110.95
17091.26
17205.42
17367.02
17441.72
17370.95
17199.79
17030.36
16954.57
17007.9
17163.71
17362.8
17554.49
17721.58
17876.42
18035.92
18196.27
18325.14
18375.55
18312.09
18133.39
17878.73
17615.98
17417.4
17335.17
17386.77
17554.9
17799.36
18073.88
18340.42
18576.47
18774.56
18936.6
19066.52
19164.85
19226.75
19243.37
19205.26
19105.88
18943.85
18722.82
18450.06
18136.04
17796.63
17454.74
17135.19
16852.85
16605.36
16382.94
16185.6
16036.24
15900.12
13657.22
15188.69
15734.52
16016.35
16593.81
17427.66
18066.66
18210
17981
17716.81
17636.34
17725.07
17839.68
17857.77
17753.71
17589.86
17462.15
17441.07
17538.41
17712.52
17902.19
18063.29
18184.76
18277.99
18352.56
18397.75
18382.7
18273.87
18058.22
17757.9
17428.48
17141.8
16962.14
16926.46
17036.19
17262.16
17558.54
17879.03
18189.22
18471.42
18722.04
18944.18
19139.96
19305.86
19432.56
19507.92
19520.87
19463.79
19332.47
19125.31
18845.12
18504.34
18128.31
17748.44
17386.47
17044.73
16718.17
16407.79
16160.06
15868.03
23941.77
22088.67
20830
20015.43
19784.7
19994.31
20194.84
20043.14
19565.84
19048.18
18751.97
18735.55
18866.29
18948.35
18850.13
18562.58
18178.7
17825.48
17595.41
17514.43
17553.89
17666.36
17815.82
17984.7
18160.63
18318.97
18417.25
18406.88
18255.32
17965.72
17582.91
17182.5
16847.81
16644.8
16604.53
16718.87
16949.22