/*--------------------------------*- C++ -*----------------------------------*\
| =========                 |                                                 |
| \\      /  F ield         | OpenFOAM: The Open Source CFD Toolbox           |
|  \\    /   O peration     | Version:  2312                                  |
|   \\  /    A nd           | Website:  www.openfoam.com                      |
|    \\/     M anipulation  |                                                 |
\*---------------------------------------------------------------------------*/
FoamFile
{
    version     2.0;
    format      ascii;
    arch        "LSB;label=32;scalar=64";
    class       volScalarField;
    location    "4800";
    object      ILambda_7_0;
}
// * * * * * * * * * * * * * * * * * * * * * * * * * * * * * * * * * * * * * //

dimensions      [1 0 -3 0 0 0 0];

internalField   nonuniform List<scalar> 
12000
(
3722.828
3762.021
3749.734
3503.766
2950.202
2235.139
1579.57
1107.966
822.0194
668.147
606.6297
652.4323
870.1994
1313.258
1948.909
2638.174
3195.074
3485.756
3495.56
3316.886
3073.579
2842.938
2628.452
2390.832
2103.154
1786.902
1507.988
1342.347
1337.313
1490.875
1755.307
2057.651
2324.504
2501.43
2563.071
2514.246
2383.938
2214.434
2048.548
1918.582
1840.275
1813.04
1825.162
1860.835
1905.921
1950.67
1989.523
2019.404
2038.15
2044.055
2036.473
2016.716
1988.393
1956.798
1927.559
1905.13
1891.689
1887.31
1888.667
1899.182
3754.91
3782.96
3622.793
3092.068
2316.605
1590.639
1089.575
806.6278
661.0353
596.5129
621.1697
803.6437
1218.064
1857.398
2589.813
3209.856
3551.166
3575.934
3377.723
3102.582
2852.929
2642.608
2423.442
2149.794
1828.808
1525.179
1325.819
1293.374
1436.835
1710.607
2035.751
2329.031
2527.143
2599.846
2551.567
2414.084
2233.823
2057.515
1920.079
1838.096
1810.235
1823.258
1860.042
1905.941
1951.466
1991.583
2023.457
2044.638
2052.733
2046.39
2026.562
1997.01
1963.581
1932.572
1908.934
1895.071
1890.618
1893.382
1899.274
1910.536
3768.315
3748.403
3404.005
2694.646
1913.62
1320.463
958.0999
753.3817
640.924
607.808
699.3768
993.8074
1530.25
2235.521
2927.554
3408.545
3576.144
3469.285
3221.442
2963.339
2748.567
2548.63
2306.894
2002.108
1676.067
1413.513
1295.447
1358.065
1578.381
1887.746
2200.569
2442.839
2570.468
2574.729
2477.13
2317.971
2142.788
1990.172
1883.779
1830.154
1822.106
1845.354
1885.119
1930.111
1973.234
2010.154
2037.572
2052.537
2053.024
2039.073
2013.498
1981.517
1949.38
1922.608
1904.585
1896.022
1895.343
1899.849
1905.994
1915.565
3773.386
3643.459
3054.319
2221.334
1519.352
1074.9
821.0012
676.0347
606.816
634.6731
830.4447
1264.982
1923.041
2660.613
3264.157
3572.266
3562.832
3344.5
3068.662
2831.919
2636.282
2423.578
2145.77
1815.666
1507.188
1313.85
1298.226
1462.705
1752.378
2081.281
2364.819
2544.21
2597.045
2535.079
2393.773
2218.567
2051.892
1923.737
1847.469
1821.161
1832.968
1867.832
1912.648
1958.369
1999.403
2031.915
2052.674
2059.153
2050.531
2028.632
1997.983
1964.763
1935.064
1913.25
1901.054
1897.643
1900.484
1906.594
1913.039
1921.251
3764.208
3410.946
2582.228
1765.515
1230.377
922.3213
738.1056
633.3683
609.3193
716.9721
1039.703
1613.481
2349.085
3044.857
3495.773
3612.315
3457.278
3182.545
2922.04
2718.748
2528.922
2286.406
1971.423
1635.809
1375.337
1275.602
1368.155
1618.913
1947.749
2262.754
2490.955
2595.118
2575.488
2460.861
2294.791
2121.746
1976.5
1878.488
1831.494
1827.592
1853.18
1894.519
1940.929
1985.241
2022.606
2049.207
2061.982
2059.34
2042.15
2014.108
1981.03
1949.289
1924.056
1908.078
1901.411
1902.028
1906.975
1913.472
1919.449
1926.09
3706.824
3001.184
2054.458
1404.783
1041.687
814.6983
672.3952
608.9023
647.0689
862.5056
1330.129
2022.641
2774.168
3357.918
3619.223
3558.535
3306.868
3023.954
2798.8
2617.843
2410.164
2125.126
1783.277
1470.48
1288.286
1298.335
1493.712
1807.119
2143.621
2417.049
2574.21
2601.914
2520.414
2369.885
2195.78
2036.941
1918.469
1849.902
1827.856
1841.212
1876.581
1922.133
1969.047
2011.077
2043.504
2062.63
2066.192
2054.224
2029.581
1997.545
1964.512
1936.261
1916.502
1906.26
1904.203
1907.616
1913.596
1919.862
1925.206
1930.601
3508.955
2418.011
1592.582
1179.125
916.1091
727.3137
627.4858
615.8734
737.5403
1087.098
1699.49
2463.205
3154.917
3567.748
3630.669
3431.806
3138.667
2883.554
2695.46
2515.239
2269.402
1942.205
1597.011
1340.545
1261.679
1385.518
1665.545
2010.025
2322.014
2531.724
2610.636
2568.471
2440.335
2271.356
2103.554
1967.222
1877.548
1835.937
1834.409
1860.821
1903.023
1950.959
1996.943
2035.045
2060.652
2070.71
2064.444
2043.915
2013.816
1980.383
1949.771
1926.506
1912.574
1907.44
1908.836
1913.859
1920.032
1925.714
1930.448
1934.909
3022.895
1791.372
1316.617
1049.776
803.8709
656.887
611.759
662.6727
894.7361
1397.76
2129.164
2893.344
3450.79
3659.825
3547.135
3265.49
2980.063
2769.192
2602.424
2396.999
2101.747
1746.876
1431.006
1263.087
1302.104
1530
1866.171
2207.213
2467.028
2599.856
2602.691
2503.791
2346.528
2174.97
2023.947
1914.196
1852.237
1833.752
1848.494
1884.67
1931.554
1980.281
2023.641
2055.842
2072.787
2072.758
2056.995
2029.597
1996.573
1964.303
1937.954
1920.395
1911.932
1910.852
1914.463
1920.117
1925.982
1931.028
1935.356
1939.158
2124.669
1405.809
1228.103
919.9012
694.503
621.6615
630.6752
759.7512
1134.551
1790.815
2584.629
3266.272
3632.675
3638.391
3398.13
3092.036
2847.141
2676.063
2504.067
2251.971
1910.316
1555.623
1305.724
1251.327
1408.908
1717.954
2075.134
2379.955
2567.866
2620.555
2557.401
2418.639
2249.244
2087.62
1959.622
1877.109
1840.056
1840.774
1868.374
1911.901
1961.658
2009.333
2047.915
2072.063
2078.883
2068.616
2044.679
2012.81
1979.552
1950.618
1929.654
1917.782
1913.918
1915.674
1920.415
1926.044
1931.42
1935.98
1940.154
1943.4
1068.233
1501.549
1121.497
742.011
631.3958
629.3119
682.549
924.3332
1468.024
2243.909
3017.914
3540.076
3690.209
3525.896
3219.44
2937.076
2743.562
2590.686
2384.806
2076.274
1707.042
1389.553
1239.484
1311.018
1572.673
1929.667
2271.193
2513.402
2619.89
2598.537
2484.909
2323.957
2156.753
2013.441
1910.974
1854.113
1838.586
1855.135
1892.993
1941.866
1992.511
2036.818
2068.189
2082.395
2078.444
2058.846
2028.925
1995.333
1964.296
1940.209
1924.97
1918.144
1917.724
1921.155
1926.225
1931.511
1936.473
1940.782
1944.996
1947.563
1809.375
1396.965
771.8126
622.5199
645.4193
657.6606
776.3344
1180.849
1889.919
2714.29
3377.847
3688.782
3634.604
3357.143
3044.378
2813.982
2660.886
2495.236
2233.72
1875.243
1511.172
1270.726
1244.87
1438.852
1776.326
2142.602
2435.715
2598.741
2624.83
2542.727
2396.445
2229.17
2074.573
1953.979
1876.855
1843.044
1845.922
1875.652
1921.634
1973.749
2022.822
2061.064
2082.912
2086.009
2071.716
2044.687
2011.509
1978.872
1951.937
1933.415
1923.537
1920.718
1922.547
1926.725
1931.667
1936.587
1941.351
1945.618
1949.93
1951.476
2124.968
749.8765
582.7849
671.9019
674.8082
691.9576
946.5415
1544.605
2369.02
3146.499
3623.496
3708.996
3495.012
3170.158
2896.319
2722.264
2582.323
2373.155
2048.375
1663.627
1346.274
1217.998
1325.783
1622.188
1997.435
2334.809
2555.373
2634.033
2589.766
2464.25
2302.426
2141.165
2005.476
1908.909
1855.489
1842.068
1860.824
1901.571
1953.5
2006.278
2050.839
2080.29
2090.908
2082.792
2059.691
2027.854
1994.259
1964.801
1943.076
1930.071
1924.678
1924.676
1927.724
1932.055
1936.739
1941.468
1946.268
1950.582
1954.873
1954.89
505.1712
620.4504
742.2747
720.9195
662.9655
777.1104
1231.171
2001.055
2851.689
3487.23
3734.703
3619.549
3310.144
2997.158
2784.755
2649.717
2488.202
2214.126
1836.633
1463.673
1236.029
1243.025
1475.844
1840.548
2211.706
2488.399
2623.899
2623.771
2525.207
2374.277
2211.055
2063.984
1950.049
1876.945
1845.206
1849.957
1882.538
1932.14
1987.365
2037.65
2074.572
2092.975
2091.682
2073.443
2043.964
2010.25
1978.765
1953.987
1937.771
1929.619
1927.574
1929.285
1932.825
1937.062
1941.603
1946.385
1951.365
1955.64
1959.62
1957.531
754.3625
779.9076
741.81
667.8142
679.0955
972.3349
1633.4
2504.943
3277.148
3699.12
3715.858
3455.312
3118.654
2858.434
2705.342
2576.966
2361.522
2017.483
1616.339
1301.537
1199.553
1347.23
1678.648
2068.751
2396.99
2592.214
2642.377
2577.214
2442.767
2282.26
2127.689
1999.205
1907.582
1856.666
1844.855
1866.003
1910.399
1966.22
2021.419
2065.704
2092.167
2098.219
2085.586
2059.375
2026.46
1993.65
1966.159
1946.731
1935.62
1931.284
1931.44
1934.016
1937.674
1941.855
1946.492
1951.521
1956.66
1960.631
1963.877
1959.148
732.784
737.9873
700.515
653.4074
786.7656
1291.134
2123.179
2995.876
3592.572
3768.834
3593.299
3257.942
2950.97
2759.826
2642.713
2482.787
2192.606
1793.792
1413.028
1202.488
1247.027
1520.474
1910.067
2281.178
2536.907
2643.071
2618.035
2505.984
2353.019
2194.902
2054.978
1946.775
1876.971
1847.051
1853.823
1889.672
1943.403
2002.052
2053.376
2088.268
2102.3
2095.977
2073.789
2042.477
2009.103
1979.439
1956.998
1942.815
1935.92
1934.251
1935.659
1938.595
1942.317
1946.658
1951.624
1956.947
1962.031
1965.287
1967.318
1959.567
744.439
738.9034
676.8018
681.7117
1000.984
1728.996
2651.592
3409.648
3764.543
3709.447
3407.551
3065.969
2824.046
2693.361
2574.917
2349.507
1982.639
1564.486
1255.757
1185.535
1376.567
1742.025
2142.379
2456.262
2623.204
2645.25
2561.917
2421.577
2264.042
2116.015
1993.599
1905.957
1857.367
1847.622
1871.75
1920.155
1979.909
2037.281
2080.78
2103.588
2104.483
2087.106
2058.075
2024.775
1993.514
1968.445
1951.279
1941.646
1937.857
1937.829
1939.859
1942.998
1946.955
1951.713
1957.122
1962.593
1967.233
1969.285
1969.646
1958.72
748.4243
716.435
654.658
790.2851
1351.734
2257.856
3149.037
3691.906
3788.325
3555.852
3202.286
2906.968
2739.785
2640.38
2478.867
2168.136
1745.58
1359.094
1171.295
1258.485
1573.385
1984.021
2349.379
2580.058
2656.194
2608.442
2486.115
2333.442
2180.916
2047.097
1943.23
1876.101
1848.455
1858.24
1898.089
1956.006
2017.57
2069.217
2101.446
2110.689
2099.19
2073.216
2040.525
2008.105
1980.796
1960.899
1948.545
1942.434
1940.681
1941.553
1943.934
1947.385
1951.841
1957.189
1962.967
1968.245
1971.936
1972.305
1970.643
1956.663
746.9485
686.1152
676.6979
1025.794
1835.513
2813.135
3542.935
3816.039
3688.316
3353.462
3014.086
2793.837
2686.583
2576.22
2336.266
1942.48
1507.473
1209.807
1177.659
1414.948
1811.977
2216.806
2511.149
2647.88
2643.245
2544.833
2401.374
2248.044
2106.08
1988.294
1903.423
1857.047
1850.333
1878.676
1931.682
1994.987
2053.533
2095.265
2113.881
2109.591
2087.778
2056.376
2023.154
1993.843
1971.44
1956.52
1948.069
1944.393
1943.838
1945.226
1947.995
1952.011
1957.187
1963.125
1968.989
1973.583
1975.789
1974.088
1970.213
1953.57
735.6445
659.188
787.5441
1415.969
2409.894
3311.589
3781.194
3790.204
3508.057
3145.692
2866.458
2724.691
2642.63
2475.909
2139.414
1691.038
1302.402
1144.146
1278.853
1634.649
2061.137
2414.739
2617.094
2663.632
2595.91
2466.267
2315.66
2168.933
2040.236
1939.359
1874.138
1849.121
1863.137
1908.157
1970.518
2034.18
2084.837
2113.392
2117.583
2101.313
2072.23
2038.74
2007.604
1982.758
1965.366
1954.667
1949.047
1946.89
1947.039
1948.897
1952.283
1957.122
1963.089
1969.399
1974.887
1978.239
1978.484
1974.482
1968.399
1949.706
712.6053
668.2316
1042.106
1955.98
2993.692
3673.85
3848.71
3652.004
3295.722
2965.12
2768.16
2684.683
2580.454
2320.772
1895.815
1445.364
1165.262
1177.636
1462.774
1887.412
2290.433
2560.707
2666.426
2637.254
2526.74
2382.271
2233.847
2097.519
1983.364
1900.32
1855.873
1852.826
1886.56
1945.035
2011.748
2070.338
2108.909
2122.509
2113.136
2087.667
2054.787
2022.198
1994.933
1975.001
1962.058
1954.55
1950.78
1949.543
1950.26
1952.781
1957.068
1962.868
1969.48
1975.743
1980.286
1981.857
1979.804
1973.468
1965.371
1945.391
682.1601
768.7139
1480.877
2588.3
3484.522
3853.228
3771.471
3452.786
3091.192
2830.193
2714.122
2648.949
2473.13
2105.259
1629.711
1244.155
1122.96
1308.972
1703.393
2139.742
2476.131
2648.043
2666.243
2581.339
2446.75
2299.266
2158.27
2034.083
1935.504
1871.749
1849.449
1868.371
1919.454
1986.692
2051.954
2100.378
2124.02
2122.665
2102.083
2070.912
2037.56
2008.106
1985.552
1970.213
1960.765
1955.421
1952.799
1952.247
1953.677
1957.161
1962.551
1969.244
1976.135
1981.785
1984.796
1984.162
1979.662
1971.159
1961.405
1940.956
664.2066
1035.515
2099.17
3203.09
3795.211
3854.654
3602.573
3239.082
2920.307
2746.236
2687.072
2587.105
2302.068
1841.868
1378.763
1123.973
1186.826
1519.636
1966.677
2361.871
2604.738
2679.615
2628.225
2508.125
2364.101
2220.813
2089.685
1978.667
1897.184
1854.677
1855.587
1895.221
1959.612
2029.705
2087.623
2121.901
2129.585
2115.018
2086.614
2053.344
2022.209
1997.164
1979.291
1967.708
1960.707
1956.726
1954.911
1955.128
1957.573
1962.28
1968.788
1976.074
1982.697
1987.112
1988.084
1984.994
1978.114
1967.785
1956.843
1936.703
710.5395
1538.802
2814.965
3667.856
3893.796
3730.02
3396.98
3041.815
2796.674
2707.011
2659.383
2470.101
2064.792
1561.574
1185.748
1109.392
1349.098
1778.28
2218.254
2532.999
2673.476
2664.933
2565.271
2427.58
2283.913
2148.402
2028.184
1931.634
1869.489
1850.268
1874.437
1931.763
2003.805
2070.254
2115.698
2133.605
2126.251
2101.585
2069.154
2036.918
2009.745
1989.425
1975.564
1966.698
1961.255
1958.187
1957.186
1958.459
1962.228
1968.256
1975.66
1983.032
1988.745
1991.343
1989.923
1984.342
1975.345
1963.655
1952.042
1932.874
926.4845
2288.516
3462.439
3888.35
3822.259
3547.695
3190.585
2878.283
2725.523
2694.118
2596.848
2279.414
1779.897
1308.324
1087.497
1206.074
1584.799
2048.261
2430.223
2643.463
2688.2
2616.662
2489.028
2346.709
2208.785
2082.343
1973.892
1893.93
1853.88
1859.368
1905.146
1975.194
2048.089
2104.679
2134.087
2135.49
2115.73
2084.837
2051.935
2022.982
2000.485
1984.437
1973.591
1966.483
1962.038
1959.802
1959.873
1962.546
1967.818
1975.034
1982.885
1989.697
1993.856
1994.184
1990.228
1982.332
1971.636
1959.113
1947.333
1929.632
1480.881
3150.014
3847.401
3873.165
3670.297
3353.733
2998.568
2761.369
2702.719
2675.877
2466.873
2016.496
1486.202
1128.371
1104.7
1399.205
1858.169
2295.626
2585.198
2693.879
2660.098
2547.691
2408.604
2269.66
2139.53
2022.52
1927.409
1867.095
1851.828
1882.007
1945.581
2021.675
2088.316
2130.077
2142.022
2128.816
2100.437
2067.246
2036.657
2012.163
1994.158
1981.461
1972.618
1966.6
1962.974
1961.785
1963.295
1967.621
1974.355
1982.382
1990.053
1995.62
1997.678
1995.476
1989.061
1979.207
1967.329
1954.496
1942.988
1927.054
2541.079
3786.029
3883.302
3742.819
3509.234
3156.536
2832.796
2702.858
2708.16
2611.255
2251.11
1708.114
1234.571
1057.481
1236.118
1657.655
2131.174
2495.074
2677.076
2692.41
2602.478
2469.239
2330.152
2198.183
2075.92
1969.014
1890.071
1853.055
1864.302
1916.958
1992.285
2066.754
2120.789
2144.793
2140.148
2115.81
2083.016
2050.864
2024.294
2004.41
1990.096
1979.702
1972.086
1966.877
1964.231
1964.463
1967.732
1973.767
1981.669
1989.919
1996.702
2000.395
1999.979
1995.212
1986.617
1975.289
1962.773
1950.092
1939.196
1925.139
3919.087
3820.514
3735.864
3629.729
3339.672
2953.299
2717.38
2702.848
2701.651
2462.713
1957.571
1402.99
1073.888
1110.527
1459.295
1942.175
2371.245
2632.665
2709.294
2651.554
2528.348
2389.843
2256.916
2132.239
2017.438
1922.65
1863.991
1853.674
1891.177
1961.459
2040.754
2106.023
2142.893
2148.697
2130.345
2099.196
2065.859
2037.05
2015.075
1999.18
1987.491
1978.513
1971.727
1967.418
1966.125
1968.159
1973.336
1980.879
1989.42
1997.182
2002.382
2003.719
2000.674
1993.527
1983.187
1970.933
1958.288
1946.118
1936.056
1923.827
3712.652
3714.855
3718.134
3525.777
3124.425
2771.188
2678.533
2733.95
2631.382
2214.312
1624.544
1158.887
1036.382
1277.738
1737.408
2214.544
2556.121
2705.463
2691.944
2585.362
2448.8
2314.857
2189.543
2070.785
1964.105
1885.353
1851.75
1870.051
1930.707
2011.274
2086.038
2135.878
2153.557
2143.135
2115.292
2081.662
2050.729
2026.362
2008.623
1995.676
1985.616
1977.52
1971.565
1968.515
1969.01
1973.09
1980.077
1988.673
1997.158
2003.691
2006.727
2005.431
1999.832
1990.673
1979.12
1966.478
1954.127
1942.706
1933.587
1923.021
3738.405
3756.045
3669.449
3327.924
2885.818
2663.897
2713.767
2739.921
2455.515
1884.871
1311.984
1024.902
1128.585
1528.911
2029.14
2444.513
2675.169
2719.34
2638.896
2507.294
2371.866
2246.29
2126.75
2012.841
1917.232
1860.112
1855.677
1901.741
1979.295
2061.166
2123.585
2154.176
2153.396
2130.579
2097.898
2065.385
2038.569
2018.651
2004.199
1993.11
1983.991
1976.659
1971.857
1970.539
1973.159
1979.3
1987.733
1996.726
2004.388
2009.022
2009.497
2005.525
1997.656
1986.981
1974.77
1962.214
1950.462
1939.904
1931.741
1922.612
3735.793
3740.291
3533.715
3072.39
2694.36
2659.43
2776.809
2656.598
2165
1527.379
1083.156
1026.704
1331.343
1822.925
2297.446
2612.99
2728.21
2686.305
2565.304
2428.423
2301.708
2183.155
2066.529
1958.675
1879.77
1850.336
1876.831
1946.177
2031.758
2105.768
2150.097
2160.599
2144.479
2114.046
2080.736
2051.734
2029.514
2013.276
2000.971
1990.895
1982.452
1976.134
1972.976
1973.818
1978.695
1986.639
1995.925
2004.543
2010.641
2012.863
2010.606
2004.14
1994.445
1982.81
1970.455
1958.352
1947.377
1937.693
1930.432
1922.496
3741.517
3693.17
3315.818
2803.759
2603.732
2740.938
2793.078
2441.271
1794.309
1213.708
984.4436
1160.561
1607.527
2117.936
2514.783
2712.221
2723.437
2621.987
2485.268
2355.845
2238.407
2122.633
2007.755
1910.66
1855.895
1858.678
1914.058
1998.647
2082.149
2140.617
2164.143
2156.593
2129.777
2096.455
2065.633
2041.2
2023.088
2009.398
1998.251
1988.754
1981.13
1976.308
1975.295
1978.546
1985.544
1994.781
2004.168
2011.622
2015.536
2015.044
2010.121
2001.535
1990.554
1978.505
1966.429
1955.016
1944.877
1936.002
1929.56
1922.596
3746.438
3565.942
3015.278
2594.275
2646.589
2843.966
2685.526
2096.616
1414.793
1010.727
1031.669
1397.431
1913.097
2378.804
2664.933
2744.625
2675.208
2542.954
2409.422
2291.678
2178.865
2062.039
1951.655
1873.257
1849.77
1885.7
1963.568
2052.959
2124.926
2163.035
2166.319
2144.892
2112.462
2080.098
2053.497
2033.537
2018.486
2006.24
1995.637
1986.726
1980.361
1977.586
1979.081
1984.735
1993.447
2003.271
2011.944
2017.522
2018.822
2015.553
2008.247
1998.045
1986.342
1974.355
1962.858
1952.246
1942.91
1934.742
1929.029
1922.864
3732.077
3321.673
2689.189
2528.087
2795.995
2866.403
2412.191
1680.046
1110.948
957.5989
1208.248
1694.08
2206.952
2580.854
2742.951
2721.184
2601.349
2463.592
2342.96
2233.406
2118.944
2000.929
1902.343
1851.863
1863.873
1929.004
2019.358
2102.682
2156.092
2172.548
2158.892
2128.78
2095.261
2066.347
2044.39
2028.038
2014.87
2003.271
1993.056
1985.096
1980.567
1980.303
1984.431
1992.201
2001.992
2011.59
2018.767
2021.917
2020.403
2014.527
2005.284
1994.035
1982.134
1970.571
1959.819
1950.012
1941.389
1933.822
1928.77
1923.281
3652.663
2947.994
2446.831
2649.128
2951.037
2712.965
1998.014
1286.769
948.4749
1055.015
1474.971
2005.567
2456.93
2710.939
2754.274
2659.088
2519.582
2393.076
2285.1
2175.911
2056.165
1942.348
1865.962
1850.894
1897.615
1983.276
2074.413
2142.522
2173.916
2170.712
2145.078
2111.346
2080.037
2055.648
2037.78
2023.851
2011.59
2000.286
1990.711
1984.279
1982.137
1984.645
1991.253
2000.596
2010.677
2019.217
2024.238
2024.622
2020.336
2012.22
2001.59
1989.853
1978.183
1967.275
1957.312
1948.239
1940.22
1933.171
1928.745
1923.851
3428.199
2506.967
2424.775
2906.439
2964.825
2352.172
1535.931
1011.128
951.0329
1271.277
1785.24
2293.95
2641.842
2767.092
2712.977
2578.149
2443.579
2333.694
2230.637
2114.591
1991.762
1892.474
1848.655
1871.889
1946.913
2041.341
2122.274
2169.359
2178.991
2160.447
2128.21
2094.94
2067.684
2047.727
2032.86
2020.228
2008.298
1997.381
1988.984
1984.701
1985.342
1990.612
1999.27
2009.449
2018.967
2025.696
2028.086
2025.609
2018.815
2008.966
1997.53
1985.796
1974.658
1964.501
1955.279
1946.831
1939.32
1932.748
1928.944
1924.59
2950.913
2187.053
2700.501
3127.576
2721.158
1852.608
1148.755
906.7613
1098.489
1559.922
2097.251
2531.214
2751.239
2757.544
2638.828
2496.385
2380.017
2281.477
2173.17
2048.239
1931.076
1858.728
1854.256
1912.537
2004.97
2095.84
2158.386
2182.59
2173.685
2145.16
2111.073
2080.948
2058.271
2041.901
2028.829
2016.682
2004.958
1994.87
1988.314
1986.707
1990.279
1998.016
2008.064
2018.23
2026.357
2030.675
2030.194
2024.998
2016.137
2005.134
1993.433
1982.078
1971.634
1962.216
1953.628
1945.697
1938.637
1932.543
1929.381
1925.515
2165.931
2299.926
3159.042
3080.593
2227.593
1361.246
928.9343
970.3975
1345.743
1876.752
2378.217
2698.596
2785.101
2699.151
2553.159
2425.926
2327.856
2229.067
2108.685
1980.406
1882.092
1847.171
1882.692
1967.02
2063.916
2140.843
2180.76
2183.754
2161.259
2127.971
2095.558
2069.86
2051.33
2037.375
2025.076
2013.026
2001.785
1993.179
1989.102
1990.489
1996.858
2006.509
2017.128
2026.404
2032.427
2033.945
2030.598
2023.033
2012.659
2001.078
1989.559
1978.822
1969.111
1960.339
1952.264
1944.769
1938.148
1932.575
1930.084
1926.632
1404.766
3044.066
3416.063
2646.588
1645.156
1020.947
897.3903
1159.149
1646.629
2186.607
2602.777
2786.462
2754.167
2614.492
2473.978
2370.493
2280.166
2169.677
2038.011
1918.68
1852.761
1860.304
1929.759
2027.483
2116.645
2172.864
2189.84
2175.707
2145.012
2111.249
2082.642
2061.521
2046.149
2033.448
2021.256
2009.346
1999.157
1992.744
1991.636
1996.066
2004.815
2015.621
2025.914
2033.49
2036.879
2035.452
2029.475
2020.044
2008.748
1997.101
1986.083
1976.066
1967.027
1958.774
1951.104
1944.011
1937.865
1932.876
1931.076
1927.928
2587.477
3631.67
3057.493
1989.225
1185.237
886.0627
1014.278
1424.102
1965.625
2460.655
2751.989
2796.445
2679.104
2526.788
2411.376
2325.44
2227.952
2100.664
1967.207
1872.263
1848.271
1896.126
1988.233
2085.976
2158.165
2191.022
2187.792
2161.718
2127.708
2096.489
2072.575
2055.399
2041.995
2029.619
2017.29
2005.93
1997.52
1993.937
1996.043
2003.272
2013.74
2024.812
2033.895
2039.109
2039.563
2035.294
2027.111
2016.398
2004.744
1993.427
1983.086
1973.775
1965.29
1957.426
1950.096
1943.421
1937.822
1933.486
1932.37
1929.364
3827.328
3385.577
2377.972
1427.6
939.6604
920.081
1226.834
1730.194
2274.154
2672.911
2816.323
2743.25
2586.215
2453.435
2365.17
2280.807
2164.742
2025.366
1905.79
1848.884
1869.329
1948.729
2049.791
2136.116
2186.105
2196.511
2177.603
2144.806
2111.351
2084.428
2065.117
2050.807
2038.232
2025.623
2013.334
2003.198
1997.313
1997.003
2002.275
2011.774
2023.116
2033.523
2040.616
2043.015
2040.489
2033.697
2023.858
2012.458
2000.916
1990.189
1980.571
1971.872
1963.801
1956.228
1949.221
1943.028
1938.065
1934.436
1933.958
1930.88
3586.883
2851.632
1775.975
1060.555
878.2332
1069.828
1499.741
2051.793
2543.235
2802.452
2800.234
2652.583
2500.049
2401.019
2326.475
2226.566
2090.082
1952.43
1863.564
1852.28
1912.026
2010.004
2106.916
2173.975
2200.433
2191.756
2162.353
2127.419
2097.217
2075.23
2059.732
2047.032
2034.401
2021.434
2009.73
2001.625
1998.894
2002.023
2010.1
2021.103
2032.371
2041.236
2045.739
2045.122
2039.811
2030.985
2020.09
2008.537
1997.45
1987.432
1978.483
1970.258
1962.476
1955.143
1948.497
1942.876
1938.639
1935.74
1935.803
1932.391
3413.758
2242.626
1242.569
881.6624
963.1523
1296.022
1809.108
2362.067
2743.199
2840.098
2723.849
2554.485
2435.962
2364.475
2282.776
2157.681
2010.339
1892.887
1847.353
1881.167
1969.146
2071.694
2154.162
2198.094
2202.727
2179.655
2144.809
2111.378
2085.969
2068.63
2055.71
2043.432
2030.259
2017.263
2006.951
2001.67
2002.485
2008.888
2019.119
2030.697
2040.94
2047.527
2049.077
2045.498
2037.802
2027.524
2016.152
2004.869
1994.44
1985.131
1976.73
1968.838
1961.26
1954.169
1947.962
1943.019
1939.578
1937.383
1937.839
1933.795
2930.331
1508.817
921.38
910.0594
1139.917
1567.638
2135.495
2628.979
2850.04
2794.629
2619.108
2474.096
2395.839
2330.733
2224.123
2076.714
1936.542
1856.383
1859.004
1929.949
2032.216
2127.008
2188.522
2208.93
2195.423
2163.107
2127.286
2097.915
2077.74
2064.03
2052.273
2039.525
2025.825
2013.524
2005.527
2003.695
2008.117
2017.293
2028.8
2039.956
2048.319
2052.106
2050.605
2044.353
2034.812
2023.682
2012.327
2001.6
1991.9
1983.214
1975.217
1967.542
1960.132
1953.335
1947.672
1943.506
1940.893
1939.326
1939.972
1934.979
2028.18
980.907
904.0405
1048.551
1353.236
1877.791
2454.89
2815.823
2855.49
2694.139
2520.189
2423.279
2368.897
2285.363
2147.878
1993.151
1880.538
1848.22
1895.28
1990.586
2093.419
2171.382
2209.116
2208.171
2181.317
2144.812
2111.612
2087.679
2072.173
2060.593
2048.703
2035.091
2021.397
2010.78
2005.951
2007.888
2015.608
2026.766
2038.536
2048.315
2054.124
2054.848
2050.454
2041.999
2031.214
2019.78
2008.81
1998.789
1989.783
1981.589
1973.859
1966.328
1959.104
1952.691
1947.684
1944.371
1942.57
1941.496
1942.086
1935.83
866.5061
964.9533
1043.82
1192.836
1611.381
2223.339
2723.866
2892.982
2776.287
2578.728
2451.242
2397.241
2337.755
2219.563
2060.241
1920.033
1851.147
1868.194
1949.29
2054.677
2146.743
2202.449
2216.603
2198.227
2163.312
2127.164
2099.047
2080.697
2068.483
2057.397
2044.506
2030.249
2017.517
2009.632
2008.572
2014.207
2024.565
2036.711
2047.713
2055.302
2058.127
2055.796
2048.881
2038.801
2027.359
2016.066
2005.711
1996.424
1988.009
1980.165
1972.598
1965.189
1958.213
1952.296
1948.05
1945.624
1944.562
1943.795
1944.044
1936.238
1062.926
1065.25
1084.125
1363.091
1947.496
2564.17
2890.313
2857.716
2652.606
2485.588
2417.718
2378.507
2287.221
2134.409
1973.978
1869.383
1851.724
1911.308
2012.605
2115.001
2188.288
2219.607
2212.708
2181.964
2144.265
2112.08
2090.139
2076.366
2065.606
2053.658
2039.558
2025.458
2014.863
2010.59
2013.509
2022.367
2034.429
2046.484
2055.78
2060.586
2060.273
2055.139
2046.228
2035.128
2023.539
2012.699
2003.056
1994.443
1986.488
1978.871
1971.407
1964.145
1957.512
1952.209
1948.803
1947.249
1946.794
1946.098
1945.702
1936.111
1055.845
1040.831
1175.717
1655.287
2333.39
2828.383
2925.264
2741.795
2532.842
2434.511
2406.258
2346.32
2211.484
2040.441
1903.545
1848.432
1879.896
1969.741
2077.151
2166.198
2216.038
2223.61
2199.967
2162.525
2126.748
2100.755
2084.627
2073.588
2062.482
2048.957
2034.168
2021.427
2014.093
2013.946
2020.608
2031.87
2044.548
2055.471
2062.312
2064.01
2060.67
2053.176
2042.867
2031.308
2019.963
2009.75
2000.813
1992.766
1985.141
1977.662
1970.287
1963.237
1957.06
1952.48
1949.954
1949.201
1949.161
1948.266
1946.915
1935.381
1067.049
1077.233
1380.534
2037.836
2688.827
2960.253
2841.871
2599.172
2453.918
2421.608
2392.796
2286.646
2116.533
1953.292
1860.123
1858.139
1929.171
2035.047
2136.313
2204.787
2229.533
2216.348
2181.565
2143.053
2112.682
2093.434
2081.516
2071.074
2058.36
2043.377
2029.013
2018.939
2015.684
2019.706
2029.46
2042.077
2054.259
2063.155
2067.044
2065.589
2059.559
2050.267
2039.151
2027.597
2016.753
2007.223
1998.917
1991.311
1983.91
1976.523
1969.264
1962.518
1956.916
1953.144
1951.491
1951.405
1951.537
1950.149
1947.547
1934.013
1068.894
1168.953
1702.919
2459.788
2939.075
2942.009
2688.912
2484.09
2427.513
2423.6
2354.673
2198.404
2017.38
1887.841
1848.644
1894.098
1991.273
2099.649
2185.202
2228.929
2229.708
2200.74
2161.047
2126.22
2102.971
2089.393
2079.383
2067.736
2053.029
2037.488
2024.957
2018.649
2019.82
2027.581
2039.47
2052.3
2062.97
2069.172
2069.891
2065.491
2057.271
2046.78
2035.379
2024.166
2013.951
2005.075
1997.292
1990.013
1982.764
1975.458
1968.376
1962.042
1957.127
1954.215
1953.371
1953.76
1953.776
1951.598
1947.483
1932.013
1078.944
1376.276
2139.611
2834.709
3023.38
2802.39
2534.47
2429.772
2437.249
2410.331
2281.341
2093.601
1931.882
1853.48
1867.532
1948.773
2058.032
2157.422
2220.536
2238.33
2218.866
2180.483
2141.78
2113.704
2097.342
2087.208
2076.833
2063.015
2046.869
2032.171
2022.812
2020.936
2026.364
2037.048
2049.947
2061.884
2070.214
2073.324
2070.931
2063.998
2054.172
2043.047
2031.77
2021.1
2011.541
2003.241
1995.87
1988.829
1981.692
1974.493
1967.669
1961.861
1957.727
1955.683
1955.526
1956.138
1955.722
1952.472
1946.638
1929.43
1132.26
1743.184
2620.775
3059.494
2933.426
2614.211
2437.442
2434.608
2448.716
2359.928
2178.781
1991.678
1874.117
1852.191
1910.587
2013.811
2122.358
2203.71
2240.604
2234.328
2200.537
2159.5
2126.284
2105.864
2094.54
2085.256
2072.939
2057.024
2040.7
2028.355
2023.148
2025.836
2034.902
2047.449
2060.198
2070.275
2075.686
2075.59
2070.381
2061.46
2050.619
2039.333
2028.456
2018.418
2009.477
2001.659
1994.605
1987.739
1980.703
1973.658
1967.19
1962.019
1958.732
1957.513
1957.859
1958.397
1957.22
1952.649
1944.969
1926.362
1300.538
2270.973
3017.731
3067.421
2729.32
2462.505
2420.035
2465.836
2428.069
2268.834
2065.757
1911.245
1850.368
1879.761
1969.712
2081.518
2178.435
2235.322
2245.468
2219.915
2178.97
2141.145
2115.707
2101.808
2092.835
2082.252
2067.479
2050.437
2035.506
2026.78
2026.193
2033.079
2044.842
2058.081
2069.6
2077.062
2079.254
2076.103
2068.553
2058.243
2046.917
2035.817
2025.491
2016.092
2007.702
2000.279
1993.47
1986.738
1979.813
1972.986
1966.981
1962.551
1960.141
1959.646
1960.249
1960.378
1958.121
1952.04
1942.482
1922.957
1698.943
2856.024
3181.966
2878.812
2518.074
2402.478
2459.773
2479.047
2358.629
2151.884
1964.736
1863.679
1859.199
1928.823
2036.997
2145.25
2221.681
2250.806
2237.176
2199.342
2158.258
2127.467
2109.715
2099.855
2090.642
2077.603
2060.9
2044.219
2032.163
2027.867
2031.844
2042.173
2055.504
2068.271
2077.64
2081.993
2080.949
2075.12
2065.81
2054.686
2043.295
2032.597
2022.873
2014.076
2006.169
1999.074
1992.454
1985.831
1979.039
1972.513
1967.082
1963.477
1961.927
1961.991
1962.555
1961.923
1958.299
1950.591
1939.24
1919.403
2439.833
3249.364
3047.247
2613.604
2396.08
2432.418
2506.027
2441.683
2247.043
2033.876
1892.937
1851.303
1894.439
1991.547
2105.333
2199.254
2249.001
2250.868
2219.579
2177.238
2141.389
2118.873
2106.867
2098.218
2086.984
2071.451
2054.063
2039.326
2031.269
2031.698
2039.745
2052.498
2066.194
2077.423
2083.95
2084.99
2080.955
2072.979
2062.513
2051.064
2039.894
2029.7
2020.569
2012.326
2004.851
1998.031
1991.553
1985.02
1978.401
1972.271
1967.529
1964.804
1964.04
1964.436
1964.619
1962.876
1957.657
1948.302
1935.368
1915.927
3385.333
3172.34
2740.265
2420.447
2391.856
2502.932
2509.917
2347.167
2117.557
1938.323
1857.667
1869.642
1948.473
2060.662
2168.149
2238.842
2259.438
2238.508
2197.536
2157.485
2129.663
2114.37
2105.318
2095.578
2081.653
2064.471
2047.934
2036.501
2033.099
2038.086
2049.375
2063.375
2076.254
2085.054
2088.327
2086.139
2079.569