/*--------------------------------*- C++ -*----------------------------------*\
| =========                 |                                                 |
| \\      /  F ield         | OpenFOAM: The Open Source CFD Toolbox           |
|  \\    /   O peration     | Version:  2312                                  |
|   \\  /    A nd           | Website:  www.openfoam.com                      |
|    \\/     M anipulation  |                                                 |
\*---------------------------------------------------------------------------*/
FoamFile
{
    version     2.0;
    format      ascii;
    arch        "LSB;label=32;scalar=64";
    class       volScalarField;
    location    "4800";
    object      ILambda_10_0;
}
// * * * * * * * * * * * * * * * * * * * * * * * * * * * * * * * * * * * * * //

dimensions      [1 0 -3 0 0 0 0];

internalField   nonuniform List<scalar> 
12000
(
680.1813
676.4774
674.3738
671.8107
669.2866
666.7331
664.2088
661.7426
659.368
657.114
655.0071
653.0698
651.3216
649.7778
648.4506
647.3483
646.4758
645.8345
645.4217
645.2308
645.2506
645.4648
645.8512
646.3816
647.0211
647.7281
648.4544
649.1462
649.7453
650.1906
650.4211
650.3784
650.0099
649.2723
648.1345
646.5805
644.6113
642.2459
639.5216
636.4925
633.2276
629.8078
626.3215
622.8606
619.516
616.3739
613.5118
610.9957
608.8775
607.1935
605.9642
605.1938
604.8699
604.9646
605.4362
606.2315
607.2878
608.5372
609.9071
611.3221
692.5282
690.8239
689.431
687.7114
685.7515
683.5712
681.1948
678.656
675.9905
673.2368
670.434
667.6211
664.8357
662.1137
659.4884
656.9908
654.6488
652.4885
650.5334
648.8052
647.3239
646.1074
645.1717
644.5296
644.1896
644.1551
644.4219
644.9769
645.7959
646.8428
648.068
649.4087
650.7896
652.1251
653.3222
654.2849
654.919
655.1382
654.869
654.0567
652.6692
650.7002
648.1708
645.1283
641.6447
637.8119
633.7375
629.5383
625.3347
621.2448
617.3798
613.8395
610.7094
608.0586
605.938
604.3795
603.3962
602.9827
603.1146
603.7401
693.6988
693.3037
692.7661
692.0544
691.0921
689.8923
688.4456
686.7614
684.8541
682.7456
680.4634
678.0388
675.5061
672.9005
670.257
667.6094
664.9889
662.4241
659.9407
657.5612
655.306
653.1937
651.242
649.4687
647.892
646.5313
645.4065
644.5377
643.9436
643.6399
643.6364
643.9345
644.5245
645.3827
646.4696
647.729
649.0881
650.4596
651.7448
652.8385
653.6353
654.0362
653.9558
653.3283
652.1136
650.3001
647.9069
644.9821
641.6003
637.8572
633.8638
629.7388
625.6025
621.5705
617.7486
614.2299
611.0935
608.4049
606.2188
604.5762
694.866
694.8523
694.8669
694.803
694.6153
694.2604
693.7038
692.9191
691.8892
690.6063
689.0723
687.2981
685.3027
683.1122
680.7582
678.276
675.7027
673.0756
670.4305
667.8003
665.2142
662.6968
660.2687
657.9463
655.7431
653.6709
651.7415
649.9677
648.365
646.9522
645.7517
644.7887
644.0897
643.6803
643.5812
643.8052
644.3524
645.2068
646.3333
647.6757
649.1564
650.6792
652.1323
653.3952
654.3461
654.8706
654.8708
654.2733
653.0355
651.1502
648.6462
645.5865
642.0628
638.1887
634.0893
629.8912
625.712
621.6522
617.7923
614.1981
696.1234
695.3071
695.3028
695.2467
695.3158
695.3919
695.4381
695.3978
695.2231
694.8708
694.305
693.4989
692.4355
691.1082
689.5208
687.6871
685.6297
683.3789
680.9704
678.4436
675.8391
673.1969
670.5541
667.9431
665.3908
662.918
660.5392
658.2639
656.0977
654.0443
652.1084
650.2972
648.6232
647.1057
645.7709
644.652
643.7869
643.2153
642.9738
643.091
643.5812
644.4393
645.6355
647.113
648.7868
650.5461
652.2593
653.7822
654.968
655.6792
655.7999
655.2467
653.9775
651.9965
649.3562
646.1525
642.5153
638.5907
634.5237
630.4411
700.5784
698.1144
697.4362
696.6169
696.1428
695.8518
695.7389
695.7508
695.8376
695.9442
696.0142
695.9925
695.8277
695.4742
694.8946
694.0608
692.9558
691.5741
689.9216
688.0155
685.8827
683.5586
681.0846
678.5056
675.8672
673.2132
670.5829
668.0088
665.5156
663.1188
660.8257
658.6362
656.5449
654.5445
652.6288
650.7965
649.055
647.4222
645.9287
644.6171
643.5403
642.7568
642.3251
642.2958
642.7037
643.5591
644.8409
646.4913
648.4143
650.4775
652.5192
654.3583
655.8095
656.6999
656.8871
656.2783
654.846
652.6363
649.7665
646.4091
708.7402
704.882
703.3078
701.4343
699.9389
698.6763
697.6907
696.9673
696.4903
696.2306
696.1495
696.1997
696.3274
696.4747
696.582
696.5907
696.4456
696.0982
695.5081
694.6455
693.4929
692.0455
690.3115
688.3122
686.0799
683.6567
681.0914
678.4367
675.7456
673.0677
670.4464
667.9156
665.4979
663.2034
661.0303
658.9662
656.9913
655.0826
653.2187
651.3855
649.5812
647.8207
646.1385
644.589
643.2441
642.1886
641.5114
641.2954
641.6053
642.4754
643.8976
645.8134
648.1093
650.618
653.1254
655.386
657.1471
658.1825
658.3297
657.5319
718.6256
714.5936
712.4986
709.9918
707.6774
705.4784
703.4696
701.6834
700.1508
698.8906
697.9099
697.2035
696.7541
696.5323
696.4983
696.6028
696.7893
696.9964
697.1603
697.2179
697.1093
696.7814
696.19
695.3024
694.0994
692.5767
690.7448
688.6295
686.2698
683.7163
681.0276
678.2669
675.4975
672.778
670.1585
667.6761
665.3524
663.1916
661.1812
659.2932
657.4884
655.7222
653.9514
652.1421
650.278
648.3668
646.4457
644.5831
642.8769
641.4484
640.4316
639.9589
640.1429
641.0582
642.7216
645.0747
647.973
651.1872
654.4259
657.3873
727.1056
724.2324
722.3271
720.0304
717.647
715.1769
712.6838
710.2229
707.851
705.6216
703.5828
701.7753
700.2305
698.969
697.9992
697.3171
696.9058
696.7357
696.7659
696.9451
697.2135
697.5055
697.7523
697.8847
697.8369
697.5493
696.9723
696.0687
694.8165
693.2107
691.2642
689.0074
686.4873
683.7649
680.9116
678.0045
675.1212
672.3335
669.702
667.2703
665.0612
663.0736
661.2822
659.6397
658.0813
656.5322
654.9175
653.1731
651.2579
649.1648
646.9295
644.6358
642.4154
640.4423
638.9202
638.0629
638.0651
639.0675
641.1224
644.1628
732.1188
730.9519
729.806
728.4017
726.7222
724.8043
722.6693
720.3567
717.9123
715.3883
712.8407
710.3279
707.9076
705.6347
703.5592
701.7238
700.162
698.8967
697.9383
697.2846
696.9197
696.8143
696.9265
697.2028
697.5799
697.9873
698.3496
698.5904
698.6358
698.418
697.8796
696.9768
695.683
693.9912
691.9152
689.4905
686.7727
683.8355
680.7659
677.6594
674.6129
671.7171
669.049
666.6643
664.5907
662.8241
661.326
660.0257
658.825
657.608
656.2532
654.6496
652.7141
650.4087
647.7561
644.8535
641.8779
639.0772
636.7416
635.1458
733.7592
733.8269
733.5528
733.1617
732.5031
731.5898
730.4002
728.9346
727.2017
725.2213
723.023
720.6454
718.1351
715.5449
712.9315
710.3543
707.8723
705.5423
703.4165
701.5403
699.9502
698.6721
697.7195
697.0928
696.7779
696.7465
696.9562
697.3514
697.8648
698.4202
698.9349
699.3234
699.5018
699.3916
698.9252
698.0494
696.7304
694.9566
692.7413
690.1238
687.1687
683.9634
680.614
677.239
673.9608
670.8967
668.1486
665.7925
663.8689
662.3759
661.2643
660.4378
659.7579
659.0535
658.1369
656.824
654.9628
652.4624
649.3204
645.6465
733.6706
733.9845
734.2578
734.4775
734.5976
734.5676
734.3502
733.9098
733.2189
732.2577
731.0159
729.4931
727.6991
725.654
723.3878
720.9394
718.3556
715.6894
712.9984
710.3428
707.7833
705.379
703.185
701.25
699.6145
698.3086
697.35
696.7427
696.4757
696.5224
696.8405
697.3728
698.0482
698.7841
699.4895
700.0687
700.4256
700.469
700.1178
699.3065
697.9903
696.1499
693.7948
690.9656
687.7344
684.2029
680.4982
676.7661
673.1616
669.8378
666.9322
664.5534
662.7674
661.5861
660.9587
660.7667
660.827
660.9067
660.7567
660.173
733.6436
733.4251
733.7535
734.011
734.3662
734.7154
735.0361
735.2804
735.4064
735.3719
735.1386
734.6732
733.9491
732.9475
731.6591
730.084
728.2325
726.1247
723.7908
721.2694
718.6072
715.8573
713.0779
710.3303
707.677
705.1797
702.8969
700.8819
699.1799
697.8266
696.8449
696.2439
696.0167
696.1396
696.5715
697.254
698.1124
699.0583
699.9919
700.8061
701.3915
701.6419
701.46
700.7643
699.4952
697.6208
695.1422
692.0971
688.5614
684.6489
680.5076
676.3128
672.2575
668.5389
665.3429
662.8267
661.0987
660.2017
660.1026
660.689
734.6291
733.6997
733.7128
733.6178
733.7248
733.9265
734.2285
734.5976
735.0026
735.4054
735.7648
736.0376
736.1806
736.1522
735.9148
735.4357
734.6892
733.6576
732.332
730.7131
728.8112
726.6466
724.2485
721.6553
718.9129
716.0744
713.1979
710.346
707.583
704.9737
702.5809
700.4628
698.671
697.2474
696.2218
695.6093
695.4087
695.6001
696.1445
696.9836
698.0401
699.2199
700.4149
701.5068
702.372
702.8879
702.9391
702.4248
701.2662
699.4141
696.8552
693.6183
689.7773
685.4527
680.8092
676.0503
671.4079
667.1253
663.4289
660.4727
736.6898
735.3501
734.9415
734.4192
734.0721
733.8387
733.7449
733.7867
733.9587
734.2463
734.6274
735.073
735.5481
736.0129
736.4245
736.7386
736.9115
736.902
736.6727
736.1921
735.4354
734.3856
733.0346
731.3831
729.4413
727.2286
724.7733
722.1125
719.291
716.3609
713.3806
710.4132
707.5256
704.7858
702.2614
700.0169
698.1109
696.5928
695.5002
694.8557
694.6644
694.9117
695.5617
696.557
697.8187
699.2484
700.7304
702.1358
703.3274
704.1657
704.5158
704.2561
703.286
701.5357
698.9736
695.6145
691.5252
686.8277
681.693
676.3137
739.567
738.1683
737.4609
736.66
735.9328
735.2701
734.7001
734.2428
733.9162
733.7331
733.6997
733.8144
734.0678
734.442
734.9114
735.4434
735.9999
736.5383
737.0139
737.3812
737.5962
737.6177
737.4091
736.9398
736.1858
735.1313
733.7684
732.0978
730.1288
727.8796
725.3766
722.6549
719.7574
716.7349
713.6454
710.5528
707.5262
704.6378
701.9609
699.5669
697.5225
695.8861
694.704
694.007
693.8077
694.0971
694.8432
695.9901
697.4581
699.1447
700.9273
702.6669
704.2133
705.4114
706.1091
706.1658
705.4624
703.9133
701.4817
698.2081
743.2842
741.8136
740.9872
740.0692
739.1608
738.2546
737.365
736.5121
735.7199
735.0139
734.4194
733.9591
733.651
733.5068
733.5305
733.7178
734.0556
734.5219
735.087
735.7145
736.3624
736.9852
737.5359
737.9677
738.236
738.2998
738.1234
737.6774
736.9393
735.8938
734.5336
732.859
730.8779
728.6063
726.0679
723.2947
720.3268
717.2129
714.0099
710.7827
707.603
704.548
701.6976
699.1317
696.9267
695.1509
693.8606
693.096
692.877
693.2004
694.0376
695.3329
697.0043
698.9443
701.0227
703.0914
704.9896
706.5531
707.6298
708.1265
748.5482
746.4473
745.5033
744.4148
743.4066
742.3982
741.3857
740.3612
739.3293
738.302
737.2989
736.345
735.4683
734.6982
734.0623
733.5848
733.2842
733.1713
733.2484
733.5079
733.933
734.4973
735.1661
735.8982
736.6474
737.3644
737.9996
738.5047
738.8346
738.9491
738.814
738.4016
737.691
736.6685
735.327
733.6658
731.6909
729.4149
726.8572
724.0453
721.0152
717.8122
714.4917
711.1196
707.7709
704.529
701.4825
698.722
696.3356
694.4039
692.9945
692.1574
691.9197
692.2822
693.2163
694.6633
696.5344
698.714
701.0677
703.4694
756.7795
753.165
751.7924
750.1527
748.8012
747.5432
746.3723
745.2437
744.1294
743.0081
741.8685
740.7091
739.5384
738.3735
737.239
736.165
735.1847
734.3317
733.6375
733.1288
732.8252
732.7374
732.8656
733.1993
733.7168
734.3865
735.1679
736.0139
736.8728
737.6915
738.4172
739.0002
739.3956
739.565
739.4763
739.105
738.433
737.4482
736.1439
734.5181
732.5733
730.3169
727.7621
724.9293
721.8483
718.5594
715.1158
711.5843
708.0446
704.5885
701.3167
698.3343
695.7455
693.647
692.1209
691.2278
690.9996
691.435
692.4983
694.1173
769.3249
763.6688
761.4192
758.7158
756.5087
754.5251
752.7886
751.2437
749.8483
748.557
747.3274
746.1225
744.9128
743.6786
742.4104
741.1101
739.7903
738.4734
737.1902
735.977
734.8733
733.9189
733.1501
732.5974
732.2824
732.2158
732.396
732.8084
733.4262
734.2107
735.1145
736.0831
737.0587
737.983
738.8003
739.4602
739.9192
740.1417
740.1003
739.7753
739.1526
738.2231
736.9805
735.4202
733.5395
731.3376
728.8178
725.9899
722.8733
719.501
715.922
712.2043
708.4349
704.7193
701.1781
697.9413
695.14
692.8947
691.3046
690.4195
785.8019
778.7323
775.498
771.6058
768.2111
765.0642
762.2432
759.7303
757.5127
755.5614
753.839
752.301
750.8994
749.5861
748.3156
747.0487
745.7548
744.4137
743.0177
741.5715
740.0924
738.6088
737.1584
735.7855
734.5378
733.4625
732.6027
731.994
731.6609
731.6144
731.8507
732.3504
733.0797
733.9914
735.0287
736.1283
737.2246
738.2537
739.1572
739.885
740.397
740.6635
740.6648
740.3886
739.828
738.9777
737.832
736.3825
734.6174
732.5229
730.0859
727.2983
724.1629
720.6996
716.9518
712.9915
708.9231
704.8818
701.0247
697.4998
802.838
796.321
792.7312
788.3723
784.1971
780.0844
776.1521
772.4494
769.0241
765.9052
763.106
760.6235
758.4401
756.5251
754.8371
753.3275
751.9435
750.632
749.3429
748.0331
746.6692
745.23
743.7081
742.1112
740.4611
738.7932
737.1539
735.5972
734.1811
732.9628
731.9944
731.3181
730.9623
730.9387
731.2403
731.8415
732.6988
733.754
734.9381
736.1763
737.3934
738.5194
739.4937
740.2686
740.8108
741.101
741.1319
740.904
740.4209
739.6842
738.6885
737.4185
735.8476
733.9396
731.6532
728.9495
725.8034
722.2174
718.2322
713.9279
814.9514
811.3883
808.6662
805.2779
801.5667
797.5796
793.417
789.1746
784.9457
780.8168
776.8643
773.1514
769.726
766.6193
763.8453
761.4005
759.2655
757.4062
755.777
754.3236
752.9869
751.7071
750.4274
749.0988
747.6829
746.1559
744.5099
742.7549
740.9183
739.0434
737.1874
735.4169
733.8033
732.4168
731.321
730.567
730.188
730.1963
730.5805
731.3058
732.3161
733.5376
734.8852
736.2691
737.602
738.8069
739.822
740.6052
741.1352
741.41
741.4424
741.2537
740.8652
740.29
739.5243
738.541
737.2865
735.6848
733.6508
731.1191
817.6445
818.3647
817.6257
816.5587
814.7656
812.4092
809.5105
806.1508
802.413
798.3917
794.1858
789.8957
785.6188
781.4458
777.4572
773.7202
770.2861
767.1887
764.4433
762.0465
759.9771
758.1975
756.6569
755.2938
754.041
752.8294
751.5929
750.2738
748.8267
747.2229
745.4529
743.529
741.4846
739.3733
737.2659
735.2449
733.3992
731.816
730.574
729.7353
729.3396
729.3988
729.8952
730.7812
731.9828
733.4051
734.9408
736.4796
737.9184
739.1709
740.1752
740.899
741.3404
741.5257
741.5027
741.3294
741.0582
740.7205
740.3149
739.8156
810.4659
814.7598
816.2638
817.8801
818.7284
818.9753
818.5441
817.4461
815.6978
813.3393
810.4283
807.0387
803.2571
799.18
794.9098
790.5505
786.2041
781.9663
777.923
774.1466
770.6933
767.6008
764.8869
762.549
760.5645
758.8921
757.4744
756.2414
755.115
754.014
752.86
751.583
750.1278
748.4585
746.5627
744.4546
742.1749
739.7901
737.388
735.0721
732.9536
731.1419
729.7351
728.8098
728.4133
728.5571
729.2141
730.3189
731.7729
733.4514
735.2159
736.9267
738.4574
739.7079
740.6168
741.1689
741.3969
741.3756
741.2081
741.0133
797.5895
803.0378
805.9602
809.3291
812.2841
814.8923
817.0199
818.5964
819.5571
819.8585
819.477
818.41
816.6758
814.3131
811.3794
807.9489
804.1095
799.9599
795.6055
791.155
786.7155
782.3892
778.2686
774.4331
770.9457
767.8497
765.1672
762.8975
761.0172
759.4808
758.2236
757.1649
756.2131
755.2713
754.2446
753.0473
751.6102
749.8875
747.8622
745.5499
743.0004
740.2955
737.545
734.8792
732.4379
730.3596
728.7675
727.7574
727.387
727.6671
728.5583
729.9714
731.7731
733.7971
735.8595
737.7774
739.3914
740.5873
741.3151
741.6094
785.5427
789.3816
792.249
795.6472
799.1749
802.7677
806.3064
809.677
812.7681
815.4747
817.7022
819.3693
820.4111
820.7814
820.4542
819.4244
817.7083
815.3429
812.3847
808.9074
804.9998
800.7626
796.3046
791.7393
787.1802
782.7371
778.5112
774.5909
771.0483
767.9347
765.2786
763.0828
761.324
759.953
758.8965
758.0609
757.3379
756.611
755.764
754.6904
753.3026
751.541
749.3815
746.8406
743.978
740.8946
737.7274
734.6401
731.8099
729.4121
727.6039
726.5073
726.1952
726.6799
727.9074
729.757
732.0497
734.5665
737.0804
739.4017
779.7071
780.3291
781.8245
783.6808
786.0886
788.9063
792.0892
795.5436
799.1725
802.8673
806.5141
809.9973
813.2032
816.0246
818.364
820.1372
821.2761
821.7314
821.4737
820.4947
818.8079
816.4476
813.4682
809.9427
805.9598
801.6218
797.0412
792.3364
787.6286
783.0363
778.6715
774.6344
771.0086
767.8567
765.2161
763.0956
761.4737
760.2976
759.485
758.9272
758.4956
758.0491
757.4448
756.5493
755.2508
753.4708
751.1743
748.377
745.1489
741.613
737.9391
734.3322
731.0167
728.2173
726.1373
724.9367
724.7111
725.4771
727.168
729.6349
781.5583
779.3193
779.0002
778.7357
779.0887
779.9426
781.3432
783.2702
785.6939
788.5625
791.806
795.3381
799.0589
802.8588
806.6217
810.2291
813.5647
816.518
818.9881
820.8872
822.1436
822.704
822.535
821.6246
819.9822
817.6387
814.6459
811.0744
807.0125
802.5634
797.8426
792.9741
788.0868
783.3099
778.7681
774.5759
770.832
767.6138
764.9712
762.9225
761.4502
760.4993
759.9781
759.7609
759.6949
759.6093
759.3276
758.6819
757.5285
755.7628
753.3329
750.2496
746.5923
742.5089
738.2089
733.9509
730.0206
726.7036
724.2464
722.7978
787.9589
784.9029
783.4346
781.7569
780.3808
779.2975
778.6073
778.3734
778.6484
779.4655
780.8379
782.7573
785.1939
788.0972
791.3968
795.0058
798.8228
802.7355
806.6254
810.3707
813.8518
816.9542
819.5735
821.6177
823.011
823.6959
823.6348
822.811
821.2297
818.9175
815.922
812.311
808.1708
803.6044
798.7293
793.6745
788.5771
783.5778
778.8159
774.4234
770.518
767.1962
764.5255
762.5378
761.2238
760.5288
760.3523
760.5502
760.9415
761.3191
761.4646
761.1653
760.2345
758.531
755.9776
752.5765
748.4184
743.6828
738.6203
733.5076
793.0259
791.6363
790.3684
788.8276
787.0944
785.2796
783.4695
781.7698
780.2797
779.0951
778.3021
777.9738
778.167
778.9193
780.2475
782.1461
784.5869
787.5201
790.8754
794.5644
798.4837
802.5183
806.5462
810.4421
814.082
817.3478
820.1306
822.3346
823.88
824.7049
824.7677
824.0472
822.5438
820.2791
817.296
813.6573
809.4457
804.7621
799.724
794.4642
789.1268
783.8646
778.8332
774.1851
770.0618
766.5844
763.8449
761.8958
760.7416
760.3327
760.5618
761.2651
762.2289
763.201
763.9084
764.0788
763.4679
761.8899
759.248
755.5706
791.7853
793.4507
793.5555
793.5692
793.0287
792.1055
790.8126
789.2304
787.4403
785.5381
783.6263
781.8113
780.1988
778.8897
777.9757
777.5354
777.6311
778.3053
779.5786
781.4488
783.89
786.8529
790.2668
794.0419
798.0719
802.2384
806.4151
810.4724
814.2817
817.7205
820.6758
823.0482
824.7543
825.7293
825.9278
825.325
823.9168
821.7196
818.77
815.1244
810.8589
806.0689
800.8688
795.3913
789.7859
784.2161
778.8551
773.8792
769.4593
765.7499
762.8766
760.9231
759.9182
759.8253
760.5353
761.8633
763.553
765.2927
766.751
767.648
783.3064
787.5146
789.2601
791.2287
792.6241
793.5941
794.0674
794.0526
793.5624
792.6324
791.316
789.6837
787.8208
785.8246
783.8011
781.8604
780.1134
778.6665
777.6175
777.0517
777.0374
777.6228
778.8337
780.6716
783.1128
786.1092
789.5891
793.4604
797.613
801.924
806.2616
810.4904
814.4769
818.0937
821.2241
823.7659
825.6339
826.7618
827.103
826.6307
825.3375
823.2347
820.3516
816.7354
812.4516
807.5847
802.2396
796.5431
790.6445
784.715
778.945
773.5386
768.7042
764.6424
761.5306
759.5043
758.6359
758.9132
760.2279
762.3802
770.9643
775.8129
778.4909
781.6363
784.5029
787.1592
789.4937
791.4481
792.9653
794.0051
794.5429
794.5727
794.1074
793.1795
791.8407
790.1606
788.2245
786.1312
783.9893
781.9131
780.0188
778.4192
777.2197
776.5128
776.3745
776.8604
778.0021
779.8059
782.2508
785.2893
788.8484
792.8319
797.1248
801.5973
806.1101
810.5209
814.6895
818.4834
821.783
824.4851
826.5053
827.7796
828.2638
827.9329
826.7791
824.8097
822.046
818.5221
814.2864
809.4034
803.9577
798.0583
791.8438
785.4854
779.1887
773.1925
767.7614
763.1676
759.6588
757.3973
759.6844
763.2855
765.7998
768.8169
771.9322
775.1378
778.3471
781.4822
784.461
787.2029
789.6318
791.6788
793.2859
794.4085
795.018
795.1037
794.6744
793.7586
792.4049
790.6807
788.6709
786.4752
784.2046
781.9783
779.9184
778.1456
776.7739
775.9054
775.6256
775.9989
777.0647
778.8346
781.2909
784.3863
788.0449
792.1652
796.6238
801.2812
805.9878
810.5913
814.9429
818.9049
822.3553
825.1928
827.3385
828.7364
829.3521
829.1688
828.184
826.4044
823.8426
820.5152
816.4433
811.6567
806.1997
800.1415
793.5907
786.7086
779.7142
772.8617
752.5158
754.189
755.8065
757.7748
760.0527
762.6054
765.4101
768.4211
771.5851
774.8375
778.1056
781.3106
784.3707
787.2041
789.7322
791.8829
793.594
794.8159
795.5144
795.6732
795.2953
794.4041
793.0437
791.2785
789.192
786.8845
784.4699
782.0724
779.8215
777.8474
776.2747
775.2176
774.7736
775.0182
776.0004
777.7388
780.2193
783.3942
787.1831
791.4759
796.1373
801.0132
805.939
810.7477
815.2792
819.3884
822.9525
825.8756
828.0912
829.561
830.2711
830.2255
829.438
827.9234
825.6892
822.7285
819.0192
814.5326
809.2546
803.2222
749.1585
749.581
750.2977
751.1682
752.3012
753.6906
755.3674
757.3396
759.6076
762.158
764.9645
767.988
771.177
774.469
777.7927
781.0697
784.2178
787.1536
789.7957
792.0681
793.9036
795.2466
796.0564
796.3093
796.0014
795.1492
793.7913
791.9878
789.82
787.3883
784.8097
782.2142
779.7401
777.5288
775.7186
774.4386
773.8013
773.8969
774.7865
776.498
779.0217
782.3091
786.2731
790.7911
795.7103
800.8557
806.0397
811.0737
815.78
820.0024
823.6165
826.5358
828.7147
830.147
830.8597
830.9015
830.3251
829.1706
827.4543
825.1808
747.1555
747.5227
747.8617
748.2503
748.6988
749.2483
749.9417
750.8211
751.9257
753.2885
754.934
756.8765
759.1185
761.6501
764.448
767.4758
770.6848
774.0148
777.396
780.7509
783.9968
787.0488
789.8226
792.2378
794.2214
795.711
796.6577
797.0294
796.8133
796.0176
794.6737
792.8359
790.5823
788.0129
785.2475
782.4226
779.6869
777.1952
775.1025
773.5562
772.6883
772.6076
773.3919
775.0812
777.6727
781.1173
785.3194
790.1396
795.4007
800.897
806.407
811.7081
816.5925
820.8836
824.4502
827.218
829.1755
830.37
830.8944
830.8731
744.435
745.3653
745.8434
746.3898
746.8387
747.2453
747.6239
748.0105
748.4448
748.9707
749.6334
750.477
751.5419
752.8626
754.4655
756.3674
758.5734
761.0767
763.8573
766.8824
770.1065
773.4723
776.9123
780.3502
783.7036
786.8859
789.8099
792.3904
794.5479
796.2118
797.3241
797.8425
797.7436
797.0255
795.7104
793.8456
791.5041
788.7846
785.8095
782.7219
779.6817
776.8594
774.4295
772.5619
771.413
771.116
771.7709
773.4359
776.1192
779.7742
784.2971
789.5284
795.2591
801.2414
807.2038
812.8698
817.9822
822.3286
825.7654
828.2524
741.2176
742.1995
742.8731
743.6732
744.4143
745.1
745.7062
746.2305
746.6797
747.0714
747.4322
747.7963
748.2037
748.6979
749.3241
750.1262
751.1453
752.4169
753.9691
755.821
757.9808
760.4453
763.1985
766.2119
769.4441
772.8418
776.3403
779.8655
783.3352
786.6618
789.7548
792.5237
794.8819
796.7496
798.0581
798.7536
798.8005
798.1851
796.9186
795.0393
792.6137
789.7375
786.5342
783.1531
779.765
776.5571
773.7256
771.4665
769.9657
769.3872
769.8614
771.4733
774.2519
778.1619
783.0984
788.8855
795.2805
801.9884
808.6906
815.1011
740.0506
739.755
740.1415
740.6326
741.3013
742.0461
742.829
743.604
744.3381
745.0067
745.5962
746.1032
746.5348
746.9081
747.2488
747.5899
747.9702
748.4322
749.02
749.7775
750.7456
751.9609
753.4533
755.2444
757.3461
759.7594
762.4734
765.4646
768.6969
772.1217
775.6782
779.2948
782.8901
786.3751
789.656
792.6366
795.222
797.3228
798.8584
799.7624
799.9859
799.5021
798.31
796.437
793.9416
790.9144
787.4776
783.784
780.0134
776.3677
773.0638
770.3247
768.3685
767.3966
767.5797
769.0446
771.8593
776.0204
781.4461
787.9755
744.0925
741.2865
740.6785
740.009
739.8124
739.8797
740.1981
740.7028
741.3419
742.0628
742.8185
743.5678
744.278
744.9252
745.4956
745.9853
746.4008
746.7578
747.0806
747.4005
747.7546
748.1838
748.731
749.4392
750.3495
751.4992
752.9204
754.6377
756.6673
759.0155
761.6771
764.6351
767.8596
771.3076
774.9227
778.6363
782.3676
786.0264
789.5144
792.7291
795.5668
797.9271
799.7176
800.8587
801.2883
800.9664
799.8796
798.0442
795.5094
792.3582
788.7084
784.7115
780.5503
776.4345
772.5947
769.2751
766.7236
765.1779
764.844
765.8488
754.8443
749.32
747.2771
744.8999
743.1536
741.7817
740.8254
740.2412
739.994
740.0378
740.3224
740.7948
741.4018
742.0924
742.82
743.5442
744.2323
744.8605
745.4145
745.8901
746.2925
746.6359
746.9429
747.2428
747.5705
747.9649
748.4673
749.1194
749.9624
751.0346
752.3703
753.9981
755.9393
758.2064
760.8016
763.7156
766.9257
770.3954
774.0732
777.8932
781.7748
785.6251
789.3404
792.8103
795.9211
798.561
800.6254
802.0225
802.6783
802.542
801.59
799.8297
797.3022
794.0833
790.284
786.0483
781.5513
776.9954
772.6001
768.5702
770.6945
763.6633
760.4004
756.5395
753.1928
750.1505
747.5078
745.2746
743.4636
742.0707
741.0795
740.4624
740.1821
740.1936
740.4471
740.8898
741.469
742.1339
742.8383
743.5419
744.2124
744.8257
745.3675
745.8327
746.2254
746.5582
746.8516
747.1325
747.4332
747.7899
748.2416
748.829
749.5925
750.5719
751.8044
753.3232
755.1563
757.3243
759.8384
762.6985
765.8906
769.3855
773.1366
777.0799
781.1335
785.1994
789.1661
792.9122
796.3119
799.2404
801.5809
803.2305
804.1068
804.1539
803.3462
801.6916
799.2314
796.0401
792.2249
787.9223
787.0917
780.7874
777.2263
772.9476
768.8012
764.7015
760.7629
757.0526
753.6362
750.5665
747.883
745.6111
743.7622
742.3334
741.3088
740.6607
740.3518
740.3371
740.5663
740.9866
741.5451
742.1912
742.8787
743.5676
744.2257
744.8292
745.3635
745.8229
746.2103
746.5367
746.82
747.084
747.3577
747.6741
748.069
748.5811
749.2504
750.118
751.2249
752.6107
754.3118
756.3593
758.776
761.5733
764.748
768.279
772.1246
776.2211
780.4824
784.8015
789.0537
793.1017
796.8019
800.0131
802.6047
804.4663
805.5153
805.7036
805.0241
803.5267
798.424
795.0467
792.4442
789.2327
785.6781
781.834
777.781
773.6114
769.4156
765.2834
761.2997
757.5415
754.0756
750.9568
748.2263
745.9109
744.0226
742.559
741.5043
740.8306
740.4999
740.4667
740.6799
741.0861
741.6319
742.2664
742.9435
743.6235
744.2745
744.8733
745.4053
745.8645
746.2527
746.579
746.8581
747.1103
747.3598
747.6351
747.9678
748.3936
748.9514
749.684
750.6372
751.8589
753.3968
755.296
757.5946
760.3193
763.4804
767.0666
771.0411
775.3387
779.8648
784.4971
789.0894
793.4791
797.4978
800.984
803.8003
805.8665
800.7895
801.3476
800.6597
799.6771
798.0273
795.849
793.1476
789.9891
786.441
782.5842
778.5062
774.2996
770.058
765.8733
761.8325
758.0151
754.4903
751.3149
748.532
746.1698
744.2414
742.7448
741.6642
740.9711
740.6266
740.5837
740.7901
741.1911
741.7322
742.3621
743.0345
743.7105
744.3589
744.9575
745.4926
745.9582
746.3556
746.6914
746.9769
747.2273
747.4607
747.6988
747.9671
748.2966
748.724
749.2938
750.0576
751.074
752.4058
754.1165
756.2651
758.8989
762.0468
765.7116
769.8632
774.4338
779.3154
784.3641
789.4122
794.2987
794.0892
797.8453
799.208
800.6633
801.4482
801.6956
801.3325
800.3615
798.7894
796.6431
793.9652
790.8133
787.2577
783.3793
779.2669
775.0143
770.717
766.4691
762.3603
758.4729
754.8789
751.6381
748.7961
746.3832
744.4138
742.8866
741.7855
741.081
740.7323
740.6904
740.9006
741.306
741.8505
742.4819
743.154
743.8288
744.4769
745.0784
745.6214
746.1013
746.5191
746.8793
747.1889
747.4562
747.6908
747.9048
748.1145
748.3428
748.6223
748.9978
749.527
750.2815
751.3435
752.8022
754.746
757.254
760.3836
764.1597
768.5669
773.5477
782.0699
786.948
789.6054
792.6448
795.3237
797.6912
799.6341
801.0895
801.9995
802.3229
802.034
801.124
799.6014
797.4913
794.8355
791.6903
788.1257
784.2225
780.07
775.7632
771.3995
767.076
762.8855
758.914
755.2377
751.9202
749.0107
746.5423
744.5314
742.9771
741.863
741.1575
740.8173
740.7897
741.0163
741.4368
741.9924
742.6297
743.3029
743.9756
744.6219
745.2258
745.7795
746.2818
746.7345
747.1407
747.5022
747.8184
748.0873
748.3066
748.478
748.6113
748.7295
748.8744
749.1097
749.5231
750.2251
751.3428
753.007
755.3274
770.3766
774.0217
776.7161
779.8749
783.1297
786.4186
789.6426
792.7043
795.5114
797.9759
800.0181
801.5682
802.5692
802.978
802.7673
801.9263
800.4611
798.3949
795.7672
792.6327
789.06
785.1294
780.9304
776.5594
772.1162
767.701
763.4111
759.3377
755.5622
752.1536
749.166
746.6365
744.5838
743.008
741.8913
741.1996
740.8848
740.8888
741.1475
741.5951
742.169
742.8137
743.4839
744.1467
744.7816
745.3797
745.9409
746.4703
746.9739
747.4545
747.9086
748.3245
748.6833
748.9621
749.1385
749.1992
749.149
749.0217
748.8859
748.8403
763.9548
764.7832
766.3446
768.2433
770.6232
773.3414
776.3545
779.5758
782.9215
786.2993
789.6144
792.7713
795.6768
798.2423
800.3869
802.0397
803.1418
803.6479
803.5284
802.7698
801.3751
799.3645
796.7744
793.6571
790.0789
786.1189
781.8667
777.4198
772.8808
768.3543
763.9431
759.7451
755.849
752.3313
749.2528
746.6557
744.5624
742.974
741.8707
741.2138
740.9485
741.0083
741.3201
741.8098
742.4085
743.0575
743.7122
744.3445
744.943
745.5105
746.0604
746.6103
747.1762
747.7653
748.3709
748.9679
749.5125
749.9477
750.2138
750.2652
765.1334
762.8933
762.7303
762.6445
763.1947
764.2196
765.7443
767.7288
770.1334
772.9021
775.9676
779.2522
782.6697
786.128
789.5317
792.7845
795.7921
798.4651
800.7214
802.4882
803.7048
804.3236
804.312
803.6529
802.3457
800.4065
797.8675
794.7772
791.1987
787.2091
782.8972
778.3616
773.7082
769.0468
764.4875
760.1369
756.0938
752.4447
749.2597
746.5888
744.4591
742.8728
741.8077
741.2183
741.0396
741.1921
741.5889
742.1426
742.7739
743.4176
744.029
744.5866
745.0926
745.5701
746.0577
746.6
747.2361
747.9865
748.8426
749.7607
772.947
768.6661
766.9701
765.0691
763.6883
762.7064
762.1998
762.1871
762.6864
763.6994
765.2137
767.2023
769.6235
772.4219
775.5298
778.8691
782.353
785.8887
789.3798
792.7296
795.8429
798.6295
801.006
802.8983
804.2436
804.9918
805.1068
804.5676
803.3688
801.521
799.0512
796.0021
792.4324
788.4155
784.0387
779.4011
774.612
769.7875
765.047
760.5088
756.285
752.476
749.1654
746.4139
744.2561
742.6965
741.7095
741.24
741.2077
741.5135
742.0481
742.7019
743.3764
743.9937
744.5062
744.9024
745.2092
745.4872
745.8163
746.2711
783.8031
779.2115
776.802
773.9928
771.4038
768.9784
766.8072
764.9505
763.47
762.4187
761.84
761.7656
762.214
763.189
764.6792
766.6582
769.0844
771.9024
775.044
778.4305
781.9745
785.5826
789.1581
792.6034
795.8233
798.7268
801.2298
803.2572
804.7443
805.6384
805.9
805.5033
804.4372
802.7056
800.3282
797.3404
793.7938
789.7561
785.3113
780.5579
775.6084
770.5863
765.6222
760.8498
756.3993
752.3908
748.9268
746.0851
743.9118
742.4165
741.5698
741.3036
741.515
742.0745
742.8363
743.6529
744.3923
744.9576
745.3019
745.4394
793.3041
789.9865
787.8661
785.31
782.6525
779.8901
777.0877
774.3115
771.6322
769.1233
766.8574
764.9045
763.3289
762.187
761.5251
761.3773
761.7639
762.6902
764.1462
766.1058
768.5277
771.3564
774.5233
777.9493
781.5463
785.2205
788.8749
792.4118
795.7358
798.7561
801.3884
803.5571
805.1966