/*--------------------------------*- C++ -*----------------------------------*\
| =========                 |                                                 |
| \\      /  F ield         | OpenFOAM: The Open Source CFD Toolbox           |
|  \\    /   O peration     | Version:  2312                                  |
|   \\  /    A nd           | Website:  www.openfoam.com                      |
|    \\/     M anipulation  |                                                 |
\*---------------------------------------------------------------------------*/
FoamFile
{
    version     2.0;
    format      ascii;
    arch        "LSB;label=32;scalar=64";
    class       volScalarField;
    location    "4800";
    object      ILambda_12_0;
}
// * * * * * * * * * * * * * * * * * * * * * * * * * * * * * * * * * * * * * //

dimensions      [1 0 -3 0 0 0 0];

internalField   nonuniform List<scalar> 
12000
(
778.5117
762.2605
759.6556
754.5375
750.4002
747.0698
744.915
743.7224
743.1563
742.9195
742.8359
742.7919
742.6211
742.0266
740.6345
738.1662
734.6068
730.2424
725.5296
720.8895
716.5651
712.6201
709.0465
705.878
703.2254
701.2189
699.909
699.1976
698.8397
698.5112
697.9034
696.8058
695.1511
693.0156
690.5852
688.1003
685.7953
683.8427
682.319
681.206
680.4153
679.8176
679.2685
678.6098
677.6958
676.4207
674.7147
672.5183
669.7613
666.4045
662.4663
657.9983
653.0355
647.6226
641.8452
635.8115
629.6617
623.6305
618.0653
613.4963
728.5446
727.5515
726.2076
724.8723
723.714
722.3899
720.7726
718.8077
716.531
713.9881
711.2064
708.204
705.03
701.8004
698.6893
695.8722
693.4546
691.4364
689.7327
688.2328
686.8519
685.5449
684.2828
683.02
681.6801
680.1711
678.4177
676.3907
674.1191
671.6798
669.1738
666.6979
664.3202
662.0652
659.9107
657.7956
655.636
653.3475
650.8643
648.1487
645.1915
642.0063
638.6238
635.0921
631.4688
627.8113
624.1755
620.6235
617.23
614.0693
611.2015
608.6758
606.5444
604.8557
603.641
602.9173
602.6807
602.8804
603.4008
604.0241
701.0431
698.281
696.4719
694.3525
692.1515
689.8205
687.4035
684.9428
682.4819
680.056
677.6942
675.422
673.2612
671.2235
669.3025
667.4699
665.68
663.8815
662.0303
660.0969
658.0655
655.9291
653.6848
651.3331
648.8814
646.3465
643.7554
641.1409
638.5353
635.9635
633.4384
630.9602
628.519
626.0994
623.6875
621.2758
618.8678
616.4787
614.1342
611.8667
609.7115
607.7032
605.8737
604.2502
602.8538
601.6991
600.7945
600.1423
599.7375
599.5668
599.6091
599.8374
600.2198
600.7187
601.2921
601.8958
602.4857
603.022
603.478
603.8486
669.9972
666.2987
664.3806
662.0523
659.8293
657.607
655.4193
653.2625
651.1363
649.0361
646.9551
644.8843
642.8127
640.7288
638.6228
636.489
634.3277
632.1444
629.9488
627.7529
625.5699
623.4136
621.2982
619.2378
617.2462
615.3352
613.514
611.7888
610.1631
608.6391
607.2183
605.9037
604.7
603.6144
602.6556
601.8333
601.1564
600.6318
600.2635
600.0517
599.9932
600.0811
600.3056
600.6541
601.1122
601.6639
602.2922
602.9799
603.7097
604.4661
605.2351
606.0057
606.7696
607.5225
608.2641
608.999
609.7363
610.4898
611.277
612.1128
639.0286
635.6257
633.9594
631.9277
630.0279
628.1391
626.2884
624.4686
622.6811
620.9269
619.2085
617.5297
615.8957
614.3137
612.7919
611.3397
609.9664
608.6809
607.4907
606.4023
605.4206
604.5496
603.7919
603.1488
602.6207
602.2068
601.9056
601.7153
601.6339
601.6597
601.7908
602.0249
602.3594
602.7906
603.3135
603.9217
604.6076
605.3623
606.1764
607.0403
607.9444
608.8798
609.8385
610.8135
611.799
612.7908
613.7861
614.7835
615.7832
616.7869
617.7972
618.8179
619.8529
620.9069
621.9839
623.0877
624.2213
625.3869
626.5861
627.8188
614.9674
612.7481
611.7634
610.5731
609.5225
608.5289
607.615
606.7793
606.0264
605.3597
604.7826
604.2984
603.9096
603.6183
603.4257
603.3319
603.3363
603.4371
603.6319
603.9176
604.2907
604.7469
605.2819
605.891
606.5695
607.3124
608.1147
608.9715
609.8778
610.8283
611.8179
612.8412
613.8927
614.9672
616.0595
617.1649
618.2792
619.3988
620.5209
621.6434
622.7649
623.8848
625.0029
626.1196
627.2357
628.352
629.4696
630.5893
631.7119
632.8377
633.9666
635.098
636.2308
637.3631
638.4929
639.6178
640.7356
641.8446
642.9451
644.0426
605.1892
604.8296
604.8485
604.8811
605.0162
605.227
605.5185
605.8876
606.333
606.8523
607.4428
608.1013
608.8243
609.6078
610.4476
611.3391
612.278
613.2596
614.2793
615.3327
616.4154
617.5233
618.6522
619.7985
620.9584
622.1285
623.3056
624.4868
625.6693
626.8506
628.0285
629.2011
630.3668
631.5243
632.6728
633.8114
634.9399
636.0578
637.165
638.2613
639.3465
640.4203
641.4821
642.5312
643.5668
644.5877
645.5924
646.5793
647.5465
648.4922
649.4142
650.3103
651.1787
652.0173
652.8245
653.599
654.34
655.0481
655.7271
656.3895
610.7396
611.9751
612.7772
613.7483
614.7389
615.7753
616.8464
617.9496
619.0807
620.236
621.4116
622.6038
623.8091
625.024
626.2451
627.4695
628.6943
629.9167
631.1344
632.345
633.5464
634.7368
635.9144
637.0777
638.2251
639.3554
640.4674
641.5599
642.632
643.6826
644.7109
645.7159
646.6968
647.6526
648.5822
649.4845
650.3582
651.2021
652.0145
652.7939
653.5384
654.2463
654.9156
655.5443
656.1304
656.6719
657.1668
657.6133
658.0095
658.3537
658.6443
658.8801
659.0596
659.182
659.2463
659.2521
659.1994
659.0898
658.9283
658.7308
625.973
627.9015
628.9888
630.292
631.5468
632.8088
634.0603
635.3017
636.5298
637.7422
638.9368
640.1115
641.2643
642.3935
643.4974
644.5745
645.6231
646.6419
647.6295
648.5846
649.5058
650.3918
651.2414
652.0532
652.826
653.5583
654.2489
654.8963
655.4991
656.0559
656.5651
657.0253
657.4348
657.7922
658.096
658.3445
658.5363
658.6701
658.7446
658.7585
658.7109
658.6009
658.4279
658.1914
657.8913
657.5277
657.1008
656.6113
656.06
655.4483
654.7775
654.0497
653.2668
652.4315
651.5468
650.6162
649.6442
648.6368
647.6028
646.5605
643.269
644.9804
645.8975
646.9809
647.9855
648.9649
649.903
650.801
651.6567
652.4687
653.2356
653.9562
654.6291
655.2533
655.8274
656.3505
656.8214
657.2392
657.6028
657.9113
658.164
658.3598
658.4983
658.5786
658.6004
658.5632
658.4667
658.3108
658.0956
657.8213
657.4884
657.0975
656.6494
656.1455
655.5872
654.9761
654.3144
653.6044
652.8489
652.0509
651.214
650.3417
649.4384
648.5084
647.5567
646.5884
645.6091
644.6246
643.6412
642.6653
641.7036
640.7633
639.8516
638.976
638.1445
637.3652
636.6468
635.9987
635.4319
634.958
655.4802
656.2495
656.6412
657.076
657.4354
657.7454
657.9974
658.1926
658.3302
658.4101
658.4325
658.3976
658.3057
658.1575
657.9537
657.6952
657.383
657.0186
656.6035
656.1393
655.6281
655.072
654.4736
653.8355
653.1607
652.4525
651.7142
650.9498
650.1631
649.3585
648.5405
647.7138
646.8835
646.0547
645.2329
644.4236
643.6325
642.8656
642.1287
641.4278
640.7691
640.1585
639.602
639.1057
638.6752
638.3162
638.0341
637.834
637.7207
637.6986
637.7718
637.9436
638.2171
638.5947
639.0782
639.669
640.3678
641.1752
642.0919
643.1138
657.8947
657.4601
657.2335
656.9194
656.573
656.182
655.7499
655.2784
654.7698
654.2269
653.6526
653.0501
652.4228
651.7743
651.1083
650.4287
649.7397
649.0454
648.3503
647.6589
646.9757
646.3054
645.6528
645.0227
644.4197
643.8487
643.3143
642.8212
642.3738
641.9765
641.6334
641.3484
641.1253
640.9672
640.8774
640.8583
640.9122
641.0409
641.2457
641.5274
641.8861
642.3216
642.8329
643.4184
644.0761
644.8029
645.5954
646.4495
647.3603
648.3223
649.3292
650.3742
651.4499
652.5483
653.6609
654.779
655.8936
656.9963
658.0798
659.1371
652.2651
651.2152
650.7401
650.1386
649.5719
649.0025
648.4425
647.8932
647.3586
646.8425
646.3486
645.8807
645.4425
645.0376
644.6695
644.3415
644.0568
643.8182
643.6284
643.4899
643.4047
643.3748
643.4014
643.4858
643.6286
643.8301
644.0901
644.408
644.7827
645.2127
645.696
646.23
646.8118
647.4379
648.1044
648.8069
649.5406
650.3005
651.0808
651.8757
652.679
653.4844
654.2853
655.0748
655.8462
656.5927
657.3077
657.9844
658.6166
659.1981
659.7231
660.1864
660.5833
660.9097
661.1622
661.3388
661.4382
661.4614
661.4116
661.2991
646.6297
646.0126
645.8445
645.6244
645.4735
645.3582
645.2876
645.2602
645.2773
645.3394
645.447
645.6
645.7983
646.0414
646.3284
646.6582
647.029
647.439
647.886
648.3674
648.8805
649.4221
649.9887
650.5767
651.182
651.8007
652.4283
653.0604
653.6923
654.3195
654.9372
655.5409
656.126
656.688
657.2227
657.7261
658.1946
658.6248
659.0137
659.359
659.6586
659.9113
660.1163
660.2736
660.3838
660.4484
660.4696
660.4505
660.3949
660.3074
660.1933
660.0589
659.9112
659.7579
659.6077
659.47
659.3552
659.2746
659.2419
659.2772
647.3723
647.6292
647.9215
648.2557
648.6282
649.03
649.4599
649.9142
650.3902
650.8852
651.3961
651.9199
652.4536
652.994
653.5378
654.0818
654.6226
655.157
655.682
656.1945
656.6917
657.171
657.63
658.0663
658.4783
658.8642
659.2229
659.5535
659.8556
660.1292
660.3747
660.5932
660.786
660.9551
661.103
661.2326
661.3474
661.4514
661.549
661.6453
661.7454
661.8553
661.9809
662.1287
662.3054
662.5178
662.7729
663.0777
663.4391
663.8639
664.3586
664.9292
665.5815
666.3207
667.1517
668.0785
669.105
670.2348
671.473
672.8306
653.1912
653.8579
654.3009
654.8171
655.3218
655.8274
656.3267
656.818
657.299
657.7679
658.223
658.6634
659.0879
659.4958
659.8869
660.2609
660.6182
660.9592
661.2849
661.5966
661.896
662.185
662.4659
662.7414
663.0145
663.2884
663.5664
663.8525
664.1505
664.4644
664.7986
665.1572
665.5448
665.9656
666.4238
666.9239
667.4696
668.065
668.7134
669.4181
670.182
671.0074
671.8962
672.8498
673.8689
674.9537
676.1037
677.3175
678.5932
679.9281
681.3183
682.7595
684.2464
685.7731
687.333
688.919
690.5241
692.1416
693.7673
695.405
659.6182
660.2296
660.6097
661.0639
661.4969
661.9304
662.3578
662.7812
663.2012
663.6193
664.0372
664.4568
664.8803
665.3101
665.7486
666.1984
666.6622
667.1428
667.643
668.1657
668.7137
669.2898
669.8966
670.5366
671.2122
671.9255
672.6783
673.4721
674.3081
675.1872
676.1097
677.0756
678.0845
679.1353
680.2267
681.3568
682.523
683.7225
684.9517
686.2068
687.4833
688.7763
690.0806
691.3904
692.6998
694.0025
695.292
696.5616
697.8043
699.0134
700.1817
701.3024
702.3687
703.3741
704.3126
705.179
705.9688
706.6794
707.3114
707.8721
666.5534
667.3053
667.7939
668.3905
668.9849
669.604
670.2408
670.8982
671.5768
672.2781
673.0032
673.7533
674.5295
675.3327
676.1633
677.0218
677.9082
678.8226
679.7644
680.7329
681.7272
682.7459
683.7872
684.8491
685.9294
687.0251
688.1332
689.2504
690.3728
691.4965
692.6172
693.7303
694.8312
695.915
696.9767
698.0111
699.0132
699.9778
700.8999
701.7747
702.5973
703.3632
704.0683
704.7087
705.2809
705.7819
706.209
706.5603
706.8343
707.03
707.1471
707.1856
707.1463
707.0308
706.8413
706.5808
706.2535
705.8647
705.4219
704.9352
677.1493
678.3496
679.1129
680.0259
680.9331
681.8671
682.8164
683.7815
684.7597
685.7494
686.7485
687.7548
688.7658
689.7789
690.7913
691.8
692.8017
693.7931
694.7709
695.7313
696.6708
697.5857
698.4722
699.3267
700.1453
700.9243
701.6603
702.3497
702.9892
703.5756
704.1061
704.578
704.9889
705.3369
705.6202
705.8376
705.9881
706.0713
706.0872
706.0362
705.9193
705.7377
705.4935
705.1888
704.8264
704.4097
703.9423
703.4283
702.872
702.2782
701.6517
700.9978
700.3216
699.6287
698.9248
698.2159
697.5083
696.8084
696.1239
695.4607
690.7622
692.0678
692.8701
693.7958
694.6847
695.5658
696.4264
697.2648
698.0772
698.8604
699.6113
700.327
701.0045
701.641
702.234
702.7809
703.2793
703.7273
704.1227
704.4642
704.7502
704.9796
705.1518
705.2661
705.3225
705.3211
705.2623
705.1469
704.9761
704.7515
704.4747
704.1481
703.774
703.3552
702.8949
702.3965
701.8635
701.2999
700.7098
700.0975
699.4675
698.8244
698.173
697.5179
696.8642
696.2167
695.5803
694.9598
694.3599
693.7852
693.24
692.7285
692.2546
691.822
691.4344
691.0954
690.8086
690.5775
690.4065
690.2983
701.392
702.04
702.4483
702.879
703.2598
703.5995
703.8924
704.1374
704.333
704.4786
704.5735
704.6177
704.6112
704.5547
704.4488
704.2946
704.0934
703.8469
703.5569
703.2257
702.8558
702.4499
702.011
701.5422
701.0469
700.5287
699.9913
699.4385
698.8743
698.3026
697.7277
697.1536
696.5844
696.0244
695.4776
694.9482
694.44
693.957
693.5031
693.0817
692.6965
692.3508
692.0478
691.7904
691.5815
691.4237
691.3194
691.2706
691.2795
691.3477
691.4766
691.6673
691.9207
692.2375
692.6184
693.064
693.5751
694.153
694.7998
695.5217
703.9185
703.5958
703.4742
703.2809
703.0682
702.8194
702.5389
702.2268
701.8853
701.5165
701.1228
700.707
700.272
699.821
699.3572
698.8841
698.405
697.9236
697.4435
696.9685
696.5022
696.0483
695.6106
695.1926
694.798
694.4302
694.0925
693.7882
693.5203
693.2916
693.105
692.963
692.8679
692.8218
692.8267
692.8843
692.996
693.1632
693.387
693.6681
694.0072
694.4047
694.861
695.3759
695.9493
696.581
697.2705
698.0169
698.8196
699.6774
700.589
701.5529
702.5675
703.631
704.7417
705.8977
707.0977
708.3413
709.6301
710.9757
699.8066
699.0242
698.6929
698.282
697.9007
697.5215
697.1528
696.7949
696.451
696.1237
695.8157
695.53
695.2694
695.0368
694.8349
694.6663
694.5336
694.4391
694.3851
694.3738
694.4071
694.4868
694.6144
694.7913
695.0187
695.2975
695.6285
696.0121
696.4487
696.9382
697.4805
698.0753
698.7218
699.4193
700.1668
700.963
701.8066
702.6959
703.6292
704.6045
705.62
706.6732
707.7618
708.8835
710.0356
711.2155
712.4204
713.6474
714.8936
716.1558
717.4309
718.7154
720.006
721.2992
722.5916
723.8801
725.1619
726.4356
727.7031
728.9772
695.9881
695.6229
695.568
695.5137
695.5144
695.5544
695.6371
695.7621
695.9304
696.1427
696.3997
696.7021
697.0504
697.4448
697.8857
698.3731
698.9067
699.4863
700.1113
700.781
701.4946
702.251
703.0488
703.8867
704.7631
705.6761
706.6237
707.6039
708.6143
709.6525
710.7159
711.8019
712.9076
714.0301
715.1665
716.3136
717.4683
718.6276
719.788
720.9465
722.0998
723.2447
724.378
725.4966
726.5974
727.6773
728.7336
729.7632
730.7636
731.732
732.666
733.5629
734.4206
735.2367
736.0097
736.7381
737.4214
738.0603
738.6587
739.2263
698.8944
699.4566
699.9255
700.4972
701.1069
701.7632
702.4605
703.1971
703.9712
704.7809
705.6242
706.4992
707.404
708.3364
709.2943
710.2755
711.2774
712.2979
713.3342
714.3838
715.4441
716.5124
717.586
718.6619
719.7375
720.8099
721.8762
722.9337
723.9794
725.0107
726.0248
727.0191
727.9909
728.9379
729.8575
730.7477
731.6062
732.4312
733.2208
733.9735
734.6879
735.3628
735.9973
736.5906
737.1424
737.6523
738.1205
738.5473
738.9332
739.2792
739.5861
739.8553
740.0881
740.2863
740.4522
740.5884
740.6983
740.7859
740.8567
740.9163
709.4134
710.6833
711.5141
712.4973
713.4749
714.4756
715.4866
716.5063
717.5311
718.558
719.5842
720.6069
721.6234
722.6312
723.6278
724.6107
725.5776
726.5263
727.4546
728.3606
729.2422
730.0978
730.9256
731.7241
732.4919
733.2278
733.9306
734.5994
735.2334
735.8321
736.395
736.9219
737.4128
737.8678
738.2872
738.6716
739.0217
739.3385
739.6231
739.8767
740.1008
740.2972
740.4675
740.6139
740.7383
740.843
740.9304
741.0028
741.0627
741.1126
741.1548
741.1917
741.2254
741.2583
741.2925
741.3304
741.3747
741.4276
741.4921
741.5697
722.9264
724.2276
725.0364
725.9708
726.8671
727.7559
728.6245
729.4723
730.2965
731.0953
731.8671
732.6106
733.3244
734.0078
734.6599
735.2801
735.8681
736.4236
736.9466
737.4372
737.8955
738.322
738.7173
739.0819
739.4166
739.7224
740.0002
740.251
740.4761
740.6767
740.854
741.0094
741.1443
741.2601
741.3581
741.4398
741.5065
741.5595
741.6002
741.6297
741.6492
741.6596
741.6619
741.6569
741.6452
741.6272
741.6034
741.5738
741.5384
741.4968
741.4484
741.3922
741.3273
741.2522
741.1657
741.0662
740.9526
740.8236
740.6796
740.524
733.957
734.7691
735.2922
735.8766
736.4233
736.949
737.4465
737.9159
738.3564
738.7678
739.1501
739.5036
739.8287
740.126
740.396
740.6397
740.8578
741.0512
741.2208
741.3677
741.4927
741.5968
741.6809
741.7459
741.7926
741.8217
741.8339
741.8297
741.8097
741.7742
741.7234
741.6576
741.5766
741.4805
741.3689
741.2416
741.098
740.9375
740.7595
740.5631
740.3476
740.1118
739.8549
739.5758
739.2734
738.9467
738.5947
738.2163
737.8108
737.3773
736.915
736.4233
735.9017
735.35
734.7684
734.1578
733.5194
732.8559
732.1728
731.4817
740.1641
740.3949
740.6029
740.8149
741.0086
741.1822
741.3341
741.4634
741.57
741.6539
741.7152
741.7542
741.7711
741.7664
741.7402
741.693
741.625
741.5364
741.4274
741.2981
741.1486
740.9789
740.7889
740.5785
740.3475
740.0957
739.8227
739.5284
739.2123
738.8741
738.5136
738.1305
737.7246
737.2957
736.8437
736.3689
735.8713
735.3515
734.8099
734.2474
733.6651
733.0642
732.4464
731.8136
731.168
730.5124
729.8496
729.183
728.5164
727.8538
727.1996
726.5586
725.9357
725.3365
724.7671
724.2339
723.7441
723.3064
722.9308
722.6328
741.6014
741.3209
741.2494
741.1355
741.0184
740.8811
740.7252
740.5487
740.3512
740.1322
739.8915
739.6291
739.3449
739.0392
738.712
738.3637
737.9945
737.6049
737.1953
736.7665
736.3189
735.8535
735.371
734.8727
734.3595
733.8329
733.2944
732.7456
732.1885
731.6252
731.0579
730.4892
729.9218
729.3589
728.8036
728.2594
727.7301
727.2197
726.7323
726.2724
725.8445
725.4535
725.1044
724.8022
724.5521
724.3594
724.2295
724.1675
724.1787
724.2681
724.4406
724.7007
725.0527
725.5004
726.0478
726.6981
727.4548
728.3215
729.3023
730.4056
738.4726
737.7336
737.4157
737.0178
736.6318
736.231
735.8195
735.3958
734.9605
734.5143
734.0582
733.5937
733.1221
732.6453
732.1651
731.6838
731.2037
730.7272
730.2569
729.7958
729.3467
728.9128
728.4973
728.1035
727.735
727.3952
727.0879
726.8167
726.5855
726.398
726.2579
726.1691
726.1353
726.1601
726.247
726.3993
726.6203
726.913
727.2799
727.7237
728.2462
728.8494
729.5345
730.3023
731.1534
732.0876
733.1042
734.2021
735.3795
736.6338
737.9619
739.3597
740.8228
742.3458
743.9232
745.5488
747.2161
748.9191
750.6536
752.4211
732.4728
731.6045
731.2553
730.8357
730.4569
730.0912
729.7442
729.4159
729.1084
728.824
728.5651
728.3342
728.1343
727.968
727.8383
727.7482
727.7005
727.6982
727.7439
727.8404
727.9902
728.1957
728.4592
728.7826
729.1676
729.6158
730.1282
730.7059
731.3492
732.0583
732.833
733.6726
734.576
735.5417
736.5676
737.6513
738.7899
739.9799
741.2176
742.4984
743.8176
745.17
746.5499
747.9512
749.3674
750.7919
752.2174
753.6368
755.0424
756.4265
757.7811
759.0982
760.3699
761.5882
762.7457
763.8352
764.8505
765.7868
766.6424
767.4221
729.0122
728.728
728.759
728.8036
728.9111
729.0665
729.2714
729.5258
729.8303
730.1855
730.5922
731.051
731.5623
732.1265
732.7434
733.4131
734.1348
734.9079
735.7312
736.6032
737.522
738.4856
739.4912
740.536
741.6166
742.7294
743.8703
745.0351
746.219
747.4171
748.624
749.8345
751.0426
752.2426
753.4283
754.5938
755.7328
756.8392
757.9068
758.9297
759.9019
760.8178
761.6721
762.4597
763.176
763.8168
764.3784
764.8577
765.2521
765.5596
765.7791
765.9098
765.952
765.9065
765.7753
765.5616
765.2698
764.9056
764.4773
763.9961
733.7137
734.4465
735.0476
735.762
736.516
737.3167
738.1566
739.0333
739.9432
740.8833
741.8504
742.8412
743.8522
744.8798
745.9201
746.9692
748.0229
749.0769
750.1268
751.1679
752.1957
753.2053
754.1921
755.1513
756.0781
756.9681
757.8166
758.6194
759.3724
760.0716
760.7135
761.295
761.8131
762.2654
762.6501
762.9657
763.2112
763.3864
763.4916
763.5276
763.4961
763.3992
763.24
763.022
762.7495
762.4275
762.0617
761.6584
761.2244
760.7673
760.295
759.8159
759.3388
758.873
758.4284
758.0152
757.6441
757.326
757.0725
756.8932
745.4066
746.6341
747.4463
748.3843
749.3054
750.2283
751.1407
752.039
752.9182
753.7742
754.6031
755.4011
756.1646
756.8904
757.5755
758.2169
758.8123
759.3593
759.856
760.3008
760.6924
761.0301
761.3134
761.5422
761.717
761.8388
761.909
761.9294
761.9025
761.8313
761.7191
761.57
761.3883
761.1791
760.9477
760.6999
760.4422
760.1811
759.9237
759.6773
759.4495
759.2483
759.0814
758.9572
758.8837
758.8692
758.9216
759.0489
759.2589
759.5588
759.9556
760.4558
761.0652
761.7894
762.6332
763.6012
764.6972
765.9243
767.2862
768.7835
756.0472
756.7755
757.2522
757.7744
758.2552
758.7029
759.1115
759.4798
759.8064
760.0912
760.3343
760.5365
760.6989
760.8234
760.9119
760.967
760.9917
760.9893
760.9635
760.9185
760.8586
760.7886
760.7135
760.6388
760.5698
760.5126
760.4729
760.4568
760.4707
760.5207
760.6131
760.7541
760.9498
761.2062
761.5291
761.924
762.3962
762.9506
763.5916
764.3234
765.1494
766.0727
767.0957
768.2202
769.4473
770.7776
772.2106
773.7455
775.3804
777.1126
778.9388
780.8545
782.8546
784.9334
787.0844
789.3007
791.5749
793.9002
796.2707
798.6848
760.226
760.2485
760.3539
760.4534
760.5509
760.6397
760.7225
760.8012
760.879
760.9597
761.0472
761.1461
761.2609
761.3963
761.5573
761.7487
761.9756
762.2427
762.5549
762.9169
763.3332
763.8081
764.3456
764.9494
765.623
766.3694
767.1912
768.0907
769.0694
770.1285
771.2689
772.4904
773.7928
775.1749
776.635
778.171
779.7798
781.4581
783.2018
785.0063
786.8662
788.776
790.7292
792.7193
794.739
796.7809
798.8371
800.8995
802.9596
805.0088
807.0384
809.0396
811.0035
812.9215
814.7852
816.5868
818.3194
819.9776
821.5593
823.0737
762.3871
762.6186
762.9039
763.257
763.6576
764.1053
764.601
765.1465
765.7442
766.3963
767.105
767.8726
768.701
769.5917
770.5461
771.5651
772.6492
773.7985
775.0128
776.2911
777.6323
779.0345
780.4957
782.013
783.5833
785.2029
786.8679
788.5737
790.3155
792.0879
793.8853
795.7019
797.5315
799.3677
801.2038
803.0333
804.8493
806.645
808.4136
810.1485
811.8431
813.4912
815.0865
816.6234
818.0965
819.5009
820.832
822.086
823.2594
824.3493
825.3535
826.2703
827.0987
827.8383
828.49
829.0552
829.5367
829.9389
830.2698
830.5479
771.3679
772.6944
773.5982
774.7072
775.8516
777.0613
778.3244
779.6398
781.0047
782.4164
783.8722
785.369
786.9036
788.4725
790.0718
791.6975
793.3454
795.0107
796.6888
798.3747
800.0632
801.7492
803.4273
805.0921
806.7382
808.3602
809.9529
811.511
813.0296
814.5037
815.9287
817.3004
818.6148
819.868
821.0568
822.1783
823.2301
824.2101
825.1167
825.9488
826.706
827.388
827.9953
828.5289
828.9899
829.3803
829.7023
829.9586
830.152
830.2858
830.3635
830.3886
830.3648
830.2961
830.1867
830.0406
829.8626
829.6576
829.433
829.2006
789.4007
791.5837
792.8976
794.4784
796.0296
797.6077
799.1901
800.7747
802.3555
803.9277
805.4865
807.0272
808.5454
810.0366
811.4965
812.921
814.306
815.6477
816.9426
818.187
819.378
820.5124
821.5878
822.6016
823.5519
824.4369
825.2551
826.0055
826.6872
827.2998
827.8431
828.3173
828.7228
829.0603
829.3309
829.5355
829.6758
829.7532
829.7694
829.7263
829.6258
829.4697
829.2601
828.9987
828.6874
828.3278
827.9215
827.4698
826.9738
826.4341
825.8513
825.2252
824.5557
823.842
823.0834
822.2789
821.4277
820.5292
819.5842
818.5969
809.8016
811.7734
812.8988
814.2237
815.4691
816.6893
817.8629
818.9893
820.0639
821.084
822.0467
822.9498
823.7912
824.5692
825.2823
825.9295
826.5096
827.0221
827.4664
827.8422
828.1494
828.3881
828.5587
828.6614
828.6969
828.6659
828.569
828.4071
828.1811
827.8919
827.5405
827.1277
826.6545
826.1217
825.5301
824.8804
824.1732
823.4091
822.5885
821.7118
820.7791
819.7906
818.7464
817.6465
816.4907
815.2791
814.0115
812.6879
811.3082
809.8725
808.3808
806.8335
805.2309
803.5741
801.8642
800.1033
798.2943
796.4408
794.5488
792.6267
823.7421
824.5671
825.037
825.5563
825.9978
826.3834
826.702
826.9537
827.1367
827.2506
827.2947
827.2693
827.1742
827.0099
826.7768
826.4754
826.1065
825.6707
825.1689
824.6019
823.9706
823.2759
822.5189
821.7004
820.8215
819.8832
818.8864
817.8323
816.7219
815.5564
814.3369
813.0646
811.7408
810.367
808.9447
807.4755
805.9613
804.4041
802.8061
801.1699
799.4982
797.7942
796.0613
794.3032
792.5242
790.729
788.9226
787.1105
785.2987
783.4936
781.7021
779.9314
778.1892
776.4838
774.824
773.2195
771.6801
770.2165
768.8406
767.5633
825.6774
824.9618
824.6057
824.1279
823.612
823.0319
822.3898
821.6848
820.9171
820.0877
819.1975
818.2478
817.2401
816.176
815.0572
813.8856
812.6631
811.3918
810.0739
808.7117
807.3077
805.8644
804.3845
802.871
801.3268
799.7552
798.1597
796.5437
794.9113
793.2664
791.6133
789.9566
788.301
786.6516
785.0137
783.3928
781.7946
780.2253
778.6911
777.1983
775.7538
774.3643
773.0367
771.7782
770.5957
769.4966
768.4879
767.5766
766.7696
766.0734
765.4943
765.0381
764.7101
764.5154
764.4586
764.5435
764.7738
765.1525
765.6834
766.368
814.4949
812.4011
811.3446
810.0342
808.7482
807.4158
806.0525
804.6562
803.2301
801.7767
800.2991
798.8008
797.2852
795.7561
794.2176
792.6737
791.1287
789.587
788.0532
786.532
785.0281
783.5466
782.0924
780.6707
779.2867
777.9457
776.6529
775.4137
774.2335
773.1174
772.0708
771.0988
770.2064
769.3986
768.6799
768.0548
767.5275
767.1018
766.7813
766.5691
766.4677
766.4794
766.6058
766.848
767.2065
767.6811
768.271
768.9746
769.7898
770.7133
771.7414
772.8692
774.0914
775.4017
776.7934
778.2592
779.7915
781.383
783.0278
784.7247
794.7646
792.1405
790.8841
789.3561
787.9246
786.4979
785.0987
783.7249
782.3813
781.0718
779.8005
778.5717
777.3898
776.2593
775.1845
774.1696
773.2189
772.3366
771.5264
770.7922
770.1375
769.5657
769.0797
768.6824
768.3763
768.1633
768.0453
768.0236
768.0992
768.2724
768.5433
768.9115
769.3759
769.9352
770.5871
771.3293
772.1587
773.0716
774.0639
775.1311
776.2679
777.4688
778.7277
780.0382
781.3934
782.7862
784.2091
785.6544
787.1142
788.5804
790.0447
791.4989
792.9347
794.3442
795.7198
797.0544
798.3416
799.5766
800.7576
801.8933
776.7369
774.8967
774.155
773.2687
772.5196
771.8323
771.2245
770.6929
770.24
769.8672
769.5763
769.3684
769.2447
769.2062
769.2534
769.3865
769.6052
769.9093
770.2976
770.7689
771.3214
771.953
772.6612
773.443
774.295
775.2134
776.1941
777.2326
778.3239
779.4628
780.6439
781.8613
783.109
784.3808
785.6701
786.9704
788.2751
789.5775
790.8709
792.1486
793.4042
794.6311
795.8233
796.9747
798.0798
799.1331
800.1298
801.0654
801.9356
802.7369
803.466
804.1201
804.697
805.195
805.6133
805.9517
806.2109
806.3931
806.5037
806.5574
770.4829
770.3
770.4747
770.6937
771.0189
771.4206
771.9001
772.4525
773.075
773.7645
774.5178
775.3314
776.2017
777.1249
778.0968
779.1129
780.1686
781.2591
782.3793
783.5239
784.6876
785.8646
787.0494
788.2362
789.4192
790.5926
791.7507
792.8877
793.9981
795.0762
796.1167
797.1146
798.0648
798.9628
799.804
800.5845
801.3004
801.9485
802.5257
803.0295
803.4575
803.808
804.0797
804.2716
804.383
804.414
804.3648
804.2359
804.0283
803.7433
803.3823
802.9469
802.4391
801.8609
801.215
800.504
799.7313
798.901
798.0194
797.0972
777.8706
779.0161
779.8349
780.81
781.8062
782.8378
783.8911
784.9611
786.0415
787.1269
788.2118
789.2909
790.3588
791.4105
792.4406
793.4444
794.4167
795.3529
796.2483
797.0984
797.899
798.6461
799.3359
799.9648
800.5296
801.0273
801.4552
801.8111
802.0928
802.2987
802.4274
802.4779
802.4496
802.342
802.1553
801.8896
801.5457
801.1244
800.6271
800.0551
799.4103
798.6947
797.9105
797.0602
796.1464
795.1719
794.1398
793.053
791.9149
790.7285
789.4973
788.2244
786.9131
785.567
784.1896
782.785
781.3573
779.9116
778.4538
776.9903
790.9903
792.203
792.9484
793.8125
794.6252
795.4125
796.1578
796.8582
797.5084
798.1046
798.6433
799.1212
799.5356
799.8838
800.1637
800.3732
800.5109
800.5754
800.5656
800.4809
800.3209
800.0855
799.7748
799.3894
798.9301
798.398
797.7942
797.1206
796.3788
795.5711
794.6996
793.7669
792.7758
791.729
790.6298
789.4814
788.287
787.0503
785.7749
784.4645
783.123
781.7543
780.3625
778.9517
777.5261
776.0899
774.6475
773.2031
771.7613
770.3264
768.9026
767.4943
766.1059
764.7418
763.4066
762.1051
760.8425
759.6241
758.4559
757.3433
798.607
798.6924
798.7637
798.8088
798.7932
798.7173
798.5741
798.3626
798.0816
797.7309
797.3107
796.8217
796.2647
795.641
794.9521
794.1999
793.3864
792.514
791.585
790.6022
789.5686
788.4872
787.3613
786.1941
784.9894
783.7506
782.4815
781.1861
779.8681
778.5316
777.1806
775.8191
774.4513
773.0812
771.713
770.3508
768.9987
767.6607
766.3408
765.0431
763.7715
762.5298
761.3218
760.1513
759.0217
757.9367
756.8996
755.9136
754.9818
754.1069
753.2916
752.5381
751.8484
751.2245
750.6682
750.1811
749.7648
749.4211
749.153
748.9654
794.3309
792.9664
792.2725
791.4063
790.5322
789.6075
788.6393
787.6273
786.5738
785.4814
784.353
783.1919
782.0014
780.7852
779.5467
778.2898
777.0183
775.7361
774.4469
773.1548
771.8635
770.577
769.299
768.0333
766.7836
765.5535
764.3465
763.166
762.0154
760.8977
759.8159
758.7729
757.7714
756.8139
755.9026
755.0397
754.2271
753.4664
752.759
752.1062
751.509
750.968
750.4837
750.0562
749.6856
749.3713
749.1129
748.9093
748.7593
748.6613
748.6134
748.6131
748.6579
748.7451
748.8717
749.0347
749.2311
749.4587
749.718
750.0151
780.2662
778.0842
777.0299
775.7445
774.5239
773.2929
772.0684
770.8482
769.6359
768.4342
767.2463
766.0751
764.9238
763.7954
762.6928
761.6189
760.5763
759.5675
758.595
757.6609
756.7672
755.9156
755.1078
754.3452
753.6288
752.9595
752.3381
751.7649
751.2401
750.7637
750.3353
749.9544
749.6201
749.3314
749.0871
748.8855
748.7249
748.6035
748.5189
748.4688
748.4508
748.462
748.4997
748.5609
748.6425
748.7413
748.8542
748.9778
749.1089
749.244
749.3799
749.5132
749.6404
749.7587
749.8652
749.9574
750.0336
750.0933
750.1388
750.1801
764.2287
762.2254
761.3507
760.2865
759.3296
758.3987
757.5112
756.662
755.8529
755.0842
754.3567
753.6711
753.0277
752.4269
751.8689
751.3535
750.8805
750.4494
750.0595
749.71
749.3997
749.1275
748.8917
748.6909
748.5231
748.3864
748.2787
748.1978
748.1412
748.1065
748.0912
748.0927
748.1082
748.1352
748.171
748.2128
748.2581
748.3043
748.3489
748.3897
748.4243
748.4507
748.4671
748.4718
748.4634
748.4407
748.4027
748.3488
748.2787
748.1921
748.0892
747.9702
747.836
747.6875
747.5262
747.3543
747.1743
746.9898
746.8064
746.635
753.1091
751.8651
751.4289
750.8854
750.4395
750.0269
749.6579
749.3257
749.0292
748.7663
748.5352
748.3342
748.1614
748.0149
747.8927
747.7929
747.7134
747.652
747.6066
747.5751
747.5553
747.545
747.5421
747.5446
747.5504
747.5576
747.5644
747.569
747.5698
747.5654
747.5544
747.5358
747.5085
747.4718
747.4251
747.3681
747.3005
747.2225
747.1343
747.0365
746.9298
746.8151
746.6936
746.5666
746.4357
746.3027
746.1693
746.0378
745.91
745.7883
745.6746
745.5712
745.4801
745.4035
745.3438
745.3031
745.284
745.2892
745.3226
745.3898
748.268
747.6684
747.5511
747.3844
747.2765
747.1869
747.1178
747.0637
747.0223
746.9911
746.9681
746.9514
746.9393
746.9302
746.9226
746.9151
746.9065
746.8957
746.8816
746.8636
746.8407
746.8125
746.7786
746.7386
746.6924
746.64
746.5816
746.5175
746.4481
746.3739