/*--------------------------------*- C++ -*----------------------------------*\
| =========                 |                                                 |
| \\      /  F ield         | OpenFOAM: The Open Source CFD Toolbox           |
|  \\    /   O peration     | Version:  2312                                  |
|   \\  /    A nd           | Website:  www.openfoam.com                      |
|    \\/     M anipulation  |                                                 |
\*---------------------------------------------------------------------------*/
FoamFile
{
    version     2.0;
    format      ascii;
    arch        "LSB;label=32;scalar=64";
    class       volScalarField;
    location    "4800";
    object      ILambda_8_0;
}
// * * * * * * * * * * * * * * * * * * * * * * * * * * * * * * * * * * * * * //

dimensions      [1 0 -3 0 0 0 0];

internalField   nonuniform List<scalar> 
12000
(
756.104
756.9876
758.1368
759.3829
760.4603
761.0757
760.9995
760.1246
758.5375
756.5162
754.4654
752.8096
751.8974
751.9627
753.1474
755.5421
759.1764
763.9237
769.3648
774.7227
778.9799
781.1893
780.8442
778.0901
773.628
768.3521
762.9671
757.8643
753.3489
750.014
748.8899
751.1203
757.285
766.8021
777.8553
787.9411
794.7184
796.6865
793.4426
785.6099
774.6441
762.5466
751.34
742.3106
735.4343
729.5483
723.3295
716.2884
708.7457
700.7425
691.2841
679.3695
666.1514
655.3472
649.9706
647.8772
642.0064
627.9763
612.0872
607.3203
755.9301
756.2765
757.3209
758.608
760.0072
761.1839
761.8265
761.6721
760.6276
758.8241
756.6064
754.4403
752.7809
751.9657
752.1873
753.5424
756.0969
759.8813
764.7779
770.3567
775.8008
780.0432
782.1159
781.5462
778.5554
773.9103
768.5113
763.0044
757.7156
752.9586
749.4439
748.373
750.9973
757.8443
768.1264
779.7771
790.1273
796.8023
798.3487
794.4238
785.7329
773.9142
761.2705
750.092
741.6432
735.4862
729.9103
723.3998
715.8694
708.2473
700.6352
691.3149
678.592
664.1061
653.208
649.8568
650.1689
643.5641
624.9792
605.8359
756.225
756.1411
756.9507
758.0313
759.3776
760.6907
761.6694
761.9953
761.4619
760.0598
758.0155
755.7466
753.7451
752.4442
752.1327
752.9546
754.9687
758.1925
762.5604
767.7946
773.2826
778.0962
781.2262
781.9553
780.1635
776.3569
771.3804
766.0022
760.6785
755.684
751.4981
749.0825
749.711
754.3348
762.8623
773.8649
784.9513
793.5877
797.8646
796.8661
790.6889
780.3732
767.8228
755.4521
745.3284
738.1148
732.6795
727.0082
719.9034
711.8579
703.9633
695.8796
685.5599
671.9628
658.0833
649.707
648.9154
648.5672
637.1752
614.008
756.577
756.0806
756.6632
757.5196
758.7691
760.1569
761.4128
762.1913
762.1959
761.2807
759.5321
757.2751
754.9914
753.1813
752.2366
752.3854
753.7245
756.2869
760.0588
764.8959
770.3794
775.7385
779.9633
782.1239
781.7452
779.0068
774.6131
769.4063
763.9975
758.7024
753.8387
750.1236
748.7657
751.0357
757.5074
767.4715
778.9597
789.3933
796.443
798.6145
795.407
787.2684
775.5838
762.5802
750.7742
741.8787
735.7992
730.7169
724.5727
716.8185
708.5838
700.7688
692.1707
680.4595
665.8222
653.0885
648.1244
649.8712
646.862
627.6422
757.0793
756.2083
756.5442
757.119
758.1685
759.497
760.8934
762.0243
762.5415
762.182
760.8808
758.8286
756.442
754.2477
752.7328
752.2333
752.9138
754.8244
757.9625
762.2557
767.4474
772.9662
777.9192
781.3006
782.3565
780.9047
777.3897
772.6119
767.3132
761.9301
756.7196
752.1548
749.2247
749.2779
753.3804
761.5664
772.5075
783.864
793.0953
798.2193
798.1651
792.7894
782.8655
770.141
757.1395
746.3258
738.8289
733.6763
728.5098
721.5709
713.1866
704.9617
697.2255
687.8369
674.6308
659.4857
648.8685
647.7906
650.8787
642.3227
757.6661
756.4931
756.6006
756.8837
757.675
758.8414
760.2461
761.6019
762.5513
762.7508
761.9949
760.3159
758.0125
755.5797
753.5656
752.4209
752.4158
753.6544
756.1469
759.8506
764.6141
770.046
775.4232
779.7755
782.1769
782.1153
779.7072
775.5933
770.5687
765.2156
759.8328
754.7294
750.629
748.7746
750.5084
756.5059
766.1712
777.6352
788.3792
796.0711
799.1246
796.8409
789.3878
777.8902
764.4996
751.9686
742.493
736.3852
731.7761
726.0672
718.1979
709.4438
701.4772
693.6269
683.0006
668.3033
653.461
646.0881
649.2617
652.1029
758.3044
756.9104
756.8211
756.8252
757.3274
758.2534
759.5459
760.9878
762.2517
762.9578
762.7903
761.6218
759.5951
757.1135
754.7317
752.9935
752.2937
752.8308
754.6525
757.7297
761.966
767.1072
772.6144
777.6382
781.1984
782.5301
781.4053
778.2052
773.6706
768.4982
763.0962
757.7098
752.8194
749.4436
748.986
752.5902
760.384
771.1394
782.6061
792.2935
798.1917
799.09
794.5942
785.1804
772.3908
758.7962
747.2276
739.331
734.4077
729.8169
723.1531
714.4192
705.6871
698.1106
689.7435
677.4847
661.6274
648.1084
645.2684
654.0609
758.9548
757.4271
757.1853
756.9456
757.1575
757.7959
758.8789
760.2718
761.7093
762.8203
763.2216
762.647
761.0674
758.743
756.1708
753.941
752.5678
752.3757
753.4915
755.9116
759.5634
764.2771
769.6735
775.0675
779.5286
782.1459
782.3851
780.3105
776.4982
771.6828
766.4006
760.9258
755.5685
751.0796
748.7511
749.9859
755.53
764.8716
776.2409
787.2143
795.5013
799.4466
798.1459
791.4667
780.2514
766.5409
753.2759
743.1205
736.8666
732.713
727.552
719.6957
710.4218
702.1364
694.8082
685.3291
671.3162
655.0452
644.0024
648.1849
759.5823
758.0048
757.6607
757.228
757.1738
757.5094
758.3162
759.5437
761.0089
762.3889
763.2815
763.3204
762.3128
760.3444
757.7923
755.2291
753.2533
752.3264
752.6943
754.4152
757.4373
761.6335
766.7382
772.2325
777.3065
781.0134
782.5933
781.7878
778.9214
774.6669
769.6569
764.254
758.6894
753.4669
749.6576
748.7251
751.8659
759.2616
769.7628
781.232
791.2857
797.9327
799.8265
796.2902
787.4735
774.6966
760.5509
748.1927
739.7894
735.006
731.0138
724.7335
715.728
706.4741
698.9199
691.3176
680.1392
664.8448
649.1243
640.757
760.1581
758.6049
758.2099
757.6439
757.3671
757.4137
757.9114
758.8859
760.2445
761.7414
763.0018
763.6085
763.2357
761.7877
759.4746
756.7823
754.3349
752.7111
752.3016
753.2708
755.6131
759.2263
763.9121
769.2874
774.6932
779.2377
782.0368
782.5526
780.8127
777.3307
772.766
767.5859
762.0237
756.3967
751.5103
748.7304
749.5165
754.6441
763.6371
774.8153
785.8984
794.7111
799.566
799.3275
793.5101
782.6477
768.6701
754.6863
743.7936
737.2888
733.5394
728.9782
721.2098
711.4556
702.8985
695.9867
687.1813
674.0606
658.5663
642.3405
760.6625
759.192
758.7938
758.1566
757.7135
757.5082
757.6962
758.3646
759.5074
760.9717
762.4484
763.5203
763.7756
762.9557
761.0808
758.4888
755.7578
753.5352
752.354
752.5216
754.1221
757.09
761.2645
766.3549
771.8458
776.9573
780.7793
782.5727
782.0694
779.5505
775.6172
770.816
765.4365
759.6839
754.1032
749.8547
748.4859
751.2261
758.2513
768.4407
779.7821
790.078
797.4392
800.3949
797.9234
789.7823
777.0628
762.3964
749.2469
740.272
735.5468
732.1435
726.2835
716.9883
707.2499
699.9633
692.9852
681.7203
667.14
653.1307
761.0803
759.7364
759.3753
758.7257
758.1786
757.7752
757.6808
758.0251
758.8764
760.1778
761.7107
763.1045
763.9149
763.7609
762.4762
760.2109
757.4256
754.767
752.8758
752.2173
753.0096
755.2602
758.8432
763.5242
768.9
774.3211
778.9282
781.8716
782.6304
781.2173
778.0936
773.8322
768.801
763.1629
757.2387
751.9205
748.694
749.0919
753.8763
762.5294
773.4174
784.45
793.6776
799.4596
800.4
795.5591
785.0995
770.8653
756.172
744.5295
737.7206
734.3471
730.4204
722.6967
712.2864
703.5941
697.7584
689.2358
674.4301
661.5514
761.4058
760.2152
759.9224
759.3115
758.7219
758.1835
757.8552
757.8897
758.4109
759.4499
760.8897
762.4411
763.6804
764.1571
763.5481
761.8024
759.2068
756.33
753.859
752.3991
752.3317
753.7841
756.6908
760.8589
765.9616
771.4682
776.6132
780.5208
782.4857
782.2545
780.0879
776.5199
771.9899
766.6759
760.7284
754.7426
750.0174
748.2361
750.6618
757.3936
767.2471
778.3129
788.6698
796.6686
800.7701
799.5236
792.1625
779.5082
764.2954
750.3432
740.7761
736.0899
733.3365
727.9628
718.153
707.5365
700.9937
696.1316
683.8981
665.1321
761.6426
760.6134
760.4098
759.8781
759.3019
758.6937
758.1937
757.9585
758.147
758.8617
760.085
761.6298
763.1374
764.145
764.2211
763.1289
760.95
758.1055
755.2508
753.082
752.1436
752.7228
754.8585
758.4118
763.1101
768.5147
773.9658
778.6226
781.6721
782.629
781.5198
778.7748
774.8779
770.0646
764.3817
758.1294
752.3135
748.6076
748.6694
753.2231
761.6059
772.1326
782.9157
792.3729
799.062
801.3375
797.6612
787.6797
773.1492
757.6874
745.2588
738.1188
735.1688
732.0658
724.4395
712.8114
703.3388
699.8126
694.2884
674.1297
761.7972
760.9238
760.8204
760.3958
759.8793
759.2628
758.6588
758.2126
758.0969
758.4641
759.3834
760.776
762.3787
763.7694
764.4665
764.0865
762.5041
759.9441
756.9511
754.2389
752.4816
752.1429
753.4116
756.2399
760.4104
765.5532
771.1037
776.2906
780.2609
782.3508
782.3465
780.5198
777.3565
773.1758
767.9983
761.8683
755.4181
750.1352
747.9237
750.1231
756.6964
766.261
776.92
787.0937
795.5634
800.8656
801.0677
794.6813
782.1249
766.2829
751.4376
741.2085
736.5366
734.5973
730.0605
719.6739
707.0604
700.3259
699.9039
690.2274
761.883
761.1461
761.1449
760.8429
760.4206
759.8485
759.2072
758.6188
758.2509
758.2832
758.8515
759.978
761.5111
763.1106
764.3034
764.6149
763.7395
761.6847
758.8198
755.7931
753.3451
752.0997
752.4261
754.4137
757.9276
762.6602
768.1261
773.6335
778.3401
781.4621
782.5633
781.7151
779.3513
775.8799
771.3778
765.7161
759.1219
752.7185
748.4441
748.1786
752.6313
760.892
771.0639
781.3989
790.8109
798.285
802.0357
799.798
790.4718
775.6312
759.2834
745.9438
738.3601
735.8407
733.9117
726.8977
713.6983
701.5325
699.2916
702.0615
761.9165
761.286
761.3812
761.2058
760.8997
760.4132
759.7942
759.1345
758.582
758.3212
758.531
759.3175
760.6417
762.2717
763.794
764.7044
764.565
763.1762
760.6927
757.6201
754.6836
752.618
751.9738
753.0173
755.7386
759.9102
765.1182
770.7482
775.9991
780.0223
782.1923
782.3556
780.8323
778.095
774.3476
769.4112
763.1521
756.1903
750.2301
747.5015
749.5218
756.1081
765.5301
775.7312
785.4568
794.116
800.5658
802.4392
797.3253
785.0078
768.4806
752.5956
741.5313
736.7196
735.6954
732.6083
722.2771
706.8532
697.4415
702.6242
761.9171
761.3539
761.5336
761.4788
761.2991
760.9263
760.3783
759.7137
759.0502
758.5592
758.4377
758.8528
759.866
761.3644
763.0319
764.3933
764.9389
764.2987
762.4037
759.5605
756.3942
753.6756
752.1033
752.1366
753.935
757.3875
762.1625
767.7218
773.3221
778.0943
781.2675
782.4575
781.8081
779.7995
776.7976
772.7137
767.1836
760.279
753.2025
748.2152
747.5505
751.9971
760.3425
770.2846
780.0494
789.0966
797.0978
802.3569
801.8479
793.4699
778.4152
761.0922
746.6584
738.3889
736.1315
735.6696
730.2068
716.0995
699.9554
696.7662
761.9062
761.3637
761.6111
761.663
761.6092
761.3655
760.9241
760.3112
759.6093
758.9624
758.5638
758.6154
759.2586
760.4953
762.1282
763.7596
764.8711
764.9775
763.8075
761.4403
758.3296
755.1955
752.8209
751.8423
752.6161
755.1921
759.3511
764.6416
770.389
775.7393
779.8229
782.0397
782.3054
781.0236
778.7016
775.4569
770.8896
764.6098
757.1375
750.3741
746.968
748.7662
755.5127
765.021
774.8458
783.9239
792.4213
799.8162
803.4861
799.9759
788.1622
771.0046
753.9616
741.8182
736.5427
736.3187
735.2863
726.2737
708.4005
693.5179
761.9061
761.3326
761.6269
761.765
761.8281
761.7173
761.4045
760.887
760.2113
759.4857
758.882
758.6111
758.8686
759.7548
761.1969
762.908
764.4181
765.1907
764.7979
763.0942
760.3154
757.0488
754.0787
752.1687
751.8722
753.4351
756.7928
761.6057
767.2848
773.0195
777.8892
781.1112
782.3442
781.8208
780.1104
777.5864
774.0168
768.7627
761.6453
753.8593
747.9948
746.7672
751.2066
759.8349
769.7777
778.9895
787.4005
795.5781
802.2249
803.6519
796.5645
781.5225
763.2478
747.5605
738.266
735.8787
736.9244
734.0097
720.24
698.2692
761.9394
761.2801
761.5967
761.7959
761.9598
761.9759
761.801
761.4085
760.8117
760.08
759.3508
758.8228
758.7174
759.2096
760.3419
761.9548
763.6717
764.968
765.3192
764.3871
762.1731
759.0686
755.7717
753.0983
751.7645
752.2255
754.6103
758.7305
764.1092
770.008
775.5007
779.6703
781.9202
782.2312
781.1141
779.1592
776.4485
772.372
766.2256
758.3202
750.6749
746.3952
747.8197
754.7778
764.612
774.2668
782.6351
790.6448
798.6717
804.1141
802.4746
791.4932
773.8975
755.6922
742.2352
736.032
736.188
737.4869
731.0781
710.6662
762.0277
761.2277
761.539
761.77
762.0132
762.1426
762.104
761.8522
761.3727
760.6967
759.9213
759.2154
758.8009
758.8989
759.6471
761.0139
762.7449
764.3821
765.3701
765.2302
763.7437
761.0708
757.7475
754.5544
752.3067
751.65
752.93
756.1503
760.984
766.7987
772.7076
777.716
781.004
782.2548
781.7914
780.302
778.2211
775.2214
770.3876
763.213
754.7658
747.9018
745.8945
750.2041
759.2244
769.4309
778.2445
785.8712
793.8745
801.6689
805.1041
799.6042
784.8788
765.8237
748.8322
738.1535
735.0399
737.1719
737.3624
725.6855
762.1906
761.1985
761.4737
761.7044
762.001
762.224
762.3113
762.2037
761.8648
761.2927
760.5424
759.7426
759.0938
758.8343
759.1705
760.1848
761.757
763.5363
764.9985
765.5881
764.9064
762.878
759.8241
756.4055
753.4535
751.7536
751.863
754.0074
758.0524
763.5128
769.5878
775.2653
779.5574
781.8475
782.1682
781.1441
779.4835
777.2887
773.7828
767.9309
759.7403
751.2251
745.9087
746.7371
753.8295
764.1549
773.9013
781.6366
788.9315
797.2537
804.327
804.7076
794.8592
777.1176
757.9094
742.9918
735.3449
735.2062
738.5026
736.619
762.4436
761.2157
761.4225
761.6186
761.9388
762.2309
762.4267
762.4568
762.2684
761.8328
761.1662
760.3522
759.5546
759.003
758.9415
759.544
760.8196
762.5492
764.2913
765.4794
765.5919
764.3421
761.8131
758.479
755.0994
752.5243
751.4853
752.4367
755.4718
760.299
766.2537
772.3687
777.5572
780.9397
782.2051
781.7581
780.417
778.7154
776.2861
771.9738
764.9126
755.9347
748.0423
745.0586
749.0285
758.4227
769.105
777.7488
784.5706
792.1157
800.7776
806.1837
802.4627
788.3501
768.8319
750.6668
738.2854
733.8747
736.642
740.3588
762.7969
761.3017
761.4078
761.5337
761.8447
762.1776
762.4593
762.6123
762.5725
762.291
761.7512
760.9925
760.1327
759.372
758.9628
759.1402
760.0263
761.5404
763.3605
764.9685
765.7856
765.3602
763.5438
760.583
757.0881
753.8868
751.8197
751.5446
753.399
757.326
762.852
769.1186
775.0162
779.4669
781.8153
782.133
781.1548
779.7203
777.9896
775.0731
769.6341
761.3301
752.0495
745.6244
745.6377
752.6873
763.5541
773.6312
780.8945
787.3502
795.6674
804.1857
806.6303
798.1015
780.5333
760.7205
744.3539
734.7119
734.1088
739.6007
763.2534
761.4758
761.4512
761.4724
761.7392
762.081
762.4216
762.6767
762.7743
762.6511
762.2651
761.6164
760.7742
759.8949
759.2132
758.9942
759.4457
760.6179
762.3277
764.1537
765.5243
765.8833
764.8829
762.5306
759.2316
755.7077
752.8251
751.3902
751.9707
754.7703
759.5571
765.6492
771.9945
777.3976
780.9006
782.1866
781.7371
780.4995
779.1183
777.2218
773.4658
766.6474
757.3034
748.4533
744.3793
747.7838
757.4284
768.7063
777.4154
783.4929
790.3669
799.638
806.9443
805.0632
791.704
772.1623
753.3428
738.8767
732.4078
737.2358
763.8079
761.7528
761.5727
761.4577
761.6443
761.9608
762.3295
762.6611
762.8773
762.9054
762.6852
762.1847
761.4271
760.5177
759.6539
759.0998
759.1181
759.8686
761.3108
763.1526
764.8864
765.9167
765.7471
764.1623
761.3336
757.8096
754.396
751.9697
751.2834
752.7982
756.5605
762.1312
768.6006
774.7485
779.3853
781.8037
782.1129
781.1606
779.9164
778.6046
776.2534
771.274
762.9904
753.0932
745.5902
744.6376
751.4326
762.7904
773.3762
780.3549
785.9068
793.9629
803.7842
808.3206
801.0759
783.7829
764.1447
746.9087
733.9261
732.7049
764.4453
762.1404
761.7884
761.5114
761.5833
761.8383
762.2015
762.5799
762.8906
763.0542
762.9985
762.6677
762.0455
761.1852
760.2338
759.4292
759.0553
759.3532
760.4128
762.0877
763.9787
765.5133
766.1081
765.3626
763.2138
759.9938
756.3725
753.2111
751.3745
751.5445
754.0552
758.7633
764.9883
771.5887
777.2368
780.8745
782.1754
781.7095
780.5616
779.4806
778.0866
774.8738
768.3521
758.7736
749.0903
743.9118
746.5742
756.2978
768.2087
777.1898
782.6068
788.6144
798.2812
807.5383
807.5351
794.6362
775.2855
757.3465
741.0579
728.5998
765.1451
762.6379
762.1088
761.6526
761.5792
761.7369
762.0586
762.4508
762.8272
763.1038
763.2007
763.0459
762.5921
761.8453
760.8963
759.9378
759.2441
759.1035
759.7137
761.0734
762.9214
764.7624
765.9892
766.0691
764.7279
762.065
758.5599
754.9778
752.21
751.0913
752.2153
755.7599
761.3509
768.038
774.4716
779.3186
781.8013
782.0778
781.1347
780.0816
779.1888
777.3871
772.8606
764.6538
754.263
745.7723
743.7922
750.1491
761.9
773.1236
779.9997
784.5665
792.0666
803.1511
810.0685
803.9501
786.2019
767.4697
752.0123
732.7492
765.8785
763.2352
762.5371
761.8959
761.6531
761.68
761.9236
762.2939
762.7037
763.0657
763.2948
763.3093
763.0399
762.4532
761.585
760.571
759.6503
759.1243
759.2666
760.2071
761.8357
763.7758
765.4566
766.273
765.7808
763.8544
760.7539
757.0857
753.6836
751.4488
751.1708
753.3324
757.9147
764.2675
771.1582
777.093
780.8749
782.1594
781.6359
780.5667
779.8096
778.9412
776.2661
770.0369
760.2796
749.869
743.6301
745.443
755.0866
767.6415
777.1
781.9348
786.7782
796.5357
808.0459
810.4076
797.2284
776.7131
761.4921
746.5595
766.6126
763.9132
763.068
762.2489
761.8227
761.6907
761.8204
762.1318
762.5398
762.9552
763.29
763.4568
763.3723
762.9735
762.2478
761.2696
760.2247
759.3958
759.0967
759.5626
760.832
762.6743
764.6066
766.0131
766.331
765.2372
762.7664
759.3272
755.6276
752.5474
750.9828
751.6619
754.9234
760.5002
767.424
774.1982
779.296
781.8288
782.0123
781.026
780.1689
779.7484
778.5398
774.4664
766.3328
755.5006
746.0996
743.0757
748.8522
760.9048
772.9166
779.9258
783.3834
789.7991
801.9989
812.1197
807.6029
787.4707
767.7767
759.6987
767.3124
764.6448
763.6877
762.7115
762.1
761.789
761.7731
761.9885
762.3573
762.7913
763.2005
763.4946
763.5826
763.3818
762.8405
761.9756
760.9087
759.8782
759.2021
759.1866
760.0024
761.5762
763.5533
765.3649
766.3873
766.1401
764.4459
761.499
757.8363
754.2425
751.6262
750.8673
752.61
757.0016
763.4671
770.6951
776.9875
780.9438
782.1658
781.4954
780.4507
780.0488
779.7907
777.7121
771.7768
761.8391
750.747
743.4796
744.3543
753.7649
766.9932
777.228
781.6611
784.9131
794.0597
808.0873
814.308
800.934
775.7128
763.4818
767.9439
765.3963
764.374
763.2747
762.4897
761.9906
761.8038
761.8885
762.1802
762.5954
763.0443
763.4349
763.673
763.6644
763.3298
762.6366
761.6405
760.5176
759.5572
759.0986
759.4157
760.5883
762.4162
764.4283
765.9995
766.5409
765.6898
763.4276
760.0963
756.3361
752.9876
750.9777
751.158
754.0538
759.5582
766.73
773.9214
779.3505
781.9423
781.9485
780.8056
780.1008
780.2187
779.7163
776.1611
768.1017
756.8333
746.555
742.4526
747.4837
759.7188
772.7204
780.2781
782.6256
787.1563
799.757
814.0955
813.4746
790.1307
763.5549
768.477
766.1309
765.0982
763.9208
762.9879
762.3046
761.9312
761.8557
762.0335
762.3914
762.8426
763.295
763.6533
763.8183
763.6938
763.2093
762.3601
761.251
760.1169
759.2912
759.1141
759.7989
761.3109
763.3171
765.2482
766.4619
766.4466
764.984
762.2148
758.6079
754.882
751.9197
750.6609
751.9094
756.019
762.5538
770.1627
776.9174
781.1283
782.2641
781.3222
780.1747
780.1094
780.5664
779.2158
773.6359
763.5216
751.7656
743.4764
743.29
752.2434
766.1245
777.5405
782.0116
783.3403
790.7029
806.7745
818.9383
808.1708
773.1826
768.8876
766.811
765.8268
764.6245
763.582
762.7321
762.1685
761.9113
761.9422
762.2043
762.6188
763.0955
763.5392
763.8496
763.9225
763.6622
763.0143
762.0131
760.8214
759.7329
759.1119
759.2736
760.342
762.149
764.2338
765.9591
766.7097
766.0897
764.0403
760.8491
757.0863
753.5293
751.0973
750.7372
753.1715
758.51
765.9096
773.5985
779.4862
782.2043
781.9669
780.5056
779.8282
780.5043
780.8487
777.9465
770.0122
758.3215
747.196
741.9735
746.0358
758.2181
772.3664
781.065
782.6075
784.4601
796.0036
814.5016
820.7774
795.5896
769.1594
767.4015
766.5244
765.3548
764.2511
763.2655
762.5214
762.0719
761.9293
762.0599
762.3982
762.8597
763.3508
763.7722
764.0172
763.9768
763.5611
762.7416
761.6028
760.3719
759.3964
759.0511
759.5962
761.0389
763.0687
765.1137
766.5086
766.711
765.4702
762.8884
759.3781
755.5849
752.3339
750.582
751.2698
754.9839
761.5004
769.5017
776.8367
781.4426
782.5319
781.203
779.7641
779.9324
781.1731
780.7165
775.6133
765.3606
752.9729
743.6938
742.3258
750.5069
764.8811
777.8856
783.0817
782.4501
786.7404
803.2707
821.7406
818.3438
769.2854
767.8724
767.1564
766.0769
764.9675
763.8887
762.9874
762.3478
762.0146
761.9829
762.207
762.613
763.1116
763.6051
763.9883
764.1476
763.9715
763.3829
762.3912
761.1417
759.9288
759.1412
759.1376
760.0914
761.8708
764.0248
765.9002
766.8502
766.4469
764.6026
761.5678
757.8522
754.1569
751.3539
750.4398
752.3204
757.367
764.9221
773.1585
779.6579
782.642
782.1581
780.2127
779.3645
780.5391
781.8507
779.7761
772.0607
759.9788
748.0607
741.7235
744.5851
756.3512
771.6834
782.2132
783.5347
782.1459
791.1253
812.6945
828.2584
769.2676
768.201
767.6915
766.7557
765.6987
764.5777
763.5552
762.7411
762.2123
761.9954
762.071
762.3819
762.8468
763.3716
763.8537
764.1806
764.2314
763.8966
763.1223
761.9681
760.6494
759.5239
759.0019
759.3944
760.7568
762.8053
764.9635
766.5373
766.9474
765.9138
763.5143
760.1241
756.3224
752.8561
750.6515
750.7412
753.9433
760.3101
768.6571
776.666
781.8475
783.0118
781.2375
779.2976
779.5149
781.5407
782.1444
777.6809
767.3506
754.3681
744.1703
741.5538
748.5957
763.1394
778.1092
784.9525
782.5256
782.6638
799.0172
824.8825
769.1181
768.3736
768.1039
767.3576
766.4098
765.3028
764.205
763.2455
762.5293
762.1152
762.0143
762.1929
762.5831
763.0973
763.6363
764.0912
764.3405
764.2577
763.7427
762.7768
761.4833
760.1518
759.1929
759.0112
759.8352
761.5766
763.7978
765.8257
766.9741
766.7771
765.123
762.2426
758.6056
754.8392
751.7384
750.2959
751.5591
756.1761
763.7599
772.5327
779.7823
783.2273
782.581
780.0297
778.7719
780.3002
782.652
781.6008
774.2361
761.7975
749.1473
741.7624
743.226
754.0734
770.4479
783.6759
785.7459
780.3886
785.6285
813.1154
768.8541
768.3858
768.3749
767.8536
767.0666
766.0307
764.9106
763.846
762.964
762.3535
762.0578
762.0717
762.3478
762.8092
763.362
763.9015
764.3103
764.4576
764.2151
763.5019
762.3493
760.9548
759.6814
758.9732
759.1962
760.4617
762.5204
764.7933
766.5518
767.1697
766.3319
764.0996
760.8315
757.061
753.4532
750.8657
750.3636
752.9628
759.0272
767.6085
776.3247
782.2611
783.692
781.5001
778.8739
778.8959
781.6269
783.4342
779.8097
769.4885
755.9381
744.9217
741.0831
746.5944
760.7047
777.8905
787.8974
784.3173
778.0546
794.6364
768.4997
768.243
768.4939
768.2202
767.6374
766.727
765.6406
764.5198
763.5062
762.7136
762.2165
762.0415
762.1677
762.535
763.0582
763.6375
764.1613
764.502
764.5199
764.0919
763.1696
761.8487
760.4082
759.2754
758.9011
759.575
761.2614
763.5442
765.7306
767.0866
767.0966
765.62
762.8791
759.3274
755.5375
752.2175
750.3082
750.9377
755.0082
762.4609
771.6868
779.7698
783.8864
783.244
780.0432
778.1375
779.8004
783.1975
783.3678
776.525
763.7661
750.4313
742.1483
742.1437
751.4211
768.2168
785.093
790.2628
780.5332
776.3566
768.0868
767.9596
768.4587
768.4413
768.0952
767.3589
766.3615
765.2383
764.1373
763.1902
762.4984
762.1209
762.0677
762.3022
762.753
763.3274
763.9194
764.4084
764.6551
764.5143
763.878
762.7459
761.2913
759.8761
758.9741
759.0081
760.1538
762.2065
764.5926
766.5466
767.3847
766.7434
764.6642
761.504
757.7765
754.0823
751.192
750.1474
752.1017
757.7241
766.3842
775.764
782.5899
784.5129
782.0205
778.585
778.1427
781.42
784.5299
781.9685
771.7678
757.6444
745.9134
741.0463
744.7805
757.4783
776.3736
791.5443
789.7392
771.7667
767.6496
767.5591
768.2759
768.5086
768.4191
767.8968
767.04
765.9696
764.8319
763.769
762.903
762.3223
762.0694
762.1373
762.4747
762.9999
763.6134
764.2019
764.6331
764.7564
764.4272
763.5662
762.2375
760.7019
759.3973
758.8174
759.3171
760.9238
763.2541
765.6023
767.1822
767.4143
766.1155
763.4985
760.0189
756.2229
752.7448
750.4467
750.4746
753.9298
761.0959
770.6362
779.5591
784.5282
784.1075
780.3019
777.5484
779.0794
783.4553
785.0344
778.9239
765.8735
751.8353
742.853
741.5893
748.7603
764.5927
784.8227
796.0642
783.3256
767.2243
767.0721
767.9603
768.4221
768.595
768.3161
767.6449
766.6804
765.56
764.4283
763.4211
762.6501
762.1893
762.0643
762.2508
762.6839
763.273
763.9118
764.4771
764.8237
764.7914
764.2463
763.1541
761.659
760.1133
759.0147
758.8411
759.8387
761.8601
764.3487
766.5074
767.5872
767.16
765.2334
762.1639
758.4677
754.7097
751.5814
750.066
751.3866
756.4727
765.0493
774.9851
782.7638
785.394
782.7836
778.4928
777.3251
780.9258
785.3879
784.1398
774.2103
759.4551
747.0273
741.4611
743.5694
753.8743
772.6451
793.0732
797.6158
766.847
766.536
767.5348
768.19
768.6166
768.5982
768.1488
767.3387
766.2891
765.1406
764.0347
763.0998
762.4363
762.1029
762.107
762.4077
762.9279
763.5689
764.2164
764.7353
764.966
764.7447
763.9616
762.6459
761.0339
759.5654
758.7715
759.0729
760.5686
762.9218
765.4256
767.2445
767.7254
766.624
764.1293
760.7035
756.8914
753.2821
750.6612
750.1482
752.9757
759.7387
769.4362
779.1362
785.0797
785.1096
780.8167
777.0708
778.179
783.3989
786.5578
781.4457
768.1493
753.2835
743.733
741.6823
746.7015
760.0561
781.9003
802.0331
766.5521
765.9923
767.0293
767.8285
768.4848
768.731
768.5296
767.9152
766.9869
765.8748
764.7196
763.6583
762.8113
762.2667
762.0661
762.1985
762.607
763.2038
763.8828
764.5195
764.9641
765.0441
764.6016
763.5682
762.0542
760.3949
759.1032
758.708
759.5287
761.4853
764.0536
766.4158
767.7589
767.5773
765.8243
762.843
759.1589
755.3288
751.9926
750.0696
750.8022
755.3143
763.6751
774.029
782.755
786.2665
783.7526
778.6314
776.5027
780.1529
785.9602
786.2985
776.8552
761.3751
748.1238
742.202
743.2648
750.76
767.7197
794.3042
766.3656
765.4849
766.4796
767.3616
768.2088
768.7095
768.7706
768.3851
767.623
766.5987
765.4463
764.3046
763.3058
762.5615
762.1455
762.081
762.3385
762.8466
763.5083
764.2088
764.8109
765.1483
765.0408
764.3497
763.0677
761.401
759.7827
758.7734
758.8569
760.2084
762.55
765.1896
767.2522
768.01
767.1418
764.7918
761.416
757.5677
753.8202
750.9074
749.9108
752.1372
758.4348
768.1512
778.5262
785.5035
786.1945
781.5791
776.7527
777.1389
783.0047
787.8897
784.1009
770.6444
754.7181
744.5875
742.4223
745.8804
755.8064
778.4777
766.3064
765.057
765.9259
766.8206
767.8054
768.5358
768.8616
768.7282
768.1704
767.2811
766.1833
765.0118
763.9032
762.9841
762.356
762.0764
762.1491
762.5262
763.1241
763.8368
764.539
765.0777
765.271
764.9393
763.9813
762.4704
760.7184
759.2442
758.6206
759.2391
761.0946
763.7085
766.2583
767.8758
767.974
766.4346
763.5646
759.8876
755.9643
752.4134
750.1127
750.3043
754.2468
762.308
772.9493
782.5725
787.0913
784.8932
779.018
775.7212
779.1081
786.2007
788.4218
779.7588
763.4402
749.0456
743.045
744.1776
749.1623
761.7499
766.3824
764.7475
765.4106
766.2425
767.2995
768.2197
768.7984
768.9297
768.6062
767.8936
766.8991
765.7496
764.5794
763.5226
762.6998
762.1999
762.0624
762.2705
762.76
763.4359
764.183
764.8629
765.3042
765.3132
764.7248
763.4954
761.7966
760.0475
758.8291
758.6824
759.8597
762.1513
764.8941
767.1893
768.2411
767.6465
765.4847
762.1828
758.2918
754.3835
751.1716
749.7172
751.3752
757.1874
766.824
777.7673
785.7959
787.3314
782.5828
776.6283
775.9838
782.2405
788.9799
786.9139
773.4532
756.1174
745.1061
743.5578
746.8816
751.5008
766.588
764.5878
764.9754
765.6692
766.7231
767.7787
768.584
768.9806
768.9123
768.4111
767.564
766.4862
765.3058
764.1566
763.1699
762.4591
762.0979
762.1054
762.4449
763.0373
763.7774
764.5391
765.1672
765.4721
765.2562
764.3869
762.8998
761.0776
759.437
758.5861
758.9847
760.7053
763.3256
766.0333
767.919
768.3205
767.0405
764.3289
760.6832
756.6582
752.8681
750.1804
749.8498
753.237
760.9541
771.7795
782.2373
787.8583
786.1945
779.6765
775.0174
777.7796
786.0464
790.4828
783.0013
765.7552
749.6516
743.3655
745.6784
749.0029
766.9031
764.598
764.6579
765.1443
766.1146
767.2383
768.2288
768.8776
769.0755
768.8131
768.1515
767.1912
766.0512
764.8598
763.7508
762.8525
762.268
762.0534
762.2063
762.6708
763.3547
764.1426
764.8945
765.4356
765.5611
765.0828
763.9219
762.2132
760.3546
758.9391
758.5576
759.5379
761.7434
764.5509
767.0525
768.3977
768.106
766.1834
763.0056
759.096
755.0159
751.4775
749.5524
750.6502
755.9688
765.459
776.879
785.9615
788.5143
783.8465
776.7446
774.7312
781.0512
789.7628
789.9124
776.7012
757.5684
744.9745
743.9073
748.8388
767.2923
764.7835
764.4881
764.7107
765.517
766.6316
767.751
768.6244
769.0876
769.0831
768.6388
767.8367
766.7843
765.602
764.4191
763.3696
762.5772
762.1319
762.0694
762.3651
762.9461
763.708
764.5235
765.2355
765.6487
765.5506
764.7801
763.3353
761.4654
759.6772
758.6061
758.7746
760.3334
762.9229
765.7522
767.8842
768.5936
767.6081
765.1106
761.5487
757.4452
753.4019
750.2965
749.4256
752.2505
759.5892
770.5171
781.7513
788.5622
787.6682
780.6589
774.441
776.1375
785.4048
792.4594
786.6847
768.4601
750.0774
742.936
746.6433
767.7061
765.1321
764.4845
764.4067
764.9758
765.9983
767.1767
768.2316
768.9462
769.209
769.0072
768.3981
767.476
766.3516
765.1462
763.9911
763.0206
762.3509
762.0555
762.1474
762.5811
763.2676
764.091
764.9094
765.5451
765.785
765.4211
764.3418
762.6435
760.6974
759.1
758.485
759.2529
761.3423
764.178
766.853
768.4744
768.4953
766.8523
763.8584
759.9843
755.7537
751.8712
749.4416
749.9532
754.7505
764.0318
775.845
785.9842
789.7408
785.416
777.1842
773.4011
779.3293
790.1333
793.1752
780.5395
759.1673
744.6978
743.8821
768.0836
765.6131
764.6506
764.2618
764.5351
765.3829
766.5404
767.7182
768.6551
769.1835
769.2416
768.8548
768.1002
767.0783
765.9007
764.691
763.5837
762.7114
762.1798
762.0422
762.2883
762.8523
763.6311
764.4956
765.2861
765.803
765.822
765.1574
763.7708
761.875
759.9595
758.6786
758.6121
759.9886
762.5161
765.4326
767.7823
768.7874
768.1108
765.8726
762.458
758.3303
754.0519
750.5082
749.0596
751.2845
758.1893
769.13
781.0769
789.1725
789.3334
782.064
774.0954
774.1306
784.0699
794.2942
791.049
771.5864
750.1354
743.0353
768.3556
766.1768
764.9726
764.2931
764.2341
764.8324
765.8833
767.1114
768.2256
769.0045
769.3311
769.1898
768.6346
767.7543
766.6513
765.4387
764.244
763.2047
762.4497
762.0696
762.0949
762.4919
763.1762
764.0308
764.9109
765.6359
765.9863
765.7381
764.7505
763.0814
761.0701