/*--------------------------------*- C++ -*----------------------------------*\
| =========                 |                                                 |
| \\      /  F ield         | OpenFOAM: The Open Source CFD Toolbox           |
|  \\    /   O peration     | Version:  2312                                  |
|   \\  /    A nd           | Website:  www.openfoam.com                      |
|    \\/     M anipulation  |                                                 |
\*---------------------------------------------------------------------------*/
FoamFile
{
    version     2.0;
    format      ascii;
    arch        "LSB;label=32;scalar=64";
    class       volScalarField;
    location    "4800";
    object      k;
}
// * * * * * * * * * * * * * * * * * * * * * * * * * * * * * * * * * * * * * //

dimensions      [0 2 -2 0 0 0 0];

internalField   nonuniform List<scalar> 
12000
(
0.001841722
0.004077561
0.004906579
0.005817968
0.006576528
0.007247515
0.007822815
0.008362212
0.008875059
0.009342203
0.009731268
0.01009021
0.01044353
0.01078656
0.01106916
0.0113117
0.01154572
0.01177771
0.01197637
0.01213141
0.01227639
0.01241582
0.01253042
0.01260954
0.01267853
0.01274328
0.01278235
0.01279113
0.01279413
0.01279282
0.01276948
0.01272879
0.01267425
0.01256487
0.01242356
0.01233523
0.01227196
0.01214963
0.01187157
0.01152518
0.01135809
0.01128445
0.01116906
0.01062207
0.009957599
0.009682865
0.009628895
0.009536516
0.008641686
0.007908654
0.007686652
0.00754165
0.006842724
0.006066379
0.005604893
0.005021251
0.00436998
0.003782675
0.003196256
0.003039609
0.00200099
0.005044787
0.005749045
0.006582651
0.007578743
0.008840872
0.01001483
0.01084457
0.01183905
0.01333575
0.01482176
0.01559381
0.01605304
0.01723563
0.01860996
0.01951741
0.01985485
0.02056949
0.02164588
0.02246667
0.02286601
0.0234075
0.0242201
0.02484894
0.02519563
0.02566746
0.02630199
0.02679052
0.02708705
0.02741989
0.02781096
0.02814467
0.02847694
0.02873077
0.02890161
0.02910575
0.02929241
0.02944172
0.02956182
0.02957872
0.02959325
0.02934342
0.02897567
0.02874882
0.02840386
0.02816016
0.0270774
0.02599765
0.02526361
0.02450798
0.0233674
0.02138233
0.0198255
0.01842569
0.01679536
0.01383587
0.01098144
0.008276009
0.005650163
0.005625154
0.003030561
0.006415752
0.007899615
0.009350038
0.01116849
0.01316247
0.01517009
0.01691269
0.01852553
0.02010179
0.02148685
0.02254376
0.02338829
0.02432706
0.02530219
0.02614118
0.02679791
0.02740868
0.02804753
0.02866118
0.02919018
0.02967185
0.03016456
0.03065906
0.03111442
0.03154073
0.03197979
0.03243198
0.03286255
0.03326244
0.03366023
0.03403976
0.0344451
0.03486174
0.03522993
0.03555246
0.03585262
0.03616607
0.03649146
0.03676687
0.03694015
0.03704151
0.0371351
0.03726653
0.03729146
0.0371407
0.03680547
0.03634284
0.03578878
0.03498622
0.03392717
0.03272581
0.03116352
0.0291605
0.02655137
0.02336976
0.01948816
0.01421495
0.00832476
0.007567473
0.003792415
0.006850474
0.00893746
0.01110692
0.01358291
0.01604556
0.01832573
0.02029082
0.02207822
0.02372862
0.02515757
0.02635461
0.02725656
0.02800823
0.02870933
0.02932593
0.02984312
0.03029845
0.03074254
0.03117455
0.03158527
0.03198535
0.03238949
0.03279788
0.03320481
0.03361375
0.03403227
0.03445972
0.03488976
0.03531833
0.03571685
0.03612646
0.03657135
0.03700664
0.03742362
0.03782182
0.03820463
0.03857289
0.03892073
0.03923685
0.03950591
0.0397153
0.03985964
0.03991192
0.03990599
0.03981689
0.03959121
0.03921117
0.03867505
0.03793783
0.03701048
0.03568771
0.03386435
0.03171366
0.02911688
0.02604913
0.02218985
0.017334
0.01116199
0.009157792
0.004534603
0.007331829
0.009945774
0.01268309
0.01556448
0.01825603
0.02060895
0.02256711
0.02421716
0.02561596
0.02683393
0.02789114
0.02879523
0.02948771
0.02997012
0.03038763
0.03075949
0.03109278
0.03141765
0.03175037
0.03208679
0.03243214
0.03279197
0.03316831
0.03356104
0.03397032
0.0343967
0.03483985
0.03529764
0.03574267
0.03619165
0.03667128
0.03716067
0.03765349
0.03814249
0.03862244
0.03909953
0.03956762
0.04001843
0.04044413
0.04083594
0.04118452
0.0414833
0.04171047
0.04185244
0.04188427
0.04179939
0.04157834
0.0412358
0.04071161
0.03978769
0.03844243
0.03682491
0.03487123
0.03243807
0.02932909
0.02527565
0.0199144
0.01288735
0.01029544
0.005224648
0.00770865
0.01067605
0.01370426
0.01672738
0.01946024
0.02180243
0.02374093
0.0253273
0.02660298
0.02760237
0.02839816
0.02903405
0.02959805
0.03006661
0.03041326
0.03072958
0.03102472
0.03131118
0.0315991
0.03189659
0.03221117
0.03254824
0.03291082
0.03330016
0.0337165
0.03415936
0.0346274
0.03511778
0.03562766
0.03615822
0.03670742
0.03727476
0.03785789
0.03845163
0.03903716
0.03961791
0.04020001
0.04077019
0.04131795
0.04183398
0.0423075
0.04272647
0.04307853
0.04334662
0.04348493
0.04350026
0.04341684
0.04312195
0.04248086
0.04150383
0.04021636
0.0385981
0.03655936
0.03398933
0.03076371
0.02669492
0.02144312
0.01448918
0.01121475
0.005856038
0.008006879
0.01120425
0.0143634
0.01739643
0.02007151
0.02231367
0.02413368
0.02559013
0.02674505
0.02765685
0.02838812
0.02897448
0.02942721
0.02982088
0.03014727
0.03039228
0.0306282
0.03087069
0.03113
0.03141365
0.03172782
0.03207673
0.03246284
0.03288706
0.03334924
0.0338485
0.0343835
0.03495194
0.03555082
0.03617837
0.03682636
0.03749522
0.03818684
0.03889354
0.03960882
0.04032225
0.04103055
0.04172767
0.04240415
0.04304893
0.04364883
0.04418843
0.04465153
0.04501302
0.04527532
0.04539546
0.04531196
0.04494855
0.04431212
0.04338875
0.04213946
0.04051073
0.03843558
0.03582599
0.03254969
0.02838586
0.02293758
0.01560311
0.0118978
0.006422677
0.008283431
0.01157689
0.01472735
0.01766665
0.0202158
0.02235597
0.02412399
0.02555026
0.02666277
0.02752035
0.02817195
0.02866883
0.02906151
0.02937535
0.02966894
0.0299471
0.03019907
0.03045686
0.03073533
0.03104549
0.03139437
0.03178673
0.03222484
0.03270855
0.03323681
0.03380773
0.03441841
0.03507212
0.0357659
0.03649553
0.03725653
0.03804486
0.03885405
0.03967938
0.0405151
0.04135412
0.04218863
0.04300983
0.04380701
0.04456747
0.04527608
0.04591695
0.0464669
0.04691965
0.04723388
0.04732832
0.04720315
0.04682472
0.04616741
0.04519331
0.04386178
0.0421252
0.03992316
0.03717369
0.03375545
0.02946793
0.02394182
0.01658713
0.01244295
0.007127316
0.008493084
0.01179149
0.01486963
0.01769143
0.02018259
0.02226354
0.02394735
0.025286
0.0263457
0.02717151
0.02781106
0.02830998
0.02870863
0.02903957
0.02933158
0.02962901
0.0299395
0.03025411
0.03059043
0.03095764
0.03136191
0.03180588
0.0322987
0.03284754
0.03345096
0.03410738
0.03481486
0.03556543
0.03635603
0.03718348
0.03804999
0.03894985
0.03986991
0.04080586
0.04175188
0.0427006
0.04364323
0.04456935
0.0454666
0.04632045
0.04711428
0.0478282
0.04844604
0.04892913
0.04923395
0.0493245
0.04918648
0.04877651
0.04806033
0.0470024
0.04556537
0.04370672
0.04137306
0.03848944
0.03493872
0.03051822
0.02484322
0.01728276
0.01282886
0.007248468
0.008685293
0.01193822
0.01490979
0.0176436
0.02000476
0.02199258
0.02362094
0.02493356
0.0259823
0.02681575
0.0274801
0.02801769
0.02846562
0.02885556
0.02921357
0.02955841
0.02991502
0.03028629
0.03068433
0.03111975
0.03160159
0.03213727
0.03272497
0.03336191
0.03405001
0.03478883
0.03557641
0.03640961
0.03728492
0.03819839
0.03915408
0.04014578
0.04115766
0.04218463
0.04322024
0.04425657
0.04528405
0.0462913
0.04726486
0.04818891
0.04904484
0.04981038
0.05045545
0.05094644
0.05124664
0.0513173
0.05112997
0.05064417
0.04982606
0.04864414
0.04706688
0.04505822
0.04257132
0.03953708
0.03584374
0.03129519
0.02551769
0.01789467
0.01313718
0.007336348
0.008780426
0.01200536
0.01487772
0.01746241
0.0197258
0.02165011
0.02325171
0.02456772
0.02564256
0.0265206
0.02724356
0.02784906
0.02837028
0.0288357
0.02926095
0.02967617
0.03010379
0.03056943
0.03106776
0.03159897
0.03217075
0.03278812
0.03345383
0.03416905
0.03493412
0.03574817
0.03660947
0.03751545
0.03846289
0.0394479
0.04047428
0.04153613
0.04261808
0.04371412
0.04481704
0.04591824
0.04700744
0.0480724
0.04909849
0.05006817
0.05096027
0.05174957
0.05240494
0.05289043
0.05316817
0.05319929
0.05294637
0.0523695
0.05143631
0.05012065
0.04839875
0.04624279
0.04361174
0.0404401
0.03661775
0.03194753
0.02605019
0.01829763
0.0133259
0.008406229
0.008899245
0.0120508
0.0148228
0.01729767
0.01947235
0.02134003
0.02291729
0.02423639
0.02533609
0.02625727
0.02703952
0.02772121
0.02833293
0.02889317
0.02943332
0.02996328
0.03049757
0.0310517
0.03163571
0.03225833
0.03291881
0.03362053
0.0343659
0.03515677
0.03599381
0.0368767
0.03780385
0.03877291
0.03978089
0.0408242
0.041905
0.04301808
0.04415045
0.04529546
0.04644529
0.04759068
0.04872057
0.04982175
0.05087838
0.05187144
0.05277819
0.0535715
0.05422037
0.05468999
0.05493355
0.05491741
0.0545865
0.05390349
0.05284236
0.05138584
0.04952006
0.04722374
0.04445995
0.04116509
0.03722989
0.03245838
0.02647455
0.01865658
0.01348112
0.00845319
0.008958533
0.01204308
0.01470124
0.01705907
0.01914274
0.02095668
0.02251826
0.02385675
0.02500733
0.02600376
0.02687795
0.02765701
0.02836634
0.02903198
0.02967133
0.03030585
0.03095363
0.03162042
0.0323109
0.03302886
0.03377819
0.03456501
0.03539357
0.03626208
0.03716918
0.03811345
0.039094
0.04011064
0.04116182
0.04224504
0.04336064
0.04450422
0.04566566
0.04683763
0.0480117
0.04917816
0.05032545
0.05143989
0.0525052
0.05350178
0.054406
0.05518962
0.05582099
0.05626237
0.05646444
0.05638338
0.05596542
0.05517029
0.05398502
0.05240371
0.05041517
0.04800242
0.04512946
0.04173267
0.0377019
0.03283944
0.02676697
0.01886177
0.01355201
0.008542931
0.008981773
0.01202005
0.01458747
0.01685705
0.0188765
0.02066009
0.02222479
0.02359375
0.02479284
0.02584774
0.02678831
0.02764077
0.02842855
0.02918293
0.02993029
0.03068174
0.03144253
0.03221481
0.03300279
0.03381294
0.03465506
0.0355345
0.03645001
0.03739725
0.03837045
0.03936425
0.04038407
0.04143726
0.04251977
0.04362866
0.04476285
0.04591963
0.04709253
0.04827362
0.04945373
0.0506226
0.05176835
0.05287706
0.05393238
0.05491483
0.05580133
0.05656406
0.05716959
0.05757785
0.05773812
0.05759632
0.05709329
0.05618956
0.05488504
0.05319787
0.05111702
0.04861551
0.04565807
0.0421809
0.03807442
0.03314239
0.02700862
0.01905206
0.01361447
0.008736701
0.008996852
0.01198478
0.01448604
0.01668832
0.01865788
0.02041812
0.02198461
0.02337526
0.02461127
0.02571827
0.02671792
0.02763324
0.0284974
0.02934632
0.03019142
0.03103644
0.03188777
0.03275398
0.03363963
0.0345472
0.03547734
0.03643178
0.03741072
0.03841244
0.03943587
0.04048207
0.04155187
0.04264211
0.04374845
0.04487176
0.04601552
0.04717867
0.04835611
0.04953922
0.05071849
0.05188277
0.0530195
0.05411411
0.05514977
0.05610964
0.05697524
0.0577195
0.05830802
0.05869726
0.05882943
0.05863844
0.05806348
0.05706812
0.05565169
0.05384621
0.05166738
0.04908577
0.04605445
0.042508
0.03833644
0.03334307
0.02715016
0.01913564
0.01362115
0.008916868
0.009004352
0.01195167
0.01439682
0.01653671
0.01845993
0.02019567
0.02176021
0.02316928
0.02444051
0.02559219
0.02664368
0.02762175
0.02856224
0.02948886
0.03041247
0.03134161
0.03228196
0.03323632
0.03420444
0.03518655
0.03618471
0.03720013
0.03823305
0.03928333
0.04035045
0.04143428
0.04253526
0.04365317
0.04478597
0.0459299
0.04707837
0.04823482
0.04940783
0.05058985
0.05176621
0.05292502
0.05405422
0.05514055
0.05616884
0.05712146
0.05797648
0.05870601
0.05927435
0.05963575
0.05973314
0.0595005
0.05886873
0.05779064
0.05626868
0.05435697
0.05209361
0.04944514
0.04635336
0.04275254
0.03853221
0.03349667
0.02726932
0.01922352
0.01362755
0.009062272
0.009018363
0.01192179
0.01431903
0.01640872
0.01829235
0.02000462
0.02156299
0.02298157
0.0242753
0.0254607
0.02655643
0.02758685
0.02858532
0.02958029
0.03058141
0.03159177
0.03261093
0.03363704
0.03467228
0.03571835
0.03677564
0.03784349
0.03892195
0.04001167
0.04111324
0.04222741
0.04335478
0.04449491
0.04564556
0.04680178
0.04795465
0.04910923
0.05027967
0.05146095
0.05263688
0.05379392
0.05491947
0.0560003
0.05702156
0.0579655
0.05880984
0.0595258
0.06007613
0.06041305
0.06047723
0.06020223
0.0595189
0.05838242
0.05678888
0.0547892
0.05245015
0.04974279
0.04659754
0.04294859
0.03868526
0.03361088
0.02734627
0.0192591
0.01361372
0.00918018
0.009036118
0.01189758
0.01425568
0.01630366
0.01815153
0.01984034
0.0213893
0.02281201
0.02412191
0.02533397
0.02646541
0.02754048
0.02859168
0.02964541
0.03070769
0.03178006
0.03286165
0.03395139
0.0350474
0.03614781
0.03725199
0.03836197
0.0394791
0.04060347
0.04173557
0.04287623
0.04402619
0.04518522
0.04635104
0.04751784
0.04867439
0.04982568
0.05099025
0.05216726
0.05334086
0.05449583
0.05561856
0.05669565
0.05771216
0.05865003
0.05948642
0.06019181
0.06072796
0.06104599
0.06108548
0.0607792
0.06005307
0.05885992
0.05719709
0.05512165
0.05271275
0.04995102
0.04676451
0.04308057
0.03878637
0.03368302
0.02739194
0.01927815
0.01358354
0.009264826
0.009063249
0.01189275
0.01421278
0.01622041
0.01803355
0.01969756
0.02123319
0.02265463
0.02397508
0.02520897
0.02637249
0.02748671
0.02858168
0.02968114
0.03079346
0.03191821
0.03305227
0.03419206
0.03533425
0.03647794
0.03762326
0.03877031
0.03991936
0.04107126
0.04222734
0.04338888
0.04455663
0.04573013
0.04690692
0.04808207
0.04924888
0.0504023
0.05155582
0.05272495
0.05389787
0.05505325
0.05617602
0.0572526
0.058268
0.05920378
0.06003638
0.06073517
0.06126055
0.0615622
0.06157849
0.06124245
0.06047882
0.05924127
0.05752633
0.05539144
0.05292127
0.05011187
0.04688965
0.04317237
0.03884736
0.0337175
0.02740603
0.0192776
0.01354946
0.009343083
0.009106059
0.01190032
0.01418387
0.01615455
0.0179341
0.01957165
0.02109098
0.02250741
0.02383448
0.02508623
0.02627763
0.0274241
0.02855126
0.02968631
0.03083746
0.03200159
0.03317507
0.0343538
0.03553456
0.03671484
0.03789327
0.03906954
0.04024457
0.04141987
0.04259691
0.04377705
0.04496111
0.04614875
0.04733765
0.048523
0.04969797
0.05085549
0.05200807
0.05317469
0.05434722
0.05550503
0.05663187
0.05771291
0.05873224
0.05967061
0.0605035
0.06119916
0.06171672
0.06200462
0.06200028
0.06163616
0.0608365
0.0595553
0.05779037
0.0556025
0.05308215
0.05023222
0.04697829
0.04323459
0.03888786
0.03374018
0.02741008
0.01927297
0.01350888
0.009390862
0.009163161
0.01193456
0.01417975
0.0161088
0.01785165
0.01946016
0.02095998
0.0223677
0.02369732
0.0249625
0.02617707
0.02735447
0.0285121
0.02967269
0.0308477
0.03203955
0.03324186
0.03444974
0.0356591
0.03686697
0.03807177
0.03927304
0.04047142
0.04166812
0.04286463
0.0440625
0.0452627
0.04646509
0.04766774
0.04886626
0.05005343
0.05121983
0.05237642
0.0535448
0.05472071
0.05588448
0.05701885
0.05810774
0.05913415
0.06007783
0.06091319
0.06160728
0.06211801
0.06239272
0.06236841
0.06197534
0.06114186
0.05982137
0.05801284
0.05577874
0.05321329
0.05032809
0.04704761
0.04328052
0.03891269
0.03374465
0.02740592
0.01925332
0.01346582
0.00946235
0.009252297
0.01199207
0.01418828
0.01607713
0.01778265
0.01936035
0.02083821
0.02223429
0.02356312
0.02483809
0.02607189
0.02727622
0.02846093
0.02964095
0.03083331
0.03204029
0.03326118
0.03448963
0.03572031
0.03694999
0.03817669
0.03939955
0.04061861
0.04183498
0.04305033
0.0442662
0.04548352
0.04670226
0.04792083
0.04913523
0.05033798
0.0515181
0.05268435
0.05385914
0.05504167
0.05621391
0.05735798
0.05845672
0.05949189
0.06044209
0.06128056
0.06197316
0.06247665
0.06273746
0.0626924
0.06226978
0.06140207
0.06004258
0.05819244
0.05591684
0.05331336
0.05039802
0.04709403
0.04330719
0.03892353
0.03374443
0.02739134
0.01923094
0.01342168
0.009500279
0.009359549
0.01207223
0.01422092
0.01606256
0.01772724
0.01927138
0.02072461
0.02210597
0.02343029
0.0247105
0.02595825
0.02718375
0.02839518
0.02959837
0.03080299
0.03202085
0.03325139
0.03449017
0.03573495
0.03698131
0.03822585
0.03946706
0.04070486
0.04194021
0.04317449
0.04440897
0.04564441
0.04688066
0.04811641
0.04934867
0.05057124
0.05177181
0.05295059
0.05413089
0.05532269
0.05650765
0.05766378
0.05877341
0.0598179
0.06077487
0.06161635
0.06230701
0.06280249
0.06304847
0.06298168
0.06253046
0.06162874
0.06023181
0.05834318
0.05603043
0.05339363
0.05045227
0.04712815
0.04332397
0.03892441
0.03373345
0.02737126
0.01920375
0.01337909
0.009574154
0.009500806
0.01218402
0.01427616
0.01606521
0.01768538
0.01919316
0.02061896
0.02198237
0.02329821
0.02457883
0.02583479
0.02707497
0.02830632
0.02953359
0.0307595
0.03198624
0.03322099
0.03446911
0.03572359
0.03698036
0.03823792
0.03949468
0.04074974
0.04200333
0.04325623
0.0445095
0.04576381
0.04701892
0.04827321
0.04952322
0.05076341
0.05198668
0.0531881
0.054381
0.05558082
0.05677638
0.05794495
0.05906667
0.06012124
0.06108512
0.06192923
0.06261715
0.06310357
0.06333353
0.0632439
0.06276324
0.06182719
0.06039334
0.05846807
0.0561217
0.05345631
0.05049266
0.04715115
0.04333283
0.03892231
0.03372002
0.02734879
0.01917594
0.01333805
0.009608961
0.00967481
0.0123211
0.01435257
0.01608589
0.01765771
0.01912604
0.02052144
0.02186352
0.02316676
0.02444278
0.02570113
0.02694952
0.02819377
0.02943787
0.03068394
0.03193247
0.03318278
0.03443512
0.03569356
0.03696013
0.03822992
0.03950022
0.0407705
0.04204067
0.0433113
0.04458304
0.04585622
0.04713049
0.04840424
0.04967413
0.05093475
0.05217922
0.05340114
0.05461097
0.05582426
0.05703218
0.05821303
0.05934628
0.06041036
0.06138041
0.06222616
0.0629101
0.06338609
0.06359868
0.06348502
0.0629742
0.06200376
0.06053391
0.05857407
0.05619725
0.05350696
0.05052412
0.04716751
0.04333663
0.03891553
0.03370453
0.02732619
0.01914827
0.01330135
0.009642353
0.009868367
0.01248565
0.01445207
0.0161256
0.01764618
0.01907159
0.02043328
0.02175056
0.0230373
0.02430425
0.02555999
0.02681117
0.02806268
0.02931771
0.03057793
0.03184362
0.03311403
0.03438775
0.03566309
0.03693794
0.03821471
0.03949719
0.0407823
0.04206875
0.0433564
0.04464578
0.04593724
0.04723031
0.04852337
0.04981329
0.05109502
0.05236143
0.0536046
0.05483263
0.05606053
0.05728139
0.05847456
0.05961881
0.06069141
0.06166631
0.06251213
0.06319036
0.06365416
0.06384778
0.06370876
0.06316696
0.062162
0.06065688
0.05866429
0.05625995
0.05354836
0.05054919
0.04717955
0.04333797
0.03890785
0.0336891
0.02730405
0.01912208
0.01326664
0.01001403
0.01009118
0.0126817
0.01457778
0.01618558
0.01764971
0.01902999
0.02035553
0.02164523
0.02291233
0.0241668
0.0254163
0.02666657
0.02792167
0.02918409
0.03045496
0.03173419
0.03302083
0.03431334
0.03560977
0.03690814
0.0382068
0.03950416
0.04080138
0.04210152
0.04340528
0.0447118
0.04602075
0.04733167
0.04864313
0.04995214
0.05125384
0.05254125
0.05380583
0.05505299
0.05629612
0.05752977
0.05873444
0.05988839
0.06096792
0.06194585
0.06278978
0.06346035
0.06391013
0.06408321
0.06391766
0.0633444
0.06230516
0.06076588
0.05874259
0.0563136
0.0535839
0.0505711
0.04719055
0.04334003
0.03890221
0.03367717
0.027286
0.01909942
0.01323813
0.01048833
0.01037518
0.01290332
0.01472745
0.01626574
0.01767149
0.01900305
0.02028986
0.02154974
0.02279504
0.02403486
0.02527601
0.02652339
0.02778032
0.02904863
0.03032889
0.03162062
0.03292252
0.03423277
0.03554926
0.03686984
0.03819243
0.03951506
0.04083618
0.04215447
0.04347176
0.04479216
0.0461164
0.04744332
0.0487712
0.05009728
0.05141733
0.05272504
0.0540113
0.05527615
0.05653175
0.05777761
0.0589939
0.06015649
0.06124107
0.06221991
0.06305985
0.06372079
0.06415485
0.06430613
0.06411324
0.0635084
0.06243546
0.06086336
0.05881147
0.05636056
0.05361569
0.05059156
0.04720167
0.04334345
0.03889887
0.03366745
0.02727019
0.01907934
0.01321258
0.01067041
0.01065752
0.01313476
0.01489949
0.01636613
0.01771172
0.01899357
0.02023946
0.02146768
0.02268973
0.02391378
0.02514573
0.02638966
0.02764808
0.02892217
0.0302119
0.03151629
0.03283363
0.03416174
0.03549821
0.03684053
0.0381863
0.03953276
0.04087845
0.04222159
0.04356081
0.04489625
0.04623194
0.04757136
0.04891276
0.05025299
0.05158768
0.05291129
0.05421792
0.0555034
0.05677248
0.05802746
0.05925204
0.06042128
0.06150943
0.06248766
0.06332197
0.0639717
0.06438872
0.0645173
0.06429671
0.06366062
0.06255502
0.0609518
0.05887359
0.05640345
0.05364615
0.05061275
0.04721515
0.04335077
0.03890103
0.03366395
0.02726057
0.01906513
0.0131933
0.01085699
0.01094936
0.0133857
0.01509211
0.01648373
0.01776755
0.01899774
0.02020364
0.02140077
0.02260001
0.02380877
0.0250321
0.02627324
0.02753391
0.02881453
0.03011443
0.03143201
0.03276509
0.03411102
0.03546698
0.03683009
0.03819695
0.03956633
0.04093538
0.04230192
0.04366429
0.04502112
0.04637162
0.04771984
0.04907049
0.05042131
0.05176802
0.05310537
0.05442769
0.05572962
0.05701278
0.05827788
0.05950952
0.06068332
0.06177295
0.06274869
0.06357571
0.06421288
0.06461195
0.0647175
0.06446941
0.06380293
0.06266601
0.06103349
0.05893118
0.05644433
0.05367712
0.05063626
0.04723183
0.04336169
0.03890658
0.03366346
0.02725623
0.01905432
0.01317554
0.01087578
0.0112431
0.01364922
0.01529893
0.01662339
0.01784312
0.01902256
0.0201879
0.02135395
0.02253103
0.0237255
0.0249414
0.026181
0.02744511
0.02873332
0.03004421
0.03137558
0.0327247
0.03408857
0.03546338
0.03684503
0.03823282
0.03962289
0.04101258
0.04239989
0.04378294
0.04516011
0.04652999
0.04789131
0.04924788
0.0506048
0.05195955
0.05330731
0.05464228
0.05595808
0.05725381
0.058528
0.05976541
0.06094217
0.06203158
0.06300317
0.06382149
0.06444499
0.06482533
0.06490748
0.06463203
0.06393614
0.06276968
0.06111024
0.05898651
0.05648558
0.05371067
0.0506639
0.04725373
0.0433788
0.03891962
0.03367321
0.0272593
0.01904984
0.01316415
0.01101599
0.01154996
0.01392407
0.015518
0.01677742
0.01793441
0.01906432
0.02019079
0.02132891
0.02248614
0.02366878
0.02487973
0.02612015
0.02738984
0.02868748
0.03001089
0.03135677
0.03272102
0.03409911
0.03549029
0.03689184
0.03829853
0.03970751
0.04111598
0.0425218
0.04392292
0.04531758
0.04670422
0.04808139
0.04944803
0.05080815
0.05216657
0.0535202
0.05486364
0.05619025
0.05749673
0.05877868
0.06002044
0.06119854
0.06228602
0.0632518
0.06405982
0.06466834
0.06502946
0.06508885
0.06478752
0.06406388
0.0628696
0.06118493
0.05904157
0.05652861
0.05374813
0.05069638
0.04728052
0.04340057
0.03893656
0.03368486
0.02726514
0.01904873
0.01315575
0.01112618
0.01186345
0.01421459
0.01575498
0.01694998
0.01804489
0.01912795
0.02021963
0.02133284
0.02247591
0.02365002
0.02485862
0.02610194
0.0273783
0.02868461
0.03001653
0.03137365
0.0327523
0.03414926
0.03555853
0.03697649
0.03839969
0.03982486
0.04124948
0.04267097
0.04408724
0.04549643
0.04689688
0.04828708
0.04966561
0.05103222
0.05239125
0.05374653
0.05509446
0.05642853
0.0577433
0.05903138
0.06027627
0.06145454
0.06253885
0.06349773
0.06429503
0.06488896
0.06523123
0.06526724
0.06493924
0.0641887
0.06296898
0.06126214
0.05910181
0.05657779
0.05379138
0.05073479
0.04731412
0.04342994
0.03896173
0.03370524
0.02727957
0.0190571
0.0131537
0.01132653
0.0121824
0.01451412
0.01600469
0.01713818
0.01817337
0.01921168
0.02027079
0.02136123
0.02248852
0.02365698
0.02486554
0.02611285
0.0273968
0.02871471
0.03006384
0.03143748
0.03283205
0.03424355
0.03566778
0.0371003
0.03853752
0.03997625
0.04141395
0.04284818
0.04427675
0.04569772
0.04710935
0.04851
0.04989818
0.05127239
0.05263393
0.05398795
0.05533642
0.05667435
0.05799464
0.05928684
0.06053329
0.06171051
0.06279086
0.0637424
0.06452815
0.06510585
0.06542767
0.06544054
0.06508742
0.06431127
0.06306699
0.06133892
0.0591624
0.05662848
0.05383747
0.05077741
0.04735243
0.04346373
0.03899059
0.03372841
0.02729577
0.01906446
0.01315217
0.0114352
0.01250595
0.01482841
0.01626885
0.01734291
0.01832268
0.01932146
0.02035258
0.02142515
0.02254355
0.02370906
0.02492047
0.02617517
0.02746967
0.02879983
0.03016105
0.03154824
0.0329566
0.03438127
0.03581766
0.03726182
0.03871033
0.04016031
0.04160883
0.04305342
0.04449186
0.04592217
0.04734254
0.04875129
0.05014681
0.05152754
0.05289189
0.05424384
0.05558994
0.0569281
0.05825066
0.05954466
0.06079107
0.06196568
0.06303995
0.06398142
0.06475333
0.06531407
0.06561639
0.06560776
0.06523107
0.06443026
0.06316163
0.06141252
0.05922165
0.05668099
0.05388771
0.0508252
0.0473966
0.04350412
0.03902658
0.03375911
0.02732005
0.01908063
0.01315508
0.01160319
0.01280977
0.01514423
0.01654759
0.01756899
0.01849622
0.01945811
0.02046639
0.02152685
0.02264129
0.02380873
0.02502636
0.02629021
0.02759559
0.02893745
0.0303105
0.03170948
0.03312894
0.03456383
0.03600958
0.03746269
0.03891989
0.0403782
0.04183473
0.04328696
0.04473266
0.04616976
0.04759638
0.04901072
0.05041103
0.05179562
0.05316279
0.05451404
0.05585548
0.05719027
0.05851181
0.05980524
0.06104942
0.06221899
0.06328505
0.06421518
0.06497292
0.06551681
0.06579953
0.06576945
0.06537028
0.06454731
0.06325814
0.06149131
0.05928675
0.05673792
0.05394221
0.05087722
0.04744462
0.0435481
0.03906606
0.03379352
0.02734654
0.019097
0.01315647
0.01200249
0.01316502
0.01548528
0.01684536
0.0178138
0.01869793
0.01963065
0.02062133
0.02167306
0.02278563
0.02395622
0.02518046
0.02645307
0.02776832
0.02912034
0.03050325
0.03191135
0.0333392
0.03478205
0.03623573
0.03769658
0.03916106
0.04062595
0.04208851
0.04354628
0.04499703
0.0464387
0.0478694
0.0492873
0.05069061
0.05207744
0.05344596
0.05479537
0.05613101
0.05746003
0.05877762
0.06006776
0.06130751
0.06247052
0.06352744
0.06444567
0.06518872
0.06571547
0.06597904
0.06592872
0.06550859
0.06466466
0.06335581
0.06157246
0.05935659
0.0568022
0.05400446
0.05093667
0.04749964
0.04359813
0.03911031
0.03383054
0.02737736
0.01911916
0.01316442
0.01177337
0.01346739
0.015818
0.01714533
0.01807094
0.01891874
0.01982417
0.02080038
0.02184673
0.02296029
0.02413623
0.02536859
0.02665081
0.02797619
0.02933812
0.03073027
0.03214672
0.0335823
0.03503242
0.03649293
0.03795992
0.0394299
0.04089973
0.04236667
0.04382832
0.04528249
0.04672716
0.04816029
0.04957991
0.05098414
0.05237115
0.05373911
0.05508602
0.0564157
0.05773731
0.05904887
0.06033389
0.06156769
0.06272276
0.06376926
0.06467462
0.06540263
0.06591254
0.06615771
0.06608806
0.06564812
0.06478466
0.06345753
0.06165851
0.05943115
0.05687063
0.0540712
0.05100097
0.04755965
0.04365394
0.03916159
0.03387586
0.02741155
0.01914128
0.01317176
0.01168818
0.01374655
0.01615581
0.01746085
0.01835011
0.01916864
0.02005304
0.02102043
0.02206596
0.0231839
0.02436733
0.02560867
0.0269003
0.02823479
0.02960512
0.03100483
0.03242815
0.03386993
0.03532545
0.03679042
0.03826101
0.0397339
0.04120617
0.04267521
0.04413853
0.04559379
0.04703888
0.04847189
0.04989092
0.05129399
0.05267916
0.05404443
0.05538775
0.05671152
0.05802508
0.05932932
0.06060743
0.06183341
0.06297889
0.06401368
0.06490525
0.06561765
0.06611048
0.06633744
0.06624899
0.06579003
0.06490794
0.06356352
0.06174985
0.05951191
0.05694549
0.05414357
0.05107005
0.04762368
0.04371249
0.03921426
0.0339227
0.0274535
0.01917141
0.01318626
0.01200026
0.01402883
0.01649426
0.0177888
0.01865192
0.01944941
0.02031889
0.02128207
0.02233
0.02345421
0.02464586
0.02589611
0.02719652
0.02853918
0.02991684
0.03132297
0.03275169
0.03419779
0.03565658
0.03712397
0.03859632
0.04007045
0.0415434
0.04301252
0.04447537
0.04592978
0.04737359
0.0488048
0.05022146
0.05162164
0.05300326
0.05436416
0.05570214
0.0570189
0.05832392
0.05961959
0.06088896
0.06210513
0.0632391
0.06426054
0.06513706
0.06583304
0.06630843
0.06651725
0.06641034
0.06593297
0.06503301
0.06367206
0.06184435
0.05959618
0.05702401
0.05421968
0.05114309
0.047692
0.04377557
0.03927111
0.03397143
0.02749103
0.01919795
0.01319687
0.0125986
0.01437411
0.01685336
0.01813767
0.01897978
0.01976145
0.02062032
0.02158271
0.02263547
0.02376743
0.02496799
0.0262272
0.02753592
0.02888587
0.03026965
0.03168069
0.03311318
0.03456198
0.03602257
0.03749095
0.03896366
0.04043743
0.04190942
0.04337696
0.04483772
0.04628957
0.04773049
0.04915838
0.05057114
0.05196665
0.05334278
0.05469737
0.05602822
0.05733669
0.05863235
0.05991822
0.06117713
0.06238157
0.06350225
0.06450888
0.06536931
0.06604828
0.06650605
0.06669693
0.06657204
0.06607692
0.06515988
0.06378316
0.06194204
0.05968396
0.05710599
0.0542989
0.05121876
0.04776248
0.04384053
0.03933019
0.03402413
0.02753632
0.01923051
0.01321445
0.01288211
0.01469691
0.01721021
0.01849888
0.01933112
0.02010485
0.02095836
0.02192341
0.02298299
0.02412359
0.02533312
0.02660075
0.02791683
0.02927286
0.03066139
0.03207589
0.03351064
0.03496065
0.0364215
0.03788934
0.03936068
0.04083238
0.04230171
0.04376618
0.04522353
0.04667151
0.04810792
0.04953066
0.05093761
0.05232665
0.05369562
0.05504233
0.05636456
0.05766365
0.05894924
0.06022426
0.06147118
0.06266216
0.06376792
0.06475841
0.06560186
0.06626331
0.06670335
0.06687654
0.06673412
0.06622189
0.06528846
0.06389664
0.06204261
0.05977487
0.05719106
0.05438096
0.05129702
0.04783525
0.04390726
0.03939004
0.03407576
0.02757761
0.01926
0.01322659
0.01314948
0.01500369
0.01757762
0.01888131
0.0197108
0.02048186
0.02133363
0.02230387
0.02337174
0.02452152
0.02573986
0.02701523
0.02833765
0.0296985
0.03109035
0.03250677
0.0339422
0.03539178
0.03685124
0.0383169
0.03978537
0.04125368
0.04271905
0.04417909
0.04563142
0.0470738
0.04850405
0.04992005
0.05131964
0.05270066
0.05406093
0.05539824
0.0567104
0.05799903
0.05927385
0.06053698
0.06177048
0.0629464
0.06403578
0.06500898
0.06583466
0.06647821
0.06690046
0.06705617
0.06689663
0.0663678
0.06541855
0.06401215
0.06214557
0.0598683
0.05727854
0.05446515
0.05137719
0.04790987
0.04397601
0.03945246
0.03413114
0.02762453
0.01929446
0.01324257
0.01341487
0.01529997
0.01794891
0.01928128
0.02011828
0.02089319
0.02174677
0.02272406
0.02380102
0.02495996
0.02618652
0.02746865
0.02879615
0.03016043
0.03155414
0.03297101
0.03440564
0.03585335
0.03731004
0.03877205
0.04023622
0.04169963
0.04315966
0.04461376
0.04605961
0.04749494
0.04891756
0.0503253
0.05171601
0.05308751
0.05443762
0.05576415
0.0570649
0.05834207
0.05960539
0.0608556
0.06207433
0.06323376
0.06430545
0.06526036
0.06606762
0.06669296
0.06709739
0.06723583
0.06705952
0.06651455
0.06554994
0.06412937
0.06225051
0.05996376
0.05736784
0.0545508
0.05145844
0.04798515
0.04404483
0.03951416
0.03418467
0.0276681
0.01932591
0.01325365
0.01325367
0.01560802
0.01833537
0.01970464
0.0205554
0.02133803
0.02219715
0.02318261
0.02426912
0.025437
0.02667102
0.02795882
0.02929014
0.03065647
0.03205062
0.03346653
0.03489897
0.03634346
0.03779604
0.03925322
0.04071185
0.04216906