/*--------------------------------*- C++ -*----------------------------------*\
| =========                 |                                                 |
| \\      /  F ield         | OpenFOAM: The Open Source CFD Toolbox           |
|  \\    /   O peration     | Version:  2312                                  |
|   \\  /    A nd           | Website:  www.openfoam.com                      |
|    \\/     M anipulation  |                                                 |
\*---------------------------------------------------------------------------*/
FoamFile
{
    version     2.0;
    format      ascii;
    arch        "LSB;label=32;scalar=64";
    class       volScalarField;
    location    "4800";
    object      omega;
}
// * * * * * * * * * * * * * * * * * * * * * * * * * * * * * * * * * * * * * //

dimensions      [0 0 -1 0 0 0 0];

internalField   nonuniform List<scalar> 
12000
(
51.98327
18.13708
19.69197
21.25381
22.48335
23.52199
24.37149
25.13743
25.84365
26.48112
26.99999
27.46205
27.90762
28.33862
28.69587
28.99181
29.2726
29.54846
29.78954
29.97393
30.14182
30.30326
30.43883
30.53156
30.60857
30.68196
30.72958
30.73754
30.74226
30.73873
30.71408
30.6691
30.60803
30.48844
30.31489
30.19126
30.11416
29.99108
29.67613
29.24403
29.00292
28.91265
28.82095
28.19443
27.29918
26.9059
26.79851
26.73916
25.63479
24.47341
24.09547
23.88565
22.94762
21.66289
20.85236
19.85554
18.65252
17.50405
16.31111
38.49267
91.21017
21.18981
20.24546
20.90896
21.17172
21.35011
21.20898
20.59828
20.11853
19.5785
18.9514
18.40804
17.89614
17.27547
16.52557
16.05269
15.74975
15.28362
14.64822
14.20983
14.02064
13.69306
13.20628
12.89932
12.79387
12.54869
12.17484
12.01494
11.98154
11.88063
11.70887
11.63645
11.62918
11.6667
11.74184
11.77358
11.77847
11.80981
12.03055
12.36891
12.54172
12.54918
12.6001
13.11334
13.94274
14.401
14.48084
14.61154
15.83117
17.18581
17.94883
18.26514
19.90695
22.02493
23.94732
26.01971
30.23695
37.33033
50.26286
72.2563
94.30694
21.72058
19.41344
18.83353
18.23317
17.50245
16.72018
15.81424
14.93964
14.08959
13.33118
12.62612
11.97375
11.42542
10.96896
10.5919
10.23938
9.906054
9.626313
9.408046
9.218148
9.035966
8.884422
8.775337
8.685917
8.601562
8.540308
8.5123
8.498355
8.49268
8.493852
8.512729
8.54971
8.606183
8.66532
8.72848
8.803208
8.8988
9.017171
9.14402
9.269263
9.404881
9.575679
9.776801
9.990638
10.20922
10.45795
10.7507
11.07378
11.46474
11.93673
12.56395
13.24466
14.20275
15.51395
17.52924
21.06756
27.70333
44.31235
79.57074
96.37708
20.85853
17.53422
16.806
15.89026
14.90705
13.92076
12.93982
12.07923
11.32972
10.66955
10.08317
9.540178
9.083653
8.718219
8.40347
8.125517
7.884467
7.686063
7.521924
7.383231
7.267411
7.1749
7.102998
7.047515
7.007174
6.982641
6.972876
6.973387
6.986258
7.00509
7.037079
7.085315
7.143338
7.211009
7.289157
7.379145
7.482321
7.599487
7.731025
7.877044
8.038639
8.218845
8.421165
8.650054
8.912479
9.207737
9.545452
9.93986
10.40099
10.96435
11.60184
12.30192
13.2175
14.42618
16.2876
19.30184
25.09657
40.05346
85.23624
98.27251
20.02984
16.10002
15.2065
14.17161
13.12009
12.1059
11.16405
10.35131
9.65847
9.080349
8.58944
8.168034
7.794667
7.460412
7.182511
6.946572
6.744152
6.575367
6.436201
6.320472
6.225696
6.150043
6.091491
6.048232
6.019056
6.003142
6.000452
6.007469
6.023
6.048507
6.087542
6.137042
6.19681
6.266445
6.346011
6.436757
6.538909
6.652587
6.778244
6.916458
7.06806
7.234674
7.416275
7.615009
7.832165
8.07187
8.341396
8.653016
9.017753
9.429353
9.894175
10.50441
11.33649
12.50291
14.20636
17.00599
22.52524
37.43737
89.1519
100.0583
19.59213
14.94977
13.89374
12.83888
11.80704
10.84933
9.995249
9.262555
8.636496
8.099272
7.641422
7.24924
6.921721
6.636388
6.381434
6.166107
5.985268
5.833403
5.70618
5.600608
5.514619
5.446459
5.394547
5.357531
5.334311
5.326563
5.326934
5.339827
5.364055
5.399184
5.445264
5.502315
5.570624
5.650091
5.739144
5.838849
5.951398
6.076233
6.213631
6.364341
6.529286
6.709702
6.907404
7.124234
7.358852
7.620031
7.917118
8.243595
8.595389
9.000742
9.496494
10.1155
10.90652
11.97114
13.52865
16.0807
21.09863
34.97048
92.21518
101.7554
19.78318
14.09545
12.85623
11.81319
10.83272
9.943887
9.162173
8.489004
7.911784
7.416683
6.992736
6.629118
6.315534
6.051565
5.823617
5.622431
5.451289
5.306769
5.186034
5.086598
5.006508
4.94413
4.898073
4.86716
4.850409
4.847641
4.856216
4.877191
4.910017
4.954409
5.009424
5.075094
5.152404
5.241017
5.340897
5.451492
5.573696
5.708023
5.854757
6.014268
6.186997
6.373527
6.574856
6.791546
7.028467
7.287481
7.562188
7.857369
8.189531
8.57468
9.032847
9.597801
10.32854
11.33185
12.81909
15.28116
20.15776
33.68951
94.38589
103.5427
19.97222
13.45409
12.02497
11.00742
10.09083
9.269857
8.550104
7.927706
7.391374
6.929111
6.530652
6.186763
5.889678
5.632867
5.41577
5.229992
5.068021
4.930588
4.815831
4.721996
4.647388
4.590519
4.550093
4.524989
4.516135
4.51846
4.534051
4.562248
4.602564
4.654656
4.718405
4.793315
4.879374
4.976777
5.085673
5.206193
5.338576
5.483122
5.640123
5.80989
5.992746
6.189293
6.399745
6.627004
6.870258
7.12652
7.401185
7.701593
8.036916
8.419616
8.869541
9.419411
10.1237
11.0806
12.48673
14.79995
19.37339
32.21103
96.03685
105.3108
20.29094
13.0458
11.39934
10.38401
9.519446
8.756918
8.089616
7.510064
7.008053
6.57324
6.1964
5.869591
5.586199
5.34079
5.12911
4.950264
4.798827
4.669179
4.560954
4.472932
4.403804
4.352283
4.31721
4.297564
4.293145
4.301418
4.322855
4.356924
4.403203
4.461386
4.531938
4.614312
4.707746
4.812589
4.929101
5.057501
5.198022
5.350919
5.516472
5.694925
5.886436
6.091014
6.309353
6.540387
6.784744
7.043607
7.319429
7.616228
7.941664
8.309593
8.737223
9.258484
9.928113
10.8451
12.20586
14.46333
18.94206
31.47025
97.1737
82.58415
19.79439
12.68985
10.88766
9.874379
9.059686
8.351836
7.732303
7.191483
6.720255
6.309937
5.952779
5.642085
5.372161
5.138254
4.936306
4.763321
4.618072
4.496933
4.395841
4.313884
4.250087
4.203407
4.172841
4.158066
4.157106
4.169654
4.195283
4.233509
4.283961
4.346375
4.421461
4.508817
4.607459
4.71771
4.839858
4.974156
5.120818
5.279988
5.452355
5.638646
5.838751
6.052665
6.280001
6.519949
6.770487
7.033453
7.310911
7.606459
7.926298
8.280271
8.691803
9.19593
9.842388
10.72719
12.03844
14.20916
18.51133
30.59434
98.07433
84.06563
20.12743
12.56076
10.55351
9.503042
8.712985
8.044401
7.463278
6.955952
6.512904
6.125957
5.787968
5.492826
5.235531
5.012004
4.818821
4.652925
4.51218
4.395373
4.30023
4.223774
4.164846
4.122413
4.09557
4.084388
4.086253
4.101574
4.129818
4.170564
4.2235
4.288414
4.366013
4.456102
4.557887
4.671681
4.797819
4.936664
5.0886
5.25403
5.432694
5.624171
5.828832
6.046749
6.277601
6.52087
6.776199
7.043274
7.322522
7.616159
7.930299
8.277207
8.676759
9.157661
9.780383
10.63941
11.92175
14.05626
18.29268
30.138
98.60997
109.7329
21.47958
12.60581
10.29519
9.190264
8.419052
7.787378
7.243323
6.768003
6.350957
5.984819
5.663774
5.383428
5.139466
4.927867
4.745289
4.588925
4.456198
4.345458
4.255097
4.183751
4.129353
4.090775
4.067072
4.057982
4.061945
4.079005
4.108745
4.150843
4.205081
4.271356
4.350296
4.441875
4.545448
4.661215
4.78946
4.930517
5.084746
5.252511
5.434146
5.6299
5.83981
6.063707
6.301235
6.551809
6.81445
7.087626
7.369995
7.662178
7.969
8.302915
8.686189
9.153374
9.756993
10.59449
11.84669
13.93231
18.07098
29.6471
99.05723
87.30207
21.73446
12.67929
10.15858
8.980679
8.204676
7.593025
7.074898
6.624872
6.231141
5.885955
5.583501
5.31889
5.088667
4.890188
4.720104
4.57375
4.448139
4.341921
4.254574
4.184759
4.131913
4.095234
4.073491
4.065822
4.071138
4.089123
4.119461
4.161948
4.216455
4.282939
4.361793
4.453116
4.556712
4.672824
4.801775
4.943952
5.099769
5.269642
5.453954
5.652987
5.866841
6.095368
6.338314
6.594845
6.863002
7.141513
7.428956
7.722163
8.022096
8.34321
8.711366
9.16205
9.750703
10.56909
11.80212
13.86507
17.96356
29.39035
99.30471
88.13109
22.32924
12.82346
10.07374
8.823852
8.038942
7.443645
6.950091
6.525433
6.154471
5.828342
5.542432
5.293734
5.07957
4.892145
4.728148
4.585587
4.462627
4.358721
4.273953
4.208178
4.159797
4.126441
4.107028
4.100797
4.107063
4.125316
4.155397
4.197314
4.250924
4.316298
4.393775
4.483697
4.586248
4.701659
4.830232
4.972357
5.128467
5.299018
5.484457
5.685192
5.901454
6.133064
6.38016
6.643103
6.920043
7.206797
7.498248
7.789906
8.083732
8.393378
8.746262
9.181529
9.754372
10.55837
11.77411
13.81133
17.86108
29.14818
99.57025
89.08852
22.99652
13.02632
10.0702
8.730691
7.922422
7.333302
6.856792
6.451473
6.099047
5.791087
5.522583
5.291002
5.088704
4.912714
4.757464
4.621833
4.505389
4.407251
4.326349
4.261959
4.213156
4.179134
4.158921
4.151833
4.15723
4.174869
4.204284
4.245134
4.297233
4.360844
4.436534
4.524862
4.626201
4.740742
4.868798
5.010715
5.166894
5.337729
5.523563
5.725341
5.944257
6.180615
6.434105
6.703796
6.98682
7.277526
7.569335
7.858184
8.146604
8.446373
8.784819
9.204901
9.764853
10.55684
11.76011
13.78399
17.81293
29.02863
99.67745
89.81913
23.63895
13.25553
10.09105
8.671638
7.837005
7.247974
6.783322
6.394347
6.059551
5.768521
5.516038
5.297572
5.108
4.941208
4.795229
4.668254
4.558852
4.465768
4.388132
4.325529
4.277443
4.243199
4.22221
4.213914
4.217742
4.233588
4.261096
4.300083
4.35045
4.412207
4.485413
4.571116
4.670717
4.784402
4.912071
5.054046
5.210837
5.383058
5.571368
5.776436
5.998775
6.238522
6.495167
6.767117
7.051211
7.342619
7.634777
7.921625
8.203316
8.492861
8.819254
9.227042
9.776128
10.55789
11.74981
13.76061
17.76851
28.94047
99.77401
90.36034
24.20676
13.50217
10.16068
8.657743
7.78762
7.190426
6.731178
6.353647
6.032419
5.755239
5.516074
5.309654
5.131275
4.975437
4.838981
4.719761
4.616236
4.527652
4.453601
4.393304
4.346254
4.311958
4.290144
4.280491
4.282633
4.296523
4.321918
4.358688
4.406771
4.466157
4.536858
4.620209
4.718093
4.830872
4.958297
5.100526
5.257998
5.431311
5.62114
5.828145
6.052783
6.295055
6.554201
6.828258
7.113494
7.404191
7.693585
7.976623
8.254037
8.537669
8.854252
9.249992
9.78851
10.56109
11.74522
13.74304
17.73105
28.85508
99.79459
90.76584
24.75391
13.76044
10.2533
8.663779
7.758919
7.15112
6.693912
6.324595
6.014134
5.748322
5.520069
5.32525
5.157024
5.010386
4.8822
4.770284
4.673059
4.589408
4.518521
4.460013
4.413723
4.379545
4.357148
4.346342
4.346956
4.358678
4.38193
4.41641
4.462098
4.518987
4.587048
4.66779
4.763517
4.874922
5.00176
5.144003
5.301971
5.476227
5.667427
5.876165
6.102793
6.347167
6.60832
6.884023
7.170304
7.461231
7.749576
8.029389
8.301092
8.577294
8.885841
9.273185
9.803705
10.56965
11.747
13.73843
17.71534
28.81122
99.74381
91.02314
25.25922
14.02366
10.36703
8.699603
7.757011
7.131367
6.67029
6.30476
6.001907
5.745388
5.526909
5.341141
5.181844
5.043628
4.923046
4.81763
4.725637
4.645932
4.577889
4.521282
4.475888
4.441605
4.418382
4.406234
4.405178
4.414722
4.43582
4.468041
4.511443
4.566148
4.632435
4.710948
4.803963
4.91374
5.040178
5.182651
5.341311
5.516688
5.709416
5.920028
6.148749
6.395235
6.658231
6.935148
7.22162
7.511405
7.797211
8.073302
8.340333
8.611051
8.913609
9.294149
9.817547
10.57781
11.75025
13.73638
17.70394
28.77927
99.65839
91.21967
25.73051
14.28913
10.49398
8.749324
7.763259
7.120936
6.654662
6.290505
5.992861
5.743403
5.53232
5.353979
5.202125
5.07081
4.956426
4.856426
4.769
4.692958
4.627604
4.572587
4.527859
4.493485
4.469621
4.456393
4.453928
4.461893
4.481243
4.511687
4.553354
4.606426
4.671211
4.748254
4.839841
4.948581
5.074728
5.217719
5.377566
5.554637
5.749427
5.962335
6.193419
6.442108
6.706869
6.984797
7.27123
7.559687
7.842717
8.114541
8.376019
8.640421
8.936555
9.310892
9.828871
10.58516
11.75442
13.73692
17.69704
28.74856
99.53307
91.32081
26.14788
14.54974
10.62964
8.811739
7.785387
7.121416
6.645735
6.279848
5.984781
5.740061
5.534347
5.361734
5.215484
5.089847
4.980553
4.884968
4.801241
4.728152
4.665004
4.611497
4.567624
4.533524
4.509432
4.495587
4.492237
4.499214
4.51747
4.546858
4.587586
4.63989
4.704064
4.780524
4.871521
4.979941
5.106407
5.250449
5.411955
5.591126
5.788295
6.003692
6.237178
6.487945
6.75417
7.032642
7.318426
7.604883
7.884589
8.151999
8.408383
8.667508
8.958606
9.328074
9.841648
10.59484
11.76169
13.74153
17.69592
28.72688
99.39221
91.54248
26.54816
14.80768
10.7698
8.881475
7.814317
7.1271
6.640392
6.270618
5.976023
5.7342
5.532419
5.362103
5.21938
5.098195
4.993392
4.901571
4.820966
4.750427
4.689297
4.637315
4.594488
4.561003
4.537154
4.523294
4.519754
4.526475
4.544447
4.573626
4.614297
4.666742
4.731241
4.808114
4.899485
5.008373
5.135755
5.281307
5.444836
5.626389
5.826121
6.044067
6.279874
6.532485
6.799801
7.078337
7.362932
7.646834
7.922667
8.185142
8.436003
8.689628
8.975791
9.341023
9.851271
10.60242
11.76815
13.74712
17.69935
28.71578
99.24595
91.6832
26.90219
15.05642
10.91273
8.956553
7.848373
7.137178
6.637279
6.261542
5.965471
5.724777
5.525362
5.358445
5.217097
5.096909
4.993366
4.904077
4.826218
4.758298
4.699508
4.649479
4.608163
4.575836
4.552892
4.539748
4.5368
4.544045
4.562565
4.592379
4.633859
4.687376
4.753256
4.83165
4.924
5.033621
5.162561
5.310347
5.476319
5.660448
5.86281
6.083276
6.321272
6.575488
6.843559
7.12175
7.404717
7.685656
7.957325
8.2148
8.460384
8.709073
8.991103
9.353061
9.86098
10.61099
11.77634
13.75489
17.70434
28.70619
99.10895
91.98705
27.31672
15.31266
11.0565
9.033447
7.884666
7.148864
6.634618
6.251326
5.952053
5.710744
5.511993
5.346027
5.206108
5.087441
4.986412
4.89897
4.822803
4.756181
4.698372
4.649165
4.609092
4.578341
4.557034
4.545458
4.543991
4.552601
4.572515
4.603787
4.646833
4.702066
4.769907
4.850844
4.94569
5.057006
5.187534
5.337494
5.506119
5.693088
5.89823
6.121214
6.361255
6.616809
6.885268
7.162681
7.443563
7.721101
7.988236
8.240456
8.480673
8.724545
9.002781
9.362048
9.868378
10.61796
11.78377
13.76331
17.71303
28.70546
98.98666
92.42013
27.6679
15.55216
11.20024
9.112488
7.922694
7.161282
6.63145
6.239167
5.935175
5.691775
5.492394
5.326484
5.186898
5.068517
4.967449
4.880575
4.805696
4.741316
4.686328
4.640165
4.602422
4.573371
4.553528
4.543367
4.543345
4.553556
4.575431
4.608861
4.65421
4.711925
4.782439
4.866231
4.963951
5.077914
5.210924
5.363455
5.534839
5.724646
5.932511
6.157882
6.399744
6.656321
6.924784
7.201003
7.479399
7.753204
8.015599
8.262538
8.497587
8.737064
9.0121
9.369408
9.87494
10.62484
11.79184
13.77305
17.72375
28.71127
98.88386
92.26635
28.0046
15.81325
11.34939
9.193308
7.961344
7.173412
6.626944
6.224476
5.914507
5.6678
5.466715
5.299992
5.160051
5.041537
4.940515
4.854041
4.779943
4.716663
4.663173
4.618976
4.583732
4.557379
4.540235
4.532767
4.535376
4.548694
4.573028
4.60895
4.657126
4.717879
4.791635
4.878812
4.979897
5.096995
5.232886
5.388259
5.562542
5.755198
5.965672
6.193208
6.436577
6.69379
6.961826
7.236412
7.511922
7.781676
8.039137
8.280759
8.510775
8.746158
9.018418
9.374289
9.879573
10.63027
11.79899
13.78262
17.73565
28.71905
98.78331
113.9506
28.97304
16.11531
11.50349
9.274369
7.999335
7.184311
6.620471
6.206903
5.889965
5.638988
5.435355
5.267156
5.126404
5.007522
4.906493
4.820381
4.747048
4.684978
4.633145
4.590919
4.557986
4.53435
4.520196
4.515831
4.521461
4.537956
4.565635
4.605039
4.656556
4.720779
4.798161
4.889096
4.993968
5.114616
5.253696
5.41207
5.589266
5.784657
5.997524
6.226923
6.471427
6.728858
6.996036
7.26859
7.540887
7.806383
8.058854
8.295275
8.52055
8.752283
9.022313
9.377289
9.882962
10.63508
11.80614
13.79298
17.74966
28.73259
98.70014
114.8664
29.45128
16.37599
11.65226
9.355718
8.037323
7.194183
6.611955
6.186349
5.86158
5.605571
5.398765
5.228631
5.086789
4.967434
4.866435
4.780812
4.708417
4.647732
4.597725
4.557752
4.527465
4.50676
4.495724
4.494624
4.503562
4.523542
4.55479
4.597804
4.65309
4.721157
4.802521
4.897568
5.006582
5.130854
5.273003
5.434478
5.614708
5.812725
6.027703
6.25859
6.503815
6.761041
7.026958
7.297134
7.565973
7.827093
8.074602
8.305997
8.526808
8.755078
9.022929
9.377553
9.884463
10.63842
11.81209
13.80248
17.76379
28.74983
98.6371
115.0129
29.81276
16.61544
11.79188
9.433994
8.073588
7.202328
6.601198
6.162879
5.829604
5.56797
5.357528
5.185149
5.042065
4.922231
4.821378
4.736449
4.665255
4.606247
4.558364
4.52092
4.493522
4.476005
4.468388
4.470759
4.483519
4.50705
4.541896
4.588637
4.647756
4.719733
4.805004
4.904063
5.017427
5.145871
5.291286
5.455501
5.638337
5.838699
6.055548
6.287641
6.533248
6.789908
7.05423
7.321764
7.586993
7.843724
8.086413
8.313092
8.529772
8.755438
9.022549
9.377285
9.884737
10.64089
11.8176
13.81218
17.77936
28.77199
98.60138
114.9887
30.22135
16.86394
11.93395
9.51373
8.109554
7.208853
6.588003
6.136405
5.794183
5.526581
5.312261
5.137508
4.993171
4.872952
4.772424
4.688429
4.61871
4.561666
4.51619
4.481545
4.457303
4.443238
4.439305
4.445434
4.462114
4.489522
4.528072
4.578398
4.641192
4.716935
4.806078
4.909078
5.026441
5.158798
5.307706
5.474825
5.660084
5.862446
6.08078
6.313692
6.559309
6.815061
7.077512
7.34224
7.60383
7.856283
8.094373
8.316586
8.529857
8.753383
9.01943
9.374628
9.883883
10.64184
11.82163
13.82045
17.79381
28.79494
98.56539
115.1907
30.63906
17.1216
12.06978
9.586259
8.142498
7.213548
6.572817
6.107504
5.75593
5.482063
5.263689
5.086502
4.940952
4.820479
4.720476
4.637666
4.569706
4.514932
4.472178
4.440654
4.419836
4.40943
4.409317
4.419366
4.440089
4.471549
4.514075
4.56808
4.634276
4.71347
4.806176
4.91285
5.033952
5.169992
5.32225
5.492139
5.679605
5.883674
6.10315
6.336527
6.581816
6.836374
7.096729
7.358504
7.616423
7.864745
8.098612
8.316863
8.527113
8.748735
9.014291
9.370299
9.881391
10.64175
11.82498
13.82836
17.80861
28.82101
98.54661
115.4978
31.09967
17.39927
12.20807
9.655502
8.171869
7.214309
6.554616
6.075928
5.715116
5.435033
5.212673
5.033173
4.886593
4.766099
4.666895
4.585565
4.519664
4.467439
4.427648
4.399442
4.382207
4.375601
4.379381
4.393641
4.41844
4.453959
4.50047
4.558325
4.627971
4.710231
4.80602
4.915868
5.040246
5.179619
5.33499
5.507437
5.696855
5.902316
6.122589
6.356072
6.60067
6.853682
7.111699
7.370495
7.624951
7.869444
8.099212
8.314128
8.521741
8.741962
9.007399
9.364516
9.877731
10.64087
11.82691
13.83451
17.82154
28.84666
98.55562
115.7257
31.51673
17.66893
12.33858
9.716475
8.195888
7.213008
6.53408
6.042174
5.672315
5.386205
5.160054
4.978457
4.831093
4.710851
4.612728
4.533159
4.469582
4.420156
4.383559
4.358827
4.345321
4.342612
4.350409
4.368773
4.397659
4.437201
4.487624
4.549234
4.622421
4.707732
4.806125
4.918595
5.045722
5.187966
5.346085
5.520807
5.711931
5.918531
6.13932
6.372634
6.616382
6.86789
7.123713
7.379497
7.630263
7.870618
8.09704
8.309042
8.514716
8.734088
8.999693
9.357947
9.873132
10.63869
11.82779
13.84013
17.83443
28.87442
98.60846
116.175
31.98892
17.96271
12.47845
9.780272
8.219601
7.209318
6.511777
6.006954
5.628311
5.336448
5.1068
4.923405
4.775548
4.655835
4.559059
4.481492
4.420464
4.374036
4.340797
4.319669
4.309934
4.311109
4.322942
4.345302
4.378162
4.421602
4.475793
4.540993
4.617549
4.7059
4.806787
4.921364
5.050644
5.195211
5.35563
5.53227
5.72479
5.932261
6.153377
6.386428
6.629199
6.878908
7.132138
7.384867
7.632152
7.869499
8.092758
8.302105
8.505964
8.724582
8.990548
9.350199
9.867531
10.63567
11.82779
13.84426
17.84493
28.89853
98.66285
116.293
32.35957
18.23015
12.60653
9.835065
8.23644
7.201213
6.486466
5.969725
5.583001
5.285914
5.053199
4.868387
4.720388
4.601536
4.506419
4.431154
4.37293
4.329661
4.299813
4.28229
4.276327
4.281402
4.297186
4.323472
4.360187
4.407365
4.465134
4.533711
4.613402
4.704608
4.807833
4.924189
5.055086
5.201377
5.363555
5.541689
5.73528
5.943307
6.164337
6.396581
6.637884
6.88563
7.13637
7.386325
7.631034
7.8654
8.085725
8.292534
8.494741
8.712977
8.979663
9.340932
9.860554
10.63135
11.82688
13.84708
17.85429
28.92101
98.69682
116.9578
32.82369
18.5329
12.74788
9.896572
8.257542
7.195351
6.462747
5.934064
5.53947
5.237423
5.001894
4.815887
4.667936
4.5501
4.456756
4.383861
4.328416
4.288225
4.261671
4.24764
4.245319
4.254125
4.273652
4.303645
4.34398
4.394645
4.455722
4.527387
4.609904
4.703641
4.80907
4.927071
5.059099
5.206499
5.369876
5.549072
5.743321
5.951449
6.171971
6.40312
6.642813
6.888339
7.136878
7.384362
7.626283
7.857993
8.076088
8.281302
8.482651
8.700726
8.967998
9.330765
9.852677
10.62593
11.82428
13.84839
17.86126
28.93749
98.69156
117.7865
33.26254
18.79842
12.87612
9.947188
8.269752
7.183981
6.435376
5.896032
5.494594
5.188454
4.950846
4.764259
4.616857
4.500421
4.409112
4.338707
4.286102
4.249042
4.225875
4.215433
4.21674
4.229173
4.25228
4.285769
4.329476
4.383349
4.447438
4.521888
4.606935
4.702905
4.81024
4.929601
5.062429
5.210472
5.374526
5.554306
5.748819
5.956777
6.176655
6.406604
6.644589
6.888271
7.134489
7.379531
7.619036
7.848466
8.064565
8.2683
8.468967
8.687313
8.95569
9.320242
9.844429
10.62017
11.82136
13.84855
17.86888
28.9584
98.6968
99.26112
33.1639
19.02801
13.00515
9.999143
8.281463
7.17275
6.408699
5.859168
5.451257
5.141335
4.901922
4.714986
4.568309
4.453384
4.364161
4.296262
4.246518
4.212598
4.192773
4.185777
4.190552
4.206432
4.232915
4.269669
4.316496
4.373314
4.440129
4.51705
4.604283
4.702144
4.811057
4.931564
5.064981
5.213298
5.37763
5.557635
5.752111
5.959613
6.178518
6.407196
6.643604
6.885327
7.129425
7.37229
7.609676
7.837182
8.051706
8.254371
8.454594
8.673162
8.942368
9.308469
9.834852
10.61302
11.81725
13.84891
17.87348
28.9744
98.70796
99.19381
33.42833
19.31158
13.1507
10.05457
8.293809
7.162713
6.384157
5.825262
5.41154
5.098314
4.857387
4.670237
4.524301
4.41083
4.323605
4.258143
4.211168
4.180239
4.163525
4.159681
4.167621
4.186633
4.216178
4.255871
4.305467
4.364843
4.433996
4.513018
4.602093
4.701511
4.811676
4.933118
5.067003
5.215405
5.379757
5.559689
5.75383
5.960634
6.178525
6.405762
6.640423
6.880211
7.122292
7.363161
7.598676
7.82454
8.037775
8.23965
8.439723
8.658805
8.929072
9.296742
9.825068
10.60523
11.81177
13.84688
17.87795
28.99647
98.74381
118.0413
34.29221
19.62331
13.29969
10.11021
8.30604
7.153586
6.361535
5.794091
5.375136
5.058987
4.816792
4.629586
4.484492
4.372539
4.287343
4.224275
4.179936
4.151794
4.137998
4.137045
4.147893
4.169748
4.202022
4.244299
4.296316
4.357922
4.429084
4.509876
4.600471
4.701141
4.812268
4.934366
5.068528
5.216872
5.381014
5.560571
5.754093
5.959956
6.176534
6.402172
6.635032
6.872916
7.113087
7.352134
7.586001
7.810482
8.022695
8.224024
8.424117
8.643797
8.915152
9.284426
9.81479
10.59708
11.80598
13.84392
17.87955
29.00555
98.7779
119.36
34.72434
19.89011
13.44239
10.16524
8.319174
7.14639
6.341555
5.766114
5.342358
5.023615
4.780387
4.593274
4.449095
4.338659
4.255415
4.194608
4.152736
4.127187
4.116135
4.117833
4.131295
4.155679
4.190356
4.234886
4.288983
4.352488
4.425342
4.507591
4.599383
4.70098
4.812759
4.935232
5.069459
5.217586
5.381314
5.560252
5.752865
5.957512
6.172602
6.396547
6.627597
6.863649
7.102054
7.33948
7.571944
7.795307
8.006766
8.207785
8.408081
8.628461
8.900909
9.271696
9.803936
10.58821
11.7995
13.84085
17.88193
29.0261
98.85261
119.6293
34.99571
20.12718
13.58106
10.22064
8.333736
7.141445
6.324631
5.741831
5.313725
4.992681
4.74859
4.561642
4.418372
4.309383
4.227969
4.169259
4.129656
4.106474
4.097814
4.101881
4.117643
4.144225
4.180984
4.227459
4.28333
4.348403
4.422605
4.505972
4.598643
4.700872
4.813033
4.935637
5.069746
5.21752
5.380666
5.558757
5.75023
5.953463
6.166924
6.389111
6.618366
6.852672
7.089456
7.325452
7.556732
7.77921
7.990138
8.191042
8.391682
8.612839
8.886398
9.25866
9.792685
10.57875
11.79204
13.83603
17.88203
29.03549
98.91513
119.5804
35.22095
20.35933
13.72131
10.27832
8.35165
7.141069
6.312395
5.722355
5.290032
4.966782
4.721861
4.535047
4.392592
4.284901
4.205121
4.148269
4.110664
4.08955
4.082952
4.089074
4.106827
4.135299
4.173823
4.221903
4.279202
4.345513
4.420747
4.50493
4.598193
4.700785
4.813079
4.935589
5.069417
5.216718
5.379131
5.556189
5.746327
5.947981
6.159708
6.380102
6.607596
6.840251
7.075556
7.310298
7.54059
7.762385
7.972973
8.173923
8.375019
8.597004
8.87167
9.245363
9.781122
10.569
11.78443
13.8314
17.88216
29.04997
98.9653
120.6729
35.58685
20.59067
13.86243
10.33828
8.372358
7.143305
6.304114
5.707573
5.271392
4.946081
4.700341
4.513578
4.371788
4.265193
4.186807
4.131546
4.09565
4.0763
4.071441
4.079291
4.098702
4.12874
4.168697
4.21806
4.276473
4.343713
4.419683
4.504396
4.597984
4.700694
4.812899
4.935112
5.068508
5.215231
5.37678
5.552644
5.741286
5.941232
6.15115
6.369739
6.59552
6.826621
7.060583
7.29423
7.523708
7.744995
7.955405
8.156533
8.358171
8.581012
8.856753
9.231785
9.769116
10.55854
11.77569
13.82502
17.88047
29.05519
98.98019
104.6015
35.36459
20.77658
14.00018
10.401
8.397051
7.151171
6.301772
5.698616
5.258479
4.93099
4.684276
4.497368
4.356012
4.250254
4.172979
4.119008
4.084509
4.066604
4.063173
4.072431
4.093173
4.12444
4.165505
4.215834
4.275053
4.34293
4.419353
4.504329
4.597989
4.700585
4.8125
4.934249
5.067093
5.213142
5.373706
5.548231
5.735239
5.933376
6.141437
6.358231
6.58236
6.812005
7.044749
7.277445
7.50626
7.727188
7.937556
8.138971
8.34122
8.564946
8.841756
9.218099
9.756979
10.54798
11.76693
13.81867
17.87825
29.06464
99.00979
104.9988
35.58783
20.99227
14.14531
10.47275
8.425563
7.161232
6.303235
5.694852
5.251053
4.92142
4.673639
4.486409
4.345251
4.240055
4.163593
4.110599
4.077173
4.060384
4.058053
4.068397
4.090159
4.122349
4.164222
4.215211
4.27492
4.3431
4.419678
4.504659
4.598167
4.700448
4.811883
4.933086
5.065331
5.210576
5.370022
5.543076
5.728336
5.924587
6.130765
6.345788
6.568326
6.79661
7.028248
7.260116
7.488394
7.709083
7.919515
8.121296
8.324196
8.548802
8.826629
9.204183
9.744462
10.53682
11.75723
13.81085
17.87349
29.06744
99.04144
105.9393
35.94699
21.22852
14.29824
10.55257
8.45934
7.175774
6.310115
5.696414
5.249823
4.917909
4.668658
4.480701
4.339394
4.234443
4.158496
4.106192
4.073561
4.057614
4.056086
4.067193
4.089628
4.122359
4.164599
4.215882
4.275805
4.344116
4.420657
4.505437
4.598584
4.700356
4.811146
4.93168
5.063246
5.207609
5.365823
5.537273
5.720676
5.914983
6.119276
6.332567
6.553587
6.780598
7.011233
7.242379
7.470227
7.690779
7.901362
8.103574
8.307163
8.532657
8.811488
9.190226
9.731884
10.52563
11.74764
13.80342
17.86972
29.07081
99.09825
106.8206
36.25326
21.45581
14.45379
10.63877
8.498501
7.195299
6.322055
5.703229
5.252704
4.919089
4.66906
4.48079
4.339274
4.234242
4.158355
4.106195
4.0737
4.057971
4.056704
4.068114
4.090861
4.123911
4.166491
4.217944
4.277877
4.346036
4.422299
4.506669
4.599279
4.700388
4.810393
4.93009
5.060824
5.204245
5.361177
5.530917
5.712368
5.90469
6.10711
6.31872
6.538295
6.764118
6.993838
7.224353
7.451857
7.67235
7.883147
8.08583
8.29012
8.516481
8.796262
9.176096
9.718998
10.51394
11.73722
13.79462
17.86375
29.07343
99.15522
107.6329
36.45538
21.66009
14.60904
10.73135
8.54407
7.220662
6.339648
5.715758
5.261904
4.925647
4.673612
4.483855
4.341587
4.236272
4.160355
4.108358
4.076245
4.060991
4.060022
4.071648
4.094525
4.127604
4.170084
4.221365
4.281028
4.34881
4.424583
4.508353
4.600252
4.700544
4.809635
4.928348
5.058229
5.200755
5.356212
5.524007
5.703427
5.89379
6.094402
6.304404
6.522606
6.747317
6.976198
7.206156
7.433385
7.653878
7.864935
8.068116
8.273115
8.500339
8.781061
9.16197
9.706101
10.50227
11.72695
13.78626
17.85856
29.07548
99.21821
108.491
36.65492
21.85585
14.76693
10.82973
8.594957
7.252129
6.363613
5.73434
5.276673
4.937667
4.683724
4.492689
4.349476
4.243493
4.167136
4.11485
4.082501
4.067044
4.065949
4.077441
4.100143
4.132982
4.175142
4.226021
4.285192
4.352386
4.427474
4.510464
4.60149
4.700823
4.808991
4.92681
5.055655
5.196897
5.350736
5.516645
5.694079
5.882508
6.081339
6.289777
6.506663
6.730322
6.958425
7.187883
7.414888
7.635419
7.846758
8.050439
8.256126
8.484178
8.765813
9.147742
9.692968
10.49019
11.71601
13.77673
17.85128
29.07401
99.25744
109.2963
36.84806
22.04827
14.92835
10.93627
8.656642
7.288988
6.390815
5.757364
5.29629
4.954594
4.698578
4.505962
4.361529
4.254601
4.177507
4.124629
4.09178
4.075818
4.074318
4.085394
4.107652
4.139999
4.181607
4.231862
4.290334
4.356751
4.430985
4.513044
4.603071
4.701348
4.808516
4.92535
5.053019
5.192821
5.344937
5.508924
5.684385
5.870921
6.068027
6.274959
6.490585
6.713248
6.940625
7.169629
7.396445
7.61704
7.828668
8.032834
8.239172
8.468013
8.750601
9.133588
9.679838
10.47814
11.70521
13.76762
17.84484
29.07261
99.2917
110.2346
37.07108
22.24443
15.09436
11.05129
8.727506
7.332254
6.422866
5.785037
5.320527
4.976071
4.717829
4.523411
4.37751
4.269372
4.191263
4.137511
4.103888
4.087193
4.085019
4.095414
4.116975
4.14859
4.18942
4.238841
4.296418
4.361878
4.435092
4.516074
4.604972
4.702188
4.808346
4.924023
5.050327
5.188529
5.338843
5.500914
5.67445
5.859152
6.05459
6.260068
6.474484
6.696195
6.922885
7.151464
7.378113
7.598781
7.810693
8.015322
8.22228
8.451878
8.735358
9.119301
9.666459
10.46569
11.69382
13.75765
17.83723
29.0704
99.3189
111.007
37.26497
22.42926
15.26212
11.17378
8.806546
7.381871
6.460263
5.817634
5.349375
5.001919
4.741224
4.544772
4.397162
4.287567
4.20819
4.153311
4.118656
4.100991
4.097899
4.107372
4.128002
4.158663
4.198504
4.246894
4.303396
4.367733
4.439782
4.51956
4.607283
4.703392
4.808389
4.922751
5.047555
5.184068
5.332545
5.492713
5.664368
5.847292
6.041119
6.245196
6.458447
6.679243
6.905273
7.133446
7.359936
7.580671
7.792849
7.997915
8.205463
8.435788
8.720119
9.104971
9.653007
10.45317
11.68244
13.74787
17.83025
29.07023
99.35442
111.5246
37.41754
22.6252
15.437
11.30486
8.894088
7.438965
6.502977
5.854477
5.382443
5.031841
4.768499
4.569798
4.420252
4.308965
4.228084
4.171838
4.135914
4.117045
4.112806
4.121129
4.140608
4.170104
4.208758
4.255934
4.311192
4.374256
4.445009
4.523515
4.610037
4.704932
4.808599
4.9215
5.044707
5.17948
5.326116
5.484412
5.654239
5.835445
6.027717
6.230441
6.442564
6.662471
6.887856
7.115629
7.34195
7.562732
7.775143
7.980603
8.188694
8.419692
8.704807
9.090484
9.639303
10.44029
11.67052
13.73723
17.82167
29.06593
99.37824
125.0639
37.90945
22.82789
15.61395
11.44217
8.990189
7.50494
6.551103
5.894863
5.419131
5.065357
4.799269
4.598167
4.446502
4.333319
4.250717
4.192882
4.155463
4.135164
4.129559
4.136516
4.154638
4.182774
4.220057
4.26585
4.319711
4.381374
4.450768
4.527985
4.613207
4.70672