/*--------------------------------*- C++ -*----------------------------------*\
| =========                 |                                                 |
| \\      /  F ield         | OpenFOAM: The Open Source CFD Toolbox           |
|  \\    /   O peration     | Version:  2312                                  |
|   \\  /    A nd           | Website:  www.openfoam.com                      |
|    \\/     M anipulation  |                                                 |
\*---------------------------------------------------------------------------*/
FoamFile
{
    version     2.0;
    format      ascii;
    arch        "LSB;label=32;scalar=64";
    class       surfaceScalarField;
    location    "4800";
    object      phi;
}
// * * * * * * * * * * * * * * * * * * * * * * * * * * * * * * * * * * * * * //

dimensions      [1 0 -1 0 0 0 0];

oriented        oriented;

internalField   nonuniform List<scalar> 
23740
(
-0.0001172278
0.0001173112
-0.0002209304
0.0001037022
-0.0003294531
0.0001085222
-0.0004506901
0.0001212366
-0.0005784938
0.0001278032
-0.0006962473
0.000117753
-0.0007935369
9.728903e-05
-0.0008888735
9.533602e-05
-0.0010023
0.0001134256
-0.001114266
0.0001119656
-0.001191579
7.731211e-05
-0.001249402
5.782243e-05
-0.001328565
7.916171e-05
-0.001422665
9.409923e-05
-0.001491926
6.926059e-05
-0.001532731
4.080413e-05
-0.001581107
4.837522e-05
-0.001647594
6.648651e-05
-0.001702501
5.490591e-05
-0.001733399
3.08977e-05
-0.001765561
3.216199e-05
-0.001810528
4.4967e-05
-0.001846505
3.597644e-05
-0.001864764
1.8259e-05
-0.00188573
2.096542e-05
-0.001915824
3.009452e-05
-0.001936439
2.061404e-05
-0.001942885
6.446914e-06
-0.001950307
7.421648e-06
-0.001962178
1.187092e-05
-0.001969215
7.037513e-06
-0.001971495
2.280124e-06
-0.001966313
-5.181456e-06
-0.001955577
-1.073636e-05
-0.001947627
-7.949112e-06
-0.001945458
-2.167819e-06
-0.001940151
-5.30591e-06
-0.001917786
-2.23634e-05
-0.001878559
-3.922658e-05
-0.001851012
-2.754609e-05
-0.001843909
-7.101512e-06
-0.001834598
-9.309464e-06
-0.00179087
-4.372685e-05
-0.00171079
-8.00794e-05
-0.001653636
-5.71532e-05
-0.001639113
-1.452182e-05
-0.001620085
-1.902778e-05
-0.001537291
-8.279423e-05
-0.001425355
-0.000111936
-0.001359144
-6.621217e-05
-0.001319115
-4.002901e-05
-0.001227291
-9.182475e-05
-0.001098394
-0.0001288976
-0.0009882196
-0.0001101748
-0.0008832127
-0.0001050075
-0.0007442503
-0.0001389628
-0.0005823965
-0.0001618541
-0.0003979561
-0.0001844409
-0.0001983576
-0.0001995994
-0.0001983578
-0.0001171152
0.000234426
-0.0002361698
0.0002227564
-0.0003478734
0.0002202253
-0.0004474472
0.0002208099
-0.0005388951
0.0002192506
-0.0006334796
0.0002123369
-0.0007350047
0.0001988134
-0.0008270837
0.0001874142
-0.0008950693
0.0001814103
-0.0009547815
0.0001716769
-0.001033142
0.0001556711
-0.001116585
0.0001412646
-0.001172816
0.0001353915
-0.001208716
0.0001299982
-0.00125783
0.0001183738
-0.00132276
0.000105733
-0.001372698
9.831265e-05
-0.00139918
9.296716e-05
-0.001428998
8.472292e-05
-0.001473031
7.493096e-05
-0.001508897
6.80273e-05
-0.001526687
6.275603e-05
-0.001546499
5.578842e-05
-0.001576305
4.806533e-05
-0.00159776
4.241995e-05
-0.001605239
3.757338e-05
-0.001615675
3.104949e-05
-0.001633113
2.388526e-05
-0.001643918
1.822684e-05
-0.00164586
1.381319e-05
-0.001647289
8.466895e-06
-0.001648538
3.529465e-06
-0.001649059
-4.660211e-06
-0.001649388
-1.04067e-05
-0.001642105
-1.523128e-05
-0.001623615
-2.065665e-05
-0.00160199
-2.692894e-05
-0.001589348
-3.500438e-05
-0.001585616
-4.29559e-05
-0.001564205
-4.89552e-05
-0.001516933
-5.43723e-05
-0.00146468
-6.156012e-05
-0.001437111
-7.129574e-05
-0.00143706
-8.012943e-05
-0.001406712
-8.750077e-05
-0.001325979
-9.525369e-05
-0.001240986
-0.0001040204
-0.001207516
-0.0001162648
-0.001191708
-0.0001277446
-0.001120057
-0.000137864
-0.001011302
-0.0001487844
-0.0009418217
-0.0001613057
-0.0008939728
-0.0001767472
-0.0008137203
-0.0001904279
-0.0007005582
-0.0002181702
-0.0005887702
-0.0002507513
-0.0004761771
-0.0002744478
-0.0003395684
-0.0003210501
-0.0001806093
-0.0003585594
-0.0003789671
-9.636963e-05
0.0003307951
-0.0001920989
0.0003184851
-0.0002849998
0.0003131256
-0.0003708706
0.0003066801
-0.0004488864
0.0002972657
-0.0005211056
0.0002845553
-0.0005925082
0.0002702152
-0.0006628875
0.0002577926
-0.0007293547
0.0002478765
-0.0007916177
0.0002339388
-0.0008547326
0.0002187849
-0.0009161354
0.0002026663
-0.0009669563
0.0001862112
-0.001010201
0.0001732413
-0.001052248
0.0001604198
-0.001094668
0.0001481524
-0.001133418
0.0001370612
-0.001166964
0.0001265128
-0.001198133
0.000115891
-0.001228632
0.0001054294
-0.001256357
9.575211e-05
-0.001280196
8.65948e-05
-0.001301767
7.735941e-05
-0.001321915
6.821313e-05
-0.001339112
5.961601e-05
-0.001352839
5.13008e-05
-0.001364562
4.277245e-05
-0.001374853
3.417632e-05
-0.001382499
2.587282e-05
-0.001386551
1.786503e-05
-0.001388831
1.07479e-05
-0.00138793
2.628765e-06
-0.001385625
-6.964674e-06
-0.001380383
-1.564804e-05
-0.001371505
-2.410774e-05
-0.001359564
-3.259661e-05
-0.001344992
-4.149912e-05
-0.00132896
-5.103488e-05
-0.001310998
-6.091685e-05
-0.001289253
-7.069853e-05
-0.001263085
-8.053842e-05
-0.001233606
-9.103832e-05
-0.001202532
-0.0001023684
-0.001168275
-0.0001143857
-0.001129511
-0.0001262636
-0.001085984
-0.0001387803
-0.001037621
-0.0001523832
-0.0009870446
-0.0001668417
-0.0009326792
-0.0001821104
-0.0008740203
-0.0001965234
-0.000814601
-0.0002082043
-0.0007485704
-0.0002273369
-0.0006740819
-0.0002512362
-0.0005901414
-0.0002743689
-0.0005006107
-0.0003077015
-0.0004157565
-0.000335606
-0.000319461
-0.0003707439
-0.0002265008
-0.0004140109
-0.0001186508
-0.0004664101
-0.0004976181
-7.794516e-05
0.0004087397
-0.0001521524
0.0003926917
-0.0002236556
0.0003846283
-0.0002913815
0.0003744054
-0.0003553903
0.0003612738
-0.0004164242
0.0003455886
-0.0004748604
0.0003286507
-0.0005290285
0.0003119601
-0.0005775625
0.0002964099
-0.0006242307
0.0002806064
-0.0006718142
0.0002663677
-0.0007205816
0.0002514328
-0.0007682589
0.0002338876
-0.0008110887
0.0002160703
-0.0008507613
0.0002000917
-0.0008888479
0.0001862384
-0.0009245485
0.0001727612
-0.0009568716
0.0001588353
-0.0009865524
0.0001455714
-0.00101395
0.0001328266
-0.001038794
0.0001205957
-0.001060975
0.0001087757
-0.00108084
9.722381e-05
-0.001098525
8.589861e-05
-0.001113729
7.481932e-05
-0.001126357
6.392906e-05
-0.001136712
5.312717e-05
-0.001144918
4.238231e-05
-0.001150776
3.17307e-05
-0.001155157
2.22465e-05
-0.001156675
1.2266e-05
-0.00115488
8.342319e-07
-0.001151569
-1.027518e-05
-0.001145996
-2.121998e-05
-0.001137877
-3.222579e-05
-0.001127173
-4.329968e-05
-0.001113888
-5.478321e-05
-0.001098298
-6.662354e-05
-0.001080412
-7.880126e-05
-0.001059802
-9.130708e-05
-0.001036137
-0.0001042024
-0.001009577
-0.0001175976
-0.000980369
-0.000131575
-0.000948464
-0.00014629
-0.0009147317
-0.0001599953
-0.0008769914
-0.0001765204
-0.0008357807
-0.0001935937
-0.0007915793
-0.0002110431
-0.0007458523
-0.0002278376
-0.0006967993
-0.0002455766
-0.000639816
-0.000265188
-0.0005742233
-0.0002929299
-0.0005066765
-0.0003187834
-0.0004355932
-0.0003454526
-0.0003695883
-0.0003737067
-0.000300057
-0.0004051377
-0.0002286967
-0.0004421046
-0.000156
-0.0004867081
-8.13289e-05
-0.0005410819
-0.000578947
-6.341125e-05
0.0004721502
-0.0001246248
0.0004539047
-0.0001824115
0.0004424144
-0.0002373631
0.0004293564
-0.0002899396
0.0004138498
-0.0003407421
0.0003963906
-0.0003898119
0.00037772
-0.0004364538
0.0003586015
-0.0004794458
0.0003394012
-0.0005187286
0.0003198887
-0.0005547224
0.0003023609
-0.0005889482
0.0002856581
-0.0006249658
0.0002699046
-0.0006615803
0.0002526842
-0.0006954185
0.0002339294
-0.0007268028
0.0002176223
-0.0007562478
0.0002022057
-0.0007836706
0.0001862578
-0.0008088836
0.0001707841
-0.0008319562
0.000155899
-0.0008528882
0.0001415275
-0.0008716725
0.0001275598
-0.0008883612
0.0001139124
-0.000902994
0.0001005313
-0.000915557
8.738223e-05
-0.0009260507
7.442274e-05
-0.0009345274
6.160387e-05
-0.0009410358
4.889077e-05
-0.0009455435
3.623844e-05
-0.0009481201
2.482336e-05
-0.0009477051
1.185131e-05
-0.0009459174
-9.530612e-07
-0.0009422929
-1.389903e-05
-0.000936579
-2.693318e-05
-0.0009286547
-4.01493e-05
-0.0009195557
-5.239777e-05
-0.0009079675
-6.637042e-05
-0.0008940969
-8.049308e-05
-0.0008780337
-9.486338e-05
-0.0008597505
-0.0001095892
-0.0008391984
-0.0001247536
-0.0008163508
-0.0001404442
-0.0007911703
-0.0001567548
-0.0007638154
-0.0001736443
-0.0007338776
-0.0001899327
-0.0007012884
-0.0002091092
-0.000666944
-0.0002279378
-0.0006315325
-0.0002464546
-0.0005928014
-0.0002665687
-0.0005483282
-0.0002900498
-0.0004971986
-0.0003163178
-0.0004476001
-0.0003425286
-0.0003974341
-0.0003689496
-0.000345833
-0.000397054
-0.0002918473
-0.0004276926
-0.0002353587
-0.0004616266
-0.000177476
-0.0004999876
-0.000119438
-0.0005447465
-6.136899e-05
-0.0005991515
-0.0006403161
-4.992982e-05
0.0005220791
-9.852969e-05
0.0005025037
-0.0001439609
0.0004878448
-0.0001869938
0.0004723887
-0.0002281033
0.0004549586
-0.0002677028
0.0004359896
-0.0003060814
0.000416098
-0.0003432584
0.0003957779
-0.0003792454
0.0003753877
-0.0004143809
0.0003550236
-0.0004472179
0.0003351974
-0.0004774433
0.0003158829
-0.0005043962
0.000296857
-0.0005314028
0.0002796904
-0.0005594221
0.0002619482
-0.0005850926
0.0002432924
-0.0006084375
0.0002255503
-0.0006304436
0.0002082635
-0.0006510303
0.0001913705
-0.0006700254
0.0001748938
-0.0006873193
0.0001588212
-0.0007028682
0.0001431085
-0.0007166676
0.0001277116
-0.0007287257
0.0001125893
-0.0007390483
9.770479e-05
-0.0007476469
8.302129e-05
-0.0007545456
6.850261e-05
-0.0007597675
5.411276e-05
-0.0007633387
3.980987e-05
-0.0007641371
2.562195e-05
-0.0007635762
1.129074e-05
-0.0007624069
-2.121943e-06
-0.0007593683
-1.693707e-05
-0.0007545077
-3.179317e-05
-0.0007479094
-4.674693e-05
-0.0007395038
-6.080263e-05
-0.000729274
-7.659936e-05
-0.000717285
-9.24812e-05
-0.0007035117
-0.0001086358
-0.0006879301
-0.0001251699
-0.0006705164
-0.0001421663
-0.0006512673
-0.0001596927
-0.0006302172
-0.0001778042
-0.0006073243
-0.0001965366
-0.0005812528
-0.0002160038
-0.0005547871
-0.0002355746
-0.0005269782
-0.0002557465
-0.0004956992
-0.0002777334
-0.0004598778
-0.0003023901
-0.0004220898
-0.0003278378
-0.0003843505
-0.0003540571
-0.0003458062
-0.0003810729
-0.0003054213
-0.0004093346
-0.0002631858
-0.0004392896
-0.0002195693
-0.0004713093
-0.0001751837
-0.0005060124
-0.0001306974
-0.0005444741
-8.675089e-05
-0.0005886933
-4.40457e-05
-0.0006418571
-0.0006843618
-3.924101e-05
0.000561319
-7.774574e-05
0.0005410074
-0.0001134597
0.0005235579
-0.0001471246
0.000506053
-0.0001792311
0.0004870644
-0.0002101157
0.0004668736
-0.000239982
0.0004459638
-0.0002689127
0.0004247082
-0.0002969246
0.0004033991
-0.0003241076
0.0003822062
-0.0003502554
0.0003613447
-0.0003752259
0.000340853
-0.0003990114
0.0003206421
-0.000420136
0.0003008146
-0.0004407886
0.0002826004
-0.0004616257
0.0002641292
-0.0004810075
0.0002449318
-0.0004990086
0.0002262644
-0.0005156594
0.0002080211
-0.0005309466
0.0001901807
-0.0005448373
0.0001727118
-0.0005573111
0.0001555822
-0.0005683582
0.0001387586
-0.0005779765
0.0001222076
-0.0005861667
0.000105895
-0.000592931
8.97856e-05
-0.0005982708
7.384243e-05
-0.0006021836
5.802571e-05
-0.0006046655
4.229201e-05
-0.0006056482
2.660484e-05
-0.0006052241
1.086702e-05
-0.0006042264
-3.119301e-06
-0.0006017726
-1.939043e-05
-0.000597962
-3.56032e-05
-0.0005928425
-5.186582e-05
-0.0005853855
-6.825897e-05
-0.0005769386
-8.504552e-05
-0.0005672633
-0.0001021558
-0.0005562398
-0.0001196586
-0.000543798
-0.000137611
-0.000529888
-0.0001560756
-0.0005144695
-0.0001751105
-0.0004975215
-0.0001947515
-0.0004789413
-0.0002151163
-0.0004593612
-0.0002355835
-0.0004379915
-0.0002569439
-0.0004135369
-0.0002802008
-0.000386241
-0.0003050291
-0.0003581887
-0.0003304422
-0.00032942
-0.0003566064
-0.0002997314
-0.0003837457
-0.0002688517
-0.0004119526
-0.0002367996
-0.0004413867
-0.0002037935
-0.0004722957
-0.0001700581
-0.0005050448
-0.0001358582
-0.0005402124
-0.0001015367
-0.0005787958
-6.752578e-05
-0.0006227045
-3.42194e-05
-0.0006751637
-0.0007185812
-3.048464e-05
0.0005918025
-6.014087e-05
0.0005706627
-8.72737e-05
0.0005506899
-0.0001127264
0.000531505
-0.0001370538
0.0005113911
-0.0001605813
0.0004904006
-0.0001834783
0.0004688604
-0.0002058143
0.0004470438
-0.0002275852
0.0004251695
-0.0002487614
0.000403382
-0.0002692153
0.0003817982
-0.0002888403
0.0003604777
-0.0003076408
0.0003394422
-0.0003255406
0.000318714
-0.0003412611
0.0002983207
-0.0003563563
0.0002792242
-0.0003714742
0.0002600495
-0.0003855797
0.0002403696
-0.0003986591
0.0002211004
-0.0004106733
0.0002021947
-0.0004215969
0.0001836353
-0.0004314109
0.0001653961
-0.0004401047
0.0001474523
-0.0004476745
0.0001297773
-0.0004541221
0.0001123427
-0.0004594534
9.511701e-05
-0.0004636771
7.806619e-05
-0.0004668043
6.115303e-05
-0.0004688486
4.433647e-05
-0.0004698173
2.757382e-05
-0.0004697668
1.081672e-05
-0.0004684279
-4.457847e-06
-0.0004661934
-2.162455e-05
-0.0004629649
-3.883127e-05
-0.000458674
-5.615624e-05
-0.0004532612
-7.367122e-05
-0.0004468074
-9.149875e-05
-0.000439283
-0.0001096796
-0.0004306614
-0.0001282797
-0.0004209113
-0.0001473605
-0.0004100049
-0.0001669815
-0.0003979242
-0.0001871907
-0.0003846292
-0.0002080461
-0.0003703602
-0.0002293849
-0.0003543798
-0.0002515635
-0.0003359488
-0.0002753746
-0.0003161335
-0.0003000158
-0.0002956852
-0.0003254772
-0.0002743943
-0.0003517329
-0.0002521278
-0.0003788727
-0.0002289211
-0.0004069523
-0.0002048245
-0.000436049
-0.0001799222
-0.000466289
-0.0001543459
-0.000497872
-0.0001282776
-0.000531113
-0.0001019521
-0.0005665379
-7.566922e-05
-0.0006050787
-4.984486e-05
-0.0006485289
-2.504056e-05
-0.0006999681
-0.0007436218
-2.339768e-05
0.0006151991
-4.577746e-05
0.0005930415
-6.595356e-05
0.0005708652
-8.475631e-05
0.0005503071
-0.0001026955
0.0005293298
-0.0001200521
0.0005077566
-0.0001369704
0.0004857782
-0.0001535141
0.0004635871
-0.0001696883
0.0004413433
-0.000185471
0.0004191644
-0.0002008096
0.0003971365
-0.0002156461
0.0003753139
-0.0002299325
0.0003537283
-0.0002436196
0.0003324009
-0.0002566429
0.0003113437
-0.0002680001
0.0002905812
-0.000278778
0.0002708272
-0.000289518
0.0002511094
-0.0002995018
0.0002310841
-0.0003086961
0.0002113889
-0.0003170621
0.0001920012
-0.0003245791
0.0001729131
-0.0003312371
0.0001541103
-0.0003370345
0.0001355748
-0.000341976
0.0001172842
-0.0003460707
9.921176e-05
-0.0003493305
8.132605e-05
-0.0003517688
6.359146e-05
-0.0003534001
4.596793e-05
-0.0003542379
2.841179e-05
-0.0003542977
1.087675e-05
-0.0003532593
-5.495943e-06
-0.0003515633
-2.332022e-05
-0.000349154
-4.124025e-05
-0.0003459891
-5.93208e-05
-0.0003420308
-7.762908e-05
-0.0003372896
-9.623956e-05
-0.0003317507
-0.0001152181
-0.0003253969
-0.000134633
-0.0003182069
-0.0001545501
-0.000310155
-0.0001750329
-0.0003012057
-0.0001961396
-0.0002913356
-0.0002179157
-0.0002802343
-0.0002404858
-0.0002675343
-0.0002642631
-0.0002540589
-0.0002888497
-0.0002398039
-0.0003142706
-0.0002247092
-0.0003405717
-0.0002087057
-0.0003677361
-0.0001918107
-0.0003957676
-0.0001740823
-0.0004246806
-0.0001556127
-0.0004545185
-0.0001365248
-0.0004853768
-0.0001169688
-0.0005174279
-9.711671e-05
-0.000550965
-7.716051e-05
-0.000586494
-5.731619e-05
-0.000624923
-3.783951e-05
-0.0006680055
-1.903037e-05
-0.0007187772
-0.0007626521
-1.774575e-05
0.0006329439
-3.421044e-05
0.0006095054
-4.858999e-05
0.0005852441
-6.169831e-05
0.0005634149
-7.4107e-05
0.000541738
-8.61401e-05
0.0005197892
-9.79623e-05
0.0004976
-0.0001096425
0.0004752668
-0.0001211841
0.0004528846
-0.0001325513
0.0004305312
-0.0001436843
0.0004082692
-0.0001545179
0.0003861471
-0.000164993
0.0003642031
-0.0001750579
0.0003424656
-0.0001846686
0.0003209542
-0.0001937673
0.0002996797
-0.0002016074
0.0002786671
-0.0002089269
0.0002584288
-0.0002161594
0.0002383165
-0.0002228599
0.0002180893
-0.0002290096
0.0001981508
-0.0002345567
0.0001784602
-0.0002394842
0.0001590377
-0.0002437874
0.000139878
-0.0002474718
0.0001209686
-0.0002505487
0.0001022887
-0.0002530322
8.380966e-05
-0.0002549366
6.549589e-05
-0.000256275
4.730648e-05
-0.0002570593
2.919622e-05
-0.0002572991
1.111676e-05
-0.0002566787
-6.116157e-06
-0.0002556035
-2.439528e-05
-0.0002540481
-4.279538e-05
-0.000251991
-6.137766e-05
-0.0002494137
-8.02061e-05
-0.0002463035
-9.934945e-05
-0.0002426441
-0.0001188772
-0.0002384154
-0.0001388614
-0.0002335889
-0.0001593762
-0.000228123
-0.0001804985
-0.000221948
-0.0002023143
-0.0002149414
-0.0002249221
-0.0002069593
-0.0002484676
-0.0001982546
-0.0002729676
-0.0001887718
-0.0002983323
-0.0001784603
-0.0003245819
-0.0001673137
-0.0003517181
-0.0001553421
-0.0003797076
-0.000142602
-0.0004085076
-0.0001291891
-0.0004380933
-0.0001152173
-0.0004684901
-0.0001008132
-0.0004997808
-8.611181e-05
-0.0005321292
-7.1251e-05
-0.0005658258
-5.637536e-05
-0.0006013696
-4.164822e-05
-0.0006396501
-2.728648e-05
-0.0006823671
-1.361345e-05
-0.00073245
-0.0007762655
-1.241292e-05
0.0006453561
-2.365726e-05
0.0006207491
-3.316384e-05
0.0005947502
-4.174772e-05
0.0005719983
-4.988557e-05
0.0005498754
-5.781042e-05
0.0005277137
-6.562124e-05
0.0005054104
-7.33454e-05
0.0004829906
-8.097317e-05
0.000460512
-8.848385e-05
0.0004380416
-9.58739e-05
0.000415659
-0.0001031715
0.0003934445
-0.0001103795
0.0003714109
-0.0001174514
0.0003495372
-0.0001243174
0.0003278201
-0.0001309004
0.0003062625
-0.0001371088
0.0002848755
-0.0001423772
0.000263697
-0.0001471644
0.0002431037
-0.0001517655
0.0002226903
-0.0001559358
0.0002023211
-0.0001596781
0.0001822025
-0.0001629841
0.0001623436
-0.0001658644
0.0001427583
-0.0001683482
0.0001234524
-0.0001704665
0.0001044071
-0.0001722385
8.558169e-05
-0.0001736758
6.693325e-05
-0.0001747844
4.84151e-05
-0.0001755678
2.997978e-05
-0.0001760271
1.157609e-05
-0.0001758727
-6.270397e-06
-0.000175439
-2.482881e-05
-0.0001747068
-4.352738e-05
-0.0001736574
-6.24269e-05
-0.0001722712
-8.159212e-05
-0.0001705284
-0.0001010921
-0.0001684064
-0.0001209989
-0.0001658792
-0.0001413884
-0.0001629157
-0.0001623395
-0.0001594794
-0.0001839346
-0.0001555337
-0.0002062597
-0.0001510575
-0.0002293982
-0.0001460686
-0.0002534564
-0.0001405662
-0.0002784698
-0.0001344668
-0.0003044315
-0.000127636
-0.0003314126
-0.0001200013
-0.0003593526
-0.0001115657
-0.000388143
-0.0001024147
-0.0004176584
-9.268942e-05
-0.0004478185
-8.253213e-05
-0.0004786473
-7.207645e-05
-0.0005102364
-6.144669e-05
-0.0005427589
-5.075781e-05
-0.0005765145
-4.011967e-05
-0.0006120076
-2.964415e-05
-0.0006501254
-1.945901e-05
-0.000692552
-9.736547e-06
-0.0007421722
-0.000786002
-9.66381e-06
0.0006550195
-1.782395e-05
0.0006289089
-2.406089e-05
0.0006009868
-2.907252e-05
0.0005770096
-3.348364e-05
0.0005542862
-3.762068e-05
0.0005318504
-4.16697e-05
0.0005094591
-4.573912e-05
0.0004870598
-4.988765e-05
0.0004646603
-5.412931e-05
0.0004422829
-5.846e-05
0.0004199894
-6.282744e-05
0.0003978117
-6.716258e-05
0.0003757458
-7.142957e-05
0.000353804
-7.559979e-05
0.0003319901
-7.96492e-05
0.0003103117
-8.351563e-05
0.0002887418
-8.70794e-05
0.0002672606
-8.996267e-05
0.0002459869
-9.240683e-05
0.0002251343
-9.466682e-05
0.000204581
-9.679654e-05
0.0001843321
-9.880494e-05
0.000164352
-0.000100663
0.0001446163
-0.0001023428
0.0001251321
-0.0001038393
0.0001059036
-0.000105161
8.690343e-05
-0.0001063195
6.809183e-05
-0.0001073237
4.941933e-05
-0.0001081823
3.08384e-05
-0.0001089007
1.229452e-05
-0.0001092314
-5.939601e-06
-0.0001094405
-2.46196e-05
-0.0001095055
-4.346226e-05
-0.0001094057
-6.252664e-05
-0.0001091206
-8.187706e-05
-0.0001086274
-0.0001015852
-0.0001079015
-0.0001217247
-0.0001069173
-0.0001423725
-0.0001056477
-0.000163609
-0.0001040643
-0.0001855179
-0.0001021425
-0.0002081813
-9.985617e-05
-0.0002316844
-9.727517e-05
-0.0002560373
-9.442688e-05
-0.0002813179
-9.109445e-05
-0.0003077638
-8.708541e-05
-0.0003354215
-8.227917e-05
-0.0003641588
-7.660592e-05
-0.0003938161
-7.024254e-05
-0.0004240217
-6.34347e-05
-0.0004546262
-5.633931e-05
-0.0004857426
-4.907194e-05
-0.0005175036
-4.172179e-05
-0.0005501089
-3.436405e-05
-0.0005838721
-2.706778e-05
-0.0006193037
-1.990413e-05
-0.0006572889
-1.296753e-05
-0.0006994884
-6.421876e-06
-0.0007487176
-0.0007924239
-5.164126e-06
0.0006601834
-8.490927e-06
0.0006322355
-9.830124e-06
0.0006023258
-1.042263e-05
0.0005776019
-1.078215e-05
0.0005546455
-1.12222e-05
0.0005322902
-1.192775e-05
0.0005101644
-1.299912e-05
0.0004881308
-1.447515e-05
0.000466136
-1.63559e-05
0.0004441634
-1.847298e-05
0.0004221062
-2.071577e-05
0.0004000543
-2.311218e-05
0.000378142
-2.568626e-05
0.0003563778
-2.833088e-05
0.0003346345
-3.085569e-05
0.0003128364
-3.309957e-05
0.0002909855
-3.499713e-05
0.000269158
-3.654578e-05
0.0002475354
-3.783598e-05
0.0002264245
-3.913139e-05
0.0002058763
-4.04948e-05
0.0001856955
-4.192368e-05
0.0001657808
-4.340038e-05
0.000146093
-4.486266e-05
0.0001265944
-4.626748e-05
0.0001073084
-4.76618e-05
8.829775e-05
-4.904936e-05
6.94794e-05
-5.040429e-05
5.077429e-05
-5.172168e-05
3.215582e-05
-5.300497e-05
1.357786e-05
-5.406228e-05
-4.88225e-06
-5.511508e-05
-2.356674e-05
-5.614324e-05
-4.243404e-05
-5.712178e-05
-6.154803e-05
-5.803622e-05
-8.096255e-05
-5.887064e-05
-0.0001007507
-5.961006e-05
-0.0001209852
-6.023866e-05
-0.0001417438
-6.07378e-05
-0.0001631098
-6.108116e-05
-0.0001851744
-6.123251e-05
-0.0002080299
-6.11663e-05
-0.0002317505
-6.074404e-05
-0.0002564595
-5.970936e-05
-0.0002823525
-5.806118e-05
-0.000309412
-5.587309e-05
-0.0003376095
-5.292917e-05
-0.0003671026
-4.91977e-05
-0.0003975475
-4.490357e-05
-0.0004283158
-4.034346e-05
-0.0004591862
-3.56874e-05
-0.0004903986
-3.098626e-05
-0.0005222047
-2.627856e-05
-0.0005548165
-2.160074e-05
-0.0005885499
-1.699113e-05
-0.0006239132
-1.249172e-05
-0.0006617882
-8.154895e-06
-0.000703825
-4.064958e-06
-0.0007528072
-0.0007964888
-3.445749e-06
0.0006636292
-4.643083e-06
0.0006334328
-4.191303e-06
0.0006018739
-2.995453e-06
0.000576406
-1.377298e-06
0.0005530272
4.363962e-07
0.0005304763
2.351716e-06
0.0005082489
4.317695e-06
0.0004861646
6.284449e-06
0.000464169
8.168834e-06
0.0004422788
9.631565e-06
0.0004206432
1.039891e-05
0.0003992867
1.041468e-05
0.000378126
9.738786e-06
0.0003570535
8.570586e-06
0.0003358025
7.245157e-06
0.0003141616
5.891123e-06
0.0002923394
4.462496e-06
0.0002705865
2.971683e-06
0.0002490261
1.621015e-06
0.000227775
5.677465e-07
0.0002069295
-2.192787e-07
0.0001864824
-8.0989e-07
0.0001663714
-1.294211e-06
0.0001465773
-1.842198e-06
0.0001271423
-2.573292e-06
0.0001080395
-3.480073e-06
8.920451e-05
-4.546771e-06
7.054609e-05
-5.759103e-06
5.198662e-05
-7.117886e-06
3.351461e-05
-8.613941e-06
1.507392e-05
-1.011098e-05
-3.385195e-06
-1.17479e-05
-2.19298e-05
-1.347106e-05
-4.071085e-05
-1.524916e-05
-5.97699e-05
-1.704942e-05
-7.916225e-05
-1.885542e-05
-9.894467e-05
-2.065545e-05
-0.0001191851
-2.244512e-05
-0.0001399541
-2.423049e-05
-0.0001613244
-2.600081e-05
-0.0001834041
-2.770566e-05
-0.000206325
-2.92615e-05
-0.0002301947
-3.055276e-05
-0.0002551682
-3.146832e-05
-0.0002814369
-3.177957e-05
-0.0003091007
-3.122244e-05
-0.0003381666
-2.991284e-05
-0.0003684122
-2.807547e-05
-0.0003993849
-2.570912e-05
-0.0004306821
-2.2962e-05
-0.0004619333
-2.014394e-05
-0.0004932166
-1.737845e-05
-0.0005249701
-1.466231e-05
-0.0005575326
-1.199447e-05
-0.0005912176
-9.386204e-06
-0.0006265214
-6.850816e-06
-0.0006643235
-4.421205e-06
-0.0007062544
-2.167847e-06
-0.0007550603
-0.0007986566
-1.942132e-06
0.0006655715
-1.417915e-06
0.0006329088
6.128195e-07
0.0005998433
3.729346e-06
0.0005732894
7.301626e-06
0.0005494549
1.104727e-05
0.0005267305
1.479048e-05
0.0005045055
1.840439e-05
0.0004825505
2.176836e-05
0.0004608048
2.476422e-05
0.0004392826
2.739839e-05
0.0004180088
2.972483e-05
0.00039696
3.168065e-05
0.0003761699
3.337431e-05
0.0003553597
3.489361e-05
0.000334283
3.598538e-05
0.0003130697
3.647263e-05
0.000291852
3.642793e-05
0.0002706311
3.596307e-05
0.0002494908
3.530224e-05
0.0002284357
3.462012e-05
0.0002076116
3.396002e-05
0.0001871424
3.329685e-05
0.0001670345
3.258484e-05
0.0001472893
3.182278e-05
0.0001279043
3.1004e-05
0.0001088582
3.011813e-05
9.009036e-05
2.914113e-05
7.152307e-05
2.802989e-05
5.309784e-05
2.676276e-05
3.478174e-05
2.531446e-05
1.652223e-05
2.365417e-05
-1.724901e-06
2.164944e-05
-1.992506e-05
1.94465e-05
-3.85079e-05
1.709076e-05
-5.741414e-05
1.461147e-05
-7.668294e-05
1.202955e-05
-9.636272e-05
9.362203e-06
-0.0001165177
6.627755e-06
-0.0001372197
3.847975e-06
-0.0001585446
1.051643e-06
-0.0001806077
-1.714473e-06
-0.0002035589
-4.370896e-06
-0.0002275382
-6.841107e-06
-0.0002526979
-9.063539e-06
-0.0002792145
-1.092033e-05
-0.0003072439
-1.228456e-05
-0.0003368024
-1.300127e-05
-0.0003676954
-1.288059e-05
-0.0003995055
-1.198694e-05
-0.0004315757
-1.062154e-05
-0.0004632987
-9.16172e-06
-0.0004946764
-7.781677e-06
-0.0005263501
-6.464936e-06
-0.0005588493
-5.198508e-06
-0.000592484
-3.983529e-06
-0.0006277363
-2.83647e-06
-0.0006654704
-1.790343e-06
-0.0007073003
-8.863253e-07
-0.0007559641
-0.0007995429
-7.876292e-07
0.0006663595
9.087537e-07
0.0006312127
4.690521e-06
0.0005960617
9.512628e-06
0.0005684674
1.477045e-05
0.000544197
2.013312e-05
0.0005213678
2.538625e-05
0.0004992521
3.038383e-05
0.0004775526
3.503341e-05
0.0004561549
3.929346e-05
0.0004350223
4.315812e-05
0.0004141439
4.656202e-05
0.0003935558
4.951845e-05
0.0003732132
5.205362e-05
0.0003528242
5.41327e-05
0.0003322037
5.579497e-05
0.0003114072
5.721113e-05
0.0002904356
5.843108e-05
0.000269411
5.946128e-05
0.0002484605
6.015696e-05
0.0002277399
6.048555e-05
0.0002072829
6.053737e-05
0.0001870905
6.032698e-05
0.0001672448
5.986866e-05
0.0001477475
5.919081e-05
0.0001285821
5.832188e-05
0.0001097271
5.726713e-05
9.114508e-05
5.601906e-05
7.277111e-05
5.457952e-05
5.453736e-05
5.296652e-05
3.639472e-05
5.116855e-05
1.832019e-05
4.910401e-05
3.396259e-07
4.661807e-05
-1.743913e-05
4.382848e-05
-3.57183e-05
4.081245e-05
-5.439812e-05
3.760611e-05
-7.34766e-05
3.423738e-05
-9.299399e-05
3.073244e-05
-0.0001130128
2.712653e-05
-0.0001336138
2.347544e-05
-0.0001548935
1.983773e-05
-0.00017697
1.626199e-05
-0.0001999832
1.280933e-05
-0.0002240856
9.552473e-06
-0.0002494411
6.550974e-06
-0.000276213
3.833664e-06
-0.0003045266
1.447904e-06
-0.0003344166
-4.913329e-07
-0.0003657562
-1.864897e-06
-0.000398132
-2.593696e-06
-0.0004308469
-2.741266e-06
-0.0004631511
-2.587068e-06
-0.0004948305
-2.343012e-06
-0.0005265941
-2.007198e-06
-0.0005591851
-1.616717e-06
-0.0005928744
-1.219651e-06
-0.0006281333
-8.523099e-07
-0.0006658376
-5.287417e-07
-0.0007076238
-2.608653e-07
-0.0007562317
-0.0007998037
-9.835982e-08
0.0006664583
2.794305e-06
0.0006283204
7.725019e-06
0.0005911312
1.367653e-05
0.000562516
2.011482e-05
0.0005377587
2.669551e-05
0.000514787
3.319511e-05
0.0004927524
3.946163e-05
0.0004712859
4.538807e-05
0.0004502282
5.089379e-05
0.0004295163
5.590504e-05
0.0004091324
6.037197e-05
0.0003890886
6.42802e-05
0.0003693047
6.762251e-05
0.0003494817
7.044284e-05
0.0003293832
7.285621e-05
0.0003089936
7.490036e-05
0.0002883913
7.659018e-05
0.000267721
7.792247e-05
0.0002471281
7.894342e-05
0.0002267189
7.967594e-05
0.0002065502
8.004215e-05
0.0001867242
8.004909e-05
0.0001672378
7.970815e-05
0.0001480884
7.90249e-05
0.0001292653
7.801182e-05
0.0001107402
7.669172e-05
9.246514e-05
7.508581e-05
7.437699e-05
7.321286e-05
5.641028e-05
7.109356e-05
3.8514e-05
6.873936e-05
2.067437e-05
6.612169e-05
2.957283e-06
6.313403e-05
-1.445149e-05
5.979419e-05
-3.237847e-05
5.618087e-05
-5.078481e-05
5.236258e-05
-6.965831e-05
4.838852e-05
-8.901995e-05
4.430115e-05
-0.0001089254
4.014471e-05
-0.0001294573
3.597116e-05
-0.00015072
3.184006e-05
-0.0001728389
2.781555e-05
-0.0001959587
2.396591e-05
-0.0002202359
2.035882e-05
-0.000245834
1.705515e-05
-0.0002729094
1.410588e-05
-0.0003015774
1.154315e-05
-0.0003318539
9.369038e-06
-0.0003635821
7.598877e-06
-0.0003963618
6.285789e-06
-0.0004295339
5.445404e-06
-0.0004623108
4.867811e-06
-0.000494253
4.309125e-06
-0.0005260355
3.694283e-06
-0.0005585702
3.039228e-06
-0.0005922193
2.384964e-06
-0.0006274789
1.747969e-06
-0.0006652006
1.123828e-06
-0.0007069994
5.157721e-07
-0.0007556234
-0.0007992879
3.437594e-07
0.0006661151
3.933222e-06
0.0006247314
9.611214e-06
0.0005854535
1.637977e-05
0.0005557476
2.366635e-05
0.0005304721
3.111099e-05
0.0005073422
3.847823e-05
0.000485385
4.560559e-05
0.0004641583
5.237984e-05
0.0004434537
5.872175e-05
0.0004231741
6.457638e-05
0.0004032774
6.991636e-05
0.0003837484
7.473616e-05
0.0003644847
7.902617e-05
0.0003451914
8.277804e-05
0.0003256311
8.598258e-05
0.0003057888
8.863117e-05
0.0002857425
9.074063e-05
0.0002656113
9.235234e-05
0.0002455162
9.35051e-05
0.000225566
9.417008e-05
0.0002058851
9.437241e-05
0.0001865218
9.414589e-05
0.0001674642
9.35061e-05
0.0001487281
9.247173e-05
0.0001302996
9.106516e-05
0.0001121467
8.931155e-05
9.42187e-05
8.72362e-05
7.64523e-05
8.486392e-05
5.878253e-05
8.221798e-05
4.115991e-05
7.931896e-05
2.357337e-05
7.619592e-05
6.080302e-06
7.292374e-05
-1.117933e-05
6.91766e-05
-2.863134e-05
6.513939e-05
-4.674762e-05
6.091584e-05
-6.543478e-05
5.656782e-05
-8.467195e-05
5.214432e-05
-0.0001045019
4.769462e-05
-0.0001250076
4.327234e-05
-0.0001462977
3.893363e-05
-0.0001685002
3.473436e-05
-0.0001917594
3.072918e-05
-0.0002162308
2.696888e-05
-0.0002420738
2.349588e-05
-0.0002694364
2.034366e-05
-0.0002984252
1.754236e-05
-0.0003290527
1.512332e-05
-0.0003611631
1.310901e-05
-0.0003943476
1.148746e-05
-0.0004279124
1.020827e-05
-0.0004610316
9.160565e-06
-0.0004932053
8.165326e-06
-0.0005250402
7.11815e-06
-0.000557523
6.027788e-06
-0.0005911289
4.901472e-06
-0.0006263526
3.738933e-06
-0.0006640379
2.526239e-06
-0.0007057866
1.24901e-06
-0.000754346
-0.0007980389
5.029621e-07
0.0006656127
4.465778e-06
0.000620769
1.059427e-05
0.0005793253
1.786874e-05
0.0005484733
2.569447e-05
0.0005226464
3.369749e-05
0.0004993391
4.163e-05
0.0004774523
4.932257e-05
0.0004564655
5.665872e-05
0.0004361173
6.356185e-05