/*--------------------------------*- C++ -*----------------------------------*\
| =========                 |                                                 |
| \\      /  F ield         | OpenFOAM: The Open Source CFD Toolbox           |
|  \\    /   O peration     | Version:  2312                                  |
|   \\  /    A nd           | Website:  www.openfoam.com                      |
|    \\/     M anipulation  |                                                 |
\*---------------------------------------------------------------------------*/
FoamFile
{
    version     2.0;
    format      ascii;
    arch        "LSB;label=32;scalar=64";
    class       volScalarField;
    location    "4800";
    object      qin;
}
// * * * * * * * * * * * * * * * * * * * * * * * * * * * * * * * * * * * * * //

dimensions      [1 0 -3 0 0 0 0];

internalField   uniform 0;

boundaryField
{
    plate
    {
        type            calculated;
        value           nonuniform List<scalar> 
200
(
2348.111
2296.607
2266.627
2242.58
2217.518
2197.591
2191.393
2199.023
2212.692
2225.721
2234.585
2235.657
2226.949
2212.244
2198.756
2191.33
2191.679
2201.031
2219.499
2243.22
2264.837
2277.797
2280.518
2277.71
2277.634
2285.887
2300.912
2316.855
2330.268
2341.396
2349.65
2352.307
2349.164
2344.654
2342.748
2342.752
2343.342
2347.72
2359.829
2376.86
2390.523
2395.402
2392.451
2385.549
2378.517
2374.74
2376.126
2381.749
2388.593
2393.641
2395.723
2396.734
2400.61
2409.085
2418.658
2423.789
2422.603
2417.271
2410.053
2402.46
2397.574
2398.907
2406.108
2414.698
2420.494
2422.094
2419.553
2413.591
2406.565
2402.161
2403.116
2409.599
2419.389
2428.854
2434.178
2432.938
2425.345
2414.1
2402.997
2395.29
2392.503
2393.853
2396.659
2397.927
2396.289
2392.799
2389.978
2389.927
2392.99
2397.715
2401.874
2403.757
2403.04
2400.864
2399.16
2399.609
2402.819
2408.136
2414.125
2419.362
2423.047
2425.157
2426.139
2426.446
2426.207
2425.216
2423.202
2420.17
2416.582
2413.266
2411.073
2410.5
2411.47
2413.393
2415.46
2417.028
2417.873
2418.223
2418.574
2419.402
2420.935
2423.076
2425.494
2427.809
2429.757
2431.277
2432.472
2433.509
2434.5
2435.445
2436.241
2436.758
2436.924
2436.777
2436.457
2436.146
2435.971
2435.938
2435.909
2435.663
2435.015
2433.945
2432.685
2431.701
2431.557
2432.688
2435.163
2438.545
2441.924
2444.143
2444.157
2441.405
2436.049
2428.987
2421.618
2415.401
2411.351
2409.619
2409.345
2408.902
2406.569
2401.421
2394.059
2386.772
2382.854
2385.257
2395.131
2410.963
2428.846
2443.846
2451.928
2451.595
2444.545
2435.036
2428.184
2427.775
2434.37
2444.441
2451.215
2447.573
2430.382
2404.089
2380.497
2373.26
2389.751
2426.215
2470.251
2508.312
2531.612
2536.877
2524.806
2500.744
2477.63
2476.104
2515.353
2595.907
2692.171
2773.333
2850.755
2984.646
)
;
    }
    riser
    {
        type            calculated;
        value           nonuniform List<scalar> 
200
(
5138.449
4986.94
4958.476
5001.083
5105.208
5223.28
5342.785
5355.999
5152.418
4973.757
5132.222
5396.085
5384.212
5271.398
5402.923
5678.973
5801.613
5710.131
5558.49
5502.704
5612.433
5871.978
6157.579
6309.285
6329.333
6349.108
6342.082
6187.692
6026.84
6139.312
6473.991
6667.088
6545.133
6383.587
6568.502
7060.668
7448.573
7555.307
7531.695
7358.744
6923.921
6511.179
6507.116
6820.868
7097.086
7159.06
6992.627
6658.966
6340.835
6211.049
6228
6218.193
6149.512
6133.804
6152.669
6098.499
6088.687
6364.859
6853.55
7195.178
7240.881
7143.202
6971.013
6672.542
6383.863
6334.319
6524.599
6786.57
7007.652
7140.081
7150.744
7063.503
6952.219
6852.647
6742.219
6605.482
6471.09
6371.534
6299.966
6230.618
6167.365
6147.725
6199.933
6311.391
6439.143
6541.303
6598.873
6617.453
6616.068
6613.976
6621.837
6639.089
6656.964
6665.055
6657.996
6638.474
6614.864
6595.224
6581.937
6570.679
6554.23
6528.321
6495.57
6465.043
6447.981
6452.423
6479.684
6524.145
6575.875
6624.444
6662.041
6684.806
6692.322
6686.149
6668.49
6641.654
6608.26
6571.669
6536.013
6505.604
6483.899
6472.571
6471.171
6477.549
6488.807
6502.33
6516.438
6530.493
6544.571
6558.996
6574.022
6589.751
6606.217
6623.472
6641.528
6660.132
6678.524
6695.372
6708.976
6717.673
6720.27
6716.289
6705.953
6689.994
6669.444
6645.567
6619.952
6594.633
6572.016
6554.453
6543.51
6539.206
6539.642
6541.361
6540.492
6534.41
6523.33
6511.093
6504.55
6511.432
6537.236
6582.242
6639.959
6697.998
6741.435
6757.399
6738.88
6686.302
6606.684
6511.196
6412.1
6319.946
6241.671
6179.879
6133.513
6099.823
6076.851
6065.623
6072.23
6108.508
6186.299
6302.646
6424.839
6491.671
6439.636
6246.58
5965.543
5708.394
5570.695
5554.657
5587.182
5632.483
5765.781
5993.686
6089.44
5797.707
5224.472
4828.308
4745.838
4827.026
)
;
    }
    topAndBottom
    {
        type            calculated;
        value           nonuniform List<scalar> 
120
(
7893.694
6981.975
6341.442
5924.843
5633.603
5437.85
5313.407
5223.488
5139.496
5053.166
4970.514
4899.79
4844.161
4801.407
4767.406
4739.368
4716.784
4700.392
4690.56
4686.247
4684.974
4683.613
4679.472
4671.114
4658.54
4642.738
4624.952
4606.079
4586.485
4566.201
4545.281
4524.079
4503.317
4483.975
4467.081
4453.472
4443.577
4437.265
4433.844
4432.23
4431.248
4429.93
4427.722
4424.564
4420.867
4417.373
4414.725
4412.741
4409.7
4402.337
4387.088
4362.337
4330.313
4296.799
4267.876
4245.308
4225.731
4204.366
4185.771
4200.635
6985.833
7009.471
7003.952
6854.763
6518.299
6084.831
5690.755
5414.151
5255.072
5171.031
5122.57
5108.115
5164.423
5326.658
5581.354
5854.094
6045.356
6088.554
5985.106
5791.509
5573.576
5365.507
5161.192
4936.734
4681.605
4414.954
4178.866
4017.214
3955.259
3990.385
4095.197
4228.051
4345.164
4410.847
4404.619
4324.625
4186.698
4018.973
3853.503
3717.752
3628.921
3592.574
3605.025
3657.503
3739.992
3843.564
3961.045
4086.482
4214.077
4337.363
4449.527
4545.141
4622.199
4682.223
4727.477
4757.126
4767.917
4754.02
4734.115
4660.108
)
;
    }
    frontAndBack
    {
        type            empty;
    }
}


// ************************************************************************* //
