# Region type : patch plate
# Faces        : 200
# Area         : 6.7000000e-01
# Scale factor : 1.0000000e+00
# Time         	areaAverage(T)
1100           	5.1632560e+02
1200           	5.1772009e+02
1300           	5.1842820e+02
1400           	5.1882768e+02
1500           	5.1907136e+02
1600           	5.1922140e+02
1700           	5.1931465e+02
