/*--------------------------------*- C++ -*----------------------------------*\
| =========                 |                                                 |
| \\      /  F ield         | OpenFOAM: The Open Source CFD Toolbox           |
|  \\    /   O peration     | Version:  2312                                  |
|   \\  /    A nd           | Website:  www.openfoam.com                      |
|    \\/     M anipulation  |                                                 |
\*---------------------------------------------------------------------------*/
FoamFile
{
    version     2.0;
    format      ascii;
    arch        "LSB;label=32;scalar=64";
    class       volScalarField;
    location    "5400";
    object      alphat;
}
// * * * * * * * * * * * * * * * * * * * * * * * * * * * * * * * * * * * * * //

dimensions      [1 -1 -1 0 0 0 0];

internalField   nonuniform List<scalar> 
12000
(
2.571722e-05
0.0001396257
0.0001565382
0.0001859341
0.0002074178
0.0001888025
0.0001572846
0.0001511569
0.000204041
0.0002590319
0.0001787243
0.0001328146
0.000151738
0.0002443395
0.0002316385
0.0001491443
0.0001329322
0.0001770212
0.0002243609
0.0001697188
0.0001394747
0.000158018
0.000189182
0.000169605
0.0001499832
0.0001581571
0.0001675795
0.0001584436
0.0001552828
0.0001616972
0.0001598655
0.0001543902
0.0001515104
0.0001523342
0.0001611721
0.0001655479
0.0001546066
0.0001404542
0.0001367002
0.0001558307
0.0001862091
0.0001630176
0.000123475
0.0001189234
0.000157179
0.000228255
0.0001500898
9.839579e-05
0.0001127651
0.0001989718
0.0001955152
9.962397e-05
9.634825e-05
0.0001361942
0.000143862
9.829434e-05
7.878546e-05
7.144355e-05
6.487692e-05
5.212369e-05
1.568803e-05
0.000183564
0.0002075809
0.000238892
0.0002780919
0.0003106693
0.0003602013
0.0004194361
0.0004703589
0.0005057576
0.0005680321
0.0006644048
0.0007449192
0.0007708113
0.000810931
0.0009147213
0.001034418
0.001083809
0.001102699
0.001182835
0.001306657
0.001379417
0.001399249
0.001460776
0.001559247
0.00162504
0.001661711
0.00172
0.001779874
0.001811677
0.001842938
0.001888239
0.001915249
0.001933857
0.001933578
0.001932292
0.001942419
0.001950727
0.001941712
0.001893396
0.001830577
0.001740058
0.00177721
0.001723339
0.001619032
0.001509554
0.001070514
0.001286531
0.001267239
0.001116808
0.000928777
0.000834674
0.0007822536
0.0006501702
0.0005455085
0.0004200216
0.0002863243
0.0001731056
8.917983e-05
4.874783e-05
2.243672e-05
0.0002216106
0.0003141675
0.0003820072
0.0004751726
0.0005751925
0.0006946022
0.0008239966
0.0009557313
0.001086839
0.001226043
0.001374705
0.001516206
0.001643224
0.001772636
0.001909761
0.002041842
0.002154219
0.002260232
0.002368821
0.002473464
0.002563368
0.002644007
0.002723638
0.002798275
0.002863108
0.002921017
0.0029748
0.00302006
0.00306095
0.003095352
0.003124986
0.003148696
0.003166302
0.003177334
0.003182143
0.003180963
0.003173037
0.003157998
0.003135858
0.003106493
0.003069112
0.003022106
0.002965442
0.002900745
0.002824528
0.002649396
0.0025738
0.002411421
0.002210242
0.002099933
0.001800163
0.001593843
0.001299517
0.00112198
0.001038913
0.0007213138
0.0004026321
0.0001468784
4.810468e-05
2.642517e-05
0.000248881
0.0003941404
0.0005088061
0.0006606139
0.000828196
0.001014733
0.001211846
0.001412924
0.001616543
0.001821073
0.00202235
0.002188825
0.002390316
0.00255655
0.00271388
0.00286049
0.002995113
0.003119391
0.003234568
0.003340663
0.003437782
0.003526965
0.003608826
0.003683363
0.003750884
0.003811915
0.00386495
0.003914754
0.003956708
0.003991621
0.004020252
0.004042998
0.004058838
0.004066976
0.004067117
0.004058952
0.004042038
0.004015801
0.003979531
0.003932343
0.003873236
0.003801188
0.003714015
0.003613223
0.003497157
0.003363983
0.003211244
0.003038678
0.002846054
0.002347711
0.001976924
0.001856332
0.001675505
0.001563051
0.00123718
0.0008897047
0.0005347175
0.0002162639
4.914902e-05
2.678774e-05
0.0002790627
0.0004786103
0.0006445249
0.0008504638
0.001075681
0.001316503
0.001564951
0.001814227
0.002059792
0.002297193
0.002526178
0.002744429
0.002948232
0.00313434
0.003304156
0.003460992
0.00360604
0.003739389
0.003862076
0.003975174
0.00407954
0.004175845
0.004264502
0.004345858
0.004420288
0.004487089
0.00454818
0.004602898
0.004649727
0.004689414
0.004722384
0.004748145
0.004766069
0.004775634
0.004776866
0.004769227
0.004752199
0.004725247
0.004687818
0.004639298
0.004578975
0.004506121
0.004419667
0.004316621
0.004200833
0.004066997
0.003914096
0.003741395
0.003132264
0.002855898
0.00281317
0.002653788
0.002360788
0.002021997
0.001609793
0.001157344
0.0006880773
0.0002681363
4.910219e-05
2.75e-05
0.0002939536
0.0005541778
0.0007656801
0.001012774
0.001280447
0.001560918
0.001846137
0.002128335
0.002401785
0.002661373
0.002905627
0.003134308
0.003348375
0.003548263
0.003731852
0.003899993
0.004055463
0.004199501
0.004333036
0.004457003
0.004572202
0.004678795
0.004777076
0.004867685
0.004950871
0.005024829
0.005093847
0.005154361
0.005206641
0.00525099
0.00528695
0.005314448
0.005332995
0.005341845
0.005340924
0.005329645
0.005307509
0.005273865
0.005228035
0.005169291
0.005096809
0.005009656
0.004906802
0.004787137
0.004647825
0.004490134
0.004311836
0.004109077
0.003876764
0.003610161
0.003309438
0.002976185
0.002608844
0.002204297
0.001760977
0.001282733
0.0007841618
0.0003197806
4.941745e-05
2.835073e-05
0.0003074774
0.000619159
0.0008709181
0.001148801
0.001445498
0.001751282
0.002057572
0.00235722
0.002645638
0.002919923
0.003178816
0.003422348
0.003651052
0.003863273
0.004060558
0.004243187
0.004412071
0.004568594
0.004713953
0.004849083
0.004974687
0.005091663
0.005200528
0.005301125
0.00539148
0.005475617
0.005551332
0.005618359
0.00567642
0.005725271
0.005764456
0.005794096
0.005813566
0.005822406
0.005820323
0.005806676
0.005781034
0.005742948
0.005691901
0.00562729
0.005548394
0.005454346
0.005344139
0.005216427
0.005068393
0.004902768
0.004713491
0.004496805
0.004250153
0.00397176
0.003658861
0.003307412
0.002913036
0.002472099
0.001982958
0.0014486
0.0008861555
0.0003605464
4.956285e-05
2.92511e-05
0.0003165529
0.0006715008
0.0009579261
0.001256427
0.001569159
0.001888469
0.002208321
0.002523449
0.00282716
0.003115345
0.003386888
0.003641185
0.003877739
0.004099524
0.004307815
0.004503903
0.004687648
0.00485937
0.00501993
0.005170143
0.005310281
0.005440501
0.005560711
0.005671671
0.00577289
0.005867415
0.005952311
0.006027022
0.006091359
0.006145047
0.006187801
0.006219818
0.006240344
0.006248847
0.006244902
0.006228065
0.006197921
0.006154039
0.006095944
0.006023071
0.005934723
0.00583003
0.005707788
0.005567117
0.005404597
0.005222032
0.00501402
0.004778219
0.004512102
0.004212898
0.003877099
0.003501118
0.003081619
0.002615842
0.002102531
0.001544429
0.0009561716
0.0003979405
4.967662e-05
3.091661e-05
0.0003246876
0.0007089835
0.001024933
0.001339123
0.001664534
0.001996081
0.002325434
0.002646063
0.002955246
0.003251171
0.003532082
0.003797456
0.004047565
0.00428335
0.004505634
0.004715865
0.004915195
0.005103155
0.005278996
0.005442805
0.005597091
0.005742032
0.005877884
0.00600183
0.006117536
0.006222496
0.006316342
0.006398773
0.006469468
0.006528084
0.006574406
0.006608499
0.006629656
0.00663733
0.006631077
0.006610472
0.006575085
0.00652456
0.006458576
0.006376808
0.006278931
0.006164431
0.006031071
0.005878408
0.005703669
0.005507907
0.005287489
0.005039754
0.004760915
0.004449165
0.004099686
0.003707998
0.003269906
0.002781453
0.002240338
0.001648936
0.001023252
0.0004279939
4.979721e-05
3.005881e-05
0.0003404269
0.0007386832
0.001078417
0.001406179
0.001737991
0.002072626
0.002405117
0.002730604
0.003045996
0.003349353
0.003639545
0.003916217
0.004179556
0.004430075
0.004668322
0.004893551
0.005105445
0.005307673
0.005500494
0.005683841
0.00585594
0.006017007
0.006166987
0.006304198
0.006431536
0.006546782
0.006649589
0.006739596
0.00681643
0.006879712
0.006929221
0.006964878
0.006986071
0.006992333
0.006983318
0.006958652
0.006917245
0.00685884
0.006783244
0.006690093
0.006578868
0.006449009
0.006301761
0.006135478
0.00594746
0.005737678
0.005503176
0.005241796
0.004951368
0.004625745
0.004260228
0.003850782
0.003394437
0.002887248
0.002327335
0.001717227
0.0010719
0.0004538675
4.979133e-05
2.969049e-05
0.0003398147
0.000752356
0.001113342
0.00145206
0.001788582
0.0021255
0.002460001
0.002788643
0.003108849
0.003418948
0.003717964
0.004005454
0.004281312
0.004545586
0.004796799
0.00503766
0.005269315
0.00548981
0.005699702
0.005898718
0.006086328
0.006262127
0.006425735
0.006576238
0.006714575
0.006839606
0.006950889
0.00704799
0.007130477
0.007197921
0.007250034
0.00728655
0.007306813
0.007310307
0.007296568
0.007265294
0.007217063
0.007151511
0.007068119
0.006966442
0.006846041
0.006706482
0.006547152
0.006367426
0.006165963
0.005942378
0.005694358
0.005419315
0.005113843
0.004774349
0.004397741
0.003978654
0.003509869
0.002988021
0.002410951
0.001780991
0.001113794
0.0004740668
4.98275e-05
3.365531e-05
0.0003203957
0.0007522571
0.00113677
0.001487839
0.001828568
0.002166169
0.002500774
0.002830653
0.003154021
0.003469495
0.00377612
0.004073324
0.004360775
0.004637434
0.004905265
0.00516282
0.005409909
0.005646032
0.005870967
0.006084424
0.006285903
0.006474826
0.006650616
0.00681308
0.006961811
0.007096114
0.007215438
0.007319251
0.007407045
0.007478314
0.007532647
0.007569707
0.00758913
0.007590573
0.007573687
0.00753814
0.007483603
0.007409816
0.007316555
0.007203617
0.007070814
0.006917973
0.006744838
0.006551037
0.006336018
0.006099188
0.005839035
0.005553287
0.005238482
0.00489004
0.004502644
0.004071134
0.003591261
0.003057106
0.002467609
0.001825026
0.001144726
0.0004905746
4.976586e-05
3.311045e-05
0.0003217408
0.0007497535
0.001147354
0.001507613
0.001851876
0.002190391
0.002525679
0.002857172
0.003183596
0.003503841
0.003817152
0.004122934
0.004420569
0.004709983
0.004989534
0.005258364
0.005510411
0.005741071
0.006004312
0.006231166
0.006446844
0.006650958
0.006840242
0.007015092
0.007174387
0.007317485
0.007443802
0.007552954
0.007644597
0.007718364
0.007773963
0.007811075
0.007829211
0.00782797
0.007806995
0.007765979
0.007704663
0.007622842
0.007520361
0.007397115
0.007253042
0.007088104
0.006902212
0.006694628
0.006466333
0.006216787
0.005945552
0.005650858
0.005328936
0.00497446
0.004581455
0.004143843
0.00365587
0.003114194
0.002515104
0.001861195
0.001168527
0.0005024041
4.975165e-05
3.318056e-05
0.0003142422
0.000739706
0.001147813
0.001516396
0.00186456
0.002203799
0.00253866
0.002870178
0.003198109
0.003521724
0.003840025
0.004151666
0.004454219
0.004745657
0.004839748
0.004953722
0.005122376
0.005327853
0.005602334
0.005896732
0.006186358
0.006411171
0.006627026
0.006862249
0.007149155
0.007444448
0.00762538
0.007739212
0.007834764
0.007911366
0.007968474
0.008005685
0.008022596
0.008018841
0.007994108
0.007948142
0.007880748
0.007791779
0.007681118
0.007548707
0.007394602
0.00721897
0.006991639
0.006676036
0.006348818
0.006064333
0.005860014
0.005682379
0.005388109
0.005031749
0.004636232
0.004195109
0.003702682
0.00315429
0.002547894
0.001886372
0.001185829
0.0005114689
4.968604e-05
3.371277e-05
0.0003057692
0.000725749
0.001140598
0.001518436
0.001872033
0.002213554
0.0025492
0.002881304
0.003210093
0.003534693
0.003853477
0.004164118
0.004382245
0.004527621
0.00467018
0.004812043
0.004949039
0.0051068
0.005298198
0.00555097
0.005827956
0.006109437
0.006375426
0.006637819
0.00688514
0.007129137
0.007365505
0.007594952
0.007820622
0.008024648
0.008114405
0.008151811
0.00816778
0.008161968
0.008134092
0.00808396
0.008011477
0.007916649
0.007766621
0.007558442
0.00731281
0.007031587
0.006711913
0.006388355
0.0061046
0.005864834
0.005663733
0.005507547
0.005376694
0.005068245
0.004673303
0.00423096
0.00373579
0.00318355
0.002572213
0.001904707
0.001197599
0.000517113
4.964106e-05
3.426498e-05
0.0002978158
0.0007109926
0.001130811
0.001515967
0.001874481
0.002218443
0.002554951
0.002887055
0.003215403
0.003539271
0.003857101
0.004166748
0.004398511
0.004532418
0.004633011
0.004732179
0.004856514
0.005036707
0.005247721
0.005469265
0.005696562
0.005954277
0.006215928
0.006474411
0.006727988
0.006967691
0.007186108
0.007384918
0.007574217
0.007765145
0.00796398
0.008027399
0.007969675
0.007933582
0.007891528
0.007830474
0.007743607
0.007626795
0.007476549
0.00729088
0.00707036
0.006817362
0.006535409
0.006232979
0.005925909
0.005659132
0.005473781
0.005370665
0.005292439
0.0050921
0.004698437
0.00425573
0.003758838
0.003203835
0.002588961
0.001917492
0.001206155
0.0005212419
4.95848e-05
3.471696e-05
0.0002909294
0.0006962824
0.001117006
0.001506498
0.00187044
0.002217614
0.002555259
0.002887095
0.003214362
0.003536773
0.003853074
0.004161292
0.004369667
0.004472131
0.004556999
0.004672149
0.004838551
0.00501733
0.005198702
0.005399237
0.005626043
0.005859945
0.006105861
0.006349433
0.006582361
0.006799349
0.006998113
0.007180885
0.007356089
0.007539563
0.007760715
0.007841503
0.007768505
0.007715443
0.007666399
0.0076088
0.007531742
0.007426699
0.007287509
0.007111201
0.006898022
0.006650776
0.006376719
0.006090718
0.005813926
0.005568614
0.005373905
0.005252122
0.005187973
0.005092563
0.004715775
0.004273393
0.003775583
0.003218672
0.002601254
0.001927024
0.001212149
0.0005235987
4.953773e-05
3.513528e-05
0.0002850925
0.0006816046
0.001101817
0.001496456
0.001863966
0.002213528
0.002552022
0.002883349
0.003209126
0.003529404
0.003843149
0.004148775
0.004350701
0.004471587
0.004575453
0.004691635
0.004825667
0.004986495
0.00518273
0.005391251
0.005613734
0.005840919
0.006074362
0.006304069
0.006523699
0.006727622
0.006912584
0.007080219
0.007240691
0.007419269
0.007666198
0.007777456
0.00769448
0.007620871
0.007558936
0.007494719
0.007414341
0.007307926
0.007169311
0.006995366
0.006785659
0.006542577
0.006272443
0.00598761
0.005708306
0.005461366
0.005275703
0.005168912
0.00512437
0.005048535
0.004726126
0.004285013
0.00378723
0.003229383
0.002610318
0.001933567
0.001216934
0.0005255798
4.948008e-05
3.543875e-05
0.0002800698
0.0006677445
0.001085599
0.00148251
0.00185337
0.002206023
0.002545674
0.002876611
0.003200947
0.003519195
0.003830745
0.004133811
0.004340599
0.004467349
0.004577776
0.0047025
0.004851271
0.005022451
0.005208701
0.005415857
0.005637863
0.005872366
0.006103085
0.0063254
0.00653512
0.006728402
0.006903796
0.007064361
0.007218913
0.007381001
0.007563555
0.007761073
0.00775139
0.0075964
0.007508402
0.007435326
0.007349778
0.007238534
0.00709524
0.006917221
0.006704557
0.006460296
0.006191465
0.005910381
0.005635367
0.005389366
0.005198898
0.005084771
0.00504063
0.004989148
0.004730922
0.004290862
0.003792777
0.003233827
0.002613383
0.001935632
0.001217736
0.0005257948
4.943781e-05
3.575517e-05
0.0002761842
0.0006554689
0.001069852
0.001467818
0.001841978
0.002195874
0.002536567
0.002867425
0.003190709
0.003507311
0.003817038
0.004118914
0.004358623
0.00450384
0.004627237
0.004758066
0.004907938
0.005079407
0.005271351
0.005481215
0.005703665
0.005931185
0.006154073
0.006369766
0.006572447
0.006757664
0.006923797
0.007073964
0.007217373
0.007368517
0.007542481
0.007751541
0.007764227
0.007603131
0.00749482
0.007402859
0.007304185
0.007184449
0.007035687
0.006854408
0.00664047
0.006396845
0.006130258
0.005852372
0.005580825
0.005338085
0.005150746
0.005040118
0.00500192
0.004964495
0.004734879
0.004295348
0.003797085
0.003237561
0.002616376
0.00193782
0.00121898
0.0005267358
4.939215e-05
3.593563e-05
0.0002730512
0.0006446041
0.001054719
0.0014527
0.001828648
0.002185113
0.002526527
0.00285727
0.003179883
0.003495537
0.003804493
0.004106027
0.004399541
0.004562566
0.00469913
0.004841309
0.004999
0.005175542
0.005369783
0.005579367
0.005796699
0.006017023
0.00623409
0.006442365
0.006635981
0.006811198
0.006966574
0.00710459
0.007233427
0.007368165
0.007530407
0.007747864
0.00777726
0.007613003
0.007488131
0.007378918
0.007266653
0.007137232
0.006981869
0.006796447
0.0065806
0.006337282
0.006073065
0.005799018
0.005531675
0.005292055
0.005106003
0.004995693
0.004960488
0.004935855
0.004735998
0.004297029
0.003798557
0.003238397
0.002616502
0.001937561
0.001218967
0.0005264373
4.93327e-05
3.622157e-05
0.0002711593
0.0006359033
0.001041285
0.001438141
0.001815053
0.002172859
0.002515443
0.002846623
0.003169097
0.003484376
0.003793069
0.004095447
0.004390461
0.004643429
0.004803066
0.004956053
0.005120625
0.005300143
0.005495061
0.005701087
0.005913492
0.006126522
0.006336046
0.006534259
0.00671705
0.006881062
0.007024771
0.007150006
0.007264086
0.007382259
0.007529399
0.007740658
0.007783733
0.007627187
0.007489723
0.007364117
0.007237912
0.00709832
0.00693615
0.006746684
0.006529194
0.006286412
0.006024602
0.005754294
0.005491275
0.005255711
0.005072785
0.004964654
0.004932294
0.004915797
0.004736658
0.004297929
0.003799126
0.00323838
0.002615901
0.001936502
0.001218132
0.0005262082
4.929317e-05
3.633515e-05
0.0002698797
0.0006284593
0.00102892
0.00142413
0.001801382
0.002160351
0.002504067
0.00283601
0.003158884
0.003474428
0.003783572
0.004086659
0.004384179
0.004676018
0.004925241
0.005093013
0.005263128
0.005447209
0.005641955
0.005844364
0.006051024
0.006256467
0.006454916
0.006641619
0.006812759
0.006965301
0.007097653
0.007210749
0.0073097
0.00740717
0.007530161
0.007729746
0.007805194
0.00765614
0.00749096
0.00735147
0.007214949
0.007066594
0.006897588
0.006703633
0.00648409
0.00624156
0.005982001
0.00571538
0.00545653
0.005225191
0.005045727
0.004940222
0.004910897
0.00490109
0.004736608
0.004297907
0.003798675
0.003237358
0.002614469
0.001935107
0.001216916
0.0005254837
4.923464e-05
3.660858e-05
0.0002695076
0.0006231333
0.0010189
0.001411944
0.001789024
0.002148595
0.002493264
0.002826131
0.003149819
0.003466195
0.003776429
0.004081163
0.004380708
0.004675031
0.00496435
0.005248621
0.005435109
0.005612696
0.005805463
0.006006566
0.006207295
0.00640236
0.006589057
0.006764063
0.006923417
0.007063844
0.007184256
0.007286475
0.007376181
0.00746331
0.007560506
0.007676393
0.007795914
0.007720884
0.007509106
0.007347279
0.007198264
0.007041211
0.006865678
0.006667315
0.006445621
0.006203159
0.005945628
0.005682512
0.005427831
0.005201034
0.005025696
0.004923538
0.004897236
0.004892011
0.004736628
0.004297646
0.003797774
0.003235737
0.002612312
0.001932834
0.001215179
0.0005247476
4.920891e-05
3.661603e-05
0.0002701045
0.0006194779
0.001010318
0.001400798
0.001777223
0.002137488
0.002483249
0.002817309
0.003142213
0.0034599
0.003771697
0.004078427
0.004380539
0.004678224
0.004971527
0.005260312
0.005543932
0.005811733
0.005996126
0.006180148
0.00637522
0.006565531
0.006743508
0.00690338
0.007049055
0.007176576
0.007284398
0.007373815
0.007449957
0.007521973
0.007600539
0.007690973
0.007794803
0.007732425
0.007526751
0.007353897
0.00719092
0.007022507
0.006839094
0.0066359
0.006411954
0.006169475
0.005913833
0.005654096
0.005403722
0.00518162
0.005010806
0.004912597
0.00488966
0.004887873
0.004737006
0.004297514
0.003796878
0.003234086
0.002610155
0.001930613
0.001213437
0.0005238697
4.916451e-05
3.664905e-05
0.0002722399
0.0006168467
0.001003279
0.001391302
0.001767073
0.002127747
0.002474603
0.002810037
0.003136487
0.003455906
0.003769707
0.004078823
0.004383791
0.004684842
0.004981943
0.005274806
0.005562882
0.005845236
0.006120784
0.006388247
0.006574527
0.00673955
0.006901823
0.007059043
0.007195201
0.007308948
0.00740202
0.007476768
0.007537072
0.007589331
0.007643066
0.007711838
0.007805408
0.007746418
0.007542729
0.007360968
0.007186354
0.007007595
0.006816554
0.006608594
0.006382454
0.006139996
0.005886234
0.005629851
0.005383832
0.00516661
0.005000685
0.004906854
0.004887359
0.004887843
0.004737996
0.004297718
0.0037961
0.003232377
0.002607794
0.001928072
0.001211423
0.0005229247
4.915127e-05
3.816724e-05
0.0002672473
0.0006136715
0.0009974171
0.00138347
0.001758584
0.002119656
0.00246762
0.002804659
0.003133028
0.003454643
0.003770951
0.004082935
0.004391166
0.004695862
0.004996917
0.005293922
0.005586182
0.005872717
0.006152297
0.006423297
0.006684196
0.006932988
0.00708837
0.007221326
0.007340084
0.00744082
0.00752036
0.007580964
0.007626465
0.007662331
0.007696504
0.007739855
0.00780852
0.007749518
0.007555213
0.007367522
0.007182439
0.006994182
0.006796256
0.006584119
0.006356212
0.006114052
0.005862314
0.005609343
0.00536773
0.005155521
0.004994764
0.004905695
0.004889807
0.00489172
0.004739878
0.004298626
0.003795892
0.003231156
0.002605887
0.001925978
0.00120966
0.000522032
4.91236e-05
3.987052e-05
0.0002695474
0.0006046666
0.0009945287
0.001377712
0.001751881
0.002113399
0.002462763
0.002801653
0.003132369
0.003456723
0.003776139
0.004091594
0.004403646
0.004712463
0.005017848
0.005319269
0.005615886
0.00590657
0.006189925
0.006464332
0.006728004
0.00697899
0.007215363
0.007393706
0.007497721
0.00757866
0.007642577
0.007688639
0.007719226
0.007738099
0.007751513
0.007770924
0.007815673
0.007753981
0.007564811
0.007371322
0.007178102
0.006982201
0.006778457
0.006562736
0.006333391
0.006091674
0.005841981
0.005592393
0.005355192
0.00514807
0.004992659
0.004908584
0.004896315
0.00489889
0.004743136
0.004300381
0.003796248
0.003230287
0.002604128
0.001923836
0.001207747
0.0005210652
4.912539e-05
4.075253e-05
0.0002733709
0.000595534
0.0009935923
0.001373847
0.001747164
0.002109307
0.002460289
0.002801546
0.003135149
0.003462865
0.003786066
0.00410568
0.004422201
0.004735711
0.005045898
0.005352093
0.005653312
0.005948279
0.006235447
0.006512904
0.00677898
0.007031662
0.007269123
0.007488872
0.007678476
0.007753116
0.007794267
0.007819705
0.007832073
0.007834153
0.007828899
0.00781822
0.007798954
0.007757755
0.007603244
0.007376743
0.007172185
0.006971076
0.006763562
0.006545206
0.006314822
0.006073757
0.005826166
0.005579843
0.005346822
0.005144589
0.004994515
0.004915578
0.004906935
0.004909428
0.00474741
0.004303287
0.003797518
0.003230218
0.002603093
0.001922318
0.001206327
0.0005202511
4.911353e-05
4.085053e-05
0.0002766779
0.0005871247
0.0009874789
0.001371764
0.001744202
0.002107126
0.002460019
0.002804321
0.003141618
0.00347354
0.003801369
0.004125951
0.004447681
0.004766517
0.005082003
0.005393317
0.005699295
0.005998333
0.006288697
0.006568973
0.00683701
0.007090769
0.007328523
0.00754765
0.007746516
0.007919166
0.00796062
0.007965172
0.007955982
0.007936944
0.00790972
0.007874079
0.007826014
0.007761646
0.007607297
0.007384683
0.007173818
0.006965459
0.006752814
0.006531629
0.006300168
0.006059293
0.005813178
0.005569848
0.005341117
0.005143943
0.004999376
0.00492575
0.004921039
0.004923055
0.004752569
0.004306813
0.003799574
0.003230789
0.002602495
0.001921019
0.001204943
0.000519428
4.912022e-05
4.075888e-05
0.0002796852
0.0005799874
0.0009750756
0.001372015
0.001743762
0.002107911
0.002463509
0.002811529
0.003153018
0.00348982
0.003823076
0.004153464
0.004481199
0.004806028
0.005127214
0.005443621
0.005753767
0.006056604
0.006350376
0.006632953
0.006902329
0.007156523
0.007393446
0.007611155
0.007807835
0.007981825
0.008120904
0.008128854
0.00809924
0.008055829
0.008002038
0.007937533
0.007862638
0.007776785
0.007615697
0.007393265
0.007177165
0.006963074
0.006745886
0.00652188
0.006290109
0.006050917
0.005807904
0.005567623
0.005341943
0.005148568
0.005009145
0.004941066
0.004939669
0.004940192
0.004759535
0.004311814
0.003802759
0.003232341
0.002602785
0.001920485
0.0012041
0.0005188442
4.911882e-05
4.109056e-05
0.00028282
0.000573935
0.0009627689
0.001374353
0.001745744
0.002111434
0.00247009
0.002822247
0.003169487
0.003512698
0.003852433
0.00418927
0.004523137
0.004853602
0.005180199
0.005501783
0.005816964
0.006123706
0.006420176
0.006704396
0.006974343
0.007228132
0.007463594
0.007679001
0.007872662
0.008043071
0.00818893
0.008280735
0.008253228
0.008188525
0.008108376
0.008016798
0.007912919
0.0077973
0.007624775
0.00740453
0.007185608
0.006967513
0.006748312
0.006524526
0.006292722
0.006052223
0.005807773
0.0055694
0.005347897
0.005160108
0.005025575
0.004962263
0.004964827
0.004964239
0.004767824
0.004317906
0.003806773
0.003234656
0.002603663
0.00192032
0.001203428
0.0005183514
4.91405e-05
4.122672e-05
0.0002860213
0.0005690057
0.0009527841
0.001378484
0.00175034
0.00211829
0.002480792
0.002838064
0.003190982
0.003540316
0.003886931
0.004230915
0.004572107
0.004909853
0.005242882
0.005569907
0.005889327
0.006199288
0.006497832
0.006782955
0.007052664
0.007305168
0.007538361
0.007750674
0.007940574
0.008106729
0.008248027
0.008363579
0.008400066
0.008331221
0.008226106
0.008104473
0.007970523
0.007823171
0.007635047
0.00741397
0.007192425
0.006971633
0.006748175
0.00651894
0.006283842
0.006047525
0.005810537
0.005576934
0.005358691
0.005173271
0.005041815
0.004981482
0.004986923
0.004983772
0.00477733
0.004325268
0.003812094
0.003238119
0.002605503
0.001920941
0.001203305
0.0005180323
4.916188e-05
4.168645e-05
0.0002893404
0.0005651468
0.0009441199
0.001384424
0.00175746
0.00212847
0.002495569
0.002858855
0.003218784
0.003575864
0.00393039
0.004282242
0.004630894
0.004975405
0.005314469
0.005646525
0.005969801
0.006282384
0.0065823
0.006867582
0.00713632
0.007386665
0.007616886
0.007825447
0.008010993
0.00817238
0.008308684
0.008419203
0.008503456
0.008464177
0.008346462
0.008198342
0.008033988
0.007853377
0.007647283
0.007422996
0.007195488
0.006967759
0.006740005
0.006512739
0.006283653
0.006049141
0.00581223
0.005579489
0.005364244
0.005183817
0.005058086
0.005001586
0.005006742
0.005000461
0.004787907
0.004333566
0.00381817
0.003242199
0.002607802
0.001921855
0.001203319
0.0005178056
4.919593e-05
4.17479e-05
0.0002927666
0.0005626281
0.000936643
0.001391738
0.001767047
0.002142146
0.002515123
0.002885511
0.00325342
0.003618981
0.003982088
0.004342268
0.004698665
0.005050064
0.005394949
0.005731585
0.006058103
0.00637257
0.006673055
0.006957667
0.007224596
0.007472105
0.007698646
0.007902842
0.008083524
0.008239731
0.008370725
0.008475974
0.008555151
0.008584478
0.008467453
0.008297375
0.008106968
0.007895814
0.007666237
0.007431975
0.007200341
0.006973621
0.006750173
0.006524383
0.00629347
0.006057423
0.00582013
0.005589028
0.005375665
0.005197459
0.00507518
0.005025116
0.005036246
0.005029007
0.004799966
0.004343062
0.003825296
0.003247164
0.002611005
0.001923613
0.00120399
0.0005178973
4.921978e-05
4.204231e-05
0.0002959985
0.0005607713
0.0009315531
0.001401176
0.001779752
0.00215988
0.002539451
0.002917713
0.00329435
0.003669033
0.004041187
0.00440993
0.004774068
0.005132123
0.0054824
0.005823073
0.006152244
0.006468
0.006768457
0.007051791
0.007316316
0.007560461
0.007782843
0.007982276
0.008157783
0.008308596
0.008434157
0.008534108
0.008608271
0.008656604
0.00857486
0.008394668
0.008183755
0.007944584
0.007689699
0.007446242
0.007213406
0.00698717
0.006762711
0.006536258
0.006305733
0.006071293
0.005835694
0.005606093
0.005394903
0.005219788
0.005101114
0.00505359
0.005065067
0.005053392
0.004813053
0.004353484
0.003833206
0.003252797
0.002614692
0.001925409
0.001204528
0.0005179498
4.925885e-05
4.314675e-05
0.0002987582
0.0005609734
0.0009275652
0.001408622
0.001795568
0.00218191
0.002569431
0.002956777
0.003343051
0.003727402
0.004108813
0.004486036
0.004857592
0.005221809
0.005576884
0.005920945
0.00625209
0.006568439
0.006868091
0.007149502
0.007411033
0.007651297
0.0078691
0.008063452
0.00823357
0.008378872
0.00849897
0.008593656
0.008662884
0.008706736
0.008668696
0.00848869
0.00826492
0.00800198
0.007723053
0.007468342
0.007230504
0.007002761
0.006778689
0.006553498
0.00632386
0.006089513
0.005854033
0.005624999
0.00541514
0.005242429
0.005127541
0.005084963
0.005100572
0.005086607
0.004827712
0.004365345
0.003842475
0.003259672
0.002619355
0.001928382
0.001205989
0.0005182538
4.929393e-05
4.180146e-05
0.0003079207
0.0005614562
0.0009250812
0.001409893
0.001813725
0.002206871
0.002602922
0.002999877
0.003396249
0.003790634
0.004181549
0.004567375
0.00494636
0.005316642
0.005676308
0.00602343
0.006356111
0.006672531
0.006970866
0.007249835
0.007507926
0.007743951
0.007956917
0.008146032
0.008310701
0.008450516
0.008565247
0.00865482
0.008719348
0.008758963
0.008760498
0.008581528
0.008348123
0.008064247
0.007761783
0.007494731
0.007252508
0.007024049
0.006800376
0.00657529
0.006345537
0.006110978
0.00587537
0.005646529
0.005437508
0.005266523
0.005154207
0.005114444
0.00513147
0.005114247
0.004842955
0.004377814
0.00385232
0.00326707
0.002624511
0.001931501
0.001207491
0.0005187347
4.934805e-05
4.0981e-05
0.0003120126
0.0005623912
0.000922647
0.00140839
0.001835076
0.002235934
0.002641334
0.003048608
0.003455607
0.003860349
0.004260877
0.00465521
0.005041337
0.00541724
0.005780922
0.006130451
0.006463992
0.006779844
0.007076344
0.007352386
0.007606658
0.007838171
0.008046134
0.008229945
0.008389189
0.008523621
0.008633156
0.00871785
0.008777818
0.008813342
0.008824721
0.008660156
0.008420602
0.008119785
0.007798392
0.007521549
0.007275698
0.007046779
0.006823756
0.006599312
0.006369757
0.006134965
0.005898984
0.00567001
0.005461485
0.005291958
0.005182186
0.005145571
0.005164529
0.00514401
0.00485922
0.004391172
0.003862922
0.003275095
0.002630195
0.001935206
0.001209321
0.0005193233
4.938989e-05
4.188793e-05
0.0003094736
0.0005644715
0.0009213986
0.001409195
0.00185943
0.002269027
0.002684588
0.00310277
0.00352075
0.003935969
0.00434601
0.004748558
0.005141384
0.005522351
0.005889438
0.006240758
0.006574581
0.006889354
0.007183617
0.007456398
0.007706614
0.007933478
0.008136391
0.008314931
0.008468849
0.00859804
0.008702536
0.008782553
0.008838242
0.008869901
0.008877863
0.008722848
0.008483099
0.008170019
0.007833298
0.007548984
0.007300966
0.007072438
0.006850381
0.006626495
0.006396856
0.006161507
0.005924826
0.005695387
0.00548701
0.005318554
0.00521088
0.005176964
0.005197621
0.005174099
0.004876183
0.004405198
0.003874157
0.003283693
0.002636316
0.001939028
0.001211258
0.000519893
4.945335e-05
4.368376e-05
0.0003117144
0.0005677619
0.0009212771
0.00141091
0.001886815
0.002305882
0.002732193
0.003161668
0.003590807
0.004016477
0.004435829
0.004846246
0.005245321
0.005630845
0.006000812
0.006353416
0.006687059
0.007000354
0.007292083
0.007561378
0.007807409
0.008029586
0.008227495