/*--------------------------------*- C++ -*----------------------------------*\
| =========                 |                                                 |
| \\      /  F ield         | OpenFOAM: The Open Source CFD Toolbox           |
|  \\    /   O peration     | Version:  2312                                  |
|   \\  /    A nd           | Website:  www.openfoam.com                      |
|    \\/     M anipulation  |                                                 |
\*---------------------------------------------------------------------------*/
FoamFile
{
    version     2.0;
    format      ascii;
    arch        "LSB;label=32;scalar=64";
    class       volScalarField;
    location    "5400";
    object      ILambda_10_0;
}
// * * * * * * * * * * * * * * * * * * * * * * * * * * * * * * * * * * * * * //

dimensions      [1 0 -3 0 0 0 0];

internalField   nonuniform List<scalar> 
12000
(
694.8114
691.2529
689.2182
686.7261
684.2584
681.7501
679.2592
676.8151
674.4515
672.1977
670.0805
668.1235
666.3467
664.7668
663.3973
662.2484
661.3272
660.6372
660.1786
659.9473
659.9348
660.1271
660.5045
661.0401
661.7
662.4427
663.2193
663.9745
664.6473
665.1737
665.4888
665.5302
665.2412
664.5747
663.4964
661.9879
660.0489
657.6983
654.9744
651.9338
648.6487
645.2039
641.6923
638.2106
634.8542
631.7131
628.8683
626.3884
624.3271
622.7215
621.592
620.942
620.7576
621.009
621.6517
622.6288
623.8749
625.3177
626.8805
628.484
706.3923
704.9615
703.7002
702.1391
700.3195
698.2712
696.0147
693.584
691.0138
688.3421
685.6073
682.8479
680.1011
677.402
674.7837
672.2769
669.9101
667.7097
665.7007
663.9065
662.3499
661.052
660.0323
659.3081
658.8926
658.7934
659.0108
659.5354
660.346
661.408
662.6722
664.0748
665.5379
666.9717
668.278
669.3548
670.1015
670.4251
670.2466
669.5062
668.1688
666.2264
663.7003
660.6401
657.1211
653.2405
649.1112
644.8563
640.602
636.4721
632.5824
629.0365
625.9227
623.3121
621.2567
619.7888
618.9209
618.6471
618.9423
619.749
706.9578
706.79
706.3801
705.8279
705.019
703.9728
702.6756
701.1359
699.3668
697.3892
695.2299
692.9197
690.492
687.9813
685.4217
682.8457
680.2835
677.7624
675.3068
672.9384
670.6767
668.5403
666.5474
664.7171
663.0698
661.628
660.4155
659.4571
658.7767
658.3954
658.3283
658.5817
659.1497
660.0112
661.1279
662.4427
663.8804
665.3494
666.7453
667.9562
668.8692
669.3783
669.3912
668.8373
667.6728
665.8849
663.4933
660.5489
657.1307
653.3402
649.2943
645.1184
640.9383
636.8742
633.0358
629.5187
626.403
623.7552
621.6315
620.0677
707.853
707.9152
708.0142
708.0589
707.9948
707.7749
707.3603
706.7213
705.8378
704.6999
703.3078
701.6712
699.8085
697.7451
695.5122
693.1446
690.679
688.1518
685.5979
683.0488
680.532
678.0705
675.683
673.3841
671.1861
669.0999
667.137
665.3113
663.6401
662.1453
660.8533
659.7946
659.0016
658.506
658.3351
658.5072
659.0273
659.8826
661.0394
662.4405
664.0057
665.6333
667.2047
668.5914
669.6628
670.2962
670.3863
669.8541
668.6541
666.7785
664.2583
661.161
657.5851
653.6514
649.4927
645.2427
641.024
636.9401
633.0733
629.4864
709.4039
708.3864
708.361
708.2884
708.3864
708.52
708.6495
708.7124
708.6562
708.4328
708.0027
707.3355
706.4116
705.2225
703.7707
702.0689
700.1396
698.0126
695.7237
693.3121
690.8182
688.2811
685.7369
683.2164
680.7447
678.3401
676.0147
673.7754
671.6256
669.5674
667.6046
665.7447
664.0019
662.3983
660.9648
659.7402
658.7696
658.0999
657.7756
657.8322
658.2902
659.1482
660.3785
661.9232
663.6935
665.5719
667.4183
669.0781
670.3936
671.2172
671.4244
670.9258
669.6767
667.6826
665.0008
661.7356
658.0272
654.0328
649.9068
645.7869
714.9611
711.9483
711.0835
710.0511
709.4349
709.0457
708.8806
708.8805
708.9911
709.1515
709.3001
709.3766
709.3245
709.0936
708.6426
707.9403
706.9671
705.7156
704.1909
702.4095
700.3985
698.1934
695.836
693.3713
690.8452
688.3009
685.7764
683.3029
680.9024
678.5877
676.3627
674.2238
672.1625
670.1685
668.2338
666.3568
664.5455
662.8211
661.2189
659.7883
658.5902
657.6923
657.1627
657.0611
657.4299
658.2848
659.6068
661.3371
663.3745
665.5781
667.7744
669.7687
671.3615
672.3662
672.6299
672.0531
670.6075
668.3442
665.39
661.936
725.0202
720.3208
718.3821
716.0824
714.2361
712.6683
711.4317
710.5094
709.8848
709.5257
709.39
709.4258
709.5742
709.7721
709.9542
710.0564
710.0186
709.7875
709.3189
708.5798
707.5502
706.2237
704.6079
702.7239
700.6046
698.2928
695.8384
693.2949
690.7156
688.1504
685.6417
683.2216
680.91
678.7135
676.6261
674.6307
672.7028
670.815
668.9428
667.0701
665.1955
663.3366
661.5327
659.8461
658.3587
657.1667
656.3712
656.0672
656.3296
657.2
658.6737
660.6909
663.131
665.8146
668.5112
670.9554
672.874
674.022
674.2221
673.4131
737.2873
732.2956
729.7128
726.6306
723.7939
721.1013
718.6409
716.4484
714.559
712.9936
711.7605
710.8544
710.2562
709.9341
709.8444
709.9332
710.139
710.3947
710.6308
710.7786
710.7729
710.5558
710.0789
709.3064
708.2167
706.8038
705.0782
703.0658
700.8069
698.3534
695.7659
693.1094
690.4483
687.8421
685.3403
682.9785
680.7755
678.7313
676.8279
675.0312
673.2954
671.5695
669.8049
667.9642
666.0296
664.0109
661.9505
659.9257
658.0468
656.4498
655.2853
654.7018
654.8269
655.746
657.4813
659.9731
663.0667
666.5147
670.0007
673.1959
748.1721
744.4243
742.0062
739.1035
736.1288
733.0677
729.9973
726.9793
724.0785
721.355
718.8631
716.6483
714.7458
713.1785
711.9561
711.0743
710.5146
710.2449
710.2202
710.3847
710.6733
711.0146
711.3337
711.5555
711.6085
711.4279
710.9597
710.1632
709.0139
707.5056
705.6508
703.481
701.045
698.4063
695.6392
692.824
690.0406
687.3628
684.8515
682.5495
680.4765
678.6267
676.9683
675.4457
673.985
672.5023
670.914
669.1496
667.1642
664.9511
662.5511
660.0583
657.6198
655.4292
653.713
652.7089
652.6338
653.6452
655.8046
659.0419
755.24
753.4148
751.8271
749.8989
747.6759
745.1887
742.4671
739.5573
736.5128
733.3937
730.2643
727.1907
724.2381
721.4684
718.9375
716.6931
714.7725
713.2009
711.9902
711.1378
710.6263
710.4238
710.4845
710.7502
711.1519
711.613
712.0517
712.3851
712.5329
712.4217
711.9889
711.187
709.9865
708.3789
706.3782
704.0212
701.3663
698.4908
695.4861
692.4525
689.4912
686.6963
684.147
681.8988
679.9773
678.3728
677.0392
675.8953
674.8305
673.7155
672.416
670.8097
668.8059
666.3638
663.5099
660.3527
657.0883
653.991
651.3824
649.563
758.4161
758.067
757.4801
756.7109
755.6382
754.2701
752.5888
750.5975
748.3098
745.7508
742.9566
739.9731
736.8547
733.6619
730.46
727.3158
724.2961
721.4645
718.8792
716.5906
714.6392
713.0535
711.8484
711.0241
710.5654
710.4412
710.6053
710.9971
711.5435
712.1615
712.7616
713.2509
713.5384
713.5392
713.1795
712.4017
711.1684
709.4663
707.3089
704.7372
701.8193
698.6477
695.3348
692.0058
688.79
685.8107
683.1741
680.9582
679.2022
677.8991
676.9908
676.3681
675.876
675.325
674.5078
673.2224
671.302
668.648
665.26
661.2542
759.3129
759.4174
759.5233
759.5237
759.389
759.062
758.5056
757.6831
756.5679
755.1417
753.3967
751.3365
748.9756
746.34
743.4664
740.4011
737.1985
733.9197
730.6304
727.3988
724.2931
721.3793
718.7187
716.3651
714.3634
712.7465
711.5337
710.7293
710.3213
710.2805
710.5607
711.0996
711.8199
712.632
713.4369
714.1309
714.6096
714.7742
714.5364
713.8248
712.5904
710.8114
708.497
705.6898
702.4661
698.9342
695.2293
691.5067
687.9314
684.6659
681.8556
679.614
678.0083
677.0467
676.6688
676.7411
677.0599
677.3675
677.3897
676.9016
759.699
759.454
759.7515
759.9384
760.1944
760.4084
760.5565
760.588
760.4586
760.1246
759.5467
758.6915
757.5334
756.0557
754.2519
752.1265
749.6949
746.9834
744.0288
740.8772
737.5832
734.2079
730.8177
727.4817
724.2701
721.2517
718.4915
716.0481
713.9717
712.3008
711.0609
710.2615
709.8951
709.9357
710.3384
711.0395
711.9579
712.9975
714.0496
714.9983
715.7245
716.1126
716.0571
715.4689
714.2825
712.4626
710.009
706.9611
703.3996
699.446
695.2585
691.0251
686.9522
683.2509
680.1196
677.7247
676.1803
675.5273
675.7237
676.6494
760.4782
759.7129
759.8125
759.7849
759.9338
760.1495
760.4357
760.7564
761.0776
761.3582
761.5542
761.6197
761.5093
761.1802
760.594
759.7184
758.5291
757.0108
755.158
752.9759
750.4804
747.6978
744.6646
741.4263
738.037
734.5577
731.0547
727.5986
724.2616
721.1157
718.2305
715.6703
713.4918
711.7407
710.4496
709.6349
709.2951
709.4086
709.9326
710.8035
711.9372
713.2314
714.5684
715.8195
716.8504
717.5273
717.7246
717.3319
716.263
714.4631
711.9166
708.6532
704.7517
700.341
695.5978
690.7409
686.0196
681.6951
678.0071
675.1256
761.731
760.7491
760.5189
760.1885
760.005
759.9153
759.942
760.08
760.3217
760.65
761.0401
761.4595
761.87
762.2283
762.4885
762.6036
762.528
762.219
761.6391
760.7572
759.5504
758.0045
756.1153
753.8883
751.3395
748.4945
745.3889
742.067
738.5818
734.9933
731.3682
727.7777
724.2966
721.0008
717.965
715.2604
712.9512
711.0918
709.7231
708.8698
708.5372
708.7094
709.3471
710.3877
711.7451
713.3121
714.9626
716.556
717.9428
718.9707
719.4925
719.375
718.5082
716.8149
714.2596
710.8567
706.6772
701.8519
696.5621
691.0138
763.3949
762.4898
762.0161
761.498
761.0241
760.6032
760.258
760.0085
759.8718
759.8591
759.9749
760.2153
760.568
761.0118
761.5175
762.0485
762.5627
763.0136
763.3532
763.5332
763.5073
763.2333
762.6746
761.8015
760.5923
759.0342
757.1237
754.8666
752.2782
749.3829
746.2146
742.8155
739.2366
735.5366
731.7816
728.044
724.4011
720.9334
717.7219
714.8455
712.3776
710.382
708.9096
707.9941
707.6489
707.8642
708.605
709.81
711.392
713.2391
715.2174
717.1751
718.9483
720.3675
721.2667
721.4918
720.9122
719.4338
717.0158
713.6926
765.8868
764.8995
764.3093
763.6984
763.079
762.462
761.8538
761.274
760.7449
760.291
759.9367
759.7036
759.6082
759.6604
759.8617
760.2048
760.6726
761.2392
761.8702
762.5243
763.1549
763.7121
764.1451
764.404
764.4419
764.2172
763.6941
762.8447
761.6488
760.095
758.1805
755.9107
753.2998
750.3701
747.1525
743.686
740.0186
736.2069
732.316
728.4192
724.5971
720.9354
717.523
714.448
711.7946
709.6378
708.0395
707.0434
706.6714
706.9196
707.7563
709.1208
710.9229
713.045
715.3448
717.6599
719.8143
721.6282
722.9377
723.6341
770.4105
768.5743
767.7965
766.9398
766.176
765.4302
764.6899
763.9434
763.1912
762.4425
761.715
761.032
760.4207
759.9096
759.5255
759.2913
759.2238
759.3314
759.6133
760.058
760.6441
761.3399
762.1054
762.8935
763.6524
764.3281
764.8665
765.2158
765.3289
765.1648
764.6894
763.8771
762.7097
761.1776
759.2783
757.0168
754.4049
751.4615
748.213
744.6935
740.9463
737.0246
732.992
728.923
724.902
721.0218
717.3809
714.0795
711.2149
708.8757
707.1364
706.0517
705.6512
705.9356
706.8731
708.3989
710.4147
712.7929
715.3873
718.0588
778.8222
775.0669
773.707
772.1108
770.8583
769.7403
768.7454
767.8211
766.9331
766.0541
765.1677
764.2682
763.361
762.4611
761.5917
760.7819
760.0645
759.4727
759.0372
758.7837
758.7298
758.8836
759.2416
759.7885
760.4972
761.3299
762.2394
763.172
764.0696
764.873
765.5248
765.9715
766.166
766.0691
765.6497
764.8852
763.761
762.2691
760.4081
758.1812
755.5968
752.6681
749.4142
745.8621
742.0479
738.0194
733.8379
729.5789
725.3323
721.2005
717.2955
713.734
710.6315
708.0948
706.2147
705.0575
704.6579
705.0135
706.0831
707.7861
792.6308
786.3852
783.939
781.015
778.6739
776.613
774.8593
773.3506
772.0393
770.873
769.8023
768.7834
767.7806
766.7684
765.733
764.6724
763.597
762.5276
761.4942
760.5332
759.6844
758.9877
758.4793
758.1889
758.1362
758.329
758.7615
759.4138
760.2524
761.2314
762.2953
763.382
764.426
765.3623
766.1297
766.6739
766.9491
766.9194
766.5587
765.8499
764.7831
763.3536
761.5603
759.404
756.8869
754.0135
750.7917
747.2364
743.3727
739.2399
734.8947
730.4143
725.8969
721.4609
717.2408
713.3814
710.0283
707.3154
705.35
704.1853
811.1444
803.2282
799.6174
795.2723
791.5012
788.026
784.9384
782.221
779.8617
777.8296
776.0835
774.5739
773.2464
772.0461
770.9206
769.8237
768.7184
767.5796
766.3949
765.1662
763.909
762.6509
761.4302
760.292
759.2854
758.4587
757.8558
757.5119
757.45
757.678
758.1875
758.9528
759.9323
761.0702
762.3004
763.55
764.7448
765.813
766.6903
767.3223
767.6671
767.6952
767.389
766.74
765.7458
764.4067
762.722
760.688
758.2971
755.5389
752.4031
748.8845
744.9897
740.7437
736.1969
731.4316
726.5653
721.7497
717.1579
712.9577
830.1987
822.9664
818.9611
814.0881
809.4161
804.8147
800.4206
796.2933
792.4904
789.0482
785.9847
783.2997
780.9755
778.9793
777.2659
775.7812
774.4659
773.2596
772.1049
770.9517
769.7601
768.5036
767.171
765.7671
764.3131
762.8447
761.4098
760.0647
758.8703
757.8863
757.1665
756.7536
756.6751
756.9394
757.5345
758.4273
759.5652
760.8794
762.2898
763.7104
765.0556
766.2465
767.2159
767.9121
768.3005
768.3632
768.0964
767.5058
766.6013
765.3902
763.8726
762.0372
759.8595
757.3044
754.33
750.8965
746.9791
742.5826
737.7524
732.5833
843.366
839.6096
836.6323
832.917
828.814
824.3881
819.7533
815.0209
810.2996
805.6903
801.2826
797.1513
793.3541
789.9297
786.8967
784.2543
781.9829
780.0464
778.3948
776.9678
775.6994
774.5217
773.3703
772.1883
770.9308
769.5682
768.089
766.501
764.8316
763.1257
761.4436
759.8561
758.439
757.267
756.4071
755.912
755.8147
756.124
756.8229
757.8677
759.1913
760.7071
762.3162
763.9154
765.4051
766.698
767.7254
768.4414
768.8248
768.8767
768.616
768.0718
767.2739
766.2428
764.9808
763.463
761.6345
759.4151
756.713
753.4534
845.579
846.7856
846.1001
845.0817
843.2137
840.6965
837.5509
833.8702
829.7495
825.2969
820.6262
815.8531
811.0901
806.4426
802.0044
797.8546
794.0546
790.6456
787.6482
785.0613
782.8637
781.0154
779.4607
778.1317
776.953
775.8467
774.7381
773.5605
772.2612
770.8054
769.18
767.3954
765.4859
763.5084
761.5385
759.6654
757.9848
756.5909
755.5678
754.981
754.8704
755.2449
756.0798
757.3171
758.869
760.6248
762.4602
764.2482
765.871
767.2304
768.257
768.9156
769.2066
769.1633
768.8438
768.3184
767.6517
766.8846
766.0229
765.0346
836.5326
841.82
843.6966
845.7522
846.9156
847.3924
847.0912
846.0248
844.2113
841.6957
838.5433
834.8378
830.678
826.1738
821.4424
816.603
811.7731
807.0631
802.5728
798.387
794.5721
791.174
788.216
785.6982
783.5978
781.8706
780.4538
779.2699
778.2314
777.2469
776.2275
775.0933
773.7801
772.2452
770.4722
768.4738
766.2929
764.0008
761.6929
759.4823
757.4903
755.8364
754.6268
753.9437
753.8357
754.3113
755.3351
756.8287
758.6762
760.733
762.8389
764.8335
766.572
767.9407
768.87
769.3437
769.4007
769.1277
768.6462
768.093
821.1456
827.702
831.1854
835.2221
838.7763
841.9381
844.5519
846.5376
847.8208
848.3515
848.1019
847.0683
845.2709
842.7529
839.5792
835.8336
831.6158
827.0379
822.2203
817.2869
812.3608
807.5593
802.9896
798.7442
794.8972
791.5007
788.5829
786.1459
784.1662
782.5951
781.3615
780.3756
779.5349
778.7302
777.854
776.8082
775.513
773.9145
771.9909
769.7569
767.2654
764.6055
761.898
759.286
756.924
754.9645
753.5425
752.7622
752.6841
753.3159
754.6082
756.4556
758.7031
761.1586
763.6105
765.849
767.6917
769.0076
769.74
769.9304
806.8418
811.5156
814.9345
818.9851
823.1767
827.4439
831.6497
835.6647
839.3621
842.6222
845.3373
847.4146
848.78
849.3804
849.1856
848.1893
846.4094
843.8871
840.686
836.8893
832.5975
827.9247
822.9948
817.9371
812.8815
807.9539
803.271
798.9354
795.0315
791.6204
788.7375
786.3891
784.5517
783.1721
782.1698
781.4404
780.8622
780.3037
779.633
778.7285
777.4893
775.8459
773.7681
771.2719
768.4215
765.3278
762.1425
759.047
756.2384
753.9114
752.2397
751.3573
751.3424
752.2047
753.8786
756.2227
759.0301
762.0492
765.0181
767.7198
799.6186
800.6052
802.4733
804.7658
807.6829
811.0658
814.8633
818.9686
823.2712
827.6476
831.9684
836.1019
839.9194
843.2989
846.1297
848.3161
849.781
850.4678
850.3428
849.3965
847.6434
845.1219
841.8933
838.0397
833.6616
828.8749
823.8071
818.5934
813.3717
808.2782
803.4415
798.9774
794.9835
791.5336
788.6732
786.4153
784.7386
783.5858
782.8658
782.4572
782.215
781.9797
781.5887
780.8897
779.7542
778.0908
775.8571
773.068
769.7995
766.1877
762.4217
758.7303
755.3646
752.5756
750.5901
749.5852
749.6653
750.8451
753.0425
756.0868
801.0968
798.7982
798.6024
798.4818
799.0677
800.2259
802.0075
804.3876
807.3314
810.779
814.6501
818.8459
823.2528
827.7459
832.1935
836.4613
840.4176
843.9371
846.9057
849.2242
850.8113
851.6065
851.5719
850.6937
848.9823
846.4724
843.222
839.3109
834.8388
829.9228
824.6937
819.2927
813.8669
808.5641
803.5274
798.8891
794.7636
791.2416
788.383
786.2113
784.7097
783.8186
783.4358
783.4205
783.5999
783.7805
783.7611
783.3499
782.3818
780.7354
778.3491
775.2321
771.4715
767.2319
762.7482
758.3101
754.2389
750.8548
748.4322
747.1394
807.8928
804.5513
802.9971
801.227
799.8197
798.7605
798.1608
798.0891
798.602
799.7348
801.4998
803.8855
806.8563
810.3531
814.2954
818.5834
823.1015
827.7226
832.3117
836.7316
840.8465
844.5276
847.6566
850.1301
851.8624
852.7886
852.8662
852.0763
850.4247
847.9412
844.6795
840.716
836.1483
831.0931
825.6837
820.067
814.3992
808.8413
803.5532
798.6868
794.3783
790.7401
787.8519
785.7532
784.4361
783.8411
783.8561
784.3188
785.0242
785.7369
786.2076
786.1931
785.479
783.9025
781.373
777.8897
773.5526
768.5622
763.1996
757.774
813.7746
812.0454
810.5784
808.8255
806.9012
804.9207
802.9789
801.1907
799.6643
798.5041
797.8035
797.6417
798.0791
799.1554
800.8863
803.2629
806.2512
809.7929
813.8068
818.1918
822.83
827.5912
832.3368
836.9253
841.2168
845.078
848.3862
851.0336
852.9301
854.0064
854.2153
853.5332
851.9605
849.5216
846.2646
842.2609
837.6038
832.4077
826.8063
820.9502
815.0043
809.143
803.5448
798.3851
793.8271
790.0116
787.046
784.9931
783.861
783.5958
784.0774
785.1208
786.4832
787.8776
788.9921
789.5149
789.1651
787.7278
785.0903
781.2743
813.664
814.9281
814.7806
814.5309
813.7342
812.5624
811.03
809.2225
807.2271
805.1473
803.0941
801.1828
799.5281
798.2395
797.4161
797.1426
797.4851
798.4879
800.1713
802.5295
805.5305
809.1166
813.2063
817.6964
822.4659
827.3807
832.2975
837.0697
841.5525
845.6075
849.1076
851.9409
854.0135
855.2527
855.6075
855.0502
853.5763
851.2044
847.976
843.955
839.2274
833.9016
828.1075
821.9961
815.738
809.52
803.5407
798.0027
793.1029
789.0199
785.9
783.8416
782.8807
782.9785
784.0126
785.7735
787.9693
790.2434
792.2171
793.5645
806.9074
810.4677
811.8787
813.4879
814.5589
815.2206
815.3989
815.0989
814.3315
813.133
811.559
809.6845
807.6009
805.4129
803.2348
801.1862
799.3867
797.9516
796.9867
796.5832
796.814
797.7295
799.3553
801.6895
804.7027
808.338
812.5127
817.1208
822.0373
827.1222
832.2263
837.1965
841.8819
846.1388
849.8358
852.858
855.1094
856.5158
857.0251
856.6075
855.2549
852.9805
849.8177
845.8201
841.0618
835.6386
829.6697
823.2993
816.6976
810.0603
803.6055
797.5676
792.1868
787.695
784.2977
782.153
781.3468
781.8678
783.5947
786.3005
797.2583
801.0404
803.2245
805.8063
808.1888
810.3987
812.3269
813.9061
815.0729
815.781
816.0012
815.724
814.9607
813.7442
812.1285
810.1873
808.0122
805.7093
803.3957
801.1951
799.2329
797.6314
796.504
795.9504
796.0515
796.8658
798.4251
800.7329
803.7625
807.4576
811.7335
816.48
821.5655
826.8425
832.153
837.3356
842.2316
846.6916
850.5807
853.7826
856.2027
857.7693
858.4334
858.1677
856.9638
854.8308
851.7931
847.8897
843.1751
837.7224
831.6273
825.0138
818.0396
810.9004
803.8318
797.1081
791.0337
785.923
782.0621
779.6399
789.5751
791.7779
793.6237
795.84
798.2464
800.7851
803.3839
805.96
808.4286
810.704
812.704
814.3533
815.5875
816.3562
816.6262
816.3835
815.635
814.4097
812.7582
810.7521
808.4819
806.0548
803.5908
801.2182
799.0694
797.2748
795.9575
795.2278
795.1771
795.8737
797.3578
799.639
802.6942
806.4669
810.8691
815.7838
821.0702
826.5688
832.1097
837.5196
842.63
847.2847
851.3463
854.7004
857.2589
858.9596
859.7646
859.6567
858.6341
856.7056
853.8861
850.1946
845.6551
840.3006
834.1809
827.3736
820.0018
812.2497
804.3671
796.6436
786.0603
786.4343
787.3408
788.4257
789.8584
791.5729
793.57
795.8115
798.2513
800.8288
803.4724
806.1026
808.6346
810.9822
813.0611
814.7935
816.111
816.9584
817.2972
817.1073
816.3899
815.1683
813.4884
811.4183
809.047
806.4823
803.847
801.2752
798.9072
796.884
795.3409
794.4012
794.1702
794.7286
796.1276
798.3845
801.48
805.3571
809.9224
815.0486
820.5806
826.3423
832.1454
837.7996
843.1228
847.9501
852.1424
855.592
858.2244
859.9982
860.8996
860.9358
860.1246
858.485
856.0265
852.7419
848.6051
843.5821
837.6537
830.8602
785.0411
784.8567
785.0751
785.2993
785.7164
786.3291
787.1906
788.3271
789.756
791.479
793.4822
795.7362
798.1967
800.8056
803.4935
806.1819
808.7861
811.2191
813.3946
815.2311
816.6557
817.6073
818.0402
817.9272
817.2616
816.0595
814.3604
812.2277
809.7479
807.0286
804.1961
801.3909
798.7632
796.4667
794.6521
793.4598
793.0122
793.4066
794.7083
796.9449
800.1021
804.1218
808.9025
814.3023
820.1453
826.2305
832.343
838.2667
843.7981
848.7594
853.0092
856.4499
859.0318
860.7505
861.6402
861.7597
861.1728
859.9271
858.0414
855.5236
782.9072
783.7655
784.0683
784.3692
784.5534
784.7133
784.898
785.1698
785.5863
786.1997
787.0536
788.1801
789.5984
791.3131
793.3132
795.5726
798.0499
800.6901
803.4259
806.1805
808.8697
811.4056
813.6995
815.666
817.2264
818.3126
818.8704
818.8633
818.2751
817.1125
815.4068
813.215
810.6197
807.728
804.6693
801.5915
798.6564
796.0333
793.8918
792.3934
791.6829
791.8791
793.0663
795.2862
798.5321
802.7453
807.8141
813.5768
819.8286
826.3326
832.8337
839.0759
844.8207
849.8654
854.0603
857.3217
859.6385
861.0675
861.7173
861.7315
777.3845
779.8439
780.8386
781.9815
782.8083
783.4468
783.8943
784.1972
784.4036
784.57
784.7566
785.0242
785.4309
786.0297
786.865
787.9707
789.3683
791.0651
793.0538
795.3119
797.8018
800.4723
803.2593
806.0879
808.8752
811.5323
813.9681
816.0927
817.8207
819.0756
819.7931
819.9255
819.4448
818.3464
816.6512
814.4078
811.6934
808.6133
805.2996
801.9079
798.6129
795.6019
793.0667
791.1952
790.1601
790.1084
791.1503
793.3482
796.7086
801.1751
806.6263
812.8771
819.6859
826.7664
833.8048
840.4818
846.5003
851.6146
855.6598
858.5829
769.6567
772.6635
774.2641
776.1766
777.8653
779.3947
780.7062
781.7897
782.6442
783.2843
783.7379
784.0446
784.2529
784.4181
784.5992
784.8559
785.246
785.8223
786.6302
787.7052
789.0713
790.7395
792.7064
794.9542
797.4505
800.1485
802.9882
805.8978
808.7956
811.5923
814.1942
816.506
818.4349
819.8945
820.809
821.1176
820.7787
819.7741
818.1122
815.8312
813.0008
809.7229
806.1307
802.3868
798.6785
795.2123
792.2052
789.8751
788.4289
788.0494
788.882
791.0205
794.4955
799.2643
805.2042
812.111
819.7035
827.6398
835.5523
843.108
763.9534
765.4151
766.8147
768.5362
770.399
772.3246
774.237
776.0673
777.7596
779.2702
780.57
781.6443
782.4933
783.1311
783.5846
783.8917
784.0992
784.2605
784.4326
784.6739
785.041
785.5867
786.3572
787.3898
788.7118
790.3381
792.2708
794.4978
796.9926
799.7143
802.6079
805.6053
808.6265
811.5818
814.3741
816.9026
819.0659
820.7665
821.9158
822.4386
822.2782
821.4013
819.8024
817.5072
814.576
811.1045
807.2248
803.1034
798.9377
794.9512
791.3849
788.4878
786.5045
785.6614
786.1508
788.1154
791.6312
796.6924
803.2053
810.9882
765.0171
763.0978
763.2286
763.4669
764.2817
765.4457
766.9216
768.6169
770.4516
772.3456
774.225
776.0241
777.6883
779.1753
780.4565
781.5175
782.3583
782.9918
783.4437
783.7497
783.9546
784.1091
784.268
784.4877
784.8235
785.328
786.0482
787.024
788.2863
789.8554
791.7397
793.9341
796.4194
799.1618
802.1119
805.2057
808.365
811.4992
814.5074
817.2817
819.7111
821.6864
823.105
823.877
823.9304
823.2168
821.7164
819.4421
816.4433
812.8072
808.6605
804.1682
799.5314
794.9825
790.7785
787.1926
784.5036
782.9804
782.8563
784.2778
775.104
769.448
767.6425
765.5745
764.3204
763.5856
763.4106
763.7343
764.5027
765.6463
767.0891
768.7508
770.5501
772.4086
774.2534
776.0202
777.6555
779.1179
780.3796
781.4264
782.2578
782.886
783.3348
783.6379
783.8371
783.9804
784.1196
784.3088
784.6019
785.0508
785.7041
786.6046
787.7882
789.2818
791.1015
793.251
795.7199
798.4822
801.495
804.6982
808.0147
811.3515
814.6022
817.6502
820.3734
822.6495
824.362
825.407
825.6987
825.1761
823.808
821.597
818.5835
814.8468
810.5056
805.7161
800.6703
795.5914
790.7217
786.2863
792.2267
784.4138
780.9068
776.7775
773.3207
770.3017
767.8376
765.942
764.6283
763.8865
763.6893
763.9928
764.739
765.8592
767.2769
768.9117
770.6828
772.512
774.3275
776.066
777.6752
779.1148
780.3579
781.3908
782.2128
782.8352
783.28
783.5782
783.7685
783.8952
784.0067
784.1541
784.3893
784.7642
785.329
786.1309
787.212
788.6078
790.3446
792.4369
794.8846
797.6707
800.759
804.0925
807.5931
811.163
814.6868
818.0359
821.0741
823.6639
825.6746
826.9895
827.5135
827.1798
825.9553
823.8435
820.885
817.1578
812.7735
807.8769
810.573
803.5045
799.4798
794.6624
790.0211
785.4802
781.1853
777.2276
773.6942
770.654
768.1579
766.2369
764.9015
764.1423
763.9312
764.223
764.9588
766.0682
767.4739
769.0945
770.8486
772.6584
774.4525
776.1688
777.7562
779.1762
780.403
781.4238
782.2381
782.8562
783.2979
783.5915
783.7712
783.877
783.9526
784.0453
784.2047
784.4826
784.9317
785.6051
786.5536
787.8242
789.4564
791.4784
793.9032
796.7241
799.9114
803.4095
807.1363
810.9839
814.8221
818.5037
821.872
824.7703
827.0518
828.5905
829.2907
829.0944
827.9876
826.0181
823.1163
819.547
816.6149
813.0122
808.9799
804.6102
800.0042
795.2838
790.5685
785.9777
781.6243
777.6108
774.0256
770.9403
768.4072
766.4581
765.1036
764.3336
764.1186
764.4117
765.1516
766.266
767.6752
769.2962
771.0463
772.8475
774.6288
776.3293
777.8998
779.3036
780.5174
781.5296
782.3402
782.9587
783.4027
783.696
783.8679
783.9518
783.9854
784.0106
784.0739
784.2268
784.5258
785.0318
785.8081
786.9171
788.4162
790.352
792.754
795.6283
798.9519
802.6689
806.6882
810.8847
815.1034
819.1674
822.8894
826.0878
828.6058
830.342
825.293
826.2928
825.6211
824.6524
822.8761
820.4679
817.4294
813.8409
809.7869
805.371
800.7074
795.918
791.1273
786.4581
782.0271
777.9403
774.2894
771.1488
768.5727
766.5941
765.2237
764.4505
764.2431
764.5521
765.313
766.4499
767.8798
769.5168
771.2764
773.0796
774.8557
776.5455
778.1024
779.493
780.697
781.7056
782.5198
783.1484
783.606
783.911
784.085
784.1529
784.1432
784.0902
784.0356
784.0301
784.1352
784.4223
784.9712
785.8657
787.1877
789.0092
791.383
794.3334
797.8474
801.8671
806.2863
810.9541
815.6891
820.3076
817.5976
821.9311
823.5663
825.3459
826.3821
826.81
826.5323
825.5392
823.8295
821.4293
818.3869
814.7718
810.6729
806.1949
801.4546
796.5769
791.6902
786.9218
782.3926
778.2136
774.4808
771.2723
768.6455
766.6348
765.2516
764.4837
764.2974
764.6393
765.4405
766.6199
768.0896
769.7593
771.5416
773.3559
775.1322
776.8136
778.3575
779.7356
780.9325
781.9438
782.7728
783.4278
783.9195
784.259
784.4573
784.5266
784.4824
784.347
784.1538
783.9513
783.8056
783.8014
784.0406
784.6371
785.7087
787.3659
789.6975
792.7553
796.5449
801.0231
805.241
810.1298
812.9816
816.2637
819.2562
821.9648
824.2521
826.0244
827.1969
827.7037
827.4989
826.559
824.8838
822.4972
819.4461
815.7997
811.6472
807.0944
802.2607
797.2745
792.2689
787.3763
782.724
778.4291
774.5936
771.3011
768.613
766.5667
765.1741
764.4218
764.2725
764.668
765.5325
766.7778
768.3087
770.0289
771.8464
773.6787
775.4566
777.1269
778.6531
780.0146
781.2043
782.2247
783.0836
783.7898
784.3491
784.7629
785.0274
785.1361
785.0844
784.8755
784.5283
784.0841
783.6125
783.2156
783.0277
783.2078
783.9251
785.3338
795.0825
797.8152
800.3024
803.2302
806.4365
809.7914
813.1951
816.5242
819.6612
822.4889
824.8966
826.7841
828.0648
828.6694
828.5486
827.6755
826.0462
823.6817
820.6264
816.9482
812.7356
808.0957
803.1505
798.0325
792.8803
787.8335
783.0271
778.5865
774.6222
771.2249
768.4622
766.3752
764.977
764.2526
764.1604
764.6347
765.5907
766.93
768.5471
770.3368
772.2008
774.0536
775.8273
777.4744
778.9677
780.2986
781.4731
782.5052
783.4112
784.2023
784.88
785.4327
785.8362
786.0565
786.0569
785.808
785.3016
784.5655
783.6713
782.7342
792.0039
791.3068
792.2141
793.338
795.114
797.3466
800.0207
803.0487
806.3442
809.8045
813.3181
816.7669
820.0307
822.9906
825.5332
827.5551
828.9656
829.6911
829.6777
828.8931
827.329
825.0016
821.9519
818.2449
813.9683
809.2296
804.1536
798.8775
793.547
788.3103
783.3127
778.6904
774.5649
771.0372
768.1829
766.0487
764.6499
763.9695
763.9598
764.5457
765.6294
767.0982
768.8321
770.7128
772.6324
774.5009
776.2522
777.8465
779.2706
780.5344
781.6647
782.6959
783.6608
784.5802
785.454
786.2549
786.9266
787.3909
787.56
787.362
796.8907
793.3105
792.3426
791.2795
790.8886
791.001
791.6828
792.9195
794.6952
796.9717
799.693
802.7859
806.1615
809.7181
813.3433
816.9183
820.3209
823.4299
826.1288
828.31
829.8782
830.7542
830.8778
830.2106
828.7377
826.4691
823.4405
819.713
815.3719
810.5249
805.2992
799.8376
794.2938
788.8267
783.5945
778.7476
774.4221
770.7325
767.7661
765.5775
764.1856
763.5716
763.6802
764.4231
765.6854
767.3336
769.2263
771.2258
773.2088
775.077
776.7644
778.2419
779.5171
780.6302
781.6446
782.6343
783.6662
784.7813
785.9793
787.2121
806.894
802.1956
799.9858
797.4331
795.2716
793.4161
791.97
790.9856
790.5145
790.5922
791.2385
792.4553
794.226
796.5145
799.2665
802.4098
805.8563
809.5044
813.2418
816.9487
820.5015
823.7764
826.6534
829.0205
830.7767
831.8362
832.1314
831.6157
830.266
828.0844
825.0992
821.3656
816.9652
812.0045
806.6127
800.938
795.1433
789.4005
783.8835
778.7609
774.1877
770.2971
767.1929
764.9418
763.5691
763.055
763.3355
764.3051
765.8243
767.7299
769.8481
772.0093
774.0641
775.8972
777.4398
778.678
779.6545
780.4613
781.2205
782.0494
817.3733
813.4617
811.1102
808.3235
805.5448
802.769
800.0825
797.5641
795.2953
793.3553
791.8175
790.7465
790.195
790.2018
790.789
791.9611
793.7036
795.9827
798.7459
801.923
805.4273
809.1583
813.0041
816.8447
820.5551
824.0094
827.0839
829.6617
831.6356
832.9124
833.4156
833.0892
831.8999
829.8397
826.9273
823.2098
818.7626
813.6889
808.1184
802.2041
796.1185
790.0479
784.1852
778.722
773.8386
769.6939
766.4156
764.0899
762.7538
762.3901
762.9249
764.2309
766.1346
768.4282
770.8863
773.2863
775.4331
777.1844
778.4739
779.3227
824.4011
822.3788
820.82
818.8984
816.7127
814.2907
811.6671
808.8998
806.0533
803.2023
800.4272
797.8119
795.4409
793.3959
791.7528
790.5789
789.9294
789.8458
790.353
791.4583
793.1501
795.3975
798.151
801.3429
804.889
808.6906
812.6371
816.6086
820.4796
824.122
827.4088
830.2181
832.4363
833.9621
834.7096
834.6121
833.6247