/*--------------------------------*- C++ -*----------------------------------*\
| =========                 |                                                 |
| \\      /  F ield         | OpenFOAM: The Open Source CFD Toolbox           |
|  \\    /   O peration     | Version:  2312                                  |
|   \\  /    A nd           | Website:  www.openfoam.com                      |
|    \\/     M anipulation  |                                                 |
\*---------------------------------------------------------------------------*/
FoamFile
{
    version     2.0;
    format      ascii;
    arch        "LSB;label=32;scalar=64";
    class       volScalarField;
    location    "5400";
    object      ILambda_15_0;
}
// * * * * * * * * * * * * * * * * * * * * * * * * * * * * * * * * * * * * * //

dimensions      [1 0 -3 0 0 0 0];

internalField   nonuniform List<scalar> 
12000
(
884.3668
818.5076
813.8909
805.9357
792.7953
777.6629
764.8137
756.1721
751.2333
748.522
747.0674
747.2318
750.3521
757.2775
766.9514
776.355
782.0468
782.1499
777.266
769.6879
761.6621
754.0655
746.3574
737.5999
727.6132
717.4232
708.8192
703.4556
702.1009
704.3931
709.0783
714.4733
718.9111
721.0823
720.2361
716.2739
709.7972
701.9916
694.2986
687.9696
683.8034
682.0517
682.5752
684.9801
688.6082
692.7126
696.6786
700.3743
703.6805
706.1085
707.2238
707.1128
706.1422
704.3341
701.574
697.7623
692.523
684.7103
670.8203
645.9478
860.4028
810.4759
809.6241
798.3181
783.873
769.8375
759.3518
752.9121
749.3102
747.2745
746.6501
748.4793
753.8954
762.6184
772.3456
779.7103
782.1603
779.3151
772.8289
764.9961
757.2469
749.5946
741.244
731.7035
721.5165
712.173
705.3945
702.3278
703.0957
706.8308
712.0333
717.0133
720.2713
720.7747
718.1228
712.624
705.2515
697.3857
690.4018
685.2985
682.5505
682.1562
683.8
686.9302
690.8345
694.8706
698.6839
702.1592
704.9842
706.6903
707.1178
706.5049
705.0654
702.7548
699.5081
695.1103
688.5172
676.9755
657.0047
630.7323
842.109
805.2699
803.9178
789.8532
775.4465
763.2785
755.1504
750.4322
747.735
746.4185
747.1278
751.0738
758.5934
768.1493
776.7009
781.2865
780.6352
775.6183
768.319
760.5389
752.8566
744.7816
735.682
725.6778
715.8838
707.9438
703.2615
702.4061
704.9423
709.6419
714.8788
719.0323
720.8187
719.5301
715.1672
708.4498
700.6383
693.1627
687.2096
683.4703
682.1204
682.9456
685.4769
689.0701
693.06
696.9779
700.6071
703.7386
705.9654
706.9657
706.7957
705.7043
703.7945
701.0357
697.3027
691.8157
682.3329
665.7082
642.3145
621.9131
828.6593
800.8616
796.7321
781.2131
768.0066
758.0832
751.9874
748.4727
746.5161
746.2837
748.8615
755.01
763.9357
773.1269
779.5057
781.0769
777.8582
771.481
763.8912
756.1687
748.2437
739.5257
729.8219
719.8461
711.0383
704.9183
702.4215
703.5524
707.4292
712.5882
717.3751
720.3129
720.3998
717.3125
711.4786
703.9736
696.212
689.5263
684.8287
682.4952
682.4459
684.2932
687.4597
691.2936
695.2506
699.0128
702.3781
705.0331
706.5977
706.9407
706.2353
704.6845
702.3532
699.178
694.6187
686.8887
673.0609
652.0733
630.2106
621.5486
818.5935
795.8569
788.5545
773.0953
761.835
754.0969
749.5418
746.9057
745.8735
747.2367
751.9654
759.9096
769.2027
776.9221
780.5821
779.3754
774.3012
767.2053
759.5323
751.6763
743.2483
733.887
723.9379
714.5521
707.2294
703.1632
702.7655
705.5439
710.2846
715.3955
719.2815
720.687
718.9634
714.2158
707.2765
699.4692
692.2121
686.6217
683.2953
682.3194
683.4072
686.0447
689.6113
693.5245
697.3784
700.93
703.9223
705.9967
706.8883
706.6293
705.4358
703.4778
700.779
696.986
690.7265
679.3649
660.9341
638.712
624.1108
630.2733
810.4195
789.74
780.1425
766.0086
756.9378
751.0243
747.5889
745.8285
746.141
749.4967
756.2334
765.1551
773.7091
779.1795
780.0537
776.6025
770.3462
762.9072
755.1105
746.8826
737.8474
728.0628
718.3559
710.0918
704.6024
702.6411
704.1129
708.1198
713.2227
717.7958
720.3901
720.0537
716.5518
710.4246
702.8324
695.2067
688.8301
684.5281
682.585
682.8427
684.8601
688.0542
691.8309
695.7181
699.4127
702.6715
705.1787
706.6102
706.8506
706.0481
704.4351
702.1418
698.9789
693.9285
684.7237
668.9531
647.6644
629.0438
625.9296
644.5627
802.9969
782.709
772.2278
760.1641
753.111
748.5946
746.109
745.5061
747.5961
753.0161
761.1889
770.0717
776.967
779.8418
778.2333
773.1599
766.2129
758.5491
750.4634
741.7045
732.156
722.3347
713.3903
706.676
703.1979
703.2326
706.2361
711.0007
715.9596
719.5464
720.549
718.3957
713.2981
706.1868
698.4296
691.4182
686.1932
683.2609
682.6247
683.9369
686.6599
690.2043
694.0538
697.843
701.3111
704.1752
706.1029
706.8689
706.5062
705.2436
703.3035
700.6544
696.5818
689.2127
676.0273
656.5346
636.0366
625.7529
634.942
659.8703
795.6952
775.3389
765.3003
755.4999
750.0912
746.6912
745.274
746.2263
750.3171
757.4725
766.2215
774.0939
778.7542
779.0829
775.4902
769.3364
761.9603
754.0142
745.4764
736.1824
726.3956
717.0097
709.298
704.4181
702.965
704.7567
708.876
713.8993
718.2271
720.4493
719.681
715.7866
709.4113
701.7821
694.3301
688.2774
684.3613
682.7796
683.3061
685.4641
688.6799
692.4115
696.2385
699.8638
703.0175
705.3812
706.6669
706.7872
705.9069
704.2964
702.0668
698.7721
692.9258
682.1207
664.8895
644.149
628.956
629.8671
648.3308
670.4426
788.349
768.2489
759.5427
751.8078
747.7001
745.3842
745.34
748.1527
754.1303
762.3573
770.7423
776.8662
779.0933
777.1972
772.1433
765.2773
757.5369
749.1862
740.1315
730.4708
720.844
712.369
706.2538
703.337
703.7787
706.987
711.7539
716.5324
719.7897
720.3718
717.7976
712.3857
705.1517
697.4889
690.7491
685.8913
683.3323
683.0009
684.503
687.2946
690.8215
694.6198
698.3488
701.7316
704.4669
706.241
706.8687
706.4151
705.1411
703.266
700.5812
695.9677
687.2657
672.471
652.6446
634.5165
628.5188
640.1876
660.7848
669.3393
781.0883
761.8877
754.8981
748.8821
745.9146
744.8666
746.5129
751.2404
758.6501
767.1073
774.3037
778.2649
778.1732
774.4921
768.4014
761.0042
752.8503
744.0099
734.5189
724.8037
715.7857
708.6335
704.3424
703.3691
705.4558
709.6651
714.5832
718.6369
720.4648
719.2627
714.9999
708.4193
700.7993
693.5552
687.84
684.3008
683.0531
683.8144
686.0875
689.3189
693.0131
696.7861
700.3399
703.3831
705.5986
706.7345
706.7489
705.8428
704.2913
702.0844
698.4453
691.5388
679.1519
660.9953
641.5735
630.1663
634.7231
652.2256
665.9879
659.6347
774.1585
756.4695
751.204
746.6221
744.8503
745.3455
748.8463
755.2326
763.3784
771.2282
776.6562
778.3569
776.2523
771.2107
764.3556
756.4677
747.8323
738.5225
728.8209
719.4494
711.4696
705.9449
703.5629
704.3824
707.7693
712.5128
717.0839
719.9886
720.1418
717.1606
711.4685
704.1544
696.6236
690.1775
685.6897
683.4881
683.4338
685.0985
687.9435
691.4518
695.2012
698.8656
702.1535
704.7539
706.3771
706.8864
706.3912
705.1651
703.3447
700.4608
695.0408
684.8987
668.8423
649.4314
634.226
632.0514
644.444
660.0936
663.4747
656.2612
767.7827
752.0234
748.3178
745.0589
744.684
746.9369
752.2031
759.7222
767.8174
774.3747
777.7419
777.3226
773.5752
767.4989
760.0092
751.6081
742.4824
732.8539
723.276
714.6675
708.0822
704.3619
703.8394
706.1908
710.4607
715.2452
719.0011
720.4233
718.7952
714.1909
707.4429
699.8682
692.8572
687.4893
684.3212
683.3897
684.3635
686.7343
689.9737
693.6271
697.3376
700.8057
703.7281
705.7992
706.8091
706.7648
705.89
704.4064
702.1048
697.8831
689.7435
675.9635
657.5256
640.0761
632.1899
638.5693
653.1115
662.0445
660.4923
664.2494
762.0993
748.4939
746.1884
744.3157
745.5589
749.6024
756.2798
764.245
771.5617
776.3756
777.6457
775.3765
770.3207
763.4122
755.327
746.405
736.8843
727.2043
718.1382
710.675
705.7351
703.8654
705.0327
708.5654
713.2525
717.5883
720.125
719.8531
716.4886
710.552
703.1932
695.8194
689.6781
685.5584
683.7032
683.9106
685.7245
688.6151
692.0998
695.7904
699.373
702.5503
705.0147
706.5077
706.9398
706.4526
705.2926
703.4501
700.1753
693.7597
682.2464
665.4257
647.0863
634.8099
635.1284
646.502
658.3083
661.6995
662.3042
671.8774
757.1754
745.8301
744.8612
744.5318
747.5089
753.1419
760.6745
768.3726
774.3482
777.2132
776.5256
772.7048
766.5877
758.9501
750.2859
740.9062
731.1973
721.8099
713.6409
707.627
704.4637
704.3676
706.9526
711.2475
715.8638
719.2979
720.3111
718.2773
713.3685
706.4922
698.9911
692.2247
687.2008
684.3919
683.7631
684.9394
687.4044
690.6512
694.2588
697.8927
701.2569
704.0501
705.9871
706.8997
706.8334
706.009
704.5497
702.0157
697.0404
687.6568
672.8271
654.6894
639.416
634.2199
641.102
653.2437
660.7776
662.4302
666.403
673.7869
753.0391
744.0334
744.4338
745.7858
750.4261
757.2323
764.9691
771.7772
776.0611
776.9717
774.5501
769.4347
762.4124
754.1003
744.9113
735.2333
725.6317
716.907
709.9708
705.6074
704.2319
705.7221
709.3682
713.9613
718.0282
720.1813
719.4954
715.7827
709.6471
702.2814
695.0828
689.2436
685.4753
683.9466
684.4022
686.3623
689.3039
692.7701
696.3983
699.8863
702.9406
705.2672
706.6416
707.0167
706.552
705.4383
703.4866
699.6833
692.2123
679.5298
662.4105
645.4581
635.6866
637.5039
647.8539
657.8946
662.0696
664.1141
669.8944
679.3697
749.7193
743.1546
744.9908
748.0454
754.0718
761.4937
768.8014
774.2589
776.7022
775.7797
771.8553
765.634
757.8024
748.8785
739.2932
729.5668
720.4158
712.7026
707.2533
704.6302
704.9404
707.7336
712.0202
716.4312
719.5156
720.1155
717.7009
712.5336
705.5777
698.1828
691.6676
686.9714
684.4941
684.143
685.5104
688.0738
691.3412
694.9133
698.4705
701.7229
704.3782
706.1782
706.9972
706.9164
706.1376
704.6546
701.7844
695.9659
685.4198
669.8753
652.3957
639.1922
636.0134
643.0623
653.7588
660.6143
662.9266
666.3023
675.3272
694.0276
747.2646
743.2572
746.5465
751.155
758.1226
765.5582
771.9076
775.7372
776.3434
773.7619
768.5299
761.3328
752.7741
743.3523
733.5827
724.1194
715.7659
709.3543
705.5478
704.6438
706.4352
710.1691
714.636
718.4015
720.1521
719.06
715.0354
708.7523
701.4265
694.4274
688.8856
685.4414
684.2042
684.8815
686.9802
689.9836
693.4501
697.0301
700.4269
703.3524
705.532
706.7816
707.1009
706.6621
705.573
703.435
698.996
690.4548
676.8098
659.7389
644.2958
636.6666
639.5555
649.1605
657.9636
661.9104
664.1376
670.7568
685.7211
710.1733
745.7371
744.3687
749.0144
754.8594
762.2294
769.1221
774.1335
776.2184
775.0806
771.0138
764.6237
756.5554
747.3815
737.6469
727.9731
719.1077
711.8625
706.9604
704.8486
705.5382
708.5165
712.77
716.9475
719.6581
719.8374
717.0611
711.6779
704.6937
697.4453
691.1962
686.8134
684.6334
684.5225
686.0564
688.7148
692.0173
695.5748
699.0707
702.2151
704.7273
706.3833
707.1094
707.0224
706.2839
704.7194
701.3977
694.6516
683.0362
667.0747
650.5147
639.286
637.7532
644.8601
654.369
660.3307
662.7971
667.3461
679.2755
698.8985
718.077
745.1883
746.4425
752.2088
758.8484
766.0725
771.9722
775.4181
775.7554
773.0003
767.5974
760.1711
751.3495
741.7295
731.935
722.6744
714.7261
708.8356
705.5573
705.0896
707.1519
710.9496
715.2684
718.7122
720.0479
718.5547
714.2449
707.8578
700.6173
693.8487
688.6097
685.4693
684.4876
685.3509
687.5673
690.6316
694.1128
697.6632
700.9818
703.7828
705.8162
706.9472
707.2258
706.819
705.7122
703.274
698.072
688.4625
674.0807
657.3779
643.5478
637.8189
641.4898
650.3316
657.9137
661.5666
664.922
673.9918
690.7613
709.2936
716.095
745.6299
749.3439
755.8726
762.8083
769.3974
773.9848
775.7622
774.412
770.1668
763.5556
755.2186
745.8051
735.9716
726.4163
717.888
711.1289
706.758
705.121
706.1503
709.2811
713.4782
717.4062
719.7338
719.4936
716.3711
710.8023
703.8284
696.7619
690.7991
686.7282
684.8233
684.9194
686.5889
689.3247
692.6609
696.2136
699.6613
702.7092
705.0892
706.6175
707.2748
707.199
706.4738
704.7251
700.8063
693.0688
680.5293
664.4651
649.0515
639.7006
639.4891
646.4367
654.7612
659.9599
663.1416
669.7952
683.68
701.5376
713.3296
710.2334
747.0125
752.8608
759.719
766.4628
772.0279
775.1063
775.1961
772.2436
766.6266
758.9351
749.8455
740.059
730.2951
721.2936
713.7858
708.4201
705.6449
705.5721
707.8626
711.6907
715.8412
718.956
719.8809
718.0005
713.4283
706.9659
699.8402
693.3254
688.3997
685.5575
684.8112
685.8332
688.1418
691.2504
694.7406
698.2646
701.5145
704.2069
706.119
707.1655
707.4325
707.048
705.8401
702.9582
696.8889
686.2807
671.4298
655.3768
643.1906
639.0891
643.223
651.2117
657.7564
661.5732
666.6212
677.6401
693.9962
708.1973
712.1537
708.5493
749.2181
756.7329
763.4722
769.596
773.8584
775.3261
773.7555
769.293
762.4254
753.8077
744.1746
734.2859
724.9006
716.7508
710.4969
706.6491
705.4556
706.7801
710.0194
714.128
717.7925
719.741
719.0986
715.6541
709.9252
702.9845
696.1179
690.4528
686.6968
685.0607
685.3484
687.1326
689.9239
693.2756
696.8126
700.211
703.174
705.4484
706.8889
707.5168
707.4605
706.6901
704.6306
699.9925
691.2704
678.0082
662.1263
647.9843
640.3331
641.1058
647.7082
654.9883
659.8436
664.1908
672.7224
687.003
702.028
710.1071
710.5615
716.3655
752.0706
760.6882
766.8955
772.0562
774.834
774.6517
771.4721
765.6012
757.6272
748.2833
738.3682
728.6817
719.9797
712.9373
708.1008
705.8115
706.0979
708.5708
712.3861
716.3406
719.1214
719.6515
717.4127
712.6086
706.0947
699.0979
692.8431
688.2324
685.6868
685.1711
686.3415
688.7261
691.8586
695.3375
698.8214
702.0026
704.6055
706.4342
707.4407
707.7199
707.3258
705.9164
702.4686
695.4934
684.0173
668.9516
653.7313
643.116
640.3478
644.6938
651.8757
657.7426
662.1384
668.8296
680.8029
695.564
706.3581
709.9298
713.7751
732.5505
755.3559
764.4748
769.805
773.7451
774.9293
773.0958
768.3766
761.2235
752.3306
742.5128
732.6165
723.4428
715.6977
709.9577
706.6253
705.8511
707.4324
710.7349
714.7157
718.0965
719.6715
718.6541
714.9245
709.0675
702.1786
695.5165
690.1452
686.6987
685.3278
685.8043
687.6966
690.5299
693.8773
697.3782
700.7155
703.5996
705.7959
707.1901
707.8217
707.7766
706.8908
704.4115
698.9876
689.3478
675.567
660.0742
647.226
641.0608
642.5461
648.7454
655.2434
660.1426
665.7288
675.5068
689.2054
701.6182
708.0947
711.8375
723.5956
749.5229
758.848
767.8801
772.0663
774.6005
774.1316
770.6735
764.5123
756.2453
746.6741
736.6793
727.1182
718.7469
712.1807
707.8683
706.0474
706.6638
709.28
713.0404
716.7667
719.203
719.3546
716.7931
711.7973
705.2615
698.4053
692.4062
688.099
685.8406
685.551
686.8684
689.3242
692.4687
695.9183
699.3449
702.4516
704.9782
706.7546
707.7547
708.0544
707.6086
705.91
701.8183
693.9524
681.7549
666.6767
652.3851
643.2234
641.5411
645.9579
652.4735
657.9952
663.134
671.0933
683.2467
696.2725
705.1749
710.0367
718.3096
736.9878
760.8303
762.331
770.7365
773.5832
774.5803
772.436
767.412
759.9495
750.7917
740.8324
730.9821
722.0615
714.7393
709.5103
706.6764
706.2967
708.1026
711.4306
715.2476
718.3219
719.5241
718.1573
714.1828
708.237
701.4241
694.9704
689.8819
686.729
685.6116
686.272
688.2711
691.1426
694.4757
697.9263
701.1915
703.9978
706.1334
707.5079
708.159
708.1052
707.0395
704.0635
697.8324
687.3651
673.2431
658.2822
646.706
641.8382
643.85
649.6653
655.625
660.78
667.433
677.8801
690.6798
701.3341
707.7961
714.5307
728.5133
749.583
767.1903
765.615
772.9154
774.2842
773.6548
769.8494
763.3629
754.7969
745.0265
735.0034
725.6183
717.6087
711.5238
707.7205
706.3424
707.2585
709.9845
713.6563
717.1269
719.2076
718.9922
716.14
710.9933
704.4701
697.7713
692.0253
688.0063
686.0169
685.9408
687.3997
689.9254
693.079
696.4922
699.8529
702.8807
705.3372
707.0775
708.0863
708.4001
707.8593
705.803
701.0235
692.3086
679.53
664.6023
651.2978
643.4799
642.6941
647.1023
653.086
658.474
664.3376
673.1809
685.1491
696.8179
704.957
711.3889
722.1453
740.1191
759.5135
770.0564
768.5363
774.3165
774.1131
771.8072
766.4016
758.6151
749.2044
739.1439
729.3913
720.7656
713.8845
709.1593
706.7998
706.7824
708.7793
712.1007
715.7264
718.4778
719.3081
717.6122
713.4278
707.4307
700.721
694.4852
689.6716
686.7945
685.9119
686.7435
688.8438
691.7522
695.0699
698.4671
701.657
704.3863
706.4688
707.8341
708.504
708.4132
707.1108
703.5833
696.5482
685.352
671.0492
656.736
646.4038
642.6753
645.0715
650.5282
656.1193
661.6135
669.1264
679.9096
691.8881
701.5017
708.4304
717.1722
732.1549
751.3268
765.8538
766.1594
770.9583
774.8576
773.0276
769.0424
762.158
753.3004
743.358
733.3519
724.188
716.5692
710.9708
707.6594
706.6929
707.8726
710.6741
714.2288
717.4251
719.1456
718.575
715.4586
710.1953
703.716
697.1937
691.7033
687.9608
686.2218
686.3412
687.9293
690.5198
693.6824
697.0607
700.3561
703.3058
705.6956
707.4056
708.4238
708.7333
708.0515
705.5796
700.0877
690.5811
677.3623
662.7332
650.4605
643.882
643.8268
648.1607
653.7147
659.1015
665.6304
675.1034
686.7919
697.4913
705.365
713.0824
725.44
743.2022
760.1201
766.4581
756.6028
772.7638
774.4711
771.0055
765.399
757.2279
747.592
737.4663
727.8548
719.5582
713.1333
708.9052
706.995
707.3041
709.4544
712.7367
716.1491
718.5693
719.0343
717.0299
712.6648
706.647
700.064
694.0567
689.5148
686.8994
686.2333
687.2193
689.4103
692.3523
695.6565
699.0041
702.1221
704.7774
706.8104
708.1672
708.8437
708.6795
707.0838
702.9611
695.1424
683.3277
669.0014
655.437
646.3084
643.5645
646.2172
651.3402
656.6978
662.5785
670.795
681.742
693.0388
702.0163
709.5121
719.7949
735.5188
753.0864
763.8934
761.5776
752.5123
773.8489
773.1075
768.0559
760.959
751.7658
741.6937
731.743
722.8363
715.6289
710.5187
707.6824
707.0964
708.5018
711.3422
714.7522
717.6607
719.0232
718.1139
714.7593
709.4081
702.9973
696.6665
691.4348
687.9608
686.4569
686.7544
688.4577
691.1053
694.2761
697.6235
700.8592
703.7357
706.0627
707.7441
708.764
709.0408
708.1653
705.2226
699.0072
688.7834
675.2721
661.0796
649.8629
644.4072
644.9255
649.1371
654.3619
659.8551
666.9901
676.9106
688.2897
698.2884
706.1696
715.0464
728.5749
745.6298
759.2482
762.2819
757.1325
762.0235
774.1222
770.7459
764.23
755.8532
745.9652
735.8245
726.389
718.4463
712.4844
708.7429
707.2568
707.8578
710.1236
713.3341
716.5128
718.5979
718.71
716.4208
711.9033
705.8901
699.4511
693.6792
689.4052
687.0402
686.5749
687.7002
689.9712
692.9428
696.2356
699.5394
702.5917
705.1788
707.1661
708.5112
709.1732
708.8891
706.939
702.1851
693.62
681.3113
667.1168
654.3821
646.3959
644.4821
647.2858
652.1176
657.3634
663.6518
672.4275
683.4131
694.1565
702.8075
710.985
722.4849
738.2689
753.4542
760.8211
759.1956
759.654
777.8905
773.5088
767.4067
759.6291
750.2576
740.0441
730.1995
721.577
714.7934
710.1649
707.7828
707.5464
709.1409
711.9852
715.224
717.8333
718.8439
717.6164
714.0516
708.6398
702.3176
696.188
691.2143
687.9999
686.7171
687.1779
688.9843
691.6825
694.8616
698.1829
701.3656
704.1759
706.4463
708.1002
709.1083
709.3135
708.1831
704.7153
697.779
686.9303
673.2808
659.6486
649.4883
645.03
645.9821
650.048
655.0417
660.7153
668.3769
678.591
689.6707
699.2283
707.3644
717.2542
731.3163
746.9594
757.6768
759.9584
759.6828
768.5019
785.9504
771.9601
763.162
754.4046
744.3828
734.2275
725.013
717.4409
711.9417
708.669
707.5782
708.436
710.7817
713.8902
716.8174
718.5658
718.3398
715.792
711.151
705.1663
698.8852
693.3511
689.3381
687.2103
686.9308
688.1823
690.5252
693.5245
696.8095
700.0759
703.0706
705.5975
707.5441
708.8709
709.4888
709.0276
706.6585
701.2465
691.9915
679.3268
665.4128
653.5655
646.6426
645.4111
648.2839
652.8746
658.1047
664.792
673.997
684.9528
695.3084
703.9141
712.789
725.006
740.1573
753.1379
759.1114
760.0946
764.6483
776.5937
783.9948
769.4649
758.1409
748.7508
738.4575
728.7288
720.4251
714.0705
709.9119
707.9571
708.0354
709.7827
712.5983
715.6432
717.945
718.6118
717.0879
713.3416
707.8963
701.6814
695.76
691.0402
688.0734
686.9964
687.6059
689.5053
692.2503
695.4398
698.7409
701.8789
704.6324
706.854
708.4803
709.4562
709.5406
708.0873
704.0462
696.4101
685.0475
671.4153
658.4462
649.3163
645.7223
646.9856
650.8994
655.7518
661.6568
669.7707
680.1773
691.0215
700.3782
708.8924
719.4733
733.4383
747.5752
756.7115
759.9002
762.6338
770.3415
779.8797
785.883
766.0595
752.526
742.8907
732.7094
723.7331
716.5526
711.5101
708.6847
707.9553
709.032
711.4222
714.4018
717.0633
718.4768
717.9293
715.149
710.4128
704.4794
698.3685
693.0727
689.3113
687.4057
687.2961
688.6612
691.0695
694.0966
697.3789
700.6164
703.5632
706.0397
707.9502
709.2474
709.7819
709.0789
706.2294
700.1502
690.2835
677.4088
663.9068
652.9718
647.0107
646.3198
649.2033
653.6158
658.9187
665.9959
675.5355
686.4424
696.5674
705.2944
714.717
727.1474
741.4023
752.9375
758.7786
761.4617
766.135
773.9201
783.2517
803.0587
761.8339
746.5417
737.0573
727.3473
719.3859
713.4664
709.762
708.2051
708.5602
710.4219
713.1769
716.0082
717.9981
718.3321
716.5344
712.6343
707.1808
701.0902
695.3827
690.9114
688.1792
687.2916
688.035
690.0179
692.8071
696.0103
699.299
702.4021
705.1094
707.2903
708.8848
709.8002
709.7072
707.8651
703.2183
694.9276
683.1757
669.7037
657.4644
649.304
646.4349
647.9115
651.6981
656.51
662.6945
671.1976
681.7257
692.3992
701.7121
710.5906
721.521
735.0623
748.0432
756.5293
760.4336
763.6114
769.148
777.7398
794.0267
828.5787
756.9289
740.4369
731.4746
722.5457
715.7865
711.1919
708.79
708.3874
709.6434
712.0418
714.8664
717.2513
718.3351
717.4845
714.4978
709.6929
703.8311
697.9005
692.8421
689.3225
687.624
687.6687
689.1357
691.6038
694.6595
697.9449
701.1621
704.0717
706.5072
708.3831
709.6323
710.0378
709.0296
705.6533
698.9224
688.5407
675.5949
662.6008
652.5593
647.4397
647.1688
650.0474
654.3731
659.8357
667.2826
677.0662
687.9093
697.9181
706.8391
716.6301
728.9689
742.3945
753.086
758.9717
762.0239
765.8143
772.7591
786.2688
812.2259
848.3094
751.5327
734.4631
726.3401
718.4352
712.987
709.7137
708.5252
709.1195
711.057
713.7198
716.3192
717.9955
718.0102
715.9625
711.9353
706.4963
700.5436
695.0531
690.824
688.3135
687.6005
688.4651
690.5238
693.3555
696.5758
699.8588
702.9361
705.6065
707.7511
709.3038
710.1246
709.7985
707.5152
702.2553
693.3767
681.3595
668.1587
656.6688
649.3876
647.1174
648.7563
652.4817
657.358
663.8439
672.6535
683.2335
693.7927
703.1716
712.3697
723.4182
736.437
748.569
756.6761
760.7083
763.5823
768.6728
779.5309
800.6549
831.6765
857.9041
745.8657
728.8536
721.8117
715.0981
710.9945
708.9801
708.8712
710.2687
712.6406
715.2855
717.3844
718.1454
717.0117
713.8447
708.9957
703.2225
697.4787
692.6543
689.366
687.8611
688.0475
689.6078
692.1324
695.2182
698.5114
701.7151
704.5948
706.9945
708.8312
710.0088
710.2398
708.8749
704.9487
697.6055
686.8106
673.9079
661.4711
652.2685
647.874
647.947
650.8537
655.1952
660.8734
668.6328
678.5646
689.3434
699.3413
708.5029
718.5245
730.6045
743.2843
753.356
759.1072
762.0452
765.6152
773.8141
790.9829
818.4418
846.8943
856.6014
740.1585
723.8058
718.0005
712.5687
709.7765
708.9097
709.7092
711.6871
714.2292
716.5806
717.943
717.6528
715.3789
711.2501
705.8456
700.041
694.7669
690.7714
688.4701
687.9195
688.8968
691.0276
693.9024
697.1433
700.425
703.4812
706.1185
708.2246
709.7196
710.4109
709.8055
707.0496
701.1934
691.8043
679.6284
666.7688
656.0086
649.5117
647.7519
649.5532
653.3028
658.319
665.0823
674.101
684.6877
695.2074
704.7443
714.2124
725.2146
737.655
749.0622
756.7993
760.7191
763.4891
769.2872
782.7734
806.6616
835.769
853.3937
839.8199
734.6376
719.4686
714.9682
710.8373
709.267
709.3972
710.9036
713.2183
715.6634
717.4696
717.916
716.519
713.1965
708.3254
702.6545
697.1003
692.5033
689.4343
688.1108
688.4301
690.0801
692.6623
695.7816
699.0861
702.2788
705.1297
707.4914
709.2776
710.3575
710.3753
708.6199
704.1437
696.2415
685.126
672.3462
660.4784
652.0479
648.2911
648.6813
651.6753
656.1124
662.0116
670.0014
680.0091
690.7586
700.8474
710.2687
720.3995
732.1017
744.0621
753.5736
759.1101
761.9847
765.9667
776.0126
796.0291
824.0188
847.3685
846.8447
812.5572
729.5075
715.9366
712.7298
709.8563
709.3736
710.3184
712.308
714.706
716.7986
717.8499
717.2699
714.7922
710.5846
705.2312
699.5812
694.5195
690.7465
688.6415
688.2434
689.3292
691.5336
694.4561
697.7216
701.0039
704.0381
706.6383
708.6967
710.1144
710.6448
709.7273
706.4875
700.0669
690.2415
677.9882
665.5054
655.4396
649.6523
648.3593
650.3534
654.1974
659.3783
666.3587
675.5043
686.0968
696.6678
706.4276
716.102
726.928
738.7433
749.4663
756.8282
760.6534
763.6787
770.7562
786.7371
812.2017
838.3649
848.0294
828.9404
793.1478
724.937
713.2492
711.2585
709.5474
709.9829
711.5369
713.772
716.0024
717.5152
717.6581
716.0172
712.5614
707.6868
702.128
696.7626
692.3836
689.5206
688.3666
688.8131
690.5537
693.1989
696.3575
699.676
702.8562
705.6734
707.9879
709.7078
710.6649
710.4398
708.2756
703.2636
694.8571
683.4958
670.8909
659.5868
651.8752
648.7072
649.4194
652.5515
657.1157
663.1961
671.3368
681.3947
692.1865
702.4569
712.129
722.2564
733.4861
744.722
753.6873
759.0271
762.0607
766.9416
779.0227
801.0211
827.7508
844.6863
837.3843
809.7879
792.9446
721.0481
711.3954
710.4933
709.8084
710.9676
712.9092
715.1487
716.9773
717.726
716.8736
714.2134
709.9465
704.6566
699.1634
694.307
690.7435
688.8216
688.5678
689.761
692.0441
695.0215
698.3164
701.5989
704.606
707.1603
709.1574
710.4774
710.8209
709.5697
705.8463
698.8965
688.6982
676.427
664.3415
654.9428
649.822
648.9825
651.197
655.1617
660.482
667.6097
676.8436
687.4946
698.2185
708.2357
718.0315
728.5581
739.6924
749.7366
756.7506
760.6371
764.3168
773.0021
791.0034
816.4883
838.2055
841.0531
821.5487
799.6913
805.897
717.9167
710.3211
710.3459
710.5201
712.1914
714.2922
716.3028
717.5263
717.382
715.5186
711.95
707.0863
701.6446
696.4635
692.2907
689.6197
688.6246
689.1943
691.0288
693.7442
696.9486
700.283
703.447
706.2222
708.4779
710.115
710.9274
710.4368
707.8538
702.3237
693.4608
681.9133
669.5224
658.7811
651.7597
649.1589
650.199
653.4829
658.1549
664.3588
672.6088
682.7543
693.6906
704.2073
714.0745
724.0618
734.7172
745.2129
753.6713
758.9424
762.4554
768.6002
782.5394
805.3532
829.4476
840.6224
830.2502
808.6986
801.1729
819.4803
715.5686
709.9387
710.709
711.5526
713.5157
715.5493
717.1184
717.5771
716.4742
713.6541
709.345
704.1266
698.7881
694.1269
690.7591
689.0076
688.8909
690.192
692.5598
695.599
698.9269
702.2079
705.1814
707.68
709.6029
710.8074
710.9429
709.3416
705.1372
697.6894
687.1705
674.9313
663.2655
654.5248
650.05
649.6541
652.0865
656.1519
661.5638
668.8007
678.1503
688.9563
699.9151
710.1611
719.9405
730.0305
740.4414
749.8549
756.643
760.8454
765.5206
775.8303
795.0502
819.3019
836.6013
835.372
818.022
803.7467
809.3802
824.4393
713.9843
710.1366
711.4623
712.7713
714.8056
716.5584
717.506
717.0938
715.0328
711.3723
706.5316
701.2082
696.2031
692.223
689.7302
688.8843
689.5743
691.5061
694.2979
697.5523
700.9022
704.0452
706.771
708.9584
710.4997
711.1493
710.3742
707.364
701.3303
692.0516
680.3698
668.2329
658.0664
651.7238
649.672
651.0225
654.4319
659.1705
665.4658
673.8472
684.1683
695.3383
706.0948
716.0285
725.7161
735.7271
745.5316
753.6093
759.0177
763.2948
770.8244
786.1339
808.7065
829.7201
836.7299
825.8911
809.6521
806.2547
816.5782
817.2471
713.1061
710.7886
712.4788
714.043
715.936
717.2176
717.4072
716.0773
713.1222
708.7881
703.647
698.4583
693.9799
690.793
689.2002
689.215
690.6244
693.0809
696.1855
699.5465
702.8221
705.7561
708.1927
710.033
711.1089
711.0183
709.0517
704.3668
696.4471
685.6549
673.4972
662.2819
654.2019
650.3547
650.3741
652.9899
657.1165
662.594
669.9604
679.505
690.555
701.7586
712.12
721.7147
731.2732
741.0012
749.9161
756.6548
761.3941
767.218
778.9054
798.5425
820.8966
834.5065
831.2495
816.6918
807.2094
811.5047
816.759
802.5155
712.8457
711.7615
713.6308
715.2411
716.7978
717.4515
716.7973
714.5638
710.8341
706.0282
700.823
695.9842
692.1823
689.8542
689.1492
689.9572
691.9882
694.8585
698.1623
701.5237
704.64
707.3118
709.4265
710.8644
711.3371
710.2601
706.8132
700.2876
690.6303
678.8662
667.0276
657.4542
651.7786
650.2427
651.861
655.3548
660.1374
666.5446
675.1294
685.7111
697.135
708.0356
717.8695
727.144
736.5357
745.7828
753.6426
759.3554
764.5354
773.3591
789.4984
811.1473
829.2258
833.4962
823.3418
810.9441
808.9169
813.9402
809.475
790.2999
713.0931
712.9221
714.7946
716.2517
717.3033
717.2142
715.6858
712.6197
708.2791
703.2216
698.1775
693.8693
690.8493
689.4046
689.546
691.0633
693.609
696.7773
700.1661
703.4296
706.3193
708.6917
710.4468
711.3857
711.0535
708.7067
703.541
695.1743
684.1563
672.1323
661.4002
653.9803
650.7289
651.1153
653.869
658.0348
663.598
671.1603
680.9796
692.3
703.6695
713.9898
723.2753
732.3084
741.482
750.0562
756.8757
762.2546
769.216
781.9603
801.4408
821.7077
832.4666
828.385
816.2324
809.1049
811.0058
811.1356
799.6603
786.0927
713.7251
714.1429
715.8556
716.9781
717.3902
716.4909
714.113
710.3349
705.5771
700.4912
695.8101
692.1736
689.9986
689.4273
690.3508
692.4798
695.4256
698.7721
702.1361
705.2192
707.8346
709.8772
711.2088
711.4939
710.0994
706.207
699.2023
689.2055
677.4127
665.9165
656.9488
651.9153
650.8452
652.6809
656.2336
661.0786
667.6593
676.5222
687.3945
699.0089
709.9113
719.5172
728.3658
737.253
746.0963
753.8477
759.93
766.0267
775.9811
792.5374
812.9384
828.4493
830.9597
821.7582
811.6975
809.4028
810.6521
804.8505
792.3122
785.8623
714.6133
715.3066
716.713
717.3452
717.0239
715.2976
712.146
707.815
702.8491
697.9469
693.7992
690.9351
689.6302
689.8937
691.5166
694.1477
697.3715
700.7771
704.0188
706.8596
709.1688
710.84
711.6367
711.0499
708.3101
702.6662
693.8811
682.6878
670.8484
660.6252
653.8512
651.1488
651.8479
654.7082
658.9262
664.6318
672.4607
682.5874
694.1286
705.5383
715.6922
724.6394
733.2422
742.0057
750.337
757.274
763.3028
771.3357
784.8842
803.8831
822.1132
830.6688
826.2908
815.8609
809.6842
809.5736
807.4439
798.1304
788.002
784.0205
715.6304
716.3099
717.2832
717.3024
716.1982
713.6775
709.8718
705.1731
700.21
695.682
692.2023
690.1723
689.7296
690.7655
692.9882
696.0009
699.3772
702.7309
705.7724
708.3304
710.3035
711.5282
711.617
709.8917
705.5494
698.0839
687.7911
676.0231
664.9065
656.5438
652.113
651.4534
653.4682
657.0847
662.0414
668.8623
678.0392
689.1653
700.8623
711.6488
720.9859
729.4812
737.9928
746.5211
754.1824
760.6323
767.6329
778.5967
795.3142
814.3413
827.61
828.8835
820.509
811.8321
809.0019
808.2368
802.4408
792.3398
784.8435
781.4187
716.659
717.0663
717.5031
716.8248
714.9339
711.697
707.3909
702.5229
697.763
693.7714
691.0571
689.8873
690.2699
691.9943
694.7024
697.9683
701.375
704.5824
707.3693
709.6168
711.2059
711.8557
711.0028
707.8616
701.7485
692.58
681.2634
669.6545
659.954
653.7984
651.5923
652.5596