/*--------------------------------*- C++ -*----------------------------------*\
| =========                 |                                                 |
| \\      /  F ield         | OpenFOAM: The Open Source CFD Toolbox           |
|  \\    /   O peration     | Version:  2312                                  |
|   \\  /    A nd           | Website:  www.openfoam.com                      |
|    \\/     M anipulation  |                                                 |
\*---------------------------------------------------------------------------*/
FoamFile
{
    version     2.0;
    format      ascii;
    arch        "LSB;label=32;scalar=64";
    class       volScalarField;
    location    "5400";
    object      k;
}
// * * * * * * * * * * * * * * * * * * * * * * * * * * * * * * * * * * * * * //

dimensions      [0 2 -2 0 0 0 0];

internalField   nonuniform List<scalar> 
12000
(
0.001698905
0.003725078
0.004423604
0.005202398
0.005861178
0.006513423
0.007083499
0.007575053
0.008015528
0.008441108
0.008864951
0.009222225
0.009513648
0.009800005
0.01009139
0.01036991
0.01057318
0.01075145
0.010931
0.01111709
0.01125782
0.0113594
0.01145935
0.0115583
0.01163448
0.01167832
0.01171568
0.01174145
0.01174354
0.01174026
0.01171599
0.01168779
0.01163325
0.01156087
0.01140898
0.01128333
0.01122206
0.01116067
0.01098607
0.01066645
0.01029799
0.01009965
0.0100467
0.009812146
0.009221826
0.008674812
0.008477485
0.008483388
0.008141571
0.007217363
0.0067994
0.00666406
0.006314076
0.005567963
0.005000431
0.004527273
0.003980822
0.003449637
0.002916064
0.00277158
0.001825904
0.00460354
0.005477949
0.006228779
0.006869299
0.007678816
0.008902056
0.01026435
0.01124968
0.01172794
0.01283528
0.01443722
0.01565882
0.01586383
0.01623862
0.01753117
0.01879232
0.01935872
0.01945243
0.02018042
0.02119074
0.02184711
0.02205717
0.02252154
0.0232072
0.02371681
0.02406001
0.02448821
0.0249316
0.02526135
0.02554678
0.02587447
0.02619455
0.02646222
0.02665638
0.02680792
0.02695236
0.02704169
0.02711725
0.02713859
0.02710379
0.02704193
0.0266723
0.02626972
0.02600074
0.02563822
0.02508309
0.02388133
0.02293526
0.02220455
0.02140278
0.0197247
0.01793386
0.01655444
0.01529206
0.01282115
0.009991933
0.007433164
0.005194471
0.005122474
0.002687312
0.00567324
0.007140605
0.008553745
0.01017555
0.01180944
0.01364445
0.0154674
0.01701456
0.01817379
0.01929965
0.02053879
0.02162784
0.02240479
0.02309172
0.02386302
0.02465823
0.02530666
0.02580509
0.02629286
0.02683169
0.02735521
0.02780057
0.02820966
0.02863814
0.02907929
0.02950049
0.02990564
0.03031296
0.03071755
0.03110123
0.03146093
0.03184588
0.03224794
0.0326173
0.03294726
0.03323782
0.03351647
0.03381253
0.03410722
0.03433691
0.03445305
0.03448637
0.03450744
0.03451201
0.03440851
0.03410537
0.03361444
0.03302745
0.0322897
0.03133064
0.03020972
0.02871635
0.02682949
0.02433676
0.02135851
0.01783016
0.01302577
0.00753218
0.006824632
0.00340484
0.006138753
0.008088681
0.01009254
0.01232302
0.01453239
0.01670696
0.01865975
0.02030022
0.02169119
0.02299447
0.02416064
0.02508431
0.02579395
0.02641152
0.02700287
0.02755157
0.02801976
0.02843237
0.02883196
0.02923825
0.02964051
0.03002883
0.03041381
0.0308088
0.03121393
0.03162417
0.03203989
0.0324633
0.03289087
0.03329116
0.03369948
0.03413817
0.03457007
0.03498568
0.03538416
0.03576361
0.03612019
0.03645109
0.03674984
0.03700414
0.0371983
0.03731996
0.03735106
0.0373118
0.03719915
0.03696193
0.03657223
0.03601896
0.03529703
0.03437245
0.03303792
0.03127927
0.02923284
0.0267973
0.02394776
0.02036056
0.01584603
0.01015409
0.008281993
0.004119378
0.006617136
0.009027061
0.01153259
0.01415545
0.01661997
0.01884855
0.02073621
0.02230674
0.02361007
0.0247465
0.02576564
0.02663721
0.02731027
0.02779324
0.02822319
0.02861885
0.02897341
0.0293056
0.02963818
0.02997511
0.03032013
0.03067549
0.0310446
0.03143075
0.03183497
0.03225649
0.03269478
0.03314867
0.03359493
0.03404675
0.03452558
0.03501221
0.03550014
0.03598153
0.03645938
0.03692757
0.0373785
0.03780621
0.0382042
0.03856426
0.03887629
0.03913261
0.03931241
0.03938935
0.03939051
0.03926209
0.03901434
0.0386441
0.038009
0.03698821
0.03565636
0.03410148
0.0322475
0.02995487
0.02703917
0.02326021
0.01829084
0.01178184
0.009332859
0.004770452
0.006996429
0.009724122
0.0125066
0.01528609
0.01781639
0.02002091
0.02186877
0.02339109
0.02463518
0.02563063
0.02643324
0.02707467
0.02763868
0.02810821
0.02845959
0.02877212
0.02907257
0.0293692
0.02966997
0.02998317
0.03031512
0.03066707
0.03104109
0.03144108
0.03186772
0.03231891
0.03279282
0.03328725
0.0337994
0.03432983
0.03487541
0.03543491
0.03600546
0.0365692
0.03712791
0.03768606
0.03823115
0.038754
0.0392467
0.03970041
0.04010508
0.04044955
0.04072268
0.04091025
0.04095494
0.04090679
0.04073404
0.04031733
0.03959886
0.0386036
0.03734064
0.03577336
0.03382237
0.03138796
0.02835803
0.02455958
0.01967837
0.01323024
0.01018564
0.00538321
0.007320734
0.01024766
0.01314977
0.01595444
0.01845327
0.02058038
0.02233251
0.02374876
0.02488517
0.02579135
0.02651582
0.02710295
0.02758633
0.02801211
0.02837925
0.0286773
0.02895535
0.02923116
0.02951816
0.02982486
0.03015746
0.03052246
0.03092346
0.03135951
0.03182898
0.03233091
0.03286554
0.03343165
0.03402543
0.03464393
0.03527851
0.03592816
0.03659242
0.03726348
0.03793166
0.03859283
0.03924114
0.03986824
0.04046476
0.04101996
0.04152146
0.04195507
0.04230599
0.0425501
0.04267729
0.04267986
0.04245514
0.04199521
0.04129834
0.04035155
0.03911582
0.03754177
0.03556817
0.03311415
0.03005723
0.02619179
0.0211456
0.01434575
0.01084454
0.005942411
0.007620466
0.01062983
0.01353107
0.01626082
0.01865624
0.02067765
0.02235535
0.02373708
0.02484781
0.02572364
0.02641339
0.0269573
0.02738691
0.02774891
0.02809396
0.02842923
0.02873495
0.02903633
0.02935411
0.02969907
0.03007641
0.03048927
0.03093846
0.03142881
0.0319647
0.03254411
0.03316234
0.03381448
0.03449746
0.0352075
0.03594239
0.0366974
0.03746357
0.03823593
0.03900789
0.03977215
0.04052084
0.04124469
0.04193299
0.0425734
0.04315162
0.04365285
0.04405563
0.04435597
0.04450077
0.04446991
0.04423138
0.04376592
0.04304714
0.04204495
0.04072462
0.03904381
0.03694734
0.03435883
0.03116415
0.02717434
0.0220427
0.01521431
0.01134869
0.006609905
0.007871103
0.01087884
0.01370792
0.01633118
0.0186495
0.02062522
0.02225515
0.02356913
0.02462487
0.02547304
0.02615232
0.02670087
0.02715386
0.02754371
0.02789718
0.02825177
0.02861724
0.02898364
0.02935909
0.02975485
0.03019153
0.03067404
0.03120592
0.03178447
0.03240578
0.0330691
0.03377213
0.03451159
0.03528371
0.03608416
0.03691526
0.03777036
0.03863429
0.03950218
0.04036754
0.04122265
0.04205856
0.04286495
0.04362992
0.04433985
0.04497956
0.04552979
0.04597692
0.04628752
0.0464138
0.04635827
0.04608575
0.04557054
0.04478571
0.04370239
0.04228815
0.04050426
0.03830058
0.03560595
0.03230923
0.02821866
0.02297038
0.01595909
0.01174546
0.006679026
0.008078155
0.01105922
0.01379543
0.01631549
0.01853029
0.02041474
0.02198376
0.02327059
0.02432053
0.025178
0.02588303
0.02647217
0.02697815
0.02742964
0.02785005
0.02825216
0.02865981
0.02909742
0.02955994
0.03005784
0.03058929
0.03116125
0.03177703
0.03243748
0.03314182
0.03388827
0.03467433
0.03549673
0.03635159
0.03723442
0.03814943
0.0390896
0.04003733
0.04098699
0.04193154
0.04286255
0.04377015
0.04464286
0.04546729
0.04622784
0.04690669
0.04748154
0.04793006
0.04822819
0.04833645
0.04824359
0.04791394
0.04732096
0.04643872
0.0452409
0.04369894
0.04177843
0.0394336
0.03659713
0.03316132
0.02893926
0.0235772
0.01648971
0.01202582
0.0067947
0.008222672
0.01116714
0.01379403
0.01618824
0.01830617
0.02012814
0.02166735
0.02295369
0.0240249
0.02491995
0.02567619
0.02632763
0.02690424
0.02743165
0.02792209
0.02840808
0.02891138
0.02943888
0.03000132
0.03059243
0.03121612
0.03187785
0.03258001
0.03332359
0.03410826
0.03493257
0.03579426
0.0366903
0.03761694
0.0385698
0.03955291
0.04055962
0.04157285
0.04258601
0.04359131
0.04457957
0.04553997
0.04645977
0.0473242
0.04811631
0.04881673
0.04940601
0.04985648
0.05013786
0.05021431
0.05006434
0.049656
0.04896417
0.04796629
0.04664115
0.04496605
0.04291242
0.04043876
0.03748083
0.03393307
0.0296086
0.02414872
0.01695047
0.01223888
0.007870737
0.008359771
0.01124054
0.01377425
0.01606161
0.01809268
0.01985612
0.02136401
0.02264684
0.02374082
0.0246826
0.02550399
0.02623453
0.02690048
0.0275195
0.02812331
0.02871996
0.02932195
0.02994088
0.03058859
0.03127162
0.03198851
0.0327384
0.03352379
0.03434601
0.03520528
0.03610032
0.03702909
0.03798878
0.03897587
0.0399862
0.04102219
0.04207789
0.04313857
0.04419697
0.04524466
0.04627181
0.04726695
0.0482167
0.0491054
0.04991485
0.05062397
0.05120965
0.0516434
0.0518935
0.05192693
0.05171023
0.05121424
0.05041649
0.04929921
0.04784714
0.04604269
0.04386089
0.04126323
0.03818682
0.03452643
0.03009563
0.02453834
0.01726111
0.01237468
0.00788072
0.008458171
0.01127591
0.01370991
0.01588872
0.0178311
0.01954218
0.02103676
0.02233745
0.02347237
0.02447113
0.02536362
0.02617675
0.0269335
0.02765871
0.02836537
0.0290673
0.02977532
0.03049791
0.03124192
0.03201383
0.03281934
0.03365784
0.03452832
0.03543007
0.0363619
0.03732228
0.03830917
0.03932087
0.04035513
0.04140876
0.04248234
0.04357071
0.04466226
0.04574913
0.04682243
0.04787183
0.0488855
0.0498497
0.05074833
0.05156241
0.0522697
0.05284438
0.05325704
0.05346715
0.05344827
0.05316243
0.05257902
0.05167517
0.05044035
0.04886732
0.04694429
0.04464945
0.04194528
0.0387699
0.03501836
0.03050373
0.02486853
0.0175153
0.01247015
0.00797955
0.008516896
0.01128793
0.01362914
0.01570934
0.01758309
0.01925795
0.02074662
0.02206583
0.02324052
0.02429693
0.0252613
0.02615674
0.02700006
0.02780836
0.0286033
0.0294068
0.03022154
0.03105117
0.03189738
0.03276366
0.03365497
0.0345776
0.03553373
0.03651893
0.03752447
0.03854288
0.03957551
0.04062784
0.04169856
0.04278344
0.04388066
0.0449869
0.04609434
0.04719479
0.04827877
0.04933556
0.05035296
0.05131699
0.05221141
0.05301723
0.05371178
0.0542666
0.05464887
0.05482197
0.05474999
0.05438735
0.0537039
0.05269545
0.05135973
0.04968666
0.04766585
0.04527745
0.04248444
0.03922439
0.03539191
0.03080048
0.02509376
0.01767795
0.01251969
0.00817388
0.008564555
0.0112865
0.01355956
0.0155775
0.0173994
0.01904523
0.02052949
0.02187058
0.02308692
0.02419803
0.02522184
0.02617543
0.0270834
0.02796812
0.02884879
0.02973675
0.03064023
0.03156313
0.0325056
0.03346511
0.03444159
0.03543786
0.03645605
0.03749523
0.03855295
0.03962659
0.04071387
0.04181199
0.0429164
0.04402236
0.04513095
0.04624574
0.04736162
0.04846899
0.04955719
0.05061439
0.05162738
0.05258137
0.05346085
0.05424923
0.05492525
0.05546168
0.05582513
0.05597203
0.0558534
0.0554236
0.05465291
0.05353523
0.05209134
0.05032819
0.04822737
0.04576408
0.04289968
0.03957136
0.03567473
0.03102423
0.02526357
0.01779673
0.01254224
0.008355184
0.008599856
0.0112825
0.01350407
0.01546087
0.01723584
0.01885798
0.02034226
0.02170247
0.02295241
0.02410614
0.02517785
0.02618249
0.02714504
0.02809313
0.02904804
0.03001879
0.03100805
0.03201265
0.03303012
0.03406139
0.03510831
0.03616967
0.0372444
0.03833227
0.03943219
0.04054272
0.04166255
0.04278964
0.04392031
0.04504933
0.04617079
0.04728793
0.0484077
0.0495221
0.05061583
0.05167565
0.05268848
0.05364042
0.05451601
0.05529702
0.05596104
0.05648016
0.05681968
0.05693673
0.05678075
0.05629778
0.05544906
0.05423253
0.05268396
0.05083511
0.04866471
0.04613496
0.04320871
0.03982386
0.03587607
0.0311794
0.02537706
0.01787088
0.01254501
0.008502866
0.008632619
0.01128557
0.01345662
0.01536305
0.01709971
0.01869952
0.02017848
0.02154814
0.02281938
0.02400378
0.0251143
0.02616602
0.02718011
0.02819059
0.0292164
0.03025988
0.03131641
0.0323843
0.03346542
0.03455959
0.0356644
0.03677851
0.03790078
0.03903032
0.04016697
0.04131035
0.04245947
0.04361215
0.04476454
0.04591065
0.04704191
0.04816293
0.04928593
0.05040489
0.05150315
0.05256581
0.05357881
0.054528
0.05539789
0.05617022
0.05682232
0.05732551
0.05764341
0.05773085
0.05753642
0.05700586
0.05610093
0.05481301
0.05317628
0.05124555
0.04900917
0.04642256
0.04344646
0.04001754
0.03603007
0.03129736
0.02546133
0.01792003
0.01253695
0.008628139
0.008672363
0.0112926
0.01342472
0.01529009
0.01699307
0.01857182
0.02004287
0.02141648
0.02270182
0.02390898
0.02504979
0.02613816
0.02719779
0.02825901
0.02933758
0.0304356
0.03155064
0.03267927
0.03381719
0.03496242
0.03611381
0.03727045
0.03843133
0.03959584
0.04076384
0.04193506
0.04310868
0.0442828
0.04545359
0.04661431
0.04775384
0.04887655
0.04999894
0.05111874
0.05221929
0.05328399
0.05429779
0.05524606
0.05611302
0.05688008
0.05752418
0.0580161
0.05831865
0.05838556
0.05816415
0.05759537
0.05663863
0.05528655
0.05357878
0.05157803
0.04928687
0.04665918
0.04364448
0.04017848
0.0361554
0.03138858
0.02552102
0.01793932
0.01251174
0.008720476
0.008713247
0.01130567
0.0134044
0.01523605
0.01690946
0.01846699
0.01992646
0.02129842
0.02259164
0.0238156
0.02498136
0.02610174
0.02719897
0.02830237
0.02942547
0.03056937
0.03173002
0.03290279
0.0340843
0.03527137
0.03646126
0.03765201
0.03884324
0.04003543
0.04122872
0.04242287
0.04361693
0.0448087
0.04599412
0.0471671
0.04832048
0.04944935
0.05056624
0.05168407
0.05278899
0.05385854
0.05487624
0.05582718
0.05669533
0.05746165
0.0581024
0.05858737
0.05887823
0.05892748
0.05868212
0.05808113
0.05708317
0.05567861
0.05390683
0.05183764
0.04949235
0.0468237
0.04377189
0.04027201
0.03621818
0.03142462
0.02553636
0.01794315
0.01247686
0.008810786
0.008775073
0.01134024
0.0134062
0.01520361
0.01684721
0.01838153
0.01982625
0.02119237
0.02248901
0.02372567
0.02491297
0.0260627
0.02719252
0.02832611
0.029481
0.03065822
0.03185341
0.03306103
0.03427613
0.03549465
0.03671368
0.03793169
0.03914855
0.04036445
0.04157945
0.04279344
0.04400563
0.04521398
0.04641453
0.04760124
0.04876665
0.04990345
0.05102345
0.05214346
0.05325282
0.05432901
0.05535408
0.05631177
0.05718504
0.057954
0.05859402
0.05907392
0.05935432
0.05938672
0.05911776
0.05848459
0.0574461
0.05599334
0.05416839
0.05204657
0.0496585
0.04695621
0.04387529
0.04035028
0.03627465
0.03146125
0.0255492
0.01794519
0.01244496
0.008866792
0.008841619
0.01138738
0.01342185
0.01518764
0.0168018
0.01831165
0.01973889
0.02109611
0.02239309
0.02363941
0.02484517
0.02602081
0.02717649
0.02833249
0.02951034
0.03071097
0.03193002
0.03316171
0.03440064
0.03564243
0.03688427
0.03812468
0.03936309
0.04059948
0.04183402
0.04306666
0.04429668
0.04552213
0.04673928
0.04794217
0.04912271
0.05027149
0.0513994
0.05252572
0.05364264
0.05472818
0.05576338
0.05673065
0.05761175
0.05838575
0.05902699
0.05950326
0.05977418
0.05979044
0.05949866
0.05883518
0.05775946
0.056263
0.05438949
0.05221908
0.04979192
0.04705896
0.04395074
0.04040122
0.03630371
0.03147238
0.02554995
0.01792901
0.0123983
0.008949083
0.008943873
0.01146524
0.01346142
0.0151903
0.01677252
0.01825553
0.01966279
0.02100814
0.02230212
0.02355434
0.02477427
0.02597111
0.02715323
0.02833129
0.02952172
0.03073531
0.03196846
0.03321537
0.03447045
0.03572926
0.03698886
0.03824756
0.03950449
0.04075948
0.04201268
0.04326389
0.04451232
0.04575607
0.04699155
0.04821287
0.0494115
0.05057664
0.05171732
0.0528534
0.05398013
0.05507696
0.05612408
0.05710252
0.05799274
0.05877261
0.05941541
0.05988787
0.06014869
0.06014789
0.05983201
0.05913753
0.05802507
0.05648766
0.05457122
0.05235958
0.04989952
0.04714078
0.0440101
0.04044087
0.0363256
0.03147647
0.02554298
0.01791295
0.01236307
0.008991154
0.009051485
0.01155669
0.01351582
0.01520757
0.01675544
0.01821029
0.01959574
0.02092691
0.02221496
0.02346959
0.02469972
0.02591357
0.02711825
0.02831911
0.02952294
0.03074228
0.03198211
0.03323712
0.03450194
0.03577238
0.03704532
0.03831883
0.03959194
0.04086428
0.0421356
0.04340541
0.04467271
0.04593553
0.04719044
0.04843199
0.04965183
0.05083768
0.05199405
0.05314124
0.05427994
0.05539032
0.05645071
0.05744106
0.05834078
0.05912666
0.05977083
0.06023901
0.06048907
0.06047072
0.06012847
0.05940302
0.05825473
0.05667862
0.05472306
0.05247503
0.0499859
0.04720405
0.04405322
0.04046644
0.03633619
0.03147545
0.02552729
0.01788603
0.01231618
0.009076069
0.009198436
0.01168544
0.01359767
0.01524579
0.01675605
0.01817786
0.01953799
0.02085179
0.02213053
0.02338364
0.02461942
0.02584514
0.02706682
0.02828897
0.02951428
0.03074229
0.03198206
0.03323951
0.03451003
0.03578826
0.03707102
0.03835666
0.03964407
0.04093243
0.04222106
0.04350919
0.04479555
0.04607792
0.04735255
0.04861386
0.04985449
0.05106663
0.05224579
0.05340443
0.05455391
0.05567862
0.05675322
0.05775599
0.05866526
0.05945677
0.0601016
0.06056451
0.06080259
0.06076548
0.06039587
0.05963886
0.05845508
0.05684214
0.05485114
0.05257153
0.05005733
0.04725546
0.04408741
0.04048566
0.03634217
0.03146961
0.02551237
0.01786523
0.012284
0.009099045
0.009367972
0.01183084
0.01369566
0.01529799
0.01676663
0.01815524
0.01948842
0.02078237
0.02204857
0.02329614
0.02453276
0.02576479
0.02699728
0.02823388
0.02947667
0.03072614
0.03198018
0.03323999
0.03450975
0.03579209
0.03708259
0.03837807
0.03967733
0.04097988
0.04228474
0.04359051
0.04489556
0.04619744
0.04749236
0.04877475
0.05003747
0.0512729
0.05247456
0.05365158
0.05481569
0.05595392
0.0570417
0.05805627
0.05897454
0.0597709
0.0604153
0.06087155
0.0610961
0.06103854
0.06064166
0.05985217
0.05863294
0.05698454
0.05496096
0.05265364
0.05011751
0.04729791
0.04411465
0.04049964
0.03634423
0.03146062
0.02549322
0.01783779
0.01224338
0.009133214
0.009557223
0.01200687
0.01381844
0.01536939
0.01679368
0.01814441
0.01944766
0.02071883
0.02196925
0.02320757
0.02444075
0.02567435
0.0269126
0.02815842
0.02941334
0.03067765
0.03195059
0.03322998
0.03451394
0.0358016
0.03709457
0.03839749
0.03970814
0.04102361
0.04234247
0.04366393
0.04498635
0.04630697
0.04762178
0.04892537
0.05021087
0.05147004
0.05269439
0.05389091
0.05507112
0.05622347
0.05732409
0.05834959
0.05927567
0.06007548
0.06071783
0.06116566
0.06137489
0.0612952
0.06086978
0.0600471
0.05879264
0.05711025
0.05505687
0.05272542
0.05017037
0.04733544
0.04413925
0.04051312
0.03634784
0.03145491
0.02547997
0.01781861
0.012217
0.009542236
0.009777163
0.01220999
0.0139635
0.01545949
0.01683578
0.01814604
0.01941644
0.02066227
0.02189425
0.02312046
0.02434719
0.02557928
0.02682027
0.02807243
0.02933679
0.03061325
0.0319008
0.03319781
0.03450228
0.03581112
0.03712305
0.03843552
0.0397518
0.04107676
0.04240841
0.04374458
0.04508314
0.04642123
0.04775479
0.04907835
0.05038508
0.0516668
0.05291426
0.05413155
0.05532821
0.05649404
0.0576064
0.0586414
0.05957358
0.06037488
0.06101312
0.06145043
0.06164234
0.06153877
0.06108358
0.06022715
0.05893783
0.05722293
0.05514234
0.05278996
0.05021858
0.04737019
0.04416262
0.04052656
0.03635222
0.03145065
0.02546586
0.01779663
0.0121855
0.01000655
0.01004884
0.01243369
0.01413377
0.01556857
0.01689333
0.0181606
0.01939606
0.02061468
0.02182656
0.02303911
0.02425797
0.0254873
0.02672999
0.02798773
0.029261
0.03054927
0.03185117
0.03316473
0.03448755
0.03581701
0.03715057
0.038486
0.03982103
0.04115645
0.04249675
0.04384425
0.04519637
0.04654963
0.04789972
0.04924122
0.05056744
0.05187024
0.05313974
0.0543771
0.05558964
0.05676821
0.05789112
0.05893393
0.05987018
0.06067079
0.06130267
0.06172734
0.06190006
0.06177108
0.06128519
0.06039483
0.05907137
0.05732568
0.05522048
0.05285018
0.05026496
0.04740502
0.04418771
0.04054318
0.03636112
0.03145215
0.0254591
0.01778356
0.01216784
0.01027227
0.01032102
0.01266495
0.01431873
0.01569222
0.01696508
0.01818878
0.01938876
0.02057903
0.02176983
0.02296804
0.0241786
0.02540498
0.0266494
0.02791292
0.02919544
0.03049595
0.03181273
0.0331435
0.03448552
0.03583496
0.03719023
0.03854847
0.03990691
0.04126304
0.04261565
0.0439696
0.04533046
0.04669524
0.04805892
0.04941554
0.05075825
0.05207955
0.0533721
0.05463026
0.05585547
0.05704477
0.05817773
0.05922709
0.06016548
0.06096321
0.06158657
0.06199664
0.06214856
0.06199302
0.06147599
0.06055201
0.05919552
0.05742097
0.05529379
0.05290836
0.05031138
0.04744132
0.04421537
0.04056308
0.03637359
0.03145697
0.02545579
0.017771
0.01214671
0.01034867
0.01059912
0.01291631
0.0145229
0.01583396
0.01705175
0.01823
0.0193931
0.02055592
0.0217268
0.02291185
0.02411533
0.02534003
0.02658747
0.02785804
0.02915102
0.03046486
0.03179727
0.03314459
0.03450347
0.03587306
0.03724934
0.03862893
0.04000906
0.04138693
0.04276034
0.04412742
0.04549343
0.04686479
0.04823775
0.04960606
0.05096265
0.05229996
0.05361049
0.05488687
0.05612719
0.05732716
0.0584673
0.05952064
0.06045903
0.06125189
0.06186492
0.06225885
0.06238888
0.06220608
0.06165787
0.06070092
0.05931276
0.05751138
0.05536468
0.05296677
0.05035999
0.04748112
0.0442477
0.0405887
0.03639274
0.03146939
0.02546082
0.01776686
0.01213639
0.01038178
0.01087585
0.01317429
0.01473501
0.01598986
0.01715284
0.01828756
0.01941684
0.02055436
0.02170531
0.02287804
0.02407605
0.02530115
0.02655392
0.02783371
0.02913849
0.03046535
0.03181067
0.03317423
0.03455278
0.03594174
0.0373375
0.03873679
0.04013642
0.04153384
0.04292642
0.04431189
0.04568897
0.04706312
0.04844004
0.04981528
0.05118186
0.05253206
0.05385761
0.05514959
0.05640349
0.05761311
0.05875905
0.05981452
0.06075084
0.06153681
0.06213754
0.06251358
0.06262039
0.06240982
0.06183098
0.06084241
0.05942454
0.05759878
0.05543543
0.05302766
0.05041278
0.04752599
0.04428554
0.04062001
0.03641746
0.03148682
0.02546951
0.0177656
0.01212439
0.01052992
0.01117269
0.01345023
0.0149648
0.01616274
0.01727023
0.01836167
0.01945735
0.02056935
0.0217079
0.02287511
0.0240713
0.02529822
0.02655518
0.02784093
0.02915541
0.03049599
0.0318598
0.03324146
0.0346376
0.03604457
0.03745841
0.03887555
0.04029272
0.04170723
0.04311645
0.04451802
0.0459098
0.04729164
0.04866914
0.05004637
0.05141825
0.05277702
0.05411389
0.05541908
0.0566853
0.05790333
0.0590534
0.06010904
0.06104122
0.06181822
0.0624051
0.0627626
0.06284637
0.06260836
0.06199941
0.06098031
0.05953465
0.05768668
0.05550864
0.05309306
0.05047117
0.04757688
0.04432999
0.04065857
0.03645004
0.03151265
0.02548715
0.01777429
0.01212341
0.010634
0.01146304
0.01373146
0.0152037
0.01634663
0.01740061
0.01845196
0.01951823
0.02061004
0.02173361
0.02289147
0.02408665
0.02531828
0.02658557
0.02788638
0.02921652
0.03057308
0.03195244
0.03335047
0.03476295
0.03618565
0.03761478
0.03904692
0.04047909
0.04190824
0.04333167
0.04474694
0.04615182
0.0475442
0.04892529
0.05030109
0.0516737
0.05303693
0.05438169
0.05569736
0.05697407
0.05819936
0.05935257
0.06040733
0.06133455
0.06210233
0.06267508
0.06301281
0.06307179
0.06280569
0.06216757
0.06111999
0.05964874
0.05778051
0.05558895
0.05316561
0.05053712
0.047636
0.04438267
0.04070492
0.03648966
0.03154432
0.02550884
0.0177837
0.01212222
0.01082856
0.0117752
0.01403045
0.0154584
0.01654791
0.01755134
0.01856496
0.01960434
0.02067898
0.02179372
0.02295041
0.02414922
0.02538872
0.0266665
0.02797929
0.02932337
0.03069475
0.03208925
0.03350238
0.03492953
0.03636625
0.03780874
0.03925374
0.04069825
0.0421393
0.04357421
0.04500047
0.04641577
0.04781791
0.04920472
0.05057983
0.05195007
0.05331373
0.05466255
0.05598553
0.05727032
0.05850112
0.05965622
0.06070914
0.06163018
0.06238654
0.06294254
0.06325932
0.06329404
0.06300065
0.06233365
0.06125734
0.05976068
0.05787346
0.05567014
0.05324012
0.05060634
0.04769977
0.04444109
0.04075768
0.0365359
0.03158272
0.0255377
0.01780102
0.01212838
0.01092392
0.0120694
0.01433074
0.01572296
0.01676294
0.01771738
0.01869853
0.01971804
0.02078204
0.02189314
0.02305164
0.02425648
0.02550523
0.02679456
0.02812044
0.02947846
0.03086375
0.03227139
0.03369655
0.035135
0.03658284
0.03803644
0.03949233
0.0409472
0.04239809
0.0438423
0.04527731
0.04670075
0.04811034
0.04950388
0.0508806
0.0522466
0.05360741
0.05495646
0.05628275
0.0575724
0.05880668
0.05996169
0.06100992
0.06192123
0.06266347
0.06320176
0.06349733
0.06350807
0.06318833
0.06249397
0.06139101
0.05987046
0.0579647
0.05575065
0.05331679
0.05067946
0.04776807
0.04450449
0.04081542
0.03658723
0.03162697
0.02557208
0.01782173
0.01213245
0.01108751
0.01237384
0.01464496
0.01600197
0.01699756
0.01791287
0.01886598
0.01986714
0.02092188
0.02203141
0.02319433
0.02440754
0.02566717
0.02696883
0.02830774
0.02967853
0.03107587
0.03249454
0.03393007
0.03537829
0.03683543
0.0382979
0.03976226
0.04122523
0.04268382
0.04413526
0.04557698
0.04700652
0.04842152
0.04981966
0.05119863
0.05256215
0.05391793
0.05526377
0.0565896
0.05788085
0.05911582
0.0602681
0.06130936
0.06220965
0.06293705
0.06345691
0.06373044
0.06371703
0.06337157
0.06265117
0.06152366
0.0599824
0.05806199
0.0558398
0.05340214
0.0507603
0.04784301
0.04457343
0.04087812
0.0366427
0.03167294
0.02560771
0.01784601
0.01214189
0.01147158
0.01268712
0.01496767
0.01629653
0.01725039
0.01812798
0.0190578
0.02004771
0.02109963
0.02221204
0.02338199
0.02460497
0.02587583
0.02718913
0.02853925
0.02992054
0.03132769
0.03275582
0.03420071
0.035658
0.0371236
0.03859371
0.04006487
0.04153395
0.04299802
0.04445438
0.04590044
0.04733376
0.04875192
0.05015256
0.05153317
0.05289458
0.05424397
0.05558387
0.05690587
0.05819535
0.05942828
0.06057596
0.06160903
0.06249726
0.06320897
0.06371005
0.06396224
0.06392581
0.06355622
0.06281151
0.0616609
0.06009969
0.05816467
0.05593471
0.05349481
0.05084963
0.04792685
0.04465191
0.04095103
0.03670963
0.03173291
0.02565665
0.01787584
0.01215295
0.0112086
0.0129916
0.01529403
0.01659613
0.01751368
0.01836313
0.01927534
0.02025828
0.02131028
0.02242803
0.0236065
0.02483994
0.02612215
0.02744689
0.02880796
0.03019969
0.03161675
0.03305423
0.03450737
0.03597187
0.03744375
0.03891934
0.0403953
0.04186856
0.04333625
0.04479575
0.04624454
0.04768009
0.04909988
0.0505014
0.05188219
0.05324048
0.05458269
0.05591523
0.05723134
0.05851677
0.05974561
0.06088691
0.06191024
0.06278526
0.06348069
0.06396294
0.0641942
0.06413552
0.06374294
0.0629754
0.06180346
0.06022417
0.05827607
0.05603868
0.05359534
0.05094593
0.04801713
0.04473556
0.04102714
0.03677694
0.03179003
0.02570274
0.01791083
0.012171
0.0110834
0.01326009
0.01562253
0.0169093
0.0178006
0.01863032
0.01952947
0.02050977
0.02156598
0.02269214
0.0238813
0.02512629
0.02642003
0.02775574
0.02912701
0.03052799
0.03195314
0.03339744
0.03485621
0.0363253
0.03780093
0.03927955
0.04075796
0.04223318
0.04370245
0.04516304
0.04661233
0.0480477
0.04946671
0.05086683
0.05224552
0.05360006
0.05493589
0.05626044
0.05756933
0.05884873
0.0600712
0.06120398
0.06221578
0.06307619
0.0637543
0.06421711
0.06442735
0.06434668
0.06393167
0.06314205
0.06194951
0.0603527
0.05839186
0.05614731
0.05370086
0.05104744
0.04811284
0.04482518
0.04111017
0.03685253
0.03185659
0.0257566
0.01794539
0.0121855
0.01143093
0.01353246
0.01595209
0.01723508
0.01810954
0.01892685
0.01981889
0.02080115
0.02186472
0.02300109
0.02420169
0.02545821
0.02676286
0.02810846
0.02948839
0.03089668
0.03232789
0.03377709
0.03523976
0.03671188
0.03818973
0.03966992
0.04114932
0.04262504
0.04409423
0.04555421
0.04700231
0.04843597
0.0498526
0.05124966
0.05262449
0.0539743
0.05530373
0.05661995
0.05792035
0.05919174
0.06040552
0.06152746
0.06252564
0.06336978
0.06402946
0.06447225
0.06466142
0.06455909
0.06412232
0.06331151
0.06209936
0.06048592
0.0585129
0.05626126
0.05381135
0.05115337
0.04821225
0.04491752
0.0411947
0.03692825
0.0319222
0.02581057
0.01798557
0.01220859
0.01202984
0.01384928
0.0162977
0.0175804
0.01844423
0.01925449
0.02014339
0.02113065
0.02220355
0.02335122
0.02456356
0.02583135
0.02714624
0.02850077
0.02988823
0.03130264
0.03273866
0.03419146
0.03565672
0.03713052
0.03860927
0.04008966
0.04156866
0.0430433
0.0445108
0.0459685
0.0474138
0.04884418
0.05025698
0.05164948
0.05301889
0.0543624
0.05568445
0.05699197
0.05828284
0.05954431
0.06074699
0.06185574
0.06283835
0.06366479
0.06430516
0.06472758
0.06489582
0.0647723
0.06431451
0.0634834
0.06225252
0.06062319
0.05863848
0.05637993
0.05392647
0.05126391
0.04831634
0.04501471
0.04128432
0.03700932
0.03199306
0.02586834
0.01802534
0.01222722
0.01233481
0.01415688
0.01664221
0.01793762
0.01880155
0.01961252
0.02050356
0.02149928
0.02258353
0.02374337
0.02496749
0.02624596
0.02757008
0.02893224
0.03032574
0.03174469
0.03318388
0.03463867
0.03610491
0.03757883
0.03905692
0.04053601
0.04201302
0.04348511
0.04494953
0.04640359
0.04784476
0.04927035
0.05067768
0.05206401
0.05342656
0.05476245
0.05607617
0.05737443
0.05865485
0.05990477
0.06109431
0.0621878
0.06315312
0.06396066
0.06458105
0.06498293
0.06513049
0.06498631
0.06450823
0.06365763
0.06240881
0.06076419
0.05876807
0.05650254
0.05404524
0.05137766
0.0484231
0.04511394
0.04137536
0.03709125
0.03206458
0.0259275
0.01806875
0.01225148
0.01245968
0.01444578
0.01699752
0.01831589
0.01918714
0.02000395
0.02090052
0.02190687
0.02300359
0.02417587
0.02541139
0.02669971
0.02803194
0.02940044
0.03079859
0.03222067
0.03366164
0.03511704
0.03658289
0.03805556
0.03953164
0.04100797
0.0424816
0.04394973
0.04540964
0.0468587
0.04829423
0.04971356
0.05111398
0.05249271
0.05384695
0.0551738
0.05647827
0.05776685
0.05903594
0.06027276
0.06144718
0.0625235
0.06346997
0.06425753
0.0648574
0.06523862
0.06536576
0.06520141
0.06470368
0.06383428
0.06256815
0.06090872
0.05890141
0.05662883
0.05416736
0.05149452
0.04853283
0.04521603
0.04146914
0.03717579
0.03213842
0.02598815
0.01811189
0.01226943
0.01287114
0.0147297
0.01735517
0.01871009
0.01959878
0.02042807
0.02133389
0.02235289
0.02346287
0.02464755
0.02589385
0.02719102
0.02853013
0.02990361
0.03130504
0.03272886
0.03417024
0.03562489
0.03708898
0.03855902
0.04003173
0.04150404
0.04297306
0.04443597
0.04589008
0.04733269
0.04876111
0.05017267
0.05156462
0.0529342
0.05427861
0.05559545
0.05689024
0.05816843
0.05942514
0.06064737
0.0618049
0.06286234
0.06378857
0.06455526
0.06513417
0.06549469
0.06560166
0.06541756
0.06490071
0.06401308
0.06273013
0.06105619
0.05903775
0.05675791
0.05429193
0.05161343
0.04864424
0.04531941
0.04156387
0.03726103
0.03221291
0.02604988
0.01815703
0.01229171
0.01261891
0.01502295
0.01772891
0.01912783
0.02004081
0.02088662
0.02180378
0.02283653
0.02395999
0.02515661
0.02641281
0.02771771
0.02906244
0.03043962
0.03184301
0.03326729
0.03470782
0.03616051
0.03762168
0.03908794
0.04055606
0.04202309