/*--------------------------------*- C++ -*----------------------------------*\
| =========                 |                                                 |
| \\      /  F ield         | OpenFOAM: The Open Source CFD Toolbox           |
|  \\    /   O peration     | Version:  2312                                  |
|   \\  /    A nd           | Website:  www.openfoam.com                      |
|    \\/     M anipulation  |                                                 |
\*---------------------------------------------------------------------------*/
FoamFile
{
    version     2.0;
    format      ascii;
    arch        "LSB;label=32;scalar=64";
    class       surfaceScalarField;
    location    "5400";
    object      phi;
}
// * * * * * * * * * * * * * * * * * * * * * * * * * * * * * * * * * * * * * //

dimensions      [1 0 -1 0 0 0 0];

oriented        oriented;

internalField   nonuniform List<scalar> 
23740
(
-0.0001169235
0.0001166389
-0.0002205934
0.0001036711
-0.0003208184
0.0001002264
-0.000417544
9.672703e-05
-0.0005189121
0.0001013697
-0.0006347722
0.0001158618
-0.0007527441
0.0001179736
-0.0008477656
9.502322e-05
-0.0009172786
6.951462e-05
-0.00100258
8.530283e-05
-0.001115314
0.0001127359
-0.001207497
9.218403e-05
-0.001253386
4.589111e-05
-0.001296305
4.291957e-05
-0.001376737
8.043369e-05
-0.001466148
8.941164e-05
-0.001515186
4.903844e-05
-0.001536957
2.177209e-05
-0.001580006
4.304973e-05
-0.001643802
6.379647e-05
-0.001686741
4.29398e-05
-0.001703523
1.678262e-05
-0.001727272
2.374848e-05
-0.001764415
3.714343e-05
-0.001791554
2.713934e-05
-0.001805346
1.379149e-05
-0.001821183
1.583799e-05
-0.00183771
1.652631e-05
-0.001845868
8.158616e-06
-0.001851135
5.267085e-06
-0.001859042
7.906398e-06
-0.001862851
3.809056e-06
-0.001860785
-2.065657e-06
-0.00185061
-1.017512e-05
-0.001837433
-1.317721e-05
-0.001831663
-5.769666e-06
-0.001830004
-1.658445e-06
-0.001819421
-1.058324e-05
-0.001788588
-3.083338e-05
-0.00174494
-4.364688e-05
-0.001715479
-2.946085e-05
-0.001707914
-7.565268e-06
-0.001690139
-1.777455e-05
-0.001632446
-5.76923e-05
-0.001558385
-7.406158e-05
-0.001514277
-4.41076e-05
-0.001505413
-8.863781e-06
-0.001462907
-4.250615e-05
-0.001361711
-0.0001011958
-0.00126868
-9.303062e-05
-0.001223289
-4.53912e-05
-0.001164972
-5.831768e-05
-0.001051999
-0.0001129733
-0.000932246
-0.0001197526
-0.0008306403
-0.0001016058
-0.0007122105
-0.0001184299
-0.0005630409
-0.0001491697
-0.0003806469
-0.0001823941
-0.0001909018
-0.0001897454
-0.0001909018
-0.0001033099
0.0002199499
-0.0002074808
0.0002078433
-0.0003136908
0.0002064379
-0.0004211403
0.0002041781
-0.0005191731
0.0001994042
-0.0006002159
0.0001969065
-0.0006735776
0.0001913372
-0.0007561221
0.0001775697
-0.0008501783
0.0001635729
-0.0009228902
0.0001580167
-0.0009650905
0.000154938
-0.001017227
0.0001443228
-0.001098647
0.0001273126
-0.001173291
0.0001175653
-0.001207491
0.0001146352
-0.001227433
0.0001093549
-0.001274759
9.636562e-05
-0.001337925
8.493875e-05
-0.00137468
7.980554e-05
-0.001386581
7.56979e-05
-0.001410963
6.73227e-05
-0.001452136
5.795577e-05
-0.001480547
5.216018e-05
-0.001491081
4.767711e-05
-0.001505387
4.144565e-05
-0.001526281
3.468521e-05
-0.001539622
2.917927e-05
-0.001546807
2.371114e-05
-0.001556214
1.756603e-05
-0.001562784
1.183678e-05
-0.001562899
8.021226e-06
-0.001562312
3.222409e-06
-0.001560108
-4.269517e-06
-0.001559432
-1.085069e-05
-0.001556027
-1.658296e-05
-0.001540604
-2.119239e-05
-0.001516038
-2.622406e-05
-0.001493553
-3.306834e-05
-0.001483213
-4.117316e-05
-0.001478427
-4.843239e-05
-0.001454148
-5.373944e-05
-0.001403022
-5.869064e-05
-0.001354579
-6.621794e-05
-0.001335948
-7.632246e-05
-0.00132484
-8.516915e-05
-0.001277004
-9.194325e-05
-0.001187224
-9.864374e-05
-0.001121143
-0.0001085876
-0.00110199
-0.0001203481
-0.001064328
-0.0001306929
-0.000970619
-0.0001391006
-0.0008795413
-0.0001493955
-0.0008281974
-0.0001643174
-0.0007711485
-0.0001768016
-0.0006684649
-0.0002042896
-0.0005517573
-0.0002351376
-0.0004426093
-0.0002583178
-0.0003211401
-0.0003038635
-0.0001707103
-0.0003401754
-0.0003616121
-9.100962e-05
0.0003109612
-0.0001787625
0.000295598
-0.0002634384
0.0002911156
-0.0003453617
0.0002861033
-0.000424106
0.0002781505
-0.0004961107
0.0002689131
-0.0005615404
0.0002567688
-0.0006261196
0.0002421509
-0.0006937613
0.0002312164
-0.0007570148
0.0002212721
-0.0008105999
0.000208525
-0.0008600441
0.0001937688
-0.0009107512
0.0001780215
-0.0009588494
0.000165665
-0.0009993415
0.0001551286
-0.00103436
0.0001443746
-0.00107075
0.0001327568
-0.001107474
0.0001216632
-0.001139676
0.0001120089
-0.001166744
0.0001027661
-0.001192492
9.307108e-05
-0.001218001
8.346539e-05
-0.001240521
7.46806e-05
-0.001259157
6.631251e-05
-0.001275497
5.778652e-05
-0.001290101
4.928846e-05
-0.001302033
4.111166e-05
-0.001311345
3.302297e-05
-0.001318624
2.484486e-05
-0.001323479
1.669183e-05
-0.001325409
9.951403e-06
-0.001324257
2.070464e-06
-0.00132134
-7.186401e-06
-0.001316418
-1.577236e-05
-0.001308811
-2.419027e-05
-0.001297488
-3.251545e-05
-0.001282745
-4.096635e-05
-0.001265895
-4.991857e-05
-0.001247631
-5.943716e-05
-0.001226919
-6.914369e-05
-0.001201937
-7.872144e-05
-0.001172232
-8.839476e-05
-0.001139652
-9.879836e-05
-0.001105956
-0.0001100181
-0.001069757
-0.000121368
-0.001028594
-0.000133106
-0.0009818289
-0.0001454085
-0.0009320573
-0.0001583592
-0.0008804746
-0.0001719309
-0.0008270315
-0.000184136
-0.0007710303
-0.0001951019
-0.0007065342
-0.0002138918
-0.0006343324
-0.0002365193
-0.0005527003
-0.0002584338
-0.0004671789
-0.0002898111
-0.0003868517
-0.0003154649
-0.000296734
-0.0003484356
-0.000210809
-0.0003897886
-0.0001102348
-0.0004407498
-0.0004718469
-7.531838e-05
0.0003862812
-0.0001458801
0.0003661613
-0.0002132848
0.0003585219
-0.0002770914
0.0003499115
-0.0003375211
0.0003385819
-0.000394082
0.0003254754
-0.0004478453
0.0003105334
-0.0005013984
0.0002957053
-0.0005519088
0.0002817283
-0.0005977664
0.0002671311
-0.0006431247
0.0002538845
-0.0006885156
0.000239161
-0.0007340725
0.0002235795
-0.0007757875
0.0002073811
-0.00081342
0.000192762
-0.0008488423
0.0001797976
-0.0008829797
0.0001668948
-0.000914848
0.000153532
-0.0009437979
0.0001409592
-0.000969944
0.0001289126
-0.0009940371
0.0001171643
-0.001016248
0.0001056765
-0.001036068
9.45007e-05
-0.001053329
8.357356e-05
-0.001068332
7.278936e-05
-0.001081167
6.21233e-05
-0.001091634
5.157933e-05
-0.001099716
4.110455e-05
-0.001105544
3.067243e-05
-0.001110197
2.134551e-05
-0.001111818
1.157164e-05
-0.001110167
4.198837e-07
-0.001106922
-1.043171e-05
-0.001101552
-2.114226e-05
-0.001093921
-3.182123e-05
-0.001083676
-4.27601e-05
-0.001070741
-5.390128e-05
-0.00105536
-6.529976e-05
-0.001037802
-7.69949e-05
-0.001017964
-8.898081e-05
-0.0009954179
-0.0001012677
-0.0009698831
-0.0001139293
-0.0009416078
-0.0001270734
-0.0009107499
-0.0001408757
-0.0008784576
-0.0001536602
-0.0008426229
-0.0001689405
-0.0008032772
-0.0001847542
-0.0007612936
-0.0002003427
-0.0007177591
-0.0002154653
-0.0006696716
-0.0002322236
-0.0006127562
-0.0002520173
-0.0005483306
-0.0002783174
-0.0004826965
-0.0003021535
-0.0004144505
-0.0003266799
-0.0003514488
-0.0003528128
-0.0002848062
-0.0003821077
-0.0002163179
-0.0004169239
-0.0001468424
-0.0004592642
-7.639033e-05
-0.000511202
-0.0005482372
-6.062128e-05
0.000446904
-0.0001194158
0.0004249573
-0.0001748915
0.000413999
-0.0002276122
0.0004026336
-0.000278049
0.00038902
-0.0003262561
0.0003736837
-0.0003730619
0.0003573404
-0.0004177079
0.0003403524
-0.0004594922
0.0003235136
-0.0004977552
0.000305395
-0.0005326527
0.0002887828
-0.0005664833
0.0002729924
-0.0006013226
0.0002584196
-0.0006365883
0.0002426474
-0.0006691336
0.0002253079
-0.0006993272
0.0002099917
-0.0007278108
0.0001953789
-0.0007545524
0.0001802739
-0.0007792352
0.0001656423
-0.0008018455
0.0001515231
-0.0008224689
0.0001377879
-0.0008411437
0.0001243513
-0.00085782
0.0001111771
-0.0008724683
9.822188e-05
-0.0008851166
8.54377e-05
-0.0008957848
7.279146e-05
-0.0009044642
6.025876e-05
-0.0009111685
4.78088e-05
-0.0009158863
3.539017e-05
-0.0009186973
2.415649e-05
-0.0009185346
1.140891e-05
-0.0009169362
-1.178496e-06
-0.0009134586
-1.390937e-05
-0.0009078598
-2.674106e-05
-0.0009011054
-3.857555e-05
-0.0008918744
-5.199112e-05
-0.0008803306
-6.544496e-05
-0.0008665849
-7.904538e-05
-0.0008506807
-9.289896e-05
-0.0008325949
-0.0001070664
-0.0008122636
-0.0001215989
-0.0007896389
-0.0001365537
-0.0007647041
-0.000152008
-0.0007376689
-0.0001679108
-0.0007081761
-0.0001831529
-0.0006761269
-0.0002009896
-0.0006428823
-0.0002179986
-0.0006075677
-0.0002356573
-0.0005678261
-0.0002552069
-0.0005219171
-0.0002781325
-0.0004721811
-0.0003017534
-0.0004248224
-0.0003256762
-0.0003769749
-0.000350001
-0.0003276681
-0.0003759868
-0.0002760534
-0.0004044276
-0.0002221002
-0.0004360609
-0.0001670325
-0.0004719916
-0.0001121406
-0.0005141562
-5.741641e-05
-0.0005659263
-0.0006056536
-4.817416e-05
0.0004950801
-9.529708e-05
0.000472082
-0.0001393288
0.0004580323
-0.0001809974
0.0004443035
-0.0002208695
0.0004288933
-0.0002592154
0.0004120308
-0.0002961498
0.0003942759
-0.0003318047
0.0003760083
-0.0003659543
0.0003576641
-0.0003996945
0.0003391361
-0.0004317346
0.0003208236
-0.0004616068
0.0003028653
-0.000488352
0.0002851654
-0.000514944
0.0002692399
-0.000542357
0.0002527214
-0.0005675864
0.0002352215
-0.0005906869
0.0002184797
-0.0006125198
0.0002021071
-0.0006329661
0.0001860888
-0.0006518558
0.000170413
-0.0006691164
0.0001550485
-0.0006847199
0.0001399549
-0.0006986423
0.0001250995
-0.0007108704
0.00011045
-0.0007214075
9.597477e-05
-0.000730261
8.164494e-05
-0.0007374365
6.743422e-05
-0.0007429421
5.331441e-05
-0.0007468022
3.925019e-05
-0.0007479226
2.52769e-05
-0.0007476663
1.11526e-05
-0.0007467736
-2.07128e-06
-0.0007439961
-1.668688e-05
-0.0007394245
-3.131262e-05
-0.0007330382
-4.496182e-05
-0.000724837
-6.01923e-05
-0.000714872
-7.540986e-05
-0.000703134
-9.078336e-05
-0.0006896209
-0.0001064119
-0.0006743208
-0.0001223663
-0.000657217
-0.0001387025
-0.0006383001
-0.0001554705
-0.0006175917
-0.0001727163
-0.0005950293
-0.000190473
-0.0005693215
-0.0002088607
-0.0005431037
-0.0002272073
-0.0005147408
-0.0002463614
-0.0004826981
-0.0002676999
-0.0004470799
-0.0002908251
-0.0004107497
-0.0003144627
-0.0003739369
-0.0003385663
-0.0003361236
-0.0003634895
-0.0002965331
-0.0003895915
-0.00025521
-0.0004173099
-0.0002126275
-0.0004470101
-0.0001693816
-0.0004793068
-0.0001261187
-0.0005152544
-8.345319e-05
-0.0005568218
-4.2194e-05
-0.0006071855
-0.0006478476
-3.8475e-05
0.0005335572
-7.600368e-05
0.0005096126
-0.0001107358
0.0004927661
-0.00014344
0.0004770092
-0.0001746829
0.0004601375
-0.0002048
0.0004421489
-0.0002339376
0.0004234144
-0.0002621774
0.0004042489
-0.0002894515
0.000384939
-0.0003159293
0.0003656146
-0.0003415348
0.0003464298
-0.0003661484
0.0003274795
-0.0003897379
0.0003087553
-0.0004107763
0.0002902787
-0.0004313584
0.0002733038
-0.0004521562
0.0002560195
-0.0004716455
0.0002379692
-0.0004896969
0.0002201586
-0.0005064468
0.0002028389
-0.000521876
0.0001858422
-0.0005359539
0.0001691266
-0.0005486589
0.0001526599
-0.0005599732
0.0001364137
-0.000569884
0.0001203608
-0.0005783836
0.0001044743
-0.0005854657
8.872706e-05
-0.000591122
7.309043e-05
-0.0005953412
5.753357e-05
-0.0005981131
4.202208e-05
-0.0005993651
2.652894e-05
-0.0005991813
1.096876e-05
-0.0005983967
-2.855976e-06
-0.0005961296
-1.895399e-05
-0.000592463
-3.497922e-05
-0.0005864164
-5.100835e-05
-0.0005792981
-6.731064e-05
-0.000570886
-8.382191e-05
-0.0005610686
-0.0001006007
-0.000549785
-0.0001176954
-0.000536993
-0.0001351583
-0.0005226566
-0.0001530389
-0.0005067434
-0.0001713835
-0.0004892318
-0.0001902278
-0.0004700191
-0.0002096855
-0.0004497028
-0.0002291769
-0.0004273747
-0.0002495353
-0.0004019819
-0.0002717541
-0.0003750422
-0.0002946395
-0.0003476616
-0.0003182056
-0.0003196438
-0.0003424805
-0.0002906007
-0.0003676094
-0.0002603837
-0.0003937065
-0.0002290422
-0.000420933
-0.0001968134
-0.0004495387
-0.0001639367
-0.0004798868
-0.0001306941
-0.0005125494
-9.743974e-05
-0.0005485087
-6.461934e-05
-0.0005896422
-3.263942e-05
-0.0006391654
-0.0006804871
-3.044873e-05
0.0005640082
-5.977896e-05
0.0005389448
-8.653503e-05
0.0005195238
-0.0001115797
0.0005020553
-0.0001354986
0.0004840576
-0.0001586285
0.0004652799
-0.0001811346
0.0004459215
-0.0002030894
0.0004262046
-0.0002244789
0.0004063292
-0.0002452958
0.0003864321
-0.0002654807
0.0003666151
-0.0002849458
0.0003469451
-0.0003036445
0.0003274545
-0.0003215272
0.0003081617
-0.0003373252
0.0002891021
-0.000352513
0.0002712075
-0.0003678272
0.0002532835
-0.0003824186
0.0002347502
-0.0003959656
0.0002163859
-0.0004084234
0.0001983001
-0.0004197726
0.0001804758
-0.0004300025
0.0001628899
-0.0004391052
0.0001455164
-0.0004470757
0.0001283313
-0.0004539115
0.0001113101
-0.0004596124
9.442794e-05
-0.0004641801
7.765812e-05
-0.0004676182
6.097166e-05
-0.0004699329
4.433675e-05
-0.0004711245
2.772049e-05
-0.0004712402
1.108447e-05
-0.0004700299
-4.066324e-06
-0.0004678483
-2.113553e-05
-0.000464592
-3.823557e-05
-0.0004601738
-5.542651e-05
-0.0004546632
-7.282123e-05
-0.0004480337
-9.045145e-05
-0.0004402625
-0.0001083718
-0.0004313242
-0.0001266335
-0.0004211944
-0.0001452881
-0.0004098488
-0.0001643844
-0.0003972692
-0.0001839631
-0.0003834009
-0.000204096
-0.00036851
-0.0002245763
-0.0003519869
-0.0002456999
-0.0003332774
-0.0002682448
-0.0003136686
-0.0002913628
-0.0002931936
-0.0003151144
-0.0002718161
-0.0003395831
-0.000249495
-0.0003648015
-0.0002262758
-0.0003908285
-0.0002022286
-0.0004177537
-0.0001774459
-0.0004457157
-0.0001520601
-0.0004749244
-0.0001262456
-0.0005057013
-0.0001002235
-0.0005385715
-7.427828e-05
-0.000574454
-4.881388e-05
-0.0006151065
-2.441448e-05
-0.0006635647
-0.0007049015
-2.379677e-05
0.0005878072
-4.631463e-05
0.0005614645
-6.655288e-05
0.0005397637
-8.53515e-05
0.0005208553
-0.0001032329
0.0005019402
-0.0001205043
0.0004825523
-0.0001373364
0.0004627544
-0.0001538165
0.0004426854
-0.0001699659
0.0004224793
-0.0001857707
0.0004022375
-0.0002011908
0.0003820357
-0.0002161722
0.000361927
-0.0002306641
0.0003419467
-0.0002446225
0.0003221203
-0.0002579865
0.0003024664
-0.0002697931
0.0002830143
-0.0002808369
0.0002643275
-0.0002918458
0.0002457592
-0.0003022079
0.0002267481
-0.0003118303
0.0002079226
-0.0003206445
0.00018929
-0.0003286171
0.0001708626
-0.0003357268
0.0001526262
-0.0003419635
0.000134568
-0.0003473234
0.0001166701
-0.0003518077
9.891218e-05
-0.000355421
8.127139e-05
-0.0003581702
6.372086e-05
-0.0003600639
4.623045e-05
-0.0003611106
2.876714e-05
-0.0003613215
1.129536e-05
-0.0003603924
-4.995381e-06
-0.0003587383
-2.278968e-05
-0.0003563019
-4.067195e-05
-0.0003530342
-5.869422e-05
-0.0003489396
-7.69158e-05
-0.0003440024
-9.538867e-05
-0.000338206
-0.0001141682
-0.0003315296
-0.0001333099
-0.0003239473
-0.0001528703
-0.000315424
-0.0001729076
-0.0003059113
-0.0001934757
-0.0002953358
-0.0002146715
-0.0002835398
-0.0002363722
-0.000270169
-0.0002590706
-0.0002560304
-0.0002823834
-0.0002410761
-0.0003063171
-0.0002252795
-0.000330911
-0.000208675
-0.0003561876
-0.0001913038
-0.0003821727
-0.0001732265
-0.0004089058
-0.0001545257
-0.0004364545
-0.0001353089
-0.0004649324
-0.000115711
-0.0004945223
-9.589083e-05
-0.0005255215
-7.603239e-05
-0.0005584299
-5.635005e-05
-0.0005941363
-3.710463e-05
-0.0006343519
-1.860031e-05
-0.000682069
-0.0007235018
-1.82191e-05
0.0006060284
-3.513086e-05
0.0005783782
-4.99288e-05
0.0005545632
-6.342092e-05
0.0005343487
-7.617747e-05
0.0005146978
-8.853033e-05
0.000494906
-0.0001006458
0.0004748706
-0.0001125886
0.0004546289
-0.0001243606
0.0004342517
-0.0001359359
0.0004138134
-0.000147278
0.0003933781
-0.0001583435
0.0003729928
-0.0001690866
0.0003526901
-0.0001794587
0.0003324927
-0.000189408
0.0003124158
-0.0001988602
0.0002924667
-0.0002071995
0.000272667
-0.0002149925
0.0002535523
-0.0002227165
0.0002344722
-0.0002299124
0.0002151186
-0.0002365017
0.0001958794
-0.0002424897
0.0001768505
-0.0002478481
0.0001579846
-0.0002525623
0.0001392822
-0.0002566285
0.0001207363
-0.0002600487
0.0001023325
-0.0002628292
8.405181e-05
-0.0002649773
6.5869e-05
-0.0002665008
4.77539e-05
-0.000267406
2.96724e-05
-0.0002676982
1.158749e-05
-0.0002670713
-5.622256e-06
-0.0002659123
-2.394865e-05
-0.0002641911
-4.239319e-05
-0.0002618798
-6.100548e-05
-0.0002589574
-7.983825e-05
-0.0002554007
-9.894529e-05
-0.0002511868
-0.0001183821
-0.0002462917
-0.000138205
-0.0002406916
-0.0001584704
-0.0002343648
-0.0001792344
-0.0002272746
-0.0002005659
-0.0002194817
-0.0002224643
-0.0002108338
-0.0002450201
-0.0002015101
-0.0002683943
-0.0001914641
-0.0002924293
-0.0001806343
-0.000317147
-0.0001690185
-0.0003425267
-0.0001566504
-0.0003685557
-0.0001435942
-0.0003952289
-0.0001299356
-0.0004225643
-0.0001157759
-0.0004506142
-0.0001012292
-0.0004794791
-8.641777e-05
-0.0005093337
-7.146818e-05
-0.000540471
-5.651553e-05
-0.0005733825
-4.171537e-05
-0.0006089363
-2.727977e-05
-0.0006487874
-1.354479e-05
-0.0006958038
-0.0007370466
-1.347652e-05
0.0006195071
-2.560863e-05
0.0005905121
-3.58861e-05
0.0005648421
-4.507748e-05
0.0005435413
-5.366005e-05
0.0005232814
-6.18745e-05
0.0005031213
-6.985573e-05
0.0004828525
-7.768604e-05
0.0004624598
-8.546521e-05
0.0004420313
-9.32529e-05
0.0004216015
-0.0001010278
0.0004011533
-0.0001087454
0.0003807106
-0.000116352
0.0003602969
-0.0001237916
0.0003399325
-0.0001310082
0.0003196326
-0.0001379458
0.0002994044
-0.0001445317
0.000279253
-0.0001501902
0.0002592108
-0.0001553737
0.0002396558
-0.0001605026
0.0002202475
-0.0001653383
0.0002007152
-0.0001696988
0.000181211
-0.0001735636
0.0001618494
-0.0001769516
0.0001426703
-0.00017989
0.0001236747
-0.0001823949
0.0001048374
-0.000184481
8.613796e-05
-0.00018616
6.754801e-05
-0.0001874397
4.90336e-05
-0.0001883255
3.055818e-05
-0.0001888202
1.208223e-05
-0.0001886436
-5.798868e-06
-0.0001881261
-2.446611e-05
-0.0001872485
-4.327085e-05
-0.0001859904
-6.226351e-05
-0.0001843317
-8.149697e-05
-0.0001822505
-0.0001010264
-0.0001797241
-0.0001209086
-0.0001767287
-0.0001412004
-0.0001732407
-0.0001619583
-0.00016924
-0.0001832351
-0.0001647271
-0.0002050787
-0.0001596864
-0.000227505
-0.0001539532
-0.0002507532
-0.0001475965
-0.000274751
-0.000140519
-0.0002995067
-0.0001327008
-0.0003249652
-0.0001241679
-0.0003510596
-0.0001149818
-0.0003777417
-0.0001052328
-0.0004049778
-9.502276e-05
-0.0004327743
-8.445904e-05
-0.0004611779
-7.36497e-05
-0.0004902884
-6.270112e-05
-0.0005202823
-5.1718e-05
-0.000551454
-4.080658e-05
-0.0005842939
-3.008228e-05
-0.0006196606
-1.968546e-05
-0.000659184
-9.808626e-06
-0.0007056804
-0.0007468552
-1.047357e-05
0.0006299826
-1.929604e-05
0.0005993363
-2.61768e-05
0.0005717242
-3.194014e-05
0.0005493057
-3.699463e-05
0.0005283367
-4.170405e-05
0.0005078314
-4.628777e-05
0.0004874368
-5.085664e-05
0.0004670291
-5.546279e-05
0.0004466378
-6.011567e-05
0.0004262546
-6.478947e-05
0.0004058274
-6.94641e-05
0.0003853854
-7.411255e-05
0.0003649455
-7.87067e-05
0.0003445268
-8.323666e-05
0.0003241626
-8.768016e-05
0.000303848
-9.199113e-05
0.0002835641
-9.61073e-05
0.0002633271
-9.962364e-05
0.0002431721
-0.0001026908
0.0002233147
-0.0001055987
0.0002036231
-0.0001083305
0.0001839429
-0.0001108623
0.0001643813
-0.0001131516
0.0001449595
-0.000115184
0.0001257071
-0.0001169599
0.0001066133
-0.0001184941
8.767217e-05
-0.000119802
6.885585e-05
-0.0001208954
5.012708e-05
-0.0001217855
3.144821e-05
-0.0001224812
1.277794e-05
-0.0001227395
-5.540561e-06
-0.0001228318
-2.437374e-05
-0.000122741
-4.336164e-05
-0.0001224484
-6.255614e-05
-0.0001219327
-8.201266e-05
-0.0001211713
-0.0001017878
-0.0001201392
-0.0001219406
-0.0001188073
-0.0001425323
-0.0001171397
-0.0001636259
-0.0001150908
-0.000185284
-0.0001126046
-0.0002075648
-0.0001096134
-0.0002304963
-0.0001061946
-0.0002541719
-0.0001022756
-0.0002786699
-9.773683e-05
-0.0003040455
-9.256588e-05
-0.0003301361
-8.672659e-05
-0.0003568989
-8.028883e-05
-0.0003841794
-7.33813e-05
-0.0004118853
-6.613164e-05
-0.0004400239
-5.865018e-05
-0.0004686593
-5.102926e-05
-0.0004979093
-4.33472e-05
-0.0005279643
-3.567406e-05
-0.0005591271
-2.807688e-05
-0.000591891
-2.062613e-05
-0.0006271112
-1.341622e-05
-0.0006663938
-6.614212e-06
-0.0007124822
-0.0007534694
-6.818613e-06
0.0006368031
-1.174536e-05
0.0006042646
-1.462681e-05
0.0005746071
-1.623708e-05
0.0005509172
-1.763231e-05
0.0005297328
-1.916535e-05
0.0005093651
-2.096427e-05
0.0004892362
-2.310763e-05
0.0004691728
-2.538458e-05
0.000448915
-2.763272e-05
0.0004285029
-2.992399e-05
0.0004081188
-3.229072e-05
0.0003877522
-3.476674e-05
0.0003674216
-3.735714e-05
0.0003471172
-4.004551e-05
0.000326851
-4.271811e-05
0.0003065206
-4.520657e-05
0.0002860526
-4.743369e-05
0.0002655542
-4.938145e-05
0.00024512
-5.095521e-05
0.0002248885
-5.23762e-05
0.0002050441
-5.390434e-05
0.000185471
-5.554507e-05
0.000166022
-5.72034e-05
0.0001466179
-5.876598e-05
0.0001272697
-6.023251e-05
0.0001080799
-6.16329e-05
8.907258e-05
-6.298494e-05
7.020791e-05
-6.427554e-05
5.14177e-05
-6.549521e-05
3.26679e-05
-6.664752e-05
1.393026e-05
-6.753261e-05
-4.655451e-06
-6.837197e-05
-2.353437e-05
-6.914439e-05
-4.258921e-05
-6.983032e-05
-6.187019e-05
-7.040989e-05
-8.143307e-05
-7.08645e-05
-0.0001013332
-7.117533e-05
-0.0001216298
-7.132094e-05
-0.0001423867
-7.127233e-05
-0.0001636745
-7.098697e-05
-0.0001855693
-7.0414e-05
-0.0002081378
-6.944305e-05
-0.0002314672
-6.796716e-05
-0.0002556478
-6.59901e-05
-0.000280647
-6.357052e-05
-0.000306465
-6.048856e-05
-0.000333218
-5.670793e-05
-0.0003606795
-5.242416e-05
-0.0003884632
-4.780989e-05
-0.0004164995
-4.298243e-05
-0.0004448513
-3.802527e-05
-0.0004736164
-3.300464e-05
-0.0005029298
-2.797273e-05
-0.0005329961
-2.297203e-05
-0.0005641277
-1.804403e-05
-0.0005968189
-1.323489e-05
-0.0006319202
-8.606331e-06
-0.0006710222
-4.26085e-06
-0.0007168274
-0.0007577302
-4.447252e-06
0.0006412521
-6.552205e-06
0.0006063714
-6.608084e-06
0.0005746644
-6.026801e-06
0.0005503368
-4.982225e-06
0.0005286889
-3.611303e-06
0.0005079947
-2.093791e-06
0.000487719
-5.207962e-07
0.0004676001
8.099944e-07
0.0004475844
1.672523e-06
0.0004276405
2.081075e-06
0.0004077103
2.010254e-06
0.0003878231
1.430139e-06
0.0003680017
3.492453e-07
0.0003481981
-1.025183e-06
0.0003282255
-2.520747e-06
0.0003080162
-4.075168e-06
0.000287607
-5.607766e-06
0.0002670868
-7.060245e-06
0.0002465725
-8.350485e-06
0.0002261788
-9.371333e-06
0.000206065
-1.021092e-05
0.0001863107
-1.098582e-05
0.000166797
-1.181702e-05
0.0001474491
-1.278461e-05
0.0001282373
-1.386779e-05
0.0001091631
-1.504782e-05
9.025263e-05
-1.630567e-05
7.146578e-05
-1.762671e-05
5.273875e-05
-1.900997e-05
3.405118e-05
-2.047311e-05
1.539342e-05
-2.188451e-05
-3.244035e-06
-2.339454e-05
-2.202432e-05
-2.494191e-05
-4.104182e-05
-2.648732e-05
-6.032476e-05
-2.800753e-05
-7.991285e-05
-2.948598e-05
-9.985475e-05
-3.091331e-05
-0.0001202024
-3.22882e-05
-0.0001410117
-3.360484e-05
-0.0001623579
-3.483402e-05
-0.0001843401
-3.591517e-05
-0.0002070566
-3.677187e-05
-0.0002306105
-3.732476e-05
-0.0002550949
-3.737189e-05
-0.0002805998
-3.665065e-05
-0.0003071862
-3.520714e-05
-0.0003346615
-3.320909e-05
-0.0003626775
-3.066658e-05
-0.0003910056
-2.7788e-05
-0.0004193781
-2.483468e-05
-0.0004478045
-2.189182e-05
-0.0004765592
-1.896572e-05
-0.0005058559
-1.605414e-05
-0.0005359076
-1.316378e-05
-0.000567018
-1.031162e-05
-0.0005996709
-7.526102e-06
-0.0006347056
-4.85125e-06
-0.0006736968
-2.367821e-06
-0.0007193106
-0.000760098
-3.059224e-06
0.0006443131
-3.56358e-06
0.0006068773
-2.421212e-06
0.0005735231
-3.255964e-07
0.0005482419
2.417112e-06
0.0005259468
5.405603e-06
0.0005050066
8.442833e-06
0.0004846821
1.139462e-05
0.0004646485
1.419415e-05
0.000444785
1.684448e-05
0.0004249902
1.930273e-05
0.000405252
2.152356e-05
0.0003856022
2.343411e-05
0.0003660912
2.497989e-05
0.0003466523
2.603536e-05
0.00032717
2.652778e-05
0.0003075238
2.650287e-05
0.0002876319
2.603336e-05
0.0002675564
2.52909e-05
0.0002473149
2.439528e-05
0.0002270744
2.347364e-05
0.0002069866
2.268374e-05
0.0001871006
2.201518e-05
0.0001674655
2.138548e-05
0.0001480788
2.071255e-05
0.0001289103
1.995112e-05
0.0001099245
1.910822e-05
9.109556e-05
1.818578e-05
7.238824e-05
1.716088e-05
5.376368e-05
1.600915e-05
3.520293e-05
1.469989e-05
1.67027e-05
1.322249e-05
-1.76662e-06
1.143165e-05
-2.023346e-05
9.452028e-06
-3.906218e-05
7.344581e-06
-5.821729e-05
5.14559e-06
-7.771384e-05
2.877286e-06
-9.758642e-05
5.572471e-07
-0.0001178824
-1.79722e-06
-0.0001386573
-4.165716e-06
-0.0001599894
-6.519511e-06
-0.0001819863
-8.814316e-06
-0.0002047618
-1.099156e-05
-0.0002284332
-1.29521e-05
-0.0002531344
-1.455284e-05
-0.0002789991
-1.568604e-05
-0.000306053
-1.619855e-05
-0.000334149
-1.588672e-05
-0.0003629893
-1.48319e-05
-0.0003920604
-1.337572e-05
-0.0004208342
-1.184801e-05
-0.0004493322
-1.037825e-05
-0.0004780289
-8.930259e-06
-0.0005073038
-7.492383e-06
-0.0005373454
-6.074576e-06
-0.0005684357
-4.693604e-06
-0.0006010518
-3.375008e-06
-0.000636024
-2.154585e-06
-0.000674917
-1.075916e-06
-0.000720389
-0.0007611738
-1.841658e-06
0.0006461568
-9.918202e-07
0.0006060291
1.530201e-06
0.000571002
5.343241e-06
0.0005444296
9.675917e-06
0.0005216146
1.420016e-05
0.0005004827
1.872768e-05
0.0004801548
2.314437e-05
0.0004602319
2.739666e-05
0.0004405327
3.140745e-05
0.0004209794
3.509952e-05
0.0004015599
3.840059e-05
0.0003823011
4.123523e-05
0.0003632564
4.354878e-05
0.0003443387
4.543044e-05
0.0003252882
4.705733e-05
0.0003058968
4.849051e-05
0.0002861987
4.973916e-05
0.0002663077
5.063586e-05
0.0002464182
5.107986e-05
0.0002266304
5.119834e-05
0.0002068681
5.108264e-05
0.0001872163
5.078578e-05
0.0001677624
5.033555e-05
0.0001485291
4.973022e-05
0.0001295156
4.895206e-05
0.0001107027
4.798899e-05
9.205865e-05
4.683717e-05
7.354008e-05
4.549773e-05
5.510314e-05
4.397981e-05
3.672087e-05
4.228973e-05
1.83928e-05
4.037237e-05
1.507567e-07
3.805962e-05
-1.792068e-05
3.545682e-05
-3.645937e-05
3.26381e-05
-5.539855e-05
2.965229e-05
-7.4728e-05
2.653397e-05
-9.446809e-05
2.331465e-05
-0.000114663
2.003461e-05
-0.0001353772
1.674061e-05
-0.0001566953
1.347682e-05
-0.0001787225
1.029303e-05
-0.000201578
7.250207e-06
-0.0002253904
4.407767e-06
-0.0002502919
1.807726e-06
-0.000276399
-4.792675e-07
-0.000303766
-2.312674e-06
-0.0003323155
-3.574481e-06
-0.0003617274
-4.191697e-06
-0.0003914432
-4.167486e-06
-0.0004208584
-3.76358e-06
-0.0004497361
-3.251694e-06
-0.0004785408
-2.717484e-06
-0.0005078379
-2.192695e-06
-0.0005378701
-1.693784e-06
-0.0005689345
-1.231158e-06
-0.0006015143
-8.150685e-07
-0.00063644
-4.610061e-07
-0.0006752708
-1.9325e-07
-0.0007206564
-0.000761367
-9.868571e-07
0.0006471451
6.862871e-07
0.0006043571
4.656577e-06
0.0005670328
9.713909e-06
0.000539373
1.532004e-05
0.000516009
2.115772e-05
0.0004946453
2.701556e-05
0.0004742971
3.274125e-05
0.0004545062
3.821767e-05
0.0004350562
4.334566e-05
0.0004158513
4.804275e-05
0.0003968627
5.224633e-05
0.0003780974
5.592376e-05
0.0003595789
5.911381e-05
0.0003411485
6.191141e-05
0.0003224905
6.435391e-05
0.0003034542
6.644814e-05
0.0002841044
6.81691e-05
0.0002645866
6.954948e-05
0.0002450378
7.06808e-05
0.000225499
7.14673e-05
0.0002060816
7.185634e-05
0.0001868272
7.188964e-05
0.0001677291
7.157852e-05
0.0001488402
7.093499e-05
0.0001301592
6.997371e-05
0.000111664
6.871373e-05
9.331864e-05
6.717472e-05
7.507911e-05
6.537574e-05
5.690213e-05
6.333784e-05
3.875879e-05
6.107712e-05
2.065354e-05
5.85722e-05
2.655703e-06
5.571352e-05
-1.506198e-05
5.253019e-05
-3.327602e-05
4.909432e-05
-5.196265e-05
4.547527e-05
-7.110894e-05
4.172714e-05
-9.071994e-05
3.789523e-05
-0.0001108311
3.402403e-05
-0.000131506
3.016136e-05
-0.0001528326
2.63588e-05
-0.0001749199
2.267296e-05
-0.0001978921
1.91665e-05
-0.0002218839
1.590515e-05
-0.0002470305
1.2949e-05
-0.0002734428
1.034087e-05
-0.0003011579
8.100043e-06
-0.0003300747
6.263492e-06
-0.0003598909
4.900786e-06
-0.0003900804
4.025557e-06
-0.0004199831
3.451992e-06
-0.0004491625
2.969125e-06
-0.0004780578
2.515887e-06
-0.0005073846
2.091438e-06
-0.0005374456
1.695547e-06
-0.0005685385
1.321969e-06
-0.0006011406
9.617734e-07
-0.0006360796
6.055575e-07
-0.0006749143
2.568204e-07
-0.0007203072
-0.0007611102
-4.8292e-07
0.0006476295
2.141641e-06
0.0006017338
6.864628e-06
0.0005623107
1.273735e-05
0.000533501
1.920478e-05
0.000509542
2.592793e-05
0.0004879224
3.268029e-05
0.0004675448
3.929746e-05
0.000447889
4.565555e-05
0.0004286981
5.165924e-05
0.0004098475
5.723888e-05
0.0003912829
6.235015e-05
0.0003729859
6.697561e-05
0.0003549533
7.111641e-05
0.0003370076
7.475639e-05
0.0003188504
7.786606e-05
0.0003003444
8.044008e-05
0.0002815302
8.251458e-05
0.0002625121
8.415744e-05
0.0002433949
8.537201e-05
0.0002242844
8.617837e-05
0.0002052752
8.659508e-05
0.0001864105
8.657696e-05
0.0001677472
8.613172e-05
0.0001492854
8.527688e-05
0.000131014
8.403526e-05
0.0001129056
8.243193e-05
9.492198e-05
8.04935e-05
7.701755e-05
7.82473e-05
5.914834e-05
7.572067e-05
4.128544e-05
7.294045e-05
2.343378e-05
6.993938e-05
5.656793e-06
6.678804e-05
-1.191063e-05
6.318818e-05
-2.967614e-05
5.932548e-05
-4.809993e-05
5.530126e-05
-6.70847e-05
5.117739e-05
-8.659605e-05
4.700412e-05
-0.0001066578
4.283061e-05
-0.0001273325
3.870695e-05
-0.000148709
3.468327e-05
-0.0001708962
3.080953e-05
-0.0001940184
2.71349e-05
-0.0002182092
2.37058e-05
-0.0002436014
2.056556e-05
-0.0002703026
1.775827e-05
-0.0002983505
1.533014e-05
-0.0003276465
1.331679e-05
-0.0003578775
1.171802e-05
-0.0003884816
1.04919e-05
-0.000418757
9.544747e-06
-0.0004482153
8.675608e-06
-0.0004771886
7.753491e-06
-0.0005064624
6.793582e-06
-0.0005364856
5.797881e-06
-0.0005675427
4.760644e-06
-0.0006001032
3.669902e-06
-0.0006349887
2.506958e-06
-0.0006737511
1.255306e-06
-0.0007190552
-0.0007598548
-1.758039e-07
0.0006478066
2.90022e-06
0.000598659
8.142234e-06
0.0005570696
1.457961e-05
0.0005270642
2.164455e-05
0.0005024774
2.897994e-05
0.0004805872
3.634435e-05
0.0004601804
4.356436e-05
0.0004406689
5.051194e-05