/*--------------------------------*- C++ -*----------------------------------*\
| =========                 |                                                 |
| \\      /  F ield         | OpenFOAM: The Open Source CFD Toolbox           |
|  \\    /   O peration     | Version:  2312                                  |
|   \\  /    A nd           | Website:  www.openfoam.com                      |
|    \\/     M anipulation  |                                                 |
\*---------------------------------------------------------------------------*/
FoamFile
{
    version     2.0;
    format      ascii;
    arch        "LSB;label=32;scalar=64";
    class       volScalarField;
    location    "5400";
    object      qin;
}
// * * * * * * * * * * * * * * * * * * * * * * * * * * * * * * * * * * * * * //

dimensions      [1 0 -3 0 0 0 0];

internalField   uniform 0;

boundaryField
{
    plate
    {
        type            calculated;
        value           nonuniform List<scalar> 
200
(
2397.733
2340.952
2308.805
2285.148
2261.693
2243.044
2237.668
2246.093
2260.512
2274.049
2283.163
2284.306
2275.661
2261.372
2248.891
2242.854
2244.636
2255.515
2275.934
2302.029
2325.814
2339.798
2341.851
2337.072
2334.973
2342.364
2357.967
2375.383
2390.637
2403.794
2414.029
2418.281
2416.473
2413.707
2414.2
2416.436
2418.035
2422.141
2433.479
2449.771
2462.788
2467.339
2464.749
2458.75
2452.425
2448.52
2448.971
2453.615
2460.413
2466.646
2470.415
2472.759
2477.664
2487.35
2497.979
2502.913
2499.872
2492.035
2483.28
2476.154
2473.549
2477.649
2486.768
2496.283
2502.439
2503.463
2499.262
2492.524
2487.591
2486.085
2486.158
2486.991
2490.191
2495.43
2498.738
2497.239
2492.63
2488.002
2483.756
2478.97
2474.739
2473.105
2473.434
2472.565
2468.844
2464.193
2461.633
2462.029
2463.845
2465.148
2465.024
2463.59
2461.65
2460.529
2461.576
2465.318
2470.989
2476.984
2481.823
2484.891
2486.549
2487.664
2488.903
2490.188
2490.679
2489.341
2485.731
2480.48
2475.137
2471.452
2470.51
2472.199
2475.308
2478.194
2479.629
2479.345
2478.024
2476.792
2476.589
2477.752
2479.992
2482.713
2485.414
2487.937
2490.448
2493.185
2496.178
2499.109
2501.401
2502.471
2502.006
2500.11
2497.256
2494.1
2491.263
2489.198
2488.164
2488.284
2489.58
2491.961
2495.154
2498.67
2501.877
2504.185
2505.27
2505.221
2504.464
2503.5
2502.55
2501.341
2499.184
2495.353
2489.608
2482.553
2475.607
2470.478
2468.348
2469.137
2471.254
2472.075
2469.078
2461.192
2449.74
2438.366
2431.743
2433.519
2444.452
2461.797
2480.387
2494.94
2502.351
2502.787
2499.088
2494.993
2493.179
2494.018
2495.454
2494.003
2486.478
2471.743
2451.803
2431.902
2419.52
2422.032
2443.007
2478.634
2517.612
2546.672
2558.651
2555.828
2545.183
2532.013
2521.33
2524.959
2558.963
2624.878
2697.854
2748.023
2779.174
2826.094
)
;
    }
    riser
    {
        type            calculated;
        value           nonuniform List<scalar> 
200
(
5353.526
5181.641
5146.387
5183.021
5280.585
5392.714
5512.896
5525.282
5306.092
5115.896
5292.903
5579.991
5556.995
5414.964
5535.868
5817.156
5937.953
5832.363
5666.143
5609.663
5743.693
6054.121
6400.91
6600.853
6652.444
6696.893
6696.8
6513.834
6311.123
6412.192
6766.559
6965.607
6811.433
6615.842
6818.66
7373.702
7808.622
7922.953
7891.812
7688.694
7177.454
6685.065
6661.646
7007.762
7323.559
7417.807
7278.579
6970.833
6694.92
6631.756
6706.728
6704.168
6602.846
6554.79
6522.523
6352.438
6214.8
6475.789
7080.498
7546.758
7627.982
7480.883
7212.176
6849.776
6646.462
6787.247
7050.868
7229.629
7419.615
7595.357
7521.411
7270.204
7195.346
7334.964
7365.478
7113.128
6771.872
6592.751
6555.641
6490.513
6398.459
6426.155
6602.789
6798.129
6892.585
6878.18
6820.549
6778.112
6772.876
6804.266
6855.634
6896.761
6908.049
6899.205
6894.738
6908.728
6936.306
6961.231
6965.07
6931.726
6853.538
6738.869
6612.731
6507.723
6451.037
6454.713
6512.707
6604.99
6706.711
6798.316
6871.091
6925.043
6962.09
6981.034
6977.864
6949.846
6899.652
6836.681
6774.664
6726.66
6700.057
6694.223
6701.873
6713.14
6720.127
6719.858
6714.566
6709.617
6710.502
6720.529
6740.107
6767.399
6799.496
6833.362
6866.262
6895.756
6919.613
6935.902
6943.333
6941.716
6932.333
6917.864
6901.693
6886.84
6875.049
6866.453
6859.824
6853.211
6844.823
6834.003
6821.872
6811.169
6805.282
6806.923
6816.911
6833.427
6852.225
6868.141
6877.511
6880.105
6878.911
6877.275
6874.886
6865.31
6837.352
6780.764
6694.029
6589.509
6491.381
6426.025
6410.06
6442.878
6506.948
6574.632
6618.833
6624.578
6596.071
6552.946
6515.552
6488.366
6454.331
6386.97
6275.04
6141.978
6035.798
5985.614
5967.579
5932.695
5880.231
5874.129
5944.691
5970.191
5795.441
5451.259
5166.233
5096.454
5121.644
5072.156
5078.476
4964.103
)
;
    }
    topAndBottom
    {
        type            calculated;
        value           nonuniform List<scalar> 
120
(
2061.606
2592.104
3113.046
3472.35
3744.001
3962.341
4113.486
4202.857
4263.425
4324.718
4394.173
4463.358
4523.229
4572.487
4615.637
4656.582
4694.478
4724.342
4740.745
4741.488
4729.045
4709.319
4688.771
4671.664
4658.835
4648.452
4638.074
4626.714
4615.751
4608.297
4607.518
4614.923
4629.551
4648.371
4667.522
4683.609
4694.424
4698.947
4697.013
4689.106
4676.452
4661.134
4645.76
4632.558
4622.354
4614.146
4605.669
4594.533
4579.084
4558.511
4532.489
4501.017
4464.519
4423.873
4380.543
4337.415
4301.452
4282.609
4285.261
4357.491
7381.301
7405.687
7400.818
7239.183
6870.791
6393.386
5956.388
5646.874
5466.722
5370.048
5314.124
5298.573
5365.091
5553.266
5847.94
6164.015
6387.157
6441.294
6328.733
6114.188
5871.664
5637.894
5403.592
5140.78
4839.129
4523.745
4245.852
4057.578
3988.869
4037.823
4174.611
4352.456
4519.482
4628.992
4648.324
4565.99
4395.045
4170.172
3937.983
3743.561
3618.496
3575.012
3607.506
3699.274
3830.381
3983.273
4144.816
4305.407
4456.914
4591.309
4701.306
4782.897
4837.806
4873.052
4896.675
4912.23
4918.276
4908.16
4896.944
4839.182
)
;
    }
    frontAndBack
    {
        type            empty;
    }
}


// ************************************************************************* //
