/*--------------------------------*- C++ -*----------------------------------*\
| =========                 |                                                 |
| \\      /  F ield         | OpenFOAM: The Open Source CFD Toolbox           |
|  \\    /   O peration     | Version:  2312                                  |
|   \\  /    A nd           | Website:  www.openfoam.com                      |
|    \\/     M anipulation  |                                                 |
\*---------------------------------------------------------------------------*/
FoamFile
{
    version     2.0;
    format      ascii;
    arch        "LSB;label=32;scalar=64";
    class       volScalarField;
    location    "5400";
    object      T;
}
// * * * * * * * * * * * * * * * * * * * * * * * * * * * * * * * * * * * * * //

dimensions      [0 0 0 1 0 0 0];

internalField   nonuniform List<scalar> 
12000
(
449.617
436.351
434.7048
434.4599
434.4217
434.4117
434.406
434.4012
434.3963
434.3908
434.3835
434.3738
434.3622
434.3489
434.3333
434.3144
434.2927
434.2687
434.242
434.2119
434.1787
434.1428
434.104
434.0618
434.0166
433.9687
433.9179
433.8642
433.8079
433.7492
433.688
433.6245
433.5564
433.4829
433.4048
433.316
433.2107
433.0916
432.9708
432.8472
432.7122
432.5507
432.3646
432.1816
432.0065
431.8178
431.566
431.2832
431.0244
430.7556
430.4037
429.9679
429.5123
429.0075
428.3776
427.5821
426.5511
425.2087
423.0375
419.0751
449.732
436.8739
435.381
435.3092
435.4828
435.6958
435.9139
436.1357
436.3658
436.5871
436.7806
436.9625
437.1481
437.3319
437.492
437.6272
437.7577
437.8911
438.0101
438.1046
438.1882
438.2722
438.3471
438.4039
438.4503
438.4927
438.526
438.5472
438.5611
438.568
438.5643
438.553
438.5358
438.5088
438.4712
438.4236
438.3659
438.2981
438.2205
438.1321
438.0318
437.9177
437.7892
437.6441
437.4796
437.2932
437.0839
436.848
436.5798
436.2761
435.9265
435.5239
435.0607
434.5041
433.8342
432.9625
431.749
429.9996
427.1502
421.7898
450.2308
437.5861
436.0393
436.0371
436.3475
436.7168
437.0926
437.4613
437.8191
438.1615
438.4825
438.7803
439.0581
439.3182
439.5589
439.7797
439.9825
440.1692
440.3394
440.493
440.6311
440.7551
440.8656
440.9625
441.0465
441.1184
441.1785
441.2272
441.2646
441.2913
441.3073
441.3129
441.3096
441.2936
441.2657
441.2259
441.1744
441.1109
441.0352
440.9469
440.8456
440.7302
440.5999
440.453
440.2882
440.1044
439.8994
439.6683
439.4045
439.1056
438.7715
438.3986
437.9648
437.4444
436.7942
435.9548
434.8158
433.0419
429.9292
423.2371
451.0161
438.2919
436.644
436.6592
437.0516
437.5214
437.9961
438.4558
438.8938
439.3098
439.7044
440.0753
440.422
440.7425
441.0386
441.3124
441.5653
441.7982
442.0119
442.2073
442.3851
442.5464
442.6916
442.8212
442.9358
443.0357
443.1212
443.1924
443.2496
443.2928
443.322
443.3381
443.3408
443.3282
443.3007
443.2587
443.202
443.1305
443.0437
442.9414
442.8231
442.6881
442.5359
442.3655
442.1759
441.9671
441.7367
441.4815
441.1981
440.8827
440.5293
440.1227
439.649
439.0976
438.4354
437.6043
436.4638
434.7282
431.587
424.1955
451.9223
439.0035
437.2283
437.2205
437.6519
438.1835
438.7235
439.2451
439.7402
440.2086
440.6497
441.0658
441.4572
441.8229
442.1629
442.4784
442.7712
443.0423
443.2924
443.5221
443.7323
443.9236
444.0967
444.2519
444.3898
444.5106
444.6145
444.7016
444.772
444.8257
444.8632
444.8848
444.8887
444.8752
444.8446
444.7974
444.7331
444.6515
444.5521
444.4345
444.2981
444.1425
443.9669
443.7707
443.5528
443.3131
443.0499
442.7624
442.4498
442.0986
441.6934
441.2408
440.7379
440.1604
439.4745
438.6259
437.4931
435.7942
432.6901
424.9365
452.8952
439.7149
437.7951
437.7317
438.165
438.7265
439.3061
439.8697
440.4068
440.9152
441.3945
441.8455
442.2693
442.6677
443.0411
443.3892
443.713
444.0137
444.2918
444.5478
444.7823
444.9959
445.1892
445.3627
445.5167
445.6516
445.7676
445.8647
445.9432
446.0029
446.0445
446.0673
446.0709
446.0555
446.0213
445.9687
445.8972
445.8064
445.6959
445.5651
445.4133
445.24
445.0443
444.8254
444.5826
444.3146
444.0207
443.6994
443.348
442.9616
442.5324
442.0546
441.5195
440.9109
440.1993
439.3301
438.191
436.5118
433.4566
425.5086
453.9051
440.4156
438.3468
438.2081
438.6167
439.184
439.7835
440.3729
440.9383
441.4753
441.983
442.4617
442.9123
443.3353
443.7324
444.1044
444.4512
444.7735
445.0717
445.3464
445.5982
445.8274
446.0346
446.2204
446.385
446.5289
446.6524
446.7556
446.8388
446.9019
446.945
446.968
446.9708
446.9537
446.9168
446.8602
446.7834
446.686
446.5674
446.4271
446.2641
446.0778
445.867
445.631
445.3686
445.0788
444.7605
444.4116
444.0295
443.6109
443.1513
442.645
442.0824
441.4478
440.7134
439.8279
438.6845
437.0215
434.0085
425.9293
454.9305
441.1071
438.8845
438.6577
439.0221
439.5767
440.1811
440.7844
441.3675
441.9238
442.4512
442.9496
443.4193
443.8611
444.2755
444.6637
445.0263
445.3634
445.6754
445.9627
446.2259
446.4654
446.6816
446.8752
447.0465
447.196
447.3239
447.4307
447.5164
447.5813
447.6253
447.6484
447.6507
447.6325
447.5939
447.5348
447.4547
447.3532
447.2295
447.0828
446.9121
446.7166
446.4949
446.2461
445.9689
445.6622
445.3244
444.9537
444.5482
444.1052
443.6211
443.0903
442.504
441.8471
441.0935
440.1939
439.0457
437.395
434.4234
426.2605
455.9645
441.7911
439.4095
439.0871
439.3949
439.9228
440.519
441.1243
441.7154
442.2828
442.823
443.3347
443.8177
444.2725
444.6993
445.0986
445.4712
445.8176
446.1382
446.4332
446.7034
446.949
447.1706
447.3687
447.5438
447.6964
447.8268
447.9354
448.0226
448.0885
448.1333
448.1568
448.1592
448.1409
448.1019
448.0419
447.9604
447.8569
447.7305
447.5802
447.4049
447.2034
446.9743
446.7164
446.4283
446.1084
445.7553
445.3676
444.9436
444.4811
443.9768
443.4259
442.8201
442.1453
441.3767
440.4668
439.3162
437.6777
434.7445
426.5405
456.8666
442.4606
439.9212
439.5009
439.7434
440.2333
440.8106
441.4088
441.9999
442.5714
443.118
443.6373
444.1284
444.5913
445.0259
445.4324
445.8114
446.1634
446.489
446.7886
447.0626
447.3114
447.5357
447.736
447.9129
448.067
448.1986
448.3082
448.3962
448.4629
448.5084
448.5326
448.5359
448.5183
448.4799
448.4203
448.339
448.2352
448.1081
447.9565
447.7789
447.574
447.3402
447.0759
446.7795
446.4495
446.0845
445.6833
445.2444
444.766
444.2457
443.6788
443.0577
442.3691
441.5889
440.6713
439.5196
437.8927
434.9983
426.7967
457.9145
443.118
440.4187
439.9003
440.0733
440.5177
441.0677
441.6509
442.2346
442.8038
443.3511
443.8729
444.3676
444.8345
445.2733
445.6842
446.0673
446.4228
446.7514
447.0535
447.3295
447.58
447.8056
448.007
448.1846
448.3392
448.4713
448.5814
448.6698
448.737
448.7832
448.8084
448.8127
448.7963
448.7591
448.7007
448.6204
448.5175
448.3909
448.2392
448.0609
447.8543
447.6176
447.3489
447.0464
446.7086
446.334
445.9217
445.4705
444.9792
444.4457
443.866
443.2331
442.5343
441.7462
440.8239
439.6731
438.0578
435.1999
427.0362
459.0731
443.7622
440.9024
440.2883
440.3903
440.784
441.3
441.8614
442.4316
442.9927
443.5354
444.055
444.5491
445.0163
445.4562
445.8686
446.2538
446.6117
446.9426
447.2469
447.5247
447.7767
448.0035
448.2056
448.3839
448.5389
448.6712
448.7814
448.8701
448.9376
448.9843
449.0103
449.0157
449.0005
448.9647
448.9077
448.829
448.7276
448.6022
448.4514
448.2735
448.0665
447.8283
447.5566
447.2493
446.9047
446.5214
446.0988
445.6367
445.1345
444.5906
444.0015
443.3602
442.6544
441.8611
440.9364
439.7876
438.1836
435.361
427.2645
460.0298
444.4108
441.3809
440.6666
440.6942
441.0325
441.509
442.0429
442.5941
443.1421
443.6756
444.1888
444.6782
445.1423
445.5804
445.9924
446.3788
446.7398
447.0753
447.3836
447.6643
447.9188
448.1475
448.3512
448.5307
448.6864
448.8191
448.9295
449.0181
449.0857
449.1326
449.159
449.1651
449.151
449.1164
449.0609
448.9837
448.8839
448.7601
448.6108
448.4339
448.2273
447.9884
447.7146
447.4031
447.0515
446.6589
446.2256
445.7529
445.2413
444.6896
444.0941
443.4478
442.7382
441.9425
441.0176
439.8722
438.2789
435.4878
427.4802
461.1051
445.0538
441.8509
441.0376
440.9912
441.272
441.7047
442.2059
442.7328
443.2621
443.781
444.2822
444.7615
445.2166
445.6463
446.0557
446.4476
446.8174
447.1621
447.4786
447.7658
448.0244
448.2563
448.463
448.6448
448.8016
448.9337
449.0428
449.1305
449.1975
449.2441
449.2705
449.2768
449.2632
449.2294
449.1749
449.099
449.0006
448.8784
448.7306
448.5552
448.3495
448.1112
447.8368
447.5219
447.1621
446.7565
446.3086
445.8245
445.3064
444.7508
444.1526
443.5045
442.7939
441.9982
441.0747
439.9331
438.3495
435.5863
427.6776
462.1615
445.6902
442.3138
441.4035
441.286
441.5103
441.898
442.3635
442.8619
443.3681
443.8678
444.3524
444.8163
445.2599
445.687
446.0981
446.491
446.8635
447.2131
447.537
447.8324
448.0985
448.3359
448.5458
448.7293
448.8872
449.0206
449.1307
449.2184
449.2847
449.3303
449.3559
449.3618
449.3481
449.3146
449.2606
449.1855
449.0882
448.9674
448.8213
448.6474
448.4426
448.2035
447.9258
447.605
447.2378
446.8238
446.3653
445.8683
445.341
444.7834
444.1858
443.5385
442.8289
442.0347
441.1136
439.9763
438.4011
435.6601
427.8446
463.2082
446.3242
442.7714
441.7672
441.5808
441.7481
442.0889
442.5161
442.9833
443.4641
443.9429
444.4104
444.8611
445.2949
445.7156
446.1244
446.5187
446.8949
447.2486
447.5761
447.8758
448.1471
448.3898
448.604
448.7907
448.951
449.086
449.1971
449.2855
449.3521
449.3976
449.4229
449.4285
449.4145
449.3807
449.3266
449.2513
449.1539
449.0329
448.8862
448.7115
448.5055
448.2648
447.9851
447.662
447.2913
446.8706
446.4028
445.8958
445.36
444.7992
444.2031
443.5574
442.8497
442.0578
441.1396
440.0063
438.4384
435.7145
427.9733
464.2554
446.9542
443.2281
442.1316
441.8765
441.9871
442.2803
442.6681
443.1028
443.557
444.0143
444.4646
444.9015
445.3253
445.7405
446.1478
446.5431
446.9204
447.2752
447.6051
447.9083
448.1834
448.4298
448.6475
448.8372
448.9999
449.1369
449.2495
449.3388
449.406
449.4517
449.4767
449.4818
449.4672
449.4326
449.3775
449.3012
449.2026
449.0803
448.9324
448.7561
448.5485
448.3058
448.0237
447.6978
447.3241
446.9007
446.429
445.9156
445.3716
444.8063
444.2108
443.5673
442.8621
442.0729
441.1578
440.0285
438.4666
435.7549
428.0637
465.2992
447.5814
443.6885
442.4978
442.1744
442.229
442.4752
442.8237
443.226
443.6537
444.0898
444.5235
444.9479
445.3631
445.7727
446.176
446.5686
446.9453
447.3017
447.6339
447.9393
448.2167
448.4653
448.6853
448.877
449.0414
449.1798
449.2934
449.3833
449.4506
449.4962
449.5206
449.5248
449.5093
449.4736
449.4171
449.3393
449.2391
449.1151
448.9654
448.7873
448.5778
448.3332
448.0492
447.7211
447.345
446.9185
446.4428
445.9249
445.3764
444.8074
444.2117
443.5711
442.8688
442.0827
441.171
440.0458
438.4895
435.7876
428.1244
466.3288
448.2083
444.1508
442.8659
442.4753
442.4755
442.676
442.9864
443.3573
443.7596
444.1756
444.5939
445.0069
445.4139
445.8174
446.2164
446.6062
446.9814
447.337
447.6694
447.9757
448.2541
448.5036
448.7242
448.9164
449.0812
449.2197
449.3332
449.4227
449.4893
449.5339
449.5573
449.5603
449.5435
449.5065
449.4484
449.3688
449.2668
449.141
448.9893
448.8093
448.5978
448.3511
448.0649
447.7347
447.3565
446.9278
446.4496
445.9284
445.3758
444.8031
444.2074
443.5698
442.8705
442.0875
441.1791
440.0579
438.5068
435.8126
428.1621
467.3301
448.8365
444.6148
443.2364
442.78
442.7279
442.885
443.1592
443.5006
443.8794
444.2771
444.6818
445.0855
445.4852
445.8821
446.2758
446.6615
447.0336
447.3872
447.718
448.0231
448.3004
448.5489
448.7684
448.9595
449.1231
449.2601
449.372
449.4599
449.5248
449.5677
449.5893
449.5904
449.5719
449.5332
449.4735
449.3921
449.2882
449.1604
449.0067
448.8245
448.6109
448.362
448.0736
447.7413
447.361
446.9302
446.4499
445.9264
445.3715
444.7971
444.2019
443.5668
442.8703
442.0903
441.1854
440.0686
438.5231
435.8374
428.1989
468.2982
449.465
445.0803
443.6095
443.0894
442.9876
443.1039
443.3446
443.6589
444.0165
444.3982
444.7915
445.1877
445.581
445.9713
446.359
446.7393
447.1068
447.4562
447.7833
448.0849
448.3589
448.6043
448.8208
449.0088
449.1692
449.3031
449.4119
449.4968
449.5589
449.599
449.618
449.6168
449.596
449.5553
449.4937
449.4104
449.3046
449.1748
449.019
448.8348
448.6189
448.3678
448.0771
447.7427
447.3604
446.9279
446.446
445.9209
445.3643
444.7889
444.1948
443.5624
442.8688
442.0921
441.1909
440.0785
438.5388
435.8622
428.2386
469.2313
450.094
445.5476
443.9859
443.4043
443.2556
443.3341
443.5443
443.8343
444.1732
444.541
444.9245
445.3142
445.7034
446.0886
446.4689
446.8421
447.2028
447.5459
447.8669
448.1626
448.431
448.671
448.8822
449.0651
449.2206
449.3499
449.4541
449.5347
449.5927
449.6291
449.6447
449.6404
449.6169
449.5738
449.51
449.4247
449.3169
449.185
449.0272
448.8409
448.6229
448.3695
448.0767
447.7402
447.3561
446.922
446.4388
445.9127
445.3554
444.7799
444.187
443.5574
442.8667
442.0932
441.1959
440.088
438.5543
435.8873
428.2841
470.1353
450.7214
446.0165
444.366
443.7255
443.5328
443.5768
443.7594
444.0278
444.3502
444.706
445.081
445.4651
445.8508
446.2323
446.6059
446.9703
447.3221
447.6564
447.9688
448.2563
448.5166
448.7489
448.9527
449.1286
449.2775
449.4005
449.4988
449.5739
449.6268
449.6585
449.67
449.6619
449.6351
449.5892
449.523
449.4355
449.3256
449.1917
449.0319
448.8435
448.6234
448.368
448.0732
447.7347
447.3489
446.9135
446.4294
445.9028
445.3454
444.7703
444.1792
443.5522
442.8645
442.0944
441.2008
440.0976
438.5702
435.9134
428.3344
471.0094
451.3485
446.488
444.7507
444.0537
443.8199
443.8324
443.9904
444.2397
444.5475
444.8926
445.2597
445.6382
446.0196
446.3974
446.7666
447.1224
447.4628
447.7859
448.0875
448.3643
448.6144
448.8367
449.0312
449.1984
449.339
449.4544
449.5457
449.6142
449.6612
449.6875
449.6942
449.6818
449.6512
449.6022
449.5334
449.4435
449.3313
449.1953
449.0335
448.8432
448.6211
448.3638
448.0671
447.7269
447.3396
446.9031
446.4184
445.8918
445.3349
444.7609
444.1717
443.5474
442.8626
442.0959
441.2061
440.1074
438.5863
435.9399
428.3874
471.8542
451.9726
446.9615
445.1403
444.3894
444.1175
444.1012
444.2371
444.4693
444.764
445.099
445.4585
445.8306
446.2065
446.5788
446.9419
447.291
447.6223
447.9326
448.2203
448.4841
448.7219
448.9325
449.1159
449.2728
449.4039
449.5105
449.5938
449.6551
449.6955
449.716
449.7174
449.7005
449.6658
449.6133
449.5416
449.4491
449.3346
449.1964
449.0326
448.8403
448.6164
448.3572
448.0588
447.7172
447.3287
446.8913
446.4064
445.8802
445.3244
444.752
444.165
443.5433
442.8615
442.098
441.212
440.1179
438.6031
435.9676
428.4429
472.6588
452.5941
447.4387
445.5359
444.7333
444.4256
444.383
444.4988
444.7155
444.998
445.3232
445.6745
446.0395
446.4082
446.7732
447.1282
447.4683
447.7896
448.089
448.3642
448.6134
448.8364
449.0336
449.2047
449.3501
449.4707
449.5677
449.6424
449.6959
449.7294
449.7438
449.7398
449.718
449.6791
449.623
449.5481
449.4529
449.3359
449.1956
449.0296
448.8353
448.6096
448.3487
448.0487
447.7057
447.3163
446.8785
446.3937
445.8683
445.314
444.7437
444.1592
443.5402
442.8613
442.101
441.2187
440.1292
438.6207
435.9963
428.5013
473.5516
453.2067
447.9187
445.9369
445.0853
444.7441
444.6772
444.7745
444.9766
445.2474
445.5627
445.9052
446.2616
446.6218
446.9775
447.3224
447.6515
447.9609
448.2477
448.5098
448.746
448.9555
449.1384
449.2957
449.4286
449.538
449.6249
449.6905
449.736
449.7624
449.7706
449.7611
449.7346
449.6914
449.6315
449.5534
449.4554
449.336
449.1933
449.0252
448.8289
448.6013
448.3387
448.0373
447.6932
447.303
446.8649
446.3806
445.8564
445.3041
444.7363
444.1544
443.5382
442.8622
442.105
441.2263
440.1412
438.6391
436.0266
428.5656
474.3075
453.8242
448.4011
446.3413
445.4448
445.0724
444.9828
445.0629
445.2512
445.5104
445.8153
446.148
446.4946
446.8445
447.1892
447.5223
447.8387
448.1346
448.4074
448.6552
448.8772
449.0728
449.2425
449.3867
449.5069
449.6046
449.6811
449.7375
449.7749
449.7941
449.7961
449.7812
449.7499
449.7026
449.639
449.5578
449.457
449.335
449.1901
449.0198
448.8216
448.5921
448.3279
448.0252
447.68
447.2891
446.8511
446.3675
445.8448
445.2949
444.7299
444.1508
443.5373
442.8641
442.11
441.2348
440.154
438.6581
436.058
428.6377
475.0426
454.4427
448.8857
446.7496
445.8112
445.4097
445.2988
445.3624
445.5372
445.7846
446.0786
446.4004
446.7359
447.074
447.4062
447.7258
448.0279
448.3089
448.5665
448.7991
449.006
449.1872
449.3432
449.4747
449.5829
449.6692
449.7352
449.7825
449.8118
449.8241
449.82
449.7999
449.7641
449.7127
449.6455
449.5612
449.4579
449.3335
449.1863
449.014
448.8138
448.5826
448.3169
448.0129
447.6667
447.2754
446.8375
446.3547
445.8338
445.2864
444.7245
444.1483
443.5375
442.8671
442.116
441.244
440.1673
438.6776
436.0901
428.7186
475.7589
455.0595
449.372
447.1625
446.1835
445.7547
445.6237
445.6715
445.8329
446.0682
446.3504
446.6602
446.9831
447.3079
447.626
447.9307
448.2172
448.4821
448.7235
448.94
449.1314
449.2977
449.4397
449.5583
449.6547
449.7303
449.7866
449.8249
449.8464
449.852
449.8421
449.8171
449.777
449.7219
449.6513
449.5641
449.4582
449.3316
449.1823
449.0081
448.8061
448.5734
448.3063
448.0011
447.6541
447.2624
446.8247
446.3429
445.8238
445.2791
444.7203
444.147
443.5387
442.871
442.1227
441.2539
440.181
438.6968
436.1218
428.8049
476.4601
455.6738
449.8616
447.5787
446.5599
446.106
445.9559
445.9882
446.1362
446.3587
446.6282
446.9248
447.2338
447.5439
447.8464
448.1348
448.4046
448.6526
448.877
449.0769
449.2523
449.4036
449.5315
449.6373
449.7221
449.7873
449.8342
449.8642
449.8784
449.8776
449.8623
449.8327
449.7887
449.7301
449.6564
449.5665
449.4582
449.3295
449.1784
449.0024
448.7989
448.5647
448.2964
447.9902
447.6426
447.2507
446.8133
446.3325
445.8153
445.2733
444.7177
444.1471
443.5412
442.8759
442.1302
441.2642
440.1947
438.7156
436.152
428.892
477.1465
456.2849
450.3533
447.9964
446.9408
446.4626
446.2939
446.3108
446.4449
446.6539
446.9096
447.1917
447.4854
447.7793
448.065
448.3361
448.5882
448.8186
449.0256
449.2087
449.368
449.5042
449.6183
449.7114
449.7848
449.8399
449.878
449.9001
449.9075
449.9009
449.8806
449.8468
449.7992
449.7375
449.661
449.5686
449.4581
449.3275
449.1746
448.9972
448.7924
448.557
448.2878
447.9808
447.6328
447.2407
446.8037
446.324
445.8086
445.2693
444.7167
444.1488
443.5448
442.8817
442.1384
441.275
440.2085
438.7337
436.1798
428.9734
477.8178
456.8909
450.8456
448.4153
447.3249
446.8236
446.6362
446.6374
446.7568
446.9514
447.1921
447.4585
447.7355
448.0121
448.2798
448.5326
448.7664
448.9787
449.1681
449.3343
449.4777
449.5991
449.6996
449.7805
449.843
449.8884
449.918
449.9328
449.9338
449.9218
449.897
449.8594
449.8086
449.7442
449.6652
449.5705
449.458
449.3257
449.1715
448.9928
448.7868
448.5505
448.2803
447.9728
447.6245
447.2326
446.7962
446.3177
445.8042
445.2673
444.7174
444.1517
443.5496
442.8886
442.1474
441.2863
440.2224
438.7512
436.2049
429.044
478.4745
457.4923
451.3378
448.8349
447.7107
447.1876
446.9815
446.9661
447.07
447.2489
447.4734
447.7227
447.9819
448.2399
448.4887
448.7225
448.9375
449.1315
449.3033
449.4529
449.5807
449.6878
449.7753
449.8445
449.8966
449.9329
449.9546
449.9625
449.9576
449.9405
449.9116
449.8706
449.817
449.7502
449.6691
449.5724
449.4582
449.3244
449.1688
448.9889
448.782
448.5449
448.2742
447.9664
447.618
447.2262
446.7904
446.313
445.8014
445.2669
444.7195
444.1561
443.5558
442.8967
442.1574
441.2983
440.2367
438.7683
436.2274
429.0999
479.1166
458.084
451.828
449.2544
448.0971
447.5527
447.328
447.2954
447.3824
447.5443
447.7513
447.9823
448.2224
448.4609
448.6901
448.9044
449.1005
449.2762
449.4307
449.5641
449.6769
449.7702
449.8453
449.9035
449.9459
449.9737
449.9879
449.9895
449.9792
449.9574
449.9246
449.8806
449.8245
449.7556
449.6727
449.5743
449.4585
449.3233
449.1665
448.9857
448.7781
448.5405
448.2695
447.9616
447.6132
447.2218
446.7865
446.3103
445.8004
445.2683
444.7237
444.1623
443.5636
442.906
442.1684
441.3112
440.2515
438.7853
436.248
429.1413
479.7396
458.668
452.3152
449.6727
448.4829
447.9173
447.6738
447.6233
447.6925
447.8361
448.024
448.2353
448.4554
448.6736
448.8825
449.0771
449.2542
449.412
449.5497
449.6674
449.766
449.8464
449.9098
449.9576
449.9909
450.0109
450.0183
450.0141
449.9988
449.9728
449.9364
449.8896
449.8313
449.7607
449.6762
449.5763
449.4591
449.3228
449.165
448.9835
448.7753
448.5373
448.2661
447.9581
447.6099
447.2189
446.7845
446.3095
445.8015
445.2718
444.7297
444.1702
443.5728
442.9167
442.1806
441.325
440.267
438.8027
436.2676
429.1701
480.3415
459.2405
452.7989
450.0898
448.8668
448.2797
448.017
447.9478
447.9981
448.1222
448.2899
448.4806
448.6797
448.877
449.0654
449.2403
449.3986
449.5388
449.6602
449.7631
449.8481
449.9164
449.969
450.0072
450.0321
450.0448
450.046
450.0365
450.0166
449.9868
449.9473
449.8978
449.8376
449.7654
449.6796
449.5785
449.4602
449.3228
449.1643
448.9821
448.7735
448.5353
448.2641
447.9563
447.6084
447.2179
446.7843
446.3105
445.8043
445.277
444.7375
444.1799
443.5837
442.9289
442.1942
441.34
440.2836
438.8209
436.2874
429.192
480.8121
459.804
453.2804
450.5066
449.2477
448.638
448.3554
448.2665
448.2967
448.4002
448.5467
448.7159
448.8935
449.0697
449.2377
449.3931
449.5332
449.6564
449.7624
449.8512
449.9236
449.9805
450.0231
450.0526
450.0698
450.0759
450.0714
450.057
450.0331
449.9998
449.9573
449.9055
449.8436
449.7699
449.6831
449.581
449.4617
449.3236
449.1644
448.9818
448.7729
448.5347
448.2636
447.956
447.6085
447.2186
446.7859
446.3134
445.809
445.2838
444.7466
444.1908
443.5959
442.9424
442.2091
441.3564
440.3015
438.8404
436.3083
429.2124
481.3707
460.3528
453.7553
450.92
449.6233
448.9901
448.6873
448.5778
448.587
448.6689
448.7935
448.9408
449.0967
449.2518
449.3996
449.5359
449.6583
449.7654
449.8566
449.9323
449.9929
450.0394
450.0728
450.0942
450.1044
450.1044
450.0948
450.076
450.0483
450.012
449.9669
449.913
449.8494
449.7745
449.6867
449.5838
449.4638
449.325
449.1653
448.9824
448.7735
448.5353
448.2644
447.9572
447.6102
447.2209
446.7891
446.3179
445.8152
445.2921
444.7571
444.203
443.6092
442.9569
442.225
441.3737
440.3204
438.8609
436.3306
429.2344
482.0482
460.8907
454.2242
451.3284
449.9926
449.335
449.0111
448.8802
448.8675
448.9271
449.0294
449.1544
449.2887
449.4229
449.551
449.6689
449.7744
449.866
449.9435
450.0068
450.0566
450.0935
450.1185
450.1325
450.1363
450.1308
450.1164
450.0936
450.0626
450.0235
449.9761
449.9203
449.8552
449.7792
449.6906
449.5869
449.4663
449.327
449.167
448.984
448.7751
448.5371
448.2666
447.9597
447.6133
447.2248
446.7939
446.3239
445.8228
445.3017
444.7688
444.2162
443.6235
442.9725
442.2418
441.392
440.3402
438.8824
436.3539
429.2594
482.6216
461.422
454.6877
451.7316
450.3551
449.6719
449.326
449.1728
449.1375
449.1743
449.2538
449.3566
449.4694
449.5832
449.6922
449.7925
449.8819
449.959
450.0235
450.0754
450.1151
450.1432
450.1605
450.1678
450.1658
450.1553
450.1366
450.1101
450.0761
450.0344
449.9849
449.9274
449.861
449.784
449.6946
449.5903
449.4691
449.3295
449.1694
448.9864
448.7776
448.54
448.2699
447.9636
447.6178
447.23
446.8
446.3312
445.8317
445.3125
444.7816
444.2305
443.6388
442.9889
442.2595
441.411
440.3607
438.9046
436.3783
429.2873
483.1907
461.9439
455.1446
452.1283
450.7097
449.9998
449.6311
449.4547
449.3961
449.4098
449.4666
449.5473
449.639
449.7331
449.8238
449.9073
449.9815
450.045
450.0974
450.1386
450.169
450.189
450.1993
450.2005
450.1933
450.1781
450.1555
450.1257
450.0889
450.0448
449.9935
449.9345
449.8668
449.7889
449.6987
449.5938
449.4723
449.3325
449.1723
448.9894
448.781
448.5438
448.2742
447.9686
447.6235
447.2365
446.8074
446.3398
445.8416
445.3242
444.7952
444.2456
443.6549
443.0061
442.2779
441.4307
440.3818
438.9274
436.4032
429.3166
483.7484
462.4571
455.5949
452.5181
451.0557
450.3179
449.9255
449.7255
449.6432
449.6336
449.6678
449.7269
449.7982
449.8732
449.9464
450.014
450.0738
450.1245
450.1656
450.197
450.2188
450.2314
450.2353
450.2309
450.2189
450.1996
450.1734
450.1405
450.1011
450.0549
450.0018
449.9415
449.8727
449.7939
449.703
449.5976
449.4758
449.3358
449.1758
448.9932
448.7852
448.5485
448.2795
447.9746
447.6302
447.2439
446.8158
446.3493
445.8526
445.3369
444.8096
444.2613
443.6716
443.0238
442.2968
441.4508
440.4034
438.9506
436.4285
429.3465
484.293
462.9601
456.0371
452.9
451.3924
450.6257
450.209
449.9847
449.8787
449.8458
449.8577
449.8957
449.9473
450.0041
450.0606
450.1132
450.1595
450.1983
450.2289
450.2511
450.265
450.2707
450.2687
450.2593
450.2428
450.2198
450.1903
450.1547
450.1129
450.0647
450.0101
449.9484
449.8786
449.7989
449.7074
449.6016
449.4796
449.3396
449.1797
448.9975
448.79
448.554
448.2857
447.9814
447.6378
447.2524
446.8251
446.3597
445.8644
445.3503
444.8248
444.2778
443.689
443.0422
442.3162
441.4714
440.4253
438.9741
436.454
429.3756
484.7142
463.4538
456.4727
453.2741
451.7195
450.9228
450.4812
450.2325
450.1026
450.0468
450.0369
450.0544
450.087
450.1264
450.1672
450.2056
450.2393
450.2669
450.2878
450.3014
450.3079
450.3073
450.2999
450.2858
450.2653
450.2388
450.2064
450.1682
450.1242
450.0743
450.0182
449.9554
449.8846
449.8041
449.712
449.6059
449.4837
449.3438
449.1842
449.0025
448.7956
448.5602
448.2926
447.9891
447.6462
447.2617
446.8353
446.371
445.8769
445.3644
444.8405
444.2947
443.7068
443.0609
442.336
441.4924
440.4476
438.9979
436.4798
429.404
485.2331
463.9327
456.8961
453.6392
452.0373
451.2083
450.7413
450.4684
450.315
450.2367
450.2056
450.2035
450.218
450.2409
450.2668
450.2919
450.3137
450.331
450.3426
450.3484
450.348
450.3415
450.329
450.3106
450.2865
450.2568
450.2217
450.1811
450.1352
450.0836
450.0262
449.9623
449.8906
449.8094
449.7168
449.6103
449.488
449.3483
449.1891
449.0079
448.8017
448.567
448.3002
447.9975
447.6554
447.2717
446.8463
446.383
445.8902
445.3791
444.8568
444.3122
443.7251
443.0801
442.3562
441.5137
440.4702
439.022
436.5058
429.4318
485.7537
464.401
457.3103
453.9961
452.3463
451.4822
450.9891
450.6927
450.5163
450.4162
450.3647
450.3437
450.3409
450.3483
450.3601
450.3727
450.3834
450.3909
450.394
450.3923
450.3855
450.3735
450.3563
450.3339
450.3064
450.2738
450.2362
450.1935
450.1458
450.0928
450.0342
449.9692
449.8966
449.8148
449.7217
449.6149
449.4926
449.3532
449.1945
449.0139
448.8083
448.5744
448.3084
448.0065
447.6653
447.2824
446.8579
446.3956
445.904
445.3943
444.8735
444.33
443.7437
443.0996
442.3767
441.5353
440.4931
439.0464
436.532
429.4599
486.2722
464.8606
457.716
454.3447
452.646
451.7449
451.2253
450.9057
450.7069
450.5858
450.5147
450.4757
450.4566
450.4491
450.4477
450.4485
450.4489
450.4471
450.4423
450.4336
450.4208
450.4036
450.382
450.3559
450.3252
450.2899
450.25
450.2054
450.156
450.1017
450.042
449.976
449.9027
449.8202
449.7266
449.6195
449.4974
449.3584
449.2002
449.0203
448.8154
448.5823
448.3171
448.0161
447.6757
447.2937
446.87
446.4087
445.9182
445.4099
444.8905
444.3481
443.7626
443.1194
442.3974
441.5571
440.5162
439.0709
436.5584
429.4884
486.7844
465.3125
458.1142
454.6853
452.9363
451.9968
451.4503
451.108
450.8876
450.7461
450.6563
450.6001
450.5655
450.5441
450.5302
450.5199
450.5104
450.5001
450.4877
450.4725
450.454
450.432
450.4062
450.3765
450.3429
450.3051
450.2631
450.2168
450.166
450.1104
450.0497
449.9828
449.9086
449.8256
449.7315
449.6244
449.5025
449.3638
449.2062
449.0269
448.8229
448.5906
448.3262
448.026
447.6865
447.3053
446.8825
446.4222
445.9328
445.4258
444.9077
444.3664
443.7816
443.1393
442.4183
441.5791
440.5393
439.0955
436.5849
429.5172
487.2886
465.7557
458.504
455.0179
453.2174
452.2382
451.6647
451.3003
451.0589
450.8979
450.7901
450.7177
450.6683
450.6337
450.608
450.5872
450.5685
450.5501
450.5306
450.5092
450.4854
450.4587
450.429
450.396
450.3596
450.3195
450.2756
450.2277
450.1756
450.119
450.0573
449.9894
449.9145
449.8309
449.7366
449.6294
449.5077
449.3695
449.2125
449.0339
448.8306
448.5991
448.3356
448.0363
447.6976
447.3172
446.8953
446.4359
445.9476
445.4418
444.925
444.3847
443.8007
443.1592
442.4391
441.601
440.5625
439.1201
436.6113
429.5456
487.7847
466.1901
458.8861
455.3428
453.4902
452.4707
451.869
451.4826
451.2212
451.0416
450.9169
450.8289
450.7656
450.7185
450.6816
450.6509
450.6235
450.5973
450.5711
450.5439
450.515
450.484
450.4506
450.4145
450.3754
450.3332
450.2875
450.2382
450.1849
450.1273
450.0646
449.996
449.9203
449.8363
449.7417
449.6345
449.5131
449.3753
449.2189
449.0411
448.8386
448.6079
448.3453
448.0468
447.7089
447.3294
446.9083
446.4498
445.9625
445.4579
444.9424
444.4031
443.8198
443.1792
442.4601
441.623
440.5857
439.1447
436.6377
429.574
488.2719
466.6159
459.2599
455.6603
453.7558
452.6955
452.0636
451.6552
451.3749
451.1778
451.0369
450.9343
450.8578
450.7988
450.7514
450.7113
450.6756
450.6421
450.6095
450.5767
450.543
450.5079
450.4709
450.4319
450.3903
450.3461
450.2988
450.2482
450.1939
450.1354
450.0718
450.0023
449.9261
449.8417
449.7469
449.6398
449.5186
449.3814
449.2256
449.0485
448.8468
448.6169
448.3551
448.0575
447.7205
447.3418
446.9215
446.4639
445.9776
445.4741
444.9598
444.4215
443.839
443.1992
442.481
441.645
440.6089
439.1693
436.6639
429.6022
488.7473
467.0321
459.6261
455.9709
454.0146
452.9127
452.2497
451.8192
451.5209
451.3071
451.1508
451.0344
450.9453
450.8751
450.8177
450.7687
450.7251
450.6847
450.646
450.6078
450.5695
450.5304
450.4901
450.4483
450.4044
450.3583
450.3095
450.2577
450.2025
450.143
450.0786
450.0085
449.9318
449.8471
449.7522
449.6452
449.5244
449.3876
449.2325
449.0561
448.8551
448.6261
448.3652
448.0684
447.7322
447.3543
446.9349
446.478
445.9927
445.4904
444.9772
444.4399
443.8581
443.2191
442.5019
441.667
440.632
439.1938
436.6901
429.6299
489.2059
467.4391
459.9839
456.2748
454.267
453.123
452.4282
451.9754
451.6596
451.4299
451.2591
451.1295
451.0286
450.9477
450.8808
450.8233
450.7722
450.7251
450.6806
450.6374
450.5947
450.5518
450.5083
450.4637
450.4177
450.3698
450.3196
450.2667
450.2105
450.1502
450.0851
450.0145
449.9375
449.8525
449.7576
449.6507
449.5302
449.394
449.2395
449.0638
448.8637
448.6355
448.3754
448.0794
447.7441
447.367
446.9484
446.4923
446.0079
445.5066
444.9946
444.4582
443.8772
443.2391
442.5228
441.6889
440.6552
439.2182
436.7161
429.6566
489.7662
467.8403
460.3352
456.5723
454.5134
453.3277
452.601
452.1245
451.7911
451.5465
451.3621
451.22
451.1079
451.0169
450.9409
450.8753
450.817
450.7636
450.7135
450.6654
450.6185
450.5721
450.5255
450.4784
450.4302
450.3807
450.3291
450.2751
450.2179
450.1569
450.0913