/*--------------------------------*- C++ -*----------------------------------*\
| =========                 |                                                 |
| \\      /  F ield         | OpenFOAM: The Open Source CFD Toolbox           |
|  \\    /   O peration     | Version:  2312                                  |
|   \\  /    A nd           | Website:  www.openfoam.com                      |
|    \\/     M anipulation  |                                                 |
\*---------------------------------------------------------------------------*/
FoamFile
{
    version     2.0;
    format      ascii;
    arch        "LSB;label=32;scalar=64";
    class       volVectorField;
    location    "5400";
    object      U;
}
// * * * * * * * * * * * * * * * * * * * * * * * * * * * * * * * * * * * * * //

dimensions      [0 1 -1 0 0 0 0];

internalField   nonuniform List<vector> 
12000
(
(-0.02783738 0.06626055 0)
(-0.06279124 0.05674047 0)
(-0.09913886 0.04952122 0)
(-0.1358487 0.04314459 0)
(-0.1695001 0.05607752 0)
(-0.2094095 0.08362058 0)
(-0.2549558 0.08723409 0)
(-0.2960185 0.05034725 0)
(-0.3238695 0.01815641 0)
(-0.3468633 0.05687472 0)
(-0.3853248 0.1067009 0)
(-0.4296124 0.07026492 0)
(-0.4532472 -0.006157761 0)
(-0.462828 -0.002443655 0)
(-0.4843256 0.07348593 0)
(-0.5216285 0.09179139 0)
(-0.5497576 0.02088686 0)
(-0.557551 -0.02307513 0)
(-0.5654095 0.02498156 0)
(-0.5888429 0.06876601 0)
(-0.612036 0.03188528 0)
(-0.6201446 -0.01300373 0)
(-0.6241869 0.006812722 0)
(-0.6373116 0.03728301 0)
(-0.6512084 0.02080333 0)
(-0.6570142 -0.001120828 0)
(-0.6611344 0.00787654 0)
(-0.6683812 0.01360966 0)
(-0.6730385 0.001238352 0)
(-0.6741438 -0.0001511156 0)
(-0.6767712 0.00710835 0)
(-0.679544 0.002909135 0)
(-0.679569 -0.003516687 0)
(-0.6775427 -0.01452047 0)
(-0.6719504 -0.01638345 0)
(-0.667566 0.001212985 0)
(-0.6678495 0.01209167 0)
(-0.6665285 0.0003425901 0)
(-0.6591769 -0.03387886 0)
(-0.6432078 -0.05418294 0)
(-0.627044 -0.02047285 0)
(-0.6219854 0.02864955 0)
(-0.6211656 0.01305517 0)
(-0.6074533 -0.06160904 0)
(-0.5802974 -0.08761421 0)
(-0.5522175 -0.01969132 0)
(-0.5476247 0.05768236 0)
(-0.5442495 -0.005667613 0)
(-0.5161867 -0.1175104 0)
(-0.471727 -0.08985295 0)
(-0.4479567 0.01924675 0)
(-0.4376436 0.002509932 0)
(-0.4041244 -0.1019886 0)
(-0.3554996 -0.1058039 0)
(-0.31813 -0.04916534 0)
(-0.2791252 -0.04489131 0)
(-0.2326303 -0.09484022 0)
(-0.1703714 -0.1131913 0)
(-0.09673847 -0.1043092 0)
(-0.03893247 -0.101109 0)
(-0.02652029 0.17728 0)
(-0.05357889 0.1599051 0)
(-0.09661973 0.1604657 0)
(-0.1340873 0.1593434 0)
(-0.1742361 0.1560283 0)
(-0.2065178 0.1584846 0)
(-0.2342584 0.1592171 0)
(-0.2603247 0.1486649 0)
(-0.2941043 0.1285779 0)
(-0.3285842 0.1235761 0)
(-0.3491689 0.1303567 0)
(-0.3623038 0.1228407 0)
(-0.3864815 0.1023597 0)
(-0.4203288 0.09290336 0)
(-0.4420774 0.09544012 0)
(-0.4480003 0.09526053 0)
(-0.4576777 0.08118459 0)
(-0.4808843 0.0684092 0)
(-0.503017 0.06537764 0)
(-0.5102201 0.06480509 0)
(-0.5137685 0.05749539 0)
(-0.5268804 0.04764273 0)
(-0.5424819 0.04282794 0)
(-0.5491814 0.04040921 0)
(-0.5519383 0.03561088 0)
(-0.5589041 0.02954293 0)
(-0.5663634 0.02500643 0)
(-0.5696625 0.02066375 0)
(-0.5721829 0.01538289 0)
(-0.5760178 0.01071972 0)
(-0.5769109 0.009061345 0)
(-0.576767 0.004537456 0)
(-0.5759726 -0.001944491 0)
(-0.5753643 -0.007649291 0)
(-0.5751626 -0.012004 0)
(-0.5723762 -0.01451967 0)
(-0.5644501 -0.01767962 0)
(-0.5540091 -0.02387234 0)
(-0.5472804 -0.03177519 0)
(-0.5457998 -0.03803634 0)
(-0.5424865 -0.04163735 0)
(-0.5284556 -0.04466026 0)
(-0.5067389 -0.05069642 0)
(-0.4928871 -0.06000709 0)
(-0.4898184 -0.06769055 0)
(-0.482739 -0.07249213 0)
(-0.455909 -0.07659645 0)
(-0.4197031 -0.08435732 0)
(-0.4055952 -0.09499821 0)
(-0.4008867 -0.1050062 0)
(-0.3781617 -0.1151605 0)
(-0.3368109 -0.1262152 0)
(-0.3088685 -0.1352482 0)
(-0.293299 -0.1442146 0)
(-0.2711356 -0.163125 0)
(-0.2149547 -0.2026184 0)
(-0.1873397 -0.2161213 0)
(-0.1369282 -0.2674651 0)
(-0.08648737 -0.2902786 0)
(-0.04007984 -0.3018025 0)
(-0.023975 0.2919839 0)
(-0.04664264 0.2714249 0)
(-0.08318297 0.2668204 0)
(-0.111086 0.2637107 0)
(-0.1422458 0.2575771 0)
(-0.1696536 0.2504881 0)
(-0.1944632 0.2390252 0)
(-0.218174 0.2213346 0)
(-0.243297 0.2116176 0)
(-0.2687467 0.2039044 0)
(-0.2904618 0.190796 0)
(-0.3078439 0.1774569 0)
(-0.3269192 0.1634117 0)
(-0.3458893 0.1523317 0)
(-0.3628313 0.1434494 0)
(-0.3764109 0.1333706 0)
(-0.3893516 0.1213782 0)
(-0.403386 0.1103632 0)
(-0.4167748 0.1019168 0)
(-0.4277275 0.09384142 0)
(-0.4372757 0.08439318 0)
(-0.4469658 0.07492724 0)
(-0.4562768 0.06704995 0)
(-0.4639923 0.05981026 0)
(-0.4703951 0.05193855 0)
(-0.4762303 0.04399102 0)
(-0.4813079 0.03669144 0)
(-0.4852641 0.02949113 0)
(-0.4883413 0.02201392 0)
(-0.4906668 0.01457924 0)
(-0.4920351 0.008032594 0)
(-0.4921631 0.002555057 0)
(-0.4912161 -0.006626915 0)
(-0.4898201 -0.0146085 0)
(-0.4875423 -0.02225322 0)
(-0.4840697 -0.02948777 0)
(-0.4791339 -0.03680412 0)
(-0.4730702 -0.04494025 0)
(-0.4664757 -0.05402434 0)
(-0.4593553 -0.06319265 0)
(-0.4509712 -0.07162809 0)
(-0.4406724 -0.0798107 0)
(-0.4286755 -0.08924682 0)
(-0.4160728 -0.1000313 0)
(-0.4031157 -0.1108001 0)
(-0.3889259 -0.1211564 0)
(-0.3723375 -0.1317172 0)
(-0.3540364 -0.1436728 0)
(-0.335509 -0.1565977 0)
(-0.3151167 -0.1689426 0)
(-0.294879 -0.1766192 0)
(-0.2748549 -0.1859577 0)
(-0.2451697 -0.2072862 0)
(-0.222844 -0.2258026 0)
(-0.1839867 -0.2646905 0)
(-0.1581747 -0.288796 0)
(-0.12442 -0.3220157 0)
(-0.09432687 -0.362233 0)
(-0.05629489 -0.4116416 0)
(-0.02311603 -0.4339779 0)
(-0.0183645 0.3788902 0)
(-0.03979371 0.3486416 0)
(-0.06703171 0.3414226 0)
(-0.08998564 0.3341865 0)
(-0.1135911 0.3242297 0)
(-0.134948 0.3125413 0)
(-0.1559059 0.2984836 0)
(-0.1752218 0.2856489 0)
(-0.1944444 0.2734818 0)
(-0.2128145 0.2616705 0)
(-0.22902 0.2492235 0)
(-0.2464042 0.2320143 0)
(-0.2640427 0.2125958 0)
(-0.2802392 0.1975177 0)
(-0.2952237 0.1843765 0)
(-0.3087436 0.171716 0)
(-0.3217493 0.1589648 0)
(-0.3343274 0.1464374 0)
(-0.3458725 0.1346688 0)
(-0.3562265 0.1233689 0)
(-0.36564 0.1122258 0)
(-0.374397 0.1012612 0)
(-0.382405 0.09064416 0)
(-0.3894298 0.08030849 0)
(-0.3955078 0.07009445 0)
(-0.4007827 0.05998149 0)
(-0.4052262 0.05000983 0)
(-0.4087577 0.04012039 0)
(-0.4112666 0.03026302 0)
(-0.4134235 0.0203855 0)
(-0.4146006 0.01277113 0)
(-0.4146278 0.001587629 0)
(-0.4136004 -0.008904068 0)
(-0.4120418 -0.01914441 0)
(-0.4096071 -0.02934187 0)
(-0.4062782 -0.0397173 0)
(-0.4019079 -0.05026421 0)
(-0.3965339 -0.06108186 0)
(-0.3902956 -0.0722028 0)
(-0.3832615 -0.08358471 0)
(-0.3753103 -0.09521325 0)
(-0.3662579 -0.1071757 0)
(-0.3561079 -0.11962 0)
(-0.3448223 -0.1327116 0)
(-0.3330152 -0.1460134 0)
(-0.3202972 -0.1601291 0)
(-0.3060557 -0.1752072 0)
(-0.2910103 -0.1907044 0)
(-0.2742555 -0.2061734 0)
(-0.2574702 -0.2188649 0)
(-0.2400389 -0.2345665 0)
(-0.2141434 -0.264672 0)
(-0.191125 -0.2903581 0)
(-0.1652525 -0.3162004 0)
(-0.1412207 -0.3417713 0)
(-0.1175058 -0.3699498 0)
(-0.09198575 -0.4042728 0)
(-0.06694351 -0.4468825 0)
(-0.03943743 -0.4963658 0)
(-0.0158999 -0.5225906 0)
(-0.01381461 0.4545684 0)
(-0.03300452 0.4192281 0)
(-0.05476958 0.4076916 0)
(-0.07407761 0.3970401 0)
(-0.09341094 0.3841048 0)
(-0.1116065 0.3692899 0)
(-0.1290904 0.3532841 0)
(-0.1463813 0.3362431 0)
(-0.1620786 0.3195738 0)
(-0.1781486 0.300831 0)
(-0.1910794 0.2853049 0)
(-0.2044898 0.2713128 0)
(-0.215903 0.2584939 0)
(-0.2305944 0.2400647 0)
(-0.2433318 0.2225151 0)
(-0.2547037 0.2081488 0)
(-0.2657119 0.1940683 0)
(-0.2766404 0.1785705 0)
(-0.2862021 0.1638649 0)
(-0.2951481 0.149822 0)
(-0.3033597 0.1362158 0)
(-0.3108278 0.1229289 0)
(-0.3175613 0.1099259 0)
(-0.3235281 0.09715097 0)
(-0.3287271 0.08453641 0)
(-0.3331754 0.07204615 0)
(-0.3368776 0.05965687 0)
(-0.3397848 0.04732383 0)
(-0.34206 0.03499843 0)
(-0.343448 0.02509907 0)
(-0.3440394 0.01198321 0)
(-0.3436173 -0.000581087 0)
(-0.3427456 -0.01314232 0)
(-0.3409641 -0.02567233 0)
(-0.3386684 -0.03821403 0)
(-0.3357079 -0.05106948 0)
(-0.3317413 -0.06418745 0)
(-0.326945 -0.07755876 0)
(-0.3213225 -0.0912373 0)
(-0.3148882 -0.1052554 0)
(-0.3076186 -0.119653 0)
(-0.2994705 -0.1344971 0)
(-0.29066 -0.1498843 0)
(-0.2802303 -0.1658934 0)
(-0.2704352 -0.1795675 0)
(-0.2582463 -0.1978958 0)
(-0.2459108 -0.2160896 0)
(-0.2326327 -0.2329579 0)
(-0.2200769 -0.24948 0)
(-0.202881 -0.2724142 0)
(-0.1846775 -0.2974631 0)
(-0.1662889 -0.3221057 0)
(-0.1487803 -0.3461687 0)
(-0.1306422 -0.371617 0)
(-0.1117986 -0.3999184 0)
(-0.09206828 -0.4317086 0)
(-0.07158121 -0.4679973 0)
(-0.05136798 -0.5103131 0)
(-0.03046401 -0.5613817 0)
(-0.01111051 -0.5917483 0)
(-0.01052762 0.5130259 0)
(-0.02667053 0.4745247 0)
(-0.04366828 0.4592927 0)
(-0.0590952 0.4460149 0)
(-0.0742977 0.4311862 0)
(-0.08875363 0.4147668 0)
(-0.1027607 0.397333 0)
(-0.1163548 0.3792676 0)
(-0.1293674 0.361144 0)
(-0.1421219 0.3425599 0)
(-0.1545666 0.3240282 0)
(-0.1659713 0.3057439 0)
(-0.1776359 0.2881017 0)
(-0.1859991 0.2734641 0)
(-0.197434 0.254974 0)
(-0.2071238 0.2372223 0)
(-0.2163627 0.2204869 0)
(-0.2248562 0.2041039 0)
(-0.2328988 0.1879886 0)
(-0.2404015 0.1722109 0)
(-0.247297 0.1567567 0)
(-0.2535705 0.1415796 0)
(-0.259213 0.1266453 0)
(-0.2642147 0.1119191 0)
(-0.2685722 0.0973666 0)
(-0.2722881 0.08295907 0)
(-0.2753645 0.06867365 0)
(-0.2777931 0.0544876 0)
(-0.2796706 0.04036687 0)
(-0.2806291 0.02634947 0)
(-0.2806793 0.01221542 0)
(-0.2805267 -0.002048078 0)
(-0.2799394 -0.01664384 0)
(-0.2784294 -0.0314618 0)
(-0.2765067 -0.04412686 0)
(-0.273621 -0.05988977 0)
(-0.270212 -0.0754256 0)
(-0.2660783 -0.09101364 0)
(-0.2612802 -0.1068155 0)
(-0.2558039 -0.1229209 0)
(-0.2496472 -0.1393907 0)
(-0.2428016 -0.1562732 0)
(-0.2352697 -0.1736109 0)
(-0.2271188 -0.191347 0)
(-0.2181249 -0.2098755 0)
(-0.2074924 -0.2289553 0)
(-0.1982179 -0.2466015 0)
(-0.1866383 -0.2673957 0)
(-0.1733771 -0.2918269 0)
(-0.1599057 -0.3166476 0)
(-0.1461179 -0.3412874 0)
(-0.1321569 -0.3665595 0)
(-0.1176554 -0.3929887 0)
(-0.1024593 -0.4212108 0)
(-0.08669966 -0.4515076 0)
(-0.07061489 -0.4844578 0)
(-0.05439636 -0.521021 0)
(-0.03854595 -0.5627764 0)
(-0.022519 -0.61128 0)
(-0.008172418 -0.6404211 0)
(-0.008213268 0.5609688 0)
(-0.02151772 0.5197072 0)
(-0.03477821 0.5010019 0)
(-0.04695574 0.4853125 0)
(-0.05885148 0.4687404 0)
(-0.07020309 0.4509311 0)
(-0.0812553 0.4322214 0)
(-0.09199245 0.4129444 0)
(-0.1024044 0.3934471 0)
(-0.1125031 0.3738485 0)
(-0.1223324 0.3543816 0)
(-0.1318367 0.3351786 0)
(-0.1407541 0.316082 0)
(-0.1500577 0.2974508 0)
(-0.1565385 0.2812607 0)
(-0.1653897 0.2623677 0)
(-0.1727752 0.2438001 0)
(-0.1799774 0.2257589 0)
(-0.1866107 0.2080789 0)
(-0.1927631 0.1907158 0)
(-0.1984062 0.1736334 0)
(-0.2035334 0.1567998 0)
(-0.2081361 0.1401864 0)
(-0.2122076 0.123765 0)
(-0.215743 0.1075073 0)
(-0.2187397 0.09138527 0)
(-0.2211945 0.07537021 0)
(-0.2231009 0.05943013 0)
(-0.2244627 0.04352754 0)
(-0.2252609 0.02765718 0)
(-0.2254082 0.01164717 0)
(-0.2252629 -0.002353932 0)
(-0.2247278 -0.01899234 0)
(-0.2236505 -0.03545495 0)
(-0.2217897 -0.05192526 0)
(-0.2192159 -0.06868213 0)
(-0.2162944 -0.08564051 0)
(-0.2128252 -0.1028569 0)
(-0.2088102 -0.1203805 0)
(-0.2042265 -0.1382666 0)
(-0.1990629 -0.1565679 0)
(-0.1933036 -0.1753367 0)
(-0.1869338 -0.1946229 0)
(-0.1801098 -0.2145504 0)
(-0.1720026 -0.2348924 0)
(-0.1649309 -0.2547129 0)
(-0.155153 -0.2775607 0)
(-0.1453801 -0.3013805 0)
(-0.1350131 -0.3256237 0)
(-0.1245971 -0.3504898 0)
(-0.1138542 -0.3762264 0)
(-0.1026933 -0.4029282 0)
(-0.09109923 -0.4307383 0)
(-0.07913905 -0.4599059 0)
(-0.06691234 -0.4907864 0)
(-0.0545191 -0.523912 0)
(-0.04205245 -0.560173 0)
(-0.02981307 -0.6012045 0)
(-0.01758787 -0.6491875 0)
(-0.006175761 -0.6795861 0)
(-0.006469365 0.5993598 0)
(-0.01716956 0.5554454 0)
(-0.02728869 0.5335232 0)
(-0.0366492 0.5157043 0)
(-0.04574055 0.4977117 0)
(-0.05445229 0.4789148 0)
(-0.06297102 0.459434 0)
(-0.07129647 0.4394907 0)
(-0.07943933 0.4193153 0)
(-0.08738586 0.3990563 0)
(-0.09512762 0.3788303 0)
(-0.1026331 0.3587202 0)
(-0.1098845 0.3387703 0)
(-0.1166655 0.3189288 0)
(-0.1237889 0.2995466 0)
(-0.1286048 0.2820381 0)
(-0.134815 0.2628607 0)
(-0.1406927 0.2433351 0)
(-0.1460497 0.2243722 0)
(-0.1510154 0.2057219 0)
(-0.1555685 0.1873386 0)
(-0.1597013 0.1691881 0)
(-0.1634094 0.1512412 0)
(-0.1666886 0.1334723 0)
(-0.1695361 0.1158567 0)
(-0.1719507 0.09836913 0)
(-0.1739318 0.08098218 0)
(-0.1754794 0.06366647 0)
(-0.176596 0.04638876 0)
(-0.1772798 0.02911671 0)
(-0.177548 0.01180936 0)
(-0.177358 -0.003765061 0)
(-0.1766954 -0.02160159 0)
(-0.1756825 -0.03943421 0)
(-0.1742206 -0.05730999 0)
(-0.1723241 -0.07542716 0)
(-0.1700126 -0.09377848 0)
(-0.1672657 -0.1124222 0)
(-0.1640784 -0.1314069 0)
(-0.1604407 -0.1507827 0)
(-0.1563446 -0.1705956 0)
(-0.1517636 -0.1908838 0)
(-0.1468692 -0.2116903 0)
(-0.140915 -0.2329598 0)
(-0.1357231 -0.2540023 0)
(-0.1284307 -0.2772823 0)
(-0.1212922 -0.3012796 0)
(-0.1136601 -0.3258156 0)
(-0.1057392 -0.3511065 0)
(-0.09746917 -0.3771329 0)
(-0.08885857 -0.4039499 0)
(-0.07993457 -0.431653 0)
(-0.0707286 -0.4603896 0)
(-0.06128414 -0.4903754 0)
(-0.05165988 -0.5219209 0)
(-0.04193399 -0.5555107 0)
(-0.03218833 -0.5919417 0)
(-0.02262772 -0.6325943 0)
(-0.01323372 -0.6790442 0)
(-0.004568791 -0.7080318 0)
(-0.00504615 0.6298222 0)
(-0.01344844 0.5832968 0)
(-0.02106395 0.5584803 0)
(-0.02812562 0.5389346 0)
(-0.0349321 0.5199059 0)
(-0.04144796 0.5004354 0)
(-0.04781605 0.4804532 0)
(-0.05405658 0.4600737 0)
(-0.06019134 0.4394451 0)
(-0.0662151 0.4186947 0)
(-0.0721152 0.3979237 0)
(-0.07786957 0.3772022 0)
(-0.08345758 0.3565749 0)
(-0.08887132 0.3360783 0)
(-0.09392298 0.3156688 0)
(-0.09923976 0.2956405 0)
(-0.1030706 0.2768518 0)
(-0.1075343 0.2572184 0)
(-0.1115081 0.2373565 0)
(-0.1153691 0.2177327 0)
(-0.1189157 0.1983059 0)
(-0.122142 0.1790813 0)
(-0.1250424 0.1600438 0)
(-0.127611 0.141177 0)
(-0.1298449 0.1224613 0)
(-0.1317433 0.1038755 0)
(-0.1333069 0.08539647 0)
(-0.1345375 0.06699739 0)
(-0.1354382 0.04864858 0)
(-0.1360094 0.03031772 0)
(-0.1362761 0.01196946 0)
(-0.1361479 -0.004945949 0)
(-0.1356337 -0.02369717 0)
(-0.1348693 -0.04252146 0)
(-0.133783 -0.06147494 0)
(-0.1323776 -0.08062449 0)
(-0.1306534 -0.1000216 0)
(-0.1286027 -0.1197226 0)
(-0.1262193 -0.1397813 0)
(-0.1234955 -0.1602504 0)
(-0.1204164 -0.1811802 0)
(-0.1170012 -0.2026095 0)
(-0.1130294 -0.22462 0)
(-0.10911 -0.2470154 0)
(-0.1039706 -0.270776 0)
(-0.09883286 -0.2951649 0)
(-0.09328395 -0.3200527 0)
(-0.08744384 -0.3455696 0)
(-0.08129152 -0.3717401 0)
(-0.07484982 -0.3986033 0)
(-0.06813744 -0.4262045 0)
(-0.06118371 -0.4546077 0)
(-0.0540254 -0.4839168 0)
(-0.04670993 -0.5142973 0)
(-0.03929359 -0.546014 0)
(-0.03184302 -0.5795049 0)
(-0.02442688 -0.6155313 0)
(-0.01717967 -0.6554817 0)
(-0.01010947 -0.7011243 0)
(-0.003465688 -0.7304916 0)
(-0.003431616 0.6539584 0)
(-0.01002787 0.6048367 0)
(-0.01592015 0.5774578 0)
(-0.02103442 0.5562656 0)
(-0.02588175 0.5361628 0)
(-0.030531 0.516003 0)
(-0.03509858 0.4955733 0)
(-0.03960927 0.474892 0)
(-0.04407236 0.4540355 0)
(-0.04847802 0.4330718 0)
(-0.05281279 0.412056 0)
(-0.05706011 0.3910345 0)
(-0.06120186 0.3700431 0)
(-0.06522136 0.3491102 0)
(-0.06911358 0.3282616 0)
(-0.07271049 0.3074557 0)
(-0.07656647 0.2869283 0)
(-0.07892761 0.2673905 0)
(-0.08236778 0.2470933 0)
(-0.08509269 0.2267374 0)
(-0.08776253 0.206575 0)
(-0.0901821 0.1865842 0)
(-0.09236809 0.1667533 0)
(-0.09430782 0.1470796 0)
(-0.09599972 0.1275518 0)
(-0.09744336 0.108154 0)
(-0.09864024 0.08886671 0)
(-0.09959294 0.06966473 0)
(-0.1003046 0.05051859 0)
(-0.1007741 0.03139514 0)
(-0.1010293 0.01225846 0)
(-0.1009695 -0.005784278 0)
(-0.100608 -0.02521925 0)
(-0.1000689 -0.04476739 0)
(-0.09930096 -0.06447842 0)
(-0.09830267 -0.08440719 0)
(-0.09706505 -0.1046075 0)
(-0.09557963 -0.1251361 0)
(-0.0938376 -0.1460512 0)
(-0.09183155 -0.1674138 0)
(-0.08953647 -0.1892891 0)
(-0.08705819 -0.211755 0)
(-0.08400916 -0.2348852 0)
(-0.08108149 -0.2585256 0)
(-0.07753907 -0.2829409 0)
(-0.07387291 -0.3079847 0)
(-0.06989491 -0.333696 0)
(-0.06562262 -0.3600538 0)
(-0.06106088 -0.3870528 0)
(-0.05623123 -0.4146891 0)
(-0.05116412 -0.442977 0)
(-0.04589665 -0.4719648 0)
(-0.04047097 -0.5017462 0)
(-0.03493292 -0.5324796 0)
(-0.02933048 -0.5644264 0)
(-0.02371334 -0.5980214 0)
(-0.01813311 -0.6340017 0)
(-0.01267795 -0.6736563 0)
(-0.007403348 -0.7184658 0)
(-0.002486969 -0.7469068 0)
(-0.002530005 0.6731741 0)
(-0.007343308 0.6210227 0)
(-0.01155168 0.5909636 0)
(-0.01505209 0.5683585 0)
(-0.01832955 0.5476184 0)
(-0.021437 0.5272153 0)
(-0.02445993 0.5066985 0)
(-0.02741949 0.4859467 0)
(-0.03035095 0.4649581 0)
(-0.03328778 0.4437946 0)
(-0.03623484 0.4225326 0)
(-0.03917468 0.4012277 0)
(-0.04208816 0.3799209 0)
(-0.04495378 0.3586417 0)
(-0.04775091 0.3374133 0)
(-0.05047 0.316254 0)
(-0.05295997 0.295122 0)
(-0.05568734 0.2742398 0)
(-0.0572478 0.2540574 0)
(-0.0593709 0.2334744 0)
(-0.06138849 0.2127528 0)
(-0.0631344 0.1922046 0)
(-0.06471176 0.17179 0)
(-0.06610149 0.1515182 0)
(-0.06731681 0.1313894 0)
(-0.06836452 0.1113937 0)
(-0.06924925 0.09151611 0)
(-0.06997573 0.07173334 0)
(-0.07054781 0.05201624 0)
(-0.07096339 0.03233061 0)
(-0.07125067 0.0126379 0)
(-0.07131162 -0.006275818 0)
(-0.0711608 -0.02619549 0)
(-0.07090071 -0.04625234 0)
(-0.07049296 -0.06649668 0)
(-0.06993532 -0.08698153 0)
(-0.0692191 -0.1077621 0)
(-0.06833609 -0.1288941 0)
(-0.06727756 -0.1504323 0)
(-0.06603428 -0.1724287 0)
(-0.06460083 -0.1949298 0)
(-0.06294863 -0.2179819 0)
(-0.06116583 -0.2415589 0)
(-0.05906463 -0.2659817 0)
(-0.05677311 -0.2912124 0)
(-0.05420663 -0.3170999 0)
(-0.05136514 -0.3436524 0)
(-0.04824591 -0.3708243 0)
(-0.0448694 -0.3985744 0)
(-0.04126616 -0.4268738 0)
(-0.03747519 -0.4557217 0)
(-0.03353718 -0.4851498 0)
(-0.02949425 -0.515236 0)
(-0.02538757 -0.5461311 0)
(-0.02125676 -0.5780925 0)
(-0.01714204 -0.6115432 0)
(-0.01308388 -0.647206 0)
(-0.009140098 -0.6863595 0)
(-0.005358045 -0.7305235 0)
(-0.001807798 -0.7590957 0)
(-0.002342172 0.6867879 0)
(-0.006016932 0.6324381 0)
(-0.008521008 0.6003852 0)
(-0.01083041 0.5766004 0)
(-0.01280541 0.5549931 0)
(-0.01460784 0.5339003 0)
(-0.01633494 0.5128751 0)
(-0.01805612 0.4918026 0)
(-0.01977781 0.4708152 0)
(-0.02153445 0.4498882 0)
(-0.0233015 0.4288655 0)
(-0.02507768 0.407747 0)
(-0.02685155 0.3865437 0)
(-0.02861099 0.3652754 0)
(-0.03034849 0.3439597 0)
(-0.03206 0.3226072 0)
(-0.03373877 0.3012389 0)
(-0.03527241 0.2798478 0)
(-0.03697602 0.2586387 0)
(-0.03812494 0.2378671 0)
(-0.03923481 0.2170007 0)
(-0.04028584 0.1960141 0)
(-0.04131638 0.1751336 0)
(-0.04225241 0.1544393 0)
(-0.04308741 0.1339441 0)
(-0.04382185 0.1136063 0)
(-0.04445878 0.09340823 0)
(-0.04500537 0.07331884 0)
(-0.04546738 0.05329999 0)
(-0.04584462 0.03331338 0)
(-0.04616622 0.01331843 0)
(-0.04634611 -0.006185823 0)
(-0.04639676 -0.02637569 0)
(-0.04640027 -0.04672113 0)
(-0.0463256 -0.06727431 0)
(-0.04616922 -0.08808981 0)
(-0.04592217 -0.1092246 0)
(-0.04557564 -0.1307375 0)
(-0.04511977 -0.1526885 0)
(-0.04454161 -0.1751373 0)
(-0.04383163 -0.1981403 0)
(-0.04294163 -0.2217491 0)
(-0.04197371 -0.2459836 0)
(-0.04057466 -0.2710004 0)
(-0.03932895 -0.2967437 0)
(-0.0376466 -0.3233785 0)
(-0.0358081 -0.3506935 0)
(-0.03370356 -0.3785806 0)
(-0.03135795 -0.4069656 0)
(-0.02881065 -0.4357852 0)
(-0.02611671 -0.4650322 0)
(-0.02332129 -0.4947447 0)
(-0.02046287 -0.5250158 0)
(-0.01757381 -0.5560081 0)
(-0.01468189 -0.5879889 0)
(-0.01181223 -0.6213922 0)
(-0.008990732 -0.6569399 0)
(-0.006250641 -0.6958785 0)
(-0.003636978 -0.7396059 0)
(-0.001196858 -0.7677334 0)
(-0.001297186 0.6984529 0)
(-0.00351367 0.6413263 0)
(-0.005133859 0.6067187 0)
(-0.005736793 0.5813618 0)
(-0.006263504 0.5590018 0)
(-0.006811064 0.5378351 0)
(-0.007450503 0.5170486 0)
(-0.008056945 0.4963204 0)
(-0.009133997 0.4753751 0)
(-0.009857297 0.4541853 0)
(-0.01073981 0.4328903 0)
(-0.0116149 0.4115175 0)
(-0.0125325 0.3900962 0)
(-0.01349329 0.3686471 0)
(-0.01450818 0.3472402 0)
(-0.01553764 0.3258654 0)
(-0.01653587 0.3044599 0)
(-0.0174507 0.2830306 0)
(-0.0181981 0.2615553 0)
(-0.01898848 0.2402465 0)
(-0.01937054 0.2192646 0)
(-0.02004454 0.1983407 0)
(-0.02059558 0.1774806 0)
(-0.02130208 0.1566578 0)
(-0.02188293 0.1359288 0)
(-0.02246755 0.1153498 0)
(-0.02301337 0.09492096 0)
(-0.02353799 0.07462162 0)
(-0.02404329 0.0544181 0)
(-0.02451846 0.03427383 0)
(-0.02498417 0.01414564 0)
(-0.02536701 -0.005722199 0)
(-0.02568113 -0.02601296 0)
(-0.02598925 -0.04647776 0)
(-0.02626419 -0.06716894 0)
(-0.02650192 -0.08814603 0)
(-0.02669441 -0.1094672 0)
(-0.02683485 -0.131193 0)
(-0.02691603 -0.1533871 0)
(-0.02692794 -0.1761165 0)
(-0.02686744 -0.1994489 0)
(-0.02665253 -0.2234408 0)
(-0.02642193 -0.2481387 0)
(-0.02599874 -0.2736267 0)
(-0.0251824 -0.2999841 0)
(-0.02439333 -0.3270976 0)
(-0.02341119 -0.3549644 0)
(-0.02204606 -0.3835666 0)
(-0.0205057 -0.412586 0)
(-0.01879702 -0.4418716 0)
(-0.01699798 -0.4714263 0)
(-0.01514082 -0.5013239 0)
(-0.01325223 -0.5316825 0)
(-0.01135437 -0.5626846 0)
(-0.00946505 -0.5946064 0)
(-0.007599135 -0.6278796 0)
(-0.005773061 -0.6632242 0)
(-0.004008116 -0.7018796 0)
(-0.002335157 -0.7452467 0)
(-0.000779877 -0.7734963 0)
(-0.0007359382 0.7057487 0)
(-0.002140766 0.6451051 0)
(-0.002440472 0.6080268 0)
(-0.002378245 0.5813895 0)
(-0.002135395 0.5589084 0)
(-0.001597538 0.5377135 0)
(-0.001049229 0.5169517 0)
(-0.0005836088 0.4962935 0)
(0.000198466 0.4755143 0)
(0.0004844861 0.4546776 0)
(0.000745226 0.4338239 0)
(0.0008118036 0.4129413 0)
(0.000677477 0.3920355 0)
(0.000424122 0.3710866 0)
(-0.0001648132 0.3500018 0)
(-0.0006468322 0.3285817 0)
(-0.001240929 0.3068039 0)
(-0.001825595 0.2848858 0)
(-0.002397284 0.2630437 0)
(-0.002891323 0.2414072 0)
(-0.003392928 0.2201634 0)
(-0.003670288 0.1993258 0)
(-0.004034689 0.1786376 0)
(-0.004255294 0.1579768 0)
(-0.00464159 0.1373229 0)
(-0.005022702 0.1167948 0)
(-0.005453752 0.09646813 0)
(-0.005916147 0.07628376 0)
(-0.006405479 0.05613441 0)
(-0.006914314 0.03598905 0)
(-0.007462516 0.01583539 0)
(-0.008007819 -0.004263128 0)
(-0.008542841 -0.0245673 0)
(-0.009137204 -0.04507225 0)
(-0.009719165 -0.06583129 0)
(-0.01029987 -0.086895 0)
(-0.0108658 -0.1083187 0)
(-0.01141256 -0.1301619 0)
(-0.01193919 -0.1524908 0)
(-0.0124447 -0.1753806 0)
(-0.01292443 -0.1989144 0)
(-0.01335916 -0.2231717 0)
(-0.01373304 -0.2482538 0)
(-0.01395952 -0.2742129 0)
(-0.01414216 -0.3010095 0)
(-0.01406066 -0.3287663 0)
(-0.01349624 -0.3575264 0)
(-0.01288298 -0.3868143 0)
(-0.01204331 -0.4162268 0)
(-0.01097183 -0.445745 0)
(-0.009845708 -0.4754448 0)
(-0.008727308 -0.5054295 0)
(-0.007621044 -0.5358279 0)
(-0.006520777 -0.5668331 0)
(-0.005429317 -0.5987357 0)
(-0.004350245 -0.6319734 0)
(-0.003292639 -0.6672619 0)
(-0.002270191 -0.7058244 0)
(-0.001305807 -0.7490108 0)
(-0.0004241154 -0.7771499 0)
(-0.0004464219 0.71145 0)
(-0.001291869 0.6475447 0)
(-0.001125863 0.6079744 0)
(-0.00063765 0.5807971 0)
(0.0003878489 0.5573794 0)
(0.001435472 0.5355817 0)
(0.00258539 0.5145325 0)
(0.003701499 0.4938106 0)
(0.004776246 0.4733077 0)
(0.005804302 0.452834 0)
(0.006770151 0.432326 0)
(0.007657282 0.4118145 0)
(0.008451438 0.3913369 0)
(0.009027951 0.3707935 0)
(0.009700569 0.3499937 0)
(0.009896523 0.3289951 0)
(0.009999158 0.3077871 0)
(0.009947784 0.2863834 0)
(0.009635248 0.26478 0)
(0.009392651 0.24308 0)
(0.008997091 0.2215236 0)
(0.008673607 0.2002667 0)
(0.008426223 0.1793003 0)
(0.008186277 0.1585848 0)
(0.007955559 0.1380781 0)
(0.007687262 0.1177102 0)
(0.007386607 0.09745953 0)
(0.007054827 0.07730495 0)
(0.006690089 0.05722127 0)
(0.006282275 0.03720187 0)
(0.005819136 0.01724524 0)
(0.005304311 -0.00272902 0)
(0.004679389 -0.02281342 0)
(0.003965366 -0.04320447 0)
(0.003184168 -0.06389972 0)
(0.002367965 -0.08493407 0)
(0.001521614 -0.1063493 0)
(0.0006527625 -0.1281903 0)
(-0.0002320868 -0.1505025 0)
(-0.001125754 -0.1733627 0)
(-0.002019982 -0.1968909 0)
(-0.002900895 -0.2212035 0)
(-0.003749335 -0.2464142 0)
(-0.004535539 -0.2726633 0)
(-0.005224611 -0.3001021 0)
(-0.005706499 -0.3286937 0)
(-0.006084307 -0.3580942 0)
(-0.00614728 -0.3880214 0)
(-0.005761625 -0.4182265 0)
(-0.005315588 -0.4481679 0)
(-0.004720037 -0.477841 0)
(-0.004144151 -0.5076893 0)
(-0.003608015 -0.5380017 0)
(-0.003057343 -0.5689711 0)
(-0.002520647 -0.6008484 0)
(-0.001993951 -0.634045 0)
(-0.001486654 -0.6692588 0)
(-0.001009322 -0.7077035 0)
(-0.0005787207 -0.7507362 0)
(-0.0002041035 -0.7790254 0)
(-0.0004317215 0.7157239 0)
(-0.0002435854 0.6479346 0)
(-7.170411e-05 0.6068773 0)
(0.001226556 0.5779848 0)
(0.002763147 0.5539059 0)
(0.00442932 0.5318957 0)
(0.006131485 0.5108045 0)
(0.007807648 0.4901204 0)
(0.009436636 0.4696068 0)
(0.0109958 0.4491612 0)
(0.01245303 0.4287619 0)
(0.01377926 0.4084384 0)
(0.01495442 0.3882598 0)
(0.01594491 0.3682 0)
(0.0166888 0.3481138 0)
(0.01738169 0.3277121 0)
(0.01797571 0.306929 0)
(0.01842991 0.2858339 0)
(0.01898189 0.2645441 0)
(0.01919773 0.2433181 0)
(0.01926807 0.2221411 0)
(0.01930243 0.2010084 0)
(0.01922981 0.1800602 0)
(0.01909555 0.1593316 0)
(0.01890691 0.1388131 0)
(0.01865363 0.1184938 0)
(0.0183311 0.09834926 0)
(0.01793609 0.07833449 0)
(0.01746825 0.05840086 0)
(0.0169298 0.038521 0)
(0.01632775 0.01869469 0)
(0.01565541 -0.001057311 0)
(0.01486194 -0.02069444 0)
(0.01392221 -0.04079973 0)
(0.01288999 -0.06129713 0)
(0.01178763 -0.08217472 0)
(0.01062908 -0.1034596 0)
(0.009425843 -0.1252012 0)
(0.008191926 -0.1474656 0)
(0.006943657 -0.1703351 0)
(0.005698541 -0.1939107 0)
(0.004474295 -0.2183067 0)
(0.003292138 -0.2436457 0)
(0.00217608 -0.2700542 0)
(0.00114451 -0.2976518 0)
(0.0002154335 -0.326511 0)
(-0.000578591 -0.3565777 0)
(-0.001137531 -0.3874653 0)
(-0.001546907 -0.4184314 0)
(-0.001598958 -0.4488736 0)
(-0.001536738 -0.4787797 0)
(-0.0012958 -0.5086775 0)
(-0.00111327 -0.539028 0)
(-0.0009135522 -0.5700016 0)
(-0.0007200608 -0.6018544 0)
(-0.0005393188 -0.6350099 0)
(-0.0003743847 -0.6701699 0)
(-0.0002294342 -0.7085464 0)
(-0.0001139469 -0.7515058 0)
(-2.905883e-05 -0.7799194 0)
(-0.0001213619 0.7188388 0)
(-0.0001191 0.6477514 0)
(0.000899339 0.6038604 0)
(0.002614169 0.5736862 0)
(0.004622634 0.5489465 0)
(0.006774111 0.5266134 0)
(0.008969979 0.5054399 0)
(0.01114616 0.4848508 0)
(0.01325458 0.464573 0)
(0.0152551 0.4444835 0)
(0.01711225 0.4245453 0)
(0.01879973 0.4047689 0)
(0.02029182 0.3851897 0)
(0.02159082 0.3656555 0)
(0.02272455 0.3458139 0)
(0.02372886 0.3254937 0)
(0.02460111 0.3047914 0)
(0.02536407 0.2839044 0)
(0.02592207 0.2630595 0)
(0.02639057 0.2422132 0)
(0.02687896 0.2213509 0)
(0.02703082 0.2006202 0)
(0.02715097 0.1800262 0)
(0.02710763 0.1596237 0)
(0.02693762 0.1394252 0)
(0.02664259 0.1194114 0)
(0.02622932 0.09954791 0)
(0.02570525 0.07979303 0)
(0.02507763 0.06010681 0)
(0.02435425 0.04046453 0)
(0.0235447 0.02087127 0)
(0.02264777 0.001382456 0)
(0.02164388 -0.01785771 0)
(0.02049309 -0.03762955 0)
(0.01923314 -0.05786485 0)
(0.01789134 -0.07854635 0)
(0.01649127 -0.09968419 0)
(0.01505114 -0.121317 0)
(0.01358754 -0.1435097 0)
(0.01211791 -0.1663524 0)
(0.01066111 -0.1899576 0)
(0.009237634 -0.2144526 0)
(0.007870281 -0.239974 0)
(0.006583902 -0.2666577 0)
(0.005403409 -0.2946087 0)
(0.004348544 -0.3238444 0)
(0.003430265 -0.3542367 0)
(0.002655655 -0.3854697 0)
(0.002047763 -0.4170325 0)
(0.001631224 -0.4482497 0)
(0.001399262 -0.4786545 0)
(0.001172297 -0.5087053 0)
(0.001026242 -0.5390943 0)
(0.0008539374 -0.5700774 0)
(0.0007012077 -0.6019328 0)
(0.0005573322 -0.6350877 0)
(0.0004210285 -0.6702439 0)
(0.0002883393 -0.7086132 0)
(0.0001590628 -0.7515648 0)
(3.875081e-05 -0.7799981 0)
(-6.575012e-05 0.7211417 0)
(0.0003329732 0.6460902 0)
(0.001597319 0.5997556 0)
(0.003579026 0.5682579 0)
(0.005909141 0.5428135 0)
(0.008385979 0.5201395 0)
(0.01091583 0.4988644 0)
(0.01342747 0.4783492 0)
(0.01586856 0.4582819 0)
(0.01819839 0.4385139 0)
(0.02038486 0.4189841 0)
(0.02240832 0.3996775 0)
(0.0242516 0.3806005 0)
(0.02591546 0.3615695 0)
(0.0274006 0.3422651 0)
(0.02869507 0.322542 0)
(0.02978599 0.3024434 0)
(0.03068214 0.2820731 0)
(0.03139625 0.2615292 0)
(0.03198082 0.2409472 0)
(0.03232799 0.2204974 0)
(0.03263298 0.2001682 0)
(0.03270562 0.1799969 0)
(0.03263718 0.1600124 0)
(0.03240342 0.140214 0)
(0.03201698 0.1205815 0)
(0.03148677 0.1010795 0)
(0.03082278 0.08166303 0)
(0.03003538 0.06228609 0)
(0.02913524 0.04291771 0)
(0.02813241 0.02356819 0)
(0.02702995 0.00433675 0)
(0.02588617 -0.01453876 0)
(0.02461154 -0.03395656 0)
(0.02318395 -0.05391659 0)
(0.0216821 -0.07440486 0)
(0.02013312 -0.09541687 0)
(0.01855608 -0.116983 0)
(0.01696943 -0.1391668 0)
(0.01539207 -0.1620577 0)
(0.01384317 -0.1857662 0)
(0.01234183 -0.2104181 0)
(0.01090704 -0.2361489 0)
(0.009557058 -0.2630925 0)
(0.008308736 -0.2913565 0)
(0.007178212 -0.3209729 0)
(0.006183092 -0.3518227 0)
(0.005339934 -0.3835504 0)
(0.004658108 -0.4155409 0)
(0.004127729 -0.4470635 0)
(0.003734547 -0.4776594 0)
(0.003399506 -0.5077664 0)
(0.003071395 -0.5381578 0)
(0.002711888 -0.5691753 0)
(0.002344019 -0.6010726 0)
(0.001962532 -0.6342593 0)
(0.001564731 -0.6694286 0)
(0.001147228 -0.7077854 0)
(0.0007002019 -0.750716 0)
(0.0002297619 -0.7793451 0)
(-2.319105e-05 0.7231008 0)
(0.0005539149 0.6439216 0)
(0.001978889 0.5950469 0)
(0.004158143 0.5621666 0)
(0.006709183 0.5359733 0)
(0.009411967 0.5129382 0)
(0.01217205 0.4915668 0)
(0.01491138 0.4711491 0)
(0.01757596 0.4513248 0)
(0.02012452 0.4319091 0)
(0.02252742 0.4128089 0)
(0.02476798 0.3939795 0)
(0.02683834 0.3753973 0)
(0.02873152 0.3568707 0)
(0.03044265 0.3380904 0)
(0.0319485 0.3189069 0)
(0.03324084 0.299356 0)
(0.03431705 0.2795485 0)
(0.03517461 0.2596021 0)
(0.03581711 0.2396095 0)
(0.03624807 0.2196396 0)
(0.0364851 0.199781 0)
(0.03652352 0.1801054 0)
(0.03637604 0.160615 0)
(0.03604865 0.1412905 0)
(0.03555339 0.1221027 0)
(0.03490182 0.1030125 0)
(0.03410654 0.08397445 0)
(0.03318033 0.06494659 0)
(0.0321355 0.04590385 0)