/*--------------------------------*- C++ -*----------------------------------*\
| =========                 |                                                 |
| \\      /  F ield         | OpenFOAM: The Open Source CFD Toolbox           |
|  \\    /   O peration     | Version:  2312                                  |
|   \\  /    A nd           | Website:  www.openfoam.com                      |
|    \\/     M anipulation  |                                                 |
\*---------------------------------------------------------------------------*/
FoamFile
{
    version     2.0;
    format      ascii;
    arch        "LSB;label=32;scalar=64";
    class       volScalarField;
    location    "2000";
    object      qr;
}
// * * * * * * * * * * * * * * * * * * * * * * * * * * * * * * * * * * * * * //

dimensions      [1 0 -3 0 0 0 0];

internalField   uniform 0;

boundaryField
{
    plate
    {
        type            greyDiffusiveRadiationViewFactor;
        value           nonuniform List<scalar> 
80
(
-5984.291
-5984.291
-5984.291
-5984.291
-5985.993
-5985.993
-5985.993
-5985.993
-6002.977
-6002.977
-6002.977
-6002.977
-6020.052
-6020.052
-6020.052
-6020.052
-6025.137
-6025.137
-6025.137
-6025.137
-6027.601
-6027.601
-6027.601
-6027.601
-6025.794
-6025.794
-6025.794
-6025.794
-6022.942
-6022.942
-6022.942
-6022.942
-6017.751
-6017.751
-6017.751
-6017.751
-6011.357
-6011.357
-6011.357
-6011.357
-6003.858
-6003.858
-6003.858
-6003.858
-5995.003
-5995.003
-5995.003
-5995.003
-5984.181
-5984.181
-5984.181
-5984.181
-5966.326
-5966.326
-5966.326
-5966.326
-5952.228
-5952.228
-5952.228
-5952.228
-5927.853
-5927.853
-5927.853
-5927.853
-5894.975
-5894.975
-5894.975
-5894.975
-5837.246
-5837.246
-5837.246
-5837.246
-5773.741
-5773.741
-5773.741
-5773.741
-5732.464
-5732.464
-5732.464
-5732.464
)
;
        qro             uniform 0;
    }
    riser
    {
        type            greyDiffusiveRadiationViewFactor;
        value           nonuniform List<scalar> 
80
(
3950.353
3950.353
3950.353
3950.353
3838.28
3838.28
3838.28
3838.28
4119.633
4119.633
4119.633
4119.633
4370.84
4370.84
4370.84
4370.84
4577.534
4577.534
4577.534
4577.534
4740.619
4740.619
4740.619
4740.619
4864.786
4864.786
4864.786
4864.786
4955.061
4955.061
4955.061
4955.061
5015.738
5015.738
5015.738
5015.738
5050.001
5050.001
5050.001
5050.001
5059.766
5059.766
5059.766
5059.766
5045.599
5045.599
5045.599
5045.599
5006.666
5006.666
5006.666
5006.666
4919.649
4919.649
4919.649
4919.649
4844.32
4844.32
4844.32
4844.32
4713.099
4713.099
4713.099
4713.099
4542.833
4542.833
4542.833
4542.833
4331.633
4331.633
4331.633
4331.633
4087.448
4087.448
4087.448
4087.448
3885.436
3885.436
3885.436
3885.436
)
;
        qro             uniform 0;
    }
    adiabatic
    {
        type            greyDiffusiveRadiationViewFactor;
        value           nonuniform List<scalar> 
48
(
2518.644
2518.644
2518.644
2518.644
2521.094
2521.094
2521.094
2521.094
2401.517
2401.517
2401.517
2401.517
2202.252
2202.252
2202.252
2202.252
2080.117
2080.117
2080.117
2080.117
1954.488
1954.488
1954.488
1954.488
1968.183
1968.183
1968.183
1968.183
1909.504
1909.504
1909.504
1909.504
1704.529
1704.529
1704.529
1704.529
1476.6
1476.6
1476.6
1476.6
1350.668
1350.668
1350.668
1350.668
1214.959
1214.959
1214.959
1214.959
)
;
        qro             uniform 0;
    }
    frontBack
    {
        type            empty;
    }
}


// ************************************************************************* //
