/*--------------------------------*- C++ -*----------------------------------*\
| =========                 |                                                 |
| \\      /  F ield         | OpenFOAM: The Open Source CFD Toolbox           |
|  \\    /   O peration     | Version:  2312                                  |
|   \\  /    A nd           | Website:  www.openfoam.com                      |
|    \\/     M anipulation  |                                                 |
\*---------------------------------------------------------------------------*/
FoamFile
{
    version     2.0;
    format      ascii;
    arch        "LSB;label=32;scalar=64";
    class       volScalarField;
    location    "2000";
    object      T;
}
// * * * * * * * * * * * * * * * * * * * * * * * * * * * * * * * * * * * * * //

dimensions      [0 0 0 1 0 0 0];

internalField   nonuniform List<scalar> 
1920
(
506.9881
502.5508
502.4704
502.3979
502.2906
502.1506
501.9828
501.7944
501.5933
501.3872
501.1825
500.9844
500.7959
500.6183
500.4515
500.2944
500.145
500.0017
499.8626
499.7265
499.5551
499.282
498.8038
497.8285
508.3061
502.856
502.9001
502.9645
502.9617
502.8821
502.7376
502.5796
502.4255
502.2897
502.1825
502.109
502.0687
502.0562
502.0628
502.0784
502.0925
502.0944
502.0718
502.0065
501.8149
501.4251
500.6042
498.5867
509.3831
502.8675
502.6766
502.5919
502.6793
502.991
503.0239
502.9383
502.85
502.7898
502.7796
502.8301
502.9408
503.1013
503.2928
503.4915
503.6728
503.8135
503.8894
503.861
503.6531
503.1875
502.0951
498.9999
510.3017
502.7678
502.251
501.9411
501.9514
502.3705
503.058
503.0894
503.0736
503.0484
503.0652
503.1699
503.375
503.6645
504.0042
504.354
504.6777
504.9473
505.1288
505.1147
504.9745
504.5628
503.3591
499.2917
511.1362
502.6859
501.963
501.5945
501.5909
501.8123
502.6005
502.9088
503.131
503.2596
503.3147
503.358
503.5011
503.8226
504.2496
504.696
505.084
505.3503
505.4464
505.4796
505.5883
505.4899
504.4281
499.5231
511.9534
502.6856
501.8916
501.6496
501.5305
501.6567
501.9266
502.4235
502.898
503.2641
503.4968
503.6216
503.7096
503.8652
504.1454
504.563
505.0367
505.2535
505.211
505.3354
505.615
505.882
505.3369
499.7166
512.757
502.7791
501.9643
501.8347
501.6182
501.6279
501.8165
502.1143
502.6058
503.117
503.5269
503.7992
503.9606
504.08
504.2312
504.456
504.738
504.9128
505.035
505.273
505.5747
505.9043
506.09
499.881
513.5153
502.9567
502.4464
502.0802
501.7719
501.6991
501.827
502.0451
502.4377
502.9629
503.4765
503.8797
504.1502
504.3217
504.4534
504.5955
504.7636
504.9142
505.063
505.31
505.6137
505.9611
506.6949
500.0193
514.1268
503.1797
502.7609
502.289
501.9693
501.8681
501.9486
502.1211
502.4154
502.887
503.4338
503.923
504.2875
504.5302
504.6933
504.8255
504.9583
505.096
505.2442
505.4578
505.7341
506.0823
507.2286
500.1324
514.5997
503.6605
503.0183
502.5798
502.3079
502.2054
502.2366
502.3356
502.5435
502.9356
503.4633
503.9914
504.4179
504.7178
504.9182
505.0633
505.19
505.3185
505.4608
505.6309
505.8909
506.2636
507.7584
500.2127
514.9898
504.0341
503.5436
503.1878
502.9582
502.8357
502.7838
502.7578
502.8507
503.1335
503.6001
504.1255
504.5805
504.9129
505.1366
505.2915
505.4158
505.5343
505.6612
505.8012
506.0893
506.5572
508.493
500.2432
515.3223
504.6829
504.4254
504.1897
504.0103
503.8512
503.6753
503.4752
503.3717
503.4921
503.8565
504.3438
504.7958
505.1334
505.3594
505.5111
505.6264
505.7313
505.8408
505.9676
506.4147
507.1824
509.5483
500.2496
515.6437
505.5286
505.5734
505.53
505.4334
505.2376
504.9208
504.4944
504.0932
503.9826
504.2123
504.6396
505.064
505.3802
505.5859
505.7191
505.8172
505.9046
505.9963
506.128
507.0731
508.7622
510.5011
500.2541
515.9854
506.5232
506.9144
507.0932
507.041
506.7422
506.2806
505.5867
504.8089
504.4639
504.5949
504.9814
505.3661
505.6369
505.8028
505.9063
505.9818
506.051
506.1345
506.4807
509.1764
510.3655
510.8206
500.2561
516.364
507.6214
508.3264
508.6012
508.3404
507.6302
506.6864
505.7261
505.0212
504.845
505.0695
505.4339
505.74
505.934
506.0444
506.1121
506.1674
506.2492
506.5574
507.8138
509.9357
510.8407
510.8669
500.2513
516.7831
508.7627
509.6008
509.5874
508.7414
507.5614
506.502
505.9249
505.5183
505.4713
505.6873
505.9511
506.1411
506.2459
506.2984
506.3343
506.3925
506.5853
507.27
508.8293
510.4159
511.0816
510.7617
500.2459
517.235
509.8673
510.494
509.9818
508.869
507.7531
506.9151
506.4711
506.2173
506.1859
506.3093
506.4414
506.5166
506.5424
506.5495
506.575
506.6919
507.0964
508.121
509.6987
510.875
511.1219
510.5585
500.2243
517.705
510.8529
511.058
510.2306
509.1241
508.181
507.5121
507.1544
506.9254
506.8438
506.8528
506.8648
506.8484
506.818
506.8048
506.863
507.1139
507.7844
509.0271
510.4298
511.1521
511.0147
510.2952
500.1995
518.1865
511.6645
511.432
510.4601
509.4481
508.6662
508.1321
507.7838
507.5384
507.3915
507.3028
507.2248
507.1472
507.0901
507.0956
507.2473
507.6978
508.6113
509.8891
510.9372
511.1741
510.8258
509.9983
500.1806
518.6776
512.287
511.6883
510.6823
509.7769
509.1129
508.6661
508.3206
508.0484
507.8442
507.6845
507.5482
507.4406
507.3929
507.4679
507.7737
508.4426
509.4929
510.6047
511.193
511.0603
510.5916
509.6856
500.1776
519.1785
512.7318
511.8724
510.9012
510.102
509.5452
509.1454
508.7909
508.4904
508.2417
508.0352
507.8689
507.7633
507.767
507.9622
508.4521
509.2848
510.3006
511.0646
511.1893
510.8744
510.3341
509.3686
500.1978
519.6891
513.0191
512.015
511.1359
510.4652
510.0082
509.6003
509.2298
508.9028
508.6217
508.3888
508.2183
508.1477
508.2425
508.5866
509.234
510.1063
510.907
511.242
511.054
510.6509
510.0676
509.055
500.2448
520.2076
513.1706
512.1457
511.424
510.9102
510.4672
510.0498
509.6626
509.3136
509.0113
508.7701
508.6198
508.6136
508.8227
509.3028
510.02
510.7722
511.2226
511.175
510.8542
510.4094
509.8023
508.75
500.3204
520.725
513.2301
512.3715
511.8345
511.3705
510.929
510.5037
510.103
509.7386
509.4269
509.1943
509.085
509.1603
509.477
510.0319
510.6909
511.18
511.2508
510.9944
510.6206
510.1619
509.545
508.4578
500.4257
521.2292
513.446
512.742
512.2754
511.8313
511.3939
510.9652
510.5566
510.1852
509.8759
509.6668
509.6109
509.7643
510.1461
510.6764
511.1431
511.2919
511.0898
510.7567
510.3695
509.9164
509.3011
508.1815
500.5618
521.7231
513.7848
513.138
512.7123
512.2882
511.8599
511.4336
511.0243
510.6551
510.3594
510.1833
510.1797
510.3817
510.7528
511.1406
511.3123
511.151
510.8397
510.4867
510.1106
509.6779
509.0749
507.9242
500.7299
522.2016
514.1188
513.5255
513.1385
512.7381
512.3244
511.907
511.5049
511.1468
510.8727
510.73
510.7581
510.9511
511.2118
511.3487
511.2014
510.8823
510.5405
510.1987
509.8503
509.4501
508.8701
507.6885
500.9307
522.657
514.4331
513.8958
513.5505
513.179
512.7859
512.384
511.9963
511.6558
511.4039
511.2795
511.2947
511.3951
511.4392
511.2663
510.898
510.5466
510.2138
509.9017
509.593
509.2356
508.6897
507.4925
501.1542
523.082
514.7204
514.2437
513.9453
513.609
513.243
512.8629
512.4945
512.1716
511.9295
511.7877
511.7203
511.6313
511.3823
510.9355
510.5184
510.1753
509.8719
509.6012
509.3413
509.0357
508.5354
507.3457
501.3945
523.4707
514.9727
514.562
514.3179
514.0245
513.6922
513.3382
512.9884
512.6721
512.4097
512.1915
511.9551
511.5933
511.0492
510.4785
510.0986
509.7846
509.5216
509.3003
509.0966
508.8511
508.4074
507.2484
501.6503
523.8187
515.1799
514.8411
514.6592
514.4164
514.1229
513.7951
513.4548
513.1198
512.7881
512.4202
511.937
511.2792
510.5415
510.0009
509.6572
509.3815
509.1659
509.0002
508.8592
508.6814
508.3051
507.1978
501.9204
524.1211
515.3308
515.0681
514.9549
514.7677
514.5142
514.2062
513.8558
513.4635
513.0033
512.4171
511.6492
510.7477
509.9497
509.5072
509.2013
508.9692
508.8059
508.7008
508.6282
508.5255
508.2272
507.1906
502.2035
524.3714
515.4146
515.2293
515.1862
515.0545
514.8358
514.533
514.1441
513.6496
513.0057
512.1621
511.134
510.1044
509.3692
509.0002
508.7337
508.5489
508.4415
508.401
508.4018
508.3815
508.1717
507.2226
502.4983
524.5585
515.4223
515.3113
515.333
515.2488
515.0515
514.7321
514.2716
513.6339
512.7732
511.681
510.4771
509.4406
508.8049
508.4813
508.2564
508.1215
508.0725
508.0993
508.1778
508.2465
508.1357
507.2895
502.8034
524.6652
515.3482
515.3035
515.3766
515.323
515.1259
514.7627
514.1992
513.392
512.3156
511.0319
509.758
508.7865
508.2376
507.9532
507.7718
507.6883
507.6986
507.7943
507.9534
508.1171
508.1155
507.3869
503.1173
524.67
515.1907
515.2
515.303
515.2553
515.0309
514.5954
513.9058
512.9259
511.6716
510.2818
509.0267
508.1456
507.6659
507.4204
507.2837
507.2515
507.3206
507.4847
507.726
507.9896
508.1071
507.5104
503.4388
524.5518
514.9524
515.0001
515.1066
515.0348
514.7533
514.2212
513.3966
512.2657
510.8965
509.4866
508.3055
507.5159
507.0949
506.8894
506.7975
506.815
506.9402
507.1706
507.4935
507.8602
508.106
507.6554
503.7665
524.2982
514.6397
514.7101
514.7921
514.6658
514.3006
513.6568
512.705
511.464
510.0499
508.686
507.6042
506.9006
506.5339
506.3692
506.3206
506.3842
506.5609
506.8528
507.2544
507.7256
508.1076
507.8175
504.099
523.9124
514.2623
514.3423
514.3748
514.1686
513.7013
512.9431
511.886
510.5837
509.1842
507.9059
506.93
506.3075
505.9943
505.8704
505.862
505.9662
506.1872
506.5336
507.0085
507.5831
508.1075
507.992
504.435
523.4136
513.8321
513.9142
513.8792
513.5762
512.9991
512.1353
511.0022
509.6828
508.3383
507.1634
506.2923
505.7486
505.4894
505.4047
505.4314
505.5688
505.8252
506.2165
506.7567
507.4307
508.1017
508.1748
504.7733
522.8334
513.3616
513.4452
513.3333
512.9262
512.2417
511.2884
510.1087
508.8054
507.5383
506.4719
505.703
505.2377
505.032
504.9831
505.0385
505.2001
505.4812
505.906
506.5009
507.2676
508.0869
508.3615
505.1125
522.2069
512.8629
512.954
512.7641
512.2542
511.4712
510.4471
509.2455
507.9803
506.8012
505.8435
505.175
504.7876
504.6331
504.6148
504.6913
504.8673
505.1618
505.6074
506.2443
507.0942
508.0603
508.5484
505.4515
521.5666
512.3461
512.4561
512.1938
511.588
510.7192
509.6424
508.438
507.2246
506.1383
505.2886
504.719
504.4074
504.2994
504.3055
504.3951
504.5761
504.8726
505.3258
505.9908
506.9118
508.0203
508.7317
505.7889
520.9387
511.8194
511.963
511.6387
510.9474
510.0064
508.8929
507.7005
506.548
505.5574
504.8147
504.3416
504.1012
504.0329
504.0566
504.1517
504.3292
504.6176
505.0661
505.7447
506.7229
507.9661
508.9084
506.1235
520.3426
511.2891
511.4823
511.1094
510.3445
509.3448
508.2087
507.0399
505.9552
505.0621
504.4245
504.0431
503.8668
503.8298
503.8645
503.9592
504.127
504.3991
504.8319
505.5103
506.5305
507.898
509.0756
506.4541
519.7923
510.7602
511.0186
510.6119
509.7862
508.7406
507.5941
506.4585
505.4468
504.6515
504.1153
503.8183
503.6963
503.6819
503.7223
503.8127
503.9669
504.2173
504.6257
505.2912
506.3383
507.8171
509.2314
506.7797
519.2976
510.2362
510.5741
510.1495
509.2757
508.196
507.0498
505.9551
505.0199
504.3208
503.8794
503.6564
503.5776
503.5774
503.62
503.7047
503.8443
504.0705
504.4486
505.0909
506.15
507.7254
509.3739
507.099
518.8653
509.7205
510.1496
509.723
508.8138
507.7108
506.574
505.5261
504.6685
504.0614
503.7051
503.543
503.4951
503.5039
503.5472
503.6269
503.7532
503.9554
504.3003
504.9113
505.9693
507.6255
509.5022
507.4112
518.5001
509.2157
509.7447
509.3323
508.3999
507.2833
506.1631
505.1658
504.3845
503.8625
503.5796
503.465
503.4377
503.4498
503.4941
503.5713
503.6875
503.868
504.1793
504.7539
505.7993
507.5203
509.6157
507.7153
518.2047
508.7241
509.3589
508.9761
508.0324
506.9107
505.8124
504.867
504.1583
503.712
503.4892
503.4084
503.3923
503.4061
503.4529
503.5311
503.6413
503.8037
504.0832
504.6191
505.6429
507.4132
509.7144
508.0108
517.9799
508.248
508.9908
508.6526
507.7091
506.5893
505.5163
504.622
503.9799
503.5985
503.4223
503.3632
503.3516
503.367
503.4186
503.501
503.6094
503.7583
504.0093
504.5063
505.5024
507.3073
509.7989
508.297
517.8251
507.789
508.6392
508.3597
507.4274
506.3153
505.2693
504.423
503.84
503.5122
503.3702
503.3232
503.3121
503.3299
503.3883
503.478
503.5882
503.7277
503.9544
504.4145
505.3792
507.2059
509.8697
508.5737
517.7386
507.3489
508.3027
508.095
507.1843
506.0849
505.0657
504.2631
503.7305
503.4455
503.3273
503.2857
503.2733
503.2944
503.3614
503.4603
503.5751
503.7089
503.9158
504.3425
505.2744
507.1121
509.9282
508.8407
517.7175
506.9291
507.9798
507.8558
506.977
505.8942
504.9005
504.1359
503.6452
503.393
503.2906
503.2505
503.2363
503.2616
503.3383
503.4475
503.5683
503.6994
503.8907
504.2884
505.1885
507.0287
509.9755
509.0982
517.7583
506.5305
507.6689
507.6392
506.8027
505.7398
504.7695
504.0366
503.579
503.3514
503.2591
503.2184
503.2027
503.233
503.3201
503.4398
503.5671
503.6973
503.877
504.2507
505.1218
506.958
510.0134
509.3466
517.8573
506.1541
507.3685
507.4425
506.6584
505.6189
504.6691
503.9611
503.5285
503.3186
503.2329
503.1912
503.174
503.2107
503.3081
503.4377
503.5711
503.7015
503.8728
504.2279
505.074
506.9023
510.0433
509.5865
518.0102
505.8003
507.077
507.2625
506.5415
505.529
504.5968
503.907
503.4917
503.2936
503.2126
503.1706
503.1525
503.1967
503.3036
503.4416
503.5802
503.7111
503.8769
504.2188
505.0451
506.8632
510.0669
509.8187
518.2131
505.4695
506.7931
507.0961
506.4492
505.4682
504.5509
503.8725
503.467
503.2759
503.1985
503.1582
503.142
503.1938
503.3081
503.4522
503.5943
503.7257
503.8883
504.2223
505.0348
506.8424
510.0861
510.0442
518.4617
505.1618
506.5153
506.9399
506.3788
505.4349
504.5307
503.8562
503.453
503.2656
503.1903
503.1533
503.1485
503.2039
503.3217
503.4696
503.6138
503.7454
503.907
504.2379
505.0431
506.841
510.1024
510.2643
518.752
504.8774
506.2428
506.7858
506.3182
505.4215
504.535
503.8658
503.4612
503.2696
503.1911
503.1568
503.1602
503.2229
503.3461
503.4968
503.6409
503.7706
503.9309
504.2623
505.0684
506.8633
510.1243
510.4805
519.0806
504.6195
505.9751
506.6179
506.2579
505.4262
504.5672
503.9044
503.4939
503.2912
503.2042
503.1701
503.1811
503.2538
503.383
503.5348
503.676
503.8015
503.9596
504.2934
505.1057
506.9044
510.166
510.6954
519.4454
504.3926
505.7085
506.4347
506.1918
505.443
504.6244
503.9721
503.5539
503.3351
503.2355
503.1989
503.2175
503.3007
503.4346
503.5843
503.7193
503.838
503.9932
504.3316
505.1555
506.965
510.2288
510.9116
519.846
504.1973
505.4472
506.2364
506.1139
505.4644
504.7014
504.0676
503.6432
503.4068
503.2923
503.2514
503.2769
503.3679
503.5027
503.6459
503.7705
503.8799
504.032
504.3776
505.219
507.0465
510.3139
511.1316
520.2605
504.0658
505.1968
506.0249
506.0194
505.4821
504.7907
504.1868
503.7622
503.5103
503.3811
503.3356
503.3652
503.4588
503.5883
503.7192
503.829
503.9267
504.0759
504.4322
505.2976
507.1505
510.423
511.358
520.6644
504.0324
504.9642
505.8035
505.9053
505.4875
504.8829
504.3227
503.9077
503.6464
503.5056
503.4558
503.4854
503.5741
503.6905
503.8026
503.8933
503.9777
504.1254
504.4968
505.3936
507.2794
510.5579
511.5934
521.0572
504.0961
504.7568
505.5771
505.7701
505.4732
504.967
504.4651
504.0722
503.8109
503.6636
503.6103
503.6349
503.7105
503.8059
503.8931
503.9613
504.0319
504.1807
504.5735
505.51
507.4362
510.7208
511.8401
521.4392
504.2539
504.5822
505.3514
505.6148
505.4332
505.0324
504.6015
504.2442
503.9938
503.8466
503.7907
503.8053
503.8605
503.9281
503.986
504.03
504.0882
504.2431
504.665
505.6508
507.6245
510.914
512.1008
521.8113
504.5031
504.4484
505.1335
505.4426
505.3641
505.0693
504.7183
504.4085
504.1801
504.0397
503.9819
503.983
504.0127
504.0486
504.0754
504.0962
504.1463
504.3146
504.7757
505.8214
507.8494
511.1404
512.378
522.1746
504.8426
504.3633
504.9313
505.2585
505.2652
505.0703
504.8027
504.5491
504.3516
504.2239
504.1653
504.151
504.1536
504.1575
504.1552
504.1573
504.2066
504.3988
504.9119
506.0294
508.1168
511.4033
512.6742
522.5304
505.2755
504.3362
504.754
505.0699
505.139
505.0315
504.8447
504.6507
504.4899
504.3792
504.321
504.292
504.2694
504.2452
504.2199
504.2119
504.2719
504.5025
505.0832
506.2847
508.4345
511.7066
512.992
522.8802
505.8122
504.3794
504.6132
504.887
504.992
504.9537
504.8384
504.702
504.5795
504.4879
504.4318
504.3908
504.3487
504.3046
504.2668
504.2622
504.3493
504.6371
505.3036
506.601
508.8124
512.0552
513.3345
523.2263
506.4766
504.5125
504.5251
504.7241
504.8354
504.8431
504.7844
504.698
504.6112
504.5389
504.4864
504.4383
504.3855
504.3337
504.2991
504.3167
504.4534
504.8219
505.5946
506.9976
509.2635
512.4554
513.7049
523.5712
507.3138
504.7728
504.5166
504.6036
504.6885
504.7149
504.6927
504.6437
504.5862
504.5314
504.4841
504.4354
504.3838
504.341
504.3308
504.3967
504.6118
505.0894
505.9883
507.5008
509.8049
512.9158
514.1074
523.9185
508.3988
505.2367
504.6422
504.5687
504.5877
504.6004
504.5899
504.5613
504.5231
504.4819
504.4416
504.4007
504.3658
504.3548
504.3985
504.5474
504.8769
505.4935
506.5337
508.1483
510.4604
513.4483
514.5473
524.2738
509.8427
506.0624
505.0276
504.7181
504.6157
504.5717
504.5405
504.5094
504.4765
504.4433
504.4114
504.3901
504.3946
504.4481
504.5866
504.8622
505.3451
506.125
507.3062
508.9943
511.2636
514.0711
515.0323
524.6462
511.7748
507.5345
505.9666
505.3077
504.9938
504.8246
504.7218
504.6525
504.6027
504.567
504.5443
504.5616
504.6401
504.8038
505.0863
505.5314
506.1927
507.1332
508.4203
510.1177
512.2634
514.8115
515.573
525.0522
514.3105
510.035
508.0225
506.943
506.3101
505.9137
505.6554
505.4849
505.3755
505.314
505.2951
505.3747
505.5616
505.869
506.3158
506.9262
507.7292
508.7586
510.0489
511.6346
513.5331
515.7111
516.1852
525.524
517.476
513.8082
511.7885
510.5071
509.6247
508.9903
508.5298
508.202
507.9823
507.8565
507.8331
507.9443
508.1792
508.5397
509.0289
509.6526
510.4189
511.3401
512.4298
513.7064
515.1785
516.8322
516.8922
526.1402
521.1713
518.6741
517.1793
516.1521
515.3788
514.7687
514.2841
513.9092
513.6376
513.4675
513.4308
513.4647
513.5704
513.7492
514.0032
514.335
514.7485
515.2496
515.8443
516.5431
517.3498
518.265
517.7266
527.1855
525.1669
524.0514
523.3444
522.8374
522.4364
522.1013
521.8169
521.5799
521.3917
521.2574
521.1468
521.0374
520.9296
520.8242
520.7217
520.6227
520.5276
520.4368
520.3509
520.2704
520.1957
520.1219
518.7329
)
;

boundaryField
{
    plate
    {
        type            fixedValue;
        value           uniform 663.15;
    }
    riser
    {
        type            fixedValue;
        value           uniform 433.15;
    }
    adiabatic
    {
        type            zeroGradient;
    }
    frontBack
    {
        type            empty;
    }
}


// ************************************************************************* //
