/*--------------------------------*- C++ -*----------------------------------*\
| =========                 |                                                 |
| \\      /  F ield         | OpenFOAM: The Open Source CFD Toolbox           |
|  \\    /   O peration     | Version:  2312                                  |
|   \\  /    A nd           | Website:  www.openfoam.com                      |
|    \\/     M anipulation  |                                                 |
\*---------------------------------------------------------------------------*/
FoamFile
{
    version     2.0;
    format      ascii;
    arch        "LSB;label=32;scalar=64";
    class       volScalarField;
    location    "4350";
    object      G;
}
// * * * * * * * * * * * * * * * * * * * * * * * * * * * * * * * * * * * * * //

dimensions      [1 0 -3 0 0 0 0];

internalField   nonuniform List<scalar> 
12000
(
23707.86
21286.33
20207.7
19412.5
18593.84
17779.51
17095.09
16604.72
16285.99
16076.36
15924.67
15822.5
15802.68
15899.75
16099.6
16323.32
16462.98
16442.57
16258.11
15969.09
15652.37
15355.69
15081.76
14806.39
14510.43
14201.02
13910.5
13678.45
13530.96
13468.95
13469.39
13495.55
13510.1
13485.61
13410.04
13286.63
13130.06
12960.69
12799.01
12661.58
12559.16
12497.02
12476.34
12496.11
12553.55
12643.44
12758.27
12889.43
13028.12
13165.49
13291.59
13397.72
13479.64
13537.39
13570.63
13574.87
13543.8
13467.45
13369.85
13152.93
25850.06
24294.77
23018.08
21837.09
20660.02
19635.51
18884.49
18373.4
17994.01
17660.32
17352.4
17114.21
17010.21
17060.4
17203.12
17320.49
17306.97
17126.92
16821.01
16464.15
16112.06
15775.01
15430.46
15056.45
14657.84
14269.23
13937.04
13695.55
13551.45
13482.9
13450.74
13414.07
13343.51
13227.77
13073.35
12899.11
12728.77
12584.05
12480.16
12424.17
12416.1
12451.47
12524.05
12627.41
12754.97
12899.09
13050.48
13198.84
13334.12
13447.45
13531.31
13579.82
13590.33
13565.31
13511.71
13436.43
13341.91
13220.34
13091.77
12873.95
26220.95
25234.72
24008.52
22834.66
21791.18
20907.13
20185.07
19583.79
19052.63
18571.07
18170.52
17918.11
17859.43
17961.18
18108.45
18164.74
18047.02
17760.28
17373.71
16964.5
16572.87
16195.02
15808.94
15406.59
15008.69
14655.84
14386.16
14215.38
14129.9
14094.06
14065.43
14010.11
13912.05
13774.47
13614.76
13456.42
13321.37
13224.77
13173.16
13165.3
13194.63
13252.3
13329.61
13419.23
13515.1
13611.36
13701.37
13777.73
13833.36
13862.94
13863.3
13832.67
13770.46
13679.17
13566.18
13441.33
13311.26
13169.46
13030.97
12811.53
26218.07
25538.88
24267.01
23053.37
22210.23
21578.94
20950.85
20271.1
19595.94
19015.58
18620.16
18465.42
18525.69
18679.62
18761.04
18645.5
18309.22
17822.7
17292.88
16799.49
16365.98
15974.12
15600.65
15245.47
14934.96
14704.23
14574.15
14537.95
14563.11
14604.9
14623.26
14595.23
14519.15
14410.79
14294.87
14195.82
14131.05
14108
14124.88
14173.45
14242.51
14320.83
14398.99
14470.1
14529.52
14573.93
14599.95
14603.4
14580.06
14527.34
14445.4
14336.15
14201.75
14045.11
13872.07
13690.6
13508.31
13320.69
13154.12
12889.87
26033.95
25530.94
24282.69
23023.07
22212.97
21686.99
21153.94
20516.16
19852.15
19303.21
18984.86
18922.5
19024.54
19120.21
19049.04
18743.02
18247.04
17672.34
17123.72
16650.26
16243.5
15871.49
15516.85
15192.89
14932.91
14766.15
14698.06
14705.65
14747.6
14781.48
14779.02
14733.37
14657.35
14575.29
14512.91
14488.93
14510.92
14575.29
14670.58
14781.91
14894.8
14997.46
15081.45
15141.54
15175.21
15181.85
15161.44
15113.29
15036.2
14930.13
14797.84
14644.39
14474.73
14292.16
14099.23
13898.91
13698.25
13498.53
13337.78
13084.64
25828.19
25338.51
24234.75
22982.23
21972.05
21280.22
20783.47
20335.39
19892.26
19518.2
19294.34
19224.16
19212.24
19123.89
18872.08
18465.51
17988.7
17537.86
17162.57
16849.76
16551.42
16228.57
15879.45
15537.4
15246.43
15034.37
14899.25
14813.69
14740.91
14652.35
14538.4
14409.27
14288.08
14200.53
14165.81
14191.34
14272.05
14393.37
14536.17
14681.72
14815.01
14925.78
15008
15058.73
15077.52
15065.88
15026.38
14961.44
14872.68
14761.89
14632.63
14490.63
14341.69
14188.73
14031.35
13868.82
13707.92
13557.49
13452.74
13298.9
25682.75
25014.15
24041.14
22792.81
21511.23
20566.07
20057.39
19808.22
19638.29
19500.77
19411.94
19346.76
19224.29
18970.53
18581.46
18129.57
17713.5
17394
17162.3
16957.15
16711.68
16395.5
16026.99
15654.72
15325.77
15061.83
14854.33
14676.26
14500.65
14314.9
14125.24
13951.81
13818.83
13745.15
13738.54
13794.56
13899.04
14032.62
14175.59
14311.63
14429.65
14523.38
14589.86
14627.96
14637.87
14621.25
14581.32
14522.03
14446.97
14358.94
14260.88
14156.91
14051.52
13946.89
13842.04
13736.69
13639.04
13562.73
13529.08
13498.27
25434.94
24247.05
23213.12
21971.81
20637.97
19611.64
19054.82
18853.21
18846.43
18942.82
19075.45
19146.91
19051.02
18739.39
18258.61
17722.28
17241.16
16864.24
16567.62
16289.43
15979.73
15631.43
15277.75
14965.42
14725.51
14559.14
14442.6
14344.3
14241.89
14130.91
14022.9
13936.74
13888.88
13887.04
13928.74
14003.56
14097.17
14195.23
14286.16
14362.5
14420.68
14459.63
14479.12
14478.59
14457.31
14415.42
14355.04
14280.31
14196.16
14106.66
14014.56
13922.26
13832.34
13746.59
13665.55
13591.82
13534.68
13506.27
13513.24
13546.04
24364.42
22601.22
21608.82
20688.91
19720.78
18816.51
18148.16
17837.32
17890.61
18198.03
18573.87
18821.23
18804.46
18498.74
17986.14
17398.64
16845.01
16367.81
15950.69
15559.45
15182.06
14841.96
14581.85
14435.13
14405.45
14465.4
14571.13
14682.02
14774.18
14843.03
14896.72
14946.42
14998.63
15052.62
15102.05
15138.76
15156.11
15150.79
15122.84
15074.64
15009.46
14930.13
14838.08
14733.13
14614.28
14481.24
14336.09
14183.98
14031.96
13886.56
13751.83
13629.39
13519.92
13424.53
13345.33
13286.24
13253.19
13249.64
13267.41
13306.99
11391.33
14172.62
15505.64
16206.98
16429.72
16188.9
15803.34
15684.38
16006.8
16641.27
17307.43
17759.8
17889.45
17727.36
17385.52
16980.35
16578.42
16187.63
15788.64
15377.15
14986.13
14676.19
14505.09
14498.66
14640.33
14881.7
15164.77
15442.23
15687.17
15891.34
16056.71
16186.81
16281.88
16338.66
16353.12
16323.41
16251.41
16142.21
16002.46
15838.45
15654.99
15455.18
15240.9
15013.36
14774.06
14525.86
14274.19
14027.6
13796.5
13590.42
13414.95
13270.74
13155.8
13069.33
13013.61
12991.32
13000.27
13031.01
13061.68
13106.92
11156.13
13282.07
14441.17
15112.79
15360.37
15198.55
14898.81
14838.34
15187.88
15810.58
16420.23
16798.32
16894.15
16787.85
16592.89
16376.34
16135.37
15827.5
15423.92
14947.45
14473.13
14095.88
13888.53
13874.88
14028.67
14293.42
14608.06
14925.49
15218.52
15475.73
15693.63
15870.41
16003.48
16090.08
16129.15
16122.49
16074.47
15990.45
15874.92
15730.36
15557.6
15357.09
15130.48
14881.57
14616.54
14343.83
14074.1
13819.82
13593.88
13406.88
13263.94
13163.5
13100.12
13070.17
13074.75
13114.43
13179.41
13249.42
13299.86
13358.16
22577.09
19269.63
18076.08
17401.83
16763.3
16152.92
15681.83
15490.56
15620.47
15935.99
16215.78
16313.04
16228.86
16061.56
15903.99
15774.08
15616.26
15356.65
14965.05
14482.1
14000.49
13619.17
13400.94
13354.96
13446.8
13623.19
13835.47
14051.48
14255.64
14442.54
14610.29
14756.93
14879.84
14976.75
15046.72
15090.22
15108.29
15101.22
15067.61
15004.49
14908.75
14779.27
14618.61
14433.5
14234.05
14032.32
13841.05
13672.51
13537.28
13442.25
13388.63
13371.53
13382.84
13416.56
13471.32
13545.12
13625.66
13690.56
13727.99
13748.72
11010.15
12086.24
12905.64
13467.15
13667.55
13672.79
13704.82
13880.81
14191.64
14534.97
14786.57
14883.13
14857.52
14799.76
14780.49
14800.7
14803.15
14728.25
14565.02
14361
14191.04
14113.07
14140.82
14245.57
14378.69
14497.51
14580.15
14625.96
14646.67
14656.24
14664.49
14675.44
14688.66
14701.32
14709.86
14710.75
14700.74
14676.55
14634.85
14572.71
14488.78
14384.64
14265.56
14140.1
14018.55
13910.85
13824.95
13765.95
13735.71
13732.64
13751.78
13785.67
13826.37
13867.66
13905.35
13934.3
13945.88
13925.88
13886.86
13777.26
10167.38
10955.8
11759.53
12544.07
13107.22
13427.25
13639.16
13825.81
13985.43
14098.34
14157.89
14169
14149.87
14128.51
14122.45
14122.82
14107.49
14073.85
14057.16
14114.54
14286.9
14568.79
14906.82
15224.67
15456.73
15571.03
15572.8
15492.69
15369.59
15236.93
15116.29
15017.02
14939.16
14877.14
14823.1
14769.45
14710.58
14643.63
14568.56
14487.78
14405.8
14328.77
14263.96
14218.61
14198.34
14205.44
14237.82
14289.11
14349.94
14409.79
14459.26
14491.8
14503.71
14491.86
14451.26
14375.43
14263.96
14115.78
13972.23
13696.64
9962.043
10342.35
10852.29
11523.31
12300.5
13019.56
13533.87
13754.54
13694.35
13480.23
13276.79
13187.34
13219.55
13316.35
13404.54
13433.74
13401.9
13361.13
13394.89
13573.52
13913.56
14365.74
14836.87
15230.29
15481.52
15573.52
15530.27
15398.03
15225.73
15052.15
14900.97
14781.8
14693.84
14630.11
14581.4
14539.52
14499.6
14461.14
14427.74
14405.75
14402.52
14424.59
14476.48
14559.76
14672.24
14807.22
14953.22
15095.03
15216.27
15302.98
15347
15347.35
15307.68
15230.49
15113.18
14951.45
14752.64
14525.55
14329.36
13981.26
9944.296
10148.16
10471.18
10988.88
11833.34
12848.12
13658.52
13964.34
13738.3
13208.04
12689.01
12408.19
12420.41
12633.88
12899.33
13103.25
13220.15
13306.59
13450.53
13711.29
14084.76
14508.4
14895.05
15171.96
15304.88
15300.33
15192.15
15023.48
14832.86
14647.79
14484.35
14349.79
14245.73
14170.76
14122.37
14098.44
14098.34
14123.42
14176.66
14261.38
14379.5
14530.07
14708.7
14907.91
15117.66
15325.53
15516.87
15675.71
15787.61
15843.6
15843.38
15794.96
15709.86
15596.14
15455.1
15285.92
15097.52
14900.63
14745.79
14487.86
9954.824
10040.36
10270.76
10749.81
11632.98
12771.62
13721.23
14094.87
13822.83
13138.57
12405
11925.37
11823.16
12032.78
12389.3
12748.42
13057.65
13347.45
13671.36
14049.27
14449.67
14810.38
15074.07
15213.35
15235.08
15168.03
15045.96
14895.46
14732.24
14563.82
14394.7
14230.64
14080.38
13955.03
13865.99
13822.94
13832.46
13897.42
14016.93
14186.08
14395.78
14632.95
14881.66
15125.15
15347.89
15536.52
15679.81
15768.79
15798.53
15771.08
15697.12
15593.4
15476.71
15357.94
15240.97
15126.77
15019.68
14925.54
14865.23
14783.96
9985.505
9979.58
10164.99
10713.57
11669.53
12799.01
13694.23
14044.54
13801.06
13157.22
12429.19
11906.38
11728.43
11855.78
12148.7
12484.72
12823.31
13187.07
13600.77
14048.22
14474.53
14819.26
15048.91
15167.53
15205
15195.99
15163.53
15113.8
15040.68
14934.95
14792.68
14619.97
14432.98
14254.48
14108.55
14015.68
13989.28
14034.29
14147.33
14317.63
14528.45
14758.78
14985.82
15188.1
15348.36
15455.27
15503.4
15492.57
15428.13
15321.86
15191.54
15057.04
14934.6
14833.56
14757.69
14708.02
14683.55
14683.03
14698.32
14745.47
10011.12
9954.674
10151.19
10814.54
11825.15
12844.16
13566.88
13843.27
13680.25
13217.22
12678.2
12274.72
12105.75
12136.71
12270.87
12441.89
12650.36
12931.65
13301.39
13729.28
14154.66
14521.97
14806.44
15015.9
15174.59
15303.67
15409.91
15485.63
15516
15488.4
15399.34
15257.18
15080.65
14894.47
14723.97
14590.23
14507.03
14479.75
14505.92
14576.59
14677.94
14793.05
14903.75
14993.02
15047.54
15059.7
15028.32
14958.17
14858.88
14743.86
14628.27
14525.65
14444.77
14389.62
14362.14
14363.55
14391.03
14437.96
14481.94
14559.38
10015.69
9970.249
10261.35
11022.52
11981.35
12800.44
13341.68
13604.01
13613.57
13425.8
13145.45
12882.63
12693.09
12573.19
12504.86
12495.87
12579.36
12782.99
13101.46
13494.74
13909.1
14301.64
14652.13
14959.01
15227.25
15458.21
15646.43
15782.68
15859.38
15874.78
15834.47
15750.1
15636.46
15508.23
15377.42
15252.14
15136.53
15031.7
14936.95
14851.02
14772.67
14700.55
14632.63
14565.89
14496.99
14423.98
14348.09
14274.1
14208.86
14158.66
14126.97
14113.58
14115.93
14131.89
14162.12
14208.86
14270.18
14337.56
14386.69
14451.35
10010.27
10052.72
10511.89
11297.88
12071.96
12656.65
13097.52
13461.07
13730.32
13853.42
13805.05
13598.18
13280.58
12935.06
12664.45
12554.58
12639.46
12894.14
13256.63
13660.57
14058.53
14427.8
14762.45
15061.5
15321.34
15534.97
15696.03
15803.41
15863.31
15887.8
15890.8
15883.45
15870.63
15849.97
15813.3
15749.82
15649.76
15507.42
15323.15
15104.03
14863.04
14616.78
14381.98
14172.11
13995.65
13856.99
13758.88
13704.04
13693.78
13724.66
13786.79
13866.39
13951.51
14036.64
14122.8
14213.28
14306.62
14396.03
14458.49
14540.18
10014.85
10234.91
10876.37
11588.95
12127.74
12551.57
13004.3
13524.79
14039.26
14419.64
14537.69
14329.34
13855.81
13301.53
12887.79
12760.26
12931.07
13303.94
13747.14
14159
14494.05
14752.31
14953.34
15115.26
15246.9
15350.68
15429.24
15490.07
15545.61
15609.54
15691.39
15791.98
15901.7
16002.09
16070.17
16083.89
16026.91
15891.87
15681.65
15409.14
15095.5
14766.95
14450.14
14167.51
13934.26
13758.55
13644.13
13592.57
13602.18
13664.71
13764.01
13880.58
13999.65
14116.09
14232.01
14350.23
14468.03
14583
14672.1
14814.05
10064.06
10546.74
11319.26
11915.77
12313.74
12713.43
13224.09
13836.81
14480.56
15015.49
15253.46
15072.58
14534.95
13881.81
13398.51
13258.86
13458.72
13860.92
14294.97
14639.4
14850.71
14946.34
14970.36
14965.99
14963.9
14982.68
15033.71
15124.74
15260.2
15439.12
15652.84
15884.23
16109.36
16301.48
16435.81
16493.87
16466.05
16352.2
16160.71
15907
15611.68
15298.21
14989.91
14706.61
14462.4
14265.62
14120.84
14030.77
13995.6
14010.12
14062.32
14137.17
14223.78
14319.3
14425.27
14541.66
14663.27
14792.43
14905.08
15110.51
10199.16
11025.28
11889.43
12453.08
12870.98
13303.48
13794.53
14369.6
15022.4
15624.72
15952.17
15846.78
15356.45
14719.37
14217.05
14020.59
14130.32
14419.99
14730.47
14948.06
15034.59
15014.19
14941.08
14870.92
14845.48
14889.25
15011.88
15211.41
15476.17
15785.98
16113.95
16429.67
16703.67
16912.04
17039.73
17081.71
17041.89
16930.35
16760.28
16545.59
16299.74
16035.5
15764.92
15499.05
15247.43
15017.9
14816.99
14650.56
14523.39
14437.7
14391.76
14380.92
14400.85
14449.59
14525.18
14622.88
14734.83
14865.82
14989.28
15227.73
10605.75
11986.8
12995.25
13641.41
14111
14471.63
14808.57
15254.39
15847.26
16442.2
16802.45
16778.05
16407.95
15881.3
15416.07
15149.94
15099.65
15189
15311.11
15385.46
15384.87
15330.47
15268.4
15245.33
15293.32
15425.47
15638.48
15917.07
16237.84
16572.39
16890.58
17164.61
17373.08
17504.02
17555.72
17535.15
17454.71
17328.24
17167.62
16980.83
16771.89
16542.48
16294.48
16032.2
15763.15
15496.99
15243.62
15011.85
14809.48
14644.04
14522.43
14449.05
14424.07
14443.42
14499.81
14584.83
14689.81
14818.82
14942.15
15177.34
11855.78
13801.85
14802.09
15366.54
15668.27
15794.11
15928.07
16243.11
16736.63
17236.92
17550.45
17587.37
17379.89
17028.64
16643.01
16304.74
16052.93
15885.27
15774.13
15690.19
15621.16
15575.89
15575.05
15637
15767.9
15959.75
16194.36
16448.88
16700.17
16927.38
17113.62
17247.55
17324.45
17346.33
17320.55
17257.45
17167.52
17058.97
16936.04
16798.47
16642.43
16462.92
16257.21
16027.87
15783.6
15536.87
15299.81
15081.22
14887.25
14724.73
14602.66
14528.93
14504.62
14522.33
14571.02
14642.77
14732.57
14842.8
14946.14
15133.69
24063.19
22060.78
21012.96
20297.54
19614.2
19001.44
18631.09
18569.5
18703.22
18855.71
18921.28
18880.65
18736.35
18473.98
18082.96
17591.63
17069.55
16596.57
16229.19
15987.78
15865.01
15841.32
15895.16
16005.39
16150.1
16306.51
16453.04
16572.36
16653.43
16692.05
16690.26
16655.09
16596.78
16526.51
16454.11
16386.32
16325.96
16272.07
16220.41
16164.25
16095.53
16006.99
15894.99
15761.95
15616.49
15470.32
15333.2
15209.51
15099.58
15004.66
14930.23
14883.1
14864.12
14865.37
14876.56
14894.38
14921.69
14961.41
14999.77
15072.62
25258.23
23833.41
22759.9
21918.41
21078.36
20335.14
19870.42
19682.05
19619.06
19568.87
19530.78
19531.27
19525.46
19400.98
19064.47
18518.36
17866
17254.02
16801.1
16556.4
16500.18
16571.76
16702.02
16834.83
16934.12
16981.58
16971.32
16905.36
16791.23
16640.67
16468.83
16292.7
16128.82
15990.62
15886.29
15818.07
15783.07
15774.94
15785.57
15806.13
15827.94
15843.55
15848.45
15842.4
15829.14
15813.63
15798.14
15779.86
15752.53
15711.33
15656.8
15593.55
15524.33
15446.22
15354.9
15252.58
15149.75
15052.54
14970.88
14859.59
25594.74
24730.32
23754.62
22922.69
22178.93
21560.05
21120.68
20792.77
20483.55
20209.8
20064.79
20083.18
20169.8
20152.48
19896.79
19389.4
18741.65
18124.36
17681.9
17474.1
17468.95
17577.07
17700.02
17766.36
17744.34
17635.13
17457.82
17236.22
16991.83
16742.41
16503.28
16288.33
16109.6
15975.89
15891.31
15855.15
15862.86
15907.8
15982.59
16079.77
16191.9
16311.78
16432.91
16549.95
16658.36
16753.28
16828.07
16873.87
16880.96
16841.69
16753.38
16619.33
16446.36
16240.97
16008.28
15754.61
15493.3
15232.67
15011.48
14696.95
25634.77
25108.79
24149.84
23227.18
22620.1
22290.82
22009.62
21582.02
21019.2
20506.82
20230.53
20232.76
20396.02
20525.2
20456.22
20132.62
19620.65
19063.1
18601.5
18310.55
18177.12
18126.15
18069.28
17946.1
17740.33
17471.69
17176.2
16888.14
16630.78
16415.92
16247.88
16127.8
16055.98
16032.09
16054.62
16120.42
16225.06
16363.45
16530.35
16720.42
16927.93
17146.24
17367.41
17581.76
17777.94
17943.58
18066.62
18136.62
18145.11
18085.42
17953.69
17751.77
17489.4
17181.85
16843.46
16483.01
16111.29
15733.6
15414.99
14954.59
25559.17
25267.67
24351.51
23330.81
22791.71
22684.16
22538.68
22050.25
21312.36
20630.87
20252.35
20239.04
20488.15
20808.98
21007.09
20957.06
20642.93
20147.29
19595.6
19089.94
18669.78
18315.41
17981.07
17631.47
17261.08
16891.51
16555.95
16282.84
16087.07
15969.71
15922.88
15935.56
15997.5
16100.73
16239.34
16408.66
16604.53
16822.89
17059.66
17310.76
17571.81
17837.42
18100.06
18349.06
18570.92
18751.4
18878.72
18945.46
18947.65
18881.67
18743.24
18531.4
18254.42
17930.05
17577.03
17204.8
16818.97
16416.69
16077.76
15566.77
25421.33
25235.24
24439.36
23487.04
22966.47
22817.82
22585.54
22026.96
21283
20647.78
20329.42
20375.51
20701.41
21139.28
21492.39
21599.01
21387.33
20891.98
20222.99
19507.97
18841.32
18263.55
17771.93
17346.55
16972.87
16650.52
16389.33
16199.99
16086.77
16045.37
16065.26
16133.77
16239.53
16374.2
16532.39
16710.48
16905.3
17113.33
17330.64
17553.41
17778.24
18001.45
18217.6
18418.14
18591.89
18727.77
18818.32
18861.36
18857.7
18806.73
18704.12
18545.47
18333.21
18079.37
17799.25
17500.28
17184.09
16839.26
16543.74
16054.88
25261.32
25046.11
24444.07
23761.57
23222.33
22736.97
22162.91
21523.22
20967.68
20634.25
20576.85
20768.53
21123.13
21512.04
21787.92
21823.68
21554.44
21000.41
20257.43
19458.7
18726.64
18137.15
17709.45
17419.76
17226.16
17090.22
16987.73
16908.58
16851
16815.46
16801.36
16806.62
16828.91
16866.71
16919.49
16986.76
17067.05
17157.47
17254.3
17354.26
17455.26
17555.93
17653.89
17744.43
17821.04
17877.91
17912.75
17927.43
17925.37
17907.39
17869.46
17804.52
17707.41
17578.65
17423.37
17244.67
17043.69
16804.55
16588.48
16165.25
25090.28
24758.96
24392.96
24023.06
23370.71
22406.67
21444.9
20796.16
20546.19
20606.65
20848.28
21167.18
21483.93
21726.98
21826.97
21723.79
21383.42
20818.38
20098.63
19339.29
18665.08
18167.75
17878.6
17768.35
17770.39
17812.13
17839.12
17824.42
17764.87
17671.03
17557.41
17436.67
17317.8
17206.57
17106.33
17018.38
16941.98
16874.88
16814.52
16759.61
16710.8
16669.98
16638.65
16616.63
16602.53
16595.47
16596.63
16608.93
16635.1
16675.36
16725.81
16778.01
16820.13
16840.47
16832.24
16794.17
16729.87
16624.17
16513.37
16205.02
24908.58
24423.2
24237.78
23990.12
23132.99
21836.96
20720.07
20183.65
20198.99
20516.79
20908.66
21250.25
21495.72
21633.92
21657.68
21546.51
21268.38
20804.33
20180.47
19480.41
18823.47
18318.87
18023.21
17924.27
17956.36
18034.29
18086.56
18073.66
17988.73
17846.56
17669.82
17478.9
17287.52
17102.69
16926.53
16758.31
16596
16437.64
16282.7
16133
15992.75
15867.47
15762.47
15681.85
15628.7
15605.65
15615.05
15658.41
15735.79
15845.72
15984.52
16143.95
16309.04
16460.59
16583.94
16675.37
16741.07
16769.91
16776.02
16628.55
24562.52
23796.74
23602.43
23240.86
22279
21042.75
20095.1
19720.46
19836.24
20189.25
20557.81
20832.08
20999.76
21096.62
21153.74
21159.75
21056.95
20776
20287.46
19634.86
18926.53
18291.35
17825.81
17561.04
17463.42
17461.73
17482.42
17475.23
17421.3
17326.3
17207.18
17080.43
16955.81
16835.63
16717.15
16595.75
16467.6
16331.3
16188.61
16044.2
15904.77
15777.81
15670.66
15590.1
15542.04
15530.93
15558.91
15625.5
15728.63
15866.29
16036.34
16233.34
16444.72
16652.08
16839.71
17002.59
17146.33
17264.93
17361.67
17370.71
23582.79
22585.38
22394.23
22024.98
21310.6
20500.64
19876.3
19590.94
19631.63
19859.17
20104.65
20265.4
20342.41
20405.29
20517.83
20676.8
20801.09
20773.45
20505.74
19988.65
19299.97
18570.93
17932
17466.79
17193.6
17076.92
17056.37
17075.55
17098.74
17112.66
17118.25
17120.41
17120.94
17116.57
17100.81
17067.28
17012.54
16937.29
16845.93
16745.01
16641.63
16542.49
16454.11
16383.05
16335.5
16315.76
16324.88
16361.07
16422.02
16507.21
16617.73
16753.29
16908.65
17073.47
17236.49
17390.86
17537.18
17674.19
17803.65
17909.8
13198.38
16105.26
17686.87
18395.9
18707.54
18804.94
18763.3
18705.76
18755.09
18925.9
19128.31
19275.22
19369.19
19492.08
19725.69
20078.01
20464.25
20744.48
20788.73
20534.52
20011.87
19328.37
18625.25
18026.69
17604.47
17369.6
17287.91
17306.53
17377.02
17466.87
17559.33
17646.88
17724.42
17785.87
17824.54
17835.56
17818.18
17776.26
17716.7
17646.87
17572.64
17498.06
17426.55
17361.91
17307.95
17266.77
17237.62
17218.01
17206.45
17204.54
17216.51
17246.98
17299.02
17372.51
17462.95
17562.03
17663.97
17770.19
17883.3
18018.81
13249.78
16029.52
17423.26
18058.3
18524.64
18890.78
19023.67
18935.88
18788.09
18709.47
18710.47
18745.1
18803.5
18932.95
19189.86
19581.51
20041.68
20448.29
20668.17
20607.66
20248.64
19655.57
18951.15
18272.22
17725.95
17364.29
17183.57
17143.38
17191.51
17283.11
17388.58
17491.91
17584.83
17661.87
17718.64
17752.76
17765.35
17761.2
17746.95
17728.44
17708.98
17689.45
17669.86
17650.59
17632.16
17613.93
17593.5
17568.07
17536.82
17502.05
17468.69
17443.38
17434.05
17447.78
17486.13
17542.28
17607.26
17681.49
17765.87
17894.4
23297.13
22080.64
21453.26
20952.72
20684.35
20595.28
20445.98
20107.41
19651.58
19224.24
18916.04
18739.82
18676.6
18717.54
18869.97
19135.96
19486.11
19847.38
20114.78
20184.91
19996.67
19558.66
18948.55
18284.2
17681.29
17217.42
16917.02
16759.26
16699.74
16693.05
16706.76
16724.49
16741.33
16757.49
16773.88
16790.96
16809.45
16830.8
16856.72
16887.93
16923.52
16961.42
16999.51
17036.36
17070.84
17101.33
17125.5
17141.22
17147.65
17145.7
17138.06
17129.77
17128.81
17144.12
17180.62
17235.37
17299.83
17370.01
17437.83
17553.12
24011.12
22842.29
22062.54
21590.44
21231.66
20924.5
20616.92
20230.15
19741.63
19225.36
18794.07
18516.09
18387.83
18369.88
18437.27
18596.56
18861.78
19215.66
19589.69
19879.07
19983.81
19851.77
19500.13
19005.49
18470.01
17982.09
17590.03
17297.58
17078.1
16896.32
16725.94
16557.09
16393.87
16247.02
16126.75
16038.78
15983.66
15957.89
15955.63
15970.14
15995.13
16025.73
16058.94
16093.29
16128.24
16163.61
16199.32
16235.08
16270.05
16302.83
16332.71
16361.46
16394.19
16437.71
16497.19
16572.89
16657.48
16741.46
16801.23
16901.03
24006.58
22888.46
22082.11
21782.79
21536.74
21163.23
20744.14
20305.28
19795.79
19230.86
18719.86
18365.5
18181.51
18111.43
18104.81
18166.07
18339.66
18656.3
19088.19
19544.23
19904.37
20069.93
20001.86
19729.71
19330.65
18892.79
18481.59
18123.62
17810.88
17518.5
17224.28
16920.86
16617.23
16332.28
16085.7
15890.7
15750.88
15660.91
15609.73
15584.64
15574.63
15572.12
15572.91
15575.3
15579.33
15586.57
15599.61
15620.58
15649.42
15683.75
15720.91
15760.53
15805.13
15858.9
15925.9
16007.76
16097.86
16183.13
16230.19
16303.11
23663.54
22317.39
21336.63
20981.95
20889.07
20747.53
20480.4
20074.13
19514.97
18862.82
18264.36
17853.62
17657.92
17605.79
17611.56
17648.6
17755.7
17987.45
18356.12
18805.48
19228.31
19512.1
19585.67
19443.71
19140.66
18760.91
18382.3
18050.1
17770.73
17523.38
17280.1
17023.21
16753.14
16485.9
16244.12
16047.26
15905.05
15815.98
15770.13
15754.03
15755.08
15763.84
15774.03
15781.82
15785.66
15786.63
15788.08
15793.69
15804.95
15820.71
15839.08
15859.9
15885.35
15918.95
15964.52
16024.01
16091.61
16154.72
16185.1
16230.42
22729.2
21130.58
20107.95
19668.19
19732.27
19968.4
20042.45
19795.38
19241.95
18518.51
17820.93
17317.78
17074.56
17045.08
17132.74
17267.02
17438.75
17679.46
18011.46
18408.69
18792.72
19063.08
19141.83
19007.34
18701.35
18308.24
17919.37
17599.88
17372.13
17219.44
17104.39
16990.69
16858.46
16708.5
16556.56
16423.11
16323.94
16265.37
16244.64
16253.5
16282.11
16321.27
16362.9
16400.05
16427.69
16443.88
16450.01
16449.29
16444.43
16436.55
16426.1
16414.73
16406.01
16404.88
16415.79
16440.32
16473.4
16508.08
16529.34
16572.78
13700.2
15171.93
15710.42
16067.44
16720.83
17555.73
18192.11
18389.22
18151.82
17631.01
17020.86
16502.49
16201.19
16153.99
16315.71
16606.56
16965.21
17368.91
17813.5
18277.64
18702.92
19005.14
19108.87
18983.74
18661.61
18226.24
17781.89
17416.47
17175.64
17056.79
17021.99
17020.8
17011.77
16974.49
16909.97
16832.9
16761.45
16709.67
16684.48
16686.44
16711.9
16754.6
16806.57
16859.04
16903.91
16935.5
16951.55
16952.81
16941.59
16920.42
16891.68
16858.51
16825.81
16799.72
16784.7
16781.25
16785.94
16801.78
16824.59
16892.9
13077.71
14131.41
14752
15116.68
15677.71
16484.79
17238.68
17666.13
17700.69
17417.11
16935.73
16398.32
15958.09
15734.57
15766.47
16012.41
16397.44
16860.84
17368.6
17892.48
18383.49
18766.77
18963.49
18925.63
18661.79
18239.47
17762.61
17335.8
17031.37
16872.37
16835.77
16871.09
16923.98
16954.82
16946.48
16901.99
16836.25
16767.32
16710.4
16675.24
16665.82
16681.06
16715.9
16762.64
16812.68
16858.17
16893.45
16915.79
16925.31
16923.78
16913.41
16896.67
16877.1
16858.84
16844.07
16832.57
16825.07
16835.65
16865.3
16958.8
13132.41
13731.73
14341.7
14700.88
15040.84
15564.51
16199.81
16748.65
17070.12
17114.45
16893.53
16480.4
16011.76
15643.61
15480.88
15541.75
15781.12
16141.72
16585.98
17090.38
17619.13
18106.86
18467.41
18624.54
18545.48
18258.21
17843.53
17406.52
17040.95
16801.81
16695.68
16689.54
16730.96
16769.74
16772.53
16727.57
16641.12
16529.88
16413.33
16308.23
16225.91
16171.84
16146.51
16146.95
16167.92
16202.97
16245.6
16290.78
16335.87
16380.18
16423.34
16464.13
16500.51
16529.89
16549.35
16558.73
16564.61
16587.99
16628.5
16732.05
13267.2
13611.71
14266.21
14756.51
14961.32
15121.83
15462.58
15981.24
16512.35
16873.06
16954.42
16753.34
16366.29
15944.11
15622.58
15471.17
15491.71
15656.06
15943.35
16347.03
16853.2
17415.07
17947.69
18349.87
18541.38
18494.79
18245.89
17878.92
17494.73
17176.66
16967.84
16866.46
16837.32
16831.61
16805.9
16733.92
16609.37
16441.78
16249.1
16050.59
15862.31
15695.6
15557.72
15452.95
15383.06
15347.31
15342.76
15365.63
15412.69
15481.47
15568.67
15668.07
15769.73
15861.8
15935.06
15989.29
16034.35
16090.02
16147.22
16254.1
13391.25
13582.12
14239.01
14887.27
15107.89
15033.17
15074.71
15449.52
16049.45
16617.27
16945.74
16959.4
16705.72
16308.23
15905.95
15599.75
15431.48
15402.7
15509.51
15761.06
16167.64
16712
17329.76
17916.55
18360.34
18581.72
18561.92
18345.94
18021.66
17685.81
17412.22
17233.61
17141.2
17098.26
17059.44
16987.62
16863.01
16683.66
16460.12
16208.29
15944.08
15681.21
15431.53
15205.66
15012.97
14860.53
14752.46
14690.35
14674.4
14703.84
14775.35
14880.31
15003.51
15126.71
15236.65
15332.33
15421.15
15513.8
15588.61
15703.9
13515.19
13659.18
14245.47
14937.15
15257.83
15182.3
15086.87
15292.85
15804.51
16400.53
16845.67
17013.78
16901.3
16591.87
16207.16
15855.98
15600.5
15457.18
15425.84
15517.98
15759.01
16163.68
16706.04
17308.44
17859.64
18253.09
18425.46
18376.91
18165.67
17881.75
17613.11
17418.17
17313.94
17280.84
17278.73
17265.46
17210.48
17099.93
16934.12
16721.49
16473.19
16200.57
15915.06
15628.84
15354.61
15104.53
14888.97
14716.14
14592.46
14522.48
14507.15
14540.68
14609.44
14696.44
14789.87
14887.94
14990.96
15097.68
15177.02
15301.73
13701.5
13882.46
14348.46
14935.19
15346.9
15456.54
15427.66
15519.19
15839.75
16296.5
16709.87
16938.45
16933.26
16733.55
16433.12
16133.04
15899.57
15750.56
15676.06
15672.7
15761.42
15974.87
16325.71
16780.84
17260.66
17665.05
17911.61
17966.63
17854.73
17644.93
17421.76
17254.82
17178.94
17190.56
17258.27
17340.11
17399.4
17413.15
17372.58
17278.54
17136.25
16952.19
16733.39
16487.91
16225.29
15956.22
15692.06
15444.32
15224.33
15042.35
14905.47
14814.94
14765.73
14750.38
14764.22
14805.74
14868.04
14941.44
14994.96
15106.12
14000.02
14271.59
14611.06
15019.14
15468.97
15809.56
15956.83
16008.61
16125.93
16367.85
16658.95
16871.96
16919.97
16798.04
16571.94
16334.9
16158.13
16063.32
16031.07
16034.6
16070.33
16162.4
16340.36
16608.39
16928.72
17230.35
17437.76
17503.34
17427.03
17254.9
17059.15
16910.1
16852.7
16896.29
17019.04
17182.18
17346.08
17481.34
17572.26
17614.2
17608.59
17558.57
17466.91
17335.69
17167.21
16965.19
16735.73
16487.69
16232.17
15981.04
15745.06
15532.61
15350.18
15203.9
15098.78
15034.74
15001.67
14988.8
14977.53
15023.27
14488.07
14877.08
15109.73
15347.42
15766.65
16245.62
16544.69
16604.01
16573.49
16620.32
16776.31
16947.87
17019.04
16937.85
16738.29
16508.09
16334.25
16259.99
16275.21
16340.35
16422.19
16515.34
16636.94
16802.49
17002.36
17195.74
17325.73
17346.13
17244.62
17050.68
16825.04
16636.8
16539.41
16555.31
16674.16
16862.65
17079.6
17289.44
17469.31
17609.62
17709.86
17773.09
17801.56
17794.51
17748.65
17660.15
17527.15
17351.28
17137.6
16893.43
16627.68
16351.78
16080.93
15832.22
15618.1
15440.14
15290.53
15163.62
15063.06
14990.24
15707
15999.6
16043.02
16086.84
16363.87
16803.54
17139.41
17211.94
17104.85
17015.43
17056.53
17186.36
17279.23
17234.63
17039.53
16763.52
16509.88
16359.29
16337.31
16418.52
16556.6
16716.02
16884.78
17064.36
17249.22
17413.12
17512.41
17504.53
17370.3
17127.58
16828.91
16544.74
16340.18
16255.44
16297.09
16441.89
16649.49
16877.58
17093.69
17280.36
17433.62
17557.34
17656.69
17733.36
17784.2
17802.61
17781.35
17714.67
17598.96
17432.87
17218.72
16965.5
16690.3
16413.49
16149.26
15900.1
15664.22
15442.86
15264.12
15059.8
18294.62
17938.63
17572.99
17328
17331.39
17549.99
17782.98
17839.43
17708.17
17538.69
17480.53
17555.95
17662.18
17664.65
17490.92
17167.73
16795.44
16489.02
16324.29
16316.3
16433.31
16628.33
16864.31
17119.35
17375.11
17602.53
17758.1
17795.01
17683.03
17425.79
17065.75
16673.97
16328.93
16093.43
15998.33
16038.45