/*--------------------------------*- C++ -*----------------------------------*\
| =========                 |                                                 |
| \\      /  F ield         | OpenFOAM: The Open Source CFD Toolbox           |
|  \\    /   O peration     | Version:  2312                                  |
|   \\  /    A nd           | Website:  www.openfoam.com                      |
|    \\/     M anipulation  |                                                 |
\*---------------------------------------------------------------------------*/
FoamFile
{
    version     2.0;
    format      ascii;
    arch        "LSB;label=32;scalar=64";
    class       volScalarField;
    location    "4350";
    object      ILambda_8_0;
}
// * * * * * * * * * * * * * * * * * * * * * * * * * * * * * * * * * * * * * //

dimensions      [1 0 -3 0 0 0 0];

internalField   nonuniform List<scalar> 
12000
(
738.1379
737.8193
738.0574
738.2767
738.4622
738.4759
738.2537
737.7841
737.1343
736.4255
735.7942
735.351
735.1644
735.2814
735.7708
736.7512
738.3648
740.6816
743.5728
746.6298
749.2062
750.5997
750.3012
748.1833
744.5184
739.824
734.6556
729.512
724.9252
721.6321
720.6071
722.791
728.5894
737.4406
747.7791
757.4714
764.4712
767.3191
765.3112
758.4814
747.6332
734.4106
721.1
709.9304
702.1373
697.4768
694.6364
692.154
688.9061
683.7957
675.515
663.5186
649.6754
638.1813
632.1898
629.6098
623.5129
609.45
593.1007
586.7076
738.512
737.9439
738.1186
738.3384
738.6509
738.8856
738.9266
738.6865
738.1628
737.4406
736.667
735.9996
735.5569
735.3999
735.5594
736.0911
737.1127
738.7776
741.1685
744.1557
747.3086
749.9447
751.3294
750.9437
748.6765
744.8271
739.93
734.542
729.1673
724.3798
721.0072
720.1263
722.7208
729.1232
738.599
749.4019
759.3066
766.2807
768.9046
766.4561
758.919
747.1593
733.1013
719.422
708.5474
701.4865
697.4802
694.8696
692.3376
689.1525
684.2332
675.7077
662.5927
647.4029
635.902
631.991
631.7821
625.0087
606.6144
587.0186
738.8993
738.1676
738.2228
738.3296
738.5948
738.867
739.0299
738.9631
738.6097
737.9976
737.2376
736.4869
735.8969
735.5735
735.5738
735.9408
736.7494
738.1172
740.1462
742.8081
745.8315
748.6784
750.6601
751.1629
749.8732
746.8755
742.5693
737.4791
732.1148
727.0019
722.8431
720.6144
721.3853
725.8466
733.7995
743.9719
754.3453
762.8002
767.6676
767.921
763.1394
753.5889
740.514
726.2418
713.5722
704.5107
699.2224
696.2035
693.6258
690.5011
686.3734
680.0921
669.852
655.5323
640.9518
632.0868
630.7887
629.9652
618.5541
595.6093
739.3199
738.4515
738.4023
738.3941
738.5937
738.8749
739.1324
739.2259
739.0527
738.5831
737.8799
737.0808
736.3518
735.8347
735.619
735.7545
736.2954
737.3366
738.9976
741.336
744.2244
747.2684
749.8428
751.265
751.0341
749.008
745.4169
740.7171
735.4113
729.991
725.0528
721.4611
720.3252
722.6508
728.7875
738.024
748.6553
758.5246
765.685
768.7712
767.0053
760.1581
748.7913
734.6275
720.4355
709.0146
701.7395
697.8642
695.3665
692.6151
689.0802
684.2924
676.6466
664.4489
648.9585
635.6604
630.2992
631.4964
628.1153
609.265
739.7608
738.8035
738.6549
738.5133
738.6005
738.8281
739.1194
739.3352
739.3416
739.0535
738.4737
737.6983
736.8861
736.2059
735.7877
735.7085
736.0173
736.7798
738.0979
740.0659
742.6665
745.6595
748.5465
750.6675
751.4084
750.4199
747.7233
743.6463
738.6526
733.2161
727.8556
723.2984
720.5754
720.8378
724.8694
732.5517
742.6626
753.2064
762.0801
767.6244
768.7665
764.9131
756.0293
743.0681
728.2992
714.8189
705.1205
699.6657
696.8045
694.3201
691.106
687.0789
681.4874
672.2336
658.1433
642.209
631.2434
629.7719
632.1941
623.5893
740.1878
739.2005
738.9813
738.7165
738.6717
738.7995
739.0643
739.3472
739.5036
739.4065
738.9971
738.3135
737.4827
736.6786
736.0661
735.7621
735.8345
736.3377
737.3495
738.9677
741.2399
744.0531
747.0515
749.6573
751.2205
751.2373
749.5215
746.2295
741.7389
736.4935
730.9603
725.7465
721.7557
720.1571
722.0284
727.7917
736.796
747.3799
757.4245
765.0235
768.8267
767.9748
762.0044
751.1417
736.8677
722.0245
709.8258
702.1152
698.2634
695.9181
693.0903
689.3854
684.8894
678.2332
667.0366
651.2809
635.8953
628.374
630.9704
633.0462
740.5774
739.6166
739.3634
739.0006
738.8215
738.8177
739.0007
739.2881
739.5461
739.6242
739.4111
738.8799
738.1051
737.2406
736.4688
735.9464
735.7772
736.025
736.7517
738.041
739.968
742.5108
745.4491
748.3243
750.5189
751.4419
750.7294
748.3476
744.5438
739.7024
734.2449
728.6802
723.7664
720.5949
720.3905
724.0097
731.3937
741.3637
751.9607
761.1245
767.2366
769.2093
766.3037
758.1891
745.488
730.3341
716.0573
705.6564
699.979
697.2845
694.9111
691.533
687.439
682.4224
674.3046
660.9581
644.1209
630.4362
627.4897
635.1449
740.9088
740.0228
739.7781
739.3558
739.0599
738.9125
738.9714
739.2013
739.4987
739.7119
739.6937
739.3555
738.7066
737.8569
736.9819
736.2661
735.8553
735.843
736.293
737.2745
738.8645
741.0941
743.8518
746.808
749.4275
751.1002
751.3365
749.9229
746.9479
742.7007
737.5465
731.912
726.4145
722.0112
719.9466
721.3736
726.7745
735.5412
746.0492
756.2264
764.2228
768.7185
768.7873
763.7453
753.4825
739.1983
723.7401
710.7025
702.4552
698.5912
696.4574
693.6169
689.711
685.3783
679.5815
669.5064
654.1378
637.207
626.4141
630.102
741.1688
740.3911
740.1961
739.7604
739.3812
739.0987
739.0099
739.1302
739.4006
739.6906
739.8386
739.7078
739.2399
738.4827
737.5784
736.7176
736.082
735.8058
735.9755
736.6579
737.9234
739.8255
742.3284
745.2188
748.069
750.3062
751.3755
750.9175
748.8577
745.3615
740.7175
735.2733
729.516
724.2414
720.6182
719.9556
723.1748
730.2553
740.0472
750.6352
760.0264
766.6656
769.4601
767.5291
760.2525
747.9152
732.4685
717.4087
706.2267
700.2364
697.6964
695.4812
691.957
687.7607
683.2346
676.1124
663.6882
647.0365
631.1867
623.5411
741.3526
740.6984
740.5881
740.1861
739.7684
739.3781
739.1392
739.1143
739.2967
739.5954
739.8581
739.92
739.6637
739.0664
738.215
737.2792
736.4585
735.9278
735.8113
736.192
737.1388
738.7119
740.9202
743.6418
746.5591
749.173
750.9192
751.3399
750.215
747.5759
743.6148
738.5957
732.8827
727.0988
722.2708
719.7411
720.743
725.7991
734.3152
744.6942
754.932
763.2715
768.443
769.4487
765.3769
755.7858
741.587
725.5825
711.6872
702.8121
698.8703
696.9593
694.1258
690.0076
685.8673
680.8906
671.6201
656.8726
640.274
624.8434
741.4651
740.9291
740.9278
740.6017
740.195
739.7388
739.3685
739.1839
739.2309
739.4702
739.7809
739.9942
739.9506
739.5599
738.839
737.9117
736.9697
736.2156
735.8161
735.8874
736.5115
737.7533
739.6462
742.1324
744.9912
747.8129
750.0655
751.2413
751.0073
749.2682
746.1129
741.7172
736.3266
730.3868
724.736
720.6469
719.5365
722.3852
729.1771
738.7584
749.26
758.7984
765.9269
769.5557
768.6375
762.2475
750.3441
734.6918
718.8971
706.8924
700.5032
698.0823
696.0245
692.2956
687.9884
684.1668
677.9875
665.5697
649.2656
634.527
741.5142
741.0766
741.195
740.9769
740.6291
740.1576
739.6925
739.3562
739.2403
739.362
739.6484
739.9509
740.0917
739.9257
739.3968
738.5632
737.582
736.6607
736.0009
735.7608
736.0519
736.9534
738.5151
740.7225
743.432
746.3226
748.9191
750.7037
751.267
750.4075
748.1175
744.4899
739.6609
733.9001
727.8227
722.5433
719.538
720.1405
724.8921
733.164
743.3546
753.5526
762.158
767.997
769.9852
766.9354
758.0593
744.0059
727.5289
712.8022
703.2489
699.1783
697.4927
694.5994
690.0752
686.2119
682.6446
673.9152
657.6181
642.8577
741.5148
741.1433
741.3786
741.2869
741.0379
740.6034
740.0928
739.6335
739.3502
739.3136
739.5082
739.8267
740.098
740.1436
739.8421
739.1766
738.246
737.2358
736.3635
735.8271
735.7784
736.3246
737.5361
739.4309
741.9247
744.7757
747.575
749.8218
751.0617
751.0106
749.5799
746.7959
742.7087
737.4259
731.3188
725.2654
720.6759
719.1182
721.6417
728.1927
737.5504
747.8723
757.4388
764.9968
769.4928
769.6646
764.2163
752.7763
736.9636
720.4869
707.6604
700.8329
698.5516
696.6851
692.5298
687.7313
685.0051
681.0903
667.9553
647.6971
741.4869
741.1394
741.4763
741.5145
741.3921
741.042
740.5407
740.0037
739.5717
739.3585
739.4078
739.668
739.9989
740.214
740.1438
739.6983
738.9031
737.8954
736.8834
736.0901
735.7091
735.8873
736.7257
738.2742
740.4976
743.2228
746.1083
748.6855
750.477
751.1346
750.5034
748.5654
745.3201
740.7515
734.9901
728.6132
722.836
719.319
719.5418
724.0568
732.1315
742.0902
752.1174
760.861
767.3409
770.3925
768.4663
760.3536
746.4582
729.5351
713.997
703.7378
699.5419
698.2147
695.2908
689.8483
685.6681
684.5739
678.7588
657.6804
741.4487
741.0815
741.4949
741.6522
741.6689
741.4398
741.0013
740.442
739.8997
739.5161
739.3877
739.5247
739.8373
740.157
740.2903
740.0867
739.494
738.5815
737.5205
736.5362
735.8541
735.6641
736.1083
737.2748
739.1754
741.6995
744.5724
747.3669
749.5964
750.8586
750.9381
749.7871
747.3958
743.685
738.5859
732.3444
725.8563
720.7021
718.6678
720.9134
727.3122
736.4821
746.539
755.9664
763.8326
769.2169
770.6072
766.2153
755.2742
739.2983
722.1408
708.463
701.1473
699.1017
697.7069
693.0616
686.7764
684.3114
684.6965
673.898
741.4189
740.9894
741.4484
741.702
741.8548
741.7689
741.4387
740.9148
740.3152
739.7904
739.4762
739.4431
739.6634
740.0096
740.2914
740.3184
739.9681
739.2311
738.2187
737.1312
736.2065
735.6711
735.7121
736.4635
737.9881
740.2377
743.0065
745.9173
748.4865
750.2622
750.9621
750.5064
748.9044
746.0849
741.8624
736.1755
729.5098
723.1735
719.0678
718.8992
723.2582
731.2402
740.9775
750.6988
759.3859
766.4107
770.6032
769.9673
762.733
749.0174
731.6328
715.2462
704.1877
699.8219
699.1095
696.5891
689.9167
683.7365
684.24
686.0412
741.413
740.8839
741.3559
741.6745
741.9465
742.0096
741.8198
741.3846
740.7877
740.1692
739.6863
739.46
739.5275
739.82
740.176
740.3918
740.2908
739.7861
738.9134
737.8229
736.739
735.9086
735.5595
735.8752
736.9741
738.8748
741.4462
744.3737
747.1922
749.4072
750.6564
750.806
749.885
747.8882
744.6212
739.8062
733.4968
726.555
720.745
718.1534
720.1377
726.501
735.5923
745.355
754.4569
762.4254
768.6455
771.3881
768.2414
757.9047
741.7785
723.9092
709.2832
701.3191
699.5289
699.0958
694.5103
686.0316
681.672
687.5357
741.4439
740.7846
741.2383
741.5869
741.9504
742.1525
742.1191
741.8146
741.2797
740.6271
740.0147
739.5977
739.4737
739.6407
739.988
740.3261
740.4483
740.2016
739.5408
738.5465
737.4037
736.3564
735.6592
735.5408
736.1773
737.6581
739.9344
742.7706
745.7428
748.3296
750.0816
750.7756
750.4282
749.1204
746.7506
742.9667
737.4641
730.5586
723.6085
718.7966
718.1633
722.4209
730.4597
740.0743
749.4081
757.8076
765.1824
770.5202
771.3556
765.193
751.7511
733.9139
716.6164
704.5761
699.8373
699.9158
698.5867
691.2821
682.0131
682.3182
741.5209
740.7081
741.1166
741.4601
741.8807
742.1987
742.3205
742.1734
741.752
741.1285
740.4423
739.8627
739.5339
739.5213
739.7794
740.1583
740.4487
740.4517
740.0468
739.2344
738.1377
736.9722
735.9984
735.4778
735.639
736.642
738.5269
741.1527
744.1652
747.0461
749.2664
750.4824
750.6409
749.8795
748.2484
745.4756
741.0607
734.7949
727.4218
720.8625
717.5766
719.2468
725.6739
734.8594
744.3971
753.0324
760.8438
767.7396
771.9015
770.2109
760.6643
744.4753
725.8966
710.1979
701.3009
699.5822
700.5578
697.1303
686.8398
678.3023
741.6509
740.6674
741.0094
741.316
741.7572
742.1588
742.4191
742.4383
742.1681
741.6331
740.9377
740.2441
739.7244
739.5024
739.6037
739.9378
740.3204
740.5327
740.3944
739.825
738.8711
737.6959
736.5413
735.6823
735.3873
735.8803
737.2897
739.5816
742.4999
745.5697
748.2124
749.9527
750.6067
750.2951
749.212
747.2818
744.0151
738.8326
731.7916
724.2149
718.5647
717.3217
721.4594
729.6998
739.371
748.3385
756.2518
763.7128
770.0921
772.5221
767.6533
754.6599
736.4592
718.2286
704.9809
699.4905
700.2885
700.951
694.1464
680.3708
741.8384
740.6724
740.932
741.1752
741.6023
742.0502
742.4204
742.5977
742.4988
742.1006
741.4614
740.7165
740.0442
739.6104
739.5085
739.7191
740.1072
740.4625
740.5676
740.2708
739.5365
738.4572
737.232
736.1262
735.4291
735.4142
736.2907
738.1343
740.8096
743.9291
746.9133
749.1751
750.3595
750.4786
749.7953
748.4667
746.2011
742.294
736.2214
728.5035
721.1405
716.9947
718.213
724.7308
734.1942
743.6709
751.7977
759.208
766.541
772.0866
772.0166
763.478
747.3978
728.2005
711.3448
701.1544
699.0659
701.5685
700.3776
688.3722
742.0864
740.7298
740.8961
741.0554
741.4381
741.8947
742.3387
742.6511
742.7252
742.496
741.971
741.2434
740.4759
739.8551
739.5301
739.5551
739.8625
740.2773
740.5726
740.5441
740.0775
739.1843
738.0008
736.7586
735.7452
735.2636
735.5871
736.8937
739.1794
742.1813
745.378
748.1207
749.8808
750.4843
750.1464
749.2014
747.6591
744.9498
740.2223
733.2
725.055
718.4674
716.4258
720.33
728.8517
738.7874
747.5119
754.8268
762.1083
769.3441
773.4016
770.0108
757.6773
739.2948
720.2044
705.5526
698.8015
699.8425
702.8653
698.1354
742.3969
740.8447
740.91
740.9707
741.2845
741.7156
742.1941
742.6081
742.8402
742.7932
742.4264
741.7821
740.988
740.2285
739.689
739.4907
739.6419
740.0263
740.4359
740.6388
740.4549
739.8134
738.7734
737.5121
736.2913
735.4203
735.2141
735.9351
737.7066
740.4141
743.6494
746.7722
749.1204
750.2977
750.354
749.6747
748.5613
746.7684
743.4385
737.7162
729.8016
721.6553
716.5072
717.0767
723.6137
733.4878
743.1126
750.789
757.6202
765.1348
771.9535
773.5906
766.2467
750.4944
730.8792
712.876
701.0483
697.9765
701.5969
704.2356
742.7708
741.0207
740.9792
740.9313
741.1581
741.5347
742.0101
742.4864
742.8477
742.9775
742.7948
742.2892
741.5399
740.7068
739.9882
739.5571
739.4972
739.7658
740.2007
740.5705
740.6506
740.2949
739.4797
738.3108
737.0033
735.8487
735.1778
735.3121
736.4852
738.7358
741.8099
745.1492
748.0314
749.8544
750.423
750.0224
749.1326
747.8959
745.7315
741.5573
734.7255
726.1422
718.5922
715.5731
719.0588
727.8475
738.2248
746.887
753.578
760.4551
768.3378
773.991
772.1902
760.7016
742.3984
722.653
706.4745
698.0483
698.8708
704.4785
743.2075
741.2609
741.1078
740.9446
741.0714
741.3712
741.8101
742.3085
742.7613
743.0462
743.0539
742.7258
742.0865
741.2533
740.4133
739.7691
739.4694
739.5516
739.9202
740.3734
740.6681
740.599
740.0612
739.0799
737.8056
736.4898
735.4536
735.0484
735.5903
737.2584
739.9729
743.319
746.602
749.0783
750.2873
750.2858
749.5626
748.5773
747.1854
744.4457
739.1983
731.2635
722.4331
716.2084
715.9264
722.3318
732.6693
742.6438
749.9895
756.1269
763.5866
771.5467
774.9186
768.8691
753.6547
733.9728
714.9543
701.1744
696.9846
701.6666
743.704
741.5679
741.2988
741.0156
741.0336
741.2401
741.6155
742.0986
742.6016
743.0078
743.1933
743.0619
742.5843
741.8238
740.9343
740.1229
739.5847
739.433
739.6522
740.0957
740.5312
740.7167
740.4767
739.7531
738.6196
737.2693
735.9902
735.1338
735.0661
736.0793
738.2648
741.3911
744.8742
747.9221
749.8489
750.4146
749.9456
749.0543
748.0371
746.3621
742.7815
736.2859
727.4328
718.9772
714.858
717.7177
726.6796
737.6182
746.413
752.5077
758.7907
767.1238
774.337
774.1603
763.5723
745.6661
725.7401
707.8629
697.2326
698.7737
744.2545
741.9433
741.5546
741.1483
741.0511
741.1529
741.4443
741.8802
742.3927
742.8792
743.2148
743.2792
742.9964
742.3719
741.51
740.5974
739.8513
739.4471
739.4521
739.7941
740.2805
740.6602
740.7052
740.279
739.3724
738.1066
736.7166
735.5278
734.9215
735.267
736.8045
739.4995
742.9423
746.3928
749.0252
750.3029
750.2669
749.4844
748.5658
747.4957
745.3116
740.6065
732.8096
723.4417
716.1452
714.8488
720.9354
731.7192
742.2162
749.3761
754.7334
761.9148
770.924
776.0771
771.2694
756.613
737.4697
717.9776
701.26
695.6813
744.8484
742.3867
741.8769
741.3456
741.1287
741.1179
741.3105
741.674
742.1594
742.6833
743.1308
743.3717
743.2958
742.8546
742.0933
741.1573
740.2591
739.6144
739.366
739.5268
739.9684
740.4604
740.7466
740.6246
740.0032
738.923
737.5514
736.1658
735.1311
734.8538
735.6864
737.7806
740.9377
744.5576
747.7826
749.8401
750.4329
749.9091
748.9936
748.1348
746.883
743.8859
737.8178
728.8544
719.6027
714.3309
716.3777
725.3766
736.9481
746.0684
751.6099
757.0956
765.6975
774.547
776.0497
766.0918
748.691
729.8096
710.4937
694.3973
745.4735
742.8946
742.2661
741.6101
741.2698
741.1407
741.2244
741.4968
741.9248
742.4456
742.9614
743.3456
743.4685
743.2371
742.6371
741.7573
740.7807
739.9369
739.4265
739.3476
739.6534
740.1631
740.6205
740.7774
740.4678
739.6491
738.4112
736.9674
735.64
734.8341
734.9702
736.3543
739.0068
742.5322
746.1498
748.9516
750.32
750.2702
749.4327
748.554
747.751
746.0748
741.9283
734.3791
724.62
716.3089
713.8892
719.4728
730.6509
741.8289
748.9628
753.4271
760.041
770.0717
777.2876
773.6152
758.8815
740.8
722.9448
700.8592
746.1123
743.46
742.7204
741.9432
741.4776
741.2259
741.1934
741.3615
741.7088
742.1911
742.7314
743.2169
743.5129
743.4965
743.0996
742.3482
741.3758
740.3979
739.6485
739.2996
739.394
739.824
740.3638
740.7452
740.7415
740.2301
739.2188
737.846
736.3722
735.1682
734.676
735.3103
737.2908
740.4616
744.2126
747.62
749.82
750.4535
749.8845
748.9413
748.2152
747.3437
744.9058
739.3086
730.3542
720.422
713.9885
715.0666
723.9583
736.2263
745.8956
750.9362
755.3154
763.8918
774.6449
778.2761
768.3606
750.3142
733.8921
715.6637
746.7442
744.0713
743.2352
742.3449
741.7543
741.3769
741.223
741.2775
741.5271
741.9424
742.4672
743.0084
743.4395
743.6226
743.4488
742.8828
741.9958
740.9644
740.0277
739.4104
739.242
739.503
740.0267
740.5542
740.8196
740.6295
739.9092
738.7169
737.2394
735.7884
734.7855
734.7
735.9096
738.4999
742.0993
745.8876
748.8677
750.3333
750.2712
749.3767
748.5301
747.9741
746.7805
743.1961
735.9636
725.9304
716.669
713.0398
717.9394
729.4536
741.5124
748.8576
752.2873
757.8233
768.7225
778.7086
776.6108
760.2389
741.6576
729.9368
747.3463
744.7121
743.8016
742.8125
742.1012
741.5966
741.3173
741.2518
741.3916
741.7184
742.1938
742.7467
743.2675
743.6186
743.6654
743.3208
742.5898
741.5916
740.5412
739.6894
739.2369
739.2579
739.6674
740.2465
740.7171
740.8304
740.4345
739.5054
738.1506
736.6079
735.2451
734.5333
734.9503
736.794
739.9647
743.8489
747.4513
749.8033
750.4743
749.8475
748.8643
748.262
747.7613
745.8801
740.7884
731.9348
721.4206
713.8162
713.76
722.3739
735.4154
745.9661
750.6732
753.527
761.4245
774.2857
781.3138
771.5609
750.0078
736.2731
747.8949
745.3617
744.407
743.3399
742.5173
741.8873
741.4799
741.2893
741.3112
741.5339
741.9332
742.4586
743.0222
743.4987
743.7439
743.6334
743.1109
742.2276
741.1508
740.1262
739.4017
739.1385
739.3466
739.8757
740.466
740.8357
740.7658
740.1521
739.0212
737.5306
735.9734
734.778
734.4581
735.4681
737.974
741.6422
745.6153
748.7937
750.3624
750.2719
749.2931
748.4585
748.1436
747.4374
744.4392
737.5925
727.3932
717.241
712.2995
716.2812
728.0232
741.2157
749.1954
751.5735
755.2826
766.3967
779.9948
781.4053
762.7864
738.9934
748.3672
745.9961
745.0343
743.917
742.9991
742.2494
741.7135
741.3943
741.2921
741.4
741.7034
742.169
742.7314
743.2853
743.6916
743.8053
743.5207
742.8206
741.807
740.6919
739.74
739.1809
739.1216
739.5021
740.1126
740.6666
740.8943
740.6168
739.7806
738.4623
736.8719
735.3645
734.4305
734.6087
736.2861
739.4378
743.4613
747.2855
749.8137
750.5203
749.804
748.7404
748.2378
748.1085
746.8055
742.2741
733.6258
722.6426
713.8632
712.4634
720.5305
734.3637
746.2411
751.0364
752.0362
758.1858
772.7175
784.8868
777.6678
748.6547
748.7432
746.5887
745.6624
744.5293
743.5391
742.6812
742.0198
741.5701
741.3393
741.3247
741.5181
741.8991
742.4224
743.0058
743.5264
743.8354
743.7938
743.324
742.4555
741.3427
740.2354
739.4032
739.0399
739.1871
739.7134
740.3599
740.8295
740.879
740.3768
739.3206
737.8376
736.1953
734.8172
734.2518
735.0324
737.4215
741.1465
745.3242
748.739
750.4353
750.3023
749.1914
748.3187
748.2216
748.0122
745.6408
739.2683
729.0401
718.0961
711.7473
714.4989
726.2242
740.7632
749.9865
751.59
752.7293
762.7511
779.8932
787.3485
767.7779
749.0071
747.113
746.2677
745.1583
744.126
743.1778
742.3986
741.8192
741.4568
741.3142
741.3878
741.6659
742.1195
742.689
743.2739
743.7353
743.9192
743.702
743.0432
742.025
740.8528
739.8033
739.1341
738.9872
739.3304
739.9652
740.5974
740.9366
740.7783
740.042
738.776
737.1606
735.5284
734.3762
734.2955
735.769
738.8697
743.0307
747.1108
749.862
750.6237
749.7882
748.5819
748.1252
748.349
747.6443
743.7352
735.4161
724.1245
714.226
711.2723
718.4052
732.8978
746.5617
752.1232
751.2262
754.4508
769.2495
786.8919
786.3006
749.1492
747.5438
746.8249
745.7819
744.7439
743.7306
742.8471
742.1427
741.6478
741.3731
741.3199
741.4823
741.8432
742.3623
742.9632
743.5266
743.9004
743.9328
743.5246
742.6818
741.543
740.3583
739.4176
738.9481
739.0258
739.5415
740.2384
740.8045
740.9719
740.5834
739.6111
738.154
736.4504
734.9073
734.0933
734.6148
736.8439
740.5972
744.9906
748.6902
750.5647
750.3978
749.1077
748.1245
748.1937
748.4722
746.7604
740.9487
730.8513
719.2802
711.4986
712.6787
723.986
739.9589
751.1417
752.5382
750.596
758.1507
777.8691
793.5448
749.1672
747.8597
747.3088
746.3754
745.3731
744.3268
743.3594
742.5396
741.9143
741.5053
741.3201
741.358
741.6095
742.0495
742.6238
743.2376
743.7532
744.0099
743.8668
743.2595
742.248
741.027
739.8822
739.099
738.8561
739.153
739.8052
740.512
740.961
740.9215
740.2885
739.0861
737.4662
735.7337
734.3772
734.0262
735.2572
738.2603
742.5379
746.9002
749.9346
750.7996
749.8373
748.4241
747.9365
748.4709
748.3682
745.1297
737.2571
725.8487
714.9689
710.3098
716.04
730.8745
746.7454
753.9777
751.3733
750.7165
765.115
789.1803
749.0664
748.0447
747.6962
746.9132
745.9907
744.9492
743.9252
743.0059
742.2567
741.7136
741.3932
741.2999
741.4304
741.77
742.2829
742.8988
743.5029
743.9416
744.0521
743.7141
742.9084
741.754
740.4982
739.4481
738.8653
738.8635
739.3598
740.1024
740.7634
741.0487
740.7746
739.8904
738.4722
736.73
735.0458
733.9921
734.2341
736.2565
739.992
744.5914
748.6181
750.7388
750.5768
749.0796
747.9074
748.069
748.8064
747.7722
742.5911
732.7791
720.7938
711.6488
710.9382
721.2643
738.5735
752.5725
754.6778
749.0963
753.1602
777.5959
748.8588
748.0902
747.9676
747.3702
746.5716
745.5773
744.5303
743.5342
742.6731
741.9997
741.5425
741.3136
741.3148
741.5388
741.9636
742.5404
743.1802
743.7483
744.0792
744.0161
743.4705
742.4773
741.217
739.9803
739.0787
738.7299
738.9696
739.6319
740.4108
740.9708
741.0514
740.5229
739.3891
737.7793
735.9705
734.4321
733.8133
734.772
737.6253
741.9775
746.6272
750.0022
751.0401
749.9736
748.3036
747.6978
748.4784
748.9645
746.4306
739.1023
727.7742
716.1283
709.7162
713.527
728.1135
746.4889
756.775
753.0688
746.7543
760.9361
748.5637
747.9957
748.109
747.724
747.0903
746.1875
745.1567
744.113
743.1582
742.363
741.7707
741.4033
741.2691
741.3669
741.684
742.1888
742.8168
743.4587
743.9613
744.1527
743.8926
743.1354
741.9775
740.658
739.4985
738.7944
738.7009
739.1669
739.9499
740.7067
741.1133
740.9559
740.1614
738.7878
737.0228
735.222
733.9481
733.9056
735.683
739.3454
744.1179
748.4939
750.9302
750.8369
749.1329
747.7016
747.8672
749.0144
748.661
744.161
734.7675
722.6074
712.2876
709.4724
718.0898
736.2218
753.9553
758.7686
749.249
745.2601
748.2086
747.7699
748.1134
747.9561
747.522
746.7544
745.7827
744.7268
743.7031
742.8004
742.0785
741.5723
741.2987
741.2624
741.458
741.8661
742.4428
743.1053
743.7233
744.1281
744.1496
743.6753
742.7132
741.4248
740.1013
739.0774
738.6113
738.7798
739.4423
740.2912
740.9662
741.1728
740.7517
739.6878
738.0942
736.226
734.5297
733.6583
734.3315
736.9891
741.3622
746.2796
750.0351
751.3219
750.2006
748.2485
747.4395
748.3859
749.4313
747.62
740.9053
729.8311
717.6926
709.6535
711.1177
724.5186
745.0892
760.1902
757.7079
741.3987
747.8247
747.4309
747.9819
748.0537
747.8447
747.2527
746.3843
745.3563
744.2948
743.3051
742.4644
741.8226
741.4076
741.2317
741.2957
741.5893
742.084
742.7209
743.3968
743.961
744.2345
744.0588
743.3617
742.2134
740.8402
739.5732
738.7399
738.5402
738.9614
739.7768
740.6308
741.1666
741.1333
740.4316
739.1034
737.3219
735.4217
733.95
733.6325
735.1432
738.6822
743.58
748.3024
751.1102
751.1605
749.277
747.535
747.6129
749.1068
749.4262
745.6393
736.7555
724.6376
713.435
708.5366
714.7579
732.5645
753.9892
763.9383
751.2876
747.447
747.0053
747.7243
748.0117
748.041
747.658
746.9362
745.9794
744.9168
743.8669
742.924
742.1542
741.5986
741.2795
741.2048
741.3709
741.7609
742.3348
743.0163
743.6802
744.1574
744.2663
743.8721
742.9541
741.651
740.2484
739.1004
738.505
738.5853
739.2335
740.1475
740.9433
741.287
740.9824
739.991
738.4136
736.4919
734.6547
733.5501
733.9405
736.3731
740.7153
745.8636
750.0159
751.6194
750.508
748.2725
747.1856
748.2098
749.7757
748.7004
742.6442
731.9417
719.5724
710.1956
709.1768
720.3924
741.807
761.9898
764.1256
747.1109
746.5274
747.3593
747.8329
748.0993
747.9493
747.4131
746.5716
745.5487
744.4716
743.4492
742.5643
741.8731
741.4098
741.1911
741.2205
741.4892
741.9717
742.6143
743.3201
743.9421
744.2972
744.2109
743.5847
742.4604
741.0463
739.6767
738.7081
738.3862
738.7435
739.5784
740.5286
741.2038
741.3093
740.7101
739.429
737.6297
735.6357
733.9818
733.4045
734.6436
738.0236
742.998
748.0459
751.261
751.5277
749.5096
747.4238
747.3238
749.0908
750.0723
747.0293
738.711
726.7864
715.0113
708.2854
711.7465
727.9338
751.918
769.2688
746.85
746.0372
746.9138
747.5292
748.0155
748.1099
747.7913
747.1075
746.1679
745.1011
744.0281
743.0471
742.2301
741.6249
741.2593
741.145
741.2805
741.6507
742.2195
742.916
743.6214
744.1677
744.365
744.0578
743.197
741.8944
740.4241
739.1535
738.418
738.3906
739.0047
739.9731
740.8934
741.3893
741.2184
740.3096
738.7485
736.7705
734.7968
733.4726
733.5899
735.785
740.0572
745.3958
749.9436
751.9165
750.8835
748.3811
746.953
747.9606
749.9985
749.6764
744.3181
734.051
721.6481
711.303
707.9808
716.3696
737.4533
763.8616
746.6905
745.5775
746.422
747.1215
747.7939
748.1296
748.0506
747.5624
746.7496
745.7346
744.6452
743.593
742.6656
741.9254
741.413
741.1501
741.1435
741.3862
741.8548
742.5
743.2314
743.9066
744.3408
744.3465
743.8006
742.7152
741.2755
739.8126
738.7061
738.2467
738.5176
739.3522
740.3916
741.2151
741.4792
741.0018
739.7771
737.9581
735.8657
734.0326
733.2057
734.1765
737.378
742.3904
747.7369
751.3792
751.9257
749.8263
747.3792
747.0143
748.9706
750.6001
748.3409
740.6233
728.9615
716.8858
708.7922
709.5499
723.2659
750.0213
746.6511
745.1905
745.9231
746.639
747.4482
748.0055
748.1752
747.9131
747.2687
746.3488
745.2815
744.1888
743.1722
742.3092
741.654
741.2406
741.0852
741.1888
741.5379
742.0993
742.8074
743.5494
744.1604
744.4448
744.2295
743.4375
742.1516
740.6285
739.2415
738.3588
738.2038
738.7593
739.7638
740.806
741.4687
741.4556
740.6499
739.113
737.0745
734.9576
733.4144
733.2643
735.2181
739.3959
744.8917
749.8266
752.209
751.3195
748.5769
746.7539
747.6463
750.099
750.5559
745.9482
736.1301
723.7744
712.87
707.8572
713.2469
732.7288
746.7401
744.9148
745.4587
746.1181
747.0008
747.7436
748.156
748.1401
747.7007
746.919
745.9155
744.8176
743.7389
742.7709
741.982
741.4195
741.111
741.0668
741.282
741.7352
742.3806
743.1333
743.8566
744.3659
744.4639
744.0054
742.9729
741.5248
739.982
738.74
738.131
738.2919
739.1005
740.2135
741.1882
741.6312
741.3034
740.1559
738.3229
736.1249
734.1036
733.0247
733.7274
736.7396
741.7638
747.3869
751.4704
752.353
750.2266
747.4085
746.6928
748.7439
751.0049
749.5959
742.5285
731.1005
718.8333
710.0065
708.7596
718.4324
746.9527
744.7811
745.0698
745.5999
746.4829
747.3589
747.9917
748.2288
748.0231
747.4201
746.5234
745.4596
744.351
743.3016
742.3937
741.6881
741.2254
741.027
741.0971
741.4239
741.9763
742.693
743.4669
744.1373
744.5056
744.3843
743.6708
742.4176
740.8591
739.3668
738.335
738.0354
738.5051
739.5204
740.6728
741.5114
741.6821
741.0098
739.5171
737.4207
735.1504
733.3765
732.9529
734.6591
738.7257
744.3552
749.6725
752.502
751.8198
748.8676
746.5989
747.2683
750.0627
751.3322
747.5764
738.2312
725.8187
714.4867
708.5838
710.7548
747.2697
744.8087
744.793
745.1276
745.9326
746.8761
747.6897
748.1712
748.2174
747.8282
747.0807
746.0926
744.9905
743.8887
742.8821
742.0449
741.4312
741.075
740.9914
741.1777
741.6143
742.258
743.0286
743.7949
744.3741
744.5623
744.1956
743.228
741.7891
740.1833
738.8139
738.0483
738.0772
738.8307
739.9933
741.1129
741.7504
741.6031
740.5647
738.7357
736.431
734.2079
732.8627
733.2864
736.0961
741.1115
746.9962
751.5385
752.8154
750.721
747.5271
746.3713
748.4048
751.2614
750.788
744.4953
733.2668
720.5581
711.0532
708.4786
747.657
745.0025
744.6569
744.7431
745.3927
746.3278
747.2668
747.9673
748.2698
748.1216
747.5626
746.6928
745.6368
744.5162
743.4368
742.4854
741.7289
741.2152
740.9717
741.0064
741.3096
741.8518
742.575
743.3768
744.1011
744.5485
744.5206
743.8923
742.6864
741.1112
739.5291
738.352
737.8956
738.2535
739.2491
740.4911
741.5053
741.8819
741.3783
739.9617
737.8221
735.3932
733.3718
732.6571
734.0994
738.0351
743.7779
749.4777
752.7969
752.3923
749.2692
746.5072
746.8381
749.8786
751.9708
749.1974
740.4607
727.8562
715.6126
708.8549
748.0668
745.3506
744.6784
744.4831
744.9078
745.7541
746.7493
747.6261
748.1737
748.2824
747.9457
747.2357
746.2672
745.165
744.0437
743.0009
742.1159
741.4497
741.0437
740.9182
741.0739
741.4929
742.1336
742.9196
743.7242
744.3677
744.6421
744.3685
743.4753
742.0624
740.4125
738.9285
738.0055
737.8849
738.5536
739.736
740.9842
741.823
741.8849
740.9938
739.1992
736.7983
734.3638
732.7318
732.855
735.4398
740.4221
746.5544
751.5775
753.3145
751.3208
747.7532
746.0679
747.9632
751.3551
751.8705
746.5184
735.6327
722.2079
711.1716
748.4405
745.823
744.8597
744.3751
744.5207
745.1994
746.1721
747.1663
747.9305
748.2983
748.209
747.6969
746.858
745.8139
744.6854
743.5793
742.5858
741.7781
741.2114
740.9201
740.9171
741.1953
741.7266
742.4548
743.2815
744.0545
744.5754
744.6381
744.0988
742.9523
741.3787
739.7249
738.4121
737.7928
738.0161
738.9601
740.2637
741.4434
742.0404
741.7398
740.439
738.2838
735.7014
733.4183
732.3884
733.5401
737.3162
743.1472
749.2302
753.088
753.043
749.7967
746.4951
746.3685
749.5554
752.4547
750.7429
742.7963
730.1164
716.2492
748.7118
746.3721
745.1863
744.434
744.2682
744.7095
745.5769
746.616
747.5508
748.1635
748.3357
748.0537
747.3847
746.44
745.3421
744.2051
743.1285
742.1963
741.4765
741.018
740.8477
740.9708
741.3711
742.0084
742.8081
743.6473
744.3494
744.7046
744.523
743.7106
742.3382
740.6637
739.0818