/*--------------------------------*- C++ -*----------------------------------*\
| =========                 |                                                 |
| \\      /  F ield         | OpenFOAM: The Open Source CFD Toolbox           |
|  \\    /   O peration     | Version:  2312                                  |
|   \\  /    A nd           | Website:  www.openfoam.com                      |
|    \\/     M anipulation  |                                                 |
\*---------------------------------------------------------------------------*/
FoamFile
{
    version     2.0;
    format      ascii;
    arch        "LSB;label=32;scalar=64";
    class       volScalarField;
    location    "4350";
    object      k;
}
// * * * * * * * * * * * * * * * * * * * * * * * * * * * * * * * * * * * * * //

dimensions      [0 2 -2 0 0 0 0];

internalField   nonuniform List<scalar> 
12000
(
0.002107599
0.00452352
0.005392439
0.00632613
0.007098245
0.007821237
0.00845499
0.009021782
0.009525022
0.009994338
0.01043293
0.01083285
0.01119892
0.0115274
0.01181874
0.01209109
0.01235077
0.01258069
0.01276552
0.01292813
0.01308807
0.0132371
0.01334067
0.01341249
0.01347723
0.0135415
0.01358334
0.01359485
0.01359616
0.01358591
0.01356667
0.01353274
0.01349097
0.01342999
0.01332365
0.0131342
0.01295524
0.01285617
0.01279284
0.01255846
0.01215433
0.01170846
0.01155031
0.01147325
0.01135012
0.01058609
0.009873808
0.009744727
0.00960132
0.009302519
0.008203386
0.007687218
0.007413467
0.006937256
0.006126531
0.005404992
0.004796121
0.004171362
0.003537262
0.003338203
0.002206272
0.005442924
0.006397221
0.007319238
0.008184292
0.009189545
0.01044762
0.01182534
0.0131082
0.01411331
0.01526341
0.01637411
0.01752906
0.01871328
0.01970858
0.02038133
0.02116061
0.0222713
0.02328644
0.02382152
0.02420152
0.02503296
0.02596379
0.02657833
0.02684173
0.0272943
0.02791925
0.02843076
0.02879216
0.02913224
0.02946716
0.02975057
0.03007776
0.03038971
0.03064188
0.03081881
0.03094647
0.03108617
0.03116094
0.03119803
0.031185
0.0310737
0.03102141
0.03040222
0.02982581
0.02944159
0.0289555
0.02840963
0.02682342
0.02556483
0.02464396
0.02359854
0.02166228
0.01928958
0.01769165
0.01523809
0.01216792
0.009041034
0.00627283
0.006159563
0.003285541
0.006936602
0.008609051
0.0102614
0.01216526
0.01407579
0.01613053
0.01810494
0.01992616
0.02134456
0.02255105
0.02373556
0.02479633
0.02585562
0.02679644
0.02759175
0.02831367
0.02903591
0.02973242
0.03032969
0.03083893
0.03134369
0.03188412
0.03241119
0.03286963
0.03328371
0.03370673
0.03414714
0.03457497
0.03497632
0.03536531
0.03571654
0.03609222
0.03650144
0.03689469
0.03726892
0.03759825
0.03787543
0.03814737
0.03845602
0.03875693
0.03894928
0.03898026
0.03896627
0.03896801
0.03897019
0.03880222
0.03838668
0.03775562
0.03697383
0.03598874
0.0347683
0.03315407
0.03113247
0.02838026
0.02495405
0.02089687
0.01540714
0.009070533
0.008295282
0.004082589
0.007376663
0.009585185
0.01191676
0.01452404
0.01708526
0.01950205
0.0216353
0.02343996
0.02510643
0.0264962
0.02766437
0.02864641
0.02942517
0.03014225
0.03075579
0.03130206
0.03180858
0.0322782
0.03271255
0.03312331
0.03353238
0.03394945
0.03436515
0.03477021
0.03517033
0.03557588
0.03598856
0.03640387
0.03681805
0.03719689
0.03758347
0.03800867
0.03842895
0.03883759
0.03923424
0.03962047
0.03998793
0.04033547
0.04066225
0.04095748
0.04120325
0.04137873
0.04146772
0.04149094
0.04143587
0.04126857
0.04095796
0.04046677
0.03975565
0.0388839
0.03761082
0.03576827
0.03355455
0.0308826
0.02774788
0.02374286
0.0186117
0.01208079
0.009957141
0.004865287
0.007878033
0.01063925
0.01352786
0.01653102
0.01930771
0.02174025
0.02376182
0.02543154
0.02685095
0.02810662
0.02918098
0.03009506
0.03074263
0.03121214
0.03161703
0.03197351
0.03230998
0.03264675
0.03298134
0.03331904
0.03366672
0.03402817
0.03440374
0.03479208
0.03519325
0.03560845
0.03603819
0.03648131
0.03690746
0.03733602
0.03779731
0.0382682
0.03874537
0.03922421
0.03971066
0.04019629
0.04067554
0.04114394
0.04159705
0.04202822
0.04243065
0.04278469
0.04307035
0.04328127
0.04338798
0.0433959
0.04325169
0.04298953
0.04255804
0.04170911
0.0404107
0.03881569
0.03685621
0.03436936
0.0311472
0.02691474
0.02129001
0.01386807
0.01115769
0.00557515
0.008218675
0.01133367
0.01450778
0.01764571
0.02045689
0.02285233
0.02481958
0.02640873
0.02767385
0.02866479
0.02944307
0.03012062
0.0307262
0.03118741
0.03153006
0.03181287
0.03207649
0.0323429
0.03261402
0.03289531
0.03319363
0.03351368
0.03385784
0.03422708
0.03462177
0.03504185
0.03548651
0.03595403
0.03644218
0.0369533
0.0374874
0.03804606
0.03862833
0.03921071
0.03980053
0.04040949
0.04102306
0.04163255
0.04223102
0.04281029
0.04336041
0.04387017
0.04432244
0.04467613
0.04492404
0.04503976
0.04504926
0.0448616
0.04431754
0.04342541
0.04219868
0.04060895
0.03855845
0.03593046
0.03259691
0.02836123
0.0228596
0.01553251
0.01210118
0.006225485
0.008497328
0.01183405
0.01512705
0.01826341
0.02100209
0.02327643
0.02511034
0.02657345
0.02773248
0.02865349
0.02937533
0.02991333
0.03033053
0.03069367
0.03097645
0.03119618
0.03140167
0.03161118
0.03183795
0.0320903
0.03237441
0.03269441
0.03305264
0.0334501
0.03388687
0.03436246
0.03487584
0.03542553
0.0360099
0.03662834
0.03727087
0.03793967
0.03863975
0.03936364
0.04010289
0.04085562
0.04161715
0.04238012
0.04313567
0.04387288
0.04457827
0.0452352
0.04582314
0.04631891
0.04669556
0.04695343
0.04701325
0.04679651
0.04629011
0.04546753
0.04428237
0.04267636
0.04057899
0.03789819
0.03449471
0.03013553
0.02440268
0.01666358
0.01279807
0.006795751
0.008729777
0.01215494
0.01542658
0.01845835
0.02107357
0.02327056
0.02507211
0.02648666
0.02757765
0.02839568
0.02900096
0.02945485
0.02979402
0.030056
0.03030022
0.03053061
0.03073474
0.03094489
0.03117705
0.03144296
0.03174998
0.03210272
0.03250372
0.03295409
0.03345398
0.03400297
0.03459909
0.03523994
0.0359232
0.03664678
0.03740887
0.03820716
0.03903753
0.03989567
0.04077631
0.0416738
0.04258144
0.04349084
0.0443916
0.04527093
0.04611313
0.04689917
0.04760657
0.04820521
0.0486852
0.04899246
0.04904098
0.04881946
0.0482859
0.04739802
0.04611114
0.04437457
0.04212511
0.03927792
0.03570806
0.03120887
0.02539706
0.01765662
0.01334717
0.007534775
0.008930967
0.01234211
0.01553173
0.01844801
0.02100276
0.02311176
0.02479924
0.0261376
0.02717235
0.02795644
0.02854372
0.02898337
0.02931774
0.02958323
0.02981098
0.03004458
0.03029146
0.03054319
0.03081944
0.03113337
0.03149284
0.03190222
0.03236392
0.03287868
0.03344583
0.03406326
0.03473947
0.03547059
0.03625306
0.03708312
0.03796094
0.03888156
0.03983458
0.04081661
0.04182266
0.04284642
0.04388008
0.04491394
0.04593598
0.04693144
0.04788228
0.04876765
0.04956033
0.05024251
0.05076629
0.05106662
0.05110571
0.0508516
0.05025865
0.04928478
0.04788724
0.04602067
0.0436302
0.04063983
0.03692983
0.03229037
0.0263197
0.01835748
0.0137283
0.007714549
0.009080102
0.01244997
0.01553309
0.018352
0.02077578
0.02279551
0.02443201
0.02573499
0.02675531
0.02754455
0.02815228
0.02862375
0.02899912
0.02931298
0.02959324
0.02986576
0.03015678
0.03047313
0.03080798
0.031168
0.03157973
0.03204749
0.03257446
0.03316269
0.03381343
0.03452747
0.03529471
0.036115
0.03698656
0.03790652
0.03887869
0.03989805
0.04095119
0.04203385
0.04314046
0.04426399
0.04539574
0.046525
0.04763864
0.04872066
0.04975184
0.05070876
0.05156673
0.05228184
0.05280546
0.05308445
0.05309499
0.05277942
0.05209192
0.05099224
0.04944514
0.04741488
0.04485556
0.04169901
0.03783215
0.03305286
0.0269731
0.01895423
0.01403228
0.007772098
0.009149215
0.01249072
0.01545922
0.01813192
0.02045699
0.02241558
0.02402717
0.02533222
0.02637738
0.02721
0.02787507
0.0284134
0.028861
0.02924854
0.0295987
0.02992667
0.03026431
0.03063418
0.03104851
0.03151059
0.03201325
0.03256517
0.03317195
0.03383665
0.0345604
0.03534277
0.0361818
0.03707535
0.03802086
0.03901521
0.04006185
0.04115603
0.04228468
0.04344266
0.04462367
0.04581999
0.04702216
0.04821857
0.04939501
0.05053409
0.05161449
0.05261011
0.05348724
0.05420847
0.05472917
0.05498684
0.05494921
0.05455262
0.05375106
0.05251056
0.05080685
0.04861601
0.04590239
0.04260258
0.03860431
0.03370313
0.02750367
0.01935295
0.01420997
0.008854189
0.009248858
0.01250313
0.01538359
0.01794321
0.02017723
0.02207852
0.02366618
0.02497557
0.02604831
0.02692689
0.02765176
0.02826264
0.02879327
0.0292694
0.02971554
0.03015481
0.03059646
0.03105891
0.03155536
0.03209617
0.03268093
0.03331379
0.03399816
0.03473656
0.03553018
0.03637906
0.03728218
0.03823771
0.03924334
0.04029616
0.041398
0.04254457
0.04372509
0.04493379
0.04616381
0.04740682
0.04865267
0.04988888
0.05110016
0.05226771
0.05336863
0.0543751
0.05525599
0.05596896
0.05646559
0.05668624
0.05658223
0.05608645
0.05515654
0.0537699
0.05191581
0.04958103
0.04673362
0.04331052
0.03919932
0.03419608
0.02790879
0.01969283
0.01436067
0.008947148
0.009297171
0.01248566
0.01523927
0.01767834
0.01982095
0.02167027
0.0232442
0.02457322
0.02569406
0.02664511
0.02746191
0.02817308
0.02880326
0.02938089
0.02993271
0.03047784
0.03103095
0.03160364
0.03220549
0.03284163
0.03351506
0.03423013
0.0349924
0.03580373
0.0366635
0.03757097
0.03852586
0.03952785
0.04057534
0.04166613
0.04280032
0.04397484
0.04518177
0.04641482
0.04766654
0.04892823
0.05018927
0.05143688
0.05265552
0.05382621
0.05492544
0.05592424
0.05678507
0.05746796
0.05792527
0.05809543
0.05791477
0.05731343
0.05625231
0.05473414
0.05276454
0.05032367
0.04737534
0.04385613
0.03965315
0.03456173
0.02818812
0.01988756
0.01441953
0.009086357
0.009314722
0.01245724
0.01512079
0.01746997
0.01954882
0.02136893
0.02294698
0.02430781
0.02548028
0.02649283
0.0273724
0.0281485
0.02885915
0.02953382
0.0301925
0.03085007
0.03151592
0.03219491
0.03289331
0.03361938
0.03438272
0.03518856
0.03603644
0.03692222
0.03784058
0.0387914
0.03978182
0.04081543
0.04188949
0.04300269
0.04415345
0.04533955
0.04655627
0.04779678
0.04905293
0.05031539
0.0515731
0.05281283
0.05401867
0.05517141
0.05624785
0.05722014
0.05805698
0.05871958
0.05915118
0.05927971
0.05903395
0.05834454
0.05717133
0.05552786
0.05344942
0.05091729
0.04788235
0.04428234
0.04000509
0.03484698
0.02841574
0.02006683
0.0144776
0.009267413
0.009315318
0.01240506
0.01500546
0.01728523
0.0193123
0.02110879
0.02269048
0.02407561
0.02528506
0.02634165
0.02727474
0.02812048
0.02891569
0.02968616
0.03044523
0.03120025
0.03195979
0.03273306
0.03352652
0.03434495
0.03519044
0.03606593
0.03697389
0.03791429
0.03888614
0.03988878
0.04092094
0.04198047
0.04307194
0.04420031
0.04536144
0.04655381
0.04777388
0.04901403
0.05026662
0.05152176
0.05276791
0.05399137
0.05517574
0.05630312
0.05735616
0.05831192
0.05913482
0.0597797
0.06018856
0.0602862
0.05998768
0.05922014
0.05794931
0.05619125
0.05399641
0.0513688
0.04825771
0.04459058
0.04025244
0.03503704
0.02854963
0.02014476
0.01448534
0.009440469
0.009328974
0.01236712
0.01490586
0.0171222
0.01910155
0.02087188
0.02244857
0.023847
0.02508554
0.02618667
0.0271759
0.02809
0.0289671
0.02982306
0.03066692
0.03150816
0.03235495
0.03321428
0.03408913
0.03498119
0.03589392
0.03682992
0.03779043
0.03877621
0.03978784
0.04082628
0.04189279
0.04298816
0.04411189
0.04525936
0.04642145
0.04760189
0.04881154
0.05004419
0.05128743
0.05253023
0.05376211
0.05497127
0.05614366
0.05726252
0.05830719
0.05925073
0.06005751
0.06068015
0.06105728
0.06111438
0.0607696
0.05994199
0.05858554
0.05672005
0.05442216
0.05171509
0.04854298
0.04482242
0.04043674
0.03517956
0.02865695
0.02022014
0.01448714
0.009579576
0.009342944
0.01232959
0.0148179
0.0169812
0.01891804
0.0206616
0.02222857
0.02363355
0.02489374
0.02603008
0.0270668
0.02803717
0.02897684
0.02990511
0.03082901
0.03175353
0.03268179
0.03361514
0.03455746
0.03551245
0.0364829
0.03747025
0.0384758
0.03950111
0.04054763
0.04161673
0.04270956
0.04382677
0.04496726
0.04612571
0.04729063
0.04846551
0.04966681
0.05089349
0.05213179
0.05336935
0.0545947
0.05579611
0.05696009
0.0580702
0.05910531
0.06003727
0.06082854
0.0614299
0.06177851
0.0617979
0.06140593
0.06052161
0.059103
0.05716476
0.05478146
0.05200539
0.04878356
0.04501793
0.04059048
0.03529459
0.02873586
0.02025506
0.01446974
0.009686538
0.009357179
0.01230152
0.01474685
0.01686314
0.01875863
0.02047333
0.02202638
0.02343293
0.02470959
0.02587581
0.02695365
0.02797385
0.02897049
0.02995959
0.03094785
0.03193761
0.03293031
0.03392775
0.03493116
0.03594167
0.03696048
0.03798991
0.03903271
0.04009108
0.0411669
0.04226178
0.04337692
0.04451277
0.04566816
0.04683787
0.04800843
0.04917727
0.05036608
0.05158598
0.0528214
0.05405459
0.05527422
0.05646933
0.05762682
0.05873
0.05975701
0.0606787
0.06145635
0.06203938
0.06236372
0.06235236
0.06192231
0.06098955
0.05950885
0.05749672
0.05503709
0.05220231
0.04893582
0.0451295
0.04066503
0.03533667
0.02875417
0.02025953
0.01443335
0.009769068
0.009380782
0.01229331
0.01469312
0.01676255
0.01861697
0.02030123
0.02183703
0.02324082
0.02452915
0.02572033
0.02683421
0.02789622
0.02893658
0.02997437
0.03101657
0.03206207
0.03311039
0.03416112
0.03521415
0.03626979
0.03732939
0.03839575
0.0394715
0.0405589
0.04166021
0.04277737
0.04391161
0.04506293
0.04622925
0.04740552
0.04858362
0.0497561
0.05093655
0.05214481
0.05337333
0.05460276
0.05581948
0.0570116
0.05816592
0.0592656
0.06028816
0.06120328
0.06197074
0.06253837
0.06284081
0.06280063
0.06233264
0.06135743
0.05982861
0.057762
0.05524402
0.05236244
0.04906075
0.0452245
0.04073488
0.03538386
0.02877246
0.02026389
0.01440623
0.009835287
0.009426233
0.01229998
0.01465648
0.01668001
0.01849278
0.02014448
0.02166032
0.02305813
0.02435455
0.0255668
0.02671256
0.02781014
0.02888529
0.02996195
0.03104302
0.03213097
0.03322241
0.03431547
0.03540878
0.03650242
0.03759762
0.03869625
0.03980071
0.04091369
0.0420378
0.04317517
0.04432709
0.04549346
0.04667216
0.04785811
0.04904326
0.05021868
0.05139671
0.05259978
0.05382427
0.05505227
0.05626941
0.05746284
0.05861867
0.05971943
0.06074173
0.06165404
0.06241465
0.06296993
0.0632534
0.06318739
0.06268545
0.06166988
0.06009408
0.0579753
0.05540438
0.05247947
0.04914302
0.04527619
0.04076073
0.03539031
0.02877145
0.02024929
0.0143547
0.009890642
0.009485912
0.01233059
0.01463914
0.01661356
0.01838279
0.0200002
0.02149354
0.02288199
0.02418224
0.02541045
0.0265824
0.02771265
0.02881853
0.02992106
0.03103177
0.0321489
0.03327303
0.03439914
0.0355253
0.03665071
0.03777586
0.03890231
0.04003255
0.04116937
0.04231533
0.04347257
0.04464234
0.04582459
0.04701731
0.04821573
0.04941195
0.0505956
0.05177673
0.05297897
0.05420294
0.05543279
0.05665365
0.05785169
0.05901211
0.06011658
0.06114066
0.06205151
0.06280597
0.06334904
0.06361325
0.06352099
0.06298576
0.0619315
0.06031322
0.05814965
0.0555339
0.05257222
0.04920756
0.04531748
0.0407816
0.03539447
0.02876609
0.02023351
0.01432234
0.009944414
0.009588425
0.01239299
0.01464238
0.01656441
0.01828754
0.01986824
0.02133622
0.02271163
0.02401117
0.02525016
0.02644285
0.02760181
0.02873719
0.02986185
0.03099117
0.03213044
0.03327469
0.03442497
0.03557697
0.03672837
0.03787919
0.03903071
0.04018507
0.04134479
0.04251235
0.04368977
0.04487828
0.04607783
0.04728666
0.04850068
0.04971253
0.05091049
0.05209914
0.05330287
0.05452997
0.05576592
0.0569936
0.05819846
0.05936517
0.06047458
0.06150114
0.06241073
0.0631588
0.06368916
0.06393362
0.06381474
0.06324617
0.06215349
0.06049374
0.05828822
0.05563302
0.0526372
0.04924595
0.04533619
0.04078374
0.03538389
0.02874094
0.0202006
0.01426722
0.01000607
0.009706228
0.0124738
0.01466431
0.01653039
0.01820539
0.01974709
0.02118666
0.02254505
0.02383898
0.02508298
0.02628992
0.0274708
0.02863426
0.02978641
0.03093322
0.03208475
0.03324702
0.03441363
0.0355823
0.03675376
0.03792635
0.03910035
0.04027726
0.04145913
0.04264816
0.04384629
0.04505466
0.0462731
0.04749963
0.04873004
0.04995806
0.05117676
0.0523829
0.05359212
0.05482231
0.05606513
0.05730115
0.05851442
0.05968858
0.06080351
0.06183259
0.06274048
0.06348141
0.06399819
0.06422208
0.064076
0.06347411
0.06234402
0.06064518
0.05840165
0.05571199
0.05268708
0.04927349
0.04534577
0.0407823
0.03537309
0.0287238
0.02017902
0.01423596
0.0100619
0.009869706
0.01259411
0.01471507
0.01651883
0.01813931
0.01963733
0.02104439
0.02238144
0.0236647
0.02490775
0.02612211
0.0273173
0.02850072
0.02967748
0.0308506
0.03202146
0.03319323
0.03437142
0.03555722
0.03674547
0.03793574
0.03912948
0.0403271
0.0415302
0.04274045
0.04395947
0.04518828
0.04642669
0.04767281
0.04892255
0.05016983
0.05140798
0.05263194
0.05385421
0.05509328
0.05634399
0.05758842
0.05881017
0.05999181
0.06111206
0.06214311
0.06304842
0.06378113
0.06428318
0.06448548
0.06431143
0.06367594
0.06250872
0.0607719
0.05849256
0.05577193
0.05272224
0.04928957
0.0453471
0.04077056
0.03534967
0.02869108
0.02014122
0.01418506
0.01012034
0.01005222
0.0127376
0.01478657
0.01652277
0.01808752
0.01953922
0.02091032
0.0222218
0.0234893
0.02472536
0.02594023
0.02714213
0.02833731
0.02953012
0.03072323
0.03191787
0.03311437
0.03431241
0.03551098
0.0367123
0.03792036
0.03913375
0.04035204
0.04157564
0.04280633
0.04404581
0.04529504
0.0465538
0.04782021
0.04909052
0.05035905
0.05161859
0.05286198
0.05409942
0.05534954
0.05660957
0.057863
0.05909317
0.06028175
0.06140644
0.06243831
0.06333968
0.06406271
0.06454866
0.06472822
0.06452544
0.06385624
0.06265259
0.06087951
0.05856718
0.05581925
0.05274867
0.04930067
0.04534717
0.0407612
0.0353337
0.02867083
0.02011948
0.01415877
0.01016348
0.01027513
0.01291378
0.01488312
0.01654738
0.01805059
0.01945225
0.02078406
0.02206633
0.0233138
0.02453799
0.02574804
0.02695108
0.02815238
0.02935553
0.03056264
0.03177466
0.03299167
0.03421315
0.03543834
0.03666677
0.03789784
0.03913096
0.04036753
0.04161102
0.04286272
0.04412302
0.04539253
0.04667124
0.04795764
0.04924823
0.05053747
0.05181812
0.05308203
0.05433662
0.05559919
0.05686893
0.058131
0.05936869
0.060563
0.06169068
0.06272173
0.06361747
0.06432913
0.06479746
0.06495314
0.06472091
0.06401801
0.06277868
0.06097084
0.0586278
0.05585545
0.05276697
0.0493054
0.0453408
0.04074546
0.03530968
0.02863961
0.02008376
0.01411535
0.01049252
0.01052929
0.01312432
0.0150063
0.01659305
0.01803062
0.01937889
0.02066826
0.02191808
0.02314217
0.02435107
0.02555293
0.02675394
0.02795851
0.0291695
0.03038846
0.03161588
0.03285147
0.03409443
0.03534377
0.03659838
0.03785759
0.03912041
0.04038631
0.04165454
0.04292614
0.04420474
0.04549286
0.04679014
0.04809499
0.04940426
0.05071308
0.0520147
0.05330009
0.05457103
0.05584378
0.05712312
0.05839452
0.05963912
0.06083764
0.06196643
0.06299476
0.063883
0.06458164
0.06503101
0.06516194
0.06489999
0.06416389
0.06289014
0.06104956
0.05867849
0.05588488
0.05278169
0.04930951
0.04533678
0.04073531
0.03529509
0.02862218
0.02006559
0.01409544
0.01094415
0.01082653
0.0133481
0.0151558
0.0166611
0.01803134
0.01932177
0.02056509
0.02177946
0.02297755
0.02416882
0.02536042
0.02655758
0.0277639
0.02898153
0.03021143
0.03145365
0.03270752
0.0339719
0.03524542
0.03652662
0.03781396
0.03910594
0.04040123
0.04169906
0.04299863
0.04429916
0.04560339
0.04691607
0.04823699
0.0495627
0.05088802
0.05220674
0.05351302
0.05480415
0.05608874
0.05737506
0.0586528
0.0599026
0.06110409
0.06223266
0.06325672
0.06413591
0.06482017
0.06524964
0.06535547
0.06506401
0.06429567
0.06298906
0.06111777
0.05872109
0.05590882
0.05279343
0.04931202
0.04533128
0.04072309
0.03527671
0.02859814
0.02003764
0.0140623
0.01114746
0.01113474
0.0135922
0.01532866
0.01674736
0.0180447
0.01927827
0.02047492
0.02165283
0.02282397
0.02399688
0.02517773
0.02637085
0.027579
0.0288036
0.03004499
0.03130263
0.03257536
0.03386155
0.03515929
0.03646659
0.03778114
0.0391012
0.04042453
0.04175046
0.0430775
0.04440438
0.04573008
0.04705706
0.04839002
0.04972852
0.05106775
0.05240155
0.05372411
0.05503134
0.05632881
0.05762356
0.05890664
0.06015973
0.06136223
0.06248881
0.06350708
0.06437596
0.06504493
0.06545409
0.06553498
0.06521474
0.06441558
0.06307806
0.06117845
0.05875879
0.05593062
0.05280568
0.04931724
0.04533014
0.04071773
0.03526841
0.02858775
0.02002565
0.01404955
0.01129321
0.01143985
0.01384754
0.01551469
0.01685156
0.01807652
0.01925032
0.02039987
0.0215416
0.02268639
0.02384176
0.02501292
0.02620325
0.02741464
0.02864768
0.02990193
0.03117612
0.03246836
0.03377635
0.03509756
0.03642962
0.03777012
0.03911594
0.04046634
0.04181844
0.04317064
0.04452153
0.04586986
0.04721448
0.04855812
0.04990521
0.05125407
0.05259934
0.05393496
0.05525562
0.0565645
0.05786681
0.05915417
0.0604092
0.06161128
0.06273451
0.06374579
0.06460343
0.06525661
0.06564547
0.06570205
0.06535416
0.0645258
0.0631593
0.06123353
0.05879324
0.05595152
0.05281908
0.04932506
0.04533273
0.04071481
0.0352607
0.02857438
0.02000733
0.01402508
0.01136758
0.01176038
0.01412043
0.0157168
0.01697528
0.01812627
0.01924161
0.02034385
0.02144995
0.02256949
0.02370881
0.02487198
0.02606128
0.02727758
0.02852051
0.02978872
0.03108016
0.03239224
0.03372204
0.03506657
0.03642251
0.03778575
0.03915573
0.04052932
0.04190433
0.04327883
0.04465115
0.04601981
0.04738345
0.04874081
0.05009462
0.05144898
0.05280124
0.05414582
0.05547709
0.05679588
0.05810483
0.0593955
0.06065131
0.06185173
0.06297045
0.06397381
0.06481962
0.06545677
0.06582542
0.06585815
0.06548352
0.0646276
0.06323438
0.06128506
0.05882678
0.05597374
0.05283521
0.04933641
0.04533959
0.04071846
0.03526018
0.02857185
0.02000256
0.01401782
0.01149477
0.01208376
0.0144026
0.01593055
0.01711184
0.01818936
0.01924635
0.02030575
0.02138002
0.0224777
0.02360407
0.02476211
0.02595297
0.02717638
0.02843088
0.02971418
0.03102336
0.0323551
0.0337056
0.03507024
0.03644656
0.03783278
0.03922436
0.04061892
0.04201413
0.04340793
0.04479853
0.04618433
0.04756387
0.04893576
0.05029869
0.05165586
0.05301119
0.05436081
0.05569924
0.05702542
0.0583393
0.05963198
0.06088741
0.06208503
0.06319816
0.06419254
0.06502558
0.06564616
0.06599498
0.06600531
0.065606
0.0647245
0.06330632
0.06133523
0.05886106
0.05599905
0.05285481
0.04935096
0.04534973
0.04072506
0.03526436
0.02857042
0.01999846
0.01400518
0.01165615
0.01241974
0.01470138
0.01616097
0.01726528
0.01827116
0.0192745
0.0202936
0.0213371
0.02241558
0.02353231
0.0246886
0.02588414
0.02711731
0.02838551
0.02968531
0.03101195
0.03236014
0.03372857
0.03511381
0.03651087
0.03791589
0.03932603
0.04073837
0.04215051
0.0435603
0.04496588
0.04636556
0.0477578
0.04914116
0.05051425
0.05187675
0.05323203
0.05458264
0.05592472
0.05725563
0.05857261
0.05986601
0.06111995
0.06231369
0.06342022
0.06440516
0.06522586
0.06583095
0.0661606
0.06614823
0.06572381
0.0648179
0.06337751
0.06138813
0.05890055
0.05603007
0.05287955
0.04937073
0.04536586
0.04073826
0.03527495
0.02857903
0.02000065
0.01400303
0.01179449
0.01275063
0.01500664
0.01640327
0.01743397
0.01837049
0.01932208
0.02030372
0.0213276
0.02239257
0.02350399
0.02466219
0.025865
0.02710862
0.02838794
0.02969963
0.0310417
0.03241033
0.0337985
0.03520166
0.03661573
0.03803703
0.0394626
0.04088959
0.04231552
0.04373823
0.04515576
0.04656635
0.04796842
0.04936045
0.05074106
0.05210885
0.05346512
0.05481399
0.05615612
0.0574886
0.05880633
0.06009871
0.06134994
0.06253913
0.06363892
0.06461417
0.06542148
0.06600952
0.06631938
0.06628548
0.06583812
0.06490962
0.06344807
0.06144062
0.05894023
0.05606278
0.05290753
0.04939436
0.04538563
0.04075438
0.03528697
0.02858616
0.02000384
0.01399885
0.01202105
0.01309887
0.01532654
0.01665748
0.01761711
0.0184897
0.01939504
0.02034361
0.02134282
0.02239852
0.02350852
0.02466919
0.02587905
0.02713421
0.02843076
0.0297628
0.03112374
0.03250866
0.03391233
0.03533024
0.0367584
0.0381934
0.03963184
0.04107088
0.04250799
0.04394095
0.0453678
0.04678673
0.04819612
0.0495944
0.05098014
0.05235194
0.05370866
0.05505401
0.05639331
0.05772432
0.05904043
0.06033026
0.06157752
0.0627606
0.06385154
0.06481508
0.06560812
0.06617961
0.06647105
0.06641722
0.06594863
0.0649982
0.06351556
0.06149108
0.05898037
0.05609851
0.05293987
0.0494231
0.04541131
0.04077704
0.03530667
0.02860234
0.0200148
0.01399785
0.01207407
0.01340587
0.01564504
0.01692645
0.01782151
0.01863241
0.01949423
0.02041593
0.02140131
0.02245088
0.02356191
0.0247317
0.02595401
0.02722357
0.02853463
0.02988116
0.03125665
0.0326552
0.03407143
0.03550114
0.03694046
0.03838589
0.03983412
0.04128222
0.04272762
0.04416805
0.04560147
0.04702604
0.04844009
0.04984203
0.05123038
0.05260366
0.05396045
0.05530273
0.05663641
0.05796287
0.05927509
0.06056037
0.0618016
0.06297675
0.0640577
0.06500923
0.06578819
0.06634353
0.06661666
0.06654336
0.06605492
0.06508531
0.06358513
0.06154578
0.05902458
0.05613779
0.05297539
0.04945481
0.04543987
0.04080275
0.03532829
0.02861891
0.02002548
0.01399677
0.01250645
0.01377099
0.01598586
0.01721013
0.0180419
0.01880344
0.01963012
0.02053069
0.02150592
0.02255369
0.02366949
0.02484753
0.02608107
0.02736314
0.02868681
0.03004538
0.03143231
0.03284183
0.03426879
0.03570876
0.03715752
0.0386113
0.04006687
0.04152138
0.0429723
0.04441745
0.04585484
0.04728269
0.04869919
0.05010268
0.05149158
0.05286445
0.05421989
0.05555781
0.05688403
0.05820363
0.05950973
0.06078858
0.06202245
0.06318887
0.06425937
0.06519846
0.06596301
0.06650232
0.06675807
0.06666677
0.06615999
0.0651724
0.06365585
0.0616036
0.05907434
0.0561834
0.05301725
0.04949247
0.04547332
0.04083229
0.03535553
0.02864268
0.02004198
0.01400311
0.01235861
0.01407713
0.01631614
0.01749623
0.0182736
0.01899081
0.01978597
0.02066974
0.02163882
0.02268806
0.02381062
0.02499869
0.02624407
0.02753865
0.02887464
0.03024473
0.03164239
0.03306184
0.03449807
0.03594641
0.03740262
0.03886294
0.04032416
0.0417835
0.04323849
0.04468681
0.04612637
0.04755532
0.04897205
0.05037503
0.0517627
0.05313356
0.05448613
0.05581886
0.05713721
0.05844865
0.05974707
0.0610181
0.06224332
0.06339981
0.06445891
0.06538508
0.0661353
0.06665898
0.066898
0.06678942
0.06626523
0.06526075
0.06372881
0.06166407
0.05912672
0.05623218
0.05306305
0.04953485
0.04551241
0.04086708
0.03538337
0.02866344
0.02005725
0.01400537
0.01236744
0.01439311
0.01665436
0.0177953
0.018525
0.01920645
0.01997683
0.02084991
0.02181778
0.02287204
0.02400339
0.02520221
0.02645908
0.02776502
0.02911174
0.03049179
0.03189867
0.03332652
0.03477006
0.03622448
0.0376857
0.03915016
0.04061461
0.04207621
0.04353243
0.04498116
0.04642044
0.04784842
0.04926339
0.05066378
0.05204807
0.05341464
0.05476193
0.05608835
0.05739886
0.05870108
0.05999026
0.06125179
0.06246682
0.06361211
0.06465883
0.06557138
0.0663068
0.06681474
0.06703734
0.06691206
0.06637127
0.06535083
0.06380446
0.06172812
0.0591832
0.05628481
0.05311221
0.04958017
0.0455543
0.04090619
0.03542009
0.02869481
0.02007739
0.01401478
0.0126797
0.01468326
0.01699265
0.01810892
0.01880149
0.01945546
0.02020718
0.02107433
0.02204433
0.02310563
0.0242467
0.02545641
0.02672427
0.0280407
0.02939712
0.03078593
0.03220036
0.0336344
0.03508273
0.03654076
0.03800459
0.03947064
0.04093581
0.04239728
0.04385262
0.04529969
0.04673661
0.04816165
0.04957302
0.05096901
0.05234796
0.05370824
0.05504831
0.05636665
0.05766793
0.05895979
0.06023828
0.06148871
0.06269201
0.06382476
0.06485802
0.06575622
0.06647652
0.06696874
0.06717523
0.06703384
0.06647722
0.06544169
0.06388175
0.0617945
0.05924237
0.05634022
0.05316406
0.04962776
0.04559732
0.04094407
0.03545219
0.02872127
0.02009832
0.01402258
0.0130939
0.0150118
0.01733965
0.01843734
0.01910066
0.01973402
0.02047266
0.02133805
0.02231313
0.02338331
0.02453503
0.02575576
0.02703418
0.02836018
0.02972492
0.03112067
0.03254064
0.03397891
0.03543027
0.03689026
0.03835489
0.03982068
0.04128461
0.04274408
0.04419682
0.04564066
0.04707358
0.04849372
0.04989933
0.05128873
0.05266029
0.05401242
0.05534357
0.05665228
0.05794307
0.05922354
0.0604901
0.06172802
0.06291821
0.06403722
0.06505611
0.06593938
0.06664429
0.06712084
0.06731162
0.0671547
0.06658299
0.06553323
0.06396057
0.06186311
0.0593042
0.05639837
0.05321883
0.04967874
0.04564458
0.04098752
0.03549134
0.02875491
0.02012391
0.01403562
0.01348863
0.01533338
0.01768941
0.01878052
0.01942464
0.02004495
0.02077578
0.02164308
0.02262547
0.02370561
0.02486809
0.02609926
0.02738712
0.02872122
0.03009257
0.03149342
0.03291703
0.03435757
0.03580997
0.03726981
0.03873322
0.04019689
0.0416579
0.04311375
0.04456204
0.04600064
0.04742757
0.04884099
0.05023915
0.05162036
0.05298299
0.05432548
0.05564631
0.05694406
0.05822325
0.05949141
0.06074496
0.06196919
0.06314508
0.06424931
0.06525307
0.06612094
0.0668103
0.06727133
0.06744678
0.0672749
0.06668882
0.06562557
0.06404083
0.06193356
0.0593679
0.05645813
0.05327473
0.04973015
0.0456913
0.0410292
0.03552739
0.02878425
0.02014524
0.0140426
0.01359149
0.01562241
0.01803963
0.01913897
0.01977383
0.02038821
0.02111622
0.02198874
0.02298037
0.02407123
0.02524437
0.02648521
0.02778127
0.0291219
0.03049808
0.0319021
0.03332735
0.03476814
0.03621959
0.03767742
0.03913795
0.04059783
0.04205431
0.04350477
0.04494692
0.04637863
0.04779794
0.049203
0.05059207
0.05196348
0.05331563
0.05464699
0.05595609
0.05724155
0.05850807
0.0597631
0.06100272
0.06221219
0.06337276
0.06446133
0.06544929
0.06630137
0.06697506
0.06742067
0.06758113
0.06739477
0.06679489
0.06571873
0.06412244
0.06200571
0.05943338
0.05651951
0.05333231
0.04978357
0.04574056
0.04107415
0.03556758
0.02881853
0.02017083
0.01405344
0.01396162
0.01593452
0.01840172
0.01951666
0.02015065
0.02076556
0.02149465
0.02237485
0.02337693
0.02447868
0.02566186
0.02691124
0.02821402
0.0295595
0.03093875
0.03234418
0.03376935
0.03520874
0.03665754
0.0381117
0.03956763
0.04102217
0.04247246
0.04391595
0.04535035
0.04677356
0.04818364
0.04957876
0.05095718
0.05231729
0.0536575
0.05497633
0.05627237
0.05754432
0.05879716
0.06003827
0.06126307
0.06245684
0.06360115
0.06467327
0.06564484
0.06648076
0.06713864
0.0675689
0.0677146
0.0675141
0.06690082
0.06581214
0.0642046
0.06207853
0.05949946
0.05658127
0.05338993
0.04983656
0.04578873
0.04111717
0.03560483
0.02884902
0.02019311
0.01405919
0.01384628
0.01619611
0.01876314
0.01991319
0.02055716
0.02117822
0.0219121
0.02280141
0.02381425
0.02492637
0.02611855
0.02737507
0.02868302
0.03003172
0.03141237
0.03281757
0.03424105
0.03567747
0.03712219
0.03857122
0.04002105
0.0414686
0.0429111
0.04434604