/*--------------------------------*- C++ -*----------------------------------*\
| =========                 |                                                 |
| \\      /  F ield         | OpenFOAM: The Open Source CFD Toolbox           |
|  \\    /   O peration     | Version:  2312                                  |
|   \\  /    A nd           | Website:  www.openfoam.com                      |
|    \\/     M anipulation  |                                                 |
\*---------------------------------------------------------------------------*/
FoamFile
{
    version     2.0;
    format      ascii;
    arch        "LSB;label=32;scalar=64";
    class       volScalarField;
    location    "4350";
    object      nut;
}
// * * * * * * * * * * * * * * * * * * * * * * * * * * * * * * * * * * * * * //

dimensions      [0 2 -1 0 0 0 0];

internalField   nonuniform List<scalar> 
12000
(
4.065557e-05
0.0001864406
0.0002051816
0.0002297259
0.0002441962
0.0002387161
0.0002255364
0.000220746
0.0002349135
0.0002458562
0.0002400269
0.0002368539
0.0002248623
0.0002102059
0.0002207833
0.0002506222
0.0002381019
0.0001996451
0.000195707
0.0002330852
0.0002496455
0.0002075337
0.0001859646
0.000205335
0.0002315523
0.000216135
0.0001962005
0.0001985613
0.00020728
0.0002070968
0.0002057806
0.0002037172
0.0001983602
0.0001931185
0.0001938666
0.000207369
0.0002198761
0.0001999728
0.0001735686
0.000170191
0.0002036067
0.0002602143
0.0002185694
0.0001515464
0.0001410193
0.0001955088
0.0003305923
0.0002120243
0.0001252132
0.0001369671
0.0002336516
0.0002486838
0.0001320174
0.0001262366
0.000163095
0.00015027
0.000111376
9.214179e-05
8.359557e-05
6.761763e-05
2.445099e-05
0.0002390466
0.0002661344
0.0003210563
0.0003735605
0.0004191281
0.0004818305
0.0005539343
0.0006299918
0.0006988841
0.0007771447
0.0008617064
0.0009525306
0.001052942
0.001143852
0.001213098
0.00129645
0.001418874
0.001536607
0.001597629
0.001649961
0.001766079
0.001909513
0.001989256
0.002017622
0.002086391
0.002193267
0.002271822
0.002312517
0.002353182
0.002394931
0.002431885
0.002478214
0.002506472
0.002520579
0.002509627
0.002492719
0.002498795
0.002506361
0.002482412
0.0024046
0.002310285
0.00193288
0.001928716
0.002169127
0.00201706
0.001855229
0.001295117
0.001428256
0.001530394
0.001331174
0.001175207
0.0009925912
0.0008728484
0.0007157982
0.0005537857
0.0003839472
0.0002342539
0.0001207521
6.3458e-05
3.515542e-05
0.0003097803
0.0004233807
0.0005186631
0.0006416797
0.0007797532
0.0009384106
0.001107309
0.001284837
0.001460717
0.001643611
0.00182281
0.002002922
0.002179466
0.002349669
0.00250977
0.002667395
0.002822535
0.002965919
0.003093788
0.003215948
0.003336854
0.003448658
0.003543981
0.003629266
0.003710938
0.003786064
0.003850705
0.003906518
0.003954383
0.003998606
0.004034161
0.004065572
0.004089241
0.00410542
0.004113206
0.004113799
0.004107325
0.004092975
0.004069924
0.004038362
0.003997699
0.003943688
0.003875715
0.003794225
0.003708705
0.003445883
0.003220343
0.003114213
0.002887194
0.00275729
0.002368255
0.002126716
0.001747522
0.001479356
0.001368885
0.0009649289
0.0005367421
0.0001977765
6.28778e-05
3.595832e-05
0.0003437372
0.0005244459
0.0006802367
0.0008817317
0.001108254
0.00135405
0.00161081
0.001872907
0.002141062
0.00240569
0.002658968
0.002885133
0.003125851
0.003334982
0.003530897
0.003713713
0.00388335
0.004039448
0.004182832
0.004315082
0.004436924
0.004548388
0.004649834
0.004742133
0.004825683
0.004900561
0.004966417
0.005024771
0.005075475
0.005116815
0.005149868
0.005175942
0.005193495
0.0052015
0.005199512
0.005187792
0.00516552
0.005132037
0.005086659
0.005028436
0.004956054
0.004868039
0.004762856
0.004639731
0.00449882
0.0043363
0.004149902
0.003937615
0.003698554
0.003292563
0.002651244
0.002458847
0.002204838
0.002070678
0.001648687
0.001195202
0.0007240919
0.000294008
6.377338e-05
3.614849e-05
0.0003830912
0.0006346398
0.0008554175
0.001126198
0.001423103
0.001736313
0.00205632
0.002375595
0.002688223
0.00299253
0.00328274
0.003558743
0.003812744
0.004042595
0.00425237
0.004445974
0.004624883
0.004790787
0.004944449
0.005086555
0.005217888
0.005339197
0.005451067
0.005553792
0.005647444
0.005732097
0.005805949
0.005874253
0.005931271
0.005978486
0.006016807
0.006045776
0.006064918
0.00607398
0.006073153
0.006061243
0.006037954
0.006002799
0.005955242
0.005894649
0.005820314
0.005731107
0.005625513
0.00550323
0.005360601
0.005197579
0.005010767
0.00479871
0.004422326
0.003798646
0.003708185
0.003492422
0.003102025
0.002648299
0.002128222
0.001537409
0.0009184994
0.0003606927
6.351571e-05
3.693492e-05
0.0004031175
0.0007285343
0.001004674
0.001326166
0.001673999
0.002035644
0.002400067
0.002757427
0.003100455
0.003424986
0.00372973
0.004016967
0.004289732
0.004545032
0.004780251
0.004993285
0.005188762
0.005369585
0.005537147
0.005692338
0.005836017
0.005968933
0.006091613
0.006204347
0.006307259
0.006400307
0.006483169
0.006557025
0.006620153
0.006673057
0.006715284
0.006746887
0.006767283
0.006775183
0.006770757
0.006753487
0.006722917
0.00667833
0.006619022
0.006544247
0.006453148
0.006344737
0.006217837
0.006070703
0.005900991
0.005706437
0.005487327
0.005241135
0.004959947
0.004637142
0.004269332
0.003857986
0.003400555
0.002891637
0.002327094
0.001709631
0.001055181
0.000434043
6.374758e-05
3.801913e-05
0.0004178749
0.0008075332
0.001131936
0.001490089
0.001870831
0.002260186
0.002647752
0.003026265
0.003390691
0.003738874
0.004067705
0.00437278
0.004655148
0.00491753
0.005160599
0.005387357
0.005597691
0.00579333
0.005975849
0.006146386
0.006305753
0.006454495
0.006592913
0.006721091
0.006838946
0.006943885
0.007041348
0.007126906
0.007200527
0.007262037
0.007310817
0.007347032
0.007369918
0.007379068
0.007374179
0.007354521
0.007319666
0.007269181
0.007202576
0.00711928
0.007018598
0.006899665
0.006761374
0.006602329
0.006420886
0.006215969
0.005983944
0.005721632
0.005422236
0.00508245
0.004698391
0.004264049
0.003772482
0.00321757
0.002595565
0.001908341
0.001176105
0.0004828307
6.378546e-05
3.903595e-05
0.0004263023
0.0008694481
0.001233632
0.0016145
0.002012914
0.002421602
0.002830751
0.003227733
0.003607419
0.003965458
0.004300951
0.004615977
0.004909978
0.00518425
0.005441823
0.005684872
0.00591335
0.006127906
0.006329639
0.006519492
0.006698095
0.006865766
0.007022556
0.00716831
0.007302592
0.00742496
0.007536026
0.00763407
0.007718505
0.007788856
0.007844862
0.0078867
0.00791334
0.007924101
0.007918453
0.007895877
0.007855916
0.007798117
0.007721993
0.00762699
0.007512463
0.007377645
0.007221631
0.007043183
0.006841294
0.006614104
0.006357336
0.006068938
0.005743119
0.005375782
0.004963538
0.004500393
0.003980381
0.00339819
0.002749936
0.002036326
0.001272894
0.0005355579
6.387532e-05
4.14694e-05
0.0004347864
0.000912257
0.001310055
0.001708735
0.002123827
0.002542758
0.002956045
0.003359139
0.003746048
0.004113661
0.004461065
0.004788668
0.005097182
0.005387865
0.005662258
0.005922679
0.006170668
0.006406361
0.006630033
0.00684216
0.007042809
0.007231774
0.007408711
0.007573113
0.007721504
0.00785902
0.007983735
0.008094672
0.008190953
0.008271716
0.008336055
0.008383782
0.008414018
0.008426072
0.008419385
0.008393468
0.008347884
0.00828222
0.008196056
0.008088925
0.007960249
0.00780945
0.007636025
0.007439673
0.007219294
0.006970582
0.006691939
0.006381783
0.006037949
0.005655413
0.005225232
0.004742414
0.004199074
0.003588896
0.002906885
0.00215374
0.001347422
0.0005693901
6.388717e-05
4.108435e-05
0.0004491861
0.000945344
0.001370812
0.001785742
0.002204735
0.002626102
0.003042726
0.003449293
0.003841659
0.004217462
0.00457581
0.004916795
0.005241083
0.005549735
0.005843991
0.006125036
0.006393406
0.006649555
0.006892848
0.007121965
0.007340577
0.007547999
0.007743647
0.007926959
0.008095893
0.008253471
0.008394836
0.008519636
0.008627271
0.008717032
0.008788331
0.008840809
0.00887355
0.008885819
0.008877007
0.008846605
0.008794191
0.00871942
0.008622034
0.008501869
0.008357871
0.008188731
0.007994792
0.007775526
0.007530214
0.007258371
0.006959466
0.006629015
0.006263507
0.005858725
0.00541001
0.004908246
0.004344002
0.003713995
0.00301255
0.002239737
0.001411225
0.000604576
6.390724e-05
4.048242e-05
0.0004409108
0.0009579966
0.001406789
0.001831245
0.002253951
0.002676585
0.003094908
0.003504519
0.003902071
0.00428556
0.004654156
0.005007893
0.00534727
0.005672949
0.005984926
0.006282589
0.006568627
0.006843799
0.00710881
0.007364452
0.007606973
0.007836449
0.008052504
0.008254486
0.008440839
0.008612235
0.008766652
0.008903084
0.009020616
0.0091184
0.009195786
0.009252189
0.00928658
0.00929818
0.009286339
0.00925051
0.00919022
0.009105051
0.008994618
0.008858552
0.008697558
0.008512497
0.008302044
0.008065237
0.007801068
0.007507204
0.007185956
0.006834464
0.006450105
0.006028242
0.005561979
0.005043804
0.004468277
0.003822705
0.003102114
0.002307094
0.001454944
0.0006261145
6.384525e-05
4.540501e-05
0.0004195158
0.0009558245
0.001434566
0.001872176
0.002297989
0.002719781
0.00313671
0.003546103
0.003945688
0.004334129
0.004710898
0.005075915
0.005429137
0.005769922
0.00609875
0.006416748
0.006723
0.007018048
0.007302265
0.007575463
0.007836458
0.00808426
0.00831797
0.008536609
0.008738757
0.008923886
0.009090464
0.00923734
0.009363428
0.0094677
0.009549249
0.009607349
0.009641427
0.009650936
0.009635339
0.009594142
0.009526905
0.009433236
0.009312783
0.009165215
0.008990188
0.00878742
0.008556847
0.008298323
0.008011622
0.007695605
0.007352034
0.00697469
0.006578706
0.006144423
0.005669347
0.005143086
0.004555266
0.003897912
0.003165593
0.002358401
0.00149261
0.0006470765
6.384424e-05
4.535423e-05
0.0004147866
0.0009486964
0.001439655
0.001885887
0.002313262
0.002733168
0.00314801
0.003557105
0.00395917
0.004352983
0.004737288
0.005110377
0.00546993
0.005695538
0.005903639
0.006151419
0.006434149
0.006783696
0.007154967
0.007577217
0.007981385
0.008294674
0.008545149
0.008779283
0.008995382
0.009192171
0.009368404
0.009523147
0.009655459
0.009764454
0.009849349
0.009909387
0.009943707
0.009951572
0.009932335
0.009885445
0.009810445
0.009706978
0.009574781
0.009413685
0.009223608
0.009004538
0.008756418
0.008479462
0.008129356
0.007591
0.007111539
0.006716403
0.006408346
0.00616355
0.005738817
0.005210268
0.004618408
0.003954588
0.003213069
0.002394333
0.001515877
0.0006587117
6.375271e-05
4.587549e-05
0.0004044545
0.000935934
0.001440203
0.001895207
0.002325708
0.002745273
0.003158719
0.003566695
0.003968214
0.004361581
0.004744532
0.005060225
0.005244065
0.005404833
0.005549151
0.005711535
0.005930454
0.006256413
0.006651829
0.007068018
0.007439123
0.007806178
0.00819445
0.008620718
0.00906685
0.009403089
0.009586803
0.009748396
0.009886497
0.01000007
0.0100881
0.01014962
0.01018375
0.01018969
0.01016674
0.01011437
0.01003216
0.009919843
0.009777282
0.009604424
0.009401339
0.009168485
0.008795529
0.008268079
0.007780436
0.00733359
0.006910004
0.006541627
0.006278481
0.006079202
0.005785907
0.005256961
0.004662691
0.003994653
0.003247338
0.002421841
0.00153569
0.0006696126
6.37407e-05
4.663404e-05
0.000392891
0.0009177533
0.001429338
0.001894237
0.002329539
0.00274988
0.003161953
0.003567685
0.003966711
0.004357523
0.004737664
0.004991284
0.005143077
0.005268775
0.005419942
0.005634129
0.005876702
0.006136392
0.006436377
0.006775228
0.007178894
0.007586728
0.007992992
0.008398319
0.008799929
0.009191938
0.009572024
0.009911651
0.01005685
0.01017488
0.01026611
0.01032929
0.01036345
0.01036778
0.0103416
0.0102844
0.01019584
0.01007578
0.009924346
0.009703657
0.009347311
0.00894921
0.008524583
0.008067984
0.007576927
0.007099225
0.006693322
0.006377269
0.006142887
0.005950035
0.005749806
0.005287803
0.004693499
0.00402295
0.003271305
0.002439963
0.001547184
0.0006750511
6.368077e-05
4.742867e-05
0.0003833943
0.0008997228
0.00141675
0.001888331
0.002327408
0.002748157
0.003158341
0.003560998
0.003956485
0.004343537
0.004719516
0.004915082
0.005054285
0.005208927
0.005392219
0.005586293
0.00580635
0.006045432
0.006339734
0.006679344
0.007033726
0.007413019
0.007805251
0.008200879
0.00858596
0.008942926
0.0092589
0.00953669
0.009790087
0.01005164
0.01035809
0.01045263
0.01040444
0.0103556
0.01029819
0.01020454
0.01006696
0.009884459
0.009658338
0.009387659
0.009069802
0.008704221
0.008295377
0.007857706
0.007412156
0.006977097
0.006567502
0.006225292
0.005988862
0.00585784
0.005720987
0.005308326
0.004714124
0.004041995
0.003287803
0.002452915
0.001555836
0.0006790331
6.364311e-05
4.81618e-05
0.000374546
0.0008806289
0.001399081
0.001875532
0.002318733
0.002740548
0.003149252
0.00354887
0.003940609
0.004323866
0.004696774
0.00493512
0.005092932
0.00523056
0.005379292
0.00555402
0.005771071
0.006045086
0.006336618
0.006655046
0.006990657
0.007350357
0.007718405
0.00808478
0.008439038
0.008770387
0.009068282
0.00932556
0.009553642
0.009796156
0.01012529
0.01026922
0.0101791
0.01011236
0.01004029
0.009948289
0.009821848
0.009653611
0.009439114
0.009174516
0.008860105
0.008501813
0.008108165
0.00768886
0.007259011
0.006841095
0.006461891
0.006145678
0.005909273
0.005760378
0.005635544
0.005322634
0.004730398
0.004057914
0.003301488
0.00246378
0.001563529
0.000682001
6.357068e-05
4.875771e-05
0.0003670561
0.0008625308
0.001380166
0.001861187
0.002307112
0.002729494
0.003136682
0.00353336
0.003921431
0.004300883
0.004670342
0.00491438
0.005077371
0.005227094
0.005392106
0.005583754
0.00580564
0.006053565
0.006338862
0.006656328
0.007004417
0.00736017
0.007715831
0.008064123
0.008395569
0.008700863
0.008972416
0.009205977
0.009410058
0.009629465
0.009974775
0.01024051
0.01014828
0.009980521
0.009898746
0.009811414
0.009687018
0.009517111
0.00929947
0.009033697
0.008721464
0.008367509
0.00797988
0.007569779
0.00715142
0.006742233
0.006364509
0.006045491
0.005814023
0.005678952
0.00558286
0.005329171
0.004737514
0.004064154
0.003306324
0.002466972
0.001565017
0.0006829792
6.352524e-05
4.92568e-05
0.0003608824
0.000846271
0.001360733
0.001843234
0.002291159
0.002714596
0.003120937
0.003515306
0.003900276
0.004276509
0.004643358
0.00492783
0.005108067
0.00526517
0.005431623
0.005622538
0.00584498
0.006100759
0.006390286
0.006710984
0.007052031
0.007396445
0.007742951
0.008080962
0.008400103
0.008691916
0.008951667
0.009180699
0.009390475
0.009606409
0.009862741
0.0101692
0.01020224
0.01000649
0.009882425
0.00977085
0.009635806
0.009459266
0.009234428
0.008960835
0.00864214
0.008285051
0.007898505
0.007493376
0.007082884
0.006683356
0.006314836
0.006001408
0.005769021
0.005630697
0.005544096
0.005334488
0.004743666
0.00407017
0.003311576
0.002471004
0.001567771
0.0006844034
6.347175e-05
4.96854e-05
0.0003562497
0.0008315118
0.00134168
0.001824582
0.002274594
0.002698218
0.003103725
0.003496284
0.003878915
0.00425292
0.004618479
0.004960406
0.005161198
0.005333138
0.005511874
0.005711803
0.005939869
0.006199126
0.006491086
0.006805235
0.007137269
0.007478834
0.007819911
0.008148571
0.008455752
0.008734333
0.008980603
0.009196839
0.009395761
0.009604173
0.009856556
0.01017575
0.01023793
0.01004427
0.009897914
0.009762175
0.009608568
0.0094181
0.009181812
0.008898693
0.008573064
0.008212454
0.007826243
0.007425054
0.007020913
0.006628286
0.006265438
0.005956114
0.005726875
0.005592945
0.005517829
0.00533626
0.004745768
0.004071823
0.003312476
0.002471321
0.001567872
0.0006842388
6.340715e-05
5.004929e-05
0.000352953
0.0008190878
0.001323838
0.001805665
0.002256255
0.002680661
0.003085749
0.003477163
0.003858298
0.004231039
0.004596216
0.004953517
0.005240741
0.005437435
0.00562913
0.005837241
0.006070689
0.00633296
0.006621734
0.00693519
0.007264467
0.007601407
0.007932683
0.008249873
0.008544646
0.008810416
0.00904388
0.009247327
0.009432174
0.009622752
0.009856209
0.01017742
0.01027225
0.01009088
0.009925986
0.009767454
0.009594521
0.009388845
0.009140452
0.008847851
0.008515656
0.008151916
0.007766191
0.007368685
0.006970472
0.00658475
0.006228289
0.005923519
0.005696155
0.005562318
0.005491557
0.005333727
0.004746493
0.004072343
0.003312449
0.002470937
0.001567835
0.0006842926
6.336559e-05
5.038872e-05
0.0003517983
0.00080952
0.001307913
0.001787665
0.002238114
0.002662782
0.003067831
0.003458643
0.003838935
0.004211003
0.004576087
0.004935429
0.005289899
0.005563202
0.005771585
0.005990143
0.006230884
0.006495884
0.006784924
0.00709459
0.007417625
0.007744649
0.008065522
0.008371036
0.008653113
0.008905792
0.009126239
0.00931608
0.009483785
0.009649186
0.009851636
0.01016312
0.01032465
0.01015966
0.0099455
0.009766655
0.0095805
0.009362981
0.009103931
0.00880277
0.008464888
0.008098733
0.007713823
0.007319835
0.006926915
0.006547157
0.006196271
0.005896126
0.005672412
0.005541884
0.005475553
0.005324377
0.004745965
0.004071704
0.003311442
0.002469741
0.001566537
0.0006835163
6.329313e-05
5.074714e-05
0.0003511773
0.0008015056
0.001293536
0.001770467
0.002220334
0.002645171
0.003050379
0.003441106
0.003821243
0.004193435
0.004559383
0.004920214
0.005276552
0.005630309
0.005946277
0.006174544
0.006414291
0.006681916
0.006972042
0.007277656
0.007591539
0.007907097
0.008216312
0.008509874
0.008779086
0.009018
0.009224599
0.009402158
0.009560535
0.009716327
0.009889792
0.01009435
0.01030715
0.01025051
0.009991117
0.009782682
0.009576493
0.009344533
0.00907458
0.008765387
0.008422352
0.008054037
0.00766983
0.007278917
0.006890663
0.006516278
0.006170573
0.005874799
0.005654329
0.005526109
0.005462168
0.005314934
0.004744562
0.004069804
0.003309294
0.00246753
0.001564813
0.0006828408
6.32683e-05
5.104615e-05
0.0003521887
0.0007963362
0.001282164
0.001755801
0.002204308
0.002628878
0.003034211
0.00342516
0.003805647
0.004178538
0.00454583
0.004908934
0.005268906
0.005626706
0.005982852
0.006337287
0.006640667
0.006899048
0.007175436
0.007475942
0.007784606
0.008092767
0.008387604
0.008667155
0.008922185
0.009146964
0.009339018
0.009501041
0.009642485
0.009779899
0.009932325
0.01010897
0.010308
0.01027368
0.01002548
0.009804473
0.009580322
0.009332668
0.009050849
0.008733404
0.008385391
0.008015119
0.007631629
0.007243552
0.006859531
0.006490024
0.006149144
0.005857733
0.005640998
0.005516
0.005455116
0.005311078
0.004743484
0.004068273
0.003307267
0.002465306
0.001562933
0.0006817105
6.320455e-05
5.133055e-05
0.0003534453
0.0007926837
0.001272293
0.001742177
0.002189392
0.002613801
0.003019495
0.003411046
0.003792359
0.004166434
0.004535469
0.00490106
0.005264369
0.005626232
0.005987152
0.006347318
0.006706707
0.007064605
0.007419241
0.007711482
0.007991206
0.008277781
0.008568868
0.008841546
0.009086228
0.009297085
0.009473166
0.009618337
0.009740702
0.009853282
0.009973873
0.01012416
0.01031637
0.01029773
0.01005848
0.009825738
0.009585682
0.009323941
0.009031174
0.008705976
0.008353284
0.007981216
0.007598437
0.007213008
0.006832893
0.006467891
0.00613154
0.005844331
0.005631264
0.005509284
0.005450697
0.005308299
0.004742157
0.004066275
0.003304612
0.002462502
0.001560747
0.000680879
6.31973e-05
5.149363e-05
0.0003576489
0.0007911209
0.001264909
0.001731196
0.002176715
0.002600765
0.003006853
0.003399247
0.003781766
0.004157468
0.004528669
0.004897072
0.005263879
0.005629873
0.005995438
0.006360557
0.006724774
0.007087099
0.007445982
0.007799444
0.008145063
0.00847992
0.008764845
0.00901226
0.00923944
0.00943936
0.009604788
0.009735782
0.00984053
0.009932262
0.01002832
0.01014899
0.01031648
0.01030469
0.01007974
0.009842106
0.009590888
0.009317179
0.009014297
0.008681814
0.008324849
0.007951313
0.007569427
0.007186646
0.006810277
0.00644953
0.006117489
0.005834391
0.00562509
0.005506389
0.005450323
0.00530903
0.004741552
0.004064829
0.003302484
0.002460106
0.00155864
0.0006795828
6.314648e-05
5.309068e-05
0.0003552177
0.000789199
0.001258619
0.001721821
0.002165863
0.002589738
0.002996476
0.003390084
0.003774295
0.004152187
0.004526142
0.004897911
0.005268697
0.005639214
0.006009706
0.006379956
0.006749262
0.007116422
0.007479736
0.007837051
0.008185814
0.008523129
0.008845885
0.009150802
0.009404654
0.00958921
0.009737778
0.009855102
0.009944647
0.01001547
0.01008143
0.01016418
0.01030223
0.01033377
0.01012329
0.009846313
0.009585736
0.009307153
0.008998498
0.008660495
0.00829988
0.007925156
0.007544303
0.007164161
0.006791364
0.006434569
0.00610652
0.005827287
0.005621613
0.005506076
0.005452172
0.005311132
0.004741491
0.004063528
0.003300214
0.002457473
0.001556434
0.0006785599
6.315314e-05
5.525995e-05
0.0003590828
0.000774819
0.001255856
0.001715243
0.002157757
0.002581326
0.002988853
0.003384062
0.003770527
0.004151284
0.004528715
0.004904571
0.005280015
0.005655668
0.006031624
0.006407473
0.006782294
0.007154663
0.007522677
0.007884008
0.008235964
0.008575578
0.008899712
0.009205164
0.009488861
0.009747534
0.009904902
0.01000156
0.01006981
0.01012263
0.01017103
0.01022304
0.01027651
0.01030752
0.01015843
0.009872311
0.009594844
0.009303083
0.00898572
0.008642291
0.008278828
0.007903482
0.007523835
0.007146182
0.006776587
0.006423278
0.006098809
0.00582318
0.005621097
0.005508933
0.005457482
0.005316327
0.004741875
0.004062908
0.003298671
0.002455505
0.001554616
0.0006775096
6.312229e-05
5.612815e-05
0.0003642484
0.0007627117
0.001255544
0.001710768
0.002151516
0.002575526
0.002984302
0.003381672
0.003771069
0.00415547
0.004537218
0.004918015
0.005298939
0.005680477
0.006062546
0.006444521
0.006825243
0.007203054
0.007575839
0.007941096
0.008296007
0.008637541
0.00896239
0.009267504
0.009550052
0.009806469
0.01003432
0.01016005
0.01021288
0.01024167
0.01026402
0.01028725
0.01030753
0.01031276
0.01016663
0.00988814
0.009605158
0.009304278
0.008978769
0.008629643
0.008263068
0.007886884
0.0075082
0.007132754
0.006766021
0.00641578
0.006094456
0.005822049
0.005623299
0.005514368
0.005465172
0.005323372
0.004743045
0.00406272
0.003297388
0.002453547
0.001552739
0.0006765087
6.313997e-05
5.666596e-05
0.0003689838
0.0007514317
0.001243028
0.001708604
0.002147745
0.002572004
0.002982789
0.003383158
0.003776416
0.004165449
0.00455253
0.004939266
0.005326606
0.005714858
0.006103721
0.006492324
0.006879254
0.007262607
0.007640053
0.008008915
0.008366257
0.008708796
0.009033708
0.00933766
0.009618103
0.009871359
0.01009533
0.0102878
0.01036589
0.01038028
0.01037557
0.01036493
0.01035225
0.01033103
0.01018023
0.009907469
0.009619941
0.009310763
0.00897738
0.008622611
0.008252986
0.007875976
0.007498005
0.007124126
0.006759286
0.006411209
0.006092511
0.005823195
0.00562798
0.0055226
0.005475801
0.005333017
0.004745453
0.004063469
0.003297015
0.002452515
0.001551497
0.0006756793
6.311937e-05
5.680727e-05
0.0003737883
0.0007419304
0.001226191
0.001709741
0.00214739
0.002572381
0.002985405
0.003389383
0.003787346
0.004181997
0.004575451
0.004969146
0.005363829
0.005759576
0.006155826
0.006551435
0.006944725
0.007333548
0.00771537
0.008087336
0.008446169
0.008789247
0.009113234
0.009415226
0.009692127
0.009941373
0.01016065
0.01034796
0.0105017
0.01053362
0.01050962
0.01047004
0.01042213
0.01036407
0.01019935
0.009929678
0.009638243
0.009321926
0.00898137
0.008621024
0.008247806
0.007868954
0.007490889
0.007118793
0.006756632
0.006411485
0.006095382
0.005828452
0.005635968
0.005533282
0.005488305
0.005343917
0.004748686
0.004065011
0.003297277
0.00245153
0.001550189
0.0006748623
6.313976e-05
5.717706e-05
0.0003782474
0.0007336189
0.001210297
0.001712218
0.002149005
0.002575225
0.0029916
0.003400329
0.003804172
0.004205623
0.004606594
0.005008296
0.00541122
0.005815157
0.006219254
0.006622074
0.007021674
0.007415626
0.007800957
0.008175032
0.008535098
0.008877729
0.009199892
0.009498917
0.00977168
0.01001599
0.01022973
0.01041116
0.01055889
0.01067162
0.01064867
0.01058476
0.01050474
0.01040977
0.01022744
0.009957416
0.00966101
0.009337665
0.008990229
0.008624879
0.008249855
0.007871717
0.007495779
0.007124125
0.006760923
0.006414537
0.006099833
0.005836065
0.005647877
0.005549936
0.005505889
0.005353221
0.004752804
0.004067278
0.003298019
0.002451608
0.001549705
0.0006744535
6.314535e-05
5.768464e-05
0.0003832728
0.0007270616
0.001195898
0.001717803
0.002154484
0.002582807
0.003003179
0.003417195
0.00382782
0.004237153
0.004646749
0.005057481
0.0054695
0.005882266
0.006294578
0.006704499
0.007109549
0.007507765
0.00789649
0.008272454
0.008632544
0.008973743
0.009293166
0.00958804
0.009855881
0.01009451
0.01030208
0.01047708
0.01061833
0.01072503
0.01077611
0.01070936
0.01059992
0.01046554
0.01026151
0.0099875
0.009684833
0.009355628
0.009003862
0.008635953
0.008257427
0.007874751
0.007494073
0.007122691
0.006764197
0.006423549
0.006111632
0.005849707
0.00566201
0.00556405
0.005520097
0.005360075
0.004757673
0.004070342
0.003299547
0.00245193
0.001549254
0.000673912
6.316998e-05
5.803612e-05
0.000387759
0.0007215435
0.001183325
0.001723992
0.002161735
0.002593262
0.003018746
0.003440369
0.00385925
0.004277697
0.004697003
0.005117599
0.005539087
0.005960285
0.006379886
0.006796403
0.007207586
0.007610162
0.008001278
0.00837794
0.008737146
0.009075984
0.009391781
0.009681865
0.009944058
0.01017642
0.01037733
0.01054553
0.01068007
0.01078032
0.01084594
0.01081903
0.0106974
0.01052909
0.01030229
0.01002187
0.009711939
0.009374478
0.009013984
0.008637757
0.008255715
0.007874987
0.007499029
0.007130293
0.006772408
0.006432322
0.006121266
0.00585947
0.00567348
0.005578341
0.005534622
0.005367974
0.004763472
0.004074169
0.003301666
0.002452743
0.001549316
0.0006737211
6.319282e-05
5.880894e-05
0.0003931364
0.0007182144
0.001173815
0.00173304
0.002172935
0.002608644
0.003040179
0.003468975
0.003897167
0.00432575
0.004755146
0.005185749
0.005617008
0.006047861
0.006476341
0.006899876
0.007315948
0.007721722
0.008114282
0.008490691
0.008848069
0.009183661
0.009494976
0.009779594
0.01003557
0.01026121
0.01045515
0.01061635
0.01074407
0.01083787
0.01089755
0.01091877
0.01079538
0.01060047
0.01035119
0.01005949
0.009737544
0.009391185
0.009026798
0.008650432
0.008268964
0.007887713
0.007511037
0.007140259
0.006780619
0.006439164
0.006129562
0.005872652
0.005692277
0.005599576
0.00555287
0.005377022
0.00477024
0.004078853
0.003304533
0.002454169
0.001549663
0.0006736641
6.32041e-05
5.868726e-05
0.00039699
0.0007149611
0.001162325
0.001740192
0.002185717
0.002626739
0.003065804
0.003503956
0.003942427
0.004381962
0.004823016
0.005264917
0.00570664
0.006146559
0.006582525
0.007012001
0.007432255
0.007840429
0.00823363
0.008609001
0.008963794
0.009295449
0.00960164
0.009880304
0.01012969
0.01034836
0.01053519
0.01068934
0.01081028
0.01089772
0.01095157
0.01097196
0.01088496
0.01067962
0.01040613
0.01009961
0.009768739
0.009417926
0.009050193
0.008671051
0.0082858
0.007901816
0.007523359
0.0071534
0.006794749
0.006453978
0.006144344
0.005887182
0.005708047
0.005619465
0.005574468
0.005386858
0.004777731
0.004084219
0.003308016
0.002456007
0.001550492
0.000673886
6.322466e-05
6.03911e-05
0.0004024307
0.0007148676
0.001157197
0.00174125
0.002203856
0.002651607
0.003099559
0.003548171
0.003998069
0.004449502
0.004902165
0.00535509
0.005806758
0.00625517
0.006697958
0.007132496
0.007556004
0.007965637
0.00835856
0.008732031
0.009083446
0.009410512
0.009711107
0.009983429
0.01022597
0.01043755
0.01061724
0.01076443
0.01087873
0.01096
0.01100826
0.01102371
0.01097694
0.01076785
0.01047348
0.01015202
0.009810909
0.009451641
0.009077581
0.008693911
0.008307087
0.007922238
0.007542949
0.007171599
0.006811568
0.006469925
0.00616048
0.005904758
0.005727606
0.005639508
0.005591941
0.005397495
0.004785933
0.004090155
0.003311942
0.002458304
0.001551621
0.0006741139
6.32539e-05
5.923302e-05
0.0004107834
0.0007151808
0.001152118
0.001737375
0.002223944
0.002679187
0.003136928
0.003596936
0.004059127
0.004523078
0.004987857
0.005452001
0.005913582
0.006370301
0.006819603
0.007258767
0.00768499
0.008095471
0.008487485
0.008858401
0.009205961
0.009528013
0.009822706
0.01008849
0.01032411
0.0105286
0.01070126
0.01084164
0.01094951
0.01102484
0.01106774
0.01107843
0.01105724
0.0108522
0.01054176
0.01020599
0.009854389
0.009488362
0.009109673
0.00872256
0.008332721
0.007945412
0.007564259
0.007191546
0.006830497
0.006488091
0.006178352
0.005923212
0.005747769
0.005661728
0.005613312
0.005409154
0.004795063
0.004096926
0.003316551
0.002460975
0.001552684
0.0006745334
6.328115e-05
5.884975e-05
0.0004166629
0.0007160254
0.001146264
0.00173221
0.002247094
0.002711032
0.003179629
0.003651922
0.004127063
0.004603923
0.005080966
0.005556245
0.006027465
0.00649208
0.00694738
0.007390573
0.007818863
0.00822953
0.008620007
0.00898777
0.009331004
0.009647686
0.009936235
0.01019535
0.01042403
0.01062151
0.01078727
0.01092104
0.01102269
0.01109229
0.01113
0.01113609
0.01111087
0.01092127
0.01060197
0.01025611
0.009896405
0.009524443
0.009141399
0.008751098
0.008358943
0.00796986
0.007587133
0.007212879
0.006850388
0.006506877
0.006196719
0.005942111
0.005768019
0.005683211
0.005633531
0.005421345
0.004804726
0.004104215
0.003321639
0.002464104
0.001554274
0.000674826
6.331446e-05
5.990423e-05
0.0004155346
0.0007181714
0.001141856
0.001727184
0.002273692
0.002747551
0.003228041
0.003713433
0.004202093
0.004692174
0.005181539
0.005667775
0.006148246
0.006620189
0.007080784
0.007527222
0.00795678
0.008366885
0.008755168
0.009119356
0.009457846
0.009768892
0.01005117
0.01030361
0.01052542
0.01071604
0.01087512
0.0110025
0.01109818
0.01116228
0.01119502
0.01119668
0.01116758
0.0109861
0.01066069
0.01030756
0.009941359
0.009564214
0.009177113
0.008783534
0.00838863
0.007997176
0.007612339
0.007236152
0.006871922
0.006527018
0.006216106
0.005961673
0.005788675
0.00570503
0.005654137
0.005434157
0.004814956
0.004112021
0.003327194
0.002467576
0.001555839
0.0006753633
6.335141e-05
6.138994e-05
0.0004201232
0.0007213376
0.001139158
0.001724937
0.002303507
0.002788298
0.003281548
0.003780698
0.004283292
0.004786756
0.00528836
0.005785243
0.006274473
0.006753121
0.007218315
0.007667295
0.008097465
0.008506433
0.008892048
0.009252328
0.009585831
0.009891115
0.01016709
0.01041293
0.01062803
0.01081199
0.01096462
0.01108588
0.01117584
0.0112347
0.0112627
0.01126012
0.01122728
0.01104882
0.01071842
0.01036023
0.009989167
0.009607568
0.009216477
0.008819372
0.008421384
0.008027209
0.007639897