/*--------------------------------*- C++ -*----------------------------------*\
| =========                 |                                                 |
| \\      /  F ield         | OpenFOAM: The Open Source CFD Toolbox           |
|  \\    /   O peration     | Version:  2312                                  |
|   \\  /    A nd           | Website:  www.openfoam.com                      |
|    \\/     M anipulation  |                                                 |
\*---------------------------------------------------------------------------*/
FoamFile
{
    version     2.0;
    format      ascii;
    arch        "LSB;label=32;scalar=64";
    class       surfaceScalarField;
    location    "4350";
    object      phi;
}
// * * * * * * * * * * * * * * * * * * * * * * * * * * * * * * * * * * * * * //

dimensions      [1 0 -1 0 0 0 0];

oriented        oriented;

internalField   nonuniform List<scalar> 
23740
(
-0.0001262802
0.0001260622
-0.0002452235
0.0001189441
-0.000364327
0.0001191043
-0.0004833429
0.0001190168
-0.0006033756
0.0001200337
-0.0007276425
0.000124268
-0.0008504856
0.0001228442
-0.0009634139
0.0001129295
-0.001058763
9.535056e-05
-0.001150815
9.205281e-05
-0.001241561
9.074802e-05
-0.001329394
8.783409e-05
-0.001414817
8.542428e-05
-0.001489012
7.419594e-05
-0.001546299
5.728856e-05
-0.001602745
5.644687e-05
-0.001671899
6.915526e-05
-0.001736786
6.488828e-05
-0.001776393
3.960806e-05
-0.001805223
2.88314e-05
-0.001850611
4.538849e-05
-0.001904957
5.434658e-05
-0.001938932
3.397679e-05
-0.001952645
1.371318e-05
-0.001971611
1.896703e-05
-0.002001067
2.945664e-05
-0.002023871
2.280467e-05
-0.002034422
1.055185e-05
-0.002041621
7.199361e-06
-0.002048588
6.9683e-06
-0.002054082
5.494524e-06
-0.002060108
6.026075e-06
-0.002062363
2.25588e-06
-0.002057644
-4.717533e-06
-0.002042731
-1.491233e-05
-0.002023565
-1.916555e-05
-0.002013535
-1.002899e-05
-0.002013131
-4.024967e-07
-0.001999247
-1.38832e-05
-0.001958219
-4.10272e-05
-0.001903087
-5.513171e-05
-0.001870304
-3.278245e-05
-0.001868464
-1.838472e-06
-0.001855713
-1.275021e-05
-0.001787978
-6.773506e-05
-0.001689887
-9.809098e-05
-0.001630958
-5.892824e-05
-0.001616838
-1.412022e-05
-0.001571424
-4.541409e-05
-0.00145349
-0.0001179347
-0.001337232
-0.0001162583
-0.001269194
-6.80383e-05
-0.001188408
-8.078711e-05
-0.001055104
-0.000133305
-0.0009136375
-0.0001414675
-0.0007745321
-0.0001391066
-0.0006180478
-0.0001564856
-0.0004217364
-0.0001963136
-0.0002077871
-0.0002139537
-0.0002077879
-0.000118091
0.0002441537
-0.0002370458
0.0002378996
-0.0003557435
0.0002378028
-0.0004712547
0.000234529
-0.0005782405
0.0002270205
-0.0006735337
0.0002195625
-0.0007608181
0.0002101299
-0.0008459859
0.0001980989
-0.0009357535
0.0001851198
-0.001015301
0.000171602
-0.001086735
0.0001621834
-0.001151152
0.0001522528
-0.00120799
0.0001422642
-0.001264992
0.0001311997
-0.001327137
0.0001194357
-0.001381332
0.0001106438
-0.001416265
0.0001040895
-0.001447092
9.571708e-05
-0.001492369
8.488582e-05
-0.001539825
7.62892e-05
-0.001565635
7.12002e-05
-0.001577103
6.581503e-05
-0.001600288
5.716339e-05
-0.001634961
4.838724e-05
-0.001658515
4.252178e-05
-0.001666854
3.77971e-05
-0.001675822
3.177405e-05
-0.001690222
2.495272e-05
-0.001701852
1.883022e-05
-0.001708179
1.329589e-05
-0.00171078
8.096914e-06
-0.001709514
4.761203e-06
-0.001704909
-2.34895e-06
-0.001700304
-9.321179e-06
-0.001698826
-1.638898e-05
-0.00169544
-2.254983e-05
-0.00167801
-2.745818e-05
-0.001645544
-3.286712e-05
-0.001618378
-4.104845e-05
-0.001609544
-4.986036e-05
-0.001607636
-5.703834e-05
-0.001577348
-6.30686e-05
-0.001509412
-6.977377e-05
-0.001443754
-7.840806e-05
-0.001422573
-8.891537e-05
-0.001420558
-0.0001001056
-0.001369952
-0.0001095342
-0.0012659
-0.0001181719
-0.001180764
-0.0001305503
-0.001154148
-0.0001445516
-0.001113045
-0.0001573618
-0.001012981
-0.0001681034
-0.000908831
-0.0001849388
-0.0008415252
-0.0002006123
-0.0007528746
-0.0002301197
-0.0006286196
-0.0002633634
-0.0004962059
-0.0002889016
-0.0003543733
-0.0003381488
-0.0001909765
-0.0003773543
-0.0003987649
-0.000102098
0.0003462526
-0.0002007925
0.0003365951
-0.0002951547
0.0003321661
-0.000385234
0.0003246095
-0.0004712352
0.000313023
-0.0005506424
0.000298971
-0.0006235479
0.0002830369
-0.0006928669
0.0002674193
-0.0007642826
0.0002565373
-0.0008348076
0.0002421289
-0.0008968287
0.0002242064
-0.0009542242
0.0002096502
-0.001003376
0.0001914183
-0.001049517
0.0001773427
-0.001094231
0.0001641513
-0.001135713
0.0001521275
-0.001172331
0.0001407096
-0.001205903
0.0001292905
-0.001238973
0.0001179575
-0.001270118
0.0001074353
-0.001296796
9.787927e-05
-0.001319459
8.847925e-05
-0.00134104
7.874526e-05
-0.001361865
6.921366e-05
-0.001379769
6.042657e-05
-0.001393999
5.202791e-05
-0.001405734
4.351029e-05
-0.001415715
3.493434e-05
-0.001423437
2.655354e-05
-0.001428526
1.838541e-05
-0.001431614
1.118567e-05
-0.001430185
3.333035e-06
-0.001426541
-5.992711e-06
-0.00142104
-1.482048e-05
-0.001413708
-2.371986e-05
-0.001403566
-3.269158e-05
-0.001389433
-4.158995e-05
-0.001371592
-5.070707e-05
-0.001352111
-6.052763e-05
-0.001331075
-7.089605e-05
-0.001306729
-8.138277e-05
-0.001277937
-9.185997e-05
-0.001244864
-0.0001028461
-0.001208525
-0.0001147457
-0.001169587
-0.0001278534
-0.001127636
-0.0001420563
-0.001080639
-0.0001565315
-0.001027264
-0.0001715474
-0.000969959
-0.0001878553
-0.0009103065
-0.0002042047
-0.0008503699
-0.0002172992
-0.0007814955
-0.0002369788
-0.0007042626
-0.0002621727
-0.0006177612
-0.000287115
-0.0005249377
-0.0003229448
-0.0004361124
-0.0003521904
-0.0003358749
-0.0003891414
-0.0002388189
-0.0004352076
-0.0001252021
-0.0004909743
-0.0005239674
-8.221352e-05
0.0004284669
-0.0001593021
0.0004136845
-0.000231992
0.0004048569
-0.0003004827
0.0003931013
-0.0003656102
0.0003781516
-0.0004276638
0.0003610258
-0.0004869398
0.000342314
-0.0005441345
0.0003246152
-0.0005949477
0.0003073517
-0.0006455219
0.0002927044
-0.0006954941
0.0002741798
-0.000745169
0.0002593264
-0.0007930583
0.000239309
-0.0008365048
0.0002207905
-0.0008767581
0.0002044058
-0.0009143845
0.0001897551
-0.0009491095
0.0001754357
-0.0009817481
0.0001619301
-0.001011839
0.0001480491
-0.001039269
0.0001348662
-0.001063773
0.0001223842
-0.001085622
0.0001103293
-0.001105416
9.853941e-05
-0.001123211
8.700937e-05
-0.001138562
7.577872e-05
-0.001151318
6.478475e-05
-0.001161731
5.39236e-05
-0.001169944
4.314763e-05
-0.001175859
3.246956e-05
-0.001180445
2.297201e-05
-0.00118225
1.299111e-05
-0.001180512
1.595231e-06
-0.001177039
-9.464806e-06
-0.001171419
-2.043974e-05
-0.001163681
-3.145688e-05
-0.001153559
-4.281296e-05
-0.001140733
-5.441527e-05
-0.001125116
-6.632332e-05
-0.001107
-7.864225e-05
-0.00108648
-9.14154e-05
-0.00106322
-0.000104642
-0.001036687
-0.000118393
-0.001006643
-0.0001328891
-0.0009749519
-0.0001464364
-0.0009398926
-0.0001629123
-0.0009018471
-0.0001801017
-0.0008603704
-0.0001980082
-0.0008151164
-0.0002168016
-0.0007681419
-0.0002348301
-0.0007185021
-0.0002538449
-0.0006611591
-0.0002746428
-0.000594018
-0.0003041207
-0.0005244118
-0.0003317799
-0.0004512465
-0.0003602813
-0.0003837148
-0.0003904777
-0.0003118275
-0.0004240791
-0.0002375332
-0.0004634374
-0.0001620001
-0.0005107429
-8.484558e-05
-0.0005681314
-0.0006088132
-6.578762e-05
0.0004942554
-0.0001293829
0.0004772807
-0.0001889749
0.0004644498
-0.0002453085
0.0004494358
-0.0002990241
0.0004318682
-0.0003505174
0.0004125202
-0.00040042
0.0003922176
-0.0004473973
0.0003715936
-0.0004910007
0.0003509561
-0.0005287052
0.0003304099
-0.0005659406
0.0003114164
-0.0006008189
0.0002942057
-0.0006387902
0.0002772812
-0.0006760128
0.000258014
-0.0007101547
0.0002385486
-0.0007416884
0.0002212896
-0.0007709143
0.0002046622
-0.0007979573
0.0001889737
-0.0008229537
0.0001730462
-0.0008458062
0.0001577193
-0.0008664368
0.0001430154
-0.0008848899
0.0001287829
-0.0009012677
0.0001149178
-0.0009156266
0.0001013687
-0.0009279487
8.810129e-05
-0.0009382312
7.506776e-05
-0.0009465195
6.221241e-05
-0.0009528644
4.949291e-05
-0.0009572501
3.685566e-05
-0.0009597547
2.5477e-05
-0.0009592919
1.252876e-05
-0.0009574565
-2.396026e-07
-0.0009537689
-1.315197e-05
-0.0009480107
-2.619739e-05
-0.0009411961
-3.827097e-05
-0.0009319739
-5.203459e-05
-0.0009204842
-6.590433e-05
-0.0009067972
-8.000977e-05
-0.0008909503
-9.448854e-05
-0.0008729323
-0.0001094328
-0.0008526567
-0.000124917
-0.0008300195
-0.0001410297
-0.0008051529
-0.0001577554
-0.0007776888
-0.0001739002
-0.0007475409
-0.00019306
-0.0007149652
-0.0002126773
-0.0006801164
-0.0002328569
-0.0006443085
-0.0002526096
-0.0006052468
-0.000273892
-0.0005603769
-0.0002987151
-0.0005085442
-0.000326476
-0.000458278
-0.0003543875
-0.0004074121
-0.0003826465
-0.0003549312
-0.0004127629
-0.0002998133
-0.0004455965
-0.0002420376
-0.0004818558
-0.0001827777
-0.0005226985
-0.0001233007
-0.0005702216
-6.350139e-05
-0.0006279329
-0.0006723148
-5.069925e-05
0.0005449559
-0.0001001393
0.000526722
-0.0001463168
0.0005106284
-0.0001900253
0.0004931454
-0.0002317764
0.0004736203
-0.0002719365
0.0004526814
-0.0003107037
0.0004309858
-0.0003481121
0.000409003
-0.0003841705
0.0003870155
-0.0004189497
0.0003651901
-0.0004512866
0.0003437541
-0.0004799829
0.0003229028
-0.000506598
0.000303897
-0.0005344254
0.0002858421
-0.0005627485
0.0002668723
-0.0005886752
0.0002472169
-0.0006126624
0.0002286499
-0.000634429
0.0002107408
-0.0006547099
0.0001933275
-0.0006733979
0.0001764077
-0.0006903511
0.000159969
-0.0007055345
0.0001439668
-0.0007189662
0.0001283499
-0.0007306691
0.0001130719
-0.0007406575
9.809005e-05
-0.00074895
8.336055e-05
-0.0007555767
6.883945e-05
-0.0007605675
5.448403e-05
-0.0007639557
4.024424e-05
-0.0007646172
2.613883e-05
-0.0007639855
1.189745e-05
-0.0007627865
-1.43823e-06
-0.000759778
-1.61602e-05
-0.0007550582
-3.091679e-05
-0.0007486094
-4.471936e-05
-0.0007404251
-6.021846e-05
-0.0007305454
-7.578359e-05
-0.0007189432
-9.161152e-05
-0.0007056032
-0.0001078281
-0.0006905055
-0.0001245301
-0.0006736247
-0.0001417974
-0.0006549514
-0.0001597026
-0.0006344087
-0.0001782978
-0.0006105967
-0.000197712
-0.0005854621
-0.0002181945
-0.0005586746
-0.0002394647
-0.0005307759
-0.0002607555
-0.0004998024
-0.0002835832
-0.0004642055
-0.0003094891
-0.0004265561
-0.0003363647
-0.0003888105
-0.000364222
-0.0003501431
-0.0003930553
-0.0003094961
-0.0004232939
-0.0002668856
-0.000455374
-0.0002228379
-0.0004896448
-0.0001779712
-0.0005267234
-0.0001329312
-0.0005677394
-8.835929e-05
-0.000614795
-4.499965e-05
-0.0006712942
-0.0007173147
-3.946484e-05
0.0005844222
-7.807327e-05
0.0005653318
-0.0001139464
0.0005465028
-0.0001478463
0.0005270465
-0.0001802367
0.0005060118
-0.0002114029
0.0004838486
-0.0002414996
0.0004610835
-0.000270588
0.0004380923
-0.0002987083
0.0004151367
-0.0003259125
0.0003923951
-0.0003521786
0.0003700209
-0.0003772931
0.0003480179
-0.0003997068
0.0003263113
-0.000419784
0.0003059198
-0.0004398359
0.0002869247
-0.0004602093
0.0002675907
-0.0004791679
0.0002476089
-0.0004966908
0.000228264
-0.0005128194
0.0002094565
-0.0005275614
0.0001911501
-0.0005409003
0.0001733083
-0.0005528262
0.0001558929
-0.0005633401
0.0001388641
-0.0005724493
0.0001221814
-0.0005801627
0.0001058037
-0.0005864898
8.968791e-05
-0.0005914394
7.378934e-05
-0.0005950155
5.80604e-05
-0.0005972203
4.244927e-05
-0.0005979922
2.691104e-05
-0.0005974342
1.133971e-05
-0.0005963618
-2.510343e-06
-0.000593933
-1.858872e-05
-0.0005902315
-3.4618e-05
-0.0005842543
-5.069629e-05
-0.0005773512
-6.712122e-05
-0.0005692876
-8.38469e-05
-0.0005599429
-0.0001009558
-0.0005492484
-0.0001185223
-0.0005371521
-0.0001366261
-0.000523604
-0.0001553452
-0.0005085502
-0.0001747562
-0.0004919184
-0.0001949293
-0.0004736936
-0.0002159367
-0.0004539838
-0.0002379042
-0.0004333192
-0.0002601292
-0.0004103052
-0.0002837696
-0.0003841591
-0.0003097294
-0.0003570941
-0.0003365543
-0.0003290894
-0.0003643697
-0.0002999668
-0.0003933449
-0.0002694831
-0.0004235393
-0.0002376897
-0.0004550878
-0.0002048372
-0.000488227
-0.0001711582
-0.0005233243
-0.000136909
-0.0005609732
-0.000102443
-0.0006022062
-6.821833e-05
-0.0006490208
-3.465464e-05
-0.0007048594
-0.0007519695
-3.031354e-05
0.0006147374
-5.963233e-05
0.000594652
-8.642575e-05
0.0005732974
-0.0001115953
0.0005522171
-0.000135684
0.0005301016
-0.0001589815
0.000507147
-0.000181624
0.0004837268
-0.0002036568
0.0004601259
-0.0002250767
0.0004365574
-0.0002458473
0.0004131664
-0.0002658869
0.0003900612
-0.0002851797
0.0003673112
-0.0003038259
0.0003449581
-0.0003210374
0.0003231317
-0.0003359571
0.0003018448
-0.0003502906
0.0002819246
-0.0003646927
0.0002620114
-0.0003781189
0.0002416906
-0.0003905383
0.0002218761
-0.0004019088
0.0002025208
-0.0004122073
0.000183607
-0.0004214197
0.0001651056
-0.0004295421
0.0001469867
-0.0004365779
0.0001292174
-0.0004425356
0.0001117616
-0.0004474269
9.457949e-05
-0.0004512662
7.762881e-05
-0.0004540693
6.086372e-05
-0.0004558543
4.423445e-05
-0.0004566322
2.76892e-05
-0.0004564627
1.117036e-05
-0.0004550587
-3.91413e-06
-0.0004528316
-2.081565e-05
-0.0004496775
-3.777183e-05
-0.0004455097
-5.486389e-05
-0.0004404022
-7.222848e-05
-0.0004343284
-8.992046e-05
-0.0004272638
-0.0001080202
-0.0004191797
-0.0001266063
-0.0004100459
-0.0001457597
-0.00039983
-0.0001655609
-0.0003884967
-0.0001860893
-0.0003760155
-0.0002074105
-0.0003622783
-0.0002296738
-0.000347708
-0.0002524744
-0.0003314156
-0.0002764215
-0.0003127988
-0.0003023865
-0.0002932445
-0.0003292837
-0.0002726206
-0.0003571783
-0.0002508655
-0.000386125
-0.0002280486
-0.0004161619
-0.0002042433
-0.000447345
-0.0001795474
-0.000479784
-0.0001541068
-0.000513668
-0.0001281201
-0.0005493114
-0.0001018426
-0.0005872512
-7.559399e-05
-0.0006284555
-4.981021e-05
-0.0006748055
-2.506838e-05
-0.0007296024
-0.0007770379
-2.280375e-05
0.0006375428
-4.456497e-05
0.0006164146
-6.415898e-05
0.0005928927
-8.244995e-05
0.0005705092
-9.992167e-05
0.0005475743
-0.0001168164
0.0005240426
-0.0001332479
0.0005001592
-0.000149262
0.0004761407
-0.0001648651
0.000452161
-0.0001800441
0.000428346
-0.0001947679
0.0004047854
-0.0002089996
0.0003815434
-0.0002227089
0.0003586677
-0.0002357882
0.0003362114
-0.0002481139
0.0003141708
-0.0002587493
0.0002925602
-0.0002688003
0.0002720626
-0.0002788192
0.0002517098
-0.000288104
0.0002311611
-0.0002966263
0.0002110433
-0.0003043503
0.0001913312
-0.00031126
0.0001720155
-0.0003173511
0.000153078
-0.0003226279
0.0001344944
-0.0003271009
0.0001162348
-0.0003307846
9.826337e-05
-0.0003336958
8.054019e-05
-0.0003358528
6.302085e-05
-0.000337274
4.565585e-05
-0.0003379766
2.839195e-05
-0.000337979
1.117289e-05
-0.0003369508
-4.942121e-06
-0.000335345
-2.242138e-05
-0.0003331073
-4.000936e-05
-0.0003301906
-5.778039e-05
-0.0003266015
-7.581744e-05
-0.0003223241
-9.419764e-05
-0.0003173411
-0.0001130031
-0.0003116303
-0.0001323169
-0.0003051663
-0.0001522237
-0.0002979195
-0.0001728076
-0.0002898595
-0.0001941492
-0.0002809241
-0.0002163458
-0.0002712681
-0.0002393297
-0.000260351
-0.0002633916
-0.0002476615
-0.000289111
-0.000234189
-0.0003158591
-0.0002198216
-0.0003436512
-0.0002044939
-0.0003725062
-0.0001882063
-0.0004024128
-0.0001710102
-0.0004333582
-0.0001530026
-0.0004653528
-0.0001343224
-0.0004984645
-0.0001151381
-0.0005328526
-9.563751e-05
-0.0005688124
-7.602449e-05
-0.0006068647
-5.65197e-05
-0.0006479608
-3.737303e-05
-0.0006939529
-1.886601e-05
-0.0007481103
-0.0007959041
-1.703352e-05
0.0006545778
-3.270105e-05
0.0006320835
-4.628352e-05
0.0006064763
-5.862835e-05
0.0005828549
-7.029e-05
0.0005592367
-8.15761e-05
0.0005353294
-9.265078e-05
0.0005112345
-0.0001035917
0.0004870822
-0.0001144146
0.0004629843
-0.0001250945
0.0004390264
-0.0001355818
0.000415273
-0.0001458122
0.0003917741
-0.0001557142
0.00036857
-0.0001651978
0.0003456953
-0.0001741889
0.0003231621
-0.0001826136
0.0003009852
-0.0001897493
0.0002791984
-0.0001963423
0.000258303
-0.0002028475
0.0002376664
-0.0002088495
0.0002170455
-0.0002143427
0.0001968246
-0.000219285
0.0001769579
-0.0002236673
0.0001574605
-0.0002274909
0.0001383181
-0.0002307647
0.0001195087
-0.0002335023
0.000101001
-0.0002357192
8.275729e-05
-0.0002374312
6.473298e-05
-0.0002386527
4.687743e-05
-0.0002393964
2.913573e-05
-0.0002396728
1.144943e-05
-0.000239162
-5.452836e-06
-0.0002382719
-2.331136e-05
-0.0002369794
-4.130176e-05
-0.000235264
-5.949562e-05
-0.0002331122
-7.796922e-05
-0.0002305081
-9.680164e-05
-0.000227435
-0.0001160761
-0.0002238728
-0.000135879
-0.0002197959
-0.0001563005
-0.0002151694
-0.0001774341
-0.0002099411
-0.0001993774
-0.0002040704
-0.0002222166
-0.0001972676
-0.0002461325
-0.0001892997
-0.0002713595
-0.0001807002
-0.0002977105
-0.0001713621
-0.0003251972
-0.0001611823
-0.0003538311
-0.0001501044
-0.0003835842
-0.0001381414
-0.000414376
-0.000125383
-0.0004461168
-0.0001119703
-0.0004787657
-9.805963e-05
-0.0005123753
-8.38092e-05
-0.0005471033
-6.937634e-05
-0.0005832456
-5.491456e-05
-0.0006213268
-4.058832e-05
-0.0006622874
-2.661242e-05
-0.0007079294
-1.331093e-05
-0.0007614126
-0.0008092151
-1.143047e-05
0.0006660097
-2.16865e-05
0.0006423407
-3.024492e-05
0.0006150357
-3.790686e-05
0.0005905177
-4.515773e-05
0.0005664883
-5.224357e-05
0.0005424158
-5.927422e-05
0.0005182656
-6.628255e-05
0.0004940909
-7.325558e-05
0.0004699577
-8.015815e-05
0.0004459293
-8.695159e-05
0.0004220667
-9.360603e-05
0.0003984288
-0.0001001288
0.000375093
-0.0001065057
0.0003520723
-0.0001126721
0.0003293287
-0.0001185535
0.0003068667
-0.000124063
0.0002847081
-0.0001286572
0.0002628973
-0.0001327859
0.0002417952
-0.0001367566
0.0002210164
-0.0001403452
0.0002004132
-0.0001435707
0.0001801835
-0.0001464356
0.0001603254
-0.000148954
0.0001408367
-0.0001511449
0.0001216996
-0.0001530296
0.0001028859
-0.0001546271
8.435489e-05
-0.0001559504
6.605634e-05
-0.000157008
4.793513e-05
-0.0001578076
2.993542e-05
-0.000158352
1.199395e-05
-0.0001583523
-5.452536e-06
-0.0001581335
-2.353003e-05
-0.0001576751
-4.176008e-05
-0.0001569576
-6.021307e-05
-0.0001559608
-7.896592e-05
-0.0001546629
-9.80995e-05
-0.0001530401
-0.0001176988
-0.0001510661
-0.000137853
-0.0001487112
-0.0001586554
-0.0001459422
-0.000180203
-0.0001427246
-0.0002025951
-0.0001389947
-0.0002259464
-0.0001348377
-0.0002502896
-0.0001303618
-0.0002758353
-0.0001253676
-0.0003027048
-0.0001197153
-0.0003308495
-0.0001132145
-0.0003603321
-0.0001057788
-0.00039102
-9.744414e-05
-0.0004227109
-8.836346e-05
-0.0004551977
-7.875034e-05
-0.000488379
-6.879754e-05
-0.0005223283
-5.865902e-05
-0.000557242
-4.846313e-05
-0.0005934417
-3.832131e-05
-0.0006314689
-2.834025e-05
-0.0006722688
-1.863635e-05
-0.0007176338
-9.361413e-06
-0.0007706882
-0.0008185765
-8.668414e-06
0.0006746793
-1.584743e-05
0.0006495208
-2.106064e-05
0.0006202498
-2.50664e-05
0.0005945241
-2.851379e-05
0.0005699362
-3.173596e-05
0.0005456384
-3.491102e-05
0.0005214411
-3.813695e-05
0.0004973172
-4.147e-05
0.000473291
-4.494099e-05
0.0004494005
-4.856005e-05
0.000425686
-5.22843e-05
0.0004021532
-5.605152e-05
0.0003788604
-5.982384e-05
0.0003558448
-6.350579e-05
0.0003330108
-6.697277e-05
0.0003103338
-7.016947e-05
0.0002879048
-7.306348e-05
0.0002657914
-7.533207e-05
0.0002440639
-7.719727e-05
0.0002228816
-7.891836e-05
0.0002021344
-8.055714e-05
0.0001818223
-8.214488e-05
0.0001619132
-8.36729e-05
0.0001423648
-8.513137e-05
0.0001231581
-8.652086e-05
0.0001042754
-8.784274e-05
8.567683e-05
-8.909183e-05
6.730549e-05
-9.025631e-05
4.909967e-05
-9.132266e-05
3.100182e-05
-9.228546e-05
1.29568e-05
-9.290228e-05
-4.835659e-06
-9.34319e-05
-2.300036e-05
-9.385488e-05
-4.133706e-05
-9.415492e-05
-5.991299e-05
-9.431639e-05
-7.880442e-05
-9.432169e-05
-9.809418e-05
-9.415183e-05
-0.0001178687
-9.378602e-05
-0.0001382188
-9.320089e-05
-0.0001592405
-9.236964e-05
-0.0001810343
-9.125926e-05
-0.0002037055
-8.985666e-05
-0.0002273491
-8.80442e-05
-0.0002521021
-8.583277e-05
-0.0002780468
-8.336905e-05
-0.0003051686
-8.035056e-05
-0.0003338681
-7.648455e-05
-0.0003641982
-7.167407e-05
-0.0003958306
-6.593186e-05
-0.0004284532
-5.953875e-05
-0.0004615909
-5.28435e-05
-0.0004950744
-4.602291e-05
-0.0005291491
-3.914928e-05
-0.0005641159
-3.227657e-05
-0.0006003146
-2.54559e-05
-0.0006382898
-1.8744e-05
-0.000678981
-1.222438e-05
-0.0007241538
-6.06e-06
-0.000776853
-0.0008246366
-4.211026e-06
0.0006788914
-6.505857e-06
0.0006518167
-6.733679e-06
0.0006204785
-6.197146e-06
0.0005939883
-5.440673e-06
0.0005691803
-4.78067e-06
0.0005449788
-4.387098e-06
0.0005210478
-4.356427e-06
0.0004972867
-4.744263e-06
0.000473679
-5.578169e-06
0.0004502345
-6.859266e-06
0.0004269672
-8.58177e-06
0.0004038758
-1.065753e-05
0.0003809362
-1.28751e-05
0.0003580624
-1.512766e-05
0.0003352634
-1.726274e-05
0.0003124689
-1.914467e-05
0.0002897868
-2.07007e-05
0.0002673474
-2.193406e-05
0.0002452973
-2.294808e-05
0.0002238957
-2.39785e-05
0.0002031648
-2.509041e-05
0.0001829342
-2.628596e-05
0.0001631088
-2.754713e-05
0.000143626
-2.88682e-05
0.0001244792
-3.026864e-05
0.0001056759
-3.176215e-05
8.717038e-05
-3.332288e-05
6.886625e-05
-3.491558e-05
5.069241e-05
-3.650491e-05
3.259118e-05
-3.806568e-05
1.45176e-05
-3.942191e-05
-3.479396e-06
-4.078301e-05
-2.163924e-05
-4.213863e-05
-3.998143e-05
-4.346406e-05
-5.858754e-05
-4.474916e-05
-7.751932e-05
-4.598255e-05
-9.686078e-05
-4.715397e-05
-0.0001166972
-4.825274e-05
-0.0001371201
-4.926651e-05
-0.0001582268
-5.017792e-05
-0.0001801229
-5.096071e-05
-0.0002029227
-5.157626e-05
-0.0002267336
-5.196958e-05
-0.0002517089
-5.197276e-05
-0.0002780437
-5.124458e-05
-0.0003058969
-4.98104e-05
-0.0003353024
-4.777164e-05
-0.0003662371
-4.493906e-05
-0.0003986633
-4.130092e-05
-0.0004320915
-3.712732e-05
-0.0004657647
-3.279243e-05
-0.0004994095
-2.846465e-05
-0.000533477
-2.414795e-05
-0.0005684327
-1.985955e-05
-0.0006046032
-1.56295e-05
-0.00064252
-1.149707e-05
-0.0006831136
-7.515811e-06
-0.0007281353
-3.768467e-06
-0.0007806007
-0.0008284051
-2.565358e-06
0.0006814577
-2.739927e-06
0.000651992
-1.444608e-06
0.0006191837
6.32352e-07
0.0005919118
3.064078e-06
0.0005667489
5.619747e-06
0.0005424234
8.186035e-06
0.0005184817
1.070299e-05
0.0004947699
1.313276e-05
0.0004712493
1.542536e-05
0.000447942
1.749557e-05
0.000424897
1.909497e-05
0.0004022764
1.996594e-05
0.0003800652
2.009589e-05
0.0003579325
1.966989e-05
0.0003356894
1.879619e-05
0.0003133426
1.763331e-05
0.0002909497
1.631861e-05
0.0002686621
1.489991e-05
0.000246716
1.355941e-05
0.0002252362
1.242353e-05
0.0002043007
1.14628e-05
0.000183895
1.062109e-05
0.0001639506
9.831664e-06
0.0001444154
9.041161e-06
0.0001252698
8.212119e-06
0.0001065049
7.313406e-06
8.80691e-05
6.312019e-06
6.986765e-05
5.161089e-06
5.184335e-05
3.832665e-06
3.391962e-05
2.346262e-06
1.600401e-05
8.026683e-07
-1.935794e-06
-9.191049e-07
-1.991746e-05
-2.75138e-06
-3.814915e-05
-4.682128e-06
-5.66568e-05
-6.678177e-06
-7.552327e-05
-8.721455e-06
-9.481752e-05
-1.079673e-05
-0.000114622
-1.289505e-05
-0.0001350218
-1.501821e-05
-0.0001561036
-1.717168e-05
-0.0001779694
-1.93248e-05
-0.0002007697
-2.140544e-05
-0.000224653
-2.333242e-05
-0.000249782
-2.49543e-05
-0.0002764219
-2.608662e-05
-0.0003047646
-2.654056e-05
-0.0003348485
-2.613834e-05
-0.0003666394
-2.499422e-05
-0.0003998076
-2.332512e-05
-0.0004337607
-2.11494e-05
-0.0004679405
-1.861631e-05
-0.0005019427
-1.602841e-05
-0.0005360651
-1.349778e-05
-0.0005709635
-1.102963e-05
-0.0006070715
-8.630073e-06
-0.0006449197
-6.310023e-06
-0.0006854338
-4.091684e-06
-0.0007303539
-2.022162e-06
-0.0007826705
-0.0008304273
-1.266173e-06
0.000682725
2.214806e-07
0.0006505053
3.352915e-06
0.0006160529
7.425079e-06
0.00058784
1.189087e-05
0.0005622834
1.646155e-05
0.0005378529
2.0965e-05
0.0005139783
2.528414e-05
0.0004904508
2.931714e-05
0.0004672164
3.295758e-05
0.0004443015
3.606413e-05
0.0004217904
3.855631e-05
0.0003997842
4.062185e-05
0.0003779997
4.240525e-05
0.000356149
4.395861e-05
0.000334136
4.52147e-05
0.0003120865
4.599299e-05
0.0002901714
4.619756e-05
0.0002684575
4.593846e-05
0.0002469751
4.544874e-05
0.0002257259
4.489621e-05
0.0002048532
4.432208e-05
0.0001844691
4.370757e-05
0.0001645651
4.300677e-05
0.0001451162
4.218887e-05
0.0001260877
4.125395e-05
0.0001074399
4.020644e-05
8.911662e-05
3.902365e-05
7.105044e-05
3.769271e-05
5.317429e-05
3.621838e-05
3.539395e-05
3.458159e-05
1.76408e-05
3.272816e-05
-8.236441e-08
3.05151e-05
-1.770441e-05
2.808788e-05
-3.572193e-05
2.550475e-05
-5.407368e-05
2.27847e-05
-7.280325e-05
1.994473e-05
-9.197757e-05
1.699896e-05
-0.0001116762
1.396484e-05
-0.0001319877
1.086534e-05
-0.0001530042
7.731842e-06
-0.000174836
4.613926e-06
-0.0001976518
1.601485e-06
-0.0002216406
-1.206329e-06
-0.0002469742
-3.782976e-06
-0.0002738453
-6.101316e-06
-0.0003024464
-8.029464e-06
-0.0003329205
-9.43815e-06
-0.0003652308
-1.017722e-05
-0.0003990686
-1.008173e-05
-0.0004338563
-9.239923e-06
-0.0004687824
-7.974092e-06
-0.0005032086
-6.655532e-06
-0.0005373837
-5.432295e-06
-0.0005721868
-4.293796e-06
-0.00060821
-3.232702e-06
-0.0006459809
-2.255061e-06
-0.0006864115
-1.385796e-06
-0.0007312232
-6.825544e-07
-0.0007833739
-0.0008311098
-1.455098e-07
0.0006828712
2.317378e-06
0.0006480431
7.054002e-06
0.0006113168
1.277946e-05
0.0005821149
1.889057e-05
0.0005561725
2.505127e-05
0.0005316924
3.104312e-05
0.0005079866
3.670804e-05
0.0004847859
4.192199e-05
0.0004620024
4.659408e-05
0.0004396294
5.068783e-05
0.0004176966
5.424969e-05
0.0003962222
5.730802e-05
0.0003749412
5.992041e-05
0.0003535366
6.209222e-05
0.0003319641
6.385625e-05
0.0003103224
6.533654e-05
0.000288691
6.660568e-05
0.0002671883
6.767436e-05
0.0002459063
6.840673e-05
0.0002249935
6.875609e-05
0.0002045038
6.88119e-05
0.0001844133
6.859846e-05
0.0001647785
6.812261e-05
0.000145592
6.738325e-05
0.000126827
6.638456e-05
0.0001084385
6.513842e-05
9.036274e-05
6.366884e-05
7.252001e-05
6.201763e-05
5.482548e-05
6.020738e-05
3.720418e-05
5.822071e-05
1.962747e-05
5.598535e-05
2.152983e-06
5.335069e-05
-1.506977e-05
5.039087e-05
-3.276213e-05
4.718765e-05
-5.087047e-05
4.379059e-05
-6.940622e-05
4.022524e-05
-8.841224e-05
3.651363e-05
-0.0001079647
3.268557e-05
-0.0001281597
2.879093e-05
-0.0001491096
2.490065e-05
-0.0001709458
2.107527e-05
-0.0001938265
1.736649e-05
-0.0002179319
1.384616e-05
-0.0002434539
1.058981e-05
-0.0002705891
7.649439e-06
-0.0002995061
5.031338e-06
-0.0003303025
2.752231e-06
-0.0003629518
9.07448e-07
-0.000397224
-3.928066e-07
-0.0004325561
-1.088611e-06
-0.0004680867
-1.288134e-06
-0.0005030092
-1.261036e-06
-0.0005374109
-1.197522e-06
-0.0005722504
-1.090021e-06
-0.0006083176
-9.404191e-07
-0.0006461306
-7.557912e-07
-0.0006865962
-5.407366e-07
-0.0007314384
-2.737817e-07
-0.0007836409
-0.0008313836
4.869996e-07
0.000682385
4.14728e-06
0.0006443834
9.826091e-06
0.0006056384
1.655737e-05
0.000575384
2.373801e-05
0.0005489921
3.099555e-05
0.0005244349
3.80899e-05
0.0005008922
4.48561e-05
0.0004780197
5.118031e-05
0.0004556781
5.699055e-05
0.000433819
6.225428e-05
0.0004124327
6.695944e-05
0.000391517
7.107059e-05
0.00037083
7.456465e-05
0.0003500424
7.747796e-05
0.0003290506
7.990084e-05
0.0003078994
8.190031e-05
0.0002866914
8.352052e-05
0.000265568
8.475573e-05
0.0002446711
8.563957e-05
0.0002241096
8.621028e-05
0.0002039331
8.641452e-05
0.000184209
8.625374e-05
0.0001649392
8.573572e-05
0.00014611
8.487681e-05
0.0001276859
8.369932e-05
0.000109616
8.222638e-05
9.183566e-05
8.047686e-05
7.426951e-05
7.846704e-05
5.683528e-05
7.621669e-05
3.945451e-05
7.37512e-05
2.209294e-05
7.1071e-05
4.833162e-06
6.806515e-05
-1.206394e-05
6.461064e-05
-2.930764e-05
6.08844e-05
-4.714426e-05
5.695588e-05
-6.547773e-05
5.286255e-05
-8.431894e-05
4.863808e-05
-0.0001037402
4.432282e-05
-0.0001238445
3.996807e-05
-0.0001447549
3.563763e-05
-0.0001666154
3.140325e-05
-0.0001895922
2.733839e-05
-0.0002138671
2.351221e-05
-0.0002396278
1.998137e-05
-0.0002670583
1.679206e-05
-0.0002963169
1.398398e-05
-0.0003274945
1.158006e-05
-0.000360548
9.572719e-06
-0.0003952167
7.966613e-06
-0.0004309501
6.797765e-06
-0.000466918
6.052824e-06
-0.0005022644
5.484115e-06
-0.0005368423
4.87527e-06
-0.0005716416
4.224581e-06
-0.000607667
3.521955e-06
-0.000645428
2.7493e-06
-0.0006858236
1.884104e-06
-0.0007305732
9.016453e-07
-0.0007826585
-0.000830482
7.046078e-07
0.000681681
4.912074e-06
0.0006401765
1.128396e-05
0.0005992669
1.875762e-05
0.0005679106
2.670598e-05
0.0005410439
3.474093e-05
0.0005164
4.261087e-05
0.0004930223
5.014619e-05
0.0004704843
5.723629e-05
0.0004485879
6.381657e-05
0.0004272386
6.986031e-05
0.0004063888
7.536984e-05
0.0003860073
8.031761e-05
0.000365882
8.466314e-05
0.0003456967
8.840391e-05
0.0003253097
9.154419e-05
0.000304759
9.408818e-05
0.0002841473
9.60562e-05
0.0002635999
9.749352e-05
0.0002432336
9.845752e-05
0.0002231455
9.896371e-05
0.0002034268
9.901725e-05
0.0001841554
9.863011e-05
0.0001653263
9.782491e-05
0.0001469152
9.662566e-05
0.0001288851
9.505979e-05
0.0001111818
9.315778e-05
9.373763e-05
9.095048e-05
7.647678e-05
8.846403e-05
5.93217e-05
8.571534e-05
4.220318e-05
8.271891e-05
2.508933e-05
7.950984e-05
8.042205e-06
7.617814e-05
-8.732261e-06
7.238493e-05
-2.551446e-05
6.829835e-05
-4.305771e-05
6.401302e-05
-6.119243e-05
5.958665e-05
-7.98926e-05
5.506538e-05
-9.921898e-05
5.049641e-05
-0.0001192755
4.593361e-05
-0.0001401921
4.143714e-05
-0.000162119
3.706839e-05
-0.0001852235
3.288631e-05
-0.0002096851
2.894533e-05
-0.0002356869
2.529046e-05
-0.0002634035
2.195228e-05
-0.0002929788
1.894819e-05
-0.0003244905
1.629279e-05
-0.0003578927
1.400826e-05
-0.0003929323
1.211513e-05
-0.0004290571
1.059859e-05
-0.0004654015
9.382385e-06
-0.0005010482
8.269073e-06
-0.0005357291
7.115856e-06
-0.0005704885
5.931489e-06
-0.0006064827
4.723678e-06
-0.0006442202
3.502177e-06
-0.0006846022
2.277595e-06
-0.0007293486
1.07823e-06
-0.0007814592
-0.0008294037
7.601119e-07
0.0006809215
5.255275e-06
0.0006356818
1.198649e-05
0.0005925361
1.986744e-05
0.0005600299
2.825809e-05
0.0005326533
3.675889e-05
0.0005078992
4.510894e-05
0.0004846722
5.313699e-05
0.0004624561
6.07351e-05
0.0004409896
6.784381e-05
0.0004201297
7.444273e-05
0.0003997897