/*--------------------------------*- C++ -*----------------------------------*\
| =========                 |                                                 |
| \\      /  F ield         | OpenFOAM: The Open Source CFD Toolbox           |
|  \\    /   O peration     | Version:  2312                                  |
|   \\  /    A nd           | Website:  www.openfoam.com                      |
|    \\/     M anipulation  |                                                 |
\*---------------------------------------------------------------------------*/
FoamFile
{
    version     2.0;
    format      ascii;
    arch        "LSB;label=32;scalar=64";
    class       volScalarField;
    location    "4350";
    object      qin;
}
// * * * * * * * * * * * * * * * * * * * * * * * * * * * * * * * * * * * * * //

dimensions      [1 0 -3 0 0 0 0];

internalField   uniform 0;

boundaryField
{
    plate
    {
        type            calculated;
        value           nonuniform List<scalar> 
200
(
2291.706
2247.132
2220.27
2195.628
2167.666
2144.972
2136.737
2142.691
2155.078
2167.336
2175.786
2176.648
2167.78
2152.638
2138.308
2130.04
2129.912
2138.794
2156.028
2177.496
2196.512
2207.667
2210.134
2208.23
2208.752
2215.904
2228.067
2240.525
2250.974
2260.211
2268.004
2271.729
2270.209
2265.964
2261.895
2258.322
2255.85
2258.602
2270.388
2288.399
2304.374
2311.872
2309.977
2301.483
2291.016
2284.23
2285.315
2294.164
2306.803
2318.498
2326.147
2328.788
2327.232
2323.326
2318.959
2315.512
2314.029
2315.215
2318.736
2322.833
2325.257
2324.88
2322.484
2320.115
2319.699
2321.931
2326.009
2330.22
2333.032
2334.053
2334.224
2335.078
2337.575
2341.305
2344.63
2345.627
2343.21
2337.738
2330.794
2324.358
2319.884
2317.759
2317.39
2317.746
2318.02
2318.029
2318.171
2319.043
2320.965
2323.726
2326.661
2329.008
2330.322
2330.718
2330.816
2331.444
2333.245
2336.393
2340.536
2344.966
2348.909
2351.782
2353.329
2353.604
2352.852
2351.387
2349.511
2347.497
2345.607
2344.096
2343.181
2342.984
2343.489
2344.538
2345.886
2347.284
2348.563
2349.674
2350.67
2351.648
2352.677
2353.759
2354.825
2355.786
2356.59
2357.264
2357.913
2358.675
2359.652
2360.845
2362.14
2363.341
2364.246
2364.735
2364.819
2364.631
2364.351
2364.109
2363.911
2363.636
2363.117
2362.275
2361.243
2360.395
2360.245
2361.238
2363.502
2366.675
2369.915
2372.107
2372.219
2369.679
2364.626
2357.925
2350.938
2345.086
2341.352
2339.872
2339.803
2339.572
2337.531
2332.804
2325.982
2319.254
2315.766
2318.357
2328.186
2343.919
2361.931
2377.546
2386.804
2388.011
2382.421
2373.777
2366.861
2365.541
2370.88
2380.049
2386.836
2384.34
2369.278
2345.63
2324.476
2318.68
2335.183
2370.54
2413.24
2450.558
2474.09
2480.73
2471.191
2450.105
2428.82
2426.762
2463.558
2541.232
2635.157
2714.655
2790.334
2921.586
)
;
    }
    riser
    {
        type            calculated;
        value           nonuniform List<scalar> 
200
(
4858.762
4741.489
4727.312
4783.837
4896.704
5016.248
5130.309
5148.571
4975.196
4817.701
4950.297
5181.806
5187.541
5116.369
5263.421
5538.318
5674.002
5607.332
5469.006
5399.151
5461.751
5642.04
5834.467
5908.966
5874.619
5850.662
5828.23
5715.626
5623.603
5768.801
6098.736
6310.836
6260.05
6166.023
6339.023
6749.163
7066.333
7141.968
7092.326
6914.332
6536.268
6188.954
6178.882
6438.559
6684.921
6766.402
6657.654
6382.789
6055.18
5821.168
5723.785
5699.252
5694.504
5729.022
5828.738
5969.2
6111.985
6245.614
6367.014
6459.341
6504.095
6497.92
6452.788
6387.655
6323.48
6282.322
6283.633
6335.021
6424.091
6519.95
6586.446
6599.621
6557.94
6479.447
6389.308
6306.685
6238.594
6182.522
6134.035
6093.499
6067.739
6066.141
6094.164
6148.6
6217.528
6284.765
6336.106
6364.07
6369.14
6357.637
6337.917
6317.015
6299.045
6285.452
6276.206
6270.902
6269.177
6270.538
6274.044
6278.303
6281.931
6284.236
6285.716
6288.001
6293.23
6303.102
6318.06
6336.928
6357.153
6375.503
6388.933
6395.3
6393.712
6384.497
6368.899
6348.678
6325.769
6302.06
6279.285
6258.971
6242.397
6230.512
6223.871
6222.585
6226.33
6234.425
6245.945
6259.876
6275.265
6291.337
6307.591
6323.801
6339.942
6356.039
6371.982
6387.386
6401.54
6413.511
6422.342
6427.282
6427.932
6424.247
6416.409
6404.69
6389.414
6371.087
6350.657
6329.71
6310.435
6295.204
6285.839
6282.82
6284.798
6288.754
6290.943
6288.442
6280.768
6270.852
6264.675
6269.347
6290.116
6327.421
6375.391
6422.743
6456.017
6463.852
6440.475
6387.059
6310.795
6222.502
6133.786
6054.621
5991.816
5948.314
5922.928
5910.73
5905.029
5901.545
5903.569
5924.362
5981.457
6079.958
6192.763
6258.643
6213.07
6038.232
5791.518
5573.949
5452.086
5409.003
5393.181
5413.996
5549.335
5772.302
5868.539
5625.861
5125.037
4749.429
4630.028
4666.364
)
;
    }
    topAndBottom
    {
        type            calculated;
        value           nonuniform List<scalar> 
120
(
7453.97
6614.857
6044.213
5688.027
5431.065
5238.179
5101.4
5004.343
4927.658
4860.534
4801.3
4751.121
4709.289
4673.103
4640.124
4609.762
4583.113
4561.741
4546.492
4536.923
4531.402
4527.644
4523.427
4517.183
4508.248
4496.715
4483.053
4467.731
4451.041
4433.155
4414.314
4394.998
4375.967
4358.156
4342.469
4329.522
4319.454
4311.854
4305.868
4300.464
4294.747
4288.186
4280.706
4272.639
4264.648
4257.562
4252.03
4247.925
4243.777
4236.808
4224.026
4204.147
4179.184
4154.129
4133.933
4119.233
4105.087
4085.046
4062.424
4053.561
6469.551
6491.172
6485.564
6354.333
6061.589
5687.501
5351.898
5121.373
4992.507
4926.1
4887.955
4876.41
4920.957
5049.383
5249.992
5462.779
5608.82
5635.632
5543.947
5377.994
5191.148
5014.78
4850.047
4682.088
4501.221
4315.144
4146.356
4019.977
3951.323
3939.807
3970.316
4019.424
4062.884
4081.833
4066.495
4017.102
3942.304
3855.767
3772.071
3703.219
3656.761
3635.775
3640.1
3667.803
3716.154
3781.994
3861.778
3951.528
4046.68
4141.923
4231.551
4310.715
4376.943
4430.253
4471.023
4497.052
4504.585
4488.565
4466.139
4396.615
)
;
    }
    frontAndBack
    {
        type            empty;
    }
}


// ************************************************************************* //
