/*--------------------------------*- C++ -*----------------------------------*\
| =========                 |                                                 |
| \\      /  F ield         | OpenFOAM: The Open Source CFD Toolbox           |
|  \\    /   O peration     | Version:  2312                                  |
|   \\  /    A nd           | Website:  www.openfoam.com                      |
|    \\/     M anipulation  |                                                 |
\*---------------------------------------------------------------------------*/
FoamFile
{
    version     2.0;
    format      ascii;
    arch        "LSB;label=32;scalar=64";
    class       volVectorField;
    location    "4350";
    object      U;
}
// * * * * * * * * * * * * * * * * * * * * * * * * * * * * * * * * * * * * * //

dimensions      [0 1 -1 0 0 0 0];

internalField   nonuniform List<vector> 
12000
(
(-0.02885711 0.07084347 0)
(-0.06859819 0.06698059 0)
(-0.1109575 0.06515599 0)
(-0.1556449 0.06542799 0)
(-0.1977042 0.07257982 0)
(-0.242973 0.08377869 0)
(-0.2888227 0.0840944 0)
(-0.3329352 0.07232652 0)
(-0.3702799 0.05530246 0)
(-0.4028973 0.05704675 0)
(-0.4371602 0.05888443 0)
(-0.469602 0.05895901 0)
(-0.5011335 0.06075773 0)
(-0.5319033 0.04646297 0)
(-0.5553248 0.02222189 0)
(-0.5735654 0.02750278 0)
(-0.5964396 0.05723402 0)
(-0.6239218 0.05398596 0)
(-0.6437676 0.0117028 0)
(-0.6527505 -0.002528921 0)
(-0.6646093 0.03505654 0)
(-0.6857475 0.05622893 0)
(-0.7041221 0.02120171 0)
(-0.7104153 -0.01220009 0)
(-0.7139382 0.004006202 0)
(-0.7240399 0.02880739 0)
(-0.7352212 0.01918337 0)
(-0.7404872 -0.0004230809 0)
(-0.7427347 -0.001939846 0)
(-0.7455227 0.002059448 0)
(-0.7474251 0.002623643 0)
(-0.7494614 0.005472511 0)
(-0.7513748 0.003178874 0)
(-0.7510508 -0.005370986 0)
(-0.7473894 -0.01972075 0)
(-0.7397804 -0.02354733 0)
(-0.7331246 -0.0009634722 0)
(-0.7324022 0.02345616 0)
(-0.7318225 0.002892102 0)
(-0.7218869 -0.04583832 0)
(-0.7019289 -0.0699909 0)
(-0.6803807 -0.01853716 0)
(-0.6782887 0.05160994 0)
(-0.6779159 0.0350206 0)
(-0.6672363 -0.07231388 0)
(-0.6307009 -0.1256477 0)
(-0.5937434 -0.03440245 0)
(-0.5877096 0.06480696 0)
(-0.5825804 0.009117044 0)
(-0.5521476 -0.1300133 0)
(-0.4992883 -0.1132529 0)
(-0.4669193 0.00167436 0)
(-0.4488235 -0.01277941 0)
(-0.4064695 -0.1097189 0)
(-0.3516948 -0.1097941 0)
(-0.3044881 -0.06247185 0)
(-0.251095 -0.08408221 0)
(-0.1893141 -0.1140995 0)
(-0.105254 -0.1241586 0)
(-0.04237901 -0.1057308 0)
(-0.03014382 0.1931062 0)
(-0.06091311 0.1816531 0)
(-0.1105547 0.1841399 0)
(-0.1510679 0.18336 0)
(-0.1938035 0.1783698 0)
(-0.2298973 0.1760454 0)
(-0.2645171 0.1728045 0)
(-0.2929411 0.1645605 0)
(-0.327624 0.1451863 0)
(-0.3593786 0.1364226 0)
(-0.3870838 0.131597 0)
(-0.412237 0.1252864 0)
(-0.4344539 0.1182719 0)
(-0.454607 0.1089239 0)
(-0.4766875 0.09780424 0)
(-0.5000327 0.09089156 0)
(-0.5170191 0.08768032 0)
(-0.5271782 0.081651 0)
(-0.5402169 0.07086232 0)
(-0.5594749 0.06278921 0)
(-0.5749112 0.06005232 0)
(-0.5801934 0.05736032 0)
(-0.5845528 0.04937922 0)
(-0.5962035 0.04044723 0)
(-0.6090666 0.03554859 0)
(-0.6147003 0.03268278 0)
(-0.6164954 0.02811379 0)
(-0.6208317 0.02199304 0)
(-0.6263902 0.01660382 0)
(-0.6297278 0.01216049 0)
(-0.6314232 0.008453638 0)
(-0.6316502 0.00668686 0)
(-0.6303722 0.001019021 0)
(-0.6280422 -0.005430669 0)
(-0.6269172 -0.01197659 0)
(-0.6265945 -0.01691613 0)
(-0.6236413 -0.02008115 0)
(-0.6138493 -0.02417676 0)
(-0.6007684 -0.03208825 0)
(-0.593832 -0.04025123 0)
(-0.5933885 -0.04556565 0)
(-0.5901411 -0.05015078 0)
(-0.5715935 -0.0557737 0)
(-0.5409144 -0.06242931 0)
(-0.5242921 -0.07039846 0)
(-0.5225538 -0.07986727 0)
(-0.5177259 -0.08878354 0)
(-0.4886699 -0.09501434 0)
(-0.4436052 -0.1051795 0)
(-0.42468 -0.1172245 0)
(-0.4192504 -0.1299982 0)
(-0.3934691 -0.1445909 0)
(-0.349554 -0.1566956 0)
(-0.3154507 -0.1680778 0)
(-0.2989963 -0.1850406 0)
(-0.2446632 -0.2271301 0)
(-0.2132488 -0.2412761 0)
(-0.150265 -0.2946635 0)
(-0.09436742 -0.3186078 0)
(-0.04567662 -0.3305544 0)
(-0.02696005 0.3257155 0)
(-0.05208881 0.3108341 0)
(-0.09347029 0.3072544 0)
(-0.1241084 0.3019987 0)
(-0.1581689 0.2920785 0)
(-0.1881682 0.2794787 0)
(-0.2156154 0.263963 0)
(-0.2437123 0.2471188 0)
(-0.2676423 0.2393675 0)
(-0.2966743 0.2197928 0)
(-0.3195858 0.2052473 0)
(-0.3425742 0.1912849 0)
(-0.3622621 0.1778938 0)
(-0.3797632 0.1648289 0)
(-0.3968628 0.1518229 0)
(-0.4132653 0.140447 0)
(-0.4279997 0.1300165 0)
(-0.4409199 0.1190511 0)
(-0.4533059 0.107765 0)
(-0.4656351 0.09778288 0)
(-0.4767254 0.08941232 0)
(-0.4858392 0.08093649 0)
(-0.4939254 0.07141093 0)
(-0.5019977 0.0621167 0)
(-0.5095233 0.05424262 0)
(-0.5155772 0.04695861 0)
(-0.5203395 0.03917138 0)
(-0.5244188 0.03115599 0)
(-0.5278191 0.02354551 0)
(-0.530159 0.01629033 0)
(-0.5319272 0.008917114 0)
(-0.5322514 0.003739334 0)
(-0.531139 -0.005435114 0)
(-0.5293855 -0.01365034 0)
(-0.527038 -0.02196662 0)
(-0.5238759 -0.03014952 0)
(-0.519416 -0.0378607 0)
(-0.5132958 -0.04566267 0)
(-0.5060308 -0.05464206 0)
(-0.4984421 -0.06443706 0)
(-0.4901361 -0.07402314 0)
(-0.4801549 -0.08284348 0)
(-0.4683842 -0.09206384 0)
(-0.4551818 -0.1031272 0)
(-0.4411098 -0.115714 0)
(-0.4259763 -0.1293053 0)
(-0.4094366 -0.1417872 0)
(-0.3904756 -0.154272 0)
(-0.3695379 -0.1689702 0)
(-0.3478178 -0.1848931 0)
(-0.3239774 -0.1988907 0)
(-0.3039333 -0.2077968 0)
(-0.2713203 -0.2303872 0)
(-0.2478517 -0.251371 0)
(-0.2064515 -0.2956673 0)
(-0.1776187 -0.3227154 0)
(-0.1402135 -0.3597237 0)
(-0.1070887 -0.4043865 0)
(-0.06332123 -0.4579217 0)
(-0.02662249 -0.4789741 0)
(-0.02010573 0.420175 0)
(-0.04322682 0.3950866 0)
(-0.07315314 0.386995 0)
(-0.09763585 0.3767921 0)
(-0.1231724 0.3631901 0)
(-0.1461055 0.3471401 0)
(-0.1697514 0.3293328 0)
(-0.1899309 0.3140219 0)
(-0.2123247 0.2996634 0)
(-0.227212 0.2900684 0)
(-0.250316 0.267978 0)
(-0.2651843 0.2518112 0)
(-0.2867844 0.2272981 0)
(-0.3025294 0.2103919 0)
(-0.3185588 0.1955273 0)
(-0.3330923 0.181508 0)
(-0.3468694 0.1678847 0)
(-0.3596065 0.1545845 0)
(-0.3713681 0.1417659 0)
(-0.3823177 0.129452 0)
(-0.3921935 0.1177259 0)
(-0.4009429 0.1063639 0)
(-0.4087885 0.09516382 0)
(-0.4159394 0.08416359 0)
(-0.4222903 0.07348788 0)
(-0.4276455 0.06307181 0)
(-0.432035 0.05276944 0)
(-0.4355909 0.04252987 0)
(-0.4381758 0.0323879 0)
(-0.4403622 0.02226291 0)
(-0.4415769 0.01447037 0)
(-0.4416536 0.002977246 0)
(-0.4405622 -0.007734897 0)
(-0.4389045 -0.0182804 0)
(-0.4363835 -0.0288751 0)
(-0.4330439 -0.03974081 0)
(-0.4287294 -0.05080335 0)
(-0.4233456 -0.06216732 0)
(-0.4169278 -0.0739726 0)
(-0.4096109 -0.08623262 0)
(-0.4013679 -0.09886198 0)
(-0.3920246 -0.1119605 0)
(-0.3811891 -0.1257327 0)
(-0.3695462 -0.139905 0)
(-0.3569751 -0.1552044 0)
(-0.3431261 -0.1717395 0)
(-0.3281345 -0.189393 0)
(-0.3119949 -0.2082896 0)
(-0.2944983 -0.2278867 0)
(-0.2746029 -0.2455475 0)
(-0.2591963 -0.2590692 0)
(-0.231643 -0.2910285 0)
(-0.2075116 -0.3204229 0)
(-0.1797041 -0.3501787 0)
(-0.1538658 -0.3794576 0)
(-0.1283597 -0.411532 0)
(-0.1007673 -0.4497687 0)
(-0.07336259 -0.4966295 0)
(-0.04379002 -0.5502137 0)
(-0.01732178 -0.5781987 0)
(-0.0150849 0.5025627 0)
(-0.03563811 0.4717294 0)
(-0.05937735 0.4585165 0)
(-0.079998 0.4444077 0)
(-0.1007285 0.4276986 0)
(-0.1200129 0.4089185 0)
(-0.1389421 0.3889049 0)
(-0.1570574 0.3682799 0)
(-0.1739528 0.3474576 0)
(-0.1893842 0.3268113 0)
(-0.2035854 0.3097567 0)
(-0.2167871 0.2948966 0)
(-0.2301087 0.2772736 0)
(-0.2451138 0.2557662 0)
(-0.2583538 0.2363992 0)
(-0.2706353 0.2199489 0)
(-0.2828193 0.2035072 0)
(-0.2928435 0.1884677 0)
(-0.3028689 0.1722124 0)
(-0.3121001 0.1567633 0)
(-0.320358 0.1421467 0)
(-0.3278041 0.1280481 0)
(-0.3344434 0.1143103 0)
(-0.3403173 0.1008815 0)
(-0.3454284 0.08773811 0)
(-0.3497618 0.07482222 0)
(-0.3533267 0.06205837 0)
(-0.3561073 0.04939422 0)
(-0.358259 0.03678846 0)
(-0.3595498 0.0267371 0)
(-0.3600288 0.01333179 0)
(-0.3595106 0.0005237302 0)
(-0.3585609 -0.01228553 0)
(-0.356704 -0.02510143 0)
(-0.3543647 -0.03799047 0)
(-0.351392 -0.05127114 0)
(-0.3474346 -0.06489005 0)
(-0.3426569 -0.07884761 0)
(-0.3370457 -0.09323446 0)
(-0.3306146 -0.1081243 0)
(-0.3233303 -0.1235794 0)
(-0.315371 -0.139684 0)
(-0.3057682 -0.1565505 0)
(-0.2967155 -0.1709853 0)
(-0.2851005 -0.1905887 0)
(-0.2734324 -0.210279 0)
(-0.260869 -0.2304689 0)
(-0.2464028 -0.2508416 0)
(-0.2338305 -0.2690019 0)
(-0.2179682 -0.2922525 0)
(-0.1986915 -0.321937 0)
(-0.1794218 -0.3511198 0)
(-0.1606917 -0.3792283 0)
(-0.1413849 -0.4087892 0)
(-0.1212338 -0.4414596 0)
(-0.1000836 -0.4778153 0)
(-0.07807369 -0.5188362 0)
(-0.05628723 -0.566075 0)
(-0.03340985 -0.6221785 0)
(-0.01246617 -0.654175 0)
(-0.01117851 0.5656996 0)
(-0.02788672 0.5312974 0)
(-0.04590834 0.513848 0)
(-0.06205696 0.4967314 0)
(-0.07804174 0.4777775 0)
(-0.09314335 0.457276 0)
(-0.1079036 0.43585 0)
(-0.1221624 0.4140251 0)
(-0.1359621 0.3921003 0)
(-0.149436 0.3702112 0)
(-0.1619374 0.3484006 0)
(-0.1739709 0.3276544 0)
(-0.1835124 0.3102379 0)
(-0.1936571 0.291687 0)
(-0.2052724 0.2702432 0)
(-0.2153694 0.2501784 0)
(-0.2248541 0.2316006 0)
(-0.2334598 0.2136261 0)
(-0.2415145 0.1961068 0)
(-0.2489765 0.1790756 0)
(-0.2557989 0.1625254 0)
(-0.2619497 0.1464155 0)
(-0.2674321 0.1306875 0)
(-0.2722549 0.115293 0)
(-0.2764238 0.1001898 0)
(-0.2799424 0.08533506 0)
(-0.2828184 0.07068602 0)
(-0.2850543 0.05620617 0)
(-0.2867565 0.04184952 0)
(-0.2875448 0.02763383 0)
(-0.2874389 0.0133104 0)
(-0.2871638 -0.001141664 0)
(-0.286479 -0.01592853 0)
(-0.2848925 -0.03096949 0)
(-0.2829353 -0.04384887 0)
(-0.2800371 -0.05999398 0)
(-0.2766443 -0.07598024 0)
(-0.2725472 -0.09212156 0)
(-0.2677989 -0.1086102 0)
(-0.2623814 -0.1255641 0)
(-0.256287 -0.1430703 0)
(-0.2495101 -0.1612085 0)
(-0.2421264 -0.1799685 0)
(-0.2336439 -0.199735 0)
(-0.2242862 -0.2206732 0)
(-0.2144919 -0.2425254 0)
(-0.2034347 -0.2646808 0)
(-0.1938029 -0.2860749 0)
(-0.1800083 -0.3127666 0)
(-0.1663439 -0.3408836 0)
(-0.1519754 -0.369375 0)
(-0.1376765 -0.3985033 0)
(-0.1227723 -0.4290148 0)
(-0.107083 -0.4615376 0)
(-0.09076328 -0.496283 0)
(-0.07406235 -0.5337731 0)
(-0.05719119 -0.5750215 0)
(-0.04061529 -0.6216734 0)
(-0.02394014 -0.6751923 0)
(-0.008660843 -0.7072431 0)
(-0.008454334 0.6149084 0)
(-0.0219417 0.5774362 0)
(-0.03576701 0.5566385 0)
(-0.04835776 0.5372504 0)
(-0.06073133 0.5165331 0)
(-0.07250082 0.4945552 0)
(-0.08396279 0.4717916 0)
(-0.09505528 0.4486433 0)
(-0.1058007 0.425414 0)
(-0.1162244 0.4023256 0)
(-0.1263163 0.3796015 0)
(-0.1359429 0.3570866 0)
(-0.1454636 0.3348031 0)
(-0.1536252 0.3151065 0)
(-0.1600192 0.2968042 0)
(-0.1688351 0.2757518 0)
(-0.1760346 0.2551981 0)
(-0.1830582 0.2353765 0)
(-0.189486 0.2160816 0)
(-0.1954053 0.1972914 0)
(-0.2007933 0.1789743 0)
(-0.2056461 0.1610906 0)
(-0.2099611 0.1435974 0)
(-0.2137394 0.1264515 0)
(-0.2169835 0.1096098 0)
(-0.2196961 0.09302736 0)
(-0.2218804 0.07665767 0)
(-0.2235367 0.06045168 0)
(-0.2246736 0.04435331 0)
(-0.2252787 0.0283394 0)
(-0.2252619 0.01221128 0)
(-0.2249999 -0.001896358 0)
(-0.2243751 -0.01863513 0)
(-0.2232643 -0.03522253 0)
(-0.221408 -0.05186857 0)
(-0.2188836 -0.06888482 0)
(-0.216067 -0.08620462 0)
(-0.212749 -0.1039085 0)
(-0.208929 -0.1220721 0)
(-0.2045806 -0.1407771 0)
(-0.1996871 -0.1601001 0)
(-0.194231 -0.180113 0)
(-0.188186 -0.2008754 0)
(-0.1815181 -0.2224046 0)
(-0.1743859 -0.2449561 0)
(-0.166203 -0.2680676 0)
(-0.158909 -0.2911063 0)
(-0.1487032 -0.3178475 0)
(-0.1387999 -0.345543 0)
(-0.1283181 -0.3740299 0)
(-0.1175272 -0.4037396 0)
(-0.1062615 -0.4346356 0)
(-0.09448799 -0.4668151 0)
(-0.08228595 -0.5005042 0)
(-0.0697587 -0.5360569 0)
(-0.05699991 -0.5740152 0)
(-0.04409471 -0.6152837 0)
(-0.03136261 -0.6615158 0)
(-0.01856834 -0.7148171 0)
(-0.006604006 -0.7479291 0)
(-0.006437553 0.6543701 0)
(-0.01699531 0.6145665 0)
(-0.02724852 0.5905251 0)
(-0.03662556 0.5689703 0)
(-0.04580119 0.5467509 0)
(-0.05459063 0.5236704 0)
(-0.06318978 0.5000244 0)
(-0.07157249 0.4761023 0)
(-0.07975375 0.4521281 0)
(-0.08772117 0.4282552 0)
(-0.09544972 0.404612 0)
(-0.1029018 0.3812872 0)
(-0.1101785 0.3582966 0)
(-0.1168368 0.3357229 0)
(-0.1237167 0.3140799 0)
(-0.1280158 0.294368 0)
(-0.1343921 0.2729479 0)
(-0.1394721 0.2518162 0)
(-0.1444796 0.2312961 0)
(-0.1490426 0.2112449 0)
(-0.1532113 0.1916444 0)
(-0.1569669 0.172459 0)
(-0.1603074 0.1536552 0)
(-0.1632316 0.1351972 0)
(-0.1657416 0.1170469 0)
(-0.1678407 0.09916357 0)
(-0.1695335 0.08150324 0)
(-0.170825 0.06401827 0)
(-0.1717222 0.04665669 0)
(-0.1722291 0.02936643 0)
(-0.1723649 0.01208618 0)
(-0.1720875 -0.003494971 0)
(-0.1713747 -0.02125787 0)
(-0.1703737 -0.03904339 0)
(-0.1689775 -0.05691982 0)
(-0.1672033 -0.07511253 0)
(-0.1650717 -0.09363671 0)
(-0.1625615 -0.1125774 0)
(-0.1596662 -0.1320122 0)
(-0.156374 -0.152023 0)
(-0.1526743 -0.1726917 0)
(-0.148552 -0.194101 0)
(-0.1439851 -0.2163277 0)
(-0.139131 -0.2395245 0)
(-0.133168 -0.2635343 0)
(-0.1282198 -0.2875845 0)
(-0.1208467 -0.31453 0)
(-0.1137629 -0.3424962 0)
(-0.1060929 -0.3713177 0)
(-0.0980453 -0.4011627 0)
(-0.08958064 -0.4320553 0)
(-0.08074424 -0.4640604 0)
(-0.07156685 -0.4972968 0)
(-0.06209679 -0.531953 0)
(-0.05240123 -0.5683154 0)
(-0.04256988 -0.6068498 0)
(-0.03270383 -0.6483461 0)
(-0.02300538 -0.6941956 0)
(-0.01352517 -0.7459274 0)
(-0.004698462 -0.7782615 0)
(-0.004785677 0.6838456 0)
(-0.01285486 0.6412226 0)
(-0.02029226 0.6143707 0)
(-0.02714637 0.5912983 0)
(-0.03380057 0.5682193 0)
(-0.04018518 0.544584 0)
(-0.04642496 0.5204931 0)
(-0.05251933 0.4961266 0)
(-0.05847951 0.4716707 0)
(-0.06429814 0.4472738 0)
(-0.06996649 0.4230488 0)
(-0.07546415 0.39908 0)
(-0.08079384 0.3754355 0)
(-0.08591386 0.3522159 0)
(-0.09059408 0.3293261 0)
(-0.09564708 0.3070948 0)
(-0.09859959 0.2864047 0)
(-0.1031251 0.2646862 0)
(-0.1066344 0.2431591 0)
(-0.1100964 0.2221218 0)
(-0.1132199 0.2014905 0)
(-0.1160412 0.1812593 0)
(-0.1185489 0.1614053 0)
(-0.120744 0.1419016 0)
(-0.1226287 0.1227164 0)
(-0.1242075 0.1038123 0)
(-0.1254863 0.08514847 0)
(-0.1264712 0.06668029 0)
(-0.1271695 0.0483581 0)
(-0.1275857 0.03012848 0)
(-0.1277477 0.01193432 0)
(-0.1275616 -0.00489674 0)
(-0.1270345 -0.02343408 0)
(-0.1263168 -0.04207126 0)
(-0.125334 -0.06088817 0)
(-0.1240904 -0.07997729 0)
(-0.1225864 -0.09941716 0)
(-0.1208139 -0.1192929 0)
(-0.1187662 -0.1396886 0)
(-0.1164341 -0.1606885 0)
(-0.1138088 -0.1823741 0)
(-0.1108577 -0.2048211 0)
(-0.1077402 -0.2281029 0)
(-0.103751 -0.2522223 0)
(-0.1005269 -0.2767783 0)
(-0.09547881 -0.3035741 0)
(-0.09062442 -0.3315336 0)
(-0.08529531 -0.360419 0)
(-0.07964257 -0.390327 0)
(-0.07362257 -0.4212404 0)
(-0.06725516 -0.4531574 0)
(-0.06057004 -0.4860871 0)
(-0.05361528 -0.5200836 0)
(-0.04645236 -0.5552718 0)
(-0.03915104 -0.5918928 0)
(-0.03178834 -0.6303772 0)
(-0.02443961 -0.6715017 0)
(-0.01723618 -0.7166941 0)
(-0.01019578 -0.767694 0)
(-0.003546155 -0.8002609 0)
(-0.003345029 0.7072684 0)
(-0.009365461 0.6625691 0)
(-0.01480035 0.6332283 0)
(-0.01946988 0.608547 0)
(-0.02391839 0.5844055 0)
(-0.02817135 0.5600202 0)
(-0.03235447 0.5353668 0)
(-0.0364899 0.5105607 0)
(-0.04059542 0.4857298 0)
(-0.04466447 0.4609802 0)
(-0.04868117 0.4363943 0)
(-0.05262091 0.4120354 0)
(-0.05645866 0.3879516 0)
(-0.06015984 0.3641829 0)
(-0.06370978 0.3407429 0)
(-0.06690583 0.3175801 0)
(-0.07041435 0.2949939 0)
(-0.07226484 0.2735706 0)
(-0.07529303 0.2516223 0)
(-0.07754517 0.2298674 0)
(-0.07978908 0.2085389 0)
(-0.08180021 0.1875783 0)
(-0.08360054 0.1669873 0)
(-0.08518546 0.1467489 0)
(-0.0865572 0.1268395 0)
(-0.08771997 0.1072269 0)
(-0.08867931 0.08787328 0)
(-0.08944101 0.06873432 0)
(-0.09001118 0.04975915 0)
(-0.0903911 0.03089239 0)
(-0.09061259 0.01207493 0)
(-0.09057001 -0.005738671 0)
(-0.09027971 -0.02477991 0)
(-0.08987141 -0.04395259 0)
(-0.08929665 -0.06333088 0)
(-0.08855642 -0.08299546 0)
(-0.08764455 -0.1030275 0)
(-0.08655508 -0.1235122 0)
(-0.08528122 -0.1445367 0)
(-0.08381475 -0.1661899 0)
(-0.08214334 -0.188561 0)
(-0.08027023 -0.211737 0)
(-0.07803398 -0.235804 0)
(-0.07589965 -0.2608011 0)
(-0.07277833 -0.2874458 0)
(-0.0696997 -0.3151868 0)
(-0.06626115 -0.3439238 0)
(-0.06253991 -0.3737402 0)
(-0.05848442 -0.4046038 0)
(-0.05408966 -0.4364612 0)
(-0.04937759 -0.4692484 0)
(-0.04439792 -0.5029295 0)
(-0.03921131 -0.5375326 0)
(-0.03387953 -0.5731838 0)
(-0.02846276 -0.6101299 0)
(-0.0230215 -0.6488031 0)
(-0.01761424 -0.6899598 0)
(-0.01232308 -0.7349276 0)
(-0.007234189 -0.7851697 0)
(-0.002467128 -0.8172957 0)
(-0.002147215 0.7247966 0)
(-0.006295805 0.6763987 0)
(-0.009742381 0.6443505 0)
(-0.01267438 0.61835 0)
(-0.01541611 0.5936509 0)
(-0.01807371 0.5691347 0)
(-0.02071425 0.5445617 0)
(-0.02335398 0.5199079 0)
(-0.02599403 0.4952125 0)
(-0.02862173 0.4705289 0)
(-0.03122142 0.4459104 0)
(-0.03377633 0.421407 0)
(-0.03628348 0.3970657 0)
(-0.0387453 0.3729363 0)
(-0.04114693 0.349051 0)
(-0.04347044 0.3254454 0)
(-0.04554585 0.3020939 0)
(-0.04789314 0.279264 0)
(-0.04898121 0.2573536 0)
(-0.05092176 0.2353539 0)
(-0.05225661 0.2135881 0)
(-0.05359166 0.19216 0)
(-0.05476451 0.1710854 0)
(-0.05580401 0.1503617 0)
(-0.05671304 0.1299731 0)
(-0.05750005 0.1098929 0)
(-0.05817282 0.09008488 0)
(-0.05873743 0.07050456 0)
(-0.05919807 0.05110004 0)
(-0.05955338 0.03181435 0)
(-0.05983314 0.01258564 0)
(-0.05993616 -0.005966402 0)
(-0.05987545 -0.02534856 0)
(-0.05975087 -0.04488072 0)
(-0.05952509 -0.06463681 0)
(-0.05919578 -0.08469544 0)
(-0.05875427 -0.1051398 0)
(-0.0581921 -0.1260574 0)
(-0.05749983 -0.1475401 0)
(-0.05666687 -0.1696842 0)
(-0.05568212 -0.1925917 0)
(-0.05452133 -0.2163716 0)
(-0.05325672 -0.2411415 0)
(-0.05155699 -0.267052 0)
(-0.05007062 -0.2940593 0)
(-0.04818753 -0.3223722 0)
(-0.04617483 -0.3518999 0)
(-0.04385523 -0.3826091 0)
(-0.04119287 -0.4144381 0)
(-0.03817486 -0.4472315 0)
(-0.03484215 -0.4808193 0)
(-0.03127367 -0.5151054 0)
(-0.02755281 -0.5501176 0)
(-0.02374543 -0.5859797 0)
(-0.01990384 -0.6229375 0)
(-0.01607297 -0.6614341 0)
(-0.01229404 -0.702228 0)
(-0.008614745 -0.7466534 0)
(-0.005088117 -0.7962264 0)
(-0.001747378 -0.8283345 0)
(-0.001986431 0.7365954 0)
(-0.004915168 0.6866702 0)
(-0.006995374 0.6528734 0)
(-0.008602149 0.6258602 0)
(-0.009961857 0.6005658 0)
(-0.01118787 0.5756351 0)
(-0.01238146 0.5507353 0)
(-0.01358338 0.5257959 0)
(-0.01482101 0.5008327 0)
(-0.01610914 0.475895 0)
(-0.01745587 0.4510525 0)
(-0.01885845 0.426379 0)
(-0.02028597 0.4020255 0)
(-0.02173227 0.3779752 0)
(-0.02316216 0.3541064 0)
(-0.02453697 0.3304198 0)
(-0.0258257 0.306944 0)
(-0.02692161 0.2836646 0)
(-0.02814275 0.2607998 0)
(-0.02868795 0.2385034 0)
(-0.02946927 0.2163844 0)
(-0.03009984 0.1946205 0)
(-0.03072479 0.1732327 0)
(-0.03132749 0.1522275 0)
(-0.03190438 0.1315934 0)
(-0.03245292 0.1113046 0)
(-0.03297466 0.09131746 0)
(-0.03346918 0.07157412 0)
(-0.03393331 0.05201369 0)
(-0.0343577 0.0325806 0)
(-0.03476243 0.01320519 0)
(-0.03506004 -0.005789034 0)
(-0.03526191 -0.02531409 0)
(-0.03544557 -0.04501424 0)
(-0.03558048 -0.06496153 0)
(-0.03566514 -0.08523856 0)
(-0.03569252 -0.1059302 0)
(-0.03565577 -0.1271253 0)
(-0.03554731 -0.1489165 0)
(-0.03535901 -0.171399 0)
(-0.03507991 -0.1946692 0)
(-0.03471397 -0.2188205 0)
(-0.03414261 -0.2439413 0)
(-0.0337459 -0.2700701 0)
(-0.0327044 -0.2975257 0)
(-0.03188317 -0.3262357 0)
(-0.03091894 -0.3563618 0)
(-0.02955649 -0.3880015 0)
(-0.02791011 -0.4208389 0)
(-0.02587669 -0.4545726 0)
(-0.02354307 -0.488912 0)
(-0.02102816 -0.5236916 0)
(-0.01845763 -0.5589775 0)
(-0.01586668 -0.5949809 0)
(-0.01327182 -0.6320038 0)
(-0.0106941 -0.6705151 0)
(-0.008154049 -0.711285 0)
(-0.005677943 -0.7556278 0)
(-0.003318757 -0.8049574 0)
(-0.001115676 -0.8370116 0)
(-0.000746531 0.7467358 0)
(-0.002277802 0.6930896 0)
(-0.002496797 0.656263 0)
(-0.00245861 0.62752 0)
(-0.002161843 0.6014946 0)
(-0.001881492 0.5764225 0)
(-0.001675419 0.5517167 0)
(-0.001591629 0.5271698 0)
(-0.001657112 0.5027213 0)
(-0.00188243 0.4783636 0)
(-0.002302611 0.4541007 0)
(-0.002766155 0.4298813 0)
(-0.003666663 0.4055959 0)
(-0.004387988 0.3813703 0)
(-0.005262392 0.3572217 0)
(-0.006103756 0.3330823 0)
(-0.006875838 0.30915 0)
(-0.007527455 0.2855506 0)
(-0.00809464 0.2623054 0)
(-0.008427843 0.2396169 0)
(-0.008857823 0.2175263 0)
(-0.009253518 0.1959318 0)
(-0.009696308 0.1747502 0)
(-0.01016585 0.1538953 0)
(-0.0106571 0.1333474 0)
(-0.01117427 0.1131016 0)
(-0.01172535 0.09312509 0)
(-0.01230881 0.07336437 0)
(-0.01290443 0.05375565 0)
(-0.01352222 0.03422891 0)
(-0.01412452 0.01474303 0)
(-0.01467834 -0.00458138 0)
(-0.01517117 -0.02417202 0)
(-0.01569864 -0.04395611 0)
(-0.01620173 -0.06400155 0)
(-0.01669534 -0.08438026 0)
(-0.01717009 -0.1051823 0)
(-0.01762235 -0.1264982 0)
(-0.01804818 -0.1484239 0)
(-0.01844327 -0.1710613 0)
(-0.01880241 -0.1945199 0)
(-0.01911631 -0.2189197 0)
(-0.01938469 -0.2443763 0)
(-0.01952646 -0.2710446 0)
(-0.01967386 -0.2988735 0)
(-0.01959539 -0.32795 0)
(-0.01900376 -0.3587082 0)
(-0.0183937 -0.3911345 0)
(-0.01752226 -0.4249465 0)
(-0.01623267 -0.4597269 0)
(-0.01471898 -0.4946847 0)
(-0.01308742 -0.5295993 0)
(-0.01142929 -0.5648651 0)
(-0.009799986 -0.6008245 0)
(-0.008176027 -0.6377664 0)
(-0.006572369 -0.6761417 0)
(-0.005002222 -0.7167018 0)
(-0.003483612 -0.7607361 0)
(-0.002050252 -0.8096273 0)
(-0.0007203111 -0.8415605 0)
(-0.000445074 0.7514218 0)
(-0.001089139 0.6946678 0)
(-0.0008560602 0.655757 0)
(-0.0002057025 0.626409 0)
(0.000669123 0.6001802 0)
(0.001606519 0.5751049 0)
(0.002569512 0.5505031 0)
(0.003523587 0.5261227 0)
(0.004452092 0.501872 0)
(0.005355212 0.4777259 0)
(0.006157234 0.4536781 0)
(0.006859463 0.4297802 0)
(0.007462031 0.4062172 0)
(0.007562061 0.382664 0)
(0.007502116 0.3590082 0)
(0.007319308 0.3352153 0)
(0.006817669 0.3112638 0)
(0.00641631 0.2873261 0)
(0.005915707 0.2637456 0)
(0.005311247 0.2408406 0)
(0.004895155 0.2186814 0)
(0.004497421 0.1970399 0)
(0.004165452 0.1757906 0)
(0.00386413 0.1548942 0)
(0.003571007 0.1343651 0)
(0.003268601 0.1142326 0)
(0.00294638 0.09443855 0)
(0.002587655 0.07483277 0)
(0.002184182 0.05533341 0)
(0.00172841 0.03590361 0)
(0.001176239 0.01648697 0)
(0.0006099146 -0.002939156 0)
(-1.7737e-05 -0.02245836 0)
(-0.0006722586 -0.04216843 0)
(-0.001405071 -0.06217483 0)
(-0.002143365 -0.08254261 0)
(-0.002910062 -0.1033503 0)
(-0.003689718 -0.1246862 0)
(-0.004478475 -0.1466438 0)
(-0.005274891 -0.1693229 0)
(-0.006083314 -0.1928312 0)
(-0.006898426 -0.2172799 0)
(-0.007702214 -0.2427612 0)
(-0.008462231 -0.2694569 0)
(-0.009152285 -0.2977545 0)
(-0.009630402 -0.3278358 0)
(-0.01000664 -0.3594649 0)
(-0.01005154 -0.39258 0)
(-0.009591272 -0.4271439 0)
(-0.009122276 -0.4625058 0)
(-0.008351601 -0.4979177 0)
(-0.007484441 -0.5330027 0)
(-0.006461432 -0.5682645 0)
(-0.005494326 -0.6042332 0)
(-0.004553792 -0.6411825 0)
(-0.003638339 -0.679555 0)
(-0.002753471 -0.7201034 0)
(-0.001904931 -0.7641191 0)
(-0.001112076 -0.8129885 0)
(-0.0003863285 -0.8452237 0)
(-0.0005073394 0.7560399 0)
(-8.93584e-05 0.6948366 0)
(0.0005385274 0.6542864 0)
(0.001955721 0.6237347 0)
(0.003563024 0.5968442 0)
(0.005266505 0.5714247 0)
(0.0069725 0.5466485 0)
(0.008633717 0.5221928 0)
(0.0102135 0.4979486 0)
(0.01165842 0.473929 0)
(0.0130064 0.4502338 0)
(0.01397474 0.427099 0)
(0.01487355 0.4042445 0)
(0.01560149 0.3813468 0)
(0.01622906 0.3581953 0)
(0.01676297 0.3348273 0)
(0.01727058 0.3114678 0)
(0.017392 0.2882519 0)
(0.01743256 0.2652677 0)
(0.01721767 0.2424992 0)
(0.01706306 0.2200452 0)
(0.01685191 0.1981145 0)
(0.01664028 0.1766991 0)
(0.01640282 0.1557432 0)
(0.01612303 0.1352023 0)
(0.01579713 0.1150397 0)
(0.01542647 0.09521095 0)
(0.01501301 0.07567052 0)
(0.01453151 0.05637826 0)
(0.01400652 0.03720587 0)
(0.01342286 0.01802502 0)
(0.01277112 -0.001199979 0)
(0.01200818 -0.02041764 0)
(0.01110281 -0.03998567 0)
(0.01016505 -0.05984512 0)
(0.009151849 -0.08009455 0)
(0.008097738 -0.1008083 0)
(0.006999787 -0.1220678 0)
(0.005864898 -0.1439553 0)
(0.00470022 -0.1665489 0)
(0.003517173 -0.1899492 0)
(0.002327792 -0.2143563 0)
(0.001160087 -0.2399821 0)
(5.59017e-05 -0.2669718 0)
(-0.0009643821 -0.2954956 0)
(-0.001891052 -0.3257627 0)
(-0.00271048 -0.3579753 0)
(-0.003304303 -0.3920476 0)
(-0.003787058 -0.4274167 0)
(-0.003900125 -0.4634367 0)
(-0.00365924 -0.4995272 0)
(-0.003225495 -0.5351885 0)
(-0.002736518 -0.5705378 0)
(-0.002240259 -0.6063641 0)
(-0.001802106 -0.6431673 0)
(-0.001388646 -0.6813991 0)
(-0.001006072 -0.7218037 0)
(-0.000659892 -0.7656564 0)
(-0.0003600252 -0.814318 0)
(-0.0001468374 -0.8464426 0)
(-8.800489e-05 0.758932 0)
(0.0002235291 0.6942327 0)
(0.001658032 0.6507485 0)
(0.00363008 0.6189727 0)
(0.005867981 0.5915869 0)
(0.008175607 0.5660392 0)
(0.01046153 0.5413775 0)
(0.01265761 0.5172211 0)
(0.01471296 0.4934332 0)
(0.01658126 0.4699925 0)
(0.01824594 0.4469357 0)
(0.01968912 0.4242714 0)
(0.02095053 0.4017006 0)
(0.02202797 0.3789092 0)
(0.02298211 0.3559019 0)
(0.02369234 0.3328841 0)
(0.02433097 0.3099404 0)
(0.02488425 0.2871203 0)
(0.02527856 0.2644464 0)
(0.02578503 0.2419932 0)
(0.02589065 0.2199574 0)
(0.02601746 0.1983282 0)
(0.02599348 0.1771464 0)
(0.0258753 0.1564181 0)
(0.02565502 0.1361238 0)
(0.02533348 0.1162238 0)
(0.02491348 0.09665152 0)
(0.02440119 0.07731813 0)
(0.02381275 0.05813156 0)
(0.02315772 0.03902194 0)
(0.02244571 0.0199669 0)
(0.02165422 0.001011761 0)
(0.02073831 -0.0177375 0)
(0.01967393 -0.03697668 0)
(0.01849307 -0.05663682 0)
(0.01724032 -0.0767145 0)
(0.01591724 -0.09726595 0)
(0.01453464 -0.118377 0)
(0.01310084 -0.1401484 0)
(0.01163051 -0.1626922 0)
(0.01014933 -0.186135 0)
(0.008680376 -0.2106279 0)
(0.007247429 -0.2363499 0)
(0.005871466 -0.2635017 0)
(0.004583069 -0.2922923 0)
(0.003408141 -0.3228871 0)
(0.002357271 -0.3553661 0)
(0.001429516 -0.3897006 0)
(0.0006357824 -0.4256803 0)
(6.975391e-05 -0.4626684 0)
(-0.0003613783 -0.4995953 0)
(-0.0004681969 -0.535604 0)
(-0.0004940186 -0.5710223 0)
(-0.0004585124 -0.6068235 0)
(-0.0004311214 -0.6436256 0)
(-0.0003816245 -0.6818659 0)
(-0.0003188803 -0.7222767 0)
(-0.0002487719 -0.7661268 0)
(-0.0001706149 -0.8147884 0)
(-9.00293e-05 -0.8471862 0)
(-1.920708e-05 0.7606474 0)
(0.0007374848 0.6916391 0)
(0.002528609 0.6457595 0)
(0.004838704 0.6127415 0)
(0.007474254 0.5847792 0)
(0.01018624 0.5590571 0)
(0.01288526 0.5344876 0)
(0.01549423 0.5106123 0)
(0.01796305 0.4872439 0)
(0.02025495 0.4643175 0)
(0.02235284 0.4418235 0)
(0.02424729 0.4197628 0)
(0.02592585 0.3978788 0)
(0.0273816 0.3758295 0)
(0.02861013 0.3535092 0)
(0.02963346 0.3309441 0)
(0.03048983 0.3082357 0)
(0.03119283 0.2855595 0)
(0.0317876 0.2630987 0)
(0.03213589 0.2410406 0)
(0.03250423 0.219354 0)
(0.0326416 0.1980703 0)
(0.03267116 0.1772317 0)
(0.0325558 0.1568386 0)
(0.03230581 0.1368639 0)
(0.03192842 0.1172611 0)
(0.0314329 0.09796774 0)
(0.03082743 0.0789077 0)
(0.03011878 0.05999482 0)
(0.02931322 0.04114645 0)
(0.02842102 0.02233281 0)
(0.02744756 0.00363818 0)
(0.0263909 -0.01471991 0)
(0.02515587 -0.03360282 0)
(0.02378658 -0.05295084 0)
(0.022327 -0.07278552 0)
(0.020802 -0.09314345 0)
(0.01922007 -0.1140961 0)
(0.01759516 -0.135743 0)
(0.01594448 -0.1582059 0)
(0.0142902 -0.1816307 0)
(0.01265858 -0.2061907 0)
(0.01107777 -0.232075 0)
(0.009575495 -0.2594748 0)
(0.008176041 -0.2885767 0)
(0.006898508 -0.3195415 0)
(0.005759576 -0.3524519 0)
(0.004771486 -0.3872301 0)
(0.003937061 -0.4235579 0)
(0.003250978 -0.4608356 0)
(0.002723195 -0.4982307 0)
(0.002378355 -0.5348837 0)
(0.002141491 -0.5706694 0)
(0.001937758 -0.6065497 0)
(0.001694521 -0.643424 0)
(0.001441186 -0.6817215 0)
(0.001166273 -0.7221687 0)
(0.0008563892 -0.7660336 0)
(0.0005338733 -0.8147032 0)
(8.209289e-05 -0.8471553 0)
(-4.001315e-05 0.7620117 0)
(0.0009296957 0.6885782 0)
(0.002939513 0.6400943 0)
(0.005521192 0.6057382 0)
(0.008439643 0.5771546 0)
(0.01144098 0.5512492 0)
(0.01443117 0.5267777 0)
(0.01732952 0.5031944 0)
(0.02008587 0.4802499 0)
(0.02266643 0.4578297 0)
(0.02505582 0.4358822 0)
(0.02724915 0.4143808 0)
(0.02923817 0.3930699 0)
(0.03101819 0.3715981 0)
(0.03256979 0.3498455 0)
(0.03389627 0.3278665 0)
(0.03499784 0.3057762 0)
(0.03587502 0.2837118 0)
(0.03654429 0.2617946 0)
(0.03701777 0.2401157 0)
(0.03732275 0.218794 0)
(0.03744774 0.1979285 0)
(0.03740322 0.1775249 0)
(0.03719179 0.1575579 0)
(0.03682406 0.1379901 0)
(0.03630941 0.1187684 0)
(0.03565915 0.0998254 0)
(0.03488545 0.0810834 0)
(0.03399985 0.06245856 0)
(0.03301086 0.04386925 0)
(0.03192325 0.02527542 0)
(0.03073609 0.006775593 0)
(0.02951385 -0.01127554 0)
(0.02817508 -0.02954733 0)
(0.0266625 -0.04862271 0)
(0.02506696 -0.06827145 0)
(0.02340918 -0.08847266 0)
(0.02170647 -0.109305 0)
(0.01997618 -0.1308836 0)
(0.01823737 -0.1533432 0)
(0.01651202 -0.1768369 0)
(0.01482369 -0.2015359 0)
(0.01319551 -0.2276249 0)
(0.01164936 -0.2552929 0)
(0.01020458 -0.2847188 0)
(0.008875701 -0.3160462 0)
(0.007671303 -0.3493445 0)
(0.006596401 -0.3845483 0)
(0.005657684 -0.4213649 0)
(0.004864722 -0.4591736 0)
(0.004221206 -0.4970266 0)
(0.003719387 -0.5339659 0)
(0.003288764 -0.5697829 0)
(0.002872829 -0.6055294 0)
(0.002426945 -0.6422765 0)
(0.00197738 -0.6804476 0)
(0.00151855 -0.7207667 0)
(0.001066352 -0.7645071 0)
(0.0005911085 -0.813089 0)
(0.0001707374 -0.8458118 0)
(-7.336882e-05 0.7632328 0)
(0.001017771 0.6849002 0)
(0.003132267 0.6337258 0)
(0.005862229 0.5980109 0)
(0.008939327 0.5687947 0)
(0.01211124 0.5426972 0)
(0.01527891 0.5183246 0)
(0.01835919 0.4950379 0)
(0.0213028 0.4725195 0)
(0.02407806 0.450602 0)
(0.02666928 0.4291905 0)
(0.02908322 0.4082212 0)
(0.03129807 0.3874925 0)
(0.03330098 0.3666866 0)
(0.03505464 0.3456221 0)
(0.03655522 0.3243201 0)
(0.03780285 0.3028818 0)
(0.03880187 0.2814378 0)
(0.03956112 0.2601206 0)
(0.04007744 0.2390463 0)
(0.04038295 0.2183156 0)
(0.0404389 0.1980093 0)
(0.04031636 0.1781119 0)
(0.04000167 0.1586138 0)
(0.03951552 0.1394833 0)
(0.03887012 0.1206665 0)
(0.03807996 0.1020937 0)
(0.03715977 0.08368723 0)
(0.03612379 0.06537048 0)
(0.03498345 0.04708196 0)
(0.03374402 0.02879845 0)
(0.03240888 0.01056091 0)