/*--------------------------------*- C++ -*----------------------------------*\
| =========                 |                                                 |
| \\      /  F ield         | OpenFOAM: The Open Source CFD Toolbox           |
|  \\    /   O peration     | Version:  2312                                  |
|   \\  /    A nd           | Website:  www.openfoam.com                      |
|    \\/     M anipulation  |                                                 |
\*---------------------------------------------------------------------------*/
FoamFile
{
    version     2.0;
    format      ascii;
    arch        "LSB;label=32;scalar=64";
    class       volScalarField;
    location    "1000";
    object      alphat;
}
// * * * * * * * * * * * * * * * * * * * * * * * * * * * * * * * * * * * * * //

dimensions      [1 -1 -1 0 0 0 0];

internalField   nonuniform List<scalar> 
12000
(
2.558889e-05
0.0001302052
0.0001304317
0.0001228181
0.0001306357
0.0001821368
0.0001928456
0.0001367266
0.0001028839
0.0001241936
0.0002461537
0.0001839221
0.0001012167
9.641367e-05
0.0001655597
0.0002104464
0.0001222875
9.609965e-05
0.0001182192
0.0001650099
0.0001390694
0.0001052444
0.0001078679
0.0001335629
0.0001329384
0.0001110712
0.0001094168
0.0001202475
0.0001187536
0.0001127577
0.0001142479
0.0001133785
0.0001093711
0.0001080922
0.0001119686
0.0001185174
0.0001157378
0.0001044217
9.750345e-05
0.0001081153
0.000126679
0.0001123497
9.292911e-05
9.523686e-05
0.0001341938
0.000145607
8.628322e-05
7.474184e-05
0.0001109146
0.0002241699
0.0001285386
6.431159e-05
7.205039e-05
0.000131994
0.0001448027
6.921226e-05
6.304916e-05
6.864288e-05
6.656357e-05
5.312481e-05
1.617825e-05
0.0001597856
0.0001940933
0.0002318551
0.000233728
0.000245785
0.0002976706
0.0003309698
0.0003844069
0.0003626396
0.0004146442
0.0004722951
0.0005434489
0.0006220754
0.0005458209
0.0006500453
0.000713018
0.0008052104
0.0008431834
0.0008482514
0.0008818053
0.000963696
0.001011639
0.001026897
0.001040498
0.001096271
0.001139111
0.001152975
0.001169495
0.001196379
0.00121091
0.001223582
0.001237875
0.001240433
0.001234632
0.001223287
0.001216624
0.001218291
0.001213323
0.001188531
0.001152731
0.001067167
0.001117743
0.0010834
0.001029308
0.0009143694
0.0007686009
0.0009164006
0.0008355073
0.000761978
0.000522854
0.000569409
0.0005803814
0.0004892978
0.0003923836
0.0003227967
0.0002290569
0.0001450102
8.799838e-05
4.680297e-05
2.316016e-05
0.0002127347
0.0002617073
0.0003175427
0.000388326
0.0004566418
0.0005331797
0.0006169264
0.0007161059
0.0007397915
0.0007690807
0.0009907169
0.001087085
0.001185402
0.001215072
0.001334238
0.001413237
0.001491621
0.001554225
0.001608389
0.001662657
0.001717098
0.00176223
0.001800133
0.001834591
0.001867864
0.001895679
0.001918063
0.001937009
0.00195082
0.001964329
0.001972687
0.001977718
0.00197845
0.001976468
0.001919522
0.001861523
0.001936199
0.001939063
0.001893378
0.001712747
0.001682423
0.0017476
0.001703356
0.00156507
0.001545191
0.001668218
0.001628253
0.001439515
0.001365832
0.001486541
0.001391237
0.001230858
0.0009899322
0.0008317299
0.0007459341
0.0005784823
0.0003312937
0.0001415566
4.466555e-05
2.383264e-05
0.0002357574
0.0003386475
0.00041867
0.0005267249
0.0006417685
0.0007658927
0.0008968922
0.001037985
0.001178871
0.001264435
0.001346687
0.001557273
0.001635367
0.001750169
0.001855924
0.001940547
0.002019172
0.002090497
0.002155671
0.002215676
0.00227032
0.002319729
0.002363518
0.002402189
0.002435802
0.002464233
0.002487514
0.002502272
0.002515049
0.002522941
0.002524598
0.002520912
0.002512151
0.002498394
0.002479328
0.002388026
0.002307277
0.002284905
0.002275449
0.00220779
0.002119016
0.002090689
0.002108832
0.002085786
0.00201663
0.001943152
0.001866117
0.001782854
0.001693843
0.001596522
0.001407866
0.00126602
0.001152243
0.001087306
0.0008963857
0.0006739063
0.0004224333
0.0001847565
4.466764e-05
2.445933e-05
0.0002555848
0.0003988336
0.0005098834
0.0006534888
0.00081022
0.0009757492
0.001143709
0.001309649
0.001470814
0.001621613
0.001764691
0.001893752
0.00201846
0.002130658
0.002235662
0.00233513
0.002430986
0.002516976
0.002595024
0.002666734
0.002732188
0.002792277
0.00284652
0.002894885
0.002936984
0.0029727
0.00300162
0.003023125
0.003038029
0.003021217
0.002943053
0.002896021
0.002857535
0.00288134
0.00280577
0.002718769
0.002667711
0.002631183
0.002593523
0.002563677
0.002548087
0.002487499
0.002445652
0.002472622
0.002402463
0.002314391
0.002221009
0.002125839
0.002027887
0.001824679
0.001798374
0.001655203
0.001497952
0.001318699
0.001114533
0.0008624229
0.0005497534
0.0002257882
4.402101e-05
2.551863e-05
0.0002688746
0.0004484873
0.0005904405
0.0007648162
0.0009532269
0.001146384
0.001336698
0.001519738
0.001694075
0.001859526
0.002016847
0.002164866
0.002301353
0.002426084
0.002541271
0.002646916
0.002742919
0.002836083
0.002924536
0.003008425
0.003087284
0.003161277
0.003229508
0.003291484
0.003346579
0.003394079
0.003433378
0.003463148
0.003405563
0.003284488
0.003283622
0.003190393
0.002903721
0.003008143
0.003277658
0.003136046
0.003031377
0.003026184
0.003051452
0.003071846
0.003023875
0.002928445
0.002826488
0.002719313
0.002607968
0.002496539
0.002382524
0.002262986
0.002140413
0.002011213
0.001874692
0.001729146
0.001569696
0.001385306
0.001166687
0.0009036827
0.0005960735
0.0002599473
4.387975e-05
2.650963e-05
0.0002763354
0.0004944148
0.000662968
0.0008571404
0.001062102
0.00126906
0.001473132
0.001672193
0.00186251
0.002038869
0.002199163
0.002348196
0.002488182
0.002618249
0.002739564
0.002853536
0.002961523
0.003064934
0.003163877
0.00325842
0.003347269
0.00343078
0.00350821
0.003578837
0.00364196
0.003696358
0.003742162
0.003778466
0.003804958
0.003391927
0.003386824
0.003629945
0.003491345
0.003351875
0.003514769
0.003700667
0.00364466
0.003575138
0.003494511
0.003403588
0.003302722
0.003196156
0.003084464
0.002966942
0.002844125
0.002713197
0.002580795
0.002445023
0.002301505
0.002155691
0.002007193
0.001850462
0.001682775
0.001492344
0.001268792
0.001002602
0.000665713
0.0002898776
4.352535e-05
2.770005e-05
0.000280859
0.0005253638
0.0007154754
0.0009204452
0.00113696
0.00135664
0.001571682
0.00177663
0.00196906
0.002146414
0.002313051
0.002467435
0.002612062
0.002748244
0.002876387
0.002997479
0.003112417
0.003221739
0.003325485
0.0034234
0.003515039
0.003599973
0.003677664
0.003747564
0.003809157
0.003861989
0.003905787
0.00394034
0.003965638
0.003981632
0.003987012
0.003983698
0.003970573
0.003947452
0.003914196
0.003871237
0.003818015
0.003753253
0.003679357
0.003596295
0.003503873
0.003397034
0.003274215
0.003138157
0.002995267
0.002848381
0.002698441
0.002549637
0.002405346
0.002258644
0.002105915
0.001941626
0.001761947
0.001557235
0.001317078
0.001029303
0.0006878578
0.0003089538
4.327425e-05
2.881051e-05
0.0002821557
0.0005498808
0.0007585746
0.0009746409
0.00119895
0.001422752
0.001639819
0.001845891
0.002039694
0.002220377
0.002391907
0.002553093
0.002704659
0.002847541
0.002981945
0.003108058
0.003225948
0.003335693
0.003437371
0.003530962
0.003616408
0.003693521
0.003762048
0.003821796
0.003872657
0.003914609
0.003947727
0.003972161
0.003988191
0.003996411
0.003997229
0.003992255
0.003982322
0.003967915
0.003948521
0.003922621
0.003888674
0.003844808
0.00378514
0.003707882
0.003612913
0.003502214
0.003380537
0.00325184
0.003115068
0.002970961
0.00282077
0.002665529
0.002505195
0.002341721
0.002174766
0.002000237
0.001813547
0.001604431
0.001361552
0.001069986
0.0007187625
0.0003248473
4.304674e-05
2.986539e-05
0.0002796359
0.0005637722
0.0007895131
0.001009631
0.001233017
0.001455761
0.001673723
0.001884612
0.002086278
0.002276284
0.002416036
0.002564216
0.002608713
0.002760934
0.002931284
0.003134811
0.003286552
0.00339209
0.003489789
0.003578477
0.003655975
0.003722218
0.003778052
0.003824277
0.003861538
0.003890408
0.003911427
0.003925127
0.003932661
0.003935437
0.003934793
0.003932106
0.003927838
0.003922355
0.003915053
0.003904391
0.003887996
0.003862906
0.003826037
0.003773639
0.003702721
0.003611629
0.003500084
0.003369568
0.003223771
0.003067096
0.002903765
0.002737162
0.002569306
0.002400089
0.002227171
0.00204592
0.001849523
0.001630461
0.001379574
0.001081306
0.0007256257
0.0003332175
4.281012e-05
3.098555e-05
0.0002743237
0.0005667678
0.0008094799
0.001034422
0.001258206
0.001481108
0.001699272
0.001894328
0.001966961
0.002011904
0.002024638
0.001998254
0.0020804
0.002176037
0.002281124
0.002388621
0.002500532
0.002630761
0.002799571
0.003033449
0.003354067
0.003723989
0.003765295
0.003795986
0.003816927
0.003829232
0.003834462
0.003834548
0.003831357
0.003826735
0.003822513
0.003820599
0.003821738
0.003826581
0.003834285
0.003842563
0.003847622
0.003844382
0.00382708
0.003790257
0.00372993
0.003644296
0.003533809
0.003401415
0.003252604
0.003092975
0.002927043
0.002758127
0.002587941
0.00241633
0.002240908
0.00205806
0.001775976
0.001539323
0.001342759
0.001083328
0.0007294715
0.000335573
4.273046e-05
3.189007e-05
0.0002685388
0.0005701127
0.0008236741
0.001052005
0.001275936
0.001496106
0.001637972
0.001714843
0.001764014
0.001753959
0.001752106
0.001803158
0.00186265
0.001927972
0.001997745
0.002072809
0.002159401
0.00227403
0.002440041
0.00267215
0.002975998
0.003263042
0.003494117
0.003708091
0.003718178
0.003720808
0.003717857
0.00371138
0.0037038
0.003697655
0.003695301
0.003698492
0.00370792
0.003725286
0.003748028
0.003772891
0.003794897
0.003807739
0.00380437
0.003778017
0.003724201
0.003616317
0.003443354
0.003337426
0.003246222
0.003086772
0.002921417
0.002753558
0.002584786
0.002412566
0.002152
0.001902592
0.001672953
0.001484083
0.001315658
0.001083686
0.0007302842
0.0003368514
4.272676e-05
3.287396e-05
0.0002624443
0.0005645384
0.0008272693
0.00106606
0.001289141
0.001442979
0.001538647
0.001593511
0.001615778
0.001630868
0.001657893
0.001702728
0.001748573
0.001801318
0.001860496
0.001928829
0.002015054
0.00213657
0.002306591
0.002517372
0.002732574
0.002944447
0.003229641
0.003570301
0.003578252
0.003579355
0.003575964
0.003570867
0.003566834
0.003566703
0.003573068
0.003587478
0.0036084
0.003642097
0.003678983
0.003716708
0.003749124
0.003769148
0.003643854
0.003363457
0.003197218
0.003108053
0.003052564
0.003009524
0.002969675
0.002914299
0.002816851
0.002664774
0.002467196
0.002243092
0.002010734
0.001780666
0.001597833
0.001453117
0.001299354
0.00107901
0.0007275351
0.0003359419
4.273876e-05
3.381854e-05
0.000257775
0.000543523
0.0008326833
0.001063857
0.001237093
0.001362353
0.001446143
0.001497304
0.001527727
0.001552716
0.001585426
0.001628444
0.001678169
0.001734827
0.00179933
0.001876008
0.001975198
0.002110369
0.002285715
0.002488664
0.002719931
0.003008752
0.003397909
0.003414258
0.003423564
0.003427956
0.00343018
0.003433111
0.003439371
0.003451554
0.003472118
0.003501296
0.003539906
0.003587285
0.003635736
0.003680773
0.003706076
0.003461943
0.003253944
0.003102802
0.00303883
0.003003651
0.002981508
0.002947823
0.002890123
0.002801451
0.00267551
0.002510528
0.002317322
0.002110829
0.001900224
0.00172417
0.001581624
0.001441472
0.001291986
0.001076672
0.0007258412
0.0003354258
4.275089e-05
3.474219e-05
0.0002534223
0.0005092226
0.0007842034
0.001009259
0.001175034
0.001294725
0.001378358
0.001433628
0.001472182
0.001506642
0.001546292
0.001593699
0.001648596
0.001711475
0.001784332
0.00187238
0.001986459
0.002138307
0.002336537
0.002588759
0.002908392
0.003214505
0.003249419
0.00326624
0.003279164
0.003290332
0.003302353
0.003317634
0.003338526
0.003366957
0.003404794
0.003449932
0.003503702
0.003561987
0.003616229
0.003538435
0.003343349
0.003231472
0.003224119
0.003202541
0.003159845
0.003138518
0.003077802
0.002989496
0.002872812
0.002730008
0.00256667
0.002387144
0.002194911
0.002000484
0.001838061
0.001701001
0.00156482
0.001430233
0.001283476
0.001071866
0.0007218636
0.0003331984
4.283944e-05
3.558184e-05
0.0002502625
0.0004803853
0.0007422479
0.0009644758
0.001129018
0.001247869
0.001332442
0.001392396
0.001438532
0.001481227
0.001527853
0.001581707
0.001643949
0.001715752
0.001799652
0.001902272
0.002037771
0.002224863
0.002478999
0.002798027
0.003067912
0.003096746
0.003119595
0.003139535
0.003158738
0.003179287
0.003203652
0.003234657
0.003272934
0.003319121
0.003372888
0.003434069
0.0034979
0.003560775
0.003562395
0.003442115
0.003389872
0.003370431
0.003405081
0.003432558
0.003403672
0.003331996
0.003196331
0.003019858
0.002829016
0.002641249
0.002460438
0.002271321
0.002092484
0.001947879
0.001818022
0.001687947
0.001558028
0.001426983
0.001281231
0.001070132
0.0007213551
0.0003327029
4.28956e-05
3.634165e-05
0.0002437943
0.0004569214
0.0007074099
0.0009283852
0.001094392
0.001214372
0.001301133
0.00136578
0.001418859
0.001469468
0.001523955
0.001585825
0.001657021
0.00173933
0.001836595
0.001961154
0.00213514
0.002381814
0.002688482
0.002925462
0.002959943
0.002989121
0.003015719
0.00304269
0.003072323
0.003106805
0.003147911
0.003195928
0.003250588
0.003311317
0.003375953
0.003444599
0.003511096
0.003571678
0.003611888
0.003636594
0.003655599
0.003641101
0.003603019
0.003542413
0.003461862
0.003364909
0.003255344
0.003039579
0.002781724
0.002545635
0.002341463
0.002184731
0.002053439
0.001926175
0.001802975
0.001680335
0.001556089
0.001426774
0.001280369
0.001067984
0.0007200534
0.000331938
4.29581e-05
3.701327e-05
0.0002380994
0.0004376271
0.0006782481
0.0008993612
0.00106814
0.001190147
0.001279716
0.001349425
0.001409645
0.001468503
0.001531762
0.001603248
0.001685656
0.001782125
0.001901475
0.002065188
0.002299288
0.002587914
0.002797856
0.002838809
0.00287477
0.002908263
0.002941977
0.00297851
0.003020155
0.003068325
0.003123685
0.003185744
0.003252707
0.003322363
0.003393296
0.003461858
0.003523056
0.003573559
0.003606828
0.003620944
0.003614143
0.003585865
0.003537544
0.003471474
0.003390694
0.003298355
0.003197071
0.003018654
0.002707044
0.002457323
0.002282064
0.002145029
0.002024015
0.001908506
0.001795102
0.001678806
0.001556615
0.001427304
0.00128002
0.001067281
0.0007193893
0.0003314677
4.301776e-05
3.764352e-05
0.0002336726
0.0004217344
0.0006538655
0.000874567
0.0010464
0.00117162
0.001265409
0.001341214
0.001409235
0.001477177
0.001550952
0.001635069
0.001733292
0.001852587
0.002011643
0.002236632
0.002510673
0.00268763
0.002733851
0.002775027
0.002814262
0.002853667
0.002896049
0.002943837
0.002998239
0.003059579
0.003127176
0.003199207
0.003272795
0.003345123
0.003414293
0.003476388
0.00352698
0.003563591
0.003581673
0.003580978
0.003561477
0.003524301
0.003471509
0.003405781
0.00332976
0.00324563
0.003154617
0.00298887
0.002674856
0.002416798
0.002240158
0.002112926
0.002004555
0.001900476
0.001793497
0.001679829
0.001558495
0.001429032
0.001281214
0.001066045
0.0007182803
0.0003309457
4.309828e-05
3.823534e-05
0.0002305872
0.0004092573
0.0006331644
0.0008536244
0.001028886
0.001158381
0.001257534
0.00134041
0.001417371
0.001496447
0.001584301
0.001686677
0.001810691
0.001972229
0.002193988
0.002451837
0.002589325
0.002637392
0.002681581
0.002724779
0.002769539
0.00281827
0.002872271
0.00293231
0.002998695
0.003070689
0.003146505
0.003223448
0.003298195
0.003367983
0.003430663
0.003482752
0.003521095
0.003543317
0.003548608
0.003537249
0.003510475
0.003470204
0.003418621
0.00335767
0.003288823
0.003212772
0.003129493
0.002967932
0.002650761
0.002393214
0.002221139
0.002101323
0.00200124
0.001903005
0.001799198
0.001686433
0.001564555
0.001433584
0.001282937
0.001065535
0.0007183203
0.0003313606
4.315205e-05
3.881762e-05
0.0002285754
0.0003998679
0.0006171853
0.0008350779
0.001013652
0.001148583
0.001254422
0.001345761
0.00143375
0.001527492
0.001635672
0.001767617
0.001937451
0.002155193
0.002394059
0.002492254
0.002544266
0.002594376
0.002643458
0.002693546
0.002746831
0.002805018
0.002869076
0.00293911
0.003014299
0.003092904
0.003172397
0.003249706
0.003321569
0.003385514
0.003439555
0.00348101
0.0035079
0.003519475
0.003516065
0.003498805
0.003469354
0.00342954
0.003381031
0.00332507
0.00326226
0.003192594
0.00311538
0.002966383
0.002650457
0.002391344
0.002220709
0.002104442
0.002007943
0.001912003
0.001808628
0.001694878
0.001571471
0.001438992
0.001285525
0.00106504
0.0007188462
0.0003319424
4.320461e-05
3.940484e-05
0.0002279801
0.0003935148
0.000602963
0.0008208448
0.001002849
0.00114379
0.001257869
0.001360083
0.001463008
0.001579383
0.001723659
0.001910668
0.002133489
0.002340703
0.002403766
0.002460821
0.002514476
0.002567219
0.002621136
0.002678118
0.002739683
0.002806738
0.00287941
0.002956949
0.003037747
0.00311945
0.003199205
0.003273974
0.003340877
0.003397933
0.003443356
0.0034759
0.003494528
0.003499475
0.003491711
0.003472628
0.003443775
0.003406547
0.003361959
0.003310533
0.003252233
0.003186492
0.003112294
0.002965798
0.002650036
0.002391325
0.00222258
0.002109006
0.002014914
0.001920065
0.001816419
0.001701708
0.00157707
0.001442352
0.001287443
0.001065393
0.0007194849
0.0003324
4.326334e-05
4.001171e-05
0.0002286865
0.0003893554
0.0005925382
0.0008087399
0.0009955576
0.001144597
0.00126865
0.001385069
0.00151208
0.001669758
0.001875154
0.002106076
0.002252637
0.002319408
0.002380425
0.002437838
0.002493909
0.002550861
0.002610652
0.002674778
0.002744137
0.002818894
0.002898391
0.00298115
0.003064998
0.003147295
0.003225225
0.003296156
0.00335765
0.00340774
0.003446605
0.003472835
0.003486427
0.003488091
0.003478939
0.003460219
0.003433112
0.003398512
0.00335688
0.00330824
0.003252185
0.003187938
0.003114442
0.002957144
0.002644911
0.002391309
0.002226534
0.002115642
0.00202305
0.001928486
0.001824203
0.001708582
0.001582394
0.001445816
0.001289575
0.001065947
0.0007204621
0.0003332707
4.330336e-05
4.062163e-05
0.0002300105
0.0003871235
0.0005866266
0.0008006837
0.0009907679
0.001147432
0.001284693
0.001425397
0.001593992
0.001807726
0.002043396
0.002167788
0.002239053
0.002304007
0.002364952
0.002424216
0.002484072
0.002546444
0.002612786
0.002683994
0.002760291
0.002841148
0.002925284
0.003010778
0.003095256
0.003176134
0.003251105
0.003317528
0.003373885
0.003419066
0.003452975
0.003475156
0.003485987
0.003486274
0.003477001
0.003459124
0.003433443
0.003400461
0.003360287
0.003312656
0.003257
0.003192543
0.003118317
0.00294162
0.002635202
0.002390081
0.00223063
0.002122181
0.002030298
0.001935439
0.001830617
0.001713537
0.001585569
0.001448249
0.001290991
0.001066063
0.0007208822
0.000333816
4.334874e-05
4.126064e-05
0.0002323549
0.0003872945
0.000583039
0.0007955695
0.0009899033
0.001157907
0.0013171
0.001495658
0.001714743
0.001955113
0.002083091
0.002160384
0.002230308
0.002295428
0.002358278
0.002421131
0.002485897
0.002554086
0.002626668
0.002703999
0.002785742
0.00287086
0.002957702
0.003044159
0.00312788
0.00320651
0.003278016
0.00334044
0.003392033
0.003433469
0.003463937
0.003483495
0.003492662
0.003492181
0.003482833
0.003465298
0.003440102
0.003407529
0.003367482
0.003319522
0.003263069
0.003197437
0.003121798
0.002921528
0.002623236
0.002389085
0.002235721
0.002129249
0.002037276
0.0019416
0.001835819
0.001717369
0.00158871
0.001450483
0.001292193
0.001066365
0.0007214778
0.0003343311
4.339738e-05
4.194195e-05
0.0002356722
0.0003888584
0.0005815329
0.0007945067
0.0009946231
0.00117764
0.001366318
0.001588366
0.001835635
0.001994086
0.002079809
0.002156489
0.002227122
0.002294456
0.002360872
0.002428371
0.002498553
0.002572561
0.002650912
0.002733458
0.002819397
0.002907341
0.002995439
0.003081565
0.003163522
0.003239522
0.003307334
0.003365583
0.003413824
0.003451782
0.003479339
0.003496665
0.003504266
0.003502756
0.003492724
0.003474648
0.003448932
0.003415769
0.003374888
0.003325765
0.003267868
0.003200645
0.003123394
0.002901171
0.002612281
0.002389445
0.002241683
0.002136357
0.00204367
0.001947092
0.00183957
0.00172046
0.001591135
0.00145206
0.001292859
0.00106633
0.0007217146
0.0003346543
4.343195e-05
4.265716e-05
0.0002403517
0.0003929359
0.0005835562
0.0007951317
0.001002604
0.001206938
0.001431228
0.001679992
0.001901287
0.001997022
0.002081915
0.002159339
0.002232244
0.002303089
0.002373988
0.002446668
0.002522393
0.002601892
0.002685258
0.002771926
0.002860767
0.002950192
0.003038309
0.003123107
0.003202638
0.003275246
0.003339404
0.003393508
0.003438247
0.003472921
0.0034976
0.003512512
0.003518118
0.003514921
0.003503375
0.00348388
0.003456837
0.003422371
0.003380073
0.003329359
0.003269779
0.003200983
0.003122213
0.002884816
0.002605396
0.002392349
0.002248741
0.002143574
0.002049787
0.001951199
0.001842666
0.001722904
0.001592965
0.001453109
0.001293082
0.001066173
0.0007217383
0.0003347126
4.348717e-05
4.336867e-05
0.0002456608
0.0003978681
0.0005852251
0.0007979627
0.001022469
0.00125302
0.001499198
0.001745758
0.001907361
0.0020034
0.002089693
0.002169718
0.002246261
0.002321602
0.002397622
0.00247574
0.002556854
0.002641297
0.0027288
0.002818481
0.002908999
0.002998687
0.003085704
0.003168205
0.00324479
0.003313513
0.003373503
0.003423843
0.003464596
0.003495599
0.003516952
0.003528885
0.003531805
0.00352613
0.003512234
0.00349057
0.00346163
0.00342543
0.003381413
0.003328958
0.003267449
0.003196693
0.003116532
0.002875212
0.002604711
0.002398458
0.002257029
0.002151136
0.002055031
0.001954794
0.001845368
0.001725137
0.001594663
0.001453972
0.001293074
0.00106595
0.0007217181
0.000334831
4.352655e-05
4.409939e-05
0.0002512897
0.0004040965
0.000594193
0.0008140638
0.001042119
0.001284309
0.001535142
0.001781676
0.001917527
0.002015756
0.002105212
0.002189189
0.002270357
0.002350832
0.002432237
0.002515673
0.002601683
0.002690261
0.002780844
0.00287234
0.002963313
0.003052127
0.003137082
0.003216567
0.003289285
0.003353851
0.003408711
0.003454819
0.003491275
0.003518157
0.003535618
0.003543903
0.003543389
0.003534448
0.003517484
0.003493116
0.00346191
0.003423739
0.003377815
0.003323415
0.003260377
0.003188561
0.003107589
0.002873139
0.002610776
0.00240853
0.002266769
0.002158271
0.002059621
0.001957732
0.001847538
0.001726915
0.001595896
0.001454354
0.001292654
0.001065468
0.0007212651
0.0003345227
4.358303e-05
4.484459e-05
0.0002580598
0.0004122081
0.000602216
0.0008265446
0.001062971
0.001303112
0.001566732
0.001819157
0.001933235
0.00203537
0.00212939
0.002218425
0.002304968
0.00239091
0.002477611
0.002565881
0.002655982
0.002747657
0.002840138
0.002932219
0.003022453
0.00310928
0.003191156
0.003267114
0.003335175
0.003394776
0.003444821
0.003485819
0.003517306
0.003539395
0.003552266
0.003556169
0.003551466
0.00353852
0.003517877
0.003490443
0.003456824
0.003416692
0.003369226
0.003313555
0.003249383
0.003176824
0.003096023
0.002879633
0.002624394
0.002422304
0.002277417
0.002165212
0.002063776
0.001960375
0.001849631
0.001728723
0.001597144
0.001454697
0.001292186
0.001065093
0.0007209022
0.0003343364
4.363765e-05
4.561356e-05
0.0002658638
0.0004215097
0.000610054
0.0008345735
0.001081517
0.001341928
0.001594686
0.001807479
0.001957767
0.002064781
0.00216406
0.002258585
0.002350678
0.00244193
0.002533411
0.002625696
0.002718848
0.002812456
0.002905625
0.002997126
0.003085557
0.003169473
0.003247504
0.003318809
0.003381739
0.00343566
0.003480378
0.003515708
0.003541608
0.00355824
0.003565815
0.003564608
0.003554993
0.003537403
0.003512679
0.003482067
0.003446147
0.003404374
0.003355723
0.003299201
0.003234506
0.003161892
0.003081617
0.002892848
0.002643833
0.002438627
0.002288451
0.002171708
0.002067423
0.001962721
0.001851596
0.001730425
0.001598255
0.00145493
0.001291674
0.001064553
0.0007202204
0.0003338687
4.369925e-05
4.63561e-05
0.0002739146
0.0004316178
0.0006210279
0.0008496326
0.001100902
0.001354216
0.001589236
0.001785486
0.001935774
0.002051145
0.002153347
0.002263117
0.002401808
0.00250145
0.002597061
0.002692693
0.002788141
0.002882839
0.002975796
0.003065795
0.003151529
0.003231709
0.003305157
0.003371174
0.003428433
0.00347582
0.003514484
0.00354362
0.003563326
0.003573838
0.003575425
0.003568407
0.003553198
0.003530416
0.003501392
0.00346769
0.003429709
0.003386682
0.003337443
0.003280817
0.003216186
0.003143957
0.003064536
0.002910642
0.002667505
0.002457309
0.002300308
0.00217827
0.002070936
0.001964954
0.001853492
0.001732082
0.001599378
0.001455259
0.001291301
0.001064151
0.0007195985
0.0003334193
4.377084e-05
4.71022e-05
0.0002823961
0.0004421503
0.0006322256
0.0008621977
0.001113548
0.001360768
0.001579637
0.001756253
0.001890827
0.001994062
0.002084285
0.002181188
0.002317117
0.002505186
0.00266776
0.002765844
0.002862715
0.002957612
0.003049481
0.00313715
0.00321942
0.00329515
0.00336333
0.003423403
0.003474254
0.003515139
0.003546905
0.003569094
0.003581878
0.00358556
0.003580477
0.003567013
0.003545623
0.003517375
0.003484078
0.003447513
0.00340787
0.003364132
0.003314875
0.003258718
0.003194773
0.003123384
0.003045363
0.002929712
0.00269317
0.002477682
0.002312862
0.002184792
0.002074123
0.001966823
0.001855099
0.001733596
0.001600548
0.001455801
0.001291188
0.001063773
0.0007188891
0.0003329027
4.384459e-05
4.783572e-05
0.0002914622
0.0004533696
0.0006432887
0.0008723669
0.001119776
0.001356292
0.001558508
0.001717337
0.001837094
0.00193077
0.002015905
0.002115229
0.002245275
0.002418897
0.002644287
0.00284436
0.002941638
0.003035789
0.003125775
0.003210434
0.003288616
0.003359294
0.003421599
0.003475125
0.003518916
0.003552657
0.003576834
0.003591365
0.003596528
0.003592724
0.003580381
0.003560007
0.003532092
0.0034981
0.003460853
0.003421959
0.003381155
0.003337206
0.003288511
0.00323343
0.003170841
0.003100972
0.003024886
0.002942748
0.002719098
0.002499814
0.002326404
0.002191218
0.00207654
0.001967739
0.00185597
0.001734775
0.001601735
0.00145655
0.001291313
0.001063531
0.0007181811
0.0003323146
4.393296e-05
4.855954e-05
0.0003011052
0.0004642328
0.0006533983
0.0008796887
0.001120851
0.001346092
0.00153373
0.001678608
0.001787345
0.00187189
0.00194986
0.00204969
0.002178546
0.002342629
0.002574349
0.002863751
0.003023902
0.003116381
0.003203424
0.003284127
0.003357428
0.003422418
0.003478357
0.00352499
0.003560646
0.003586888
0.003603091
0.003609548
0.003606663
0.003594961
0.003575108
0.003547229
0.003512458
0.00347321
0.003432615
0.003391912
0.003350431
0.003306789
0.003259238
0.003205899
0.003145345
0.003077623
0.003003986
0.002924796
0.002743983
0.002524264
0.002340185
0.002196757
0.002078201
0.001968477
0.001857141
0.001736446
0.001603412
0.001457737
0.001291829
0.001063535
0.0007176311
0.0003317909
4.402436e-05
4.923821e-05
0.0003110241
0.0004747428
0.0006626991
0.0008851691
0.001118743
0.001332302
0.001506336
0.001639085
0.001740001
0.001821911
0.001898551
0.001994038
0.002113736
0.002268891
0.002498925
0.002811284
0.003106869
0.003198463
0.003283281
0.003360202
0.003428409
0.003487182
0.003535966
0.003574702
0.003601886
0.003619347
0.003626639
0.003624123
0.003612559
0.003592265
0.003563861
0.003528445
0.003487265
0.003443405
0.003400158
0.00335823
0.003316681
0.003273965
0.003228165
0.003177186
0.003119298
0.003054323
0.002983636
0.002907778
0.002767424
0.002547565
0.002353539
0.002202247
0.002079839
0.001969146
0.001858319
0.001738321
0.001605502
0.001459463
0.001292855
0.001063729
0.000717104
0.0003310791
4.412877e-05
4.989066e-05
0.00032076
0.0004852057
0.0006713389
0.000889346
0.001114881
0.001317371
0.001479726
0.001602817
0.00169766
0.001777428
0.001855671
0.001946564
0.002060263
0.002212931
0.002440495
0.002767774
0.003147915
0.003283237
0.003364813
0.003437099
0.003499376
0.003551074
0.00359182
0.003621801
0.003639896
0.003647743
0.003645434
0.003633543
0.003612441
0.00358339
0.003547194
0.003504684
0.003457657
0.003409905
0.003364632
0.003322102
0.003281108
0.00323992
0.003196444
0.003148367
0.003093674
0.00303194
0.002964603
0.002892325
0.002787114
0.002567834
0.002365374
0.002207037
0.002081345
0.001970255
0.001860369
0.001741204
0.001608463
0.001461827
0.001294356
0.00106432
0.0007169409
0.0003306134
4.42392e-05
5.050453e-05
0.0003308741
0.0004956385
0.0006790296
0.0008917923
0.001109118
0.001301439
0.001453976
0.001569621
0.0016603
0.001739259
0.001818853
0.001908793
0.002019937
0.002170888
0.002396532
0.002722655
0.003120618
0.00336846
0.003446573
0.003513669
0.003569259
0.003613013
0.003644814
0.003665179
0.003673406
0.003671178
0.003658554
0.003636421
0.003606085
0.003568582
0.003524883
0.003475916
0.003423957
0.003373315
0.003326898
0.003284552
0.003244825
0.003205797
0.003165187
0.003120466
0.003069363
0.003011232
0.002947531
0.002878963
0.002802357
0.002584365
0.002375769
0.002211671
0.002083202
0.001971981
0.001863125
0.001744729
0.001611956
0.001464667
0.001296289
0.001065147
0.000716906
0.0003304646
4.435901e-05
5.107442e-05
0.000340748
0.0005057519
0.0006862843
0.0008936415
0.001103087
0.001286526
0.001431386
0.001542023
0.001630401
0.001708452
0.001786547
0.001881287
0.001997903
0.002146914
0.002361361
0.002671991
0.003078276
0.003452675
0.003526997
0.003588324
0.0036365
0.003671547
0.003693713
0.003702571
0.003700546
0.003687198
0.003664058
0.003632249
0.003593016
0.003547626
0.003497204
0.003442769
0.003387015
0.003334577
0.003287972
0.003246658
0.003208937
0.003172686
0.003135427
0.003094421
0.003047165
0.002992851
0.002932944
0.002868099
0.002796802
0.002596924
0.002385587
0.002216142
0.002085478
0.001974728
0.001867131
0.001749397
0.001616354
0.001468201
0.001298787
0.001066417
0.0007171608
0.0003302904
4.4482e-05
5.158974e-05
0.0003507412
0.000515631
0.0006932848
0.0008957636
0.001098538
0.001275045
0.001414681
0.001522788
0.001610869
0.001689288
0.001767116
0.001863824
0.001986214
0.002142453
0.002354535
0.002646742
0.00303994
0.003473024
0.003604273
0.003658955
0.003698783
0.003724182
0.003735869
0.003733478
0.003719875
0.003695647
0.003662205
0.003620961
0.003573383
0.003520924
0.003464814
0.003406123
0.003347845
0.00329476
0.003248961
0.003209535
0.003174529
0.003141612
0.003108108
0.003071075
0.003027814
0.002977417
0.002921358
0.002860176
0.002792177
0.002606654
0.002393344
0.002220395
0.002088785
0.001978917
0.001872423
0.001755003
0.001621406
0.001472269
0.0013018
0.001068022
0.0007176673
0.0003303335
4.461251e-05
5.20635e-05
0.0003603311
0.0005254104
0.0007004272
0.0008981673
0.001094835
0.00126557
0.001401407
0.001508502
0.001598649