/*--------------------------------*- C++ -*----------------------------------*\
| =========                 |                                                 |
| \\      /  F ield         | OpenFOAM: The Open Source CFD Toolbox           |
|  \\    /   O peration     | Version:  2312                                  |
|   \\  /    A nd           | Website:  www.openfoam.com                      |
|    \\/     M anipulation  |                                                 |
\*---------------------------------------------------------------------------*/
FoamFile
{
    version     2.0;
    format      ascii;
    arch        "LSB;label=32;scalar=64";
    class       volScalarField;
    location    "1000";
    object      ILambda_8_0;
}
// * * * * * * * * * * * * * * * * * * * * * * * * * * * * * * * * * * * * * //

dimensions      [1 0 -3 0 0 0 0];

internalField   nonuniform List<scalar> 
12000
(
887.5603
885.4115
884.9472
884.7246
885.0969
885.9084
887.0357
888.3043
889.5481
890.6352
891.4875
892.0848
892.4541
892.6512
892.7413
892.7826
892.817
892.8665
892.9368
893.0235
893.1181
893.2127
893.3025
893.3867
893.4688
893.554
893.645
893.7366
893.8112
893.8415
893.8084
893.7339
893.7123
893.9067
894.4769
895.4327
896.4736
896.9241
895.8752
892.5404
886.6876
878.9028
870.5015
863.0963
858.0349
855.9474
856.4887
858.2317
858.776
855.3701
846.2612
832.2736
817.2395
805.978
800.2791
795.9363
784.8218
762.7801
736.9818
721.8161
889.0052
886.5026
885.5984
884.8867
884.7819
885.2083
886.0904
887.2739
888.5794
889.8364
890.9149
891.7433
892.3095
892.6481
892.8203
892.894
892.9279
892.9614
893.0136
893.0878
893.1778
893.2744
893.3696
893.4586
893.5414
893.6222
893.7075
893.8015
893.8995
893.9812
894.0124
893.965
893.8573
893.795
893.9726
894.5893
895.6751
896.8974
897.4883
896.4217
892.8411
886.5527
878.2894
869.5455
862.0502
857.1698
855.4993
856.6475
859.0744
860.0816
856.4633
846.1981
830.5125
814.4138
803.9531
800.8786
798.7905
786.3652
759.0163
729.2202
889.8441
887.314
886.2307
885.2839
884.8981
885.0506
885.7072
886.7448
887.9965
889.2853
890.4592
891.4161
892.1136
892.5631
892.8141
892.9325
892.9824
893.0133
893.0546
893.1174
893.1999
893.2937
893.3901
893.4826
893.5688
893.6502
893.7317
893.8184
893.9114
894.0013
894.0647
894.0716
894.0112
893.9318
893.9671
894.3079
895.0853
896.1861
897.1005
896.9435
894.7395
889.8995
882.6426
874.0803
865.8598
859.5532
856.1292
855.6911
857.3717
859.2368
858.4235
852.0832
839.2668
822.6288
807.9322
800.2862
798.852
794.6026
776.0507
742.4504
890.7992
888.2719
887.0097
885.8147
885.1169
884.9509
885.3306
886.1727
887.331
888.6272
889.8896
890.9841
891.8337
892.4207
892.7759
892.9594
893.0393
893.0747
893.107
893.1569
893.229
893.3177
893.4138
893.5091
893.5987
893.6821
893.7626
893.8456
893.9356
894.0302
894.114
894.1581
894.1342
894.0492
893.9858
894.1149
894.6321
895.6019
896.7618
897.4158
896.562
893.2912
887.2991
879.2124
870.4769
862.8285
857.6517
855.5608
856.2584
858.4511
859.7569
857.0567
847.895
832.6312
815.5893
803.1825
798.9874
798.8206
790.6451
763.0324
891.6779
889.2574
887.8877
886.5072
885.5336
885.0527
885.1272
885.7214
886.7223
887.9644
889.2672
890.4713
891.4658
892.1997
892.6789
892.9497
893.0785
893.1316
893.1611
893.1992
893.2588
893.3392
893.4323
893.5289
893.622
893.7086
893.7898
893.8699
893.9544
894.0463
894.1395
894.2133
894.2364
894.1878
894.0969
894.08
894.3306
895.0198
896.1101
897.1697
897.3396
895.5778
891.1475
884.1101
875.4958
866.9805
860.2324
856.3226
855.4677
856.991
859.2148
859.3835
854.3139
842.2724
825.1724
808.796
799.4355
798.3144
797.7998
783.7922
892.4871
890.2445
888.8277
887.3189
886.1102
885.3295
885.0853
885.3933
886.1828
887.313
888.6063
889.8863
891.0115
891.8961
892.5153
892.8952
893.0942
893.1811
893.2176
893.2475
893.2941
893.3635
893.4506
893.5463
893.642
893.7323
893.8161
893.8958
893.9765
894.0633
894.1565
894.2453
894.304
894.3013
894.2296
894.1478
894.2079
894.6141
895.4846
896.6447
897.4759
896.9829
894.1602
888.5396
880.6037
871.7533
863.7791
858.1527
855.5633
855.8346
857.9296
859.775
858.2771
850.419
835.6002
817.5241
803.0293
797.3058
798.571
796.7505
893.2003
891.1957
889.7943
888.2221
886.8327
885.7842
885.2245
885.2206
885.7505
886.7097
887.936
889.2468
890.4764
891.5052
892.2743
892.783
893.0746
893.215
893.2721
893.3007
893.3358
893.3923
893.4704
893.5625
893.659
893.7527
893.8399
893.9212
894.0001
894.0821
894.1712
894.2646
894.3459
894.3855
894.3559
894.2684
894.2161
894.382
894.9625
895.9901
897.1237
897.5593
896.2175
892.2242
885.4685
876.8735
868.1284
860.9946
856.6281
855.3088
856.5069
858.8481
859.8499
856.1569
845.2305
828.0304
810.1092
798.6734
796.862
800.233
893.8057
892.0795
890.7501
889.1791
887.6711
886.4007
885.5459
885.2205
885.4546
886.1885
887.2879
888.5762
889.8728
891.0285
891.9489
892.6016
893.0076
893.2233
893.3182
893.3562
893.384
893.4274
893.4938
893.5793
893.6744
893.7704
893.8613
893.9455
894.0248
894.1037
894.1876
894.2786
894.3699
894.4398
894.4565
894.4009
894.3102
894.3139
894.6169
895.3816
896.5195
897.5001
897.3528
894.9885
889.7684
882.0112
873.0593
864.7698
858.7224
855.6714
855.5026
857.3845
859.6037
859.2496
852.8525
838.7755
819.9495
803.5786
796.2666
798.4115
894.2971
892.8703
891.6614
890.1524
888.5919
887.1565
886.0425
885.4033
885.3197
885.7825
886.6963
887.9033
889.2194
890.473
891.536
892.3409
892.8805
893.1943
893.3473
893.4092
893.4375
893.4696
893.5228
893.5985
893.6894
893.7858
893.88
893.9678
894.0492
894.1272
894.2069
894.293
894.3851
894.4716
894.5258
894.5165
894.4393
894.3626
894.4519
894.9189
895.8599
897.0304
897.7002
896.7735
893.2456
886.8164
878.2756
869.3162
861.81
857.0141
855.2426
856.0443
858.3317
860.0172
857.7543
848.2119
831.181
811.8772
798.5941
796.0314
894.6756
893.5501
892.4992
891.1051
889.5575
888.0211
886.6975
885.7691
885.3624
885.5207
886.1958
887.261
888.5413
889.8524
891.0379
891.9945
892.6816
893.1151
893.3488
893.4526
893.4928
893.5187
893.5587
893.6221
893.7056
893.8001
893.8961
893.9876
894.0721
894.1512
894.2287
894.3098
894.398
894.4897
894.568
894.6023
894.5661
894.4758
894.4359
894.6427
895.292
896.3781
897.4699
897.6443
895.7465
890.965
883.4294
874.4001
865.8035
859.3557
855.8817
855.2726
856.8237
859.2101
859.8986
855.1466
842.153
822.7322
804.4576
795.575
894.9478
894.109
893.2406
892.0041
890.5298
888.959
887.4856
886.3081
885.5904
885.4261
885.819
886.6841
887.8684
889.1872
890.4632
891.56
892.4014
892.973
893.3102
893.4771
893.5446
893.5727
893.602
893.6517
893.7248
893.8142
893.9102
894.0046
894.0928
894.1743
894.2517
894.3293
894.4123
894.5022
894.5914
894.6575
894.6682
894.6067
894.517
894.5416
894.8964
895.7324
896.9036
897.771
897.2478
894.2102
888.1548
879.7065
870.5443
862.6695
857.4737
855.2919
855.6655
857.7235
859.8717
859.0378
851.2149
834.682
813.8391
798.1329
895.1255
894.5446
893.8704
892.8215
891.4726
889.9321
888.3746
887.001
886.0011
885.5132
885.5938
886.2071
887.2345
888.5035
889.827
891.0411
892.0339
892.7564
893.2185
893.4714
893.585
893.6278
893.6519
893.6884
893.7485
893.8297
893.9231
894.019
894.1107
894.1955
894.2743
894.3506
894.4292
894.5142
894.6048
894.6886
894.7385
894.7232
894.6417
894.5714
894.6917
895.2202
896.2274
897.39
897.8556
896.428
892.125
884.8617
875.7824
866.8784
860.0368
856.184
855.1727
856.3118
858.6257
860.1553
857.2012
845.7607
825.8517
804.6122
895.2235
894.8618
894.381
893.5364
892.3536
890.9023
889.3277
887.8201
886.5822
885.7871
885.5413
885.8619
886.6747
887.8328
889.1512
890.4478
891.5779
892.4561
893.0607
893.4226
893.6043
893.6779
893.7061
893.7324
893.7784
893.8483
893.9359
894.0312
894.1255
894.214
894.2955
894.3722
894.4482
894.5283
894.6153
894.7051
894.7803
894.8099
894.7681
894.6763
894.65
894.8986
895.6159
896.7524
897.7765
897.6373
895.1113
889.482
881.173
871.8199
863.5667
857.9883
855.4568
855.4225
857.0999
859.4122
859.8734
854.111
838.5248
815.3286
895.2585
895.0714
894.7722
894.1356
893.1465
891.8337
890.3062
888.7317
887.3119
886.2429
885.6738
885.6752
886.2236
887.2094
888.4638
889.797
891.0385
892.0671
892.8256
893.3174
893.5904
893.7147
893.7603
893.7826
893.8154
893.8717
893.9503
894.0422
894.1377
894.2294
894.3143
894.393
894.4683
894.5448
894.6268
894.7153
894.8023
894.8651
894.8712
894.8053
894.718
894.765
895.1725
896.0776
897.269
897.9887
897.0274
893.2426
886.3103
877.2164
867.9988
860.7508
856.5559
855.216
855.9243
857.925
859.9547
858.7824
849.3831
828.988
895.2477
895.1885
895.0505
894.6135
893.8322
892.6954
891.272
889.6977
888.1604
886.8653
885.9942
885.6661
885.912
886.6691
887.7971
889.112
890.4271
891.5894
892.5045
893.1429
893.5303
893.7277
893.808
893.8365
893.8596
893.9015
893.968
894.0534
894.1477
894.2418
894.3304
894.412
894.4884
894.5632
894.6409
894.725
894.8142
894.8958
894.9424
894.9229
894.8389
894.7769
894.9296
895.5198
896.5885
897.7239
897.9407
895.9416
890.7939
882.6816
873.1544
864.4997
858.5331
855.7151
855.3492
856.5611
858.6913
860.0985
856.5784
842.7066
895.2073
895.2308
895.2278
894.9721
894.3994
893.4626
892.1901
890.6792
889.0924
887.6304
886.4946
885.8449
885.7654
886.2458
887.1863
888.4222
889.7622
891.0292
892.0932
892.888
893.4103
893.7046
893.8402
893.8892
893.9098
893.9386
893.991
894.0666
894.1569
894.2518
894.3436
894.4288
894.5075
894.5825
894.6577
894.7372
894.8234
894.9119
894.985
895.0116
894.9665
894.8754
894.8644
895.156
895.9405
897.1187
898.0478
897.5394
894.3087
887.7738
878.7123
869.1745
861.4859
856.9622
855.3866
855.7252
857.2325
859.3211
859.7265
853.3723
895.1518
895.217
895.3195
895.2197
894.8448
894.1184
893.0308
891.6383
890.069
888.5063
887.1574
886.2117
885.8008
885.9696
886.6672
887.7611
889.0689
890.3998
891.593
892.5449
893.2177
893.6318
893.8459
893.9337
893.963
893.983
894.0207
894.0836
894.1668
894.2602
894.3543
894.4432
894.5252
894.6018
894.6763
894.7526
894.8344
894.9223
895.0081
895.0692
895.0729
895.0052
894.9227
894.9933
895.4536
896.4247
897.6226
898.1572
896.6911
892.081
884.2346
874.5609
865.4736
859.0838
856.0242
855.4476
856.2177
857.8868
859.8578
859.2814
895.0932
895.1655
895.3434
895.3694
895.1721
894.6534
893.7712
892.5409
891.0509
889.4563
887.956
886.756
886.0262
885.8642
886.2733
887.1644
888.3777
889.7212
891.0117
892.1103
892.9419
893.4958
893.8125
893.9606
894.0138
894.0332
894.0582
894.1066
894.1794
894.2684
894.3631
894.4554
894.5413
894.6206
894.6959
894.7707
894.8488
894.933
895.0217
895.1024
895.1477
895.1266
895.0429
894.9907
895.1761
895.8268
896.9507
898.0379
897.957
895.3098
889.2444
880.2775
870.4199
862.239
857.3656
855.6424
855.7542
856.7491
858.6178
860.8066
895.0406
895.0931
895.3177
895.4379
895.3911
895.0664
894.3963
893.3588
892.0008
890.4408
888.857
887.4575
886.4389
885.9446
886.0336
886.6679
887.7233
889.0201
890.3641
891.587
892.5757
893.284
893.7261
893.9584
894.0549
894.0857
894.1033
894.1372
894.1968
894.2781
894.371
894.4656
894.5554
894.6384
894.7157
894.7906
894.8664
894.9467
895.0332
895.1213
895.1938
895.2198
895.1741
895.0857
895.0905
895.424
896.2723
897.4817
898.2858
897.347
893.3282
885.8289
876.0524
866.502
859.627
856.3361
855.6891
856.1804
857.3525
859.7563
895.0003
895.0137
895.2599
895.4433
895.5162
895.3629
894.899
894.0711
892.8857
891.4203
889.8222
888.2876
887.0257
886.2163
885.9701
886.3046
887.142
888.3286
889.6723
890.9844
892.1173
892.9863
893.5733
893.9141
894.0763
894.1349
894.154
894.1759
894.2209
894.2913
894.3793
894.4743
894.5677
894.6548
894.7352
894.8113
894.8865
894.964
895.0467
895.1348
895.2204
895.2813
895.2849
895.2178
895.1411
895.2344
895.7449
896.7762
897.9643
898.2731
896.2288
890.7089
881.9157
871.7535
863.0204
857.7405
855.9287
856.008
856.6447
858.1001
894.9758
894.9384
895.1857
895.404
895.5645
895.5542
895.2799
894.6648
893.679
892.3582
890.8114
889.2107
887.7638
886.6737
886.0955
886.1023
886.6695
887.6824
888.9647
890.3193
891.5709
892.5967
893.3417
893.8138
894.0661
894.1729
894.2065
894.2225
894.2532
894.3101
894.3899
894.4827
894.5783
894.6695
894.7538
894.8323
894.9079
894.9841
895.0636
895.1487
895.2374
895.318
895.3637
895.3432
895.2613
895.2186
895.4342
896.1411
897.3115
898.3273
897.8961
894.5169
887.4564
877.6413
867.6066
860.1652
856.6103
856.0068
856.4208
857.0121
894.9683
894.8751
895.1079
895.3373
895.5547
895.6557
895.5464
895.1347
894.3616
893.2229
891.7854
890.1878
888.6224
887.3012
886.4128
886.0812
886.3384
887.1184
888.2747
889.6156
890.9477
892.1147
893.0221
893.6439
894.011
894.1892
894.2548
894.2746
894.2943
894.3363
894.4046
894.492
894.5877
894.6823
894.7709
894.8527
894.9299
895.0058
895.0835
895.1652
895.2522
895.3402
895.4129
895.4398
895.3954
895.3104
895.3294
895.7006
896.6067
897.8351
898.4825
897.0476
892.1501
883.6272
873.1954
863.8505
858.0757
856.179
856.3639
856.6897
894.9772
894.8286
895.0364
895.258
895.505
895.6853
895.711
895.4836
894.9226
893.9893
892.7083
891.1782
889.5645
888.0736
886.914
886.2521
886.1751
886.6722
887.639
888.9034
890.2666
891.546
892.6095
893.3928
893.8968
894.1713
894.2901
894.3279
894.3431
894.3711
894.4254
894.5039
894.5968
894.6935
894.7863
894.8721
894.9518
895.0285
895.1052
895.1847
895.2686
895.3568
895.4422
895.5037
895.509
895.4439
895.3727
895.4854
896.0405
897.1243
898.2858
898.327
895.626
889.105
879.3375
868.8124
860.7111
856.8139
856.2954
856.754
895.0005
894.8007
894.978
895.1783
895.432
895.6615
895.79
895.7203
895.3592
894.6404
893.5498
892.1432
890.5501
888.958
887.5809
886.6152
886.1979
886.3756
887.0951
888.2176
889.5532
890.9038
892.1046
893.0517
893.7101
894.1054
894.3014
894.3755
894.397
894.4148
894.454
894.5203
894.6071
894.7034
894.7996
894.8898
894.973
895.0513
895.1281
895.2062
895.2876
895.3733
895.4618
895.5423
895.5893
895.5713
895.4924
895.4578
895.6986
896.4547
897.6618
898.5837
897.7484
893.547
885.4083
874.7653
864.7541
858.3724
856.3516
856.7751
895.0358
894.7915
894.9364
895.1072
895.35
895.6024
895.8019
895.8588
895.6758
895.1676
894.2871
893.0481
891.5387
889.9165
888.3859
887.1599
886.4153
886.2536
886.6782
887.5957
888.8392
890.2086
891.5149
892.6166
893.4394
893.9772
894.2757
894.4081
894.451
894.466
894.4915
894.5432
894.6202
894.7131
894.811
894.9054
894.9928
895.0738
895.1514
895.2289
895.3087
895.3919
895.479
895.5665
895.6397
895.6689
895.6279
895.5469
895.5768
895.9792
896.9349
898.17
898.6308
896.6325
890.7576
881.1487
870.1467
861.2877
856.9557
856.6102
895.08
894.7991
894.9129
895.0506
895.2704
895.5241
895.7651
895.9161
895.883
895.5702
894.9053
893.8645
892.4923
890.9083
889.2946
887.8655
886.8249
886.3223
886.419
887.0751
888.1606
889.4878
890.8552
892.0895
893.0768
893.7733
894.1985
894.4139
894.4976
894.5215
894.5376
894.5741
894.6382
894.7242
894.8211
894.9188
895.0107
895.0953
895.1747
895.2523
895.3312
895.4127
895.4975
895.5853
895.6702
895.7331
895.7421
895.6812
895.6149
895.7419
896.3332
897.4602
898.5801
898.3141
894.8743
887.2509
876.484
865.7646
858.6585
856.4998
895.1301
894.8208
894.907
895.0114
895.201
895.4401
895.6975
895.9111
895.9959
895.8547
895.3982
894.5714
893.3774
891.893
890.2675
888.7021
887.4133
886.5877
886.3407
886.6906
887.5554
888.7746
890.1477
891.4795
892.6191
893.4826
894.0556
894.3795
894.5268
894.5757
894.5909
894.614
894.663
894.7384
894.8313
894.9301
895.0262
895.1153
895.1975
895.276
895.3543
895.4347
895.5179
895.604
895.6916
895.7722
895.822
895.8091
895.7349
895.706
895.9647
896.7602
897.9941
898.8027
897.5115
892.3913
883.0805
871.642
861.919
856.9924
895.1835
894.8536
894.9166
894.9904
895.1471
895.3608
895.6146
895.8623
896.0325
896.0331
895.7672
895.1563
894.1672
892.8333
891.2636
889.6335
888.157
887.0444
886.4572
886.4714
887.0611
888.1059
889.4216
890.8033
892.0701
893.0978
893.8336
894.2903
894.5265
894.6208
894.6476
894.6625
894.6961
894.7579
894.8429
894.9403
895.0394
895.133
895.2192
895.2995
895.3779
895.4575
895.5397
895.6243
895.711
895.7976
895.8719
895.9058
895.871
895.7947
895.8312
896.255
897.2496
898.4808
898.7295
896.1011
889.1395
878.3693
866.8891
858.7564
895.2382
894.8941
894.9388
894.9863
895.1108
895.2935
895.5291
895.7871
896.0118
896.1218
896.0204
895.6151
894.8432
893.6972
892.2425
890.6192
889.0241
887.6764
886.7716
886.4389
886.7116
887.5202
888.7113
890.0849
891.4404
892.6174
893.522
894.1316
894.4825
894.646
894.7017
894.7175
894.7383
894.7845
894.8581
894.9506
895.0505
895.1482
895.239
895.3225
895.4018
895.4808
895.5621
895.6459
895.7315
895.8184
895.9029
895.9686
895.9842
895.9302
895.8681
896.0022
896.6181
897.7774
898.8435
898.2361
893.9722
885.1224
873.2774
862.3206
895.2923
894.9397
894.9706
894.9968
895.0923
895.2423
895.4506
895.7005
895.9524
896.1394
896.1717
895.9514
895.3949
894.4598
893.168
891.6176
889.9765
888.4573
887.2757
886.6045
886.5346
887.0547
888.0548
889.3552
890.7485
892.0464
893.1146
893.8906
894.3801
894.6386
894.7445
894.7751
894.7888
894.8197
894.879
894.9628
895.0605
895.1609
895.2564
895.3441
895.4255
895.5045
895.5849
895.6681
895.7532
895.8394
895.926
896.0072
896.062
896.0575
895.9903
895.964
896.2305
897.0522
898.3021
898.983
897.1874
891.0319
880.3646
867.8102
895.3444
894.9876
895.009
895.0191
895.09
895.2088
895.3855
895.6143
895.8711
896.1049
896.2381
896.1751
895.8205
895.1045
894.0094
892.5889
890.9729
889.3532
887.9504
886.9682
886.5494
886.7423
887.4909
888.6499
890.0205
891.3974
892.6111
893.5573
894.2047
894.5841
894.765
894.8285
894.8454
894.8639
894.9073
894.9789
895.0709
895.1716
895.271
895.3636
895.4484
895.5286
895.6082
895.6905
895.7755
895.8616
895.9479
896.0337
896.1103
896.1517
896.1268
896.0562
896.0932
896.5252
897.5445
898.7615
898.7769
895.4396
887.1892
874.7968
895.3937
895.0362
895.0512
895.05
895.1015
895.1928
895.3372
895.5374
895.7822
896.0368
896.2387
896.301
896.1253
895.6234
894.744
893.4977
891.9713
890.3245
888.767
887.5192
886.7647
886.6093
887.0565
888.0079
889.2888
890.6908
892.0182
893.1267
893.9437
894.4675
894.7496
894.8685
894.9034
894.9164
894.9444
895.001
895.0836
895.1814
895.2831
895.3804
895.4699
895.5524
895.6321
895.7132
895.7977
895.8842
895.9708
896.0569
896.1414
896.2118
896.2375
896.194
896.1349
896.2666
896.8907
898.0677
899.0684
898.0794
892.8413
882.3582
895.4395
895.0837
895.0951
895.0865
895.1237
895.1923
895.3069
895.4752
895.6967
895.9512
896.1926
896.3472
896.321
896.0164
895.3572
894.3153
892.9327
891.329
889.6896
888.2355
887.1779
886.6726
886.7833
887.4681
888.5906
889.9546
891.3504
892.5999
893.588
894.2743
894.6837
894.8834
894.9556
894.9742
894.9907
895.0311
895.1006
895.1919
895.2933
895.3945
895.489
895.5754
895.6565
895.7367
895.8199
895.9066
895.9943
896.0809
896.1666
896.2493
896.3115
896.3196
896.2619
896.2345
896.4951
897.3238
898.5749
899.111
896.7422
889.3557
895.4811
895.1292
895.139
895.1262
895.1536
895.2048
895.2936
895.4306
895.6225
895.8616
896.1178
896.333
896.4235
896.291
895.8432
895.0207
893.823
892.3249
890.6772
889.086
887.775
886.9382
886.6959
887.0669
887.9653
889.2229
890.6303
891.9853
893.1337
893.9925
894.552
894.8593
894.9923
895.0323
895.0449
895.0702
895.1241
895.2051
895.3029
895.4059
895.5052
895.5966
895.6806
895.761
895.8428
895.9286
896.0173
896.1055
896.1917
896.277
896.3572
896.4093
896.3986
896.3349
896.3648
896.787
897.8105
899.0033
898.7894
894.814
895.5184
895.1718
895.1815
895.1669
895.1885
895.2271
895.2952
895.4039
895.5642
895.7781
896.0296
896.2772
896.4514
896.4602
896.2044
895.6019
894.6151
893.274
891.6871
890.0329
888.5314
887.4007
886.8087
886.835
887.4521
888.5339
889.8874
891.2995
892.5835
893.6138
894.3402
894.7811
895.001
895.083
895.1038
895.1185
895.1559
895.2231
895.3136
895.4158
895.5186
895.6153
895.7036
895.7858
895.8667
895.9508
896.0394
896.1297
896.2179
896.3034
896.3884
896.4652
896.5049
896.4759
896.4188
896.5363
897.1481
898.3324
899.3163
898.2295
895.5511
895.2107
895.2218
895.2071
895.2258
895.2564
895.309
895.3938
895.5238
895.7076
895.9407
896.1974
896.4242
896.5409
896.4497
896.0553
895.2905
894.1437
892.6779
891.0341
889.4138
888.0429
887.125
886.7947
887.0865
887.9278
889.1576
890.567
891.9477
893.1355
894.0369
894.6334
894.9674
895.1158
895.1619
895.1744
895.197
895.2481
895.3275
895.4253
895.5296
895.6309
895.7245
895.8102
895.8916
895.9741
896.0612
896.1525
896.2437
896.3311
896.4162
896.501
896.5733
896.5983
896.5536
896.5213
896.762
897.5888
898.9046
899.6744
895.5795
895.2453
895.2593
895.2457
895.2639
895.2899
895.3318
895.3979
895.5012
895.6539
895.8603
896.1081
896.3604
896.5521
896.5937
896.3851
895.8392
894.9088
893.6123
892.0467
890.3825
888.8378
887.6363
886.958
886.8978
887.4436
888.4803
889.8194
891.2449
892.562
893.6346
894.4022
894.8761
895.1177
895.2106
895.2343
895.2474
895.2819
895.3467
895.4364
895.5391
895.6437
895.7427
895.8333
895.917
895.9987
896.0837
896.1742
896.2679
896.359
896.4453
896.5302
896.6151
896.6813
896.6897
896.6357
896.6542
897.0633
898.1495
899.6704
895.604
895.275
895.2934
895.2819
895.3012
895.3254
895.3608
895.4133
895.4946
895.6182
895.7942
896.021
896.2769
896.5135
896.654
896.6023
896.26
895.5531
894.4594
893.0298
891.3946
889.7498
888.3227
887.3252
886.9061
887.1159
887.896
889.0937
890.5015
891.9056
893.1321
894.0766
894.7115
895.0739
895.239
895.292
895.305
895.3252
895.3735
895.4511
895.5488
895.6543
895.7579
895.854
895.9418
896.0245
896.1076
896.196
896.2901
896.3852
896.4754
896.5604
896.6461
896.7312
896.7892
896.7805
896.7294
896.8372
897.4815
898.9229
895.6258
895.2992
895.3237
895.315
895.3369
895.3612
895.3934
895.4369
895.5014
895.6
895.7455
895.9443
896.1877
896.4432
896.6503
896.7223
896.5592
896.069
895.1961
893.9471
892.4071
890.7378
889.1544
887.8849
887.1207
886.9723
887.4433
888.4305
889.7509
891.1868
892.5356
893.6503
894.4601
894.9685
895.2334
895.3385
895.3658
895.3777
895.4093
895.4718
895.5604
895.6637
895.7702
895.8718
895.9649
896.0505
896.1332
896.219
896.3113
896.4086
896.5041
896.5926
896.6769
896.7645
896.8495
896.8974
896.8739
896.8471
897.0981
898.0515
895.6469
895.3178
895.3499
895.3445
895.37
895.3961
895.4276
895.466
895.5187
895.5971
895.7148
895.8832
896.1033
896.3575
896.6018
896.7639
896.7491
896.4575
895.8085
894.7697
893.3798
891.7581
890.0937
888.6141
887.539
887.0306
887.1558
887.8705
889.0317
890.4341
891.8592
893.1236
894.1116
894.7863
895.1786
895.3619
895.4229
895.437
895.4549
895.5003
895.5762
895.6737
895.7805
895.8864
895.9853
896.0756
896.1599
896.2439
896.3332
896.4299
896.5295
896.6242
896.7106
896.7953
896.8863
896.9708
897.0067
896.9746
896.9999
897.4296
895.67
895.3311
895.3717
895.37
895.4002
895.4292
895.4619
895.4981
895.5433
895.6067
895.7011
895.8398
896.0311
896.2692
896.5264
896.7466
896.8466
896.7268
896.2915
895.4768
894.2779
892.7678
891.0982
889.4806
888.1463
887.2971
887.0591
887.4518
888.3852
889.6826
891.1256
892.5043
893.6609
894.5139
895.0584
895.3482
895.4667
895.4985
895.5095
895.5384
895.5985
895.6861
895.79
895.8983
896.0025
896.0985
896.1864
896.2705
896.357
896.4509
896.5517
896.6525
896.7452
896.8297
896.9167
897.0126
897.0954
897.1176
897.0824
897.1636
895.6992
895.3402
895.3891
895.3912
895.4269
895.4599
895.495
895.5313
895.5727
895.6258
895.7019
895.8143
895.9752
896.1883
896.4395
896.6897
896.8708
896.8907
896.648
896.0567
895.0743
893.7275
892.1238
890.4447
888.9168
887.7662
887.1684
887.2066
887.852
888.9723
890.3653
891.8087
893.1099
894.1419
894.8577
895.2816
895.4847
895.5547
895.5705
895.5863
895.6291
895.7032
895.8004
895.9084
896.0166
896.1184
896.2116
896.298
896.383
896.4732
896.5721
896.6764
896.7769
896.8668
896.9507
897.0425
897.1445
897.2227
897.2259
897.1764
895.7389
895.3475
895.4025
895.4079
895.4496
895.4876
895.5262
895.5644
895.6045
895.6516
895.7143
895.805
895.9373
896.1209
896.3532
896.6104
896.8415
896.9669
896.8881
896.5065
895.7505
894.6041
893.1277
891.463
889.8159
888.4201
887.4874
887.1584
887.4698
888.3449
889.615
891.0616
892.4682
893.6665
894.5635
895.1457
895.4621
895.5953
895.6325
895.6432
895.6694
895.7271
895.8136
895.918
896.0281
896.1351
896.2341
896.3248
896.4106
896.498
896.593
896.6971
896.8037
896.9025
896.9895
897.0748
897.1745
897.2824
897.3503
897.3236
895.7944
895.3566
895.4131
895.4203
895.468
895.5119
895.555
895.5961
895.6371
895.6814
895.7353
895.8094
895.9169
896.0706
896.2761
896.5233
896.7775
896.9751
897.0271
896.8314
896.2971
895.3725
894.0719
892.4908
890.8022
889.2303
888.0069
887.3199
887.2689
887.8412
888.9159
890.2954
891.7543
893.0911
894.1674
894.9255
895.3827
895.6071
895.6875
895.7056
895.7197
895.7597
895.832
895.9289
896.038
896.1486
896.2534
896.3497
896.4386
896.5251
896.6161
896.7168
896.8256
896.9331
897.0289
897.1139
897.204
897.3146
897.4278
897.4829
895.8707
895.3727
895.4231
895.4291
895.4819
895.5323
895.5808
895.626
895.6692
895.7131
895.7621
895.8245
895.9119
896.0381
896.2139
896.4395
896.6954
896.9351
897.0834
897.0433
896.7138
896.0167
894.9248
893.4862
891.8311
890.1595
888.7061
887.6913
887.2708
887.4977
888.3103
889.5486
890.9952
892.4275
893.6669
894.6087
895.2302
895.5748
895.7243
895.7678
895.7786
895.8023
895.8576
895.943
896.0478
896.1596
896.2693
896.3716
896.4655
896.5536
896.6421
896.738
896.8448
896.9574
897.0642
897.1565
897.2416
897.3412
897.4677
897.5931
895.9716
895.4024
895.4355
895.4359
895.4913
895.5485
895.6032
895.6534
895.7
895.7452
895.7923
895.8472
895.9196
896.0225
896.1691
896.3668
896.6089
896.8652
897.077
897.1584
897.0077
896.5297
895.6637
894.4122
892.8582
891.1651
889.5538
888.2606
887.485
887.3431
887.8386
888.8632
890.225
891.6963
893.0672
894.1878
894.9896
895.4818
895.7292
895.8211
895.8423
895.8549
895.8923
895.9626
896.0591
896.1694
896.2822
896.3901
896.4899
896.5819
896.6703
896.7622
896.8642
896.9772
897.0924
897.1968
897.2862
897.3758
897.4931
897.6483
896.0989
895.4534
895.455
895.4433
895.4972
895.5603
895.6217
895.6778
895.7288
895.7767
895.824
895.875
895.9371
896.0215
896.1418
896.3098
896.5281
896.7812
897.0275
897.1961
897.1922
896.9133
896.2749
895.2394
893.8421
892.2017
890.5107
889.0037
887.9089
887.3963
887.536
888.2819
889.4839
890.9266
892.3823
893.662
894.6494
895.3116
895.6863
895.8535
895.9044
895.9157
895.9371
895.9899
896.074
896.1792
896.2928
896.4052
896.511
896.6084
896.6994
896.7894
896.8862
896.9953
897.1139
897.2301
897.3314
897.4204
897.5229
897.6724
896.2503
895.5333
895.4871
895.4552
895.5011
895.5679
895.636
895.6988
895.755
895.8066
895.8557
895.9055
895.9613
896.0322
896.1307
896.2703
896.46
896.696
896.9528
897.1765
897.2848
897.1768
896.7539
895.9473
894.7476
893.225
891.5326
889.8868
888.527
887.664
887.4295
887.8447
888.8148
890.1544
891.6349
893.0382
894.2032
895.0497
895.5786
895.8507
895.9553
895.9804
895.9919
896.0266
896.0949
896.1909
896.3023
896.4173
896.5285
896.632
896.7276
896.8186
896.9117
897.015
897.1317
897.2551
897.3707
897.4694
897.5643
897.6926
896.4188
895.6487
895.5377
895.4768
895.5058
895.5723
895.6459
895.7159
895.7783
895.8344
895.8865
895.9369
895.9898
896.0517
896.1333
896.248
896.4082
896.6187
896.8679
897.1188
897.3052
897.3349
897.1048
896.5247
895.5471
894.1947
892.5738
890.8686
889.3124
888.1401
887.5352
887.5854
888.2605
889.4214
890.8561
892.3326
893.6517
894.6852
895.3897
895.7962
895.9827
896.0419
896.0544
896.0737
896.1239
896.2068
896.3122
896.4275
896.5427
896.6522
896.7536
896.8481
896.9403
897.0383
897.1494
897.2739
897.4008
897.515
897.6145
897.7254
896.5907
895.8037
895.613
895.5141
895.5153
895.5753
895.6518
895.7288
895.7981
895.8597
895.9155
895.9681
896.0203
896.0771
896.1466
896.241
896.3738
896.5553
896.7846
897.0404
897.2736
897.4062
897.3387
896.9696
896.2227
895.0772
893.5903
891.9038
890.2285
888.806
887.8568
887.5287
887.8602
888.7711
890.0841
891.5702
893.0041
894.2132
895.1055
895.6728
895.9713
896.0901
896.1198
896.1305
896.1626
896.2289
896.3245
896.4368
896.5542
896.6687
896.7763
896.8761
896.9703
897.0653
897.17
897.2903
897.4222
897.5515
897.6656
897.7731
896.7445
895.9974
895.7175
895.5736
895.535
895.5798
895.6546
895.7373
895.8139
895.8819
895.9424
895.9981
896.0514
896.1059
896.1677
896.2468
896.3561
896.5086
896.7111
896.9553
897.209
897.4107
897.4716
897.2882
896.7658
895.8475
894.5432
892.9465
891.2325
889.6317
888.3847
887.6879
887.6462
888.2465
889.3616
890.7843
892.2787
893.636
894.716
895.4642
895.9042
896.1116
896.1803
896.1946
896.2119
896.2596
896.3412
896.447
896.564
896.6822
896.7954
896.9013
896.9999
897.0952
897.1948
897.3081
897.4384
897.5775
897.7096
897.8286
896.851
896.2225
895.8531
895.6616
895.5713
895.5901
895.6563
895.7418
895.8254
895.9005
895.9666
896.0262
896.0818
896.1362
896.1938
896.2623
896.3529
896.4792
896.6525
896.8745
897.1279
897.3687
897.5229
897.4934
897.1767
896.4898
895.4006
893.9533
892.278
890.5784
889.097
888.0635
887.641
887.8857
888.733
890.0147
891.5026
892.965
894.2177
895.1567
895.7641
896.0908
896.2251
896.2604
896.2708
896.3004
896.3647
896.4597
896.5733
896.6931
896.8111
896.923
897.0274
897.1258
897.2236
897.3301
897.454
897.5954
897.7424
897.8817
896.8733
896.4634
896.0168
895.7822
895.6308
895.6118
895.6601
895.7434
895.8326
895.915
895.9877
896.0521
896.1109
896.1667
896.2227
896.2846
896.3614
896.4658
896.6109
896.8052
897.0435
897.2984
897.513
897.6025
897.4638
896.9981
896.14
894.8868
893.319
891.6016
889.9611
888.6425
887.8546
887.7192
888.2407
889.3053
890.7114
892.2205
893.6148
894.7415
895.5347
896.0101
896.2401
896.3196
896.3363
896.3519
896.3971
896.4774
896.5836
896.7026
896.8238
896.941
897.0516
897.1552
897.2546
897.3569
897.4728
897.6097
897.7643
897.9244
896.7682
896.6945
896.1997
895.9364
895.7196
895.6514
895.6707
895.7444
895.8358
895.9252
896.0051
896.0752
896.138
896.1963
896.2526
896.3112
896.3787
896.466
896.5862
896.7515
896.9658
897.2156
897.4618
897.6353
897.6414
897.3754
896.7482
895.7172
894.3133
892.6542
890.9358
889.3999
888.2842
887.7667
887.9218
888.701
889.9465
891.4324
892.9208
894.2165
895.2031
895.8522
896.2089
896.3604
896.4023
896.4128
896.44
896.5023
896.597
896.7119
896.8343
896.9558
897.0722
897.1819
897.2855
897.3873
897.4968
897.6255
897.7792
897.9535
896.4891
896.8798
896.3844
896.12
895.8419
895.7155
895.6939
895.7482
895.8363
895.931
896.0183
896.095
896.1628
896.2243
896.2824
896.3399
896.402
896.477
896.5768
896.7149
896.9009
897.1327
897.3871
897.6125
897.7279
897.6317
897.2217
896.4244
895.225