/*--------------------------------*- C++ -*----------------------------------*\
| =========                 |                                                 |
| \\      /  F ield         | OpenFOAM: The Open Source CFD Toolbox           |
|  \\    /   O peration     | Version:  2312                                  |
|   \\  /    A nd           | Website:  www.openfoam.com                      |
|    \\/     M anipulation  |                                                 |
\*---------------------------------------------------------------------------*/
FoamFile
{
    version     2.0;
    format      ascii;
    arch        "LSB;label=32;scalar=64";
    class       volScalarField;
    location    "1000";
    object      ILambda_1_0;
}
// * * * * * * * * * * * * * * * * * * * * * * * * * * * * * * * * * * * * * //

dimensions      [1 0 -3 0 0 0 0];

internalField   nonuniform List<scalar> 
12000
(
2085.537
1347.999
955.2277
788.806
742.1646
746.2052
764.0294
779.7673
789.0597
792.6526
792.7543
791.35
789.684
788.3405
787.4465
786.9071
786.5504
786.2536
785.9466
785.5951
785.1899
784.7417
784.268
783.776
783.2653
782.7353
782.187
781.6173
781.0235
780.4075
779.7757
779.1375
778.5029
777.877
777.2261
776.4715
775.5896
774.6849
773.8686
773.0917
772.1208
770.8951
769.6585
768.5945
767.5154
766.1112
764.6366
763.5567
762.5551
760.9272
758.5262
756.0461
754.0225
751.668
748.3702
744.6359
740.7609
735.9909
729.8242
715.8923
2674.776
2378.189
1886.858
1414.996
1067.79
860.8502
764.5312
737.4855
744.3979
761.8944
777.8286
787.9555
792.3951
792.9653
791.6218
789.7771
788.1827
787.0747
786.3998
785.9984
785.7122
785.4303
785.0972
784.7005
784.2496
783.7586
783.2393
782.6997
782.1422
781.5653
780.9672
780.3482
779.7126
779.0684
778.4263
777.7836
777.1064
776.3517
775.5221
774.6729
773.8394
772.9566
771.9302
770.7825
769.6347
768.5084
767.2795
765.9351
764.6517
763.4761
762.1649
760.4184
758.2974
756.0953
753.7747
751.0481
747.899
744.1126
741.1172
730.8309
2676.745
2706.036
2548.007
2215.421
1802.674
1409.813
1100.76
896.2001
785.2698
741.9584
738.3474
752.1472
769.1445
782.3912
789.989
792.7641
792.494
790.8579
788.9992
787.4882
786.4718
785.8636
785.4972
785.2198
784.9308
784.5832
784.1674
783.6939
783.1786
782.6346
782.0693
781.4848
780.881
780.2581
779.62
778.9761
778.3316
777.6731
776.9724
776.2142
775.4161
774.6012
773.7482
772.8033
771.7566
770.6607
769.5388
768.3485
767.0826
765.815
764.5962
763.3333
761.8389
760.0688
758.1014
755.9238
753.5315
750.5065
748.4037
741.4833
2633.477
2687.744
2720.403
2648.609
2438.076
2116.271
1747.108
1397.436
1114.12
916.504
800.5052
748.0697
736.7324
746.4069
762.6934
777.3499
787.084
791.7516
792.6962
791.5763
789.7342
787.9885
786.684
785.8474
785.3502
785.0295
784.7531
784.4414
784.0624
783.615
783.1126
782.5708
782.0012
781.4099
780.7991
780.1715
779.5328
778.8884
778.2352
777.5598
776.8487
776.1013
775.3236
774.506
773.6222
772.6584
771.6278
770.5423
769.3962
768.1913
766.9599
765.7356
764.4861
763.1235
761.5849
759.8319
757.931
755.5512
753.7504
748.8627
2622.875
2636.695
2679.735
2720.523
2703.208
2583.936
2354.801
2044.683
1703.535
1382.369
1118.309
928.4453
811.4894
753.9097
737.0851
743.0754
757.9971
773.0933
784.1878
790.3497
792.4434
791.9666
790.3212
788.4857
786.9702
785.9216
785.2733
784.8762
784.5832
784.29
783.9419
783.5226
783.0388
782.5052
781.9355
781.3394
780.7229
780.0916
779.4506
778.8014
778.1387
777.4538
776.7415
776.0003
775.223
774.393
773.4961
772.5309
771.5017
770.4095
769.2578
768.0657
766.8575
765.6285
764.3408
762.9247
761.3975
759.528
757.9917
754.2367
2623.789
2621.15
2632.55
2667.014
2710.101
2725.169
2671.416
2524.398
2286.944
1987.004
1666.256
1366.24
1117.639
935.399
819.4457
759.0359
738.3192
741.2142
754.5882
769.5854
781.4975
788.7961
791.9023
792.0953
790.7505
788.9349
787.2845
786.057
785.2568
784.7641
784.4317
784.1393
783.8124
783.4191
782.9563
782.4347
781.8687
781.2709
780.651
780.0167
779.3722
778.7168
778.0462
777.3562
776.6436
775.9012
775.1165
774.2764
773.3737
772.4061
771.3722
770.2752
769.1286
767.9504
766.7497
765.4979
764.1995
762.6809
761.4125
758.3848
2624.774
2622.036
2619.417
2626.905
2653.184
2693.511
2725.391
2715.797
2635.177
2470.121
2228.772
1937.711
1633.012
1349.81
1114.164
939.1465
825.1911
763.3775
739.9101
740.2681
752.1178
766.7241
779.0818
787.2238
791.1895
792.0264
791.0342
789.3157
787.5965
786.2286
785.2872
784.6911
784.3034
783.9961
783.6797
783.3072
782.8646
782.357
781.7979
781.2018
780.5812
779.9447
779.2956
778.634
777.9582
777.2653
776.5493
775.8004
775.0071
774.1598
773.2515
772.2773
771.2381
770.142
769.0053
767.8295
766.6378
765.3085
764.2236
761.7086
2625.226
2624.18
2621.176
2617.999
2621.702
2640.32
2674.69
2712.629
2730.056
2698.909
2597.787
2420.212
2177.246
1894.079
1602.657
1333.44
1108.97
940.7204
829.2829
766.9851
741.5965
739.9011
750.3362
764.4023
776.9524
785.7056
790.3845
791.8139
791.1925
789.6225
787.888
786.4175
785.352
784.6525
784.1998
783.8653
783.5488
783.1904
782.7652
782.272
781.7223
781.1311
780.5117
779.873
779.2198
778.554
777.8744
777.1772
776.4549
775.6982
774.8969
774.0414
773.1245
772.143
771.1026
770.007
768.8871
767.6584
766.6631
764.4815
2626.03
2625.217
2623.878
2620.867
2617.182
2617.755
2629.602
2656.517
2693.525
2724.892
2727.409
2677.723
2560.475
2373.846
2130.587
1854.568
1574.522
1317.306
1102.687
940.7652
832.1132
769.9438
743.2475
739.9033
749.065
762.5245
775.0957
784.2793
789.5406
791.5009
791.2472
789.8572
788.1489
786.61
785.4402
784.6428
784.1205
783.7495
783.4235
783.072
782.6606
782.1814
781.6424
781.0575
780.44
779.8002
779.1445
778.4753
777.7915
777.0885
776.3591
775.594
774.7832
773.9173
772.992
772.0024
770.9721
769.832
768.8928
766.9159
2627.176
2626.133
2625.226
2623.824
2620.961
2617.01
2615.275
2621.523
2640.778
2672.777
2708.718
2731.465
2719.618
2653.958
2523.727
2330.385
2087.67
1818.223
1548.175
1301.5
1095.705
939.7064
833.966
772.3423
744.7987
740.1406
748.1758
761.0109
773.4884
782.9626
788.6932
791.1207
791.2191
790.0259
788.3744
786.7968
785.5429
784.6561
784.0635
783.6496
783.3062
782.9551
782.5534
782.0866
781.558
780.9797
780.3651
779.7253
779.0677
778.395
777.7064
776.997
776.2596
775.4846
774.6634
773.7846
772.8609
771.8255
770.956
769.1324
2628.23
2627.195
2626.197
2625.272
2623.924
2621.317
2617.376
2614.147
2616.085
2628.342
2653.422
2687.772
2720.221
2733.426
2708.105
2628.599
2487.734
2289.349
2047.739
1784.41
1523.318
1286.066
1088.277
937.8368
835.0517
774.2623
746.2215
740.5257
747.5753
759.7964
772.1044
781.7617
787.8654
790.6987
791.1262
790.1363
788.5636
786.9719
785.6527
784.6867
784.0254
783.5651
783.1982
782.8419
782.4457
781.9884
781.469
780.897
780.2856
779.6462
778.9867
778.3104
777.6164
776.8997
776.1536
775.3657
774.5423
773.6162
772.834
771.164
2628.847
2628.057
2627.13
2626.205
2625.314
2624.088
2621.806
2618.108
2614.096
2612.982
2619.395
2637.166
2666.354
2700.907
2728.297
2731.646
2693.834
2602.245
2452.559
2250.373
2010.265
1752.686
1499.738
1271.025
1080.572
935.365
835.5296
775.7755
747.5068
741.0013
747.195
758.8284
770.9183
780.676
787.072
790.254
790.984
790.1965
788.7172
787.1311
785.7638
784.7289
784.0026
783.4942
783.0997
782.733
782.3377
781.8868
781.3746
780.8083
780.1998
779.5606
778.8991
778.2186
777.519
776.7923
776.0446
775.2118
774.5142
773.0044
2628.945
2628.443
2627.769
2626.963
2626.131
2625.309
2624.237
2622.312
2619.022
2614.793
2611.747
2613.667
2624.714
2647.138
2678.843
2711.959
2733.294
2726.81
2677.472
2575.281
2418.208
2213.178
1974.86
1722.728
1477.273
1256.383
1072.71
932.4434
835.5226
776.9436
748.6559
741.5289
746.9838
758.0643
769.9064
779.701
786.3217
789.8005
790.8048
790.2138
788.8369
787.2717
785.8709
784.7775
783.9908
783.4342
783.0089
782.6274
782.229
781.7812
781.2742
780.7122
780.1061
779.4668
778.8033
778.1164
777.4177
776.6514
776.0176
774.6551
2628.685
2628.364
2627.935
2627.371
2626.686
2625.957
2625.225
2624.316
2622.748
2619.958
2615.916
2611.862
2610.628
2616.074
2631.522
2657.615
2690.452
2720.892
2735.557
2719.453
2659.503
2547.959
2384.663
2177.543
1941.233
1694.294
1455.796
1242.14
1064.775
929.1861
835.1267
777.819
749.675
742.0828
746.903
757.469
769.0467
778.8296
785.6186
789.3478
790.5984
790.1945
788.9244
787.3915
785.9696
784.8272
783.9852
783.3814
782.9232
782.5236
782.1185
781.6709
781.1671
780.6083
780.0042
779.3628
778.7033
777.9829
777.3894
776.1414
2628.36
2628.052
2627.728
2627.35
2626.876
2626.302
2625.675
2625.039
2624.288
2623.053
2620.789
2617.195
2612.835
2609.639
2610.821
2619.962
2639.355
2668.13
2700.927
2727.763
2735.403
2709.997
2640.282
2520.455
2351.897
2143.294
1909.159
1667.195
1435.209
1228.288
1056.827
925.6795
834.4175
778.4457
750.5728
742.645
746.9225
757.0134
768.3192
778.0535
784.9639
788.9021
790.3718
790.1434
788.9811
787.4888
786.0562
784.8735
783.9817
783.3324
782.8405
782.4204
782.0057
781.5559
781.0538
780.4954
779.8985
779.2296
778.6703
777.5043
2628.275
2627.817
2627.424
2627.073
2626.717
2626.307
2625.822
2625.288
2624.744
2624.135
2623.191
2621.433
2618.421
2614.246
2610.062
2608.304
2612.282
2625.057
2647.822
2678.351
2710.131
2732.674
2733.114
2698.781
2620.077
2492.891
2319.876
2110.291
1878.459
1641.283
1415.429
1214.819
1048.911
921.9895
833.455
778.8603
751.3585
743.2031
747.0187
756.6733
767.706
777.3636
784.3564
788.4672
790.1302
790.0647
789.0088
787.5628
786.128
784.913
783.9768
783.2846
782.759
782.3167
781.8908
781.4351
780.9384
780.3559
779.8562
778.7712
2628.651
2627.935
2627.331
2626.84
2626.434
2626.067
2625.688
2625.266
2624.808
2624.344
2623.853
2623.151
2621.843
2619.451
2615.765
2611.327
2607.8
2607.931
2614.899
2631.089
2656.608
2688.042
2718
2735.744
2728.933
2686.074
2599.095
2465.355
2288.567
2078.415
1848.99
1616.436
1396.388
1201.723
1041.058
918.1674
832.2873
779.0936
752.0412
743.7483
747.173
756.4283
767.1914
776.7512
783.7939
788.0454
789.8778
789.9623
789.0097
787.6138
786.1839
784.9437
783.9684
783.236
782.6777
782.2109
781.7769
781.2916
780.8828
779.9209
2629.55
2628.557
2627.678
2626.936
2626.332
2625.844
2625.432
2625.05
2624.659
2624.252
2623.85
2623.45
2622.937
2622.006
2620.205
2617.159
2612.968
2608.621
2606.18
2608.524
2618.525
2637.815
2665.462
2697.043
2724.515
2737.099
2723.073
2672.099
2577.497
2437.912
2257.937
2047.57
1820.632
1592.555
1378.028
1188.987
1033.292
914.2532
830.9535
779.172
752.6301
744.2749
747.3709
756.262
766.7616
776.2081
783.274
787.6383
789.6182
789.8397
788.9864
787.643
786.2236
784.9643
783.955
783.1841
782.5981
782.0867
781.7167
780.8957
2630.845
2629.659
2628.535
2627.524
2626.649
2625.921
2625.327
2624.841
2624.421
2624.029
2623.646
2623.282
2622.945
2622.569
2621.934
2620.649
2618.28
2614.639
2610.173
2606.271
2605.275
2610.038
2623.004
2645.016
2674.184
2705.241
2729.69
2736.859
2715.718
2657.039
2555.412
2410.608
2227.957
2017.672
1793.286
1569.555
1360.3
1176.599
1025.63
910.279
829.486
779.1178
753.134
744.7796
747.6014
756.161
766.4054
775.7272
782.7943
787.2471
789.3546
789.7006
788.9417
787.6515
786.247
784.9726
783.9374
783.1136
782.5653
781.7293
2632.252
2631.032
2629.79
2628.587
2627.47
2626.473
2625.617
2624.904
2624.319
2623.832
2623.406
2623.017
2622.666
2622.362
2622.074
2621.654
2620.791
2619.057
2616.105
2611.989
2607.506
2604.38
2605.113
2612.403
2628.182
2652.504
2682.617
2712.563
2733.552
2735.141
2707.026
2641.044
2532.943
2383.479
2198.597
1988.653
1766.871
1547.366
1343.16
1164.549
1018.084
906.2706
827.9117
778.9509
753.5618
745.261
747.8562
756.1145
766.113
775.3021
782.3521
786.8724
789.0894
789.5476
788.8776
787.6394
786.2562
784.9537
783.9694
782.731
2633.448
2632.367
2631.177
2629.934
2628.691
2627.499
2626.4
2625.423
2624.586
2623.887
2623.308
2622.819
2622.395
2622.029
2621.729
2621.485
2621.206
2620.661
2619.472
2617.23
2613.733
2609.306
2605.073
2603.018
2605.689
2615.529
2633.908
2660.119
2690.641
2718.964
2736.142
2732.053
2697.137
2624.245
2510.176
2356.553
2169.832
1960.451
1741.315
1525.929
1326.573
1152.824
1010.666
902.2494
826.2534
778.6886
753.9218
745.7186
748.1289
756.1135
765.876
774.9271
781.9449
786.5142
788.824
789.3817
788.7988
787.5876
786.3416
784.4269
2634.207
2633.374
2632.382
2631.264
2630.061
2628.819
2627.587
2626.412
2625.332
2624.377
2623.558
2622.871
2622.295
2621.809
2621.401
2621.075
2620.835
2620.632
2620.305
2619.549
2617.958
2615.189
2611.228
2606.681
2602.959
2602.223
2606.974
2619.321
2640.047
2667.724
2698.159
2724.417
2737.508
2727.697
2686.175
2606.75
2487.18
2329.85
2141.639
1933.016
1716.559
1505.193
1310.506
1141.416
1003.383
898.2327
824.5305
778.3456
754.2213
746.1524
748.4141
756.1503
765.687
774.5964
781.5695
786.1699
788.5642
789.1747
788.8339
786.908
2634.492
2633.913
2633.179
2632.295
2631.275
2630.145
2628.94
2627.704
2626.486
2625.329
2624.27
2623.336
2622.533
2621.854
2621.282
2620.808
2620.431
2620.161
2619.977
2619.779
2619.337
2618.291
2616.246
2612.969
2608.659
2604.195
2601.226
2602.013
2608.924
2623.682
2646.475
2675.204
2705.102
2728.914
2737.702
2722.168
2674.248
2588.654
2464.016
2303.387
2113.997
1906.303
1692.55
1485.112
1294.932
1130.314
996.239
894.2347
822.7589
777.9346
754.4672
746.563
748.7077
756.2181
765.5393
774.3027
781.2286
785.8108
788.3944
788.7417
2634.448
2634.034
2633.514
2632.875
2632.104
2631.195
2630.16
2629.023
2627.82
2626.593
2625.39
2624.252
2623.215
2622.299
2621.508
2620.836
2620.275
2619.824
2619.494
2619.284
2619.138
2618.898
2618.27
2616.869
2614.345
2610.612
2606.093
2601.917
2599.92
2602.386
2611.486
2628.516
2653.08
2682.465
2711.416
2732.457
2736.777
2715.552
2661.452
2570.038
2440.733
2277.178
2086.887
1880.272
1669.244
1465.648
1279.824
1119.509
989.2385
890.2666
820.9518
777.4664
754.665
746.9505
749.0059
756.3095
765.4273
774.0493
780.7783
786.5427
2634.309
2633.928
2633.51
2633.037
2632.479
2631.812
2631.017
2630.092
2629.046
2627.905
2626.705
2625.489
2624.301
2623.183
2622.166
2621.265
2620.484
2619.821
2619.277
2618.864
2618.59
2618.436
2618.299
2617.961
2617.081
2615.276
2612.278
2608.166
2603.592
2599.904
2599.069
2603.328
2614.601
2633.734
2659.765
2689.428
2717.061
2735.055
2734.787
2707.931
2647.875
2550.974
2417.375
2251.233
2060.292
1854.888
1646.599
1446.766
1265.161
1108.992
982.3833
886.3372
819.1203
776.9499
754.8195
747.3165
749.2908
756.5087
764.8021
776.8041
2634.288
2633.83
2633.388
2632.956
2632.509
2632.012
2631.432
2630.744
2629.93
2628.989
2627.935
2626.791
2625.596
2624.391
2623.22
2622.12
2621.119
2620.23
2619.458
2618.81
2618.295
2617.931
2617.719
2617.604
2617.436
2616.942
2615.753
2613.516
2610.072
2605.682
2601.215
2598.203
2598.689
2604.814
2618.206
2639.249
2666.444
2696.027
2722.012
2736.724
2731.784
2699.379
2633.592
2531.525
2393.978
2225.561
2034.195
1830.12
1624.581
1428.435
1250.92
1098.752
975.674
882.4536
817.2719
776.3987
754.8988
747.8397
748.6976
760.5933
2634.499
2633.911
2633.361
2632.861
2632.401
2631.956
2631.495
2630.981
2630.382
2629.675
2628.844
2627.89
2626.827
2625.682
2624.492
2623.299
2622.144
2621.061
2620.072
2619.193
2618.433
2617.807
2617.334
2617.028
2616.872
2616.774
2616.53
2615.823
2614.279
2611.602
2607.762
2603.209
2599.012
2596.848
2598.784
2606.814
2622.238
2644.981
2673.039
2702.209
2726.249
2737.486
2727.821
2689.965
2618.673
2511.744
2370.574
2200.166
2008.581
1805.94
1603.157
1410.627
1237.082
1088.781
969.1081
878.6306
815.3699
775.9866
754.3794
749.2172
2634.935
2634.23
2633.551
2632.927
2632.367
2631.865
2631.402
2630.951
2630.478
2629.949
2629.333
2628.607
2627.76
2626.793
2625.723
2624.578
2623.394
2622.213
2621.072
2620.001
2619.023
2618.155
2617.412
2616.819
2616.397
2616.154
2616.043
2615.928
2615.559
2614.588
2612.659
2609.552
2605.385
2600.794
2597.025
2595.864
2599.349
2609.289
2626.635
2650.858
2679.484
2707.931
2729.763
2737.363
2722.947
2679.752
2603.18
2491.68
2347.189
2175.053
1983.436
1782.322
1582.298
1393.315
1223.628
1079.076
962.6779
874.7735
814.571
766.61
2635.502
2634.737
2633.965
2633.225
2632.539
2631.918
2631.364
2630.866
2630.402
2629.945
2629.461
2628.917
2628.283
2627.539
2626.676
2625.697
2624.621
2623.477
2622.3
2621.129
2619.999
2618.939
2617.971
2617.117
2616.4
2615.849
2615.488
2615.304
2615.218
2615.05
2614.507
2613.23
2610.897
2607.39
2602.98
2598.481
2595.292
2595.265
2600.372
2612.199
2631.335
2656.812
2685.721
2713.157
2732.548
2736.38
2717.209
2668.798
2587.169
2471.376
2323.847
2150.226
1958.746
1759.242
1561.978
1376.463
1210.651
1068.881
960.9559
844.4183
2636.07
2635.315
2634.518
2633.715
2632.933
2632.196
2631.518
2630.908
2630.362
2629.867
2629.403
2628.939
2628.444
2627.884
2627.233
2626.471
2625.592
2624.603
2623.522
2622.379
2621.208
2620.046
2618.926
2617.875
2616.918
2616.083
2615.401
2614.903
2614.605
2614.471
2614.386
2614.123
2613.36
2611.743
2609.005
2605.142
2600.583
2596.308
2593.84
2595.06
2601.835
2615.501
2636.28
2662.78
2691.7
2717.859
2734.604
2734.564
2710.655
2657.159
2570.691
2450.87
2300.569
2125.685
1934.508
1736.623
1542.493
1358.274
1207.573
1009.517
2636.535
2635.844
2635.085
2634.287
2633.474
2632.669
2631.893
2631.166
2630.5
2629.9
2629.361
2628.87
2628.404
2627.933
2627.425
2626.849
2626.18
2625.401
2624.508
2623.509
2622.424
2621.282
2620.118
2618.963
2617.851
2616.808
2615.866
2615.057
2614.419
2613.982
2613.746
2613.648
2613.531
2613.132
2612.11
2610.129
2606.998
2602.836
2598.23
2594.309
2592.691
2595.25
2603.715
2619.151
2641.414
2668.707
2697.377
2722.016
2735.935
2731.942
2703.326
2644.882
2553.791
2430.192
2277.393
2101.317
1911.302
1711.459
1538.416
1269.082
2636.858
2636.246
2635.561
2634.821
2634.04
2633.234
2632.421
2631.621
2630.855
2630.139
2629.485
2628.894
2628.362
2627.873
2627.404
2626.924
2626.403
2625.811
2625.125
2624.329
2623.423
2622.416
2621.328
2620.188
2619.027
2617.879
2616.773
2615.741
2614.818
2614.044
2613.459
2613.086
2612.906
2612.823
2612.641
2612.065
2610.749
2608.393
2604.894
2600.502
2595.954
2592.513
2591.86
2595.829
2605.985
2623.106
2646.683
2674.542
2702.714
2725.61
2736.548
2728.541
2695.266
2632.007
2536.548
2409.192
2255.195
2073.089
1907.536
1601.523
2637.08
2636.519
2635.902
2635.236
2634.525
2633.771
2632.984
2632.177
2631.368
2630.576
2629.82
2629.115
2628.471
2627.89
2627.364
2626.876
2626.402
2625.913
2625.379
2624.771
2624.067
2623.257
2622.338
2621.324
2620.233
2619.094
2617.936
2616.792
2615.693
2614.675
2613.778
2613.048
2612.523
2612.214
2612.079
2611.986
2611.703
2610.912
2609.275
2606.544
2602.713
2598.168
2593.788
2590.945
2591.357
2596.79
2608.616
2627.32
2652.036
2680.238
2707.677
2728.628
2736.453
2724.378
2686.565
2618.346
2520.036
2383.346
2253.479
1959.617
2637.294
2636.732
2636.141
2635.525
2634.88
2634.198
2633.476
2632.717
2631.927
2631.122
2630.317
2629.533
2628.787
2628.093
2627.459
2626.886
2626.364
2625.877
2625.398
2624.899
2624.351
2623.727
2623.008
2622.183
2621.254
2620.232
2619.139
2617.999
2616.843
2615.703
2614.612
2613.613
2612.75
2612.071
2611.61
2611.362
2611.255
2611.124
2610.704
2609.666
2607.689
2604.593
2600.478
2595.863
2591.758
2589.623
2591.188
2598.117
2611.577
2631.75
2657.427
2685.753
2712.243
2731.048
2735.719
2719.231
2678.311
2599.607
2521.585
2285.755
2637.598
2636.982
2636.363
2635.749
2635.132
2634.501
2633.845
2633.154
2632.425
2631.662
2630.871
2630.067
2629.268
2628.492
2627.755
2627.072
2626.448
2625.882
2625.364
2624.876
2624.391
2623.883
2623.321
2622.682
2621.947
2621.109
2620.17
2619.142
2618.044
2616.903
2615.748
2614.612
2613.533
2612.558
2611.737
2611.116
2610.72
2610.525
2610.427
2610.227
2609.636
2608.32
2605.995
2602.553
2598.209
2593.612
2589.888
2588.564
2591.351
2599.795
2614.835
2636.354
2662.815
2691.036
2716.445
2732.636
2735.258
2709.705
2683.044
2532.298
2638.042
2637.35
2636.665
2636.002
2635.362
2634.736
2634.11
2633.471
2632.806
2632.108
2631.374
2630.606
2629.815
2629.014
2628.22
2627.452
2626.725
2626.052
2625.437
2624.878
2624.364
2623.873
2623.383
2622.864
2622.289
2621.635
2620.886
2620.035
2619.086
2618.051
2616.949
2615.805
2614.651
2613.521
2612.458
2611.514
2610.741
2610.183
2609.851
2609.696
2609.584
2609.285
2608.49
2606.874
2604.199
2600.441
2595.931
2591.441
2588.2
2587.778
2591.845
2601.802
2618.362
2641.078
2668.205
2695.88
2720.883
2731.275
2741.735
2677.182
2638.604
2637.854
2637.098
2636.364
2635.661
2634.991
2634.346
2633.715
2633.083
2632.437
2631.765
2631.061
2630.321
2629.55
2628.759
2627.961
2627.173
2626.413
2625.696
2625.033
2624.427
2623.874
2623.362
2622.869
2622.372
2621.842
2621.254
2620.586
2619.823
2618.96
2618.001
2616.959
2615.851
2614.705
2613.552
2612.43
2611.389
2610.483
2609.765
2609.272
2608.998
2608.869
2608.717
2608.287
2607.259
2605.327
2602.309
2598.273
2593.665
2589.373
2586.711
2587.271
2592.663
2604.11
2622.154
2645.782
2673.865
2699.451
2727.004
2727.852
2639.202
2638.441
2637.649
2636.857
2636.086
2635.347
2634.644
2633.973
2633.326
2632.691
2632.054
2631.401
2630.723
2630.012
2629.267
2628.494
2627.703
2626.908
2626.127
2625.376
2624.669
2624.015
2623.418
2622.87
2622.359
2621.863
2621.359
2620.819
2620.218
2619.536
2618.76
2617.885
2616.916
2615.865
2614.752
2613.603
2612.452
2611.343
2610.329
2609.467
2608.809
2608.381
2608.158
2608.034
2607.817
2607.225
2605.939
2603.682
2600.335
2596.066
2591.432
2587.427
2585.437
2587.042
2593.811
2606.661
2626.22
2650.599
2677.872
2713.159
2639.727
2639.014
2638.24
2637.436
2636.627
2635.83
2635.06
2634.323
2633.621
2632.951
2632.303
2631.664
2631.022
2630.363
2629.678
2628.961
2628.212
2627.438
2626.648
2625.857
2625.082
2624.34
2623.643
2622.998
2622.408
2621.865
2621.355
2620.856
2620.345
2619.794
2619.18
2618.485
2617.695
2616.809
2615.829
2614.769
2613.65
2612.498
2611.352
2610.261
2609.28
2608.469
2607.874
2607.508
2607.323
2607.185
2606.873
2606.092
2604.527
2601.942
2598.29
2593.838
2589.254
2585.622
2584.391
2587.108
2595.158
2610.086
2627.414
2668.819
2640.102
2639.475
2638.769
2638.008
2637.212
2636.4
2635.59
2634.795
2634.029
2633.296
2632.597
2631.927
2631.277
2630.635
2629.988
2629.323
2628.632
2627.909
2627.157
2626.381
2625.593
2624.807
2624.039
2623.305
2622.618
2621.982
2621.399
2620.86
2620.35
2619.848
2619.328
2618.767
2618.141
2617.432
2616.63
2615.731
2614.74
2613.671
2612.544
2611.392
2610.254
2609.185
2608.244
2607.489
2606.959
2606.649
2606.487
2606.313
2605.879
2604.882
2603.024
2600.114
2596.187
2591.607
2587.142
2584.009
2583.413
2588.164
2593.982
2624.018
2640.307
2639.771
2639.157
2638.478
2637.745
2636.97
2636.169
2635.356
2634.548
2633.758
2632.996
2632.267
2631.571
2630.901
2630.25
2629.604
2628.952
2628.281
2627.584
2626.857
2626.102
2625.325
2624.539
2623.758
2622.997
2622.273
2621.594
2620.967
2620.39
2619.855
2619.344
2618.838
2618.311
2617.739
2617.1
2616.378
2615.562
2614.65
2613.648
2612.569
2611.436
2610.285
2609.16
2608.118
2607.222
2606.527
2606.061
2605.799
2605.644
2605.409
2604.826
2603.591
2601.429
2598.208
2594.028
2589.427
2584.977
2583.082
2580.975
2594.466
2640.39
2639.915
2639.38
2638.789
2638.144
2637.447
2636.704
2635.924
2635.121
2634.31
2633.505
2632.72
2631.962
2631.237
2630.543
2629.874
2629.221
2628.572
2627.914
2627.238
2626.535
2625.804
2625.046
2624.269
2623.486
2622.71
2621.957
2621.241
2620.571
2619.953
2619.382
2618.849
2618.338
2617.826
2617.291
2616.709
2616.058
2615.322
2614.493
2613.567
2612.552
2611.463
2610.326
2609.178
2608.07
2607.062
2606.217
2605.584
2605.178
2604.953
2604.786
2604.465
2603.708
2602.218
2599.738
2596.254
2591.755
2587.507
2582.4
2582.81
2640.441
2639.977
2639.479
2638.949
2638.382
2637.771
2637.112
2636.405
2635.656
2634.873
2634.07
2633.261
2632.461
2631.68
2630.927
2630.205
2629.513
2628.845
2628.19
2627.538
2626.875
2626.194
2625.486
2624.751
2623.991
2623.215
2622.434
2621.664
2620.918
2620.211
2619.55
2618.939
2618.373
2617.843
2617.33
2616.814
2616.27
2615.677
2615.013
2614.264
2613.42
2612.481
2611.453
2610.354
2609.214
2608.073
2606.987
2606.018
2605.228
2604.658
2604.306
2604.106
2603.906
2603.476
2602.516
2600.77
2597.941
2594.241
2589.721
2583.733
2640.554
2640.051
2639.538
2639.021
2638.494
2637.945
2637.364
2636.741
2636.073
2635.359
2634.605
2633.82
2633.018
2632.212
2631.415
2630.639
2629.891
2629.173
2628.483
2627.815
2627.159
2626.502
2625.835
2625.149
2624.436
2623.697
2622.936
2622.161
2621.383
2620.619
2619.881
2619.182
2618.53
2617.925
2617.365
2616.836
2616.321
2615.8
2615.248
2614.643
2613.966
2613.202
2612.344
2611.39
2610.349
2609.242
2608.1
2606.971
2605.912
2604.988
2604.256
2603.747
2603.441
2603.251
2602.995
2602.432
2601.265
2599.126
2596.596
2589.864
2640.794
2640.22
2639.651
2639.098
2638.56
2638.027
2637.488
2636.928
2636.337
2635.706
2635.029
2634.31
2633.552
2632.766
2631.965
2631.162
2630.37
2629.599
2628.855
2628.141
2627.453
2626.784
2626.126
2625.466
2624.795
2624.103
2623.386
2622.644
2621.881
2621.107
2620.334
2619.575
2618.845
2618.154
2617.51
2616.912
2616.356
2615.828
2615.311
2614.784
2614.223
2613.606
2612.916
2612.137
2611.263
2610.295
2609.242
2608.127
2606.987
2605.873
2604.846
2603.971
2603.299
2602.848
2602.58
2602.374
2602.076
2601.205
2600.397
2595.758
2641.171
2640.525
2639.883
2639.263
2638.671
2638.106
2637.56
2637.02
2636.473
2635.905
2635.305
2634.666
2633.983
2633.258
2632.498
2631.711
2630.912
2630.112
2629.325
2628.558
2627.819
2627.108
2626.422
2625.753
2625.092
2624.429
2623.753
2623.057
2622.336
2621.591
2620.828
2620.055
2619.285
2618.533
2617.81
2617.128
2616.491
2615.9
2615.347
2614.82
2614.3
2613.766
2613.195
2612.567
2611.863
2611.069
2610.179
2609.195
2608.13
2607.009
2605.875
2604.781
2603.791
2602.968
2602.357
2601.951
2601.739
2601.391
2601.374
2599.137
2641.646
2640.953
2640.249
2639.558
2638.895
2638.266
2637.67
2637.101
2636.551
2636.006
2635.452
2634.877
2634.27
2633.623
2632.934
2632.205
2631.442
2630.656
2629.859
2629.063
2628.28
2627.518
2626.783
2626.075
2625.39
2624.721
2624.058
2623.391
2622.711
2622.01
2621.285
2620.538
2619.774
2619.003
2618.238
2617.492
2616.777
2616.102
2615.473
2614.887
2614.337
2613.81
2613.286
2612.746
2612.165
2611.525
2610.805
2609.995
2609.089
2608.089
2607.013
2605.89
2604.764
2603.695
2602.748
2601.974
2601.44
2601.018
2600.982
2600.157
2642.144
2641.446
2640.714
2639.976
2639.251
2638.552
2637.886
2637.256
2636.66
2636.09
2635.537
2634.987
2634.428
2633.846
2633.232
2632.579
2631.884
2631.152
2630.387
2629.602
2628.807
2628.014
2627.236
2626.479
2625.748
2625.043
2624.359
2623.689
2623.024
2622.353
2621.668
2620.962
2620.234
2619.485
2618.721
2617.952
2617.192
2616.452
2615.744
2615.077
2614.455
2613.874
2613.327
2612.799
2612.271
2611.723
2611.132
2610.478
2609.744
2608.917
2607.993
2606.979
2605.893
2604.768
2603.657
2602.613
2601.72
2600.978
2600.552
2600.01
2642.588
2641.926
2641.209
2640.464
2639.709
2638.961
2638.232
2637.533
2636.868
2636.24
2635.644
2635.074
2634.519
2633.965
2633.401
2632.813
2632.192
2631.533
2630.834
2630.098
2629.332
2628.547
2627.755
2626.967
2626.193
2625.44
2624.713
2624.01
2623.327
2622.656
2621.988
2621.313
2620.624
2619.915
2619.183
2618.432
2617.668
2616.902
2616.146
2615.412
2614.712
2614.053
2613.437
2612.861
2612.315
2611.786
2611.254
2610.698
2610.096
2609.428
2608.677
2607.832
2606.891
2605.862
2604.768
2603.644
2602.552
2601.532
2600.725
2599.806
2642.917
2642.321
2641.657
2640.945
2640.202
2639.443
2638.682
2637.932
2637.204
2636.507
2635.846
2635.22
2634.626
2634.056
2633.499
2632.941
2632.372
2631.778
2631.151
2630.486
2629.783
2629.044
2628.278
2627.494
2626.704
2625.92
2625.15
2624.402
2623.678
2622.977
2622.294
2621.622
2620.952
2620.273
2619.58
2618.866
2618.131
2617.379
2616.616
2615.852
2615.101
2614.374
2613.681
2613.029
2612.419
2611.846
2611.302
2610.771
2610.233
2609.669
2609.055
2608.372
2607.603
2606.74
2605.782
2604.738
2603.64
2602.506
2601.513
2600.09
2643.107
2642.587
2641.995
2641.347
2640.653
2639.924
2639.171
2638.407
2637.645
2636.896
2636.172
2635.479
2634.821
2634.199
2633.606
2633.036
2632.477
2631.916
2631.342
2630.742
2630.11
2629.439
2628.732
2627.991
2627.224
2626.441
2625.654
2624.874
2624.108
2623.364
2622.643
2621.944
2621.262
2620.588
2619.915
2619.232
2618.534
2617.817
2617.079
2616.326
2615.563
2614.803
2614.057
2613.336
2612.65
2612.004
2611.4
2610.831
2610.287
2609.753
2609.21
2608.635
2608.008
2607.309
2606.523
2605.639
2604.667
2603.584
2602.605
2600.877
2643.171
2642.718
2642.198
2641.624
2641
2640.332
2639.625
2638.887
2638.13
2637.365
2636.604
2635.858
2635.138
2634.449
2633.796
2633.176
2632.585
2632.015
2631.454
2630.89
2630.31
2629.705
2629.067
2628.392
2627.681
2626.938
2626.171
2625.39
2624.605
2623.829
2623.067
2622.327
2621.609
2620.911
2620.228
2619.553
2618.876
2618.19
2617.488
2616.767
2616.027
2615.272
2614.511
2613.754
2613.013
2612.299
2611.619
2610.98
2610.38
2609.814
2609.27
2608.732
2608.181
2607.596
2606.955
2606.237
2605.438
2604.501
2603.659
2601.904
2643.146
2642.737
2642.274
2641.766
2641.215
2640.619
2639.98
2639.3
2638.586
2637.844
2637.084
2636.319
2635.56
2634.818
2634.102
2633.419
2632.769
2632.153
2631.564
2630.993
2630.43
2629.862
2629.278
2628.668
2628.024
2627.345
2626.63
2625.885
2625.118
2624.339
2623.557
2622.784
2622.026
2621.289
2620.574
2619.877
2619.194
2618.517
2617.837
2617.147
2616.441
2615.716
2614.974
2614.219
2613.459
2612.706
2611.969
2611.261
2610.588
2609.954
2609.358
2608.794
2608.249
2607.706
2607.148
2606.548
2605.9
2605.127
2604.454
2602.877
2643.076
2642.688
2642.258
2641.796
2641.301
2640.772
2640.205
2639.597
2638.948
2638.261
2637.541
2636.796
2636.036
2635.272
2634.516
2633.778
2633.067
2632.388
2631.743
2631.13
2630.542
2629.971
2629.406
2628.834
2628.245
2627.63
2626.981
2626.297
2625.58
2624.833
2624.066
2623.288
2622.51
2621.74
2620.986
2620.252
2619.539
2618.843
2618.159
2617.48
2616.797
2616.103
2615.393
2614.665
2613.92
2613.165
2612.407
2611.657
2610.925
2610.223
2609.555
2608.926
2608.334
2607.77
2607.223
2606.673
2606.113
2605.466
2604.93
2603.608
2643
2642.612
2642.193
2641.752
2641.292
2640.81
2640.301
2639.76
2639.183
2638.566
2637.91
2637.218
2636.494
2635.747
2634.987
2634.225
2633.472
2632.738
2632.032
2631.358
2630.717
2630.106
2629.52
2628.948
2628.381
2627.805
2627.212
2626.591
2625.938
2625.25
2624.529
2623.781
2623.014