/*--------------------------------*- C++ -*----------------------------------*\
| =========                 |                                                 |
| \\      /  F ield         | OpenFOAM: The Open Source CFD Toolbox           |
|  \\    /   O peration     | Version:  2312                                  |
|   \\  /    A nd           | Website:  www.openfoam.com                      |
|    \\/     M anipulation  |                                                 |
\*---------------------------------------------------------------------------*/
FoamFile
{
    version     2.0;
    format      ascii;
    arch        "LSB;label=32;scalar=64";
    class       volScalarField;
    location    "1000";
    object      k;
}
// * * * * * * * * * * * * * * * * * * * * * * * * * * * * * * * * * * * * * //

dimensions      [0 2 -2 0 0 0 0];

internalField   nonuniform List<scalar> 
12000
(
0.00159013
0.003400883
0.003979916
0.004630765
0.005111387
0.005564548
0.005984104
0.006380827
0.006685225
0.00693958
0.007198454
0.007462848
0.007686869
0.007832604
0.007984574
0.008146609
0.008292756
0.008387116
0.008458485
0.008533815
0.00861225
0.008666083
0.008687351
0.008708399
0.00872752
0.008732768
0.008725625
0.008700753
0.008683623
0.008644499
0.008605759
0.008554012
0.008499238
0.008431161
0.008335212
0.008222618
0.00815036
0.008102
0.008022807
0.007869062
0.007671167
0.007604722
0.007548848
0.00737063
0.007095881
0.006927629
0.006859912
0.006815983
0.006351583
0.005942189
0.005804677
0.005809092
0.005606496
0.004840854
0.004567866
0.00436116
0.003956478
0.003588246
0.003200748
0.003013841
0.001758902
0.004220742
0.004782243
0.005566056
0.006287016
0.006671134
0.007022949
0.007712408
0.0088045
0.009392375
0.009526449
0.009789369
0.01082347
0.01178197
0.01184841
0.01188152
0.01255055
0.01336215
0.01377103
0.01378014
0.01402843
0.0146524
0.01509041
0.0152253
0.01536073
0.01576323
0.0160942
0.01627928
0.01646089
0.01670387
0.01686732
0.01703228
0.01722653
0.01736636
0.01747947
0.01754612
0.01760506
0.01765452
0.01768171
0.01769164
0.01763876
0.01757279
0.01740451
0.01727852
0.01719505
0.01713661
0.01675482
0.01624934
0.01590119
0.01557103
0.01527372
0.01402001
0.01321727
0.01258278
0.01204884
0.0101045
0.008079398
0.006540044
0.005530427
0.005521556
0.002611302
0.005211345
0.00604358
0.007037548
0.008173126
0.009119743
0.01004516
0.01108082
0.01220239
0.01304234
0.01346091
0.01390093
0.01454386
0.01519132
0.01556688
0.015809
0.01612748
0.01654513
0.01689121
0.01710719
0.01728386
0.01752947
0.01779686
0.01801766
0.01818228
0.01836071
0.01856537
0.01875828
0.01891924
0.01904476
0.01919602
0.01935229
0.01947581
0.01960632
0.01972827
0.01982131
0.01987002
0.01990941
0.01997605
0.02007902
0.02014232
0.02015438
0.02016911
0.02022114
0.02025473
0.0202578
0.0202329
0.0202397
0.02024716
0.02014662
0.01993528
0.01967617
0.01925115
0.01853208
0.01733306
0.01570006
0.01343007
0.0100551
0.00718591
0.00701588
0.003408502
0.00567278
0.006937637
0.008257371
0.009666645
0.0109036
0.01202337
0.01306775
0.01413826
0.01496107
0.01558795
0.01602335
0.01639262
0.01676949
0.01698983
0.0171642
0.01734588
0.01754218
0.01771852
0.01786272
0.01799841
0.01814685
0.01829126
0.01842895
0.01855588
0.01868466
0.01881746
0.01894479
0.01903173
0.01912583
0.01924713
0.01934349
0.01943281
0.01952226
0.01961072
0.01970039
0.01978476
0.01985916
0.01992686
0.01999612
0.02006753
0.02012976
0.0201752
0.02021297
0.02025078
0.02031055
0.02034688
0.02037726
0.02040623
0.02040148
0.02034387
0.0202332
0.01979471
0.01911331
0.01812146
0.01674378
0.0148409
0.01195936
0.00837384
0.00822631
0.004173855
0.005993704
0.007504903
0.009059295
0.01067126
0.01211169
0.01335539
0.01438255
0.01520443
0.01583563
0.0162651
0.01665873
0.01692134
0.01706431
0.01716728
0.0172519
0.01735393
0.01748305
0.01758514
0.01766808
0.01774497
0.01781421
0.01788589
0.01796869
0.01804376
0.01811884
0.01819346
0.01825715
0.0183068
0.01834788
0.01838555
0.01841965
0.01845616
0.0184987
0.01854553
0.01861082
0.0186975
0.01879661
0.01890811
0.01903449
0.01917583
0.01933217
0.01950423
0.01968162
0.01985535
0.02002943
0.02022654
0.02042289
0.0206482
0.02092063
0.02106886
0.02098538
0.02074505
0.02040275
0.01980944
0.01870593
0.01679847
0.01374631
0.00929356
0.008946186
0.004919254
0.006225841
0.007863224
0.009602073
0.01134981
0.01286543
0.01408748
0.01500951
0.01566655
0.01611503
0.01641709
0.016633
0.01679797
0.01688124
0.01689268
0.01688349
0.01686048
0.01682502
0.01681587
0.01682113
0.01684311
0.016877
0.01692325
0.01697312
0.01702178
0.01706625
0.01710333
0.01712949
0.01713905
0.01713971
0.01713216
0.01711824
0.0171149
0.01712934
0.01714696
0.0171811
0.01725823
0.01737289
0.01751675
0.01768964
0.01789279
0.01812602
0.01839239
0.01869318
0.01902591
0.01937186
0.01975895
0.02018491
0.02060146
0.02093166
0.02117806
0.02137973
0.02143283
0.02121747
0.02056491
0.019345
0.01739261
0.01441735
0.009987652
0.009488611
0.005601409
0.006433873
0.008153293
0.009960386
0.01169637
0.01313595
0.01424925
0.01506999
0.0156569
0.01604491
0.01625459
0.01631583
0.01631941
0.01627433
0.01618058
0.01608175
0.01598681
0.01590706
0.01585065
0.01581815
0.01580851
0.01581263
0.01582915
0.01585192
0.01587494
0.01589403
0.01590363
0.0159044
0.01589408
0.01587511
0.01584631
0.01580889
0.01578094
0.0157793
0.01580819
0.01586244
0.0159454
0.01606685
0.01623714
0.0164597
0.01673742
0.01707028
0.01747826
0.01796047
0.01850191
0.01908637
0.01968195
0.02029139
0.02088532
0.02147255
0.02201094
0.02242021
0.02258557
0.02246326
0.02188662
0.02067803
0.01862129
0.01540443
0.01060749
0.009839426
0.006272463
0.006626692
0.008307751
0.01008071
0.01174339
0.01313409
0.01421383
0.01498656
0.01548704
0.01576894
0.01587447
0.01587121
0.01579321
0.0156714
0.01552977
0.01537871
0.01523678
0.0151153
0.01501952
0.0149498
0.01490318
0.0148746
0.01485833
0.01484844
0.01483949
0.01482714
0.01480852
0.01478266
0.01475033
0.01471531
0.01467622
0.01464547
0.01463278
0.01464068
0.01468159
0.01476485
0.01489717
0.01508461
0.01533481
0.01566615
0.01608337
0.01658621
0.01714966
0.01776748
0.01844427
0.01918085
0.01996429
0.02077669
0.02158675
0.02234462
0.02299973
0.02348718
0.02369492
0.02353623
0.02282536
0.02138381
0.01906572
0.01566627
0.01084879
0.01002919
0.006853609
0.006804099
0.008427498
0.01012712
0.01173374
0.01306674
0.01407193
0.0147724
0.01520926
0.01543953
0.01550326
0.01548401
0.01539215
0.01526413
0.01512389
0.01497432
0.01482733
0.01469217
0.01457434
0.01447563
0.01439472
0.01432842
0.01427204
0.01422064
0.01417023
0.01411855
0.01406546
0.01401227
0.0139607
0.01391276
0.01387535
0.01385495
0.01385846
0.01389794
0.01398357
0.0141255
0.01433423
0.01461944
0.01498925
0.0154348
0.01595924
0.0165681
0.01726444
0.01804263
0.01889217
0.01979838
0.02074169
0.02169348
0.02261769
0.02347213
0.0242046
0.02473801
0.02495083
0.02470221
0.02382157
0.02220896
0.01972273
0.01613975
0.01113436
0.01019228
0.007405165
0.007002579
0.008514777
0.01010717
0.01160142
0.01284581
0.01380789
0.01450244
0.01496667
0.01524146
0.01536931
0.01539781
0.01535469
0.0152647
0.0151343
0.01499228
0.0148524
0.01472202
0.01460432
0.01449918
0.01440231
0.01430469
0.01420486
0.01410427
0.01400488
0.01390929
0.01381975
0.01373822
0.01366954
0.01361611
0.01358033
0.0135681
0.01358706
0.0136476
0.01376058
0.0139386
0.0141938
0.01453767
0.01497993
0.01552787
0.01618271
0.0169407
0.01779314
0.01872767
0.01972722
0.02077082
0.02183451
0.0228913
0.02390231
0.02481445
0.02555411
0.02602736
0.02610854
0.02566312
0.02456258
0.02268479
0.01993214
0.01619632
0.01117085
0.01021244
0.007881447
0.00718152
0.008585303
0.01009818
0.01151567
0.01271556
0.0136621
0.01436729
0.01486353
0.01518336
0.01537063
0.01543808
0.01544175
0.01539136
0.01531572
0.01522458
0.01512776
0.01502821
0.01492491
0.01481636
0.01470327
0.01459181
0.01448069
0.01436397
0.01424738
0.01413153
0.01401679
0.0139108
0.01381615
0.01373548
0.01367517
0.01364382
0.01365195
0.01371413
0.01384613
0.0140637
0.01438137
0.01481125
0.0153615
0.01603313
0.01682183
0.01772394
0.0187244
0.01979972
0.02092452
0.02206652
0.02319261
0.02427064
0.02526373
0.02612428
0.02678582
0.02715459
0.02711377
0.02648224
0.02509339
0.02291795
0.02003459
0.01627013
0.01121139
0.01025867
0.008292967
0.007398544
0.008738058
0.01012631
0.01145024
0.01261303
0.01356374
0.0142957
0.01482978
0.01520275
0.01546079
0.01563734
0.01572284
0.01574681
0.01573518
0.01570263
0.01565791
0.01560254
0.01553352
0.0154476
0.01534532
0.01523198
0.01511385
0.01499092
0.0148562
0.01470522
0.01455544
0.0144144
0.01428108
0.01416387
0.01407293
0.01402071
0.01402215
0.01408629
0.01424434
0.01450574
0.01488244
0.0153821
0.01600936
0.01676422
0.01764084
0.01862514
0.0197014
0.02085377
0.02204501
0.02321735
0.02433758
0.02538774
0.02633143
0.02711657
0.02766973
0.02788538
0.02763211
0.02676692
0.02520023
0.02294158
0.02004503
0.01627886
0.01121362
0.01026599
0.008676502
0.007617291
0.008877878
0.01018055
0.011457
0.01258407
0.01351433
0.01426115
0.01484532
0.01530317
0.01565268
0.01590948
0.01608417
0.01619986
0.01627555
0.016324
0.01635063
0.01635363
0.01632994
0.01627044
0.01617987
0.01606351
0.0159235
0.01575968
0.01557559
0.01539037
0.0152104
0.01503035
0.01485927
0.01470882
0.01459304
0.01452815
0.01453137
0.01461256
0.01480245
0.01510592
0.01553048
0.01607668
0.01673604
0.01750845
0.0184107
0.01944342
0.02056649
0.02173833
0.0229182
0.02406791
0.0251553
0.02615341
0.0270334
0.02774927
0.02822465
0.02834772
0.02797474
0.02695828
0.02524951
0.02293453
0.02001376
0.01624613
0.01117957
0.01029291
0.009042204
0.007871143
0.009096482
0.01033932
0.0115242
0.01259029
0.01351179
0.01427669
0.01491942
0.01545281
0.01588907
0.01623737
0.01650948
0.01672252
0.01689115
0.01702388
0.01712131
0.01717681
0.01718132
0.01713724
0.01703452
0.01688391
0.01669165
0.01647024
0.01623856
0.01601474
0.01579013
0.01556818
0.01536267
0.01518933
0.01506485
0.01500679
0.01502944
0.01515589
0.01539458
0.01574865
0.01621434
0.01678128
0.01745429
0.01825923
0.01918812
0.02021009
0.02129134
0.02240266
0.02351876
0.02461718
0.02567349
0.02665736
0.02752639
0.0282157
0.02862966
0.02864399
0.02811896
0.0269776
0.02522593
0.02288984
0.01997617
0.01622071
0.0111644
0.0102968
0.009385132
0.008142021
0.009319902
0.0105021
0.0116161
0.01263404
0.01353764
0.01433736
0.01503361
0.01563754
0.01615615
0.01659515
0.01696323
0.01727148
0.01752824
0.01773529
0.01788625
0.01796841
0.0179694
0.01789865
0.0177423
0.0175287
0.01728005
0.01699959
0.01671471
0.01644019
0.0161699
0.01591556
0.01569218
0.01551865
0.01541225
0.01538974
0.01545495
0.01563628
0.01592838
0.01632131
0.01680951
0.0174012
0.01810499
0.01890306
0.01978161
0.02072837
0.02172668
0.02276747
0.0238401
0.02492411
0.02598945
0.02699132
0.02786683
0.0285323
0.02887782
0.02877064
0.02813866
0.02694168
0.02516342
0.02282781
0.01992906
0.01619
0.01114988
0.01032834
0.009696466
0.008445513
0.009563346
0.01068782
0.01174346
0.01272452
0.01362403
0.01444358
0.01518475
0.01585108
0.01644454
0.01696684
0.0174214
0.01781184
0.01813805
0.01839298
0.01856204
0.01862737
0.01858683
0.01843652
0.01820833
0.01793282
0.01762163
0.01728148
0.01694251
0.01662221
0.01632024
0.01605336
0.01584034
0.01569656
0.01563436
0.01566257
0.01579457
0.01602482
0.01634848
0.01675677
0.01725086
0.01783578
0.01850519
0.01924895
0.02005887
0.02094001
0.02189216
0.02291001
0.02398508
0.02509449
0.02619709
0.02722679
0.0281027
0.02872464
0.02896901
0.02878188
0.02809339
0.02686705
0.02508931
0.02277415
0.01990171
0.01618361
0.01114739
0.01035654
0.009989803
0.008759685
0.009833999
0.01090487
0.01191041
0.01286033
0.01375453
0.01459197
0.01537156
0.01609179
0.01674979
0.01734216
0.01786536
0.01831383
0.01867705
0.01893788
0.01907436
0.01907086
0.01894751
0.01871453
0.01841951
0.01808054
0.01771089
0.01732204
0.01694567
0.01660176
0.0162948
0.0160397
0.01585536
0.01575398
0.01573874
0.01580567
0.01596815
0.01621537
0.0165408
0.0169401
0.01741263
0.01795839
0.01857943
0.01928247
0.02007117
0.02094646
0.02190543
0.02293616
0.02402923
0.02517423
0.02631866
0.02737328
0.02822622
0.02878114
0.02897424
0.02873454
0.02801571
0.02678422
0.02502284
0.02273413
0.01988543
0.01618391
0.01113816
0.01039169
0.01026629
0.009087632
0.01013494
0.01115836
0.01211871
0.01304075
0.01392963
0.0147827
0.01559491
0.01635972
0.01706879
0.01771197
0.01827652
0.01874564
0.01909744
0.0193064
0.01935203
0.01925514
0.01902961
0.01872882
0.01837692
0.0179851
0.01757216
0.01715845
0.01676684
0.01641804
0.0161263
0.01590297
0.01575605
0.0156901
0.01570268
0.01579218
0.01595444
0.01618554
0.01648369
0.01685069
0.01729204
0.01781484
0.01842691
0.01913475
0.01994148
0.02084612
0.02184042
0.02290799
0.02403088
0.02519646
0.02635966
0.0274099
0.02823933
0.0287618
0.02891042
0.02864269
0.02791695
0.02669966
0.02496556
0.02270591
0.0198845
0.01618412
0.01114003
0.01042365
0.0105446
0.009444545
0.01047602
0.01145392
0.01237277
0.01326982
0.01415348
0.01501909
0.01585701
0.01665473
0.01739654
0.01806256
0.01862823
0.01906492
0.01934269
0.01943843
0.0193755
0.01918438
0.01889412
0.01853128
0.01811658
0.01767811
0.0172369
0.01681351
0.01642791
0.01609636
0.01582965
0.01563399
0.01551133
0.01546024
0.01547619
0.01555804
0.01570401
0.01591529
0.01619609
0.01655349
0.01699648
0.01753419
0.01817391
0.01891957
0.01977021
0.02071834
0.0217494
0.02284299
0.0239813
0.02515532
0.0263232
0.0273679
0.02817584
0.02867046
0.02879898
0.02852717
0.02781472
0.0266233
0.02492184
0.0227004
0.01988436
0.01618475
0.011146
0.01046518
0.01082203
0.009825048
0.01085564
0.01179425
0.01267385
0.01354831
0.01442718
0.01530196
0.01615671
0.01697065
0.01771743
0.01836468
0.01887599
0.01921616
0.01936696
0.01935409
0.01918918
0.01890064
0.01853297
0.01810931
0.01765366
0.01718957
0.01673855
0.01631959
0.01594815
0.01563537
0.01538745
0.01520646
0.01509159
0.01504093
0.01505262
0.01512839
0.01527109
0.0154858
0.01577956
0.01616073
0.0166377
0.01721733
0.01790321
0.01869477
0.01958632
0.0205667
0.02161994
0.0227258
0.02386813
0.02504108
0.026205
0.02724235
0.02804153
0.0285311
0.02866372
0.0284083
0.02772255
0.02656325
0.02489167
0.02268506
0.01988711
0.01619145
0.01116212
0.01050632
0.01111263
0.01024394
0.01128367
0.01218488
0.01303052
0.01388432
0.01475628
0.01563319
0.01649057
0.01729583
0.01800874
0.01858412
0.01897992
0.01919053
0.0192048
0.01906154
0.01878438
0.0184152
0.01798065
0.01750741
0.01701951
0.01653881
0.01608469
0.01567303
0.01531525
0.01501817
0.01478502
0.0146166
0.01451251
0.01447233
0.01449666
0.01458908
0.01475461
0.0149996
0.01533101
0.01575576
0.01627966
0.01690707
0.01763813
0.01846818
0.01938948
0.02039017
0.02145482
0.02256494
0.02370626
0.0248757
0.02603869
0.02707878
0.02788497
0.02838743
0.02854004
0.02831215
0.02765859
0.02653256
0.02489483
0.02269759
0.01990407
0.01622181
0.01118609
0.01054272
0.01141629
0.01069579
0.01175537
0.01262686
0.0134395
0.01427475
0.01513828
0.01600749
0.01684493
0.01760204
0.01822296
0.01865592
0.01889856
0.0189279
0.01880395
0.01853893
0.0181727
0.01773407
0.01724993
0.01674422
0.01624001
0.01575765
0.01531329
0.01491848
0.01458113
0.01430617
0.0140959
0.0139509
0.01387151
0.01385881
0.01391503
0.0140441
0.01425129
0.01454212
0.01492203
0.01539568
0.01596613
0.01663544
0.01740177
0.01825868
0.01919816
0.02020923
0.02127846
0.02239017
0.02353278
0.02470548
0.02587515
0.02692551
0.02774579
0.0282668
0.02844274
0.02824256
0.02761906
0.02652215
0.02489768
0.02272323
0.01994015
0.01625389
0.01120881
0.01058301
0.01174036
0.01118842
0.01227851
0.01313032
0.01391394
0.01472686
0.01557021
0.01640825
0.01718537
0.01783483
0.0182952
0.01855693
0.01860167
0.01848824
0.01823813
0.01788259
0.01744901
0.01696028
0.01644144
0.01591782
0.01541092
0.01493775
0.01451137
0.01414121
0.01383285
0.013589
0.01341093
0.01329959
0.01325651
0.01328284
0.01338149
0.01355635
0.01381159
0.0141511
0.01457833
0.01509582
0.01570471
0.01640595
0.01719704
0.01807131
0.01902162
0.02003858
0.0211107
0.02222442
0.02337126
0.02455198
0.02573064
0.0267917
0.02762644
0.02816687
0.02836695
0.02819328
0.02760067
0.02652917
0.02492158
0.02276285
0.01998316
0.01629114
0.01123634
0.01061819
0.01207653
0.01170981
0.0128542
0.01368977
0.01444421
0.01522814
0.01603326
0.01680495
0.01746767
0.01794956
0.0182225
0.01828157
0.01817904
0.01794205
0.01759712
0.01716562
0.01667185
0.01614515
0.01561019
0.01508693
0.014592
0.01413921
0.013739
0.01339862
0.01312281
0.01291435
0.0127747
0.01270568
0.01270659
0.01277946
0.01292607
0.01314906
0.01345119
0.01383494
0.01430241
0.01485498
0.01549305
0.01621725
0.01702511
0.01791052
0.01886759
0.0198884
0.02096295
0.02207911
0.02323181
0.02442296
0.02561108
0.02668219
0.02753117
0.02809161
0.0283173
0.02817606
0.02760529
0.02654728
0.02496144
0.02281146
0.02002941
0.01632589
0.01125408
0.0106506
0.01243877
0.01228173
0.01348171
0.0143055
0.01503372
0.01577812
0.01651418
0.01716673
0.01765324
0.01792706
0.01799619
0.01790192
0.01767321
0.01733524
0.01690689
0.01641515
0.01588642
0.01534332
0.01480557
0.01429089
0.01381449
0.01338835
0.01302121
0.01271886
0.01248468
0.01232031
0.01222639
0.01220356
0.01225126
0.01237036
0.01256191
0.0128276
0.01316931
0.01358868
0.01408721
0.01466586
0.01532484
0.01606491
0.01688409
0.017777
0.01873872
0.0197624
0.02083908
0.02195758
0.02311624
0.02431793
0.02551427
0.02659396
0.0274565
0.0280367
0.0282863
0.02817148
0.02762037
0.02658602
0.02501359
0.02286832
0.02008187
0.01636654
0.01127898
0.01068579
0.01282335
0.0128882
0.01416754
0.01498937
0.01567211
0.01633979
0.01695101
0.01741998
0.01768613
0.01776309
0.0176756
0.01745529
0.01712378
0.01670029
0.01621216
0.01568372
0.01513617
0.01458879
0.01405993
0.01356542
0.01311813
0.01272777
0.01240099
0.01214178
0.01195211
0.01183257
0.01178399
0.01180424
0.01189382
0.01205276
0.01228158
0.01258143
0.01295376
0.01339991
0.01392113
0.01451836
0.01519206
0.01594316
0.01677
0.01766803
0.01863309
0.01965904
0.02073758
0.02185818
0.02302224
0.02423347
0.02543714
0.02652545
0.02740257
0.02800397
0.02828285
0.02818454
0.02765796
0.02664044
0.02507656
0.02293085
0.02013483
0.01640196
0.01129232
0.01071333
0.01322236
0.01353926
0.01490148
0.01570854
0.01633475
0.0168934
0.01733213
0.01758726
0.01765096
0.01755019
0.01732134
0.01698664
0.01656643
0.01608339
0.01555775
0.01500879
0.01445545
0.01391584
0.01340611
0.01293978
0.01252738
0.01217637
0.0118914
0.01167489
0.0115276
0.01144926
0.0114394
0.0114967
0.01162073
0.01181134
0.01206888
0.0123944
0.01278914
0.01325442
0.01379157
0.01440174
0.01508561
0.0158442
0.01667616
0.01757774
0.01854537
0.01957343
0.02065408
0.02177721
0.02294636
0.0241658
0.0253767
0.02647547
0.0273696
0.02799761
0.02829562
0.02822231
0.02771455
0.02670869
0.02514878
0.02299901
0.02019142
0.01644063
0.01130998
0.01074662
0.01363051
0.01420586
0.01567523
0.01649066
0.01702134
0.0174008
0.01761719
0.01765487
0.01753876
0.01729687
0.01695136
0.01652713
0.016045
0.01552154
0.01497249
0.01441532
0.01386718
0.01334401
0.01285967
0.01242528
0.01204905
0.01173639
0.01149028
0.01131183
0.01120089
0.01115762
0.01117912
0.01126525
0.01141541
0.01162949
0.01190785
0.01225146
0.01266167
0.01313995
0.01368781
0.01430648
0.01499727
0.01576123
0.01659676
0.01750104
0.01847113
0.01950183
0.02058563
0.02171271
0.0228874
0.02411378
0.02533159
0.0264442
0.02736121
0.02800962
0.0283325
0.02828003
0.02778699
0.02678873
0.02522878
0.02307095
0.020248
0.01647555
0.01132128
0.0107748
0.01405652
0.01491895
0.01650176
0.01727445
0.01766575
0.01783791
0.01783292
0.01767399
0.01740026
0.01703126
0.01659673
0.01611214
0.01558866
0.01503933
0.01447864
0.01392213
0.01338526
0.01288206
0.01242421
0.01202068
0.0116777
0.01139894
0.011186
0.01103899
0.01095716
0.01093986
0.01098519
0.01109256
0.01126147
0.01149185
0.01178422
0.01213975
0.01255999
0.01304662
0.01360142
0.01422588
0.01492181
0.01568953
0.0165276
0.01743477
0.01840841
0.01944352
0.02053253
0.02166537
0.02284717
0.02408207
0.02531285
0.0264417
0.02737774
0.02804955
0.02839444
0.02835912
0.02787638
0.02688109
0.02531668
0.023147
0.02030598
0.01650977
0.01133059
0.01080667
0.01449604
0.01565915
0.01734197
0.01805867
0.01825508
0.01821674
0.0180062
0.01766757
0.01725779
0.01679988
0.01630486
0.01577627
0.0152226
0.01465557
0.01408865
0.01353643
0.0130127
0.01252942
0.012096
0.0117193
0.01140365
0.01115151
0.01096379
0.01084004
0.01078074
0.01078201
0.01084387
0.01096547
0.01114648
0.01138707
0.01168804
0.01205076
0.01247702
0.01296877
0.01352806
0.01415656
0.01485605
0.015627
0.0164685
0.01737993
0.01835912
0.01940142
0.02049932
0.02164372
0.02283567
0.02407796
0.02531964
0.02646419
0.02742079
0.02811501
0.02847909
0.02845703
0.02798018
0.02698349
0.02541069
0.02322594
0.02036464
0.01654333
0.01134089
0.01083925
0.01494386
0.01641551
0.01820388
0.01881555
0.01882091
0.01854753
0.0181371
0.01766504
0.01716342
0.01664315
0.01610171
0.01553987
0.01496373
0.01438355
0.01381195
0.01326205
0.01274694
0.01227772
0.01186218
0.01150543
0.01121055
0.01097874
0.01080981
0.01070288
0.01065794
0.01067155
0.01074366
0.01087369
0.01106156
0.01130772
0.0116132
0.01197963
0.01240907
0.01290377
0.01346606
0.01409765
0.0148003
0.01557478
0.01642072
0.01733802
0.01832487
0.01937746
0.02048816
0.02164653
0.02284992
0.02409902
0.02535011
0.02651156
0.02748995
0.02820585
0.02858652
0.02857403
0.02809873
0.02709614
0.02551082
0.02330772
0.02042363
0.0165747
0.011347
0.01087323
0.01538945
0.01716892
0.01905065
0.01953751
0.01932612
0.01883874
0.01826704
0.0176828
0.01711162
0.01654232
0.01596763
0.01538208
0.01478899
0.01420027
0.01362546
0.01307766
0.01257023
0.01211248
0.01171067
0.01136861
0.01108825
0.01086993
0.01071299
0.0106163
0.01057959
0.01059992
0.01067723
0.01081117
0.01100189
0.0112501
0.0115571
0.01192479
0.0123555
0.01285182
0.01341629
0.01405058
0.01475652
0.01553526
0.01638697
0.01731224
0.01830978
0.01937526
0.02050111
0.02167502
0.02289017
0.0241452
0.02540681
0.02658607
0.02758627
0.02832238
0.02871645
0.02870925
0.02823061
0.0272174
0.02561577
0.02339193
0.02048411
0.0166077
0.01135676
0.010912
0.01584826
0.01793572
0.01986923
0.02021637
0.01978991
0.01911612
0.0184145
0.01774678
0.01711661
0.01650773
0.01590016
0.01529032
0.01467828
0.01407387
0.01349623
0.01295844
0.01246366
0.01201766
0.01162707
0.01129554
0.01102459
0.01081431
0.01066395
0.01057238
0.01053924
0.01056198
0.01064061
0.01077499
0.01096553
0.01121319
0.01151955
0.01188678
0.01231753
0.01281474
0.01338106
0.01401804
0.01472771
0.01551174
0.0163709
0.01730587
0.01831576
0.01939628
0.0205391
0.02173148
0.02296066
0.02422257
0.02549464
0.02669095
0.02771148
0.02846518
0.02886863
0.02886185
0.0283747
0.02734622
0.02572481
0.02347817
0.02054505
0.0166392
0.01136443
0.01095196
0.016305
0.01867914
0.02065417
0.02085539
0.02023146
0.01940111
0.01859408
0.01785633
0.01717544
0.01652937
0.01590115
0.0152685
0.01463507
0.01401526
0.01342754
0.01288856
0.01240468
0.01197214
0.01159232
0.01126965
0.01100573
0.01080067
0.0106538
0.01056415
0.01053155
0.01055372
0.01063093
0.0107633
0.01095149
0.01119678
0.01150103
0.01186676
0.01229688
0.0127946
0.0133625
0.01400235
0.0147165
0.0155068
0.01637451
0.01732058
0.01834422
0.0194415
0.02060367
0.02181683
0.02306279
0.02433384
0.02561528
0.02682651
0.02786486
0.02863282
0.02904105
0.02902944
0.02852861
0.02748079
0.02583722
0.0235669
0.02060844
0.01667303
0.01137518
0.01099835
0.01676128
0.01940552
0.02137949
0.0214602
0.02066885
0.01970911
0.01881473
0.01801734
0.01729279
0.01661068
0.01594654
0.015292
0.01464488
0.0140166
0.01341881
0.01287003
0.01238691
0.01196399
0.01159366
0.01127767
0.01101859
0.01081669
0.01067152
0.01058225
0.01054892
0.01056942
0.01064425
0.01077373
0.01095878
0.01120094
0.01150241
0.01186597
0.01229485
0.01279277
0.01336223
0.01400533
0.01472445
0.01552153
0.01639873
0.01735714
0.01839596
0.01951121
0.02069358
0.02192786
0.02319446
0.02448035
0.02576858
0.02699175
0.0280447
0.02882248
0.02922994
0.02920804
0.02868921
0.02761934
0.02595236
0.02365805
0.02067398
0.01670794
0.0113861
0.01104752
0.01720636
0.02009755
0.02204866
0.02203791
0.02111368
0.02004946
0.01908243
0.01823354
0.01746988
0.01675562
0.01606534
0.01538568
0.014715
0.01406344
0.01344915
0.01288919
0.01240027
0.01198405
0.0116256
0.0113191
0.0110661
0.01086754
0.01072343
0.01063335
0.01059775
0.01061474
0.01068523
0.01080986
0.01098987
0.01122709
0.01152403
0.01188402
0.01231114
0.01280913
0.01338023
0.01402675
0.01475141
0.01555655
0.01644463
0.01741687
0.01847249
0.01960734
0.02081153
0.02206837
0.0233566
0.02465741
0.0259517
0.02718427
0.02824776
0.02903056
0.02943237
0.02939577
0.02885552
0.02776158
0.02607054
0.02375256
0.02074316
0.01674569
0.01139514
0.01110296
0.01765168
0.02074779
0.02268587
0.02259715
0.02157122
0.02042472
0.01939782
0.01850411
0.01770403
0.01695883
0.01624123
0.01553748
0.01484654
0.01417751
0.01354502
0.012968
0.0124666
0.01204867
0.01169483
0.011393
0.0111432
0.01094603
0.01080148
0.0107093
0.0106703
0.01068266
0.01074774
0.01086653
0.01104065
0.01127235
0.01156458
0.01192105
0.0123461
0.01284376
0.01341624
0.01406628
0.01479714
0.01561132
0.01651152
0.01749897
0.0185728
0.0197286
0.02095577
0.02223606
0.02354628
0.02486196
0.02616194
0.02740136
0.02847102
0.02925355
0.02964449
0.02958894
0.02902486
0.02790629
0.02619175
0.02385086
0.02081669
0.01678868
0.01141101
0.01116292
0.01808362
0.02134536
0.02328909
0.02315072
0.02205194
0.02084136
0.01976446
0.01883081
0.01799657
0.01722003
0.01647368
0.01574415
0.01503024
0.01433967
0.01368672
0.01309156
0.0125756
0.01214826
0.01179443
0.01149571
0.01124734
0.01104984
0.01090322
0.01080739
0.01076357
0.01076993
0.01082835
0.01094019
0.01110745
0.0113328
0.01161961
0.01197202
0.01239489
0.01289239
0.01346677
0.01412117
0.01485932
0.01568383
0.01659749
0.01760148
0.0186947
0.01987233
0.02112291
0.02242663
0.02375841
0.02508887
0.02639475
0.02763843
0.0287098
0.02948725
0.02986332
0.02978616
0.02919724
0.0280542
0.02631671
0.02395329
0.02089409
0.01683541
0.01144043
0.01122828
0.01850449
0.02188494
0.02386061
0.02370565
0.02256202
0.02130373
0.02018454
0.01921369
0.01834538
0.01753664
0.01675934
0.01599989
0.01525769
0.01454275
0.01386938
0.0132559
0.01272276
0.01228138
0.01192388
0.01162545
0.01137594
0.01117575
0.01102491
0.01092348
0.0108727
0.01087153
0.01092199
0.01102579
0.01118532
0.01140369
0.01168471
0.01203298
0.01245382
0.01295166
0.01352876
0.0141887
0.01493548
0.01577175
0.01670027
0.01772205
0.01883559
0.02003545
0.02130901
0.02263476
0.02398591
0.02533174
0.02664646
0.02789103
0.02895979
0.02972785
0.03008567
0.02998509
0.02937138
0.02820509
0.02644607
0.02406099
0.02097662
0.01688534
0.01146701
0.01129805
0.01891151
0.02238116
0.02440565
0.02426635
0.02310105
0.02180774
0.02065185
0.01964524
0.01874211
0.01789927
0.01708849
0.01629584
0.01552109
0.01477716
0.01408052
0.01344896
0.01289978
0.01244351
0.01207701
0.01177497
0.01152222
0.01131723
0.01116018
0.01105136
0.01099137
0.01098151
0.01102278
0.01111758
0.01126876
0.01147984
0.01175507
0.0120995
0.01251901
0.01301818
0.01359926
0.0142662
0.0150232
0.01587282
0.01681769
0.01785855
0.01899341
0.02021601
0.02151246
0.02285949
0.0242287
0.02558822
0.02691006
0.02815376
0.02921673
0.02997189
0.0303095
0.03018535
0.02954815
0.02836023
0.02658078
0.02417443
0.02106465
0.01694074
0.01150179
0.01137273
0.01931178
0.02282642
0.02493199
0.02483584
0.0236698
0.02235236
0.02116361
0.02012091
0.01917989
0.01829807
0.01744869
0.01662049
0.01581448
0.01504199
0.01432164
0.01367062
0.01310287
0.01262888
0.01224778
0.01193815
0.01167988
0.01146783
0.0113024
0.01118415
0.01111401
0.01109411
0.01112512
0.01121025
0.01135278
0.01155669
0.01182661
0.01216811
0.01258747
0.01308937
0.01367606
0.01435172
0.01512063
0.01598516
0.01694774
0.01800872
0.0191655
0.02041094
0.02172971
0.02309681
0.02448245
0.02585364
0.02718069
0.02842202
0.02947678
0.03021681
0.0305336
0.03038678
0.02972792
0.02852016
0.02672136
0.02429394
0.02115822
0.01700029
0.01153785
0.01145166
0.01970064
0.02324558
0.02543547
0.02541537
0.02426926
0.02293807
0.02171998
0.0206403
0.01965772
0.01873168
0.017838
0.01696901
0.01612993
0.0153334
0.01459324
0.01392259
0.01333469
0.01283863
0.01243598
0.01211403
0.01184716
0.01162518
0.01144878
0.01131885
0.01123675
0.01120553
0.01122533
0.01130033
0.01143424
0.01163143
0.01189701
0.0122369
0.01265761
0.01316391
0.01375801
0.01444416
0.01522656
0.01610731
0.01708859
0.01817028
0.0193491
0.02061693
0.02195691
0.02334242
0.02474254
0.02612335
0.027454
0.02869195
0.02973713
0.03046124
0.03075799
0.03059039
0.0299121
0.02868611
0.0268685
0.02441968
0.0212572
0.01706467
0.01157762
0.0115344
0.02008051
0.02360573
0.02593604
0.02601024
0.02490214
0.02356503
0.02231887
0.02119943
0.02017034
0.01919489
0.01825322
0.0173421
0.01646924
0.01564685
0.0148868
0.01419919
0.01359236
0.01307263
0.01264369
0.01230122
0.01202082
0.01178653
0.01159686
0.01145318
0.01135741
0.01131368
0.01132154
0.01138625
0.01151197
0.01170345
0.01196603
0.01230578
0.01272948
0.01324189
0.01384509
0.01454329
0.0153404
0.01623824
0.01723869
0.01834114
0.01954158
0.02083084
0.02219053
0.02359263
0.02500535
0.02639407
0.02772711
0.02896115
0.02999637
0.03070497
0.03098337
0.03079728
0.03010162
0.02885863
0.02702248
0.02455182
0.02136196
0.01713475
0.01161977
0.01162118
0.02044557
0.02388876
0.02643018
0.02661633
0.025564
0.0242285
0.02295447
0.02179145
0.02071052
0.01968075
0.01868791
0.01773336
0.01682702
0.01598011
0.01520117
0.01449597
0.01386891
0.01332434
0.0128671
0.01249771
0.01219956
0.01195088
0.01174588
0.01158681
0.01147625
0.01141753
0.01141366
0.01146857
0.01158688
0.01177373
0.0120347
0.01237597
0.01280428
0.01332419
0.01393798
0.01464952
0.01546193
0.01637711
0.01739667
0.01851942
0.01974059
0.02104999
0.02242769
0.02384456
0.02526832
0.02666373
0.02799846
0.02922856
0.03025428
0.03094875
0.03121101
0.03100873
0.03029745
0.02903817
0.02718312
0.02468951
0.02147089
0.01720837
0.01166342
0.01171078
0.0208031
0.02412478
0.02692078
0.02723592
0.02625294
0.0249243
0.02362113
0.02241011
0.02127242
0.02018474
0.01913912
0.01814107
0.01720165
0.01633042
0.01553256
0.01480981
0.01416245
0.01359187
0.01310325
0.01270247
0.01238321