/*--------------------------------*- C++ -*----------------------------------*\
| =========                 |                                                 |
| \\      /  F ield         | OpenFOAM: The Open Source CFD Toolbox           |
|  \\    /   O peration     | Version:  2312                                  |
|   \\  /    A nd           | Website:  www.openfoam.com                      |
|    \\/     M anipulation  |                                                 |
\*---------------------------------------------------------------------------*/
FoamFile
{
    version     2.0;
    format      ascii;
    arch        "LSB;label=32;scalar=64";
    class       volScalarField;
    location    "1000";
    object      qin;
}
// * * * * * * * * * * * * * * * * * * * * * * * * * * * * * * * * * * * * * //

dimensions      [1 0 -3 0 0 0 0];

internalField   uniform 0;

boundaryField
{
    plate
    {
        type            calculated;
        value           nonuniform List<scalar> 
200
(
2588.49
2560.403
2555.099
2546.684
2533.286
2523.679
2522.698
2531.032
2546.262
2563.617
2577.534
2584.315
2583.851
2579.203
2574.881
2575.143
2582.692
2597.724
2617.639
2637.891
2653.887
2662.984
2665.457
2663.981
2662.095
2662.603
2666.669
2673.766
2682.263
2690.279
2696.497
2700.676
2703.677
2706.984
2711.921
2718.967
2727.508
2736.133
2743.311
2748.084
2750.463
2751.367
2752.201
2754.28
2758.344
2764.34
2771.507
2778.699
2784.8
2789.069
2791.305
2791.812
2791.19
2790.092
2789.017
2788.225
2787.766
2787.584
2787.619
2787.87
2788.394
2789.259
2790.479
2791.979
2793.596
2795.124
2796.371
2797.219
2797.65
2797.737
2797.608
2797.401
2797.213
2797.085
2796.997
2796.887
2796.681
2796.316
2795.757
2795.005
2794.089
2793.065
2792.001
2790.976
2790.071
2789.365
2788.937
2788.855
2789.179
2789.949
2791.182
2792.873
2794.987
2797.467
2800.229
2803.177
2806.203
2809.199
2812.063
2814.708
2817.068
2819.102
2820.796
2822.164
2823.247
2824.104
2824.81
2825.444
2826.082
2826.791
2827.621
2828.602
2829.744
2831.037
2832.457
2833.968
2835.528
2837.087
2838.595
2840
2841.256
2842.323
2843.18
2843.831
2844.306
2844.665
2844.977
2845.31
2845.697
2846.129
2846.543
2846.844
2846.934
2846.75
2846.292
2845.635
2844.91
2844.259
2843.796
2843.567
2843.553
2843.699
2843.96
2844.346
2844.922
2845.759
2846.853
2848.033
2848.927
2849.017
2847.795
2844.965
2840.626
2835.339
2830.019
2825.643
2822.858
2821.624
2821.076
2819.757
2816.237
2809.949
2801.855
2794.533
2791.432
2795.462
2807.536
2825.803
2846.114
2863.574
2874.479
2877.685
2874.789
2869.174
2864.432
2862.848
2864.381
2866.463
2864.861
2855.794
2838.826
2819.003
2806.139
2810.392
2836.075
2877.956
2923.314
2958.81
2977.188
2978.965
2968.897
2952.453
2937.981
2941.878
2983.693
3065.633
3160.034
3234.205
3302.247
3436.92
)
;
    }
    riser
    {
        type            calculated;
        value           nonuniform List<scalar> 
200
(
5235.135
5247.406
5303.074
5537.46
5927.811
6286.478
6467.034
6485.4
6441.25
6404.08
6395.228
6428.599
6528.341
6706.841
6939.587
7169.406
7338.377
7420.26
7428.958
7401.243
7371.398
7356.123
7354.929
7359.24
7361.294
7358.772
7355.762
7361.588
7387.955
7444.457
7533.657
7648.141
7771.649
7884.307
7969.642
8019.98
8037.849
8033.199
8018.393
8003.547
7994.099
7990.927
7992.109
7995
7997.648
7999.252
7999.916
8000.143
8000.404
8000.937
8001.739
8002.661
8003.522
8004.19
8004.623
8004.865
8005.015
8005.183
8005.452
8005.851
8006.36
8006.92
8007.468
8007.954
8008.36
8008.692
8008.974
8009.228
8009.466
8009.683
8009.865
8010.003
8010.102
8010.186
8010.301
8010.503
8010.851
8011.392
8012.148
8013.111
8014.226
8015.393
8016.447
8017.163
8017.25
8016.365
8014.135
8010.197
8004.248
7996.101
7985.733
7973.335
7959.323
7944.342
7929.222
7914.924
7902.453
7892.766
7886.67
7884.747
7887.283
7894.242
7905.264
7919.702
7936.69
7955.222
7974.257
7992.809
8010.03
8025.268
8038.106
8048.362
8056.07
8061.438
8064.795
8066.539
8067.079
8066.8
8066.035
8065.052
8064.048
8063.156
8062.449
8061.95
8061.644
8061.484
8061.413
8061.376
8061.334
8061.278
8061.226
8061.216
8061.284
8061.447
8061.691
8061.968
8062.216
8062.376
8062.422
8062.368
8062.262
8062.159
8062.09
8062.037
8061.929
8061.676
8061.215
8060.563
8059.851
8059.305
8059.18
8059.65
8060.686
8061.973
8062.949
8063.012
8061.908
8060.179
8059.384
8061.756
8069.112
8081.213
8094.323
8100.97
8091.638
8058.22
7997.892
7915.44
7822.544
7733.977
7662.402
7614.26
7588.575
7578.835
7576.536
7574.64
7569.953
7564.251
7563.693
7575.322
7600.176
7625.999
7626.282
7571.123
7446.665
7269.582
7082.743
6931.817
6840.054
6802.43
6802.606
6829.783
6866.712
6858.01
6721.111
6435.01
6110.497
5904.945
5851.945
5849.239
)
;
    }
    topAndBottom
    {
        type            calculated;
        value           nonuniform List<scalar> 
120
(
5588.57
5574.741
5564.267
5555.515
5549.452
5544.905
5540.558
5535.749
5530.744
5526.221
5522.643
5520.011
5518.004
5516.255
5514.508
5512.64
5510.625
5508.506
5506.375
5504.349
5502.517
5500.893
5499.408
5497.932
5496.324
5494.47
5492.294
5489.754
5486.829
5483.513
5479.827
5475.835
5471.653
5467.448
5463.397
5459.611
5456.058
5452.518
5448.625
5444.026
5438.564
5432.413
5426.058
5420.118
5415.109
5411.237
5408.27
5405.477
5401.656
5395.416
5385.83
5373.256
5359.657
5347.715
5338.853
5331.57
5322.167
5308.309
5293.483
5282.83
5480.791
5472.334
5467.434
5462.867
5459.513
5456.863
5454.56
5452.43
5450.56
5449.077
5447.958
5447.029
5446.097
5445.076
5444.013
5443.012
5442.157
5441.468
5440.91
5440.42
5439.933
5439.389
5438.735
5437.92
5436.892
5435.591
5433.945
5431.867
5429.273
5426.104
5422.354
5418.099
5413.509
5408.828
5404.308
5400.105
5396.168
5392.189
5387.686
5382.209
5375.604
5368.164
5360.581
5353.689
5348.128
5344.09
5341.176
5338.356
5334.065
5326.609
5315.011
5299.975
5284.139
5270.824
5261.551
5254.158
5243.969
5228.381
5211.665
5200.956
)
;
    }
    frontAndBack
    {
        type            empty;
    }
}


// ************************************************************************* //
