/*--------------------------------*- C++ -*----------------------------------*\
| =========                 |                                                 |
| \\      /  F ield         | OpenFOAM: The Open Source CFD Toolbox           |
|  \\    /   O peration     | Version:  2312                                  |
|   \\  /    A nd           | Website:  www.openfoam.com                      |
|    \\/     M anipulation  |                                                 |
\*---------------------------------------------------------------------------*/
FoamFile
{
    version     2.0;
    format      ascii;
    arch        "LSB;label=32;scalar=64";
    class       volScalarField;
    location    "1000";
    object      qr;
}
// * * * * * * * * * * * * * * * * * * * * * * * * * * * * * * * * * * * * * //

dimensions      [1 0 -3 0 0 0 0];

internalField   uniform 0;

boundaryField
{
    plate
    {
        type            calculated;
        value           nonuniform List<scalar> 
200
(
-5672.134
-5694.221
-5698.381
-5704.988
-5715.501
-5723.035
-5723.802
-5717.261
-5705.304
-5691.679
-5680.754
-5675.432
-5675.796
-5679.445
-5682.837
-5682.631
-5676.706
-5664.906
-5649.274
-5633.376
-5620.82
-5613.68
-5611.738
-5612.896
-5614.377
-5613.978
-5610.786
-5605.215
-5598.544
-5592.251
-5587.37
-5584.089
-5581.733
-5579.137
-5575.261
-5569.729
-5563.025
-5556.254
-5550.62
-5546.873
-5545.006
-5544.296
-5543.641
-5542.01
-5538.819
-5534.112
-5528.486
-5522.84
-5518.051
-5514.7
-5512.944
-5512.547
-5513.035
-5513.897
-5514.74
-5515.362
-5515.722
-5515.865
-5515.838
-5515.641
-5515.229
-5514.551
-5513.593
-5512.416
-5511.146
-5509.948
-5508.969
-5508.303
-5507.964
-5507.896
-5507.997
-5508.16
-5508.307
-5508.408
-5508.477
-5508.563
-5508.725
-5509.012
-5509.45
-5510.041
-5510.76
-5511.564
-5512.399
-5513.204
-5513.915
-5514.469
-5514.805
-5514.869
-5514.615
-5514.012
-5513.044
-5511.717
-5510.057
-5508.111
-5505.943
-5503.629
-5501.254
-5498.902
-5496.654
-5494.577
-5492.724
-5491.128
-5489.798
-5488.723
-5487.873
-5487.199
-5486.644
-5486.146
-5485.645
-5485.088
-5484.436
-5483.666
-5482.769
-5481.754
-5480.639
-5479.452
-5478.228
-5477.004
-5475.82
-5474.717
-5473.731
-5472.893
-5472.22
-5471.71
-5471.336
-5471.055
-5470.809
-5470.548
-5470.244
-5469.905
-5469.579
-5469.343
-5469.272
-5469.417
-5469.776
-5470.291
-5470.86
-5471.371
-5471.734
-5471.914
-5471.925
-5471.81
-5471.605
-5471.302
-5470.85
-5470.192
-5469.333
-5468.407
-5467.706
-5467.634
-5468.593
-5470.815
-5474.221
-5478.371
-5482.547
-5485.982
-5488.168
-5489.137
-5489.566
-5490.602
-5493.365
-5498.301
-5504.655
-5510.403
-5512.839
-5509.677
-5500.201
-5485.864
-5469.922
-5456.217
-5447.655
-5445.137
-5447.408
-5451.814
-5455.534
-5456.777
-5455.572
-5453.936
-5455.192
-5462.308
-5475.626
-5491.186
-5501.285
-5497.948
-5477.791
-5444.917
-5409.312
-5381.446
-5367.015
-5365.615
-5373.512
-5386.415
-5397.771
-5394.71
-5361.887
-5297.565
-5223.455
-5165.219
-5111.793
-5006.072
)
;
    }
    riser
    {
        type            calculated;
        value           nonuniform List<scalar> 
200
(
2967.646
2977.463
3021.996
3209.506
3521.787
3808.72
3953.164
3967.857
3932.537
3902.802
3895.72
3922.417
4002.21
4145.01
4331.207
4515.063
4650.239
4715.745
4722.704
4700.532
4676.656
4664.436
4663.481
4666.93
4668.573
4666.555
4664.147
4668.808
4689.901
4735.103
4806.463
4898.05
4996.857
5086.983
5155.251
5195.522
5209.817
5206.097
5194.252
5182.375
5174.817
5172.279
5173.225
5175.538
5177.656
5178.939
5179.47
5179.652
5179.861
5180.287
5180.929
5181.666
5182.355
5182.889
5183.236
5183.43
5183.55
5183.684
5183.899
5184.218
5184.625
5185.074
5185.512
5185.901
5186.225
5186.491
5186.717
5186.92
5187.11
5187.284
5187.429
5187.54
5187.619
5187.686
5187.778
5187.94
5188.218
5188.651
5189.256
5190.026
5190.919
5191.852
5192.695
5193.268
5193.338
5192.63
5190.845
5187.695
5182.936
5176.418
5168.124
5158.205
5146.996
5135.011
5122.915
5111.477
5101.5
5093.75
5088.874
5087.335
5089.364
5094.931
5103.749
5115.3
5128.889
5143.715
5158.943
5173.785
5187.561
5199.752
5210.022
5218.227
5224.393
5228.688
5231.374
5232.769
5233.2
5232.977
5232.366
5231.579
5230.776
5230.062
5229.496
5229.098
5228.852
5228.725
5228.668
5228.638
5228.604
5228.56
5228.518
5228.51
5228.565
5228.695
5228.89
5229.112
5229.31
5229.438
5229.475
5229.432
5229.347
5229.264
5229.21
5229.167
5229.081
5228.879
5228.509
5227.988
5227.418
5226.981
5226.881
5227.258
5228.086
5229.116
5229.897
5229.947
5229.064
5227.681
5227.045
5228.943
5234.827
5244.508
5254.996
5260.313
5252.848
5226.114
5177.851
5111.89
5037.573
4966.719
4909.46
4870.946
4850.398
4842.606
4840.767
4839.249
4835.5
4830.938
4830.492
4839.795
4859.679
4880.336
4880.563
4836.436
4736.87
4595.203
4445.732
4324.991
4251.581
4221.482
4221.622
4243.364
4272.907
4265.946
4156.426
3927.545
3667.935
3503.493
3461.093
3458.929
)
;
    }
    topAndBottom
    {
        type            calculated;
        value           nonuniform List<scalar> 
120
(
976.1119
1232.518
1369.644
1467.242
1540.804
1594.753
1627.314
1663.4
1707.71
1732.46
1738.356
1753.967
1784.7
1810.305
1818.866
1821.089
1831.614
1848.77
1862.992
1870.326
1873.819
1877.97
1884.912
1893.244
1900.072
1905.048
1909.216
1912.714
1915.778
1918.551
1920.876
1922.715
1924.304
1925.78
1927.106
1928.358
1929.576
1930.639
1931.126
1930.592
1928.953
1926.523
1923.764
1921.006
1918.617
1916.917
1915.933
1914.947
1912.594
1907.594
1899.261
1888.093
1875.838
1864.67
1855.901
1848.22
1838.431
1825.61
1824.488
1937.915
2602.312
2940.738
2973.537
2975.006
2973.511
2972.175
2971.109
2970.278
2969.69
2969.376
2969.363
2969.577
2969.93
2970.163
2970.328
2970.554
2971.032
2971.673
2972.411
2973.26
2974.193
2975.117
2975.949
2976.683
2977.297
2977.717
2977.85
2977.635
2976.995
2975.841
2974.13
2971.902
2969.29
2966.542
2964.17
2962.754
2962.038
2960.846
2958.413
2955.246
2952.622
2950.072
2946.094
2941.522
2939.593
2941.541
2943.343
2942.058
2940.853
2941.526
2940.409
2932.496
2920.519
2916.399
2921.571
2927.164
2929.326
2932.433
2946.077
2979.331
)
;
    }
    frontAndBack
    {
        type            empty;
    }
}


// ************************************************************************* //
