/*--------------------------------*- C++ -*----------------------------------*\
| =========                 |                                                 |
| \\      /  F ield         | OpenFOAM: The Open Source CFD Toolbox           |
|  \\    /   O peration     | Version:  2312                                  |
|   \\  /    A nd           | Website:  www.openfoam.com                      |
|    \\/     M anipulation  |                                                 |
\*---------------------------------------------------------------------------*/
FoamFile
{
    version     2.0;
    format      ascii;
    arch        "LSB;label=32;scalar=64";
    class       volVectorField;
    location    "1000";
    object      U;
}
// * * * * * * * * * * * * * * * * * * * * * * * * * * * * * * * * * * * * * //

dimensions      [0 1 -1 0 0 0 0];

internalField   nonuniform List<vector> 
12000
(
(-0.02924281 0.06130394 0)
(-0.06303015 0.05796021 0)
(-0.1018734 0.07698248 0)
(-0.1472359 0.07412503 0)
(-0.1896905 0.04124754 0)
(-0.2197524 0.02475716 0)
(-0.2518447 0.06618802 0)
(-0.2984936 0.1110606 0)
(-0.3487463 0.07524096 0)
(-0.375323 -0.009865698 0)
(-0.3846281 0.003801331 0)
(-0.4140062 0.1095733 0)
(-0.4655684 0.1145189 0)
(-0.4979326 0.0007639872 0)
(-0.5004416 -0.03658864 0)
(-0.5128745 0.05257466 0)
(-0.5481803 0.104511 0)
(-0.5801598 0.03865539 0)
(-0.5884989 -0.02834361 0)
(-0.5907959 0.001214184 0)
(-0.6083096 0.06172793 0)
(-0.632207 0.04692877 0)
(-0.6424528 -0.008339445 0)
(-0.64334 -0.0109371 0)
(-0.6511304 0.02915949 0)
(-0.6652024 0.03125471 0)
(-0.6725725 -0.0003209786 0)
(-0.6735481 -0.003143269 0)
(-0.6780067 0.01107136 0)
(-0.6829319 0.006547924 0)
(-0.6844799 0.001494325 0)
(-0.6869246 0.005446633 0)
(-0.6884859 0.0003309301 0)
(-0.6873607 -0.009444282 0)
(-0.6835145 -0.01721751 0)
(-0.6777555 -0.007535559 0)
(-0.6769983 0.01157321 0)
(-0.6783577 0.01245033 0)
(-0.6757697 -0.0139586 0)
(-0.6653386 -0.0443185 0)
(-0.6498328 -0.01727962 0)
(-0.6475343 0.01637092 0)
(-0.6442317 -0.005531523 0)
(-0.6315219 -0.05835787 0)
(-0.606662 -0.06022647 0)
(-0.5958396 0.02524445 0)
(-0.5937289 0.03848505 0)
(-0.5814016 -0.07741438 0)
(-0.5422902 -0.1351579 0)
(-0.5050285 -0.03896983 0)
(-0.4948601 0.06931198 0)
(-0.4881786 0.00640259 0)
(-0.4478146 -0.1680611 0)
(-0.3836117 -0.1320672 0)
(-0.3474395 -0.006383113 0)
(-0.3165128 -0.03936033 0)
(-0.2579102 -0.1438771 0)
(-0.1810835 -0.1370859 0)
(-0.1050743 -0.09207199 0)
(-0.03937997 -0.1034383 0)
(-0.03059254 0.1915692 0)
(-0.05912433 0.1608346 0)
(-0.1037212 0.1654958 0)
(-0.1329869 0.1744548 0)
(-0.1722053 0.1676291 0)
(-0.2127069 0.1566154 0)
(-0.2517086 0.1577844 0)
(-0.276089 0.1641688 0)
(-0.2961484 0.1474087 0)
(-0.3302222 0.1114455 0)
(-0.3712513 0.1081983 0)
(-0.3945481 0.1227286 0)
(-0.3980311 0.1235063 0)
(-0.4124693 0.09800051 0)
(-0.4466371 0.08076381 0)
(-0.4737174 0.08459467 0)
(-0.4761071 0.08908149 0)
(-0.4801034 0.07588024 0)
(-0.4975285 0.05946927 0)
(-0.5212423 0.05560506 0)
(-0.5280936 0.05747574 0)
(-0.5293895 0.05210133 0)
(-0.5364747 0.0410398 0)
(-0.5513822 0.03510771 0)
(-0.5585443 0.0344061 0)
(-0.5590578 0.03086482 0)
(-0.5616873 0.02418771 0)
(-0.5681441 0.01946797 0)
(-0.5711446 0.01629676 0)
(-0.5715645 0.01231493 0)
(-0.5723248 0.01059336 0)
(-0.5720023 0.006136949 0)
(-0.5697323 0.001010747 0)
(-0.5681029 -0.004327754 0)
(-0.5671856 -0.00906526 0)
(-0.5655561 -0.01148784 0)
(-0.5597548 -0.01316718 0)
(-0.5493837 -0.01720307 0)
(-0.5400596 -0.02363799 0)
(-0.5367177 -0.02916515 0)
(-0.5338096 -0.03122457 0)
(-0.5215375 -0.03242898 0)
(-0.504214 -0.03748488 0)
(-0.4955137 -0.04491353 0)
(-0.4933798 -0.05218663 0)
(-0.4816356 -0.0610192 0)
(-0.4497765 -0.06949001 0)
(-0.4294432 -0.07603533 0)
(-0.4277752 -0.08159218 0)
(-0.4220329 -0.09516936 0)
(-0.3902262 -0.1157461 0)
(-0.3384877 -0.1364957 0)
(-0.3229066 -0.1430228 0)
(-0.3196141 -0.1527575 0)
(-0.2930691 -0.1816312 0)
(-0.2285949 -0.222058 0)
(-0.2010868 -0.2415446 0)
(-0.1510079 -0.2992593 0)
(-0.1092582 -0.3186904 0)
(-0.03176083 -0.3353446 0)
(-0.02644719 0.3172136 0)
(-0.05042519 0.2823103 0)
(-0.0905912 0.2730076 0)
(-0.1181298 0.2712517 0)
(-0.1487424 0.2629621 0)
(-0.1773011 0.2503014 0)
(-0.2048762 0.2423612 0)
(-0.227813 0.2386674 0)
(-0.250367 0.2245651 0)
(-0.2709486 0.2062139 0)
(-0.3008581 0.1839027 0)
(-0.3212955 0.1763864 0)
(-0.3353571 0.1666022 0)
(-0.3511508 0.1498721 0)
(-0.3688454 0.1365799 0)
(-0.3851975 0.12822 0)
(-0.3967452 0.119225 0)
(-0.4069058 0.106868 0)
(-0.418646 0.09479261 0)
(-0.4303823 0.0865618 0)
(-0.439383 0.07953797 0)
(-0.4463054 0.07080819 0)
(-0.4532719 0.06095757 0)
(-0.4602895 0.05303695 0)
(-0.4657339 0.04658573 0)
(-0.4693625 0.03934222 0)
(-0.4723988 0.03136471 0)
(-0.4748295 0.02425443 0)
(-0.4767392 0.01772772 0)
(-0.4772685 0.01313072 0)
(-0.4767635 0.004409546 0)
(-0.4750624 -0.001910317 0)
(-0.4726599 -0.008721406 0)
(-0.4697168 -0.01557388 0)
(-0.4661398 -0.02219767 0)
(-0.4616706 -0.02806422 0)
(-0.4557716 -0.03303522 0)
(-0.4486819 -0.0388368 0)
(-0.4411778 -0.04673403 0)
(-0.4334814 -0.05512156 0)
(-0.4247955 -0.0616112 0)
(-0.4143869 -0.06756521 0)
(-0.4028854 -0.07596581 0)
(-0.3908634 -0.08603622 0)
(-0.3779754 -0.09521452 0)
(-0.3640411 -0.1030131 0)
(-0.3493112 -0.1141664 0)
(-0.3343441 -0.12848 0)
(-0.3173076 -0.1429198 0)
(-0.2981267 -0.1560208 0)
(-0.2794427 -0.1702657 0)
(-0.2627683 -0.1856258 0)
(-0.2420345 -0.2020602 0)
(-0.2202593 -0.2207339 0)
(-0.1881054 -0.2610182 0)
(-0.1583811 -0.3049802 0)
(-0.1285474 -0.3487275 0)
(-0.09950251 -0.3944167 0)
(-0.05686051 -0.4536512 0)
(-0.02776476 -0.4722543 0)
(-0.0199523 0.4150683 0)
(-0.04318022 0.3662616 0)
(-0.07260902 0.3560941 0)
(-0.09757332 0.3481199 0)
(-0.1224811 0.3361427 0)
(-0.1458232 0.3202799 0)
(-0.1675636 0.3038327 0)
(-0.1883052 0.2875964 0)
(-0.2022323 0.2761845 0)
(-0.2231886 0.2593909 0)
(-0.2352021 0.2498872 0)
(-0.2590276 0.2242709 0)
(-0.2704698 0.2100561 0)
(-0.2863589 0.1924713 0)
(-0.3004021 0.1778058 0)
(-0.313197 0.1644088 0)
(-0.3243773 0.1513952 0)
(-0.3344893 0.1384185 0)
(-0.3440386 0.1258379 0)
(-0.3530475 0.1139626 0)
(-0.3608051 0.1026233 0)
(-0.3676218 0.0914433 0)
(-0.3739388 0.0802836 0)
(-0.379339 0.06968936 0)
(-0.383837 0.05947063 0)
(-0.3871708 0.04942766 0)
(-0.3895195 0.0395697 0)
(-0.3913295 0.02995688 0)
(-0.3920974 0.02322464 0)
(-0.3919283 0.01211275 0)
(-0.3908354 0.002827544 0)
(-0.3892985 -0.00605949 0)
(-0.3868925 -0.01494473 0)
(-0.3838394 -0.02382952 0)
(-0.3800644 -0.03273576 0)
(-0.3754702 -0.04180923 0)
(-0.3698177 -0.05075609 0)
(-0.3630946 -0.0593989 0)
(-0.3555374 -0.06810002 0)
(-0.3475338 -0.07736123 0)
(-0.3388881 -0.08710943 0)
(-0.3291834 -0.09685269 0)
(-0.3185393 -0.106645 0)
(-0.3072702 -0.1174202 0)
(-0.2961233 -0.1290296 0)
(-0.2841618 -0.1415615 0)
(-0.2709606 -0.1548622 0)
(-0.2573917 -0.1696196 0)
(-0.2437508 -0.185891 0)
(-0.2267803 -0.2015902 0)
(-0.215277 -0.2125489 0)
(-0.1945184 -0.2412504 0)
(-0.1732257 -0.2767381 0)
(-0.1505604 -0.3106895 0)
(-0.1275727 -0.3445771 0)
(-0.1064661 -0.3800016 0)
(-0.08471497 -0.421678 0)
(-0.06251315 -0.4749288 0)
(-0.03868161 -0.5333314 0)
(-0.01500195 -0.563945 0)
(-0.01477109 0.4966475 0)
(-0.0349764 0.4412986 0)
(-0.05773457 0.4260562 0)
(-0.07747157 0.4132546 0)
(-0.09690091 0.3975992 0)
(-0.1151707 0.3794013 0)
(-0.1329585 0.3602328 0)
(-0.1502332 0.3405858 0)
(-0.1659987 0.3217527 0)
(-0.1802369 0.3030312 0)
(-0.1952743 0.285357 0)
(-0.2047701 0.2722739 0)
(-0.219781 0.250686 0)
(-0.2312462 0.2313349 0)
(-0.2429678 0.2133997 0)
(-0.2534055 0.1962735 0)
(-0.2628566 0.1796731 0)
(-0.2712089 0.1633513 0)
(-0.2789296 0.1479592 0)
(-0.2857537 0.13396 0)
(-0.2916731 0.1205365 0)
(-0.2962546 0.1091284 0)
(-0.3010312 0.09461469 0)
(-0.3044806 0.0816634 0)
(-0.3073964 0.06895911 0)
(-0.3095314 0.05597319 0)
(-0.310953 0.04359371 0)
(-0.3118053 0.03178076 0)
(-0.3116066 0.02037433 0)
(-0.3106828 0.00908039 0)
(-0.3094756 -0.002046287 0)
(-0.3076092 -0.01287406 0)
(-0.3050831 -0.0237044 0)
(-0.3018219 -0.03458576 0)
(-0.2982993 -0.04562857 0)
(-0.2942502 -0.05696051 0)
(-0.2892372 -0.06810288 0)
(-0.2834826 -0.07918307 0)
(-0.2770386 -0.0904293 0)
(-0.2699235 -0.1018292 0)
(-0.262177 -0.1133897 0)
(-0.2538465 -0.1252068 0)
(-0.2451201 -0.1373322 0)
(-0.2347816 -0.1499143 0)
(-0.2259014 -0.1602095 0)
(-0.2143411 -0.1756833 0)
(-0.2039425 -0.1914203 0)
(-0.1913431 -0.2077824 0)
(-0.1797934 -0.2230997 0)
(-0.1689896 -0.2410033 0)
(-0.1520166 -0.2686617 0)
(-0.136454 -0.2966308 0)
(-0.1217313 -0.3239781 0)
(-0.1075825 -0.3538206 0)
(-0.09298615 -0.3888349 0)
(-0.07747221 -0.4295429 0)
(-0.0609421 -0.4757556 0)
(-0.04445865 -0.5282786 0)
(-0.02716984 -0.5910182 0)
(-0.01018662 -0.6267633 0)
(-0.01151048 0.5614429 0)
(-0.02835283 0.499226 0)
(-0.04623993 0.4786569 0)
(-0.06197414 0.4623097 0)
(-0.0775193 0.4445144 0)
(-0.09216542 0.425012 0)
(-0.1064408 0.4044707 0)
(-0.1201168 0.3833428 0)
(-0.1331631 0.3621612 0)
(-0.1453355 0.3410356 0)
(-0.1564229 0.3196712 0)
(-0.1673582 0.2986328 0)
(-0.1751025 0.2802546 0)
(-0.184343 0.2599649 0)
(-0.1922025 0.2401796 0)
(-0.1995464 0.2208594 0)
(-0.2061595 0.2021396 0)
(-0.2121105 0.1839899 0)
(-0.2175651 0.1664053 0)
(-0.2220999 0.149676 0)
(-0.2258954 0.1334238 0)
(-0.2287991 0.1178519 0)
(-0.2308927 0.1026576 0)
(-0.2325802 0.08783633 0)
(-0.2336249 0.0734029 0)
(-0.234212 0.05922458 0)
(-0.2344329 0.04540863 0)
(-0.234151 0.03195558 0)
(-0.2333635 0.01882151 0)
(-0.2320591 0.005918728 0)
(-0.2302884 -0.006579833 0)
(-0.2283292 -0.0191063 0)
(-0.2261601 -0.03188459 0)
(-0.2230898 -0.04424013 0)
(-0.2200882 -0.05418354 0)
(-0.2162354 -0.06830878 0)
(-0.2123198 -0.08186899 0)
(-0.2077132 -0.09464363 0)
(-0.2026432 -0.1072574 0)
(-0.1970967 -0.1200716 0)
(-0.19108 -0.1331393 0)
(-0.1845867 -0.1464027 0)
(-0.1776244 -0.1598327 0)
(-0.170315 -0.1734417 0)
(-0.1622372 -0.1878683 0)
(-0.1541152 -0.203347 0)
(-0.1443391 -0.219467 0)
(-0.137618 -0.2346537 0)
(-0.1276754 -0.2548449 0)
(-0.1162507 -0.2794643 0)
(-0.1063863 -0.3036701 0)
(-0.09658904 -0.3296849 0)
(-0.08657863 -0.3592264 0)
(-0.07596294 -0.3922977 0)
(-0.06481736 -0.4290084 0)
(-0.05337827 -0.4697869 0)
(-0.041773 -0.5156371 0)
(-0.03014028 -0.5684129 0)
(-0.01818122 -0.6297001 0)
(-0.006888604 -0.6681577 0)
(-0.009071078 0.6141003 0)
(-0.02289246 0.5469564 0)
(-0.03681828 0.5222015 0)
(-0.04897901 0.5029779 0)
(-0.06076851 0.4829767 0)
(-0.07169765 0.4615537 0)
(-0.08220288 0.4391095 0)
(-0.09217785 0.4160969 0)
(-0.1016433 0.3928803 0)
(-0.1104936 0.3697169 0)
(-0.1186129 0.3467214 0)
(-0.1265794 0.3239574 0)
(-0.1319773 0.3019395 0)
(-0.1393112 0.2789888 0)
(-0.1444179 0.2572018 0)
(-0.1493055 0.2360934 0)
(-0.1534379 0.2155893 0)
(-0.1569338 0.1956873 0)
(-0.1598083 0.1764101 0)
(-0.1620404 0.1578456 0)
(-0.1636561 0.1398704 0)
(-0.1646833 0.1225618 0)
(-0.1651589 0.1057543 0)
(-0.1651761 0.08948163 0)
(-0.1647604 0.07371019 0)
(-0.1639751 0.0583513 0)
(-0.1628729 0.04341855 0)
(-0.1614647 0.02885061 0)
(-0.1597657 0.01459115 0)
(-0.1578338 0.0005329626 0)
(-0.1556151 -0.01290469 0)
(-0.1534361 -0.02416534 0)
(-0.1508293 -0.03820166 0)
(-0.148258 -0.05197887 0)
(-0.1450942 -0.06518157 0)
(-0.1416701 -0.07857252 0)
(-0.1384966 -0.09246469 0)
(-0.1352103 -0.1065509 0)
(-0.1317132 -0.1206131 0)
(-0.1279988 -0.1347884 0)
(-0.124061 -0.1491649 0)
(-0.1198951 -0.1637161 0)
(-0.1154809 -0.1783389 0)
(-0.1107334 -0.1931357 0)
(-0.1056587 -0.2082753 0)
(-0.09984088 -0.224014 0)
(-0.09498022 -0.2402867 0)
(-0.0874488 -0.2597161 0)
(-0.08163915 -0.2797415 0)
(-0.07580338 -0.3010066 0)
(-0.06983301 -0.3251107 0)
(-0.06382266 -0.3521978 0)
(-0.05754219 -0.3823917 0)
(-0.05114936 -0.4159264 0)
(-0.04438424 -0.4534723 0)
(-0.03712395 -0.4955734 0)
(-0.02931794 -0.5427799 0)
(-0.02122081 -0.5963353 0)
(-0.01293772 -0.6585437 0)
(-0.004650174 -0.6992811 0)
(-0.006847148 0.6574016 0)
(-0.01750966 0.5842155 0)
(-0.02766544 0.5543456 0)
(-0.03641266 0.5318978 0)
(-0.04481229 0.5097332 0)
(-0.05267429 0.486832 0)
(-0.06020518 0.4633405 0)
(-0.06723883 0.4393324 0)
(-0.07372446 0.4148802 0)
(-0.07963084 0.3901229 0)
(-0.08485879 0.3652517 0)
(-0.08974439 0.3401471 0)
(-0.09385976 0.3159308 0)
(-0.09729608 0.2928114 0)
(-0.1003339 0.2692694 0)
(-0.1028976 0.2462369 0)
(-0.1048047 0.2237782 0)
(-0.106102 0.2019779 0)
(-0.1068141 0.1808776 0)
(-0.1069735 0.1605203 0)
(-0.1066257 0.1409112 0)
(-0.1058245 0.1220601 0)
(-0.1046306 0.1039385 0)
(-0.1031143 0.08652061 0)
(-0.1013242 0.0697621 0)
(-0.0993147 0.05360529 0)
(-0.09714022 0.03799273 0)
(-0.09482585 0.02284996 0)
(-0.09245838 0.008112511 0)
(-0.09008052 -0.006306872 0)
(-0.08788816 -0.01936158 0)
(-0.08527033 -0.0333695 0)
(-0.08254996 -0.04713365 0)
(-0.08005506 -0.06065535 0)
(-0.07762782 -0.07397881 0)
(-0.07523637 -0.08734334 0)
(-0.07295483 -0.100787 0)
(-0.07081611 -0.1143803 0)
(-0.06881516 -0.128129 0)
(-0.0669131 -0.1420723 0)
(-0.06503564 -0.1562557 0)
(-0.06340113 -0.1707508 0)
(-0.06169598 -0.1858194 0)
(-0.05976685 -0.2015604 0)
(-0.05782153 -0.2178997 0)
(-0.0557163 -0.2349137 0)
(-0.05342901 -0.2527811 0)
(-0.05132053 -0.2712963 0)
(-0.04806367 -0.291422 0)
(-0.04528986 -0.3137067 0)
(-0.04256044 -0.3379841 0)
(-0.0397248 -0.3649033 0)
(-0.03660973 -0.3951314 0)
(-0.03358291 -0.4290653 0)
(-0.02923383 -0.4683472 0)
(-0.02462098 -0.5120103 0)
(-0.01944947 -0.5603121 0)
(-0.01401331 -0.6143391 0)
(-0.008518696 -0.675678 0)
(-0.003055691 -0.7169509 0)
(-0.005420832 0.6893206 0)
(-0.0140472 0.6115837 0)
(-0.02169294 0.5778805 0)
(-0.0281233 0.5531556 0)
(-0.03413299 0.529695 0)
(-0.03945046 0.5057933 0)
(-0.04433695 0.4806369 0)
(-0.04856927 0.4544488 0)
(-0.05229624 0.4278407 0)
(-0.05534708 0.4010745 0)
(-0.05849148 0.3744566 0)
(-0.05925387 0.3487196 0)
(-0.06311987 0.3229195 0)
(-0.06299526 0.2981101 0)
(-0.06409237 0.2732204 0)
(-0.06411565 0.2486529 0)
(-0.06375253 0.2246283 0)
(-0.06292609 0.2013195 0)
(-0.06168499 0.178831 0)
(-0.06004919 0.1572306 0)
(-0.05805965 0.1365593 0)
(-0.05577145 0.116835 0)
(-0.05325049 0.09803584 0)
(-0.0505795 0.0801125 0)
(-0.04783158 0.06296053 0)
(-0.04509479 0.04652282 0)
(-0.04244574 0.03076616 0)
(-0.03991193 0.01558035 0)
(-0.03756509 0.001306747 0)
(-0.0354495 -0.01240423 0)
(-0.03344181 -0.02608139 0)
(-0.03156941 -0.03935372 0)
(-0.02992198 -0.0524543 0)
(-0.02869634 -0.06548024 0)
(-0.0274214 -0.0785259 0)
(-0.02631353 -0.09162648 0)
(-0.02531182 -0.1048511 0)
(-0.02439617 -0.1182421 0)
(-0.02356082 -0.1318222 0)
(-0.02278716 -0.1456947 0)
(-0.02214738 -0.159888 0)
(-0.02140402 -0.1743515 0)
(-0.02082322 -0.1892311 0)
(-0.0206073 -0.2046228 0)
(-0.02055684 -0.2205496 0)
(-0.02082385 -0.2371931 0)
(-0.02144026 -0.2548275 0)
(-0.02198528 -0.274019 0)
(-0.02330978 -0.2945745 0)
(-0.02387075 -0.3167119 0)
(-0.024397 -0.3412644 0)
(-0.02421009 -0.3690826 0)
(-0.02373692 -0.401 0)
(-0.0212913 -0.4381134 0)
(-0.01932071 -0.4789615 0)
(-0.01677278 -0.5237872 0)
(-0.01309903 -0.5733309 0)
(-0.009434952 -0.628123 0)
(-0.005713203 -0.6902234 0)
(-0.001964085 -0.7328473 0)
(-0.003971848 0.7177406 0)
(-0.00999898 0.6341391 0)
(-0.01459136 0.5955873 0)
(-0.01804835 0.5679482 0)
(-0.02074856 0.5420513 0)
(-0.02305735 0.5156652 0)
(-0.02388376 0.4890354 0)
(-0.02544425 0.4620923 0)
(-0.02665819 0.4347162 0)
(-0.02804757 0.407127 0)
(-0.02866971 0.3794737 0)
(-0.03105408 0.3521359 0)
(-0.0303687 0.3253225 0)
(-0.03054466 0.2981702 0)
(-0.02960759 0.2715282 0)
(-0.02820183 0.2455488 0)
(-0.02636697 0.220421 0)
(-0.0241417 0.1961595 0)
(-0.02154594 0.1727363 0)
(-0.0186051 0.1502357 0)
(-0.01536985 0.128755 0)
(-0.01192739 0.1083657 0)
(-0.008374372 0.08909844 0)
(-0.004872059 0.07098718 0)
(-0.00136391 0.05400556 0)
(0.00182665 0.03814546 0)
(0.004921494 0.02313435 0)
(0.007732023 0.008810432 0)
(0.0103413 -0.004951571 0)
(0.01280664 -0.01807154 0)
(0.01514853 -0.03097009 0)
(0.01727868 -0.04362817 0)
(0.01914535 -0.05617103 0)
(0.02099673 -0.06874118 0)
(0.02238924 -0.08132594 0)
(0.02349848 -0.09397506 0)
(0.02424017 -0.1068052 0)
(0.02459005 -0.1198719 0)
(0.02441829 -0.1331366 0)
(0.02408497 -0.1464066 0)
(0.02315441 -0.159876 0)
(0.02155726 -0.1738761 0)
(0.01983391 -0.188041 0)
(0.01765718 -0.2024203 0)
(0.01516697 -0.217231 0)
(0.01235589 -0.2326768 0)
(0.009288349 -0.2491039 0)
(0.006005697 -0.2669919 0)
(0.00262266 -0.2871956 0)
(-0.0006899505 -0.3103424 0)
(-0.003693744 -0.3367517 0)
(-0.006257594 -0.366941 0)
(-0.00787918 -0.4012779 0)
(-0.009515092 -0.4394993 0)
(-0.009410284 -0.4818459 0)
(-0.008054329 -0.5292278 0)
(-0.006457917 -0.5800564 0)
(-0.004447828 -0.6349882 0)
(-0.002698237 -0.6961019 0)
(-0.0009189721 -0.7380465 0)
(-0.003116975 0.7359008 0)
(-0.007230898 0.6464834 0)
(-0.009913324 0.6034368 0)
(-0.011559 0.5727112 0)
(-0.01176755 0.5445458 0)
(-0.01181267 0.5168184 0)
(-0.01281787 0.489327 0)
(-0.01231535 0.4622144 0)
(-0.0121427 0.4350927 0)
(-0.01149271 0.4077353 0)
(-0.01071776 0.3803047 0)
(-0.009570387 0.3525776 0)
(-0.007935619 0.3234763 0)
(-0.005867805 0.2946578 0)
(-0.003377416 0.2665658 0)
(-0.0005730199 0.2393301 0)
(0.002574288 0.212992 0)
(0.006044542 0.187547 0)
(0.009821461 0.1630513 0)
(0.01383481 0.1396606 0)
(0.0179969 0.1175803 0)
(0.02211675 0.09699707 0)
(0.02616457 0.07799032 0)
(0.02992311 0.06049904 0)
(0.03339797 0.04419862 0)
(0.03696388 0.02870975 0)
(0.04027453 0.01394422 0)
(0.04328254 0.0004353575 0)
(0.04621906 -0.01307216 0)
(0.04893943 -0.02601675 0)
(0.05145899 -0.03852905 0)
(0.05368626 -0.05067531 0)
(0.05555936 -0.06250745 0)
(0.0570007 -0.07406268 0)
(0.05794051 -0.08541345 0)
(0.0582629 -0.09662993 0)
(0.05811593 -0.107685 0)
(0.0571268 -0.118736 0)
(0.05564534 -0.1299931 0)
(0.05307472 -0.1417172 0)
(0.05021585 -0.1535348 0)
(0.04690883 -0.1656149 0)
(0.04276139 -0.1783953 0)
(0.0381951 -0.1917739 0)
(0.03321156 -0.2058047 0)
(0.027965 -0.2207224 0)
(0.02260363 -0.2369538 0)
(0.01729445 -0.2550007 0)
(0.0122112 -0.2754097 0)
(0.007503289 -0.2987933 0)
(0.003296566 -0.3258059 0)
(-0.0002301682 -0.3571 0)
(-0.00290945 -0.3930723 0)
(-0.004361677 -0.4346883 0)
(-0.004920946 -0.4820087 0)
(-0.004135034 -0.5319877 0)
(-0.003365109 -0.5836164 0)
(-0.002441362 -0.6386827 0)
(-0.001546972 -0.700347 0)
(-0.0005624355 -0.7433222 0)
(-0.002205472 0.7521878 0)
(-0.005380155 0.656474 0)
(-0.006131753 0.6084513 0)
(-0.005984189 0.5739242 0)
(-0.005887202 0.5444466 0)
(-0.004828147 0.5166138 0)
(-0.003525248 0.4889782 0)
(-0.002312073 0.4607709 0)
(-0.0007040825 0.4323213 0)
(0.001070654 0.4038052 0)
(0.003056226 0.3748672 0)
(0.006252467 0.3447593 0)
(0.009234427 0.3147878 0)
(0.0126466 0.2853809 0)
(0.01621386 0.2566678 0)
(0.0200241 0.2287614 0)
(0.02408374 0.2017311 0)
(0.02838336 0.17565 0)
(0.03288774 0.1506685 0)
(0.03750246 0.1270805 0)
(0.0420931 0.1052081 0)
(0.04661021 0.0852439 0)
(0.05082003 0.06708391 0)
(0.05503321 0.05000772 0)
(0.0590942 0.03385717 0)
(0.06279999 0.01866973 0)
(0.06596143 0.005296479 0)
(0.0690528 -0.008198722 0)
(0.07185142 -0.02096511 0)
(0.07431197 -0.03305232 0)
(0.07639514 -0.04453705 0)
(0.07803519 -0.05546511 0)
(0.07913668 -0.06588449 0)
(0.07972191 -0.07581337 0)
(0.07960032 -0.08532752 0)
(0.07886765 -0.09460087 0)
(0.07722593 -0.1038602 0)
(0.07507111 -0.1130701 0)
(0.0721003 -0.1223672 0)
(0.06849003 -0.131914 0)
(0.06397679 -0.1421231 0)
(0.05880666 -0.1526602 0)
(0.05299805 -0.1636039 0)
(0.04660012 -0.1753863 0)
(0.0397852 -0.1883429 0)
(0.03285406 -0.2026991 0)
(0.02602366 -0.2188988 0)
(0.01950107 -0.2376091 0)
(0.01352208 -0.2594547 0)
(0.008262804 -0.2849906 0)
(0.003927728 -0.3145972 0)
(0.0006470294 -0.3489371 0)
(-0.001476678 -0.3886536 0)
(-0.002265412 -0.4332999 0)
(-0.002237987 -0.4823462 0)
(-0.001926138 -0.5331767 0)
(-0.0015324 -0.5849393 0)
(-0.001074588 -0.6398101 0)
(-0.0006685317 -0.7012073 0)
(-0.0001447425 -0.7438655 0)
(-0.001838645 0.7637396 0)
(-0.003852806 0.6612604 0)
(-0.003749231 0.6084378 0)
(-0.002959325 0.5727133 0)
(-0.00118903 0.5413839 0)
(0.0008417805 0.5118579 0)
(0.003393505 0.4830514 0)
(0.006069568 0.4544094 0)
(0.008922827 0.42554 0)
(0.01199309 0.396085 0)
(0.015329 0.3658303 0)
(0.01891574 0.3352194 0)
(0.02257936 0.3048523 0)
(0.02644237 0.2749051 0)
(0.03049716 0.245561 0)
(0.03476764 0.2169703 0)
(0.03925183 0.1892592 0)
(0.0439241 0.1625876 0)
(0.04873245 0.1372327 0)
(0.05357174 0.1135993 0)
(0.05834676 0.09196428 0)
(0.06302042 0.07226293 0)
(0.06760732 0.05412733 0)
(0.07201445 0.03739468 0)
(0.07599135 0.02228991 0)
(0.07913347 0.009469437 0)
(0.08219592 -0.003701449 0)
(0.08489799 -0.01614838 0)
(0.08717652 -0.02785769 0)
(0.0890063 -0.03879971 0)
(0.09032239 -0.04895991 0)
(0.09107895 -0.05837491 0)
(0.09124804 -0.06710914 0)
(0.09068842 -0.07525772 0)
(0.08950354 -0.08289317 0)
(0.08757656 -0.09013471 0)
(0.0849401 -0.09709283 0)
(0.08143088 -0.1040737 0)
(0.07709334 -0.1111916 0)
(0.07195411 -0.1184812 0)
(0.06593561 -0.1261992 0)
(0.05915044 -0.1345858 0)
(0.05184191 -0.1438687 0)
(0.04422452 -0.1544724 0)
(0.03654153 -0.1669543 0)
(0.02905451 -0.1817506 0)
(0.02202252 -0.19917 0)
(0.01567736 -0.2195853 0)
(0.01016446 -0.2434786 0)
(0.005586 -0.2714213 0)
(0.002077846 -0.3039731 0)
(-0.0003252819 -0.3415613 0)
(-0.001535183 -0.3844086 0)
(-0.00189246 -0.4324523 0)
(-0.001734075 -0.4826161 0)
(-0.00150506 -0.5338779 0)
(-0.001214541 -0.5858713 0)
(-0.0009054026 -0.6410162 0)
(-0.0005625942 -0.7029417 0)
(-0.000150541 -0.7457337 0)
(-0.001617415 0.7739559 0)
(-0.002829131 0.6646641 0)
(-0.002306003 0.6071298 0)
(-0.000335733 0.567553 0)
(0.002276258 0.5344643 0)
(0.005280341 0.5039207 0)
(0.008546983 0.4744252 0)
(0.01199507 0.4452125 0)
(0.01564124 0.4157459 0)
(0.01946659 0.3857476 0)
(0.02344008 0.3551479 0)
(0.02751377 0.3242146 0)
(0.0316919 0.2933784 0)
(0.03601216 0.2629183 0)
(0.0404827 0.2330506 0)
(0.04510361 0.2039506 0)
(0.04986019 0.1757921 0)
(0.05471447 0.1488158 0)
(0.05960083 0.12339 0)
(0.06442444 0.09990815 0)
(0.06912143 0.07851894 0)
(0.07361735 0.05912946 0)
(0.07775373 0.04165335 0)
(0.08156134 0.02628774 0)
(0.08463903 0.0136768 0)
(0.08740403 0.001209643 0)
(0.0899587 -0.01099368 0)
(0.09202301 -0.02223837 0)
(0.09359592 -0.03255431 0)
(0.09461552 -0.04193805 0)
(0.095047 -0.05044335 0)
(0.09482461 -0.05808522 0)
(0.09392343 -0.06490307 0)
(0.0922516 -0.07098365 0)
(0.08974076 -0.0765227 0)
(0.08645251 -0.0816064 0)
(0.08230101 -0.08641029 0)
(0.07737911 -0.09099289 0)
(0.07162813 -0.09559858 0)
(0.06530804 -0.1002826 0)
(0.05810382 -0.1059277 0)
(0.05062156 -0.1127873 0)
(0.04291138 -0.1213294 0)
(0.0352854 -0.1320389 0)
(0.02795736 -0.1453103 0)
(0.02111271 -0.1614913 0)
(0.01492927 -0.1808877 0)
(0.009573302 -0.2038054 0)
(0.005187353 -0.2306126 0)
(0.00186297 -0.2617477 0)
(-0.0003484398 -0.2975644 0)
(-0.001463382 -0.3382839 0)
(-0.001637806 -0.384018 0)
(-0.001489371 -0.4325523 0)
(-0.001281932 -0.4830347 0)
(-0.001031574 -0.5344045 0)
(-0.0007759014 -0.5864158 0)
(-0.0005280084 -0.6414864 0)
(-0.0002454332 -0.7032259 0)
(2.407695e-06 -0.7457439 0)
(-0.001329279 0.7823102 0)
(-0.002241357 0.6662348 0)
(-0.001057841 0.6033238 0)
(0.001311351 0.5607384 0)
(0.004393598 0.5260235 0)
(0.007879918 0.4944656 0)
(0.01163796 0.4642249 0)
(0.01560644 0.4343896 0)
(0.0197581 0.4044022 0)
(0.02406377 0.3739718 0)
(0.02848829 0.3430615 0)
(0.03299634 0.3118862 0)
(0.03758261 0.2807718 0)
(0.04225604 0.2500024 0)
(0.04701594 0.2198178 0)
(0.05184997 0.1904337 0)
(0.05672516 0.1620842 0)
(0.0615918 0.13508 0)
(0.06635943 0.1098509 0)
(0.07092371 0.08677801 0)
(0.07515675 0.06607727 0)
(0.07893486 0.04788076 0)
(0.08208906 0.03208799 0)
(0.0849696 0.01782716 0)
(0.08733863 0.006176125 0)
(0.08954401 -0.005646982 0)
(0.09127287 -0.016487 0)
(0.09249607 -0.02629836 0)
(0.09314445 -0.03505495 0)
(0.09315208 -0.04276887 0)
(0.09248801 -0.04940466 0)
(0.09107521 -0.05503497 0)
(0.08876924 -0.05976687 0)
(0.08583782 -0.06325309 0)
(0.08186368 -0.06638251 0)
(0.07721256 -0.06901436 0)
(0.07176248 -0.07141673 0)
(0.06561759 -0.07386034 0)
(0.05891976 -0.07666325 0)
(0.05182107 -0.08021136 0)
(0.04487297 -0.0847449 0)
(0.0376507 -0.09141039 0)
(0.03080261 -0.1003738 0)
(0.0242506 -0.1120191 0)
(0.01813744 -0.1266832 0)
(0.0126235 -0.1446712 0)
(0.007836969 -0.1662687 0)
(0.003899475 -0.191751 0)
(0.0008915803 -0.2213756 0)
(-0.001123571 -0.2554232 0)
(-0.002171696 -0.2942051 0)
(-0.002316211 -0.337639 0)
(-0.002223471 -0.3840847 0)
(-0.001964253 -0.4330275 0)
(-0.001683293 -0.4836627 0)
(-0.001398855 -0.5350788 0)
(-0.00112895 -0.5871188 0)
(-0.000840707 -0.6423151 0)
(-0.0004890596 -0.7043357 0)
(-0.0001034719 -0.7462911 0)
(-0.001181347 0.789566 0)
(-0.002024792 0.667002 0)
(-0.0006927743 0.5987806 0)
(0.001830457 0.5529534 0)
(0.005174557 0.5164388 0)
(0.008955793 0.4837926 0)
(0.0130392 0.4527843 0)
(0.01734819 0.4223392 0)
(0.02184528 0.3918551 0)
(0.02649554 0.3610362 0)
(0.03126048 0.3298475 0)
(0.03610458 0.2984642 0)
(0.04100658 0.2671649 0)
(0.04595186 0.2362348 0)
(0.05091851 0.2059399 0)
(0.05587032 0.1765402 0)
(0.06075206 0.1483256 0)
(0.06548018 0.1216859 0)
(0.0699086 0.09714609 0)
(0.07386673 0.07517232 0)
(0.07720655 0.05605159 0)
(0.07993562 0.03959842 0)
(0.08219835 0.02498002 0)
(0.08419131 0.01159043 0)
(0.08572611 0.0008854353 0)
(0.08694482 -0.009760998 0)
(0.08759749 -0.01919439 0)
(0.08769637 -0.02737181 0)
(0.08710084 -0.0342805 0)
(0.08575642 -0.03997165 0)
(0.08359382 -0.04448344 0)
(0.08080406 -0.04753584 0)
(0.07702156 -0.04986373 0)
(0.07263857 -0.05132708 0)
(0.06757231 -0.05219487 0)
(0.06193709 -0.05279134 0)
(0.05580547 -0.05344541 0)
(0.04933605 -0.05456659 0)
(0.0427803 -0.05668424 0)
(0.0361775 -0.06031566 0)
(0.02997372 -0.06553264 0)
(0.0239861 -0.07306363 0)
(0.01849856 -0.08309855 0)
(0.01340819 -0.09600214 0)
(0.008797475 -0.112215 0)
(0.004750962 -0.1321152 0)
(0.00138884 -0.1559602 0)
(-0.001143155 -0.1838958 0)
(-0.002796803 -0.2160524 0)
(-0.003555244 -0.2529028 0)
(-0.003609192 -0.2938363 0)
(-0.003458384 -0.3379146 0)
(-0.003083178 -0.3847606 0)
(-0.002675596 -0.4338642 0)
(-0.002266115 -0.4844874 0)
(-0.001895377 -0.5358487 0)
(-0.001534213 -0.587906 0)
(-0.001143726 -0.6432063 0)
(-0.0006984337 -0.70537 0)
(-0.000233992 -0.7473747 0)
(-0.001222373 0.7968703 0)
(-0.002132743 0.6677786 0)
(-0.0008625216 0.5941624 0)
(0.001680219 0.5449173 0)
(0.005103325 0.5064155 0)
(0.009012671 0.4725532 0)
(0.01326196 0.4406958 0)
(0.01776598 0.4095884 0)
(0.0224811 0.3785735 0)
(0.02736423 0.347349 0)
(0.03236883 0.3158797 0)
(0.03744921 0.2843217 0)
(0.04256526 0.2529331 0)
(0.04767614 0.2220046 0)
(0.05273046 0.1918331 0)
(0.05765771 0.1627234 0)
(0.06236387 0.1350418 0)
(0.06668418 0.109353 0)
(0.07039786 0.08630678 0)
(0.07335261 0.06632817 0)
(0.0755999 0.04917253 0)
(0.07733673 0.03400319 0)
(0.07865876 0.02031472 0)
(0.07952332 0.008054201 0)
(0.07995637 -0.001531332 0)
(0.07997344 -0.0106603 0)
(0.07932382 -0.0184184 0)
(0.07794326 -0.02480374 0)
(0.07594612 -0.02928723 0)
(0.0730754 -0.0328015 0)
(0.06954099 -0.03508691 0)
(0.06533202 -0.0362664 0)
(0.06055881 -0.03660113 0)
(0.05528034 -0.03638172 0)
(0.04963502 -0.03590563 0)
(0.0437622 -0.0355279 0)
(0.03779666 -0.0356841 0)
(0.03194022 -0.0368353 0)
(0.02625948 -0.03939562 0)
(0.02095818 -0.0436511 0)
(0.01597888 -0.05007157 0)
(0.01151525 -0.05882703 0)
(0.007509473 -0.07020622 0)
(0.00400498 -0.08442184 0)
(0.0009659152 -0.1019587 0)
(-0.001574083 -0.123474 0)
(-0.00354231 -0.1492739 0)
(-0.004768208 -0.1796776 0)
(-0.00519486 -0.2144138 0)
(-0.005174933 -0.2527105 0)
(-0.004866652 -0.2943207 0)
(-0.004358407 -0.3389074 0)
(-0.003787939 -0.3860325 0)
(-0.003212039 -0.435161 0)
(-0.002686983 -0.4856941 0)
(-0.002208426 -0.5369925 0)
(-0.001744346 -0.5890984 0)
(-0.001257892 -0.6445362 0)
(-0.0007338322 -0.7068326 0)
(-0.0001966802 -0.7487856 0)
(-0.001325607 0.8045235 0)
(-0.002451195 0.6688163 0)
(-0.001369499 0.5897165 0)
(0.00107007 0.5368616 0)
(0.004434206 0.4962328 0)
(0.008335764 0.4610493 0)
(0.01262642 0.4282503 0)
(0.01721256 0.3963978 0)
(0.02203972 0.3647889 0)
(0.02705298 0.3331247 0)
(0.03219368 0.3013749 0)
(0.03740086 0.2696899 0)
(0.04260995 0.2383286 0)
(0.04774501 0.2076065 0)
(0.0527123 0.1778659 0)
(0.05739202 0.1494897 0)
(0.0616076 0.123012 0)
(0.06509498 0.09917841 0)
(0.06769884 0.07851642 0)
(0.06950266 0.06076729 0)
(0.07071598 0.04512846 0)
(0.07143853 0.03118559 0)
(0.07167176 0.01893494 0)
(0.07128477 0.008385854 0)
(0.07040031 -0.0004093713 0)
(0.0690029 -0.007655315 0)
(0.06690027 -0.01335162 0)
(0.06408901 -0.01754979 0)
(0.06064863 -0.02030573 0)
(0.05664156 -0.02182037 0)
(0.05208539 -0.02232274 0)
(0.0470975 -0.02203035 0)
(0.04180512 -0.02124011 0)
(0.03633585 -0.02026212 0)
(0.03083104 -0.01943587 0)
(0.02543074 -0.01913634 0)
(0.02026728 -0.01978833 0)
(0.01541919 -0.02179341 0)
(0.01101078 -0.0254146 0)
(0.007025318 -0.03100179 0)
(0.003558675 -0.03874322 0)
(0.0006083984 -0.0489074 0)
(-0.001844295 -0.06168975 0)
(-0.003762359 -0.07734807 0)
(-0.005241984 -0.09621347 0)
(-0.006338726 -0.1191509 0)
(-0.006943101 -0.1468591 0)
(-0.007125111 -0.1788637 0)
(-0.006952097 -0.2146449 0)
(-0.006447803 -0.2537605 0)
(-0.005776796 -0.2959323 0)
(-0.005020926 -0.3407725 0)
(-0.004276356 -0.3878747 0)
(-0.003592944 -0.4368528 0)
(-0.00298086 -0.4872237 0)
(-0.00242479 -0.5384211 0)
(-0.001891202 -0.5905107 0)
(-0.00134594 -0.6459788 0)
(-0.0007700343 -0.7082846 0)
(-0.000192954 -0.7499481 0)
(-0.001380227 0.8129007 0)
(-0.002802179 0.6706742 0)
(-0.00196561 0.5858985 0)
(0.0002522834 0.5293001 0)
(0.003460837 0.486376 0)
(0.007251986 0.4496991 0)
(0.01148732 0.4158114 0)
(0.01605808 0.3831071 0)
(0.02089711 0.35084 0)
(0.02593576 0.3187114 0)
(0.03109998 0.2866988 0)
(0.0363052 0.2549682 0)
(0.04144913 0.223814 0)
(0.0464069 0.1936056 0)
(0.0510239 0.1647567 0)
(0.05509879 0.1377911 0)
(0.05834508 0.1134628 0)
(0.06060755 0.09236151 0)
(0.06199585 0.07417948 0)
(0.06272833 0.0581539 0)
(0.06290533 0.04394725 0)
(0.06253721 0.0315407 0)
(0.06158428 0.02091607 0)
(0.06002399 0.0120622 0)
(0.05786461 0.004972257 0)
(0.0551119 -0.0004794016 0)
(0.05177066 -0.004376359 0)
(0.04788576 -0.006862204 0)