/*--------------------------------*- C++ -*----------------------------------*\
| =========                 |                                                 |
| \\      /  F ield         | OpenFOAM: The Open Source CFD Toolbox           |
|  \\    /   O peration     | Version:  2312                                  |
|   \\  /    A nd           | Website:  www.openfoam.com                      |
|    \\/     M anipulation  |                                                 |
\*---------------------------------------------------------------------------*/
FoamFile
{
    version     2.0;
    format      ascii;
    arch        "LSB;label=32;scalar=64";
    class       volScalarField;
    location    "4050";
    object      alphat;
}
// * * * * * * * * * * * * * * * * * * * * * * * * * * * * * * * * * * * * * //

dimensions      [1 -1 -1 0 0 0 0];

internalField   nonuniform List<scalar> 
12000
(
3.49762e-05
0.0001529064
0.0001730469
0.0002049641
0.0002078817
0.0001816522
0.0001638525
0.0001843915
0.0002436197
0.000226007
0.0001669911
0.0001540825
0.0001933654
0.0002393911
0.00019756
0.0001596262
0.000165217
0.0001959429
0.0001967079
0.0001754662
0.0001721831
0.0001777621
0.0001730749
0.0001702853
0.0001767515
0.000175498
0.0001656291
0.0001644179
0.0001712899
0.0001730102
0.0001685503
0.00016492
0.000161982
0.0001618021
0.0001699588
0.0001760714
0.0001681753
0.0001538289
0.0001434147
0.0001552119
0.0001905966
0.0001836135
0.0001451084
0.0001248488
0.0001458337
0.0002313799
0.0002141213
0.0001222674
0.0001044109
0.0001492252
0.0002706606
0.0001502744
9.876412e-05
0.0001191885
0.0001549117
0.000124389
9.199071e-05
7.92658e-05
7.306029e-05
5.985851e-05
2.146216e-05
0.0001990042
0.0002169701
0.0002612773
0.0003124594
0.000354494
0.0004115457
0.0004721395
0.0005186895
0.0005668542
0.000650137
0.0007436519
0.0008070132
0.0008453829
0.0009165078
0.001021439
0.001111832
0.001160123
0.001213232
0.001296998
0.001381413
0.001449571
0.001521984
0.001596518
0.001653088
0.00170869
0.001780216
0.001841503
0.001874808
0.001902899
0.001940218
0.001977744
0.002005671
0.002024072
0.002024455
0.00201981
0.00202837
0.002037558
0.002034919
0.001998319
0.00193162
0.001886065
0.001744282
0.001828886
0.001744065
0.001616174
0.001281115
0.001083889
0.001387297
0.001237555
0.001093328
0.0008120645
0.0008701801
0.0007261435
0.0006038899
0.0004711158
0.0003263196
0.0001983032
0.0001064933
5.494227e-05
2.966437e-05
0.0002620456
0.0003550193
0.0004355912
0.0005343357
0.0006463537
0.0007776722
0.0009169314
0.001050955
0.001201418
0.001349112
0.001502266
0.001643116
0.001775133
0.001910632
0.002046218
0.002171188
0.002283149
0.002390888
0.002495616
0.002593535
0.002683441
0.002767236
0.002843844
0.002912584
0.002975695
0.003033421
0.003083761
0.003127054
0.00316538
0.003198782
0.003227574
0.003251934
0.003270549
0.003283326
0.00329044
0.003292819
0.003289734
0.003280536
0.003265055
0.003243444
0.003214036
0.003175253
0.003125193
0.003071058
0.002982004
0.002769468
0.002689365
0.002577974
0.002358428
0.002262567
0.002032621
0.001785665
0.001403945
0.001207903
0.001134552
0.0008157595
0.0004586784
0.0001708925
5.462686e-05
2.909511e-05
0.0002897841
0.0004374892
0.0005671644
0.0007312824
0.0009135364
0.001112955
0.001321143
0.001531393
0.001747057
0.001958283
0.002158618
0.002346992
0.002520328
0.002683878
0.002837055
0.002978824
0.003109555
0.003229959
0.003340661
0.003442417
0.003535749
0.003621216
0.003699049
0.003769642
0.003833414
0.00389053
0.003941073
0.003984321
0.004023069
0.004053826
0.004078271
0.004097395
0.004110376
0.004116508
0.00411518
0.004105707
0.004087853
0.004061883
0.004026917
0.003982014
0.003926197
0.003858509
0.003777872
0.003684584
0.003576554
0.00345268
0.003310088
0.003147781
0.00296485
0.002762948
0.002182004
0.001920258
0.001778902
0.00169659
0.001358098
0.0009906608
0.0006061023
0.0002499617
5.4763e-05
2.900809e-05
0.000319845
0.0005249321
0.0007058946
0.0009259619
0.001165455
0.001418478
0.001675734
0.001929886
0.002176897
0.002415587
0.002642113
0.002855565
0.003049923
0.003225606
0.003386307
0.003534664
0.003673066
0.003801705
0.003921
0.004032145
0.004135649
0.004229824
0.004314682
0.004391704
0.004461501
0.004524407
0.004578417
0.004628961
0.004670779
0.004705181
0.004733139
0.004754354
0.004768213
0.004774248
0.004772637
0.004763424
0.004746186
0.004719906
0.004684459
0.004639466
0.00458445
0.004518624
0.00444082
0.004350853
0.004246585
0.004124139
0.003986951
0.003830132
0.003551521
0.002992054
0.002886389
0.00286123
0.002569165
0.002188686
0.001760464
0.001282909
0.0007747421
0.0003085534
5.443894e-05
2.953035e-05
0.0003347211
0.0005967761
0.0008210556
0.001080749
0.001359554
0.001648273
0.001937469
0.002218967
0.002487417
0.002740579
0.002978977
0.003205945
0.003416693
0.003613447
0.003791466
0.003953097
0.004101525
0.00423845
0.004364663
0.004480614
0.004586891
0.004686
0.004778982
0.004865066
0.004943983
0.005015578
0.005078376
0.005135696
0.005184282
0.005224754
0.005256808
0.005280534
0.005295814
0.005301882
0.005298632
0.005285368
0.005262222
0.00522867
0.005184179
0.00512821
0.005060144
0.004979253
0.004884655
0.004774992
0.004648436
0.004503386
0.004337119
0.004152148
0.003939159
0.003692607
0.003409215
0.00309009
0.002734296
0.002336476
0.001891345
0.001399505
0.0008724116
0.0003646839
5.447313e-05
3.010159e-05
0.000344736
0.0006581255
0.0009194953
0.001206581
0.001509438
0.001817707
0.002123838
0.002421619
0.002707563
0.002979185
0.00323104
0.003462703
0.0036799
0.003880097
0.004067
0.004239424
0.004398398
0.004545808
0.004683174
0.004811598
0.004931912
0.005044768
0.005150406
0.005248702
0.005339418
0.005419462
0.005495209
0.005561744
0.005619015
0.005666932
0.005705033
0.005733508
0.005751662
0.005759137
0.005755904
0.005741559
0.005715766
0.005678208
0.005628539
0.005566361
0.005491186
0.005402398
0.005299189
0.005180534
0.005045108
0.004892072
0.004716966
0.00452151
0.004297643
0.004042439
0.003752203
0.003421483
0.003043648
0.002612249
0.002122769
0.001574763
0.0009817368
0.0004094975
5.440652e-05
3.091181e-05
0.0003484424
0.0007019527
0.0009941289
0.001298285
0.001615666
0.001940766
0.002261512
0.002571255
0.002864973
0.00313999
0.003398096
0.003638515
0.003862164
0.004070502
0.004266353
0.004450684
0.004623431
0.004785406
0.004937774
0.005081499
0.005217221
0.00534525
0.005465597
0.00557804
0.005682213
0.005776243
0.005863242
0.005940344
0.006007147
0.00606318
0.006108026
0.006141892
0.006164031
0.006173942
0.00617124
0.006155546
0.006126518
0.00608382
0.006027096
0.005955945
0.005869896
0.005768382
0.005650713
0.005515982
0.005363509
0.005191992
0.004996684
0.004779682
0.004533995
0.004255987
0.003941268
0.003585201
0.003183703
0.002730819
0.002222203
0.001656996
0.001045743
0.0004469267
5.435811e-05
3.261264e-05
0.0003534741
0.0007352889
0.001052644
0.001371923
0.001700128
0.002028723
0.002352844
0.002666228
0.002964759
0.003246645
0.003511841
0.003760724
0.003994215
0.004213498
0.00442037
0.004616931
0.00480421
0.004982334
0.005151632
0.005312516
0.005465281
0.005610065
0.005746671
0.005874628
0.00599321
0.006101774
0.006200385
0.006287751
0.006363781
0.00642822
0.006480328
0.00651976
0.006545745
0.006557696
0.006555146
0.006537694
0.006504987
0.006456704
0.006392531
0.006312149
0.006215202
0.006101279
0.005969801
0.005820536
0.005653054
0.005464059
0.005250551
0.005014442
0.004753215
0.004463495
0.004139901
0.00377465
0.003359586
0.002888301
0.002355767
0.001760483
0.001113923
0.0004785655
5.437062e-05
3.239837e-05
0.0003581138
0.0007544654
0.001094396
0.001422683
0.00175407
0.002085163
0.002410827
0.002726373
0.00302874
0.003316457
0.00358924
0.003847497
0.004092095
0.00432415
0.004544881
0.004755759
0.004958322
0.005153019
0.005339617
0.005517657
0.005686572
0.005845542
0.005995964
0.006137946
0.006268634
0.006391436
0.006503239
0.006603365
0.006690569
0.006763865
0.006822852
0.006867233
0.006896286
0.006909413
0.006906108
0.006885941
0.006848546
0.006793609
0.006720861
0.006630075
0.006521079
0.006393758
0.00624641
0.006079084
0.005891355
0.00568453
0.005455358
0.005203606
0.004925391
0.004617227
0.00427447
0.003891821
0.003459611
0.002971692
0.002424196
0.001815141
0.001154748
0.0005023631
5.423888e-05
3.233082e-05
0.0003516508
0.0007645562
0.001124046
0.001461104
0.001794118
0.002124493
0.00244926
0.002765156
0.003069851
0.003362087
0.003641601
0.003908844
0.004164664
0.004410012
0.004645734
0.004871162
0.005085801
0.005293001
0.005492947
0.005685636
0.005871034
0.006049175
0.006217921
0.006376151
0.006522209
0.006657897
0.006781045
0.00689077
0.006986189
0.007066493
0.007131068
0.007179391
0.007210596
0.007224024
0.007219133
0.007195469
0.007152653
0.00709036
0.007008305
0.006906237
0.006783926
0.006641159
0.006479561
0.006298134
0.006095727
0.005871317
0.005623737
0.005353529
0.005059111
0.004738131
0.004385076
0.003991738
0.003551746
0.003056229
0.00249685
0.001872214
0.001193404
0.0005218597
5.425028e-05
3.537068e-05
0.0003359634
0.0007609813
0.001138597
0.001483561
0.001817883
0.002147396
0.002471228
0.002787174
0.003093568
0.00338976
0.00367581
0.003952045
0.004218517
0.004475104
0.004719962
0.004956817
0.005187526
0.005410476
0.005626218
0.005834737
0.00603551
0.006227682
0.006410127
0.006581823
0.006741185
0.006888376
0.007021751
0.007140285
0.007242997
0.007328959
0.007397342
0.007447441
0.007478762
0.00749083
0.007483192
0.007455445
0.007407239
0.007338282
0.007248331
0.00713718
0.007004634
0.006850473
0.006674365
0.006476262
0.006256068
0.006013884
0.005692219
0.005291826
0.004995993
0.00476996
0.004455785
0.004058366
0.003611391
0.00310709
0.002538648
0.001905423
0.001217809
0.0005359675
5.410557e-05
3.537051e-05
0.0003294856
0.0007532178
0.001141215
0.00149298
0.001828393
0.002155911
0.002477297
0.002792086
0.00309938
0.003398368
0.003687944
0.003966129
0.00411925
0.004238296
0.004396894
0.004601498
0.004869713
0.005169369
0.005479672
0.005772578
0.0060903
0.006384872
0.006579065
0.006761831
0.006931561
0.007087435
0.007228305
0.007353182
0.007461129
0.007551271
0.00762283
0.007675087
0.007707276
0.007718745
0.007708933
0.00767737
0.007623677
0.007547567
0.007448837
0.007327367
0.007183106
0.007016066
0.006826271
0.006613895
0.006288928
0.005857149
0.005461862
0.005135242
0.004873135
0.004671478
0.004487788
0.004105165
0.003656543
0.003148275
0.002575025
0.001934069
0.001236927
0.0005457212
5.40985e-05
3.572682e-05
0.000319684
0.000741309
0.001139987
0.001498146
0.001835149
0.002161524
0.002480959
0.002793918
0.0030997
0.003396905
0.003671988
0.003841629
0.003996377
0.004141867
0.004274434
0.004419655
0.004593101
0.004836331
0.005127157
0.005442903
0.005755982
0.00608931
0.006438694
0.006796276
0.007078307
0.007241212
0.007388722
0.007519564
0.007632655
0.007726982
0.007801595
0.007855616
0.007888235
0.00789873
0.007886499
0.007851062
0.007792065
0.007709282
0.007602611
0.007472046
0.007317633
0.007139735
0.006865522
0.006443826
0.006020938
0.005648703
0.005312144
0.005003831
0.004755867
0.004590211
0.004440125
0.004135432
0.003686524
0.003176147
0.002598368
0.00195257
0.001250453
0.0005535698
5.399899e-05
3.623661e-05
0.0003103105
0.0007267895
0.001130476
0.00149568
0.001835684
0.002161888
0.002479455
0.002789916
0.003093086
0.003387962
0.003673064
0.003834835
0.00395072
0.00405582
0.004176863
0.004349219
0.004550364
0.004768228
0.005006756
0.005298029
0.005614617
0.005940411
0.006265074
0.006584327
0.00689847
0.007205821
0.007486069
0.007641657
0.00775952
0.00785779
0.007935291
0.007991019
0.00802411
0.008033779
0.008019401
0.007980493
0.007916743
0.007828016
0.007714383
0.00757615
0.007297334
0.006974625
0.006635001
0.006275946
0.005898562
0.005513218
0.005159035
0.004873125
0.004658414
0.004501139
0.004366962
0.004156636
0.003708145
0.003196175
0.002615663
0.001965752
0.001258591
0.0005572963
5.3942e-05
3.675318e-05
0.0003026236
0.0007117752
0.00111964
0.00148918
0.001831349
0.0021571
0.002472452
0.00277985
0.003079773
0.0033716
0.003647861
0.003788916
0.003891209
0.004008933
0.004165396
0.004331752
0.004502647
0.004697117
0.004934203
0.005191928
0.005486626
0.005796793
0.006113584
0.006424803
0.006719038
0.006990048
0.007236647
0.007460709
0.007668276
0.007865111
0.008027533
0.008085046
0.008118778
0.008127929
0.008100033
0.008020712
0.00790429
0.007753253
0.007568706
0.007350238
0.007094868
0.006801479
0.006473606
0.00612156
0.005762554
0.00541408
0.005088175
0.004794548
0.004561497
0.004411401
0.004320147
0.004170294
0.003721693
0.003208791
0.002626604
0.001974491
0.001264522
0.0005597674
5.389701e-05
3.71984e-05
0.0002955222
0.0006966207
0.001105011
0.001477929
0.001822573
0.002148367
0.002461834
0.002766259
0.003062836
0.003351468
0.003629814
0.003788147
0.003907778
0.004024227
0.004149616
0.004296944
0.004484751
0.004691797
0.004926256
0.005179224
0.005444815
0.005727582
0.006017197
0.006304225
0.006580907
0.006839772
0.007072053
0.007273213
0.007451783
0.007638666
0.007903158
0.008070304
0.00800834
0.007925304
0.007879918
0.007819915
0.00772474
0.007589618
0.007415005
0.007199584
0.006943489
0.00665206
0.006334136
0.0059983
0.005654923
0.005317748
0.005003826
0.004730862
0.004514688
0.004362419
0.00426278
0.004128024
0.00373113
0.003219006
0.002635899
0.001981851
0.001269885
0.0005621976
5.382811e-05
3.755611e-05
0.0002894375
0.0006819538
0.001089404
0.001465249
0.001811318
0.002136891
0.002448575
0.002750221
0.003043614
0.003329134
0.003606175
0.003780495
0.003907342
0.004030562
0.004167563
0.004324262
0.004500585
0.004711999
0.004939095
0.005190461
0.005452858
0.005727105
0.006002668
0.006271992
0.006528361
0.006766532
0.006983049
0.007177994
0.007357938
0.007537124
0.007736726
0.007965758
0.007992107
0.007860814
0.007787993
0.007718261
0.007622241
0.007487824
0.007311937
0.007095321
0.006840566
0.006552635
0.006239177
0.005909906
0.005575893
0.005248943
0.004941938
0.004670036
0.004452705
0.004306014
0.00421833
0.004102119
0.003735013
0.003222795
0.002638937
0.001984129
0.001270994
0.0005627756
5.37849e-05
3.78329e-05
0.0002847327
0.0006691323
0.001073673
0.001450195
0.001797294
0.002122832
0.002433147
0.002732476
0.003023151
0.003306118
0.003581443
0.003801519
0.003946233
0.004077562
0.004217333
0.0043766
0.004559147
0.004763066
0.004992629
0.0052415
0.005505891
0.005771568
0.006034496
0.006289428
0.006531558
0.00675654
0.006961246
0.007146245
0.007319426
0.007497507
0.007701764
0.007949849
0.008000597
0.007866135
0.007776885
0.007693545
0.007590051
0.007450965
0.007269865
0.007046707
0.006785668
0.006493868
0.006180175
0.005854184
0.00552584
0.005205739
0.004905979
0.004640515
0.004426858
0.004279862
0.004191064
0.004081464
0.003738642
0.003226669
0.002642391
0.001986684
0.001272762
0.0005637073
5.374146e-05
3.808314e-05
0.000281058
0.0006574632
0.001058146
0.001434372
0.00178225
0.002107474
0.002416632
0.00271418
0.003002897
0.003284305
0.003559177
0.003827072
0.003996614
0.004140537
0.00428989
0.004454539
0.004640127
0.004848332
0.00507883
0.005325427
0.005581922
0.005839316
0.006093224
0.006337522
0.006568128
0.006782148
0.006977886
0.007156173
0.007323276
0.007493894
0.00769184
0.007950111
0.008031499
0.007908613
0.007803619
0.00770061
0.007581698
0.007431121
0.007240457
0.00700887
0.006741059
0.006444994
0.006130099
0.00580598
0.005481877
0.005167073
0.004872236
0.004610387
0.004399289
0.004254889
0.004170298
0.0040688
0.003739643
0.003227573
0.002642868
0.001986698
0.00127267
0.0005634662
5.368213e-05
3.826821e-05
0.0002788039
0.0006477942
0.001043653
0.001418448
0.001766113
0.002091176
0.00239955
0.002695849
0.002983184
0.003263478
0.003537849
0.003807813
0.004069407
0.004231072
0.00438791
0.004561085
0.004752256
0.004962028
0.005189572
0.00543197
0.005682975
0.005936216
0.006181733
0.006415036
0.006633524
0.006835737
0.007021046
0.007190357
0.007348328
0.007507419
0.007694162
0.0079569
0.008068858
0.007956126
0.007835409
0.007715386
0.007582157
0.007419945
0.007219503
0.006979628
0.006705394
0.00640544
0.006089576
0.005767206
0.005446848
0.00513681
0.0048468
0.004588885
0.004380175
0.004236547
0.004152449
0.004055079
0.003740016
0.003227881
0.002642658
0.001986325
0.0012724
0.0005633697
5.365188e-05
3.847622e-05
0.0002776724
0.0006397844
0.001030325
0.001402893
0.001749876
0.002074613
0.002382421
0.002677871
0.002964295
0.00324394
0.003518289
0.003788378
0.004055975
0.004321828
0.004515234
0.004690764
0.004884174
0.005097275
0.005325256
0.005566188
0.0058121
0.006056216
0.006291323
0.006513466
0.006719631
0.006908878
0.007082031
0.007241833
0.007393844
0.007547191
0.007713228
0.007898627
0.008083228
0.008053443
0.007870111
0.007728626
0.007583736
0.007411442
0.007201772
0.00695415
0.006674235
0.006371066
0.006054561
0.005733834
0.005416744
0.005110752
0.004824785
0.00457031
0.004364262
0.004222742
0.004140967
0.00404763
0.003739741
0.003227423
0.002641908
0.001985288
0.001271337
0.00056269
5.358769e-05
3.868432e-05
0.0002773584
0.0006334219
0.001018441
0.001388192
0.001734025
0.002058236
0.00236558
0.0026605
0.002946458
0.003225967
0.003500837
0.003772452
0.004042011
0.004310312
0.004578388
0.004847324
0.005049824
0.005253566
0.005476788
0.005713
0.005954579
0.006191867
0.006418934
0.006629842
0.006822653
0.006997544
0.007156288
0.007302358
0.007441719
0.007583478
0.007737385
0.007905824
0.008085929
0.008080402
0.007906901
0.007753546
0.007593259
0.007408118
0.007188574
0.006933521
0.006648439
0.006342439
0.006025405
0.005706128
0.005391881
0.005089445
0.004807126
0.004555862
0.004352263
0.004212371
0.004131865
0.004040919
0.003738965
0.003226295
0.002640472
0.001983661
0.001269996
0.0005621418
5.356874e-05
3.879823e-05
0.0002776443
0.0006283987
0.001008026
0.001374625
0.001718984
0.002042522
0.002349477
0.002644121
0.002929968
0.003209707
0.003485356
0.003758457
0.004030223
0.004301586
0.004573273
0.004845709
0.005118792
0.005391663
0.005658197
0.005880814
0.006103635
0.006329311
0.006548547
0.006752169
0.006934841
0.007095985
0.007239384
0.007370324
0.007494671
0.007619361
0.007753316
0.007908503
0.008092392
0.008103905
0.007937371
0.007775177
0.007602707
0.007406408
0.007177762
0.006915769
0.006625945
0.00631744
0.006000017
0.005682105
0.005370429
0.005071175
0.004792153
0.004543945
0.004342985
0.004205311
0.004126795
0.004037982
0.003738389
0.003225283
0.002639005
0.001981975
0.00126848
0.0005612006
5.351306e-05
3.902234e-05
0.0002790585
0.0006251946
0.0009993296
0.001362476
0.001704977
0.002027691
0.002334335
0.002628951
0.002915036
0.003195375
0.003472117
0.003746909
0.004021
0.004295294
0.004570362
0.004846405
0.005123198
0.005400066
0.005675975
0.005949305
0.006217901
0.006479001
0.006690186
0.006876281
0.007045398
0.007194909
0.007324854
0.007440341
0.007549037
0.007658517
0.007777148
0.007915264
0.008087108
0.008110916
0.007959811
0.00779491
0.007613496
0.007407337
0.007170062
0.006901372
0.006607009
0.006296147
0.005978367
0.005661703
0.005352358
0.00505599
0.004779985
0.004534664
0.004336269
0.004200695
0.004123745
0.004036091
0.003737702
0.003224028
0.002637206
0.001979981
0.001266858
0.0005605362
5.350579e-05
3.877832e-05
0.0002808993
0.0006226025
0.0009916826
0.001351493
0.0016923
0.002014232
0.002320675
0.002615498
0.002902162
0.003183505
0.003461758
0.003738638
0.004015412
0.004292938
0.004571672
0.004851661
0.00513252
0.005413409
0.005693042
0.005969685
0.006241217
0.006505236
0.006759343
0.007000699
0.007175505
0.007308271
0.00742099
0.007520306
0.007612482
0.007704383
0.007802448
0.007917718
0.008074576
0.008132002
0.007996048
0.007808371
0.007619728
0.007408249
0.007164894
0.006890358
0.006591612
0.006278383
0.005960189
0.005644648
0.005337425
0.005043675
0.004770417
0.0045278
0.004331929
0.004198556
0.004123303
0.004036518
0.003737601
0.003223183
0.002635784
0.001978274
0.001265278
0.0005595219
5.346058e-05
4.013338e-05
0.0002805804
0.0006136795
0.0009856813
0.001341973
0.001680901
0.002002106
0.002308561
0.00260393
0.00289162
0.003174491
0.003454832
0.003734393
0.004014435
0.004295754
0.00457869
0.004863136
0.005148524
0.005433828
0.005717577
0.005997905
0.006272606
0.006539226
0.006795117
0.00703763
0.007264103
0.007438911
0.007539781
0.007617593
0.007690298
0.007766891
0.007852422
0.007947049
0.008042798
0.00811572
0.008034843
0.007834673
0.007634224
0.007413251
0.007162278
0.006881812
0.00657899
0.006263649
0.005945139
0.005630666
0.005325382
0.005033978
0.004763132
0.004522967
0.00432946
0.004198194
0.004124453
0.004037995
0.003737835
0.003222641
0.002634359
0.00197648
0.001263696
0.0005587426
5.346047e-05
4.137136e-05
0.0002831131
0.0006020819
0.0009818992
0.001334419
0.00167136
0.00199187
0.002298539
0.002594823
0.002884049
0.003169074
0.003452196
0.003735165
0.004019197
0.004304995
0.004592758
0.004882203
0.005172563
0.005462607
0.005750673
0.006034729
0.00631245
0.006581309
0.006838619
0.007081765
0.007308113
0.007515682
0.007675145
0.007743233
0.007791059
0.007843354
0.007907904
0.007983085
0.008058014
0.008117315
0.008045384
0.007854891
0.007651168
0.007422562
0.007163814
0.006877089
0.006570062
0.006252574
0.005933656
0.005620034
0.005316373
0.005026965
0.004758111
0.00452016
0.004328923
0.004199839
0.00412779
0.0040415
0.003738131
0.003222113
0.002633383
0.001975173
0.001262399
0.0005579316
5.342715e-05
4.19585e-05
0.0002862636
0.0005920949
0.0009795507
0.00132821
0.001663295
0.001983376
0.002290642
0.002588359
0.002879771
0.003167703
0.003454429
0.003741647
0.004030484
0.004321507
0.004614736
0.004909684
0.005205363
0.005500323
0.00579271
0.006080334
0.006360757
0.00663137
0.00688962
0.007132757
0.007358392
0.007563892
0.007747178
0.007866044
0.00790597
0.007934824
0.007973609
0.008023737
0.008078391
0.008125051
0.008056231
0.007874028
0.007668818
0.007434157
0.007168377
0.00687564
0.006564454
0.006244787
0.005925388
0.005612478
0.005310215
0.005022518
0.004755425
0.004519428
0.004330252
0.004203196
0.004132668
0.004046236
0.003739557
0.00322249
0.00263292
0.001973996
0.001261109
0.000557192
5.343144e-05
4.209319e-05
0.0002891559
0.0005832327
0.0009660478
0.001323983
0.001657278
0.001977066
0.002285363
0.00258515
0.002879532
0.003171251
0.003462502
0.003754881
0.004049374
0.004346365
0.004645661
0.00494654
0.005247778
0.005547705
0.005844279
0.006135169
0.006417805
0.006689638
0.006947977
0.007190225
0.0074142
0.007617149
0.007797329
0.007953025
0.008022294
0.008039012
0.008055368
0.008082682
0.008114609
0.008139962
0.008067801
0.007893649
0.007688538
0.007449091
0.007176876
0.006878309
0.006563005
0.006241091
0.005920911
0.005608074
0.005306465
0.00501995
0.004754411
0.004520226
0.00433308
0.004208198
0.004139367
0.004052636
0.003741552
0.003223288
0.002632728
0.001973314
0.001260221
0.0005565466
5.340437e-05
4.231999e-05
0.0002920865
0.0005752442
0.0009516243
0.001321679
0.001653118
0.001973121
0.002282999
0.002585551
0.002883732
0.003180151
0.003476867
0.003775311
0.004076272
0.004379904
0.004685764
0.004992878
0.005299776
0.005604571
0.005905043
0.006198565
0.006482844
0.006755166
0.007012887
0.007253562
0.007474813
0.007674557
0.007850987
0.008002582
0.008128121
0.008150553
0.008148934
0.008153128
0.008162448
0.008165201
0.008086082
0.007917092
0.007711284
0.007467258
0.007188916
0.00688448
0.006564585
0.006239725
0.005918621
0.005606249
0.005305948
0.005020779
0.004756643
0.004523965
0.004338322
0.004215054
0.004147302
0.00405995
0.003744276
0.00322479
0.002633166
0.001973064
0.001259375
0.0005559436
5.341198e-05
4.258745e-05
0.0002949357
0.0005685526
0.000938509
0.001320446
0.001650885
0.001971598
0.0022838
0.002590012
0.002892981
0.003195123
0.0034983
0.003803719
0.004111914
0.004422771
0.004735569
0.005049065
0.005361557
0.005670857
0.005974344
0.006270124
0.006555311
0.006827298
0.007083562
0.00732186
0.007539803
0.007735606
0.007907639
0.008054565
0.008175338
0.008253632
0.008250467
0.008234968
0.008220535
0.008198429
0.008109604
0.007943667
0.007736526
0.00748816
0.007204299
0.006894922
0.006572168
0.006246471
0.005925244
0.005611239
0.005309094
0.005024089
0.004761112
0.004529522
0.004345444
0.004224418
0.004158906
0.004070399
0.003747643
0.00322676
0.00263395
0.001972906
0.001259037
0.0005556071
5.339756e-05
4.285477e-05
0.0002979744
0.0005629697
0.0009258515
0.00132137
0.00165135
0.001973415
0.002288532
0.0025992
0.002907852
0.003216653
0.00352719
0.003840378
0.004156445
0.004474959
0.004794906
0.005114583
0.005431755
0.005744812
0.006051495
0.006348801
0.006634171
0.006905086
0.007159159
0.007394337
0.007608364
0.007799679
0.007966852
0.008108737
0.008224467
0.00831344
0.008344442
0.008321116
0.008285661
0.008238206
0.008137528
0.007972313
0.007763104
0.007510919
0.007222653
0.0069091
0.006581464
0.00625028
0.005924086
0.005611171
0.005312901
0.005030486
0.004768065
0.004537249
0.004354568
0.00423373
0.004167166
0.004077919
0.00375147
0.003229246
0.002635255
0.001973297
0.001258751
0.0005551726
5.341234e-05
4.315017e-05
0.0003009605
0.0005584138
0.0009157879
0.001322745
0.00165328
0.001977817
0.002296789
0.002612851
0.002928301
0.003244893
0.003563846
0.003885704
0.004210224
0.004536427
0.004862651
0.00518799
0.005510514
0.005827329
0.006136
0.006433956
0.006718674
0.006987746
0.007238969
0.007470261
0.007679858
0.007866257
0.008028226
0.008164809
0.008275308
0.008359267
0.008416443
0.008402021
0.008354054
0.008284786
0.008171381
0.008003795
0.007790082
0.007532045
0.007237448
0.006917665
0.006585783
0.006254036
0.005929988
0.005616941
0.005317924
0.005035443
0.004774018
0.004544331
0.004361591
0.004241293
0.004175975
0.004086261
0.003755888
0.003232227
0.00263695
0.001973947
0.001258821
0.0005550714
5.34149e-05
4.343419e-05
0.0003039547
0.0005552111
0.0009071074
0.001326227
0.001658171
0.001985793
0.002310503
0.002633571
0.002956826
0.00328191
0.003609504
0.003939405
0.004271636
0.004605375
0.004939241
0.005270588
0.005597247
0.005916786
0.006226713
0.006524538
0.006807843
0.007074364
0.007322056
0.007549036
0.007753752
0.007934894
0.00809142
0.008222548
0.008327733
0.008406648
0.008459156
0.008475843
0.008424246
0.008336358
0.008208523
0.008035871
0.007817059
0.007554654
0.007255815
0.00693242
0.00659839
0.006264817
0.005939513
0.005625283
0.005325221
0.005041639
0.004780164
0.004551218
0.004371188
0.004253987
0.004189565
0.00409724
0.00376099
0.003235778
0.002639151
0.001975064
0.001259194
0.0005549977
5.342165e-05
4.366599e-05
0.0003067223
0.0005520844
0.0008970762
0.001330393
0.001664471
0.001996063
0.002326201
0.002656397
0.002988164
0.003322377
0.003659517
0.003999603
0.00434131
0.00468316
0.005023384
0.005359795
0.005690044
0.006011684
0.006322245
0.006619313
0.00690059
0.007164009
0.007407681
0.007629973
0.007829516
0.0080052
0.008156166
0.008281796
0.008381686
0.008455624
0.008503558
0.008525569
0.008491508
0.008397096
0.008254501
0.008073191
0.007848728
0.007581682
0.007278711
0.006951692
0.006613746
0.006277048
0.005949467
0.005635107
0.005335326
0.005052104
0.004790632
0.004561532
0.004381016
0.004264037
0.004201695
0.004110268
0.003766487
0.003239702
0.002641704
0.001976448
0.001259702
0.000555136
5.34303e-05
4.399479e-05
0.0003098537
0.0005507663
0.0008917531
0.001336829
0.001674268
0.002011466
0.002348919
0.002687799
0.003029113
0.003373362
0.003720457
0.004069682
0.004419698
0.004768745
0.005114784
0.005455545
0.005788629
0.006111589
0.006422016
0.006717617
0.006996233
0.007256028
0.00749529
0.007712594
0.007906769
0.008076894
0.00822228
0.008342457
0.008437143
0.008506226
0.008549723
0.008567766
0.008560566
0.008465186
0.008309198
0.008117774
0.007886122
0.007613111
0.007305091
0.006973713
0.006632596
0.00629354
0.00596425
0.005648387
0.005347379
0.00506322
0.004801206
0.004572134
0.004392279
0.004276205
0.004213832
0.004120596
0.003772438
0.003244044
0.002644611
0.00197816
0.001260456
0.0005553602
5.344374e-05
4.376527e-05
0.0003142435
0.0005500849
0.0008875575
0.001336985
0.001685886
0.002029123
0.002374581
0.002722863
0.003074397
0.003429121
0.003786404
0.004145062
0.004503443
0.004859542
0.00521114
0.005555865
0.005891292
0.006215022
0.006524768
0.006818395
0.007093951
0.00734977
0.007584363
0.007796513
0.007985246
0.008149816
0.00828969
0.008404525
0.008494141
0.008558504
0.008597688
0.008611856
0.00860123
0.008523943
0.008361076
0.008161107
0.007922539
0.007644236
0.007331654
0.006996281
0.006651813
0.006310135
0.005979
0.005661945
0.00536013
0.005075312
0.004812732
0.004583299
0.004403507
0.004288109
0.004226643
0.004132633
0.003778916
0.003248842
0.002647879
0.001980087
0.001261345
0.0005556343
5.346055e-05
4.369023e-05
0.0003168233
0.0005501186
0.0008824357
0.00133229
0.001700185
0.002050368
0.002404757
0.002763271
0.003125668
0.003491271
0.00385891
0.004226966
0.004593466
0.004956185
0.005312768
0.005660798
0.005997887
0.006321746
0.006630238
0.006921269
0.007193374
0.007444919
0.007674652
0.007881554
0.00806483
0.008223893
0.008358346
0.008467961
0.00855265
0.008612441
0.008647454
0.008657875
0.008643929
0.008575966
0.008409519
0.008203967
0.007959693
0.007676192
0.007359014
0.007019744
0.00667218
0.006328179
0.00599531
0.005676895
0.005373927
0.005088104
0.004824726
0.004594859
0.004415152
0.004300333
0.004239426
0.004144484
0.003785717
0.003253964
0.002651445
0.001982247
0.001262342
0.0005558775
5.346915e-05
4.421358e-05
0.0003188175
0.0005511518
0.000878439
0.001327477
0.001717358
0.0020754
0.002439513
0.002808902
0.003182608
0.003559304
0.003937281
0.004314507
0.004688713
0.005057499
0.005418434
0.005769116
0.006107238
0.006430647
0.006737374
0.007025543
0.007293876
0.007540958
0.007765736
0.007967372
0.008145238
0.008298892
0.008428061
0.008532616
0.008612547
0.00866794
0.008698945
0.008705762
0.008688614
0.008628471
0.008459458
0.008249335
0.007999857
0.007711176
0.007389172
0.007045684
0.00669468
0.006348022
0.006013139
0.005693143
0.005388839
0.005101827
0.004837448
0.004606912
0.004427032
0.004312537
0.004251981
0.004156045
0.003792821
0.003259382
0.002655299
0.001984673
0.001263519
0.0005561847
5.348459e-05
4.487022e-05
0.000321283
0.0005526694
0.0008753645
0.00132406
0.001737116
0.00210385
0.002478391
0.002859185
0.003244518
0.003632405
0.004020608
0.004406708
0.004788185
0.005162515
0.005527238
0.005880005
0.006218627
0.006541112
0.00684568
0.007130705
0.007395043