/*--------------------------------*- C++ -*----------------------------------*\
| =========                 |                                                 |
| \\      /  F ield         | OpenFOAM: The Open Source CFD Toolbox           |
|  \\    /   O peration     | Version:  2312                                  |
|   \\  /    A nd           | Website:  www.openfoam.com                      |
|    \\/     M anipulation  |                                                 |
\*---------------------------------------------------------------------------*/
FoamFile
{
    version     2.0;
    format      ascii;
    arch        "LSB;label=32;scalar=64";
    class       volScalarField;
    location    "4050";
    object      G;
}
// * * * * * * * * * * * * * * * * * * * * * * * * * * * * * * * * * * * * * //

dimensions      [1 0 -3 0 0 0 0];

internalField   nonuniform List<scalar> 
12000
(
21708.93
19583.89
18643.47
17960.48
17270.62
16591.56
16025.7
15624.5
15366.56
15198.04
15076.43
14993.19
14969.73
15027.9
15155.19
15294.3
15368.17
15321.89
15150.58
14896.22
14619.85
14370.04
14166.35
14002.28
13860.06
13725.27
13593.57
13469.21
13359.07
13267.09
13191.57
13125.64
13059.91
12985.7
12897.71
12795.28
12682.17
12565.24
12452.57
12351.9
12269.76
12211.25
12180.64
12180.99
12212.91
12273.28
12355.64
12451.86
12553.17
12650.46
12735.06
12800.76
12846.25
12872.74
12880.26
12865
12821.13
12739.45
12637.29
12430.47
23632.1
22264.96
21153.92
20140.64
19139.84
18271.84
17638.4
17209.77
16892.46
16613.07
16353.5
16145.26
16034.32
16034.18
16100.54
16149.29
16103.72
15934.94
15668.81
15361.18
15063.07
14798.85
14565.82
14348.55
14134.56
13922.19
13718.94
13534.74
13375.38
13239.51
13119.68
13005.82
12889.27
12765.81
12636.65
12507.72
12387.63
12285.34
12208.15
12160.47
12143.71
12156.9
12197.7
12262.96
12348.67
12449.29
12557.43
12664.29
12760.77
12838.52
12890.65
12912.39
12902.43
12864.06
12804.24
12729.27
12641.13
12531.44
12415.36
12224.62
23999.96
23121.99
22056.62
21050.41
20161.55
19410.48
18799.09
18291.08
17842.23
17434.18
17089.84
16858.37
16771.93
16805.2
16874.54
16880.19
16758.79
16509.07
16178.95
15830.19
15506.63
15222.55
14970.63
14737.89
14517.56
14311.75
14127
13967.93
13833.23
13715.7
13605.26
13493.07
13374.73
13251.44
13129
13015.7
12919.85
12847.94
12803.51
12786.82
12795.25
12824.09
12867.76
12920.84
12978.61
13036.8
13090.79
13135.17
13164.33
13173.53
13159.42
13119.89
13054.42
12965.82
12861.47
12750.36
12637.85
12515.6
12395.85
12204.61
23990.17
23390.5
22295.49
21258.78
20545.85
20018.09
19492.6
18919.14
18345.62
17848.29
17498.77
17337.16
17340.02
17414
17434.82
17308.9
17014.9
16601.24
16149.11
15729.39
15378.19
15097.53
14871.56
14683.87
14526.05
14396.92
14296.75
14222.23
14164.86
14113.17
14056.67
13989.59
13912.45
13831.31
13755.13
13692.77
13650.72
13631.98
13636.08
13659.57
13696.8
13740.81
13784.34
13821.11
13846.82
13859.22
13856.97
13838.34
13801.07
13743.37
13664.63
13565.13
13445.68
13308.74
13159.86
13005.89
12852.16
12691.67
12549.04
12315.48
23785.81
23364.36
22304.85
21235.76
20560.17
20133.77
19697.55
19162.74
18597.07
18120.47
17826.56
17733.27
17767.54
17798.46
17704.49
17431.91
17009.56
16518.76
16045.04
15642.26
15323.73
15075.56
14876.7
14712.65
14578.3
14473.12
14395.12
14337.63
14290.31
14242.92
14189.33
14129.86
14070.79
14021.7
13991.88
13987.31
14009.27
14054.58
14116.92
14188.31
14260.3
14324.6
14373.73
14401.95
14406.34
14387.03
14345.96
14285.09
14205.44
14107.76
13993.54
13865.02
13724.28
13572.77
13411.94
13243.36
13071.77
12896.76
12756.05
12523.97
23570.89
23188.55
22269.16
21216.82
20378.66
19815.46
19412.1
19040.33
18663.14
18332.36
18112.48
18007.28
17946.11
17830.21
17595.34
17244.88
16837.08
16444.21
16114.17
15855.58
15647.61
15461.31
15277.01
15089.91
14905.5
14731.18
14570.27
14420.81
14278.49
14140.84
14010.28
13894.45
13803.87
13748.33
13733.52
13759.17
13819.25
13903.61
14000.41
14098.18
14187.06
14259.05
14307.95
14329.75
14323.31
14290.71
14236.36
14165.14
14080.82
13985.77
13881.92
13771.39
13655.81
13534.66
13405.29
13265.53
13121.23
12981.3
12882.72
12726.78
23454.21
22936.4
22141.28
21102.5
20032.43
19244.38
18823.95
18621.81
18480.53
18351.59
18243.6
18140.43
17987.9
17737.97
17391.34
17000.38
16636.41
16349.52
16147.27
16000.29
15865.06
15707.04
15512.23
15285.42
15040.64
14791.68
14547.15
14310.93
14085.71
13876.44
13691.59
13541.76
13436.57
13381.5
13376.03
13413.61
13483.18
13571.6
13666.06
13755.84
13832.97
13891.96
13929.13
13942.41
13931.66
13899.22
13849.87
13789.56
13723.38
13654.28
13583.25
13510.51
13435.71
13356.53
13268.9
13171.54
13073.41
12990.02
12945.93
12889.7
23416.39
22414.93
21554.37
20513.77
19380.48
18500.73
18025.7
17860.55
17856.95
17922.58
17996.82
18007.08
17880.08
17586.18
17162.93
16695.12
16269.22
15934.78
15692.95
15511.24
15349.11
15178.21
14989.29
14787.59
14583.7
14386.31
14199.86
14026.2
13867.72
13729.19
13617.31
13538.4
13495.83
13488.44
13510.65
13553.81
13608.17
13664.59
13715.8
13756.94
13785.3
13799.65
13799.32
13783.72
13752.49
13706.5
13648.72
13584.04
13517.59
13452.61
13389.66
13327.49
13264.08
13196.75
13123.2
13045.87
12976.14
12929.37
12915.49
12915.31
22637.09
21131.75
20298.55
19521
18682.51
17892.85
17315.34
17050.95
17088.53
17321.6
17594.81
17755.97
17705.46
17426.66
16980.41
16466.84
15977.93
15566.59
15242.86
14990.32
14787.32
14620.39
14486.27
14386.64
14321.78
14287.56
14276.45
14280.75
14295.15
14317.39
14346.67
14381.51
14418.31
14451.5
14474.8
14482.98
14472.93
14443.98
14397.37
14335.6
14261.61
14178.16
14087.23
13989.52
13884.72
13772.45
13653.96
13532.9
13414.51
13303.37
13201.32
13107.24
13018.56
12933.34
12852.23
12780.42
12726.95
12699.76
12693.35
12708.5
11786.54
14100.42
15217.54
15799.62
15966.31
15739.89
15396.77
15278.65
15522.02
16014.09
16527.2
16868.9
16955.75
16809.24
16510.6
16150.2
15793.24
15469.74
15184.45
14934.76
14723.8
14563.09
14466.37
14441.38
14485.04
14584.24
14720.51
14875.34
15033.49
15183.52
15316.5
15424.51
15500.29
15537.99
15534.51
15490.22
15408.75
15295.85
15157.86
15000.65
14829.14
14647.38
14458.6
14265.04
14067.93
13868.17
13667.74
13470.98
13284.52
13115.17
12967.02
12839.84
12730.84
12638.75
12566.53
12519.66
12499.87
12503.49
12510.06
12546.83
11691.62
13429.84
14389.49
14946.47
15147.57
14997.92
14719.31
14626.18
14864.84
15329.52
15792.94
16081.27
16150.96
16057.47
15883.32
15684.9
15477.61
15250.33
14990.53
14703.34
14415.79
14167.4
13994.82
13919.47
13943.02
14050.74
14218.93
14422.12
14637.52
14846.4
15033.81
15188.1
15301.02
15368.28
15389.7
15368.66
15310.7
15221.73
15106.6
14968.58
14809.88
14632.65
14439.74
14234.76
14021.71
13804.78
13588.87
13380.42
13187.6
13018.65
12878.86
12768.47
12684.49
12625.91
12596.6
12600.77
12632.34
12677.65
12709.64
12782.26
20795.69
18205.22
17286.55
16769.73
16271.97
15776.31
15363.23
15152.81
15196.09
15400.41
15595.87
15662.85
15592.82
15453.34
15314.99
15202.88
15093.85
14945.17
14728.16
14446.89
14135.9
13843.72
13613.53
13470.64
13419.81
13450.06
13542.33
13675.71
13830.87
13991.19
14142.99
14275.76
14382.7
14460.85
14510.63
14534.54
14535.59
14515.78
14475.35
14413.13
14327.66
14218.79
14088.64
13941.73
13784.21
13622.74
13464
13314.73
13181.86
13071.71
12988.08
12930.86
12897.56
12887.38
12903.07
12945.77
13005.25
13064.76
13103.34
13175.35
11723.54
12577.98
13238.99
13694.39
13856.8
13846.41
13828.02
13898.74
14071.39
14286.17
14453.71
14517.85
14490.72
14433.9
14407.96
14432.96
14484.98
14521.86
14513.58
14457.13
14371.75
14283.56
14211.83
14163.64
14136.44
14124.09
14121.52
14126.22
14137.08
14152.69
14170.53
14187.32
14199.99
14206.47
14205.77
14197.56
14181.41
14156.24
14120.18
14071.05
14007.29
13929.07
13838.9
13741.58
13643.12
13549.39
13464.88
13392.33
13333.14
13287.81
13256.26
13237.96
13232.41
13239.65
13259.39
13287.87
13315.27
13329.82
13327.6
13318.7
11130.15
11734.11
12369.74
12999.62
13447.41
13680.9
13798.59
13871.54
13918.26
13945.69
13958.33
13951.96
13924.92
13892.44
13880.54
13906.99
13971.98
14065.93
14181.94
14319.43
14477.27
14645.23
14802.34
14923.48
14989.37
14993.67
14943.83
14856.53
14751.05
14643.68
14544.98
14459.59
14387.64
14326.52
14272.45
14221.67
14171.14
14118.95
14064.38
14007.83
13950.72
13895.45
13845.3
13804.05
13775.16
13760.46
13759.07
13767.01
13778.12
13786.18
13787.41
13782.05
13773.23
13762.86
13747.78
13719.95
13673.74
13606.02
13536.78
13401.29
10998.49
11273.1
11669.03
12208.39
12826.89
13374.76
13729.85
13829.56
13702.5
13469.65
13270.64
13179.83
13189.56
13252.45
13327.15
13396.96
13468.04
13560.84
13699.32
13897.97
14150.91
14429.42
14690.4
14891.46
15004.77
15023.83
14961.57
14842.94
14696.03
14545.24
14407.69
14292.55
14202.18
14134.13
14083.41
14044.54
14013.33
13987.76
13968.2
13956.78
13956.38
13969.75
13998.9
14044.81
14106.99
14182.73
14266.18
14348.27
14418
14465.69
14486.92
14484.51
14465.65
14434.65
14387.64
14315.56
14217.57
14096.65
13991.77
13782.85
10992.94
11130.64
11375.76
11789.35
12459.04
13242.27
13837.39
14013.4
13762.26
13279.32
12822.43
12568.53
12556.28
12719.02
12956.07
13190.97
13394.81
13578.52
13768.97
13984.84
14223.14
14459.92
14661.35
14797.55
14852.42
14826.35
14733.01
14593.29
14429.54
14261.66
14105.18
13970.72
13864.21
13787.56
13739.73
13718.06
13719.6
13742.16
13784.68
13846.76
13927.82
14026.37
14139.71
14264.22
14395.52
14528.19
14654.99
14766.6
14853.02
14906.88
14927.25
14920.79
14897.67
14864.05
14817.54
14751.06
14665.47
14564.27
14486.47
14317.93
10992.88
11047.78
11221.84
11597.17
12289.56
13171.86
13889.09
14136.65
13863.97
13262.24
12624.09
12194.26
12080.45
12248.4
12583.42
12969.07
13335.5
13662.59
13955.4
14218.65
14446.01
14623.9
14740.58
14792.55
14785.02
14728.31
14633.58
14510.37
14366.61
14209.91
14048.9
13893.63
13754.8
13642.37
13564.19
13525.18
13527.19
13569.38
13648.68
13760.05
13896.58
14049.73
14210.14
14368.76
14517.77
14650.78
14762.12
14846.36
14899.24
14920.08
14914
14891.2
14862.72
14835.04
14808.16
14778.38
14745.45
14709.21
14691.11
14627.4
11006.35
11002.1
11144.88
11565.89
12303.88
13178.08
13865.82
14116.5
13885.44
13321.67
12676.96
12193.51
12008.43
12119.38
12427.07
12814.57
13204.21
13565.55
13891.86
14176.88
14408.77
14577.45
14682.87
14735.98
14752.7
14746.01
14721.21
14676.16
14605.19
14504.09
14373.92
14222.31
14062.49
13910.71
13783.08
13692.86
13648.77
13654.27
13707.68
13802.74
13929.43
14075.06
14225.87
14368.86
14493.4
14592.05
14660.44
14697
14703.35
14685.17
14651.87
14614.22
14580.82
14556.46
14543.14
14541.27
14550.23
14565.55
14588.33
14597.85
11024.69
10990.43
11143.99
11646.46
12416.24
13201.27
13763.31
13973.7
13822.79
13407.8
12905.27
12504.6
12324.38
12371.5
12571.17
12833.97
13104.6
13367.37
13623.83
13871.86
14100.93
14299.86
14464.92
14601.01
14716.35
14815.73
14897.01
14951.92
14970.05
14943.42
14869.85
14754.26
14607.95
14446.49
14286.89
14144.97
14033.25
13959.85
13928.02
13936.28
13978.96
14046.96
14128.97
14212.94
14287.87
14345.25
14380.22
14392.1
14384.48
14364.4
14339.98
14317.28
14298.92
14286.09
14281.96
14291.32
14315.8
14348.28
14377.74
14395.64
11039.32
11017.17
11242.12
11814.2
12536.31
13161.79
13585.1
13793.45
13787.34
13592.82
13293.85
13008.15
12826.21
12774.1
12824.23
12932.89
13070.48
13228.56
13409.85
13615.67
13840.69
14074.89
14307.74
14530.51
14735.91
14916.84
15065.92
15176.21
15242.54
15262.67
15237.64
15171.58
15070.99
14943.96
14799.42
14646.46
14493.88
14349.81
14221.37
14114.32
14032.53
13977.42
13947.43
13937.95
13942.18
13952.96
13965.03
13976.64
13989.54
14006.78
14029.5
14054.99
14078.1
14096.06
14112.43
14135.12
14168.4
14204.85
14229.47
14234.13
11064.95
11104.64
11451.95
12038.07
12612.66
13050.63
13391.3
13677.36
13875.24
13927.28
13820.72
13602.04
13350.42
13143.71
13032.67
13030.4
13119.08
13268.23
13452.02
13656.48
13876.5
14108.62
14345.76
14576.34
14786.83
14965.42
15104.91
15203.81
15265.45
15295.86
15301.14
15285.45
15249.93
15193.06
15111.86
15003.73
14868.12
14707.77
14529.2
14342.34
14159.35
13992.57
13852.09
13743.73
13668.42
13623.66
13606.27
13614.55
13647.86
13703.82
13775.46
13851.58
13921.08
13978.69
14027.58
14075.72
14127.34
14176.87
14209.09
14229.99
11108.03
11271.73
11748.81
12274
12663.44
12969.31
13309.05
13708.1
14092.15
14350.37
14397.22
14217.23
13883.11
13529
13285.79
13220.3
13318.3
13514.51
13739.38
13950.17
14135.13
14300.04
14452.67
14594.76
14722.35
14830.29
14916.45
14983.45
15037.58
15086.06
15133.98
15181.99
15225.53
15255.63
15261.05
15230.93
15157.49
15037.97
14875.74
14680.3
14466.14
14250.31
14049.27
13875.85
13737.68
13637.95
13577.87
13558.28
13578.77
13634.6
13714.88
13804.96
13892.36
13971.62
14044.42
14115.22
14185.06
14252.08
14302.8
14370.8
11189.38
11537.28
12103.22
12533.8
12809.87
13088.7
13461.59
13919.22
14396.06
14784.61
14960.21
14851.62
14505.34
14075.51
13739.21
13603.46
13667.83
13854.16
14066.95
14240.66
14353.94
14417.49
14453.96
14483.38
14518.27
14564.97
14626.7
14705.49
14802.33
14916.24
15043.26
15175.96
15303.82
15414.46
15495.34
15535.55
15527.44
15467.71
15358.07
15205.3
15020.66
14818.25
14612.81
14417.36
14241.84
14093.48
13978.07
13900.57
13863.6
13864.66
13895.3
13944.08
14001.86
14064.58
14131.18
14200.24
14268.44
14338.13
14399.49
14508.19
11318.06
11915.77
12543.01
12942.04
13228.06
13526.87
13875.93
14291.23
14768.23
15225.74
15514.92
15516.16
15233.36
14799.52
14395.95
14153.59
14102.58
14187.25
14318.74
14425.32
14475.96
14476.78
14453.81
14436.06
14445.79
14495.76
14590.25
14726.93
14898.43
15093.6
15298.8
15499.47
15681.74
15833.86
15947.1
16016
16038.15
16013.64
15944.68
15835.36
15691.41
15520.05
15329.49
15128.41
14925.73
14730.54
14552.03
14398.69
14276.67
14188.09
14131.02
14101.53
14096.26
14112.61
14146.1
14189.53
14236.06
14290.91
14346.7
14466.54
11622.29
12638.25
13371.07
13827.44
14150.68
14394.96
14620.74
14925.39
15354.73
15831.8
16193.38
16298.48
16115.94
15734.15
15302.72
14954.65
14754.34
14691
14708.08
14744.07
14761.53
14754.64
14740.05
14741.89
14780.02
14864.71
14996.55
15168.66
15369.15
15583.4
15795.9
15992.19
16160.51
16292.9
16385.44
16437.63
16451.16
16428.54
16372
16282.97
16162.18
16010.41
15829.66
15624.32
15401.82
15172.1
14945.92
14732.96
14540.75
14374.8
14239.5
14138.45
14073.45
14042.49
14038.45
14051.37
14073.5
14110.24
14152.59
14262.56
12535.15
13984.04
14711.15
15103.62
15302.09
15371.48
15438.42
15636.44
15998.95
16436.68
16802.82
16974.63
16901.18
16611.72
16195.73
15764.99
15410.81
15175.36
15050.06
14997.54
14979.94
14976.88
14987.17
15019.9
15083.85
15181.51
15308.52
15456.07
15613.68
15771.06
15919.08
16050.29
16159.36
16243.29
16301.3
16334.19
16343.48
16330.34
16294.77
16235.08
16148.2
16030.75
15881.13
15701.44
15498.35
15281.71
15061.65
14846.14
14640.94
14451.84
14286.55
14153.29
14056.8
13995.19
13961.12
13946.7
13946.93
13965.61
13990.66
14077.85
21708.13
20182.07
19364.45
18791.72
18251.08
17763.9
17444.67
17359.83
17472.48
17681.81
17882.74
17988.65
17931.39
17673.98
17234.75
16692.42
16156.06
15717.72
15419.64
15253.09
15181.18
15165.4
15180.46
15214.98
15264.74
15326.18
15394
15462.06
15525.39
15581.3
15629.33
15670.46
15706.23
15738
15766.59
15792.02
15813.39
15828.72
15834.74
15826.66
15798.57
15744.72
15661.57
15549.82
15414.78
15264.3
15105.4
14942.03
14776.15
14611.48
14455.77
14318.6
14205.85
14116.57
14046.05
13991.93
13954.64
13936.7
13927.24
13963.04
22544.79
21464.75
20632.68
19971.92
19319.08
18730.19
18335.51
18168.99
18166.7
18252.06
18375.14
18484.15
18497.59
18328.25
17940.21
17383.62
16775.87
16244.36
15871.44
15672.42
15609.99
15626.22
15670.46
15711.72
15737.05
15743.97
15733.77
15708.51
15670.87
15624.81
15575.73
15529.85
15493
15469.6
15461.95
15470.09
15492.06
15524.15
15561.13
15596.31
15622.13
15631.43
15619.32
15584.59
15529.55
15457.84
15371.53
15269.82
15150.95
15015.88
14870.46
14723.23
14580.48
14443.82
14313.13
14191.44
14084.27
13994.28
13919.89
13857.37
22752.19
22091.74
21335.6
20691.21
20112.28
19605.96
19228.75
18983.25
18834.35
18770.11
18797.11
18886.04
18945.48
18858.95
18554.51
18052.06
17456.25
16903.47
16498.95
16279.34
16214.7
16238.75
16284.71
16308.28
16292.46
16239.78
16161.14
16067.81
15968.38
15869.14
15775.55
15693.16
15627.41
15582.9
15562.54
15567.07
15595.01
15642.79
15704.99
15774.64
15843.95
15905.57
15953.95
15985.93
16000.08
15995.02
15967.85
15914.28
15830.34
15714.9
15570.8
15403.83
15220.2
15025.07
14823.37
14621.25
14426.62
14242.57
14085.77
13892.22
22746.02
22328.47
21587.86
20883.79
20399.25
20093.94
19843.57
19563.03
19264.48
19031
18937
18981.78
19079.4
19102.26
18947
18586.23
18079.81
17542.23
17086.42
16776.15
16610.12
16539.45
16501.65
16449.89
16365.32
16252.82
16128.71
16009.28
15905.03
15820.3
15755.93
15711.92
15688.9
15688.17
15710.95
15757.56
15826.73
15915.38
16018.69
16130.56
16244.54
16354.76
16456.51
16545.87
16618.77
16670.13
16694.06
16685.02
16638.77
16552.75
16426.11
16260.25
16059.87
15832.76
15587.77
15332.04
15073.19
14813.24
14591.81
14280.55
22637.51
22388.16
21689.15
20913.53
20458.65
20307.83
20190.06
19921.1
19531.07
19169.34
18965.07
18954.98
19080.93
19224.57
19258.33
19098.22
18738.09
18247.05
17731.21
17282.61
16944.21
16706.3
16528.68
16370.21
16208.56
16043.67
15889.19
15760.87
15668.62
15614.51
15595.03
15604.64
15638.51
15693.55
15768.11
15861
15970.45
16093.52
16226.16
16363.84
16502.46
16638.89
16770.52
16894.09
17004.66
17095.81
17161.19
17196.1
17197.24
17161.03
17082.66
16958.37
16789.37
16583.16
16349.71
16095.58
15826.92
15542.93
15301.43
14925.48
22463.71
22294.15
21696.77
20956.63
20487.8
20321.5
20205.16
19951.18
19577.89
19219.36
18997.84
18964.32
19092.75
19294
19443.99
19428.82
19192.02
18757.55
18213.82
17668.79
17203.39
16847.61
16586.36
16383.81
16208.42
16046.09
15899.27
15778.26
15692.12
15643.89
15630.67
15646.31
15684.47
15740.43
15811.36
15895.57
15991.37
16096.43
16207.9
16323.23
16440.96
16560.7
16681.89
16802.24
16917.03
17020.25
17106.82
17173.84
17219.22
17238.79
17225.01
17169.93
17070.37
16930.17
16756.64
16554.45
16328.6
16075.24
15857.86
15475.67
22243.53
22066.89
21615.26
21042.55
20554.99
20205.36
19927.53
19658.53
19398.04
19188.17
19073.7
19078.21
19191.86
19363.15
19502.99
19511.29
19319.34
18924.04
18391.69
17827.95
17331.89
16959.76
16715.1
16564.02
16461.51
16373.14
16283.61
16193.46
16110.38
16041.45
15989.61
15953.95
15931.83
15920.96
15920.2
15929.26
15947.88
15975.36
16010.87
16054.28
16106.61
16169.46
16243.43
16326.71
16415.04
16503.52
16588.7
16669.15
16743.53
16807.66
16853.44
16871.24
16854.12
16800.1
16711.02
16588.85
16438.68
16254.44
16091.54
15750.21
21999.26
21746.85
21446.51
21081.45
20567.69
19977.12
19484.69
19189.96
19070.7
19054.97
19090.82
19161.66
19264.9
19383.79
19471.94
19460.67
19288.23
18934.95
18441.99
17899.7
17410.93
17050.1
16839.73
16753.19
16737.17
16738.42
16721.62
16673.73
16598.08
16504.95
16404.29
16302.62
16203.21
16107.68
16017.32
15933.47
15857.38
15790.24
15733.62
15690.04
15662.91
15655.38
15668.79
15701.79
15751.05
15813.13
15885.99
15968.75
16059.99
16155.87
16249.57
16332.17
16394.37
16428.48
16430.51
16400.29
16343.56
16252.68
16165.58
15909.07
21667.4
21314.13
21129.94
20900.83
20364.81
19633.2
19024.72
18726.56
18700.34
18805.5
18933.01
19046.32
19153.47
19263.73
19358.69
19387.38
19285.93
19012.52
18577.57
18049.45
17530.17
17114.22
16853.22
16743.56
16739.22
16778.44
16809.04
16801.68
16749.83
16661.55
16549.79
16425.83
16296.97
16166.97
16037.59
15909.86
15784.93
15664.77
15552.65
15453.28
15371.98
15313.21
15279.26
15270.07
15284.29
15320.66
15378.47
15456.87
15554.01
15666.66
15790.19
15917.83
16039.91
16145.46
16227
16283.42
16320.19
16328.13
16325.88
16188.75
20969.34
20551.81
20446.45
20283.26
19810.97
19149.78
18588.19
18307.23
18289.16
18405.99
18544.65
18664.19
18779.68
18916.65
19072.69
19202.53
19230.91
19087.29
18745.01
18242.54
17673.36
17149.38
16757.66
16532.46
16453.56
16466.63
16511.29
16542.67
16539.61
16500.89
16435.89
16355.71
16268.17
16176.65
16081.32
15981.16
15875.78
15766.68
15657.66
15554.29
15462.51
15387.17
15331.31
15296.57
15284.15
15295.28
15330.62
15389.5
15470.05
15570.27
15688.24
15820.37
15959.19
16094.55
16218.85
16330.5
16432.47
16514.71
16581.43
16564.5
19469.47
19251.1
19332.65
19319.38
19084.17
18686.33
18281.22
18015.72
17938.67
17996.45
18103.37
18211.41
18327.67
18484.79
18697.28
18932.95
19113.87
19146.22
18964.09
18564.5
18014.29
17425.14
16910.11
16543.94
16344.97
16282.86
16302.8
16351.46
16393.37
16414.15
16414.56
16401.36
16380.38
16353.46
16318.97
16274.04
16217.01
16148.85
16073.3
15995.58
15920.76
15852.63
15793.79
15746.59
15713.73
15697.85
15700.25
15720.48
15757.35
15810.67
15881.47
15970.01
16073.47
16186.23
16303.21
16421.54
16539.83
16648.95
16745.93
16810.67
14599.66
16090.87
16975.39
17464.59
17716.29
17758.56
17633.12
17459.65
17361.52
17380.43
17478.43
17603.47
17742.82
17924.11
18177.81
18496.46
18818.41
19044.67
19079.63
18874.77
18452.98
17901.39
17337.13
16863.88
16540.06
16370.59
16320.8
16340.84
16387.34
16434.21
16472.08
16501.45
16524.96
16542.92
16552.64
16550.51
16534.52
16505.63
16467.38
16424.15
16379.38
16334.95
16292
16252.03
16217.21
16189.44
16169.22
16155.77
16148.66
16149.29
16161.01
16187.55
16231.41
16293.08
16370.77
16459.91
16554.82
16649.04
16738.14
16833.22
15722.15
16587.59
17175.05
17520.69
17769.14
17898.44
17841.74
17639.1
17421.43
17296.89
17285.19
17346.31
17446.09
17590.34
17809.22
18116.75
18479.36
18813.73
19014.75
18998.89
18741.03
18286.39
17732.62
17191.78
16751.61
16452.92
16289.73
16226.69
16221.43
16241.12
16268.13
16296.93
16327.14
16358.08
16386.84
16409.57
16423.84
16429.91
16430.23
16427.63
16423.83
16419.15
16413.42
16406.82
16399.82
16392.23
16382.75
16369.76
16352.91
16334.06
16317.19
16307.76
16312.04
16335.24
16378.22
16435.53
16499.23
16565.5
16630.61
16722.55
17795.78
17853.02
17985.29
18069.36
18144.78
18194.32
18123.68
17895.54
17589.99
17332.08
17193.83
17168.88
17217.19
17317.94
17484.37
17739.24
18077.8
18446.72
18752.83
18896.95
18815.07
18505.85
18031.12
17490.42
16983.28
16577.54
16296.25
16124.64
16029.07
15976.12
15943.88
15923.25
15912.98
15913.67
15924.22
15941.71
15963.08
15986.44
16011.23
16037.36
16064.46
16091.95
16119.37
16146.52
16172.78
16196.44
16214.98
16226.15
16229.16
16225.07
16216.78
16209.43
16210.31
16226.33
16259.43
16304.51
16353.38
16403.17
16448.82
16528.26
19439.03
18942.52
18743.75
18681.91
18635.06
18566.44
18427.44
18170.12
17819.83
17474.79
17230.86
17119.44
17112.01
17169.21
17280.86
17466.35
17743.34
18093.53
18450.77
18719.21
18811.09
18683.58
18355.91
17899.58
17408.25
16963.17
16609.98
16354.65
16175.64
16042.78
15932.47
15833.9
15747.04
15676.68
15626.94
15598.82
15590.17
15596.95
15614.48
15638.42
15665.51
15694.03
15723.7
15754.7
15786.56
15817.7
15845.91
15869.41
15887.28
15899.57
15907.74
15915.63
15929.42
15955.02
15993.95
16041.99
16091.56
16138.97
16174.51
16242.52
19720.99
19148.83
18849.43
18805.2
18803.2
18728.97
18562.21
18292.77
17931.62
17546.64
17235.26
17057.98
17006.99
17035.11
17107.85
17229.78
17428.94
17718.59
18067.83
18400.92
18624.87
18668.54
18512.13
18193.01
17787.18
17377.21
17023.07
16747.95
16542.05
16378.39
16230.51
16083.76
15937.58
15800.8
15684.72
15597.4
15541.02
15512.04
15503.24
15506.57
15515.55
15526.59
15538.55
15551.38
15564.82
15578.13
15590.52
15601.59
15611.23
15619.58
15627.74
15638.71
15656.95
15686.18
15727.01
15776.32
15827.48
15875.59
15906.02
15965.01
19130.31
18735.25
18462.3
18465.59
18583.36
18628.81
18535.92
18304.75
17956.31
17550.16
17184.84
16946.12
16855.37
16871.52
16939.53
17037.01
17181.92
17403.04
17701.25
18030.62
18310.36
18458.69
18428.63
18227.11
17909.21
17552.82
17227.25
16970.8
16785.38
16646.92
16523.52
16391.64
16243.93
16088.11
15939.9
15814.71
15721.69
15661.72
15629.01
15614.78
15610.79
15611.34
15613.16
15614.32
15613.43
15609.69
15603.19
15594.88
15585.96
15577.8
15572.49
15573.01
15582.46
15602.78
15634.17
15675.16
15720.74
15766.19
15794.85
15852.27
18393.73
18157.04
17940.45
17934.82
18117.83
18311.84
18374.21
18254.99
17964.99
17561.02
17143.79
16822.81
16660
16644.25
16719.15
16835.24
16981.8
17178.22
17439.43
17745.09
18034.4
18228.55
18266.07
18130.89
17859.03
17522.15
17197.75
16940.65
16768.29
16663.52
16590.5
16514.07
16413.84
16288.52
16151.28
16020.79
15912.53
15834.17
15785.34
15760.56
15752.78
15755.47
15763.16
15771.15
15775.64
15774.29
15766.59
15753.6
15737.3
15720.27
15705.67
15696.63
15695.32
15702.8
15719.79
15746.94
15781.75
15822.28
15852.91
15920.16
17249.12
17314.1
17269.17
17280.69
17472.74
17770.03
18005.88
18062.89
17908.28
17575.54
17151.34
16753.75
16484.65
16384.18
16426.12
16555.63
16733.95
16954.94
17226.98
17541.34
17853.68
18092.5
18188.39
18106.26
17862.74
17520.23
17161.95
16860.57
16654.93
16543.46
16494.28
16464.73
16420.16
16344.63
16241.25
16125.12
16014.08
15921.72
15854.86
15814.3
15797.08
15798.21
15811.61
15830.76
15849.75
15864.22
15871.96
15872.75
15867.93
15859.93
15851.61
15845.27
15842.02
15842.46
15847.94
15861.01
15882.43
15915.53
15947.76
16026.25
16431.8
16667.02
16772.89
16807.25
16946.03
17237.13
17565.58
17782.71
17801.46
17608.21
17250.79
16827.91
16458.63
16232.02
16172.86
16250.76
16420.05
16653.45
16944.96
17286.97
17645.74
17956.64
18143.94
18152.77
17974.9
17654.49
17271.6
16912.19
16638.73
16473.65
16400.58
16379.5
16367.07
16332.55
16264.43
16167.91
16057.46
15949.18
15855.86
15785.18
15739.91
15718.73
15717.4
15730.08
15750.77
15774.43
15797.54
15818.19
15835.97
15851.41
15865.06
15876.69
15885.35
15890.47
15893
15896.31
15904.58
15926.99
15955.62
16030.9
16110.76
16344.01
16525.97
16587.42
16654.23
16851.54
17161.11
17461.94
17633.69
17609.33
17383.6
17013.45
16604.46
16269.2
16078.41
16042.06
16131.01
16313.95
16576.83
16913.17
17299.97
17682.7
17983.39
18128.16
18078.14
17847.16
17497.28
17115.3
16781.7
16545.79
16416.11
16367.34
16357.44
16346.11
16307.18
16232.2
16127.1
16005.65
15883.22
15772.54
15681.67
15613.94
15568.93
15544.14
15536.39
15542.63
15560.15
15586.73
15620.46
15659.27
15700.19
15739.1
15771.64
15794.57
15806.85
15811.26
15814.31
15828.65
15851.11
15907.59
15973.58
16183.68
16406.62
16517.94
16548.49
16632.83
16847.94
17146.79
17413.34
17540.1
17470.13
17212.42
16839.65
16459.62
16167.2
16008.27
15980.19
16060.94
16237
16507.07
16863.22
17269.19
17655.67
17938.56
18050.19
17966.78
17717.99
17374.92
17023.15
16733.53
16542.62
16448.65
16421.52
16419.8
16406.75
16360.05
16273.86
16155.08
16017.13
15874.12
15737.1
15613.06
15505.75
15417.38
15349.7
15304.24
15281.98
15282.93
15305.69
15346.88
15400.69
15459.48
15515.16
15561.02
15593.18
15612.69
15625.81
15643.96
15665.95
15705.17
16147.77
16255.83
16449.17
16590.25
16614.57
16608.22
16700.54
16928.33
17214.47
17436.76
17498.94
17366.75
17075.13
16710.62
16371.53
16125.99
15995.16
15969.23
16036.85
16200.62
16467.63
16825.97
17228.21
17596.22
17846.23
17920.78
17810.83
17558.1
17237.72
16930.21
16695.35
16557.55
16506.04
16506.88
16519.56
16511.16
16463.8
16374.72
16251.41
16105.3
15946.98
15784.53
15624.14
15471.7
15333.66
15216.81
15127.31
15069.57
15045.17
15052.13
15084.72
15134.27
15190.95
15245.92
15293.37
15332.35
15365.79
15399.51
15429.37
15468.84
16357.2
16391
16532.48
16682.01
16727.81
16686.79
16683.94
16814.74
17060.43
17316.04
17466.61
17443.42
17245.13
16931.13
16591.63
16306.01
16113.75
16015.75
15999.64
16064.34
16223.24
16485.42
16831.88
17206.05
17526.93
17718.1
17737.31
17592.16
17335.37
17043.46
16789.03
16618.43
16542.33
16540.4
16575.38
16609.24
16614.74
16579.42
16502.98
16391.5
16252.4
16092.13
15916.51
15732.18
15547.44
15372.01
15215.84
15087.46
14992.55
14932.9
14906.12
14906.4
14925.91
14957.08
14994.73
15036.74
15081.3
15127.1
15163.56
15216.26
16571.92
16558.04
16638.3
16766.51
16838.48
16813.93
16768.07
16810.32
16978.28
17211.8
17403.11
17460.81
17349.22
17097.5
16781.42
16485.33
16264.69
16132.41
16074.98
16080.96
16157.19
16320.9
16576.25
16894.39
17212.56
17453.85
17556.99
17500.74
17311.41
17051.31
16794.51
16601.12
16500.43
16487.94
16534.83
16603.37
16660.89
16687.13
16674.38
16623.13
16537.01
16419.94
16275.65
16108.71
15925.54
15734.59
15545.6
15368.24
15210.69
15078.55
14974.41
14897.97
14846.96
14818.74
14811.57
14823.81
14850.13
14884.34
14910.7
14966.32
16744.71
16716.43
16743.64
16829.7
16916.75
16937.26
16899.15
16883.81
16964.44
17138.42
17330
17441.41
17406.61
17220.84
16938.51
16642.82
16404.18
16252.72
16180.67
16167.66
16205.91
16306.02
16481.31
16724.8
16997.11
17234.09
17370.67
17367.74
17228.55
16997.26
16741.32
16526.67
16396.51
16361.75
16404.69
16491.71
16587.84
16666.84
16714.56
16726.72
16704.41
16650.34
16566.93
16456.26
16320.9
16164.69
15993.06
15812.63
15630.48
15453.5
15287.83
15138.66
15010.35
14906.86
14831.27
14783.8
14758.74
14749.16
14740.82
14766.72
16864.85
16852.47
16844.36
16882
16965.37
17030.71
17030.28
16994.56
17002.55
17102.03
17264.7
17405.92
17439.11
17324.01
17085.01
16794.49
16533.35
16353.31
16263.33
16244.24
16275.75
16353.66
16486.24
16675.74
16900.87
17113.91
17255.47
17278.66
17169.88
16955.73
16693.33
16449.32
16277.28
16202.92
16221.57
16306.45
16422.23
16537.31
16630.78
16693.46
16724.72
16727.92
16706.66
16662.76
16596.13
16505.79
16391.16
16253.03
16094.03
15918.73
15733.48
15546.27
15366.26
15202.63
15062.28
14947.44
14854.91
14780.67
14720.38
14681.5
17053.91
17030.59
16985.69
16970.38
17024.83
17108.16
17145.7
17117.29
17080.54
17110.19
17225.91
17373.51
17462.34
17421.57
17238.81
16963.18
16676.04
16449.32
16317.16
16275.08
16300.76
16376.96
16499.76
16669.11
16872.19
17073.92
17222.68
17268.92
17186.58
16986.01
16712.17
16429.32
16199.44
16063.56
16032.78
16090.7
16204.17
16336.79
16459.7
16556.85
16624.45
16666.55
16689.55
16697.86
16691.92
16668.63
16623.01
16550.26
16447.36
16314.29
16154.65
15975.86
15788.31
15602.81
15427.24
15264.62
15115.41
14979.82
14868.82
14749.85
17273.6
17223.43
17146.7
17087.27
17098.62
17168.21
17226.27
17220.38
17171.67
17152.68
17216.98
17350.05
17476.41
17507.71
17394.66
17152.42
16849.03
16568.05
16370.04
16275.15
16271.82
16338.64
16460.83
16630.93
16837.16
17051.45
17228.07
17315.73
17277.13
17105.8
16831.71
16512.91
16217.09