/*--------------------------------*- C++ -*----------------------------------*\
| =========                 |                                                 |
| \\      /  F ield         | OpenFOAM: The Open Source CFD Toolbox           |
|  \\    /   O peration     | Version:  2312                                  |
|   \\  /    A nd           | Website:  www.openfoam.com                      |
|    \\/     M anipulation  |                                                 |
\*---------------------------------------------------------------------------*/
FoamFile
{
    version     2.0;
    format      ascii;
    arch        "LSB;label=32;scalar=64";
    class       volScalarField;
    location    "4050";
    object      ILambda_6_0;
}
// * * * * * * * * * * * * * * * * * * * * * * * * * * * * * * * * * * * * * //

dimensions      [1 0 -3 0 0 0 0];

internalField   nonuniform List<scalar> 
12000
(
3058.605
3070.851
3081.266
3086.082
3084.347
3080.027
3080.352
3090.643
3108.85
3123.557
3116.948
3071.307
2975.925
2831.279
2648.888
2447.3
2246.236
2061.32
1901.121
1766.956
1654.841
1558.396
1471.571
1390.44
1313.853
1243.081
1180.824
1129.978
1092.511
1068.681
1056.738
1053.145
1053.24
1052.212
1046.16
1033.019
1013.158
989.5015
967.1784
952.7533
953.2139
974.9074
1022.616
1098.913
1203.874
1335.126
1488.185
1656.983
1834.473
2013.23
2185.995
2346.119
2487.924
2606.941
2700.152
2765.767
2804.608
2814.113
2812.009
2745.108
3100.829
3108.479
3105.105
3093.59
3084.092
3087.705
3106.379
3126.867
3123.719
3069.927
2949.189
2763.421
2532.308
2285.868
2054.01
1857.722
1704.939
1591.582
1506.163
1435.441
1368.996
1301.582
1233.232
1167.761
1110.57
1066.532
1038.43
1026.174
1026.801
1035.134
1044.915
1050.167
1046.53
1032.305
1009.013
981.3298
956.4362
942.8929
949.2782
982.8444
1048.431
1147.801
1279.457
1438.921
1619.341
1812.312
2008.739
2199.642
2376.819
2533.347
2663.913
2764.994
2834.914
2873.773
2883.342
2866.537
2828.314
2769.558
2712.619
2586.557
3117.256
3104.4
3086.387
3077.354
3088.547
3114.323
3129.094
3098.337
2996.138
2818.356
2584.707
2330.105
2090.838
1892.417
1743.735
1638.442
1561.251
1495.542
1429.207
1357.241
1281.26
1207.077
1141.738
1091.014
1057.887
1042.042
1040.183
1046.892
1055.797
1060.844
1057.511
1043.778
1020.697
992.4304
965.7317
948.9465
950.7061
978.5648
1037.826
1130.756
1256.286
1410.211
1585.783
1774.567
1967.379
2155.185
2329.83
2484.573
2614.403
2716.162
2788.51
2831.773
2847.705
2839.175
2809.872
2763.778
2705.648
2636.753
2573.948
2457.783
3099.927
3077.376
3072.017
3093.687
3124.292
3122.327
3046.65
2880.408
2639.897
2365.753
2104.253
1889.547
1734.422
1631.364
1560.832
1501.549
1438.353
1365.494
1285.664
1206.529
1136.772
1083.071
1048.563
1032.653
1031.689
1040.038
1051.257
1059.23
1059.199
1048.658
1027.973
1000.6
972.7935
952.7882
949.572
971.4622
1024.756
1112.714
1235.04
1387.931
1564.622
1756.304
1953.195
2145.6
2324.801
2483.693
2617.13
2722.02
2797.206
2843.22
2861.943
2856.25
2829.657
2785.987
2729.133
2662.704
2590.491
2513.358
2444.85
2331.851
3065.671
3065.675
3100.226
3130.746
3095.267
2952.798
2709.118
2410.949
2119.557
1882.968
1720.523
1623.237
1565.171
1517.922
1461.586
1389.154
1304.858
1219.144
1143.217
1085.179
1048.416
1031.849
1031.178
1040.355
1052.843
1062.588
1064.802
1056.664
1037.925
1011.288
982.3701
959.1335
950.7913
966.3629
1013.158
1095.501
1213.959
1365.191
1542.434
1736.456
1936.789
2132.982
2315.679
2477.38
2612.847
2719.159
2795.502
2842.789
2863.206
2859.766
2835.916
2795.234
2741.218
2677.15
2606.069
2530.663
2453.786
2376.141
2308.67
2207.76
3055.243
3106.744
3130.276
3036.916
2801.665
2474.194
2139.43
1869.386
1695.159
1605.863
1565.687
1535.47
1488.467
1416.123
1325.177
1230.227
1146.106
1082.852
1044.018
1027.587
1028.075
1038.638
1052.527
1063.88
1068.135
1062.405
1045.963
1020.73
991.524
965.8068
952.8158
962.1639
1002.185
1078.391
1192.386
1341.481
1519.036
1715.453
1919.545
2120.01
2306.73
2471.705
2609.535
2717.452
2795.02
2843.6
2865.757
2864.697
2843.827
2806.46
2755.668
2694.257
2624.821
2549.827
2471.735
2392.968
2316.331
2243.139
2182.272
2102.312
3102.024
3119.903
2932.666
2574.159
2171.683
1845.499
1650.588
1573.254
1560.646
1556.054
1522.554
1450.083
1349.727
1242.333
1147.792
1078.577
1038.172
1022.996
1025.727
1038.271
1053.534
1065.997
1071.639
1067.84
1053.607
1030.114
1001.242
973.714
956.5445
959.7749
992.7261
1062.185
1170.976
1317.254
1494.67
1693.336
1901.333
2106.414
2297.568
2466.158
2606.525
2716.02
2794.601
2844.15
2867.7
2868.737
2850.685
2816.613
2769.155
2710.591
2643.028
2568.598
2489.621
2408.695
2328.702
2252.64
2183.707
2123.945
2078.858
2033.125
3118.493
2764.949
2243.166
1806.505
1569.727
1512.329
1546.327
1582.782
1568.954
1494.704
1379.688
1254.737
1146.722
1070.809
1029.702
1017.288
1023.597
1038.832
1055.453
1068.465
1074.733
1072.263
1060.055
1038.612
1010.768
982.2627
961.6073
959.049
984.8013
1046.98
1149.795
1292.47
1469.151
1669.789
1881.759
2091.802
2287.877
2460.561
2603.808
2715.018
2794.543
2844.835
2869.483
2872.35
2856.953
2826.154
2782.146
2726.65
2661.231
2587.622
2507.973
2424.972
2341.813
2262.027
2189.207
2126.633
2077.018
2041.94
2021.73
2017.393
2565.014
1755.557
1403.13
1388.332
1515.018
1624.216
1639.216
1557.107
1416.563
1265.485
1140.15
1057.635
1017.934
1010.683
1022.287
1040.939
1058.775
1071.642
1077.668
1075.831
1065.369
1046.211
1020.061
991.4538
968.1077
960.2188
978.75
1033.156
1129.182
1267.355
1442.551
1644.738
1860.65
2075.972
2277.5
2454.856
2601.45
2714.622
2795.086
2845.903
2871.307
2875.642
2862.613
2834.942
2794.4
2742.128
2679.101
2606.59
2526.521
2441.629
2355.414
2271.9
2195.257
2129.343
2077.263
2040.965
2020.983
2016.624
2023.151
2050.955
823.8488
1084.931
1462.336
1714.502
1764.281
1651.583
1460.705
1268.639
1122.03
1035.71
1002.282
1004.149
1023.068
1045.463
1063.832
1075.498
1080.274
1078.361
1069.377
1052.722
1028.906
1001.075
975.8913
963.2353
974.6398
1020.863
1109.306
1242.022
1414.88
1618.076
1837.813
2058.699
2266.25
2448.947
2599.468
2714.96
2796.431
2847.574
2873.353
2878.71
2867.661
2842.871
2805.733
2756.803
2696.418
2625.328
2545.161
2458.648
2369.559
2282.401
2201.934
2132.599
2077.968
2040.287
2020.181
2016.535
2026.666
2046.655
2070.008
2103.491
1480.227
1987.805
2020.677
1795.467
1498.947
1245.119
1079.341
1000.212
983.5515
1000.672
1028.671
1053.881
1070.914
1079.674
1082.068
1079.531
1071.954
1058.122
1037.282
1011.068
984.891
968.0785
972.539
1010.259
1090.369
1216.657
1386.249
1589.807
1813.152
2039.831
2253.972
2442.73
2597.849
2716.108
2798.727
2850.026
2875.778
2881.654
2872.11
2849.872
2816.018
2770.522
2713.05
2643.756
2563.892
2476.109
2384.399
2293.729
2209.448
2136.6
2079.256
2039.984
2019.507
2016.616
2028.333
2050.202
2077.12
2102.833
2124.351
2132.013
2651.835
1960.986
1452.692
1140.147
990.4659
950.7858
969.5353
1008.098
1043.869
1067.8
1079.619
1083.021
1082.015
1078.766
1072.955
1062.496
1045.301
1021.471
995.0733
974.7062
972.463
1001.446
1072.547
1191.456
1356.814
1560.006
1786.643
2019.264
2240.525
2436.077
2596.516
2718.066
2802.037
2853.36
2878.682
2884.531
2875.958
2855.877
2825.134
2783.15
2728.881
2661.812
2582.726
2494.108
2400.103
2306.097
2218.024
2141.548
2081.277
2040.14
2019.003
2016.581
2029.631
2053.375
2082.137
2109.9
2131.594
2141.055
2142.817
2105.838
928.2562
853.2238
868.0191
926.3517
991.3778
1042.527
1073.223
1085.866
1086.877
1082.917
1078.603
1075.545
1072.451
1066.117
1053.19
1032.372
1006.408
983.0501
974.3812
994.4729
1055.961
1166.58
1326.722
1528.758
1758.288
1996.916
2225.771
2428.839
2595.35
2720.774
2806.372
2857.64
2882.151
2887.414
2879.231
2860.851
2832.993
2794.563
2743.786
2679.399
2601.619
2512.657
2416.727
2319.588
2227.743
2147.495
2084.031
2040.692
2018.542
2016.264
2030.391
2055.8
2086.402
2115.899
2138.571
2149.743
2147.048
2126.927
2101.478
2024.623
1058.093
1081.311
1098.669
1105.514
1102.706
1094.022
1083.814
1075.607
1071.288
1070.657
1071.392
1069.611
1061.194
1043.762
1018.799
993.0387
978.3007
989.4234
1040.744
1142.167
1296.085
1496.126
1728.083
1972.718
2209.59
2420.871
2594.223
2724.151
2811.721
2862.925
2886.295
2890.43
2882.036
2864.859
2839.609
2804.735
2757.718
2696.482
2620.564
2531.789
2434.342
2334.288
2238.681
2154.48
2087.499
2041.558
2017.983
2015.484
2030.41
2057.313
2089.714
2120.944
2144.967
2157.046
2154.253
2135.52
2102.384
2055.016
2008.875
1917.109
1067.47
1069.267
1068.599
1066.817
1065.105
1064.39
1065.421
1068.37
1072.059
1073.589
1068.994
1055.07
1031.827
1004.548
984.3423
986.5353
1027.128
1118.376
1264.975
1462.111
1695.985
1946.597
2191.885
2412.061
2593.02
2728.111
2818.046
2869.241
2891.198
2893.696
2884.493
2867.988
2845.019
2813.655
2770.639
2713.018
2639.541
2551.523
2453.006
2350.284
2250.931
2162.579
2091.723
2042.736
2017.285
2014.173
2029.618
2057.87
2092.058
2125.126
2150.712
2163.881
2161.608
2142.985
2109.171
2062.975
2008.869
1949.92
1898.967
1822.633
1073.567
1073.984
1073.801
1073.178
1072.636
1073.074
1074.863
1076.571
1074.61
1064.676
1044.621
1017.447
992.8672
986.3394
1015.55
1095.423
1233.392
1426.585
1661.839
1918.431
2172.58
2402.358
2591.697
2732.606
2825.317
2876.595
2896.912
2897.303
2886.702
2870.316
2849.251
2821.292
2782.467
2728.898
2658.447
2571.781
2472.676
2367.565
2264.498
2171.797
2096.69
2044.19
2016.392
2012.273
2027.969
2057.455
2093.469
2128.536
2155.936
2170.484
2169.042
2150.722
2116.786
2070.289
2015.532
1957.42
1900.909
1849.862
1810.136
1768.932
1074.368
1073.684
1072.504
1071.618
1072.188
1074.328
1075.59
1071.164
1056.617
1031.944
1004.625
989.754
1006.74
1073.643
1201.276
1389.252
1625.309
1887.989
2151.59
2391.782
2590.304
2737.672
2833.54
2884.989
2903.469
2901.325
2888.77
2871.951
2852.38
2827.663
2793.161
2744.043
2677.185
2592.479
2493.298
2386.107
2279.38
2182.133
2102.389
2045.888
2015.257
2009.728
2025.42
2056.053
2093.966
2131.236
2160.734
2176.975
2176.662
2158.89
2125.018
2078.261
2023.104
1964.613
1907.759
1856.908
1815.127
1785.081
1765.012
1760.52
1074.031
1072.74
1072.01
1073.224
1075.929
1076.241
1068.181
1048.182
1020.16
997.7057
1001.609
1053.542
1168.594
1349.676
1585.846
1854.863
2128.761
2380.396
2589
2743.44
2842.768
2894.409
2910.839
2905.765
2890.749
2872.978
2854.487
2832.811
2802.707
2758.388
2695.67
2613.54
2514.826
2405.902
2295.603
2193.636
2108.873
2047.879
2013.914
2006.569
2022.001
2053.707
2093.613
2133.307
2165.198
2183.445
2184.542
2167.534
2133.856
2086.885
2031.292
1972.309
1915.025
1863.806
1821.858
1791.138
1771.859
1764.691
1763.051
1782.702
1072.85
1072.289
1074.26
1077.517
1076.29
1063.648
1038.397
1010.582
1001.269
1036.071
1135.61
1307.436
1542.699
1818.399
2103.795
2368.268
2588.058
2750.189
2853.152
2904.861
2918.949
2910.554
2892.63
2873.448
2855.643
2836.779
2811.089
2771.853
2713.78
2634.836
2537.155
2426.894
2313.16
2206.334
2116.193
2050.217
2012.42
2002.845
2017.766
2050.475
2092.475
2134.82
2169.399
2189.952
2192.717
2176.654
2143.262
2096.081
2039.98
1980.379
1922.499
1870.758
1828.367
1797.151
1777.547
1768.913
1769.339
1778.041
1787.616
1815.339
1072.536
1075.657
1079.697
1076.495
1058.578
1029.395
1007.862
1023.235
1103.262
1262.261
1494.876
1777.569
2076.111
2355.385
2587.848
2758.371
2864.996
2916.426
2927.715
2915.571
2894.352
2873.391
2855.941
2839.659
2818.343
2784.398
2731.409
2656.234
2560.172
2449.012
2332.033
2220.258
2124.405
2052.97
2010.836
1998.611
2012.755
2046.391
2090.581
2135.802
2173.355
2196.503
2201.178
2186.222
2153.188
2105.781
2049.09
1988.74
1930.106
1877.682
1834.686
1802.889
1782.67
1773.252
1773.005
1779.901
1791.509
1806.716
1820.099
1845.573
1077.52
1082.853
1077.519
1053.947
1023.665
1017.779
1073.031
1213.855
1440.916
1730.762
2044.716
2341.604
2588.844
2768.652
2878.794
2929.272
2937.039
2920.613
2895.763
2872.784
2855.462
2841.562
2824.534
2796.003
2748.464
2677.606
2583.762
2472.195
2352.228
2235.471
2133.611
2056.249
2009.263
1993.941
2007.018
2041.479
2087.936
2136.238
2177.039
2203.06
2209.875
2196.181
2163.572
2115.928
2058.572
1997.357
1937.83
1884.585
1840.858
1808.379
1787.467
1777.281
1776.174
1782.085
1792.867
1806.6
1821.6
1837.204
1850.507
1871.609
1086.912
1080.79
1051.568
1024.848
1048.191
1162.297
1378.752
1675.567
2008.139
2326.73
2591.754
2782.002
2895.268
2943.659
2946.789
2925.378
2896.609
2871.53
2854.26
2842.604
2829.742
2806.653
2764.834
2698.794
2607.779
2496.357
2373.74
2252.041
2143.922
2060.178
2007.807
1988.911
2000.591
2035.741
2084.511
2136.08
2180.389
2209.551
2218.732
2206.455
2174.345
2126.461
2068.376
2006.192
1945.652
1891.462
1846.892
1813.646
1791.987
1781.02
1779.074
1784.099
1794.013
1806.954
1821.442
1836.428
1851.236
1865.718
1878.411
1897.345
1090.812
1054.526
1037.229
1108.94
1304.662
1607.49
1963.841
2310.598
2597.837
2799.934
2915.421
2959.877
2956.725
2929.427
2896.538
2869.502
2852.412
2842.952
2834.096
2816.364
2780.421
2719.635
2632.071
2521.415
2396.578
2270.055
2155.468
2064.89
2006.576
1983.586
1993.495
2029.16
2080.266
2135.275
2183.348
2215.924
2227.708
2217.014
2185.488
2137.373
2078.507
2015.26
1953.588
1898.332
1852.807
1818.707
1796.247
1784.485
1781.728
1785.94
1795.083
1807.37
1821.398
1836.181
1851.108
1865.835
1880.2
1894.193
1906.588
1924.535
1071.177
1064.021
1211.811
1516.217
1906.284
2293.265
2609.941
2825.275
2940.737
2978.052
2966.217
2932.009
2895.064
2866.582
2850.072
2842.853
2837.775
2825.163
2795.107
2739.944
2656.473
2547.29
2420.769
2289.627
2168.406
2070.533
2005.675
1978.012
1985.723
2021.691
2075.138
2133.759
2185.864
2222.143
2236.786
2227.862
2197.024
2148.704
2089.016
2024.618
1961.7
1905.253
1858.66
1823.614
1800.298
1787.73
1784.196
1787.667
1796.143
1807.893
1821.573
1836.244
1851.313
1866.432
1881.391
1896.003
1910.062
1923.385
1934.664
1949.592
1095.588
1370.637
1818.836
2275.176
2635.534
2864.423
2973.749
2997.662
2973.563
2931.652
2891.499
2862.792
2847.635
2842.735
2841.025
2833.051
2808.703
2759.454
2680.764
2573.88
2446.347
2310.889
2182.905
2077.256
2005.192
1972.207
1977.234
2013.258
2069.04
2131.453
2187.875
2228.169
2245.946
2238.993
2208.958
2160.462
2099.914
2034.276
1969.993
1912.228
1864.45
1828.37
1804.15
1790.775
1786.51
1789.328
1797.25
1808.582
1822.019
1836.649
1851.885
1867.361
1882.822
1898.026
1912.694
1926.473
1938.967
1949.809
1958.116
1966.57
1557.092
2253.071
2700.66
2934.976
3018.978
3015.756
2974.195
2925.297
2884.912
2858.639
2846.097
2843.42
2844.219
2839.97
2820.887
2777.782
2704.653
2601.073
2473.377
2334.024
2199.181
2085.232
2005.218
1966.175
1967.97
2003.778
2061.894
2128.304
2189.359
2234.005
2255.204
2250.428
2221.305
2172.655
2111.197
2044.22
1978.445
1919.229
1870.147
1832.947
1807.779
1793.607
1788.67
1790.93
1798.416
1809.448
1822.734
1837.374
1852.775
1868.55
1884.406
1900.058
1915.172
1929.355
1942.171
1953.171
1961.978
1968.219
1972.046
1972.177
3039.075
3094.7
3071.429
3014.252
2954.544
2906.992
2874.845
2856.15
2847.749
2846.383
2847.825
2845.654
2831.057
2794.328
2727.75
2628.754
2501.984
2359.295
2217.515
2094.671
2005.849
1959.904
1957.848
1993.147
2053.617
2124.271
2190.318
2239.682
2264.607
2262.21
2234.098
2185.302
2122.872
2054.449
1987.054
1926.258
1875.762
1837.364
1811.22
1796.269
1790.726
1792.528
1799.689
1810.521
1823.73
1838.403
1853.938
1869.928
1886.055
1902.007
1917.421
1931.879
1944.924
1956.103
1965.018
1971.368
1975.044
1975.832
1975.029
1967.941
2930.736
2908.909
2890.34
2877.67
2869.264
2862.687
2857.181
2853.551
2851.938
2849.255
2838.123
2808.191
2749.541
2656.82
2532.377
2387.068
2238.277
2105.833
2007.184
1953.351
1946.743
1981.222
2044.101
2119.302
2190.752
2245.231
2274.189
2274.359
2247.332
2198.375
2134.899
2064.922
1995.788
1933.3
1881.299
1841.649
1814.515
1798.818
1792.738
1794.177
1801.115
1811.833
1825.011
1839.719
1855.335
1871.441
1887.711
1903.822
1919.409
1934.047
1947.274
1958.631
1967.717
1974.232
1978.028
1979.106
1977.714
1973.855
1969.549
1958.449
2923.045
2914.227
2903.777
2890.822
2876.308
2863.154
2854.161
2848.716
2840.545
2818.367
2769.548
2685.257
2564.882
2417.834
2261.94
2119.037
2009.337
1946.45
1934.485
1967.821
2033.215
2113.346
2190.678
2250.706
2284.004
2286.905
2261.003
2211.841
2147.229
2075.591
2004.613
1940.341
1886.767
1845.827
1817.701
1801.292
1794.739
1795.896
1802.69
1813.354
1826.528
1841.251
1856.886
1873.009
1889.302
1905.456
1921.118
1935.876
1949.272
1960.846
1970.182
1976.968
1981.032
1982.372
1981.16
1977.714
1972.559
1965.9
1959.808
1948.31
2908.511
2894.276
2877.865
2861.619
2849.332
2842.876
2838.352
2824.897
2787.706
2714.13
2599.836
2452.135
2289.063
2134.678
2012.45
1939.109
1920.849
1952.704
2020.792
2106.341
2190.125
2256.184
2294.132
2299.897
2275.12
2225.677
2159.825
2086.427
2013.52
1947.401
1892.213
1849.961
1820.847
1803.751
1796.77
1797.7
1804.401
1815.046
1828.22
1842.926
1858.514
1874.565
1890.782
1906.887
1922.558
1937.407
1950.987
1962.829
1972.502
1979.662
1984.102
1985.789
1984.866
1981.648
1976.59
1970.229
1963.207
1955.85
1949.718
1940.575
2886.274
2868.82
2852.565
2841.829
2836.851
2829.397
2803.645
2742.669
2636.955
2490.302
2320.277
2153.3
2016.751
1931.229
1905.536
1935.539
2006.595
2098.195
2189.124
2261.757
2304.665
2313.387
2289.685
2239.846
2172.637
2097.387
2022.496
1954.499
1897.68
1854.112
1824.012
1806.244
1798.86
1799.591
1806.227
1816.865
1830.032
1844.691
1860.177
1876.087
1892.157
1908.152
1923.795
1938.727
1952.514
1964.68
1974.763
1982.376
1987.269
1989.36
1988.761
1985.765
1980.823
1974.492
1967.384
1960.09
1953.177
1946.956
1942.201
1936.748
2858.511
2841.655
2831.964
2827.078
2812.652
2767.457
2674.782
2532.578
2356.658
2175.942
2022.758
1922.757
1888.145
1915.863
1990.301
2088.794
2187.732
2267.566
2315.741
2327.458
2304.71
2254.31
2185.608
2108.426
2031.518
1961.642
1903.199
1858.32
1827.234
1808.791
1801.003
1801.54
1808.115
1818.75
1831.902
1846.492
1861.844
1877.572
1893.452
1909.305
1924.902
1939.922
1953.942
1966.473
1977.016
1985.137
1990.525
1993.049
1992.781
1989.993
1985.135
1978.778
1971.559
1964.113
1957.012
1950.71
1945.525
1941.59
1938.963
1936.986
2828.495
2819.591
2813.287
2786.596
2713.015
2580.515
2400.598
2204.603
2031.397
1913.583
1867.996
1892.936
1971.431
2077.999
2186.066
2273.835
2327.563
2342.226
2320.221
2269.034
2198.679
2119.497
2040.572
1968.846
1908.809
1862.628
1830.548
1811.408
1803.193
1803.518
1810.024
1820.65
1833.785
1848.301
1863.507
1879.037
1894.711
1910.407
1925.953
1941.063
1955.329
1968.246
1979.277
1987.928
1993.83
1996.795
1996.853
1994.257
1989.454
1983.037
1975.674
1968.038
1960.737
1954.261
1948.943
1944.943
1942.25
1940.729
1940.051
1940.03
2802.371
2793.139
2747.344
2634.333
2454.883
2241.956
2043.767
1903.222
1843.814
1865.542
1949.294
2065.696
2184.377
2280.921
2340.413
2357.824
2336.216
2283.939
2211.76
2130.534
2049.633
1976.122
1914.538
1867.071
1833.977
1814.103
1805.419
1805.5
1811.918
1822.533
1835.657
1850.109
1865.178
1880.514
1895.981
1911.515
1927.002
1942.197
1956.705
1970.008
1981.528
1990.714
1997.132
2000.538
2000.919
1998.507
1993.75
1987.259
1979.738
1971.899
1964.39
1957.734
1952.284
1948.211
1945.507
1944.006
1943.437
1943.43
1943.717
1943.552
2763.171
2691.508
2525.27
2294.286
2062.65
1891.052
1813.464
1831.757
1922.975
2051.928
2183.219
2289.433
2354.687
2374.381
2352.633
2298.884
2224.718
2141.46
2058.679
1983.487
1920.422
1871.677
1837.536
1816.874
1807.666
1807.462
1813.773
1824.378
1837.506
1851.917
1866.871
1882.028
1897.294
1912.663
1928.077
1943.338
1958.068
1971.738
1983.732
1993.444
2000.378
2004.229
2004.942
2002.723
1998.02
1991.463
1983.788
1975.748
1968.031
1961.193
1955.61
1951.462
1948.74
1947.269
1946.758
1946.838
1947.155
1947.246
1947.259
1945.27
2624.721
2379.881
2095.792
1875.372
1771.953
1787.684
1891.012
2037.096
2183.734
2300.389
2370.915
2391.961
2369.271
2313.613
2237.37
2152.199
2067.722
1990.997
1926.519
1876.491
1841.247
1819.722
1809.926
1809.394
1815.582
1826.183
1839.339
1853.739
1868.606
1883.604
1898.674
1913.868
1929.188
1944.483
1959.401
1973.407
1985.853
1996.08
2003.53
2007.839
2008.904
2006.905
2002.282
1995.682
1987.869
1979.635
1971.71
1964.684
1958.957
1954.722
1951.97
1950.517
1950.056
1950.206
1950.574
1950.786
1950.594
1949.604
1948.488
1944.138
2207.948
1853.515
1704.173
1723.991
1851.407
2023.163
2188.641
2315.624
2389.735
2410.375
2385.624
2327.667
2249.459
2162.697
2076.829
1998.755
1932.912
1881.552
1845.115
1822.635
1812.181
1811.284
1817.343
1827.957
1841.171
1855.593
1870.403
1885.258
1900.135
1915.138
1930.334
1945.626
1960.691
1974.996
1987.869
1998.601
2006.574
2011.361
2012.81
2011.067
2006.559
1999.943
1992.011
1983.591
1975.453
1968.224
1962.333
1957.989
1955.186
1953.734
1953.312
1953.522
1953.953
1954.229
1954.054
1953.21
1951.659
1949.161
1946.774
1940.688
1482.656
1610.944
1807.856
2020.269
2205.277
2338.246
2411.333
2428.554
2400.52
2340.29
2260.712
2173.008
2086.192
2006.946
1939.713
1886.895
1849.119
1825.571
1814.394
1813.111
1819.049
1829.705
1843.011
1857.487
1872.264
1886.99
1901.67
1916.466
1931.508
1946.757
1961.928
1976.5
1989.777
2001.009
2009.515
2014.808
2016.676
2015.227
2010.872
2004.268
1996.231
1987.627
1979.265
1971.813
1965.731
1961.249
1958.37
1956.9
1956.505
1956.773
1957.274
1957.618
1957.495
1956.699
1955.138
1952.808
1949.86
1946.199
1942.987
1936.365
1860.722
2070.379
2245.328
2367.21
2431.198
2442.508
2411.611
2350.612
2271.169
2183.546
2096.242
2015.858
1947.045
1892.52
1853.202
1828.464
1816.517
1814.854
1820.704
1831.438
1844.872
1859.431
1874.193
1888.795
1903.272
1917.84
1932.698
1947.868
1963.111
1977.919
1991.584
2003.313
2012.367
2018.192
2020.517
2019.401
2015.231
2008.664
2000.535
1991.744
1983.144
1975.443
1969.141
1964.492
1961.511
1960.005
1959.629
1959.955
1960.534
1960.96
1960.909
1960.168
1958.644
1956.347
1953.38
1949.891
1946.115
1942.031
1938.647
1932.533
2233.807
2362.674
2431.154
2445.773
2417.957
2359.762
2282.324
2195.473
2107.65
2025.751
1954.908
1898.314
1857.234
1831.219
1818.505
1816.506
1822.322
1833.182
1846.775
1861.437
1876.191
1890.669
1904.932
1919.253
1933.899
1948.959
1964.241
1979.261
1993.3
2005.526
2015.142
2021.524
2024.337
2023.589
2019.636
2013.128
2004.917
1995.936
1987.082
1979.111
1972.561
1967.718
1964.611
1963.052
1962.689
1963.074
1963.742
1964.264
1964.303
1963.635
1962.161
1959.896
1956.945
1953.476
1949.683
1945.752
1941.883
1938.047
1934.978
1929.83
2458.632
2464.562
2433.362
2374.426
2297.007
2209.673
2120.408
2036.289
1962.923
1903.98
1861.035
1833.758
1820.347
1818.09
1823.934
1834.96
1848.735
1863.51
1878.26
1892.61
1906.647
1920.702
1935.11
1950.029
1965.322
1980.53
1994.928
2007.651
2017.84
2024.803
2028.134
2027.785
2024.077
2017.649
2009.367
2000.196
1991.078
1982.817
1975.995
1970.933
1967.681
1966.056
1965.698
1966.145
1966.91
1967.542
1967.686
1967.105
1965.694
1963.466
1960.533
1957.068
1953.274
1949.352
1945.474
1941.761
1938.311
1935.044
1932.444
1928.147
2442.727
2382.112
2307.311
2221.865
2132.424
2046.516
1970.687
1909.385
1864.611
1836.147
1822.121
1819.671
1825.579
1836.789
1850.755
1865.647
1880.397
1894.617
1908.421
1922.191
1936.336
1951.084
1966.358
1981.73
1996.474
2009.69
2020.462
2028.024
2031.899
2031.977
2028.541
2022.215
2013.874
2004.516
1995.128
1986.562
1979.45
1974.148
1970.732
1969.027
1968.668
1969.178
1970.047
1970.801
1971.063
1970.582
1969.242
1967.056
1964.139
1960.672
1956.867
1952.934
1949.049
1945.345
1941.896
1938.726
1935.828
1933.084
1930.836
1927.037
2317.527
2238.168
2148.589
2059.378
1979.634
1915.115
1868.179
1838.484
1823.885
1821.277
1827.261
1838.652
1852.809
1867.83
1882.594
1896.695
1910.264
1923.734
1937.587
1952.132
1967.354
1982.863
1997.938
2011.644
2023.006
2031.186
2035.629
2036.162
2033.024
2026.821
2018.435
2008.896
1999.233
1990.352
1982.932
1977.372
1973.774
1971.975
1971.608
1972.179
1973.157
1974.042
1974.435
1974.064
1972.805
1970.665
1967.762
1964.287
1960.46
1956.503
1952.599
1948.886
1945.44
1942.284
1939.397
1936.73
1934.228
1931.787
1929.699
1926.201
2176.675
2075.055
1987.69
1919.157
1870.471
1840.18
1825.46
1822.893
1828.989
1840.539
1854.874
1870.035
1884.841
1898.848
1912.189
1925.345
1938.875
1953.175
1968.307
1983.925
1999.314
2013.508
2025.472
2034.289
2039.325
2040.341
2037.526
2031.467
2023.052
2013.337
2003.397
1994.19
1986.448
1980.612
1976.814
1974.906
1974.52
1975.15
1976.239
1977.265
1977.798
1977.55
1976.379
1974.29
1971.402
1967.913
1964.056
1960.062
1956.127
1952.393
1948.941
1945.792
1942.921
1940.274
1937.785
1935.399
1933.08
1930.795
1928.801
1925.772
1984.842
1917.908
1871.004
1841.934
1827.69
1825.113
1831.054
1842.53
1856.928
1872.22
1887.113
1901.074
1914.21
1927.04
1940.209
1954.216
1969.211
1984.904
2000.591
2015.274
2027.853
2037.331
2042.989
2044.515
2042.05
2036.156
2027.726
2017.842
2007.624
1998.082
1990.003
1983.872
1979.856
1977.824
1977.409
1978.092
1979.295
1980.467
1981.151
1981.036
1979.964
1977.932
1975.061
1971.555
1967.66
1963.618
1959.639
1955.874
1952.406
1949.258
1946.402
1943.776
1941.308
1938.936
1936.62
1934.355
1932.167
1930.117
1928.371
1926.295
1873.101
1846.924
1832.256
1828.402
1833.302
1844.291
1858.682
1874.211
1889.343
1903.375
1916.358
1928.854
1941.614
1955.263
1970.062
1985.789
2001.754
2016.928
2030.141
2040.305
2046.616
2048.684
2046.595
2040.888
2032.456
2022.409
2011.912
2002.029
1993.598
1987.156
1982.905
1980.733
1980.278
1981.009
1982.326
1983.649
1984.494
1984.522
1983.559
1981.592
1978.74
1975.216
1971.277
1967.179
1963.146
1959.337
1955.845
1952.692
1949.847
1947.242
1944.799
1942.447
1940.14
1937.869
1935.662
1933.588
1931.724
1930.212
1929.035
1928.452
1837.8
1830.63
1834.005
1844.823
1859.729
1875.946
1891.611
1905.863
1918.728
1930.849
1943.121
1956.327
1970.858
1986.57
2002.793
2018.46
2032.326
2043.208
2050.205
2052.846
2051.161
2045.661
2037.24
2027.037
2016.26
2006.026
1997.233
1990.465
1985.962
1983.636
1983.13
1983.902
1985.332
1986.811
1987.824
1988.006
1987.163
1985.268
1982.442
1978.9
1974.913
1970.752
1966.655
1962.793
1959.267
1956.102
1953.264
1950.68
1948.264
1945.935
1943.643
1941.37
1939.146
1937.035
1935.132
1933.549
1932.376
1931.777
1931.498
1932.677
1828.56
1843.391
1860.528
1878.023
1894.337
1908.751
1921.393
1933.031
1944.714
1957.388
1971.583
1987.238
2003.701
2019.866
2034.406
2046.038
2053.756
2057.003
2055.749
2050.475
2042.08
2031.725
2020.665
2010.074
2000.906
1993.797
1989.027
1986.533
1985.964
1986.772
1988.313
1989.951
1991.141
1991.487
1990.773
1988.961
1986.165
1982.608
1978.572
1974.343
1970.174
1966.251
1962.682
1959.497
1956.661
1954.097
1951.708
1949.406
1947.131
1944.862
1942.622
1940.478
1938.527
1936.883
1935.66
1934.959
1934.824
1935.374
1936.146
1938.874
1864.614
1881.658
1897.672
1911.84
1924.122
1935.235
1946.302
1958.41
1972.229
1987.793
2004.48
2021.146
2036.382
2048.794
2057.269
2061.156
2060.363
2055.338
2046.978
2036.476
2025.13
2014.173
2004.618
1997.153
1992.102
1989.425
1988.783
1989.618
1991.269
1993.069
1994.442
1994.961
1994.387
1992.666
1989.908
1986.339
1982.253
1977.952
1973.705
1969.713
1966.095
1962.884
1960.046
1957.498
1955.137
1952.864
1950.61
1948.348
1946.096
1943.92
1941.92
1940.214
1938.924
1938.153
1937.974
1938.419
1939.451
1941.087
1942.772
1946.335
1898.117
1913.462
1926.306
1937.349
1947.942
1959.469
1972.847
1988.261
2005.136
2022.297
2038.244
2051.468
2060.738
2065.304
2065.004
2060.251
2051.943
2041.297
2029.663
2018.33
2008.373
2000.537
1995.188
1992.315
1991.587
1992.443
1994.2
1996.164
1997.725
1998.426
1998.001
1996.381
1993.668
1990.092
1985.957
1981.581
1977.251
1973.183
1969.507
1966.265
1963.42
1960.887
1958.554
1956.312
1954.083
1951.831
1949.571
1947.366
1945.317
1943.547
1942.185
1941.34
1941.094
1941.482
1942.49
1944.052
1946.047
1948.37
1950.546
1953.917
1929.865
1940.584
1950.265
1960.806
1973.475
1988.602
2005.621
2023.282
2039.969
2054.044
2064.152
2069.439
2069.668
2065.215
2056.975
2046.193
2034.267
2022.548
2012.175
2003.951
1998.288
1995.204
1994.379
1995.249
1997.11
1999.239
2000.993
2001.884
2001.618
2000.107
1997.446
1993.867
1989.684
1985.231
1980.812
1976.661
1972.92
1969.639
1966.784
1964.264
1961.958
1959.751
1957.551
1955.314
1953.049
1950.817
1948.72
1946.886
1945.449
1944.526
1944.206
1944.532
1945.494
1947.031
1949.031
1951.34
1953.786
1956.16
1958.234
1960.373
1953.01
1961.809
1973.606
1988.515
2005.798
2024.059
2041.557
2056.532
2067.516
2073.558
2074.349
2070.224
2062.072
2051.163
2038.944
2026.83
2016.026
2007.396
2001.401
1998.091
1997.16
1998.036
1999.998
2002.294
2004.248
2005.336
2005.238
2003.845
2001.244
1997.667
1993.437
1988.904
1984.392
1980.15
1976.337
1973.01
1970.139
1967.628
1965.351
1963.179
1961.012
1958.795
1956.53
1954.275
1952.133
1950.234
1948.719
1947.714
1947.315
1947.573
1948.483
1949.988
1951.979
1954.304
1956.785
1959.221
1961.443
1963.18
1964.564
1964.708
1972.092
1987.866
2005.816
2024.794
2043.115
2058.982
2070.843
2077.656
2079.035
2075.267
2067.225
2056.202
2043.693
2031.175
2019.925
2010.871
2004.526
2000.974
1999.924
2000.8
2002.862
2005.329
2007.487
2008.781
2008.86
2007.596
2005.062
2001.491
1997.217
1992.604
1987.993
1983.655
1979.762
1976.383
1973.489
1970.984
1968.734
1966.599
1964.468
1962.275
1960.015
1957.74
1955.554
1953.591
1951.996
1950.906
1950.424
1950.607
1951.46
1952.929
1954.906
1957.241
1959.754
1962.247
1964.528
1966.403
1967.758
1968.311
1968.576
1966.411
2006.211
2025.646
2044.599
2061.291
2074.045
2081.679
2083.699
2080.332
2072.434
2061.315
2048.517
2035.589
2023.875
2014.377
2007.662
2003.851
2002.669
2003.539
2005.699
2008.339
2010.71
2012.218
2012.484
2011.356
2008.897
2005.339
2001.022
1996.328
1991.617
1987.177
1983.198
1979.759
1976.838
1974.335
1972.111
1970.015
1967.923
1965.758
1963.506
1961.215
1958.987
1956.959
1955.284
1954.105
1953.534
1953.638
1954.427
1955.853
1957.812
1960.154
1962.697
1965.243
1967.59
1969.555
1970.981
1971.732
1971.778
1970.871
1969.843
1965.521
2044.86
2062.91
2076.903
2085.568
2088.349
2085.443
2077.716
2066.511
2053.425
2040.075
2027.882
2017.919
2010.811
2006.721
2005.394
2006.248
2008.506
2011.322
2013.912
2015.645
2016.107
2015.125
2012.749
2009.208
2004.852
2000.077
1995.262
1990.716
1986.645
1983.141
1980.187
1977.684
1975.484