/*--------------------------------*- C++ -*----------------------------------*\
| =========                 |                                                 |
| \\      /  F ield         | OpenFOAM: The Open Source CFD Toolbox           |
|  \\    /   O peration     | Version:  2312                                  |
|   \\  /    A nd           | Website:  www.openfoam.com                      |
|    \\/     M anipulation  |                                                 |
\*---------------------------------------------------------------------------*/
FoamFile
{
    version     2.0;
    format      ascii;
    arch        "LSB;label=32;scalar=64";
    class       volScalarField;
    location    "4050";
    object      ILambda_1_0;
}
// * * * * * * * * * * * * * * * * * * * * * * * * * * * * * * * * * * * * * //

dimensions      [1 0 -3 0 0 0 0];

internalField   nonuniform List<scalar> 
12000
(
2344.601
1421.876
944.1649
746.6369
691.5498
693.1634
708.343
720.5121
726.2937
727.1648
725.4448
723.0422
721.404
721.5513
723.8274
727.6381
731.5939
734.113
734.146
731.5854
727.1642
721.9826
716.9914
712.6996
709.1764
706.2397
703.6698
701.3382
699.227
697.3785
695.8285
694.5575
693.4686
692.4044
691.2022
689.7229
687.8914
685.7281
683.3522
680.9577
678.7409
676.7802
675.1173
673.8569
673.1597
673.038
673.2968
673.7249
674.2626
674.887
675.3951
675.3607
674.6315
673.2953
671.3031
668.4157
664.253
658.3222
650.962
631.5269
3139.767
2737.459
2106.054
1513.763
1084.951
832.1421
714.1971
678.5498
682.3573
698.4332
713.2029
722.0933
725.3353
725.134
724.0081
723.83
725.3367
728.105
730.966
732.6551
732.379
730.0599
726.214
721.6185
716.9778
712.7359
709.0594
705.928
703.2477
700.9292
698.917
697.183
695.7015
694.4217
693.2565
692.0902
690.7956
689.2628
687.434
685.3301
683.0613
680.7817
678.6204
676.6744
675.0554
673.8963
673.2635
673.0935
673.2532
673.6414
674.1934
674.7542
675.0514
674.8757
674.1449
672.7866
670.7331
667.2943
664.5149
651.5784
3175.831
3191.278
2967.787
2531.001
2003.769
1510.375
1126.784
874.547
737.2458
681.5418
673.2385
685.7685
702.4834
715.3742
722.4386
724.9846
725.4312
725.8207
727.1017
729.1092
731.0093
731.887
731.1878
728.8729
725.3175
721.0829
716.7026
712.5586
708.855
705.6542
702.9331
700.6311
698.6816
697.0223
695.5903
694.3145
693.1087
691.8705
690.4941
688.8932
687.034
684.9584
682.762
680.5537
678.4414
676.5525
675.0274
673.9621
673.3609
673.161
673.2956
673.7009
674.2374
674.6917
674.8722
674.622
673.9576
672.2517
671.3143
664.2939
3122.924
3189.184
3217.533
3107.883
2823.932
2405.664
1935.448
1496.052
1143.312
898.3868
754.1105
687.2053
669.9276
677.9803
694.2082
709.0227
718.887
724.0406
726.3131
727.5383
728.7543
730.0999
731.1397
731.3073
730.2369
727.8932
724.526
720.538
716.3487
712.3013
708.6219
705.4195
702.7099
700.4488
698.5609
696.9604
695.5613
694.2773
693.0192
691.6942
690.2172
688.534
686.6407
684.5807
682.4268
680.2728
678.2385
676.4585
675.044
674.0481
673.4698
673.2852
673.4436
673.8359
674.3058
674.6539
674.8261
674.35
674.2085
671.0194
3083.144
3113.28
3172.656
3219.529
3185.141
3018.699
2715.301
2314.857
1881.31
1477.665
1148.253
912.2061
766.3469
693.1172
669.3532
673.1852
687.9989
703.611
715.4582
722.7911
726.738
728.8098
730.0739
730.9364
731.3093
730.9112
729.5207
727.1049
723.8286
719.9906
715.9362
711.9799
708.3554
705.195
702.5348
700.3371
698.5189
696.9779
695.6098
694.3149
692.9998
691.5818
690.0009
688.2318
686.2869
684.2094
682.0704
679.9695
678.026
676.3531
675.0311
674.1015
673.5762
673.4319
673.6027
673.9518
674.3882
674.5934
674.8903
673.879
3055.325
3065.071
3092.713
3145.273
3201.36
3214.268
3134.807
2936.014
2625.252
2240.132
1833.622
1456.895
1146.658
919.8603
775.142
698.4747
670.0644
670.2778
683.4234
699.2138
712.4103
721.4475
726.8045
729.6598
731.0646
731.6219
731.5111
730.6721
729.0001
726.4767
723.2184
719.4585
715.492
711.61
708.0457
704.9424
702.3468
700.2245
698.4863
697.0161
695.6925
694.4016
693.0455
691.5518
689.8802
688.0246
686.0098
683.8896
681.746
679.6828
677.808
676.2137
674.9671
674.107
673.6429
673.53
673.7108
674.0077
674.4169
674.506
3045.031
3043.746
3050.925
3074.642
3120.504
3178.284
3217.696
3197.828
3084.204
2863.529
2549.186
2176.393
1790.715
1435.296
1141.264
923.4532
781.2586
702.9503
671.2823
668.5627
680.0995
695.7385
709.8126
720.1272
726.6195
730.1658
731.7699
732.163
731.718
730.5428
728.63
725.9857
722.703
718.9737
715.0569
711.224
707.7041
704.6465
702.1063
700.0532
698.3944
697.0022
695.739
694.477
693.1132
691.5796
689.8459
687.9178
685.8344
683.6648
681.5023
679.4507
677.6092
676.0611
674.869
674.0617
673.6413
673.5453
673.6916
674.0445
3079.315
3038.365
3011.311
3004.142
3021.401
3064.906
3127.378
3187.639
3213.04
3169.194
3032.229
2797.718
2482.686
2120.574
1751.849
1413.964
1133.832
924.4127
785.3621
706.5314
672.6383
667.6206
677.7281
693.0465
707.6551
718.896
726.2769
730.4133
732.2422
732.569
731.9024
730.4778
728.3695
725.613
722.2918
718.5698
714.6776
710.8682
707.3657
704.3244
701.8092
699.7974
698.1971
696.8733
695.6762
694.466
693.1316
691.6016
689.8473
687.8813
685.7545
683.5482
681.3624
679.3021
677.4655
675.9332
674.7641
673.976
673.5536
673.4319
3241.351
3291.676
3245.137
3161.566
3085.086
3041.036
3039.468
3076.681
3135.27
3186.236
3195.215
3131.729
2978.207
2735.346
2422.007
2070.012
1716.014
1393.218
1125.291
923.633
787.9788
709.3404
673.9829
667.1979
676.078
690.9932
705.8911
717.7846
725.8478
730.4762
732.5306
732.8537
732.0478
730.446
728.1917
725.3499
722.0004
718.2848
714.4077
710.6032
707.0892
704.0254
701.4889
699.4699
697.8838
696.5961
695.4511
694.3
693.0213
691.5349
689.8074
687.8525
685.7254
683.512
681.3159
679.2441
677.3984
675.846
674.7135
673.5661
1447.809
2304.765
2851.848
3127.826
3212.589
3191.154
3133.847
3088.396
3078.371
3104.721
3149.701
3183.463
3172.871
3090.856
2923.905
2675.576
2365.274
2023.053
1682.366
1373.011
1116.055
921.6262
789.473
711.5114
675.2551
667.1268
674.9635
689.4357
704.4457
716.7786
725.3531
730.381
732.6454
733.0023
732.1197
730.4067
728.0639
725.1827
721.8397
718.1546
714.3043
710.5016
706.9556
703.8309
701.2195
699.1295
697.4923
696.1835
695.0502
693.9391
692.7199
691.3018
689.6424
687.7487
685.6715
683.4929
681.319
679.2286
677.4959
675.1765
816.4645
1044.595
1581.18
2175.297
2660.855
2973.764
3124.299
3161.428
3143.358
3118.068
3113.238
3133.731
3164.886
3179.871
3149.123
3049.485
2870.798
2618.466
2311.764
1978.876
1650.404
1353.257
1106.339
918.7096
790.1088
713.1765
676.4534
667.3177
674.2655
688.2723
703.2551
715.8487
724.779
730.1074
732.5445
732.9478
732.0325
730.2681
727.9026
725.0481
721.7743
718.175
714.3946
710.6191
707.0438
703.8358
701.1025
698.8751
697.1098
695.7026
694.5135
693.3931
692.2072
690.8559
689.2854
687.4881
685.5091
683.3769
681.4386
678.3554
2589.555
1848.843
1486.078
1516.164
1817.699
2227.521
2611.204
2893.497
3057.24
3125.362
3138.343
3134.923
3139.584
3157.608
3176.831
3174.175
3124.421
3008.554
2819.5
2564.074
2261.151
1937.067
1619.854
1333.909
1096.28
915.1044
790.0922
714.4695
677.6309
667.7691
673.9663
687.4979
702.3377
715.0285
724.155
729.66
732.1941
732.6142
731.6744
729.8957
727.5658
724.8115
721.6899
718.2617
714.6308
710.9469
707.3835
704.1036
701.228
698.8139
696.849
695.26
693.9307
692.7262
691.5177
690.1978
688.7129
686.9798
685.3193
682.2173
1523.943
1924.661
1880.592
1700.13
1612.578
1707.297
1959.432
2287.099
2604.309
2853.187
3013.704
3097.095
3131.291
3145.552
3159.034
3175.51
3184.274
3165.647
3098.643
2968.217
2770.111
2512.306
2213.184
1897.351
1590.532
1314.917
1085.94
910.9275
789.5358
715.4661
678.8263
668.5057
674.1056
687.1871
701.8056
714.4538
723.6161
729.1476
731.6564
732.0065
730.9924
729.1856
726.9116
724.3088
721.4167
718.2557
714.8784
711.3863
707.9183
704.6231
701.6282
699.0151
696.8065
694.9667
693.4149
692.0375
690.7396
689.3332
688.1035
685.4274
1069.217
1357.221
1634.862
1749.276
1722.88
1665.748
1680.715
1813.275
2047.999
2332.49
2607.797
2831.132
2985.451
3077.053
3125.787
3153.262
3173.437
3188.033
3187.193
3154.143
3071.708
2928.429
2722.54
2462.988
2167.638
1859.512
1562.287
1296.213
1075.308
906.1828
788.4229
716.1162
679.969
669.4664
674.6642
687.3854
701.774
714.2971
723.3678
728.7787
731.1146
731.2599
730.0599
728.1441
725.8819
723.427
720.8013
717.9803
714.9563
711.7697
708.5099
705.2971
702.2538
699.4776
697.025
694.8949
693.0755
691.3725
690.1647
687.5427
1030.965
1059.087
1221.601
1433.658
1592.462
1657.385
1659.463
1665.18
1732.786
1885.865
2110.21
2367.42
2614.281
2818.667
2967.101
3063.591
3122.503
3159.487
3184.047
3195.965
3185.988
3139.833
3043.665
2889.157
2676.683
2415.967
2124.354
1823.431
1535.057
1277.781
1064.383
900.8411
786.6671
716.2712
680.8686
670.456
675.4836
688.0047
702.2437
714.649
723.5758
728.7691
730.8046
730.6009
729.0677
726.9067
724.5452
722.1642
719.7757
717.3131
714.7045
711.9192
708.9833
705.9715
702.986
700.1213
697.4894
694.986
693.2114
689.7955
1062.979
1027.977
1038.192
1132.352
1287.228
1443.442
1552.62
1605.989
1632.597
1677.376
1776.241
1940.881
2157.345
2395.33
2621.701
2811.899
2955.475
3055.138
3121.25
3164.783
3191.628
3199.971
3181.127
3122.991
3014.624
2850.388
2632.45
2371.132
2083.252
1789.095
1508.903
1259.73
1053.274
894.9603
784.2389
715.8023
681.3114
671.2111
676.2955
688.8151
703.0573
715.4442
724.2708
729.236
730.9098
730.252
728.2481
725.6874
723.0732
720.6325
718.3844
716.2307
714.0398
711.7063
709.1829
706.4782
703.6838
700.7455
698.3827
693.9678
1075.301
1059.526
1031.749
1026.503
1076.027
1182.04
1315.166
1436.664
1522.876
1576.854
1623.595
1694.988
1813.967
1985.201
2194.993
2418.442
2629.423
2808.874
2948.643
3050.475
3121.604
3169.308
3196.622
3200.55
3173.017
3103.866
2984.668
2812.067
2589.708
2328.345
2044.255
1756.526
1483.954
1242.266
1042.211
888.7359
781.2499
714.7088
681.1818
671.521
676.8296
689.5297
703.9526
716.4789
725.3309
730.1488
731.4883
730.3464
727.7868
724.6975
721.6752
719.014
716.7619
714.8082
712.9737
711.0795
709.0172
706.6336
704.414
700.0852
1075.5
1074.833
1061.729
1038.025
1023.578
1043.572
1109.86
1212.46
1326.269
1426.487
1502.235
1561.21
1624.397
1714.982
1847.561
2022.388
2226.219
2438.172
2637.287
2808.538
2945.388
3048.69
3123.136
3173.066
3199.315
3198.09
3162.005
3082.667
2953.831
2774.073
2548.245
2287.38
2007.201
1725.681
1460.299
1225.594
1031.467
882.4517
777.9381
713.1407
680.5188
671.3119
676.9157
689.911
704.6611
717.4919
726.5349
731.3524
732.4656
730.893
727.769
724.0812
720.5311
717.4986
715.0831
713.1819
711.5932
710.0441
708.5528
705.6745
1073.842
1075.612
1074.996
1065.203
1045.471
1026.919
1028.142
1063.875
1135.65
1230.803
1329.819
1417.058
1488.731
1554.256
1631.048
1736.008
1878.001
2054.464
2252.846
2455.474
2645.313
2810.287
2944.899
3049.11
3125.489
3176.04
3199.945
3192.95
3148.427
3059.603
2922.144
2736.268
2507.801
2247.939
1971.832
1696.402
1437.916
1209.822
1021.255
876.3814
774.5856
711.3411
679.4902
670.6549
676.5232
689.8366
704.9907
718.2504
727.6429
732.6308
733.676
731.7944
728.1725
723.8884
719.75
716.2314
713.5101
711.4889
710.0663
708.2673
1072.293
1072.936
1074.745
1074.943
1068.379
1052.82
1033.814
1024.184
1037.889
1082.398
1154.478
1241.923
1330.094
1409.549
1480.678
1553.23
1641.424
1757.366
1905.872
2082.652
2276.043
2471.022
2653.564
2813.724
2946.586
3051.206
3128.368
3178.225
3198.748
3185.492
3132.646
3034.93
2889.694
2698.56
2468.147
2209.717
1937.842
1668.447
1416.664
1194.933
1011.675
870.7121
771.4324
709.5618
678.3214
669.7176
675.7411
689.3082
704.8596
718.6046
728.4606
733.774
734.9231
732.8923
728.8963
724.0768
719.3665
715.2359
712.3408
708.9494
1074.029
1072.462
1072.347
1073.752
1074.563
1070.71
1059.25
1042.116
1027.354
1026.45
1049.044
1098.069
1168.227
1248.776
1329.132
1404.227
1476.919
1556.488
1654.266
1778.634
1931.546
2107.76
2296.618
2485.298
2662.088
2818.534
2949.959
3054.526
3131.512
3179.61
3195.937
3176.066
3115.033
3008.941
2856.634
2660.941
2429.133
2172.468
1904.945
1641.546
1396.338
1180.81
1002.707
865.5178
768.627
707.9995
677.2257
668.6989
674.726
688.4198
704.2886
718.5022
728.8734
734.6238
736.0313
734.0072
729.8219
724.4223
719.8152
712.4229
1079.835
1075.919
1073.162
1072.076
1072.738
1073.68
1071.773
1063.945
1049.886
1033.919
1024.484
1031.03
1059.8
1110.862
1178.214
1252.966
1327.909
1401.077
1476.646
1562.945
1668.742
1799.533
1955.299
2130.386
2315.175
2498.667
2670.903
2824.438
2954.59
3058.663
3134.666
3180.157
3191.677
3164.971
3095.933
2981.937
2823.159
2623.476
2390.695
2136.03
1872.922
1615.463
1376.721
1167.284
994.249
860.7736
766.219
706.7669
676.3606
667.7768
673.6501
687.3134
703.3702
717.974
728.8518
735.082
736.9074
734.8145
731.4838
721.9453
1090.347
1084.297
1079.251
1075.566
1073.641
1073.537
1074.257
1073.484
1068.402
1057.496
1042.438
1028.762
1024.465
1036.932
1069.745
1121.201
1185.433
1255.524
1327.007
1400.022
1479.246
1571.807
1684.254
1819.884
1977.373
2151.015
2332.199
2511.416
2680.014
2831.194
2960.108
3063.255
3137.592
3179.809
3186.084
3152.445
3075.631
2954.186
2789.468
2586.265
2352.836
2100.32
1841.626
1590.015
1357.62
1154.179
986.1609
856.3883
764.1764
705.8936
675.8112
667.0782
672.6637
686.1387
702.2338
717.0973
728.4585
734.9872
737.9571
733.4999
1101.061
1093.826
1085.656
1078.045
1072.273
1069.124
1068.675
1070.027
1071.187
1069.462
1062.619
1050.489
1036.155
1025.705
1026.305
1043.424
1078.675
1129.472
1190.649
1257.212
1326.828
1400.952
1484.213
1582.453
1700.358
1839.586
1997.996
2170.058
2348.09
2523.777
2689.42
2838.599
2966.202
3068
3140.089
3178.506
3179.239
3138.674
3054.362
2925.916
2755.742
2549.425
2315.599
2065.313
1810.978
1565.082
1338.89
1141.34
978.2944
852.2374
762.4133
705.3428
675.5945
666.671
671.8741
685.021
701.0091
715.9887
727.5284
736.0861
1111.287
1120.845
1125.046
1120.877
1110.14
1096.789
1084.627
1076.048
1071.599
1070.02
1068.694
1064.633
1055.978
1043.446
1030.841
1024.107
1029.205
1049.875
1086.395
1135.969
1194.459
1258.596
1327.623
1403.713
1491.099
1594.38
1716.718
1858.587
2017.376
2187.854
2363.16
2535.916
2699.097
2846.47
2972.611
3072.65
3141.989
3176.199
3171.208
3123.803
3032.313
2897.313
2722.142
2513.072
2279.051
2031.029
1780.954
1540.604
1320.439
1128.649
970.5195
848.1925
760.8184
705.0359
675.6733
666.5727
671.2938
684.2604
698.6479
720.4226
1018.068
952.2553
963.8761
1007.729
1052.004
1081.836
1094.829
1095.219
1089.17
1081.844
1076.002
1071.748
1067.243
1060.2
1049.649
1037.138
1026.726
1023.699
1032.644
1055.855
1092.821
1140.99
1197.356
1260.09
1329.523
1408.113
1499.514
1607.191
1733.102
1876.885
2035.704
2204.678
2377.643
2547.936
2708.991
2854.63
2979.1
3076.985
3143.147
3172.839
3162.033
3107.941
3009.625
2868.526
2688.799
2477.309
2243.267
1997.515
1751.573
1516.569
1302.226
1116.038
962.7424
844.1458
759.2777
704.8905
675.8988
667.0944
669.3412
690.5161
2504.017
1803.765
1348.774
1104.634
1008.751
997.9441
1023.175
1053.917
1075.931
1086.162
1087.382
1083.894
1078.817
1073.06
1065.824
1056.062
1044.01
1031.969
1023.924
1024.257
1036.252
1061.121
1098.006
1144.862
1199.757
1261.988
1332.571
1413.949
1509.131
1620.598
1749.377
1894.541
2053.182
2220.774
2391.723
2559.9
2719.031
2862.903
2985.452
3080.807
3143.425
3168.368
3151.727
3091.155
2986.39
2839.649
2655.8
2442.214
2208.313
1964.827
1722.879
1493.005
1284.256
1103.485
954.9082
840.0381
757.6252
705.0578
675.4205
669.1053
2954.781
2682.765
2233.959
1773.507
1406.02
1167.405
1045.867
1007.244
1014.462
1038.443
1061.644
1076.787
1083.317
1083.546
1079.802
1073.19
1063.852
1052.05
1039.174
1028.045
1022.34
1025.506
1039.744
1065.568
1102.097
1147.903
1201.986
1264.464
1336.723
1421.009
1519.684
1634.405
1765.5
1911.67
2070.029
2236.38
2405.577
2571.873
2729.163
2871.153
2991.493
3083.954
3142.705
3162.722
3140.278
3073.465
2962.646
2810.725
2623.184
2407.823
2174.227
1933.006
1694.917
1469.959
1266.561
1091.011
947.0076
835.6182
757.6226
692.2721
2963.279
2976.469
2832.941
2530.229
2138.87
1747.601
1423.772
1198.485
1070.309
1017.766
1012.638
1029.686
1051.455
1068.808
1078.826
1081.872
1079.237
1072.03
1061.21
1048.168
1035.174
1025.288
1021.745
1027.152
1042.92
1069.194
1105.284
1150.387
1204.259
1267.572
1341.852
1429.048
1530.92
1648.455
1781.46
1928.402
2086.463
2251.723
2419.377
2583.936
2739.378
2879.303
2997.117
3086.324
3140.914
3155.865
3127.676
3054.875
2938.395
2781.748
2590.94
2374.125
2141.005
1902.065
1667.72
1447.443
1249.352
1077.577
945.2354
796.2452
2922.552
2967.576
2992.119
2926.005
2733.798
2432.004
2073.969
1722.681
1427.98
1215.478
1086.796
1026.86
1013.353
1024.625
1044.295
1062.454
1074.552
1079.395
1077.418
1069.756
1058.045
1044.521
1031.996
1023.528
1021.868
1028.954
1045.685
1072.089
1107.788
1152.551
1206.709
1271.278
1347.772
1437.798
1542.586
1662.587
1797.225
1944.824
2102.642
2266.976
2433.262
2596.168
2749.695
2887.33
3002.289
3087.892
3138.047
3147.808
3113.94
3035.397
2913.634
2752.694
2559.029
2341.071
2108.623
1871.903
1641.705
1423.216
1244.361
1003.676
2896.785
2915.683
2955.707
2991.437
2975.332
2866.527
2653.194
2357.059
2022.467
1698.953
1426.012
1224.895
1098.085
1034.192
1014.994
1021.779
1039.355
1057.506
1070.595
1076.341
1074.618
1066.654
1054.595
1041.215
1029.571
1022.556
1022.469
1030.76
1048.05
1074.425
1109.863
1154.619
1209.442
1275.531
1354.297
1447.008
1554.442
1676.633
1812.728
1960.954
2118.637
2282.222
2447.294
2608.599
2760.12
2895.233
3007.018
3088.69
3134.158
3138.621
3099.138
3015.081
2888.384
2723.543
2527.436
2308.459
2077.741
1838.891
1634.139
1314.966
2873.342
2882.536
2901.371
2937.081
2977.932
2992.686
2944.481
2808.728
2584.518
2295.008
1978.611
1676.345
1420.742
1229.671
1105.748
1039.937
1016.957
1020.366
1036.011
1053.605
1066.856
1072.826
1071.098
1063.02
1051.07
1038.294
1027.769
1022.144
1023.338
1032.481
1050.093
1076.418
1111.778
1156.822
1212.576
1280.316
1361.304
1456.498
1566.312
1690.46
1827.89
1976.762
2134.437
2297.447
2461.444
2621.189
2770.609
2902.987
3011.313
3088.769
3129.337
3128.414
3083.384
2994.008
2862.745
2694.096
2497.15
2271.501
2069.899
1706.011
2844.251
2855.851
2866.431
2883.797
2914.977
2956.139
2988.113
2981.492
2908.385
2754.254
2524.157
2241.359
1939.909
1654.814
1413.563
1231.398
1110.836
1044.434
1019.037
1019.909
1033.758
1050.392
1063.209
1068.955
1067.105
1059.107
1047.607
1035.718
1026.403
1022.046
1024.279
1034.053
1051.901
1078.265
1113.774
1159.365
1216.239
1285.668
1368.755
1466.196
1578.121
1704.01
1842.67
1992.208
2149.992
2312.574
2475.611
2633.821
2781.057
2910.521
3015.152
3088.164
3123.672
3117.293
3066.866
2972.025
2838.021
2658.994
2491.501
2131.456
2813.659
2827.171
2838.568
2849.18
2864.48
2890.912
2929.169
2968.824
2988.556
2962.54
2869.892
2702.749
2469.685
2193.512
1904.847
1634.173
1405.171
1231.033
1114.095
1048.009
1021.148
1020.063
1032.198
1047.589
1059.592
1064.865
1062.873
1055.119
1044.28
1033.401
1025.265
1022.021
1025.106
1035.399
1053.514
1080.095
1116.011
1162.395
1220.531
1291.645
1376.68
1476.123
1589.895
1717.317
1857.095
2007.293
2165.256
2327.511
2489.658
2646.338
2791.312
2917.713
3018.476
3086.859
3117.289
3105.064
3050.976
2943.926
2835.938
2532.815
2779.346
2797.464
2812.348
2824.427
2835.048
2848.255
2869.782
2902.826
2943.137
2976.865
2982.975
2939.486
2830.955
2654.15
2419.799
2149.991
1872.506
1614.27
1395.989
1229.219
1116.061
1050.899
1023.213
1020.552
1031.03
1045.023
1056.017
1060.721
1058.624
1051.224
1041.132
1031.252
1024.172
1021.863
1025.654
1036.43
1054.92
1081.944
1118.544
1165.962
1225.493
1298.281
1385.127
1486.35
1601.731
1730.487
1871.261
2022.074
2180.229
2342.186
2503.458
2658.575
2801.208
2924.404
3021.253
3084.534
3111.335
3087.381
3052.314
2850.883
2706.967
2742.946
2766.37
2783.523
2797.674
2810.54
2824.803
2844.801
2874.383
2913.117
2953.289
2979.657
2972.623
2913.869
2792.328
2608.211
2373.641
2109.881
1842.329
1595.04
1386.338
1226.42
1117.1
1053.237
1025.13
1021.149
1030.043
1042.603
1052.55
1056.7
1054.561
1047.571
1038.213
1029.219
1023.011
1021.441
1025.811
1037.07
1056.072
1083.779
1121.338
1170.023
1231.085
1305.561
1394.118
1496.953
1613.75
1743.666
1885.306
2036.652
2194.952
2356.575
2516.925
2670.383
2810.648
2930.228
3024.175
3078.315
3114.694
3039.955
2569.897
2695.258
2760.928
2788.444
2797.048
2799.194
2801.525
2807.857
2821.49
2845.335
2880.061
2921.558
2959.406
2977.691
2958.404
2886.412
2754.187
2564.55
2330.527
2072.537
1813.955
1576.48
1376.473
1222.964
1117.44
1055.065
1026.778
1021.662
1029.083
1040.284
1049.261
1052.95
1050.848
1044.285
1035.582
1027.304
1021.746
1020.713
1025.544
1037.289
1056.933
1085.54
1124.304
1174.471
1237.202
1313.409
1403.634
1507.975
1626.052
1756.992
1899.377
2051.153
2209.506
2370.681
2530.051
2681.541
2819.882
2934.199
3027.588
3079.188
1698.404
2098.354
2402.677
2605.858
2723.748
2781.21
2802.434
2806.3
2805.873
2809.793
2823.584
2849.808
2887.047
2928.613
2962.278
2971.946
2941.193
2857.628
2716.571
2522.813
2289.927
2037.493
1787.151
1558.616
1366.588
1219.069
1117.205
1056.37
1028.037
1021.935
1028.033
1038.028
1046.193
1049.561
1047.582
1041.443
1033.291
1025.54
1020.41
1019.717
1024.892
1037.116
1057.498
1087.177
1127.346
1179.178
1243.71
1321.715
1413.613
1519.417
1638.702
1770.575
1913.607
2065.692
2223.995
2384.524
2542.752
2693.005
2821.755
2976.591
1654.407
1680.995
1873.558
2131.313
2376.413
2567.702
2694.655
2765.598
2796.969
2806.139
2807.823
2812.932
2828.336
2856.472
2894.604
2934.371
2962.519
2963.232
2921.699
2827.914
2679.503
2482.732
2251.459
2004.437
1761.777
1541.487
1356.824
1214.878
1116.467
1057.127
1028.812
1021.857
1026.804
1035.79
1043.338
1046.546
1044.779
1039.058
1031.352
1023.955
1019.054
1018.53
1023.942
1036.625
1057.805
1088.674
1130.391
1184.029
1250.476
1330.359
1423.972
1531.248
1651.724
1784.485
1928.084
2080.439
2238.053
2400.606
2542.61
2764.157
2016.25
1804.938
1717.007
1772.932
1938.218
2155.171
2370.209
2548.024
2674.115
2750.369
2788.267
2802.792
2808.336
2816.406
2834.299
2864.111
2902.085
2938.777
2960.508
2952.117
2900.436
2797.562
2643.001
2444.12
2214.862
1973.159
1737.747
1525.127
1347.283
1210.495
1115.286
1057.345
1029.073
1021.381
1025.355
1033.538
1040.668
1043.868
1042.392
1037.079
1029.731
1022.546
1017.718
1017.227
1022.791
1035.905
1057.912
1090.039
1133.396
1188.935
1257.39
1339.229
1434.624
1543.427
1665.09
1798.893
1942.166
2098.778
2236.519
2486.506
2366.432
2171.898
1965.047
1814.847
1768.327
1833.043
1983.121
2176.247
2370.682
2536.347
2658.643
2736.703
2778.941
2798.26
2808.175
2819.993
2840.784
2872.019
2909.047
2941.747
2956.47
2938.984
2877.765
2766.781
2607.082
2406.845
2179.947
1943.504
1714.985
1509.538
1338.02
1205.992
1113.726
1057.069
1028.855
1020.535
1023.706
1031.277
1038.161
1041.479
1040.349
1035.428
1028.364
1021.282
1016.412
1015.859
1021.512
1035.033
1057.874
1091.291
1136.336
1193.836
1264.364
1348.246
1445.454
1556.079
1677.945
1817.455
1940.046
2187.73
2474.524
2422.459
2292.547
2115.173
1944.128
1831.78
1809.186
1878.71
2018.74
2195.222
2373.888
2528.915
2646.592
2724.781
2769.964
2793.462
2807.815
2823.686
2847.463
2879.778
2915.188
2943.21
2950.553
2924.105
2853.953
2735.731
2571.764
2370.811
2146.565
1915.325
1693.384
1494.67
1329.028
1201.391
1111.832
1056.362
1028.23
1019.399
1021.93
1029.056
1035.834
1039.355
1038.594
1034.035
1027.186
1020.123
1015.131
1014.452
1020.154
1034.06
1057.73
1092.445
1139.193
1198.697
1271.29
1357.535
1455.527
1572.764
1675.235
1901.28
2388.97
2442.424
2440.833
2368.648
2235.497
2075.151
1932.73
1847.934
1842.39
1915.471
2048.247
2212.155
2378.251
2524.081
2637.023
2714.444
2761.672
2788.871
2807.587
2827.549
2854.168
2887.122
2920.301
2943.115
2942.876
2907.699
2829.222
2704.561
2537.086
2335.958
2114.591
1888.477
1672.813
1480.415
1320.235
1196.66
1109.606
1055.261
1027.267
1018.056
1020.109
1026.944
1033.726
1037.501
1037.108
1032.864
1026.162
1019.049
1013.876
1013.029
1018.75
1033.024
1057.505
1093.518
1141.903
1203.681
1277.276
1370.39
1451.342
1646.169
2268.155
2344.736
2408.831
2437.413
2410.49
2323.199
2191.187
2046.568
1926.97
1863.149
1870.371
1946.067
2073.255
2227.288
2383.114
2520.925
2629.24
2705.424
2754.178
2784.774
2807.728
2831.642
2860.778
2893.854
2924.234
2941.437
2933.551
2889.966
2803.786
2673.431
2503.125
2302.274
2083.947
1862.842
1653.137
1466.648
1311.537
1191.724
1107.01
1053.763
1025.992
1016.554
1018.302
1024.991
1031.872
1035.937
1035.892
1031.913
1025.293
1018.069
1012.669
1011.624
1017.34
1031.973
1057.178
1094.71
1143.693
1211.707
1270.88
1429.888
2079.46
2178.343
2272.086
2354.185
2409.832
2421.509
2378.277
2283.369
2155.887
2025.82
1924.931
1877.542
1894.56
1972.202
2094.94
2240.966
2388.138
2518.819
2622.711
2697.492
2747.545
2781.367
2808.394
2835.974
2867.169
2899.795
2926.856
2938.16
2922.683
2871.09
2777.849
2642.513
2469.984
2269.789
2054.601
1838.344
1634.26
1453.268
1302.838
1186.503
1103.985
1051.833
1024.39
1014.892
1016.512
1023.204
1030.275
1034.664
1034.952
1031.191
1024.601
1017.221
1011.558
1010.305
1015.938
1031.12
1056.148
1098.422
1135.67
1255.119
1921.782
1999.968
2090.753
2187.509
2281.183
2358.355
2402.664
2400.179
2345.969
2248.138
2127.113
2010.425
1925.185
1891.05
1915.883
1995.076
2114.164
2253.444
2393.074
2517.31
2617.071
2690.517
2741.841
2778.793
2809.664
2840.504
2873.196
2904.777
2928.052
2933.267
2910.356
2851.226
2751.585
2611.957
2437.765
2238.551
2026.553
1814.952
1616.133
1440.219
1294.088
1180.952
1100.491
1049.432
1022.422
1013.029
1014.696
1021.536
1028.894
1033.647
1034.268
1030.702
1024.108
1016.56
1010.572
1009.268
1014.149
1032.199
1048.526
1125.186
1853.49
1885.604
1940.295
2015.024
2104.321
2199.918
2289.767
2358.537
2390.884
2376.567
2315.007
2217.087
2103.281
1998.708
1926.806
1903.729
1935.06
2015.543
2131.483
2264.839
2397.711
2516.092
2612.112
2684.46
2737.151
2777.148
2811.562
2845.151
2878.711
2908.644
2927.723
2926.747
2896.638
2830.49
2725.122
2581.87
2406.54
2208.596
1999.811
1792.662
1598.751
1427.503
1285.291
1175.076
1096.527
1046.545
1020.054
1010.908
1012.777
1019.901
1027.641
1032.813
1033.785
1030.428
1023.8
1016.201
1009.499
1009.468
1009.193
1044.004
1823.524
1831.124
1852.119
1891.369
1950.459
2027.722
2117.958
2211.795
2295.898
2355.096
2376.218
2352.38
2286.057
2189.662
2083.188
1989.587
1929.321
1915.759
1952.646
2034.156
2147.206
2275.168
2401.89
2514.992
2607.758
2679.355
2733.558
2776.489
2814.066
2849.818
2883.576
2911.275
2925.804
2918.602
2881.589
2808.969
2698.54
2552.307
2376.331
2179.919
1974.364
1771.469
1582.129
1415.155
1276.501
1168.933
1092.139
1043.194
1017.272
1008.48
1010.675
1018.194
1026.401
1032.059
1033.405
1030.349
1023.56
1016.355
1008.055
1010.507
1844.825
1829.344
1823.675
1831.098
1855.085
1898.127
1960.769
2040.581
2131.161
2221.886
2299.088
2348.709
2359.9
2328.507
2259.183
2165.229
2065.971
1982.432
1932.551
1927.35
1969.014
2051.23
2161.469
2284.406
2405.52
2513.948
2604.018
2675.264
2731.123
2776.829
2817.124
2854.402
2887.682
2912.594
2922.272
2908.865
2865.274
2786.729
2671.884
2523.275
2347.11
2152.475
1950.168
1751.353
1566.281
1403.229
1267.801
1162.62
1087.418
1039.444
1014.103
1005.722
1008.32
1016.317
1025.05
1031.266
1033.035
1030.192
1024.289
1012.56
1879.042
1857.493
1838.202
1824.833
1821.31
1831.546
1858.97
1905.777
1971.832
2053.546
2143.287
2229.768
2299.641
2340.212
2342.735
2305.287
2234.182
2143.255
2051.086
1976.919
1936.454
1938.658
1984.37
2066.908
2174.317
2292.536
2408.581
2512.976
2600.945
2672.244
2729.872
2778.136
2820.655
2858.804
2890.948
2912.567
2917.152
2897.602
2847.773
2763.833
2645.173
2494.745
2318.808
2126.175
1927.141
1732.264
1551.205
1391.774
1259.282
1156.254
1082.483
1035.392
1010.602
1002.646
1005.673
1014.181
1023.512
1030.118
1033.265
1027.291
1914.029
1893.724
1871.922
1850.435
1832.088
1820.382
1819.214
1832.544
1863.703
1914.344
1983.346
2066.022
2153.925
2235.538
2298.079
2330.221
2325.123
2282.777
2210.823
2123.393
2038.235
1972.894
1941.018
1949.749
1998.789
2081.23
2185.766
2299.576
2411.116
2512.145
2598.608
2670.334
2729.787
2780.34
2824.558
2862.931
2893.325
2911.206
2910.51
2884.913
2829.184
2740.344
2618.417
2466.668
2291.329
2100.902
1905.174
1714.125
1536.876
1380.822
1251.029
1149.952
1077.462
1031.156
1006.855
999.2919
1002.71
1011.804
1021.191
1031.073
1942.828
1926.987
1908.366
1887.337
1865.142
1843.882
1826.424
1816.342
1817.697
1834.428
1869.43
1923.573
1994.822
2077.653
2163.059
2239.484
2294.807
2319.074
2307.227
2260.955
2188.96
2105.46
2027.266
1970.262
1946.197
1960.601
2012.257
2094.201
2195.847
2305.592
2413.218
2511.548
2597.069
2669.535
2730.807
2783.335
2828.718
2866.697
2894.784
2908.549
2902.441
2870.918
2809.617
2716.333
2591.626
2438.989
2264.568
2076.522
1884.136
1696.838
1523.247
1370.386
1243.107
1143.822
1072.48
1026.872
1002.889
996.0542
997.9672
1014.85
1960.321
1949.306
1936.235
1920.347
1901.494
1880.307
1858.191
1837.365
1820.943
1812.79
1817.03
1837.301
1875.932
1933.089
2005.983
2088.383
2170.829
2241.835
2290.051
2306.932
2289.129
2239.828
2168.551
2089.38
2018.088
1968.926
1951.892
1971.129
2024.725
2105.821
2204.619
2310.69
2415.01
2511.286
2596.369
2669.816
2732.837
2786.991
2833.013
2870.026
2895.318
2904.659
2893.06
2855.754
2789.196
2691.876
2564.812
2411.653
2238.416
2052.898
1863.89
1680.29
1510.252
1360.454
1235.558
1137.963
1067.571
1022.934
997.876
994.5427
1987.454
1971.71
1958.177
1945.05
1930.653
1913.935
1894.611
1873.19
1851.107
1830.838
1815.801
1809.956
1817.25
1840.954
1882.914
1942.688
2016.776
2098.27
2177.336
2242.696
2283.911
2293.896
2270.922
2219.471
2149.625
2075.126
2010.613
1968.75
1957.957
1981.215
2036.136
2116.114
2212.181
2315.012
2416.631
2511.449
2596.526
2671.118
2735.756
2791.167
2837.321
2872.851
2894.932
2899.613
2882.493
2839.564
2768.045
2667.054
2537.992
2384.615
2212.775
2029.902
1844.301
1664.368
1497.817
1350.994
1228.425
1132.19
1064.593
1007.469
2023.59
2002.718
1984.404
1968.65
1954.446
1940.366
1925.08
1907.639
1887.724
1865.932
1843.96
1824.557
1811.235
1807.863
1818.178
1845.16
1890.231
1952.336
2027.226
2107.338
2182.586
2242.083
2276.445
2280.076
2252.748
2200.007
2132.243
2062.667
2004.721
1969.563
1964.218
1990.736
2046.454