/*--------------------------------*- C++ -*----------------------------------*\
| =========                 |                                                 |
| \\      /  F ield         | OpenFOAM: The Open Source CFD Toolbox           |
|  \\    /   O peration     | Version:  2312                                  |
|   \\  /    A nd           | Website:  www.openfoam.com                      |
|    \\/     M anipulation  |                                                 |
\*---------------------------------------------------------------------------*/
FoamFile
{
    version     2.0;
    format      ascii;
    arch        "LSB;label=32;scalar=64";
    class       volScalarField;
    location    "4050";
    object      nut;
}
// * * * * * * * * * * * * * * * * * * * * * * * * * * * * * * * * * * * * * //

dimensions      [0 2 -1 0 0 0 0];

internalField   nonuniform List<scalar> 
12000
(
4.421006e-05
0.0001878045
0.0002118095
0.0002507552
0.0002543021
0.0002222058
0.0002004245
0.000225539
0.0002979721
0.0002764179
0.0002042284
0.0001884311
0.000236457
0.0002927208
0.0002415538
0.0001951575
0.0002019759
0.0002395166
0.0002404288
0.0002144439
0.0002104087
0.0002172014
0.0002114487
0.0002080142
0.0002158843
0.0002143233
0.0002022413
0.0002007317
0.0002090882
0.0002111533
0.0002056748
0.0002012092
0.0001975877
0.000197328
0.0002072308
0.0002146315
0.0002049478
0.0001874037
0.0001746556
0.0001889573
0.0002319534
0.0002233573
0.0001764247
0.0001517113
0.0001771267
0.0002808878
0.0002597665
0.0001482154
0.0001264707
0.0001806194
0.000327323
0.0001815235
0.0001191457
0.000143587
0.0001863187
0.0001492978
0.0001101134
9.455353e-05
8.668677e-05
7.03476e-05
2.7123e-05
0.0002447474
0.0002660629
0.0003204099
0.0003833744
0.0004352018
0.0005055404
0.0005803219
0.0006379231
0.0006975395
0.0008004252
0.0009159992
0.0009945247
0.001042278
0.001130408
0.001260267
0.001372259
0.00143232
0.001498306
0.001602138
0.001706784
0.001791349
0.001881152
0.001973568
0.002043765
0.00211273
0.002201346
0.00227728
0.002318582
0.002353384
0.002399542
0.002445904
0.002480348
0.002502955
0.002503206
0.00249717
0.002507386
0.002518299
0.002514517
0.002468696
0.002385629
0.002328616
0.002152773
0.00225624
0.002150562
0.001991769
0.001577858
0.001334011
0.001706071
0.001520542
0.001341935
0.0009955114
0.001065271
0.0008874926
0.0007366562
0.0005732776
0.0003957553
0.0002393754
0.0001276016
6.495704e-05
3.753968e-05
0.0003228688
0.0004360999
0.0005352235
0.0006571589
0.0007957413
0.0009583899
0.001131131
0.001297696
0.001484819
0.001668733
0.001859595
0.0020354
0.002200384
0.002369772
0.002539336
0.002695778
0.00283609
0.002971154
0.00310246
0.003225273
0.003338082
0.00344324
0.003539401
0.003625706
0.003704936
0.003777387
0.003840563
0.00389488
0.003942926
0.003984747
0.00402073
0.00405111
0.004074206
0.004089909
0.004098435
0.004100937
0.004096502
0.00408432
0.004064175
0.00403625
0.003998469
0.003948869
0.003885079
0.003816051
0.003703476
0.00343749
0.003335808
0.003195146
0.002920432
0.002798903
0.002511571
0.0022035
0.001729722
0.001485294
0.001391676
0.0009973924
0.0005580691
0.0002061985
6.478378e-05
3.689461e-05
0.0003576618
0.0005382268
0.0006980274
0.000901062
0.001127097
0.001374904
0.0016341
0.00189635
0.002165795
0.002430146
0.002681306
0.002917862
0.003135888
0.003341853
0.003534977
0.003713924
0.003879116
0.004031403
0.004171533
0.00430043
0.004418727
0.004527106
0.004625844
0.004715422
0.004796354
0.004868837
0.004932968
0.004987832
0.005036923
0.005075861
0.005106752
0.005130828
0.005147025
0.005154467
0.005152388
0.005139931
0.005116796
0.00508331
0.005038369
0.004980798
0.004909374
0.004822905
0.004720054
0.004601218
0.004463797
0.004306446
0.004125613
0.003920102
0.003688864
0.003434066
0.002708772
0.002380449
0.002201536
0.002095512
0.001673323
0.001216585
0.0007407099
0.0003028838
6.508511e-05
3.686806e-05
0.0003954386
0.0006467312
0.0008700033
0.001142709
0.001440385
0.001755658
0.002076952
0.002395081
0.00270494
0.003004971
0.003290279
0.003559635
0.003805403
0.004027997
0.004231946
0.004420488
0.004596568
0.004760391
0.004912447
0.005054203
0.005186275
0.005306527
0.005414956
0.005513406
0.005602628
0.005683031
0.005752085
0.005816598
0.00586995
0.00591379
0.005949328
0.005976168
0.00599352
0.006000802
0.005998245
0.005985898
0.005963222
0.005928935
0.005882876
0.005824567
0.005753406
0.005668409
0.005568115
0.005452314
0.005318336
0.005161358
0.004985726
0.004785397
0.004432907
0.003730296
0.003593754
0.00355712
0.003188568
0.002710815
0.002174956
0.001579747
0.0009494284
0.0003749321
6.48066e-05
3.762335e-05
0.0004145259
0.0007362381
0.001013199
0.00133543
0.001682558
0.002043065
0.002405127
0.002758462
0.003096268
0.003415605
0.003716986
0.004004464
0.004271953
0.004522115
0.004748922
0.004955225
0.005144957
0.005320204
0.005481917
0.005630623
0.005767032
0.005894271
0.00601363
0.006124128
0.006225408
0.006317262
0.006397819
0.006471246
0.006533428
0.006585143
0.006625989
0.006656064
0.006675214
0.006682476
0.006677719
0.006660061
0.006629662
0.006585859
0.006527978
0.006455337
0.006367156
0.006262528
0.00614035
0.005998934
0.005836008
0.005649605
0.005436369
0.005199533
0.00492751
0.004613492
0.004253546
0.00384933
0.00339998
0.002899173
0.002340817
0.001726355
0.001071039
0.000443974
6.492835e-05
3.844646e-05
0.0004276358
0.0008129769
0.001135957
0.001492531
0.001870123
0.002255699
0.002639715
0.003014279
0.003374885
0.00371827
0.00403748
0.004331831
0.004608361
0.004863791
0.005102665
0.005323405
0.005527237
0.005716468
0.005892966
0.006058078
0.006212818
0.006357983
0.006493852
0.006620251
0.006736862
0.006839769
0.006937003
0.007022345
0.007095715
0.007156988
0.007205567
0.007241678
0.007264444
0.007273415
0.007268554
0.007249343
0.007215358
0.00716619
0.007101401
0.007020483
0.006922822
0.006807643
0.006673935
0.006520421
0.006345461
0.006148041
0.005922618
0.005671425
0.005384459
0.005058211
0.004688261
0.004268055
0.003789658
0.003245469
0.002630457
0.001944893
0.001206749
0.0004991916
6.490776e-05
3.957965e-05
0.0004329368
0.0008681977
0.001229437
0.00160748
0.002003567
0.002410644
0.002813519
0.003203719
0.003574789
0.003923195
0.004250998
0.004557076
0.004842439
0.0051088
0.005359613
0.005596004
0.00581782
0.006026018
0.00622201
0.006406969
0.006581664
0.006746457
0.006901335
0.007045996
0.007179959
0.007300839
0.007412553
0.007511464
0.00759705
0.007668703
0.007725879
0.007768833
0.007796622
0.007808612
0.007804314
0.007783243
0.007744965
0.00768905
0.007615042
0.007522431
0.007410623
0.0072789
0.007126402
0.006952001
0.006754868
0.006533411
0.006281721
0.006002531
0.005687193
0.005331334
0.00492969
0.004476759
0.003967802
0.003395844
0.002756062
0.0020482
0.001286552
0.0005453434
6.48951e-05
4.1861e-05
0.0004398935
0.0009105296
0.001303071
0.001700079
0.002109937
0.002521786
0.002929345
0.003324601
0.003702218
0.004059764
0.004397007
0.004714259
0.005012536
0.005293203
0.005558412
0.005810721
0.006051353
0.006280398
0.006498216
0.006705274
0.006901906
0.007088249
0.007264027
0.007428616
0.007581077
0.007720577
0.007847185
0.007959246
0.008056633
0.008139012
0.008205433
0.008255451
0.008288093
0.008302614
0.00829842
0.008275
0.008231904
0.00816872
0.008085047
0.007980477
0.007854556
0.007706766
0.007536384
0.007343129
0.007126488
0.006882349
0.006607009
0.006302984
0.005967261
0.005595795
0.005182087
0.004716704
0.004189839
0.003593989
0.002923526
0.002177454
0.001371304
0.0005843668
6.494705e-05
4.168948e-05
0.0004463775
0.0009353756
0.001356009
0.00176432
0.00217833
0.002593543
0.003003326
0.003401618
0.003784393
0.004149621
0.00449677
0.004826197
0.005138848
0.005435999
0.005719076
0.005989835
0.006250139
0.006500485
0.006740517
0.006969603
0.007186978
0.007391565
0.007585094
0.007767675
0.007935673
0.008093382
0.008236843
0.008365185
0.008476817
0.008570478
0.008645648
0.008701948
0.00873846
0.008754427
0.008749205
0.008722248
0.008673088
0.008601322
0.008506604
0.008388646
0.008247224
0.008082192
0.007891405
0.007674939
0.007432283
0.007165129
0.006869452
0.006545074
0.006187281
0.005791927
0.005353474
0.004865619
0.00431667
0.003699451
0.003009777
0.002246044
0.00142222
0.0006137594
6.482245e-05
4.172029e-05
0.0004390179
0.0009489779
0.001393989
0.001813258
0.002229392
0.002643856
0.0030527
0.003451638
0.003837556
0.004208697
0.004564561
0.004905561
0.005232623
0.005546818
0.005849103
0.006138536
0.006414401
0.006680848
0.006938045
0.007185931
0.007424414
0.007653494
0.007870432
0.008073776
0.008261402
0.008435572
0.008593519
0.008734111
0.008856216
0.008958797
0.009041071
0.009102366
0.009141587
0.009157898
0.009150607
0.00911914
0.009063012
0.008981806
0.008875159
0.008742748
0.00858428
0.008399483
0.008190415
0.00795582
0.007694263
0.007404493
0.007085109
0.006736914
0.006358117
0.005946041
0.005494083
0.004992299
0.004433104
0.003805903
0.003100949
0.002317398
0.00147033
0.0006378428
6.486594e-05
4.578664e-05
0.0004201103
0.0009456138
0.00141325
0.001842354
0.002260128
0.002673558
0.003081306
0.003480403
0.00386857
0.004244812
0.004609043
0.004961525
0.005302192
0.005630771
0.005944828
0.006248949
0.006545378
0.006831997
0.007109423
0.007377574
0.007635735
0.007882776
0.008117232
0.008337781
0.008542385
0.00873123
0.008902215
0.009054026
0.009185409
0.009295182
0.009382283
0.009445819
0.009485162
0.009499708
0.009488885
0.009452178
0.009389141
0.009299401
0.009182647
0.009038611
0.008867043
0.008667663
0.008440052
0.008184153
0.00789986
0.007587338
0.007174177
0.006661649
0.006280737
0.005987582
0.005584031
0.005076796
0.00450855
0.003870079
0.003153539
0.002359027
0.001500767
0.0006552942
6.472089e-05
4.5922e-05
0.0004126824
0.0009370222
0.001417697
0.001855249
0.002274342
0.002685253
0.003089931
0.003487582
0.003876895
0.004256676
0.004625373
0.004980337
0.005178574
0.005334062
0.00553936
0.005802676
0.006146302
0.006529711
0.006926623
0.007301525
0.007707737
0.008084516
0.008333968
0.008568642
0.008786465
0.008986375
0.009166901
0.009326775
0.009464803
0.009579869
0.009670982
0.009737228
0.009777639
0.009791386
0.009777758
0.009736158
0.009666104
0.009567228
0.009439273
0.00928208
0.009095583
0.008879794
0.008634741
0.008360649
0.007943814
0.007391804
0.006885718
0.006466086
0.006127572
0.005864988
0.005624979
0.005136074
0.004565566
0.003921935
0.003199195
0.002394867
0.001524601
0.00066738
6.473846e-05
4.652962e-05
0.0004010633
0.00092324
0.001417366
0.001862879
0.002283902
0.002693328
0.003095518
0.003490843
0.00387823
0.004255742
0.004606214
0.004824844
0.005024998
0.005213652
0.005386095
0.005574474
0.005798421
0.006110455
0.006482637
0.006886326
0.007286587
0.007712382
0.008158373
0.008614572
0.008974766
0.009183603
0.009372552
0.009539984
0.009684518
0.009804866
0.00989982
0.009968266
0.01000918
0.01002165
0.01000491
0.009958349
0.00988152
0.009774137
0.009636064
0.009467294
0.009267879
0.009038281
0.008686339
0.008147491
0.007606919
0.007130137
0.006698173
0.006301641
0.005980958
0.005763626
0.005565753
0.005174367
0.004603395
0.003957012
0.003228503
0.00241803
0.001541465
0.0006770998
6.464299e-05
4.734078e-05
0.0003899442
0.0009061727
0.001406737
0.001861037
0.002285741
0.002694872
0.003094653
0.003486784
0.003870841
0.004245384
0.004608379
0.004817086
0.004968355
0.005106134
0.005264004
0.005486567
0.005745475
0.006025492
0.006331586
0.006704334
0.00710905
0.007525315
0.007939991
0.008347607
0.008748498
0.009140497
0.009497803
0.009696599
0.009847151
0.009972461
0.01007104
0.0101416
0.01018307
0.01019445
0.01017494
0.01012394
0.01004104
0.009926085
0.009779154
0.00960064
0.009243603
0.008830636
0.008395941
0.007936359
0.007453331
0.006960035
0.006505907
0.006137699
0.00585895
0.005652216
0.005474339
0.005201125
0.004630618
0.003982178
0.00325019
0.002434527
0.001551636
0.0006817488
6.45946e-05
4.816337e-05
0.0003809111
0.0008884616
0.001394454
0.001854191
0.002281542
0.002690027
0.003086952
0.003475171
0.003855088
0.004225744
0.004577586
0.004760196
0.004894296
0.005047905
0.005250375
0.005465368
0.005686086
0.005936539
0.006240801
0.006571096
0.006948092
0.007344552
0.007749237
0.008146647
0.008522263
0.008868125
0.009182691
0.009468317
0.009732655
0.009983012
0.01018932
0.01026211
0.01030434
0.01031501
0.01027831
0.01017601
0.01002628
0.009832307
0.009595488
0.00931532
0.008988037
0.008612252
0.008192478
0.007741815
0.007282083
0.006835416
0.006417028
0.006039159
0.005737407
0.005539775
0.005415796
0.005218311
0.00464763
0.003998
0.003263893
0.002445453
0.001559034
0.0006848299
6.455591e-05
4.88917e-05
0.0003725915
0.0008705424
0.001377434
0.001841444
0.002271847
0.002680313
0.003074802
0.003459222
0.003834882
0.004201476
0.004555892
0.004760153
0.004916024
0.005068017
0.005231323
0.005422301
0.005664362
0.005930707
0.00623166
0.006555949
0.006896098
0.007257846
0.007628077
0.007994794
0.008348117
0.008678534
0.008974888
0.0092314
0.009458883
0.009696562
0.0100324
0.01024431
0.01016505
0.01005869
0.009999791
0.009922002
0.009799247
0.009625476
0.009401279
0.009125003
0.008796835
0.008423571
0.008016436
0.007586332
0.007146412
0.006714083
0.006310889
0.005959137
0.005678695
0.005478394
0.00534396
0.005165437
0.004659428
0.004010777
0.003275516
0.002454646
0.001565717
0.0006878525
6.448431e-05
4.950279e-05
0.0003655265
0.0008531954
0.001359177
0.001826928
0.002259103
0.002667241
0.003059436
0.003440317
0.003811934
0.004174586
0.004527336
0.004751631
0.004916533
0.00507702
0.005254946
0.005457748
0.005685321
0.005957201
0.006248853
0.006571121
0.00690723
0.00725818
0.007610591
0.007954843
0.008282376
0.008586504
0.008862816
0.009111396
0.009340579
0.009568447
0.00982188
0.01011232
0.01014512
0.009977473
0.009883724
0.00979357
0.009669732
0.009496851
0.00927104
0.008993255
0.008666797
0.008297982
0.007896524
0.007474755
0.007046715
0.006627349
0.00623294
0.005882597
0.005600779
0.005407571
0.00528821
0.00513297
0.004664237
0.004015496
0.003279314
0.002457506
0.001567126
0.0006885894
6.443844e-05
5.000378e-05
0.0003601762
0.0008381199
0.001340744
0.00180946
0.002242945
0.002651016
0.003041457
0.003419397
0.003787576
0.004147007
0.004497605
0.004779384
0.004966761
0.005137468
0.005318905
0.005524972
0.005760432
0.006022862
0.006317652
0.006636774
0.006975411
0.007315499
0.007651877
0.007977853
0.00828729
0.008574644
0.00883592
0.00907183
0.009292381
0.009518801
0.009778106
0.0100927
0.01015643
0.009984713
0.009870073
0.009762616
0.009629265
0.009450435
0.009217994
0.008931899
0.008597469
0.008223747
0.007821995
0.007404386
0.006983527
0.006572837
0.0061876
0.005845403
0.005568245
0.005374692
0.005253974
0.005107053
0.004668711
0.004020302
0.003283615
0.0024607
0.001569342
0.0006897566
6.439062e-05
5.046576e-05
0.000356103
0.0008244523
0.001322546
0.00179104
0.002225553
0.002633239
0.003022219
0.003397913
0.003763628
0.00412111
0.004471164
0.004813082
0.005031725
0.005218322
0.005411872
0.005624764
0.005864097
0.006131971
0.006427964
0.006744215
0.007072844
0.007402413
0.007727323
0.008039768
0.008334536
0.008607925
0.008857762
0.009085095
0.009297874
0.009514766
0.009766012
0.0100935
0.01019608
0.01003901
0.009904343
0.009771888
0.009618941
0.009425507
0.009180913
0.008884114
0.008541089
0.008161959
0.007758685
0.007343452
0.006927971
0.006523995
0.006145001
0.005807397
0.005533502
0.005343256
0.005227857
0.005091121
0.004669897
0.0040214
0.003284209
0.00246074
0.00156926
0.0006894867
6.432314e-05
5.083741e-05
0.0003538087
0.000813261
0.001305618
0.001772497
0.002206832
0.002614355
0.003002371
0.003376507
0.003740502
0.004096607
0.004446068
0.004790645
0.005125204
0.005334213
0.005537255
0.005760957
0.006007383
0.006277267
0.006569534
0.006880464
0.007202119
0.007526388
0.00784061
0.008139051
0.008418377
0.008676711
0.00891324
0.009129108
0.009330226
0.009532422
0.00976939
0.01010251
0.01024385
0.01009962
0.009944954
0.009790868
0.009619722
0.009411501
0.009154483
0.008847159
0.008495979
0.008111916
0.007707413
0.007294397
0.00688366
0.006485721
0.00611284
0.005780221
0.005509364
0.005320123
0.005205381
0.005073854
0.004670288
0.004021748
0.003283944
0.002460296
0.001568957
0.0006893938
6.429114e-05
5.123537e-05
0.0003529239
0.0008041261
0.001290129
0.001754418
0.002188016
0.002595201
0.002982549
0.003355654
0.003718535
0.004073857
0.004423332
0.004768113
0.005110291
0.005450676
0.005699918
0.005926648
0.006175942
0.006450058
0.006742883
0.007051945
0.007367113
0.007679765
0.007980718
0.008264924
0.00852853
0.00877032
0.008991334
0.009195047
0.009388522
0.009583357
0.009793971
0.01002884
0.01026237
0.01022339
0.009989196
0.009807836
0.009621864
0.009400828
0.009132085
0.008814924
0.008456534
0.00806839
0.007663073
0.00725214
0.006845543
0.006452729
0.00608497
0.005756713
0.005489234
0.005302674
0.005190878
0.005064435
0.004669874
0.004021143
0.003283009
0.002459032
0.001567679
0.0006885891
6.421934e-05
5.162901e-05
0.0003530724
0.0007970417
0.00127643
0.001737409
0.002169712
0.002576333
0.002963168
0.003335661
0.003698002
0.004053195
0.004403363
0.004750104
0.005094789
0.005438294
0.005781806
0.006126582
0.006387407
0.0066497
0.006936493
0.007239545
0.007549171
0.007853097
0.008143769
0.008413624
0.008660182
0.00888365
0.009086271
0.009272456
0.009449784
0.009629827
0.009824973
0.01003825
0.01026602
0.01025779
0.01003603
0.009839573
0.009634034
0.009396677
0.009115393
0.008788796
0.008423848
0.008032112
0.007626124
0.007217026
0.006814033
0.006425721
0.006062581
0.005738391
0.00547402
0.005289534
0.00517936
0.005055945
0.004668841
0.004019709
0.003281225
0.00245704
0.001566059
0.0006879461
6.420231e-05
5.189234e-05
0.0003539814
0.0007916283
0.001264562
0.001721821
0.002152444
0.002558343
0.002944782
0.003317
0.003679263
0.004034795
0.004385984
0.004734626
0.005082111
0.005429482
0.00577754
0.006126706
0.006476755
0.00682651
0.00716813
0.007453911
0.007739686
0.008028794
0.008309427
0.008569924
0.008803496
0.009009398
0.009192427
0.009359299
0.00951747
0.009675756
0.009845495
0.01004188
0.0102744
0.01028776
0.0100748
0.009867092
0.009646066
0.00939453
0.009101688
0.008766279
0.008395314
0.008000402
0.007593922
0.007186555
0.006786819
0.006402539
0.006043575
0.005723256
0.005462228
0.005280553
0.005172902
0.005052187
0.004668067
0.004018427
0.003279409
0.002454979
0.001564225
0.0006868243
6.414169e-05
5.229817e-05
0.0003563271
0.0007884967
0.001254839
0.001708012
0.00213649
0.0025415
0.002927661
0.003299935
0.003662571
0.004018918
0.004371529
0.004722331
0.005072757
0.005423817
0.00577611
0.00612978
0.006484444
0.006839158
0.00719254
0.007542474
0.007886178
0.008220106
0.008490401
0.008728523
0.008944757
0.009135762
0.009301589
0.00944873
0.009586929
0.009725814
0.00987602
0.01005067
0.01026784
0.01029676
0.01010335
0.009892168
0.009659765
0.009395701
0.009091899
0.008747989
0.008371265
0.007973365
0.007566434
0.007160653
0.006763872
0.006383248
0.006028106
0.005711443
0.005453663
0.005274649
0.005168987
0.005049751
0.004667167
0.004016852
0.003277188
0.002452541
0.001562264
0.0006860426
6.413935e-05
5.207e-05
0.0003592179
0.0007861305
0.001246427
0.001695666
0.002122221
0.002526411
0.002912452
0.003285095
0.003648547
0.004006226
0.004360791
0.004714254
0.00506807
0.005423191
0.005780073
0.006138663
0.006498379
0.006858072
0.007216042
0.007570034
0.007917311
0.008254791
0.008579403
0.008887526
0.009110842
0.009280451
0.009424282
0.009550775
0.009667896
0.009784373
0.009908387
0.01005396
0.01025205
0.01032361
0.01014939
0.009909264
0.009667662
0.009396827
0.009085297
0.008733965
0.008351682
0.007950782
0.007543328
0.007138973
0.006744884
0.00636758
0.006015917
0.005702679
0.005448094
0.005271865
0.005168352
0.005050228
0.004667014
0.004015799
0.003275442
0.002450465
0.00156036
0.0006848352
6.409204e-05
5.399369e-05
0.0003593483
0.0007757478
0.00124007
0.001685154
0.002109568
0.002513023
0.002899227
0.003272678
0.00363752
0.003997202
0.004354451
0.004711324
0.005069268
0.005429156
0.005791295
0.006155442
0.006520786
0.006885946
0.007248993
0.007607508
0.007958647
0.00829927
0.008625989
0.008935432
0.009224205
0.009447068
0.009575726
0.009674798
0.009767092
0.009864042
0.009972067
0.01009137
0.01021182
0.010303
0.01019865
0.009942641
0.009686029
0.009403128
0.009081921
0.00872306
0.008335604
0.007932026
0.007524176
0.007121177
0.006729547
0.006355217
0.006006614
0.00569648
0.005444887
0.005271323
0.005169728
0.005052035
0.004667292
0.004015134
0.003273702
0.002448285
0.001558456
0.000683917
6.409955e-05
5.575503e-05
0.000363131
0.0007619546
0.001236495
0.001677109
0.002099254
0.002502029
0.002888664
0.003263401
0.003630285
0.003992762
0.004353575
0.004714775
0.005077756
0.005443271
0.005811453
0.006181836
0.006553362
0.006924394
0.007292766
0.007655851
0.008010662
0.008353965
0.008682331
0.008992427
0.009280903
0.009545241
0.009748193
0.009834807
0.009895408
0.009961418
0.01004273
0.01013727
0.01023123
0.01030508
0.01021205
0.009968289
0.009707496
0.009414889
0.009083804
0.008716995
0.008324202
0.007917901
0.007509535
0.007107616
0.006718046
0.006346247
0.006000168
0.005692839
0.005444118
0.005273312
0.005173856
0.005056392
0.00466766
0.004014496
0.003272527
0.002446714
0.001556905
0.0006829625
6.406834e-05
5.663939e-05
0.0003677107
0.0007501686
0.00123472
0.001670752
0.002090801
0.002493238
0.002880796
0.003257478
0.003627231
0.003993459
0.004358873
0.004725462
0.005094505
0.005466586
0.005841614
0.006218866
0.006597007
0.006974131
0.007347828
0.007715278
0.008073357
0.008418728
0.008748133
0.009058073
0.009345509
0.009607095
0.009840195
0.0099912
0.01004168
0.01007783
0.01012635
0.01018903
0.01025719
0.01031495
0.01022583
0.009992562
0.009729855
0.009429546
0.009089526
0.008715081
0.008317009
0.007907943
0.007498965
0.00709795
0.006710152
0.006340523
0.005996675
0.005691819
0.005445705
0.005277461
0.005179927
0.005062303
0.004669452
0.004014996
0.003271995
0.002445308
0.001555365
0.0006820964
6.408328e-05
5.691048e-05
0.0003719617
0.0007397834
0.001218864
0.001666879
0.002084923
0.002487202
0.002876237
0.003255675
0.00362929
0.00400038
0.004371558
0.004744686
0.005120864
0.005500447
0.005883075
0.006267735
0.006652793
0.00703607
0.007414923
0.007786357
0.008147083
0.008493846
0.008823215
0.009131888
0.009417085
0.009675315
0.009904365
0.01010206
0.01018972
0.01021039
0.01023036
0.010264
0.01030326
0.01033392
0.01024053
0.01001745
0.009754845
0.009448442
0.009100244
0.008718396
0.008315094
0.007903175
0.007493206
0.007092282
0.006705314
0.006337181
0.005995303
0.00569274
0.00544919
0.005283689
0.005188296
0.00507031
0.004671967
0.00401603
0.003271808
0.002444519
0.001554323
0.0006813458
6.406141e-05
5.730289e-05
0.0003762633
0.0007304778
0.001201815
0.001665422
0.002081378
0.002484145
0.002875354
0.00325843
0.003636954
0.00401406
0.004392188
0.004772993
0.005157328
0.005545261
0.005936116
0.006328564
0.006720667
0.007109971
0.007493614
0.007868231
0.008230886
0.008578118
0.00890656
0.009213102
0.009494718
0.009748767
0.009972955
0.01016535
0.01032441
0.01035227
0.01034934
0.01035358
0.01036408
0.01036601
0.01026376
0.01004719
0.009783677
0.009471447
0.00911546
0.008726159
0.008317028
0.007901371
0.007490228
0.00708989
0.006704575
0.006338145
0.005998039
0.00569738
0.005455727
0.005292258
0.005198226
0.005079473
0.004675403
0.004017949
0.003272408
0.002444268
0.001553332
0.0006806454
6.408122e-05
5.774713e-05
0.0003804584
0.0007227913
0.001186383
0.001665314
0.002080257
0.002484136
0.00287846
0.003266304
0.003650985
0.004035398
0.004421733
0.004811362
0.005204822
0.005601838
0.006001391
0.006401815
0.006800878
0.007195752
0.007583068
0.007960396
0.008324052
0.008670715
0.00899717
0.009300565
0.009577867
0.009826807
0.01004532
0.0102317
0.01038464
0.01048338
0.01047844
0.01045761
0.01043791
0.01040824
0.01029363
0.01008091
0.009815685
0.009497929
0.009134927
0.008739348
0.008326583
0.007909856
0.007498548
0.007096138
0.006708486
0.00634226
0.006003617
0.005704328
0.005464646
0.005303995
0.005212773
0.005092574
0.004679654
0.00402046
0.003273444
0.002444131
0.001552966
0.0006802687
6.407404e-05
5.818955e-05
0.0003848977
0.0007164907
0.001171491
0.001667924
0.002082533
0.002488331
0.002886517
0.003280132
0.003672103
0.004065002
0.004460677
0.004860133
0.005263518
0.005670163
0.006078679
0.006486822
0.006891689
0.007291185
0.007682411
0.008061528
0.008425272
0.008770434
0.009093978
0.009393293
0.009665513
0.009908656
0.01012091
0.01030081
0.01044728
0.01055953
0.01059793
0.01056712
0.01052068
0.01045879
0.0103291
0.01011727
0.009849396
0.009526776
0.009158173
0.008757287
0.008338325
0.007914639
0.007497039
0.007096005
0.00671325
0.006350292
0.006012347
0.00571403
0.005476102
0.005315685
0.005223144
0.005102021
0.004684487
0.004023619
0.00327513
0.002444677
0.001552663
0.0006797686
6.410054e-05
5.866948e-05
0.0003892689
0.0007114742
0.001159847
0.001671099
0.002086654
0.002495783
0.002899013
0.003299583
0.003700246
0.004103062
0.004509409
0.004919825
0.00533387
0.005750182
0.006166555
0.00658176
0.006993285
0.007397413
0.007791018
0.008170819
0.008533598
0.008876289
0.009196091
0.009490358
0.009756849
0.009993657
0.01019922
0.01037232
0.01051208
0.01061791
0.01068951
0.01066996
0.01060759
0.01051797
0.0103721
0.01015724
0.009883624
0.009553564
0.009176918
0.008768124
0.008343773
0.007919369
0.00750448
0.007103274
0.00671957
0.006356527
0.006019833
0.005722938
0.005484933
0.005325194
0.005234216
0.00511251
0.004690071
0.004027404
0.003277307
0.002445545
0.001552798
0.0006796738
6.411063e-05
5.913491e-05
0.0003936491
0.0007081603
0.001149921
0.001676929
0.002094507
0.002507739
0.002918388
0.003327945
0.003738575
0.004152189
0.00456949
0.004990071
0.005413832
0.005839614
0.006265574
0.006688282
0.007104925
0.007512376
0.00790744
0.008286939
0.008647794
0.008987121
0.009302323
0.009591009
0.009851206
0.01008125
0.01027983
0.01044593
0.01057888
0.01067826
0.01074388
0.0107638
0.01069679
0.0105835
0.01041928
0.01019796
0.009917861
0.009582243
0.009200203
0.008786818
0.008359736
0.007933011
0.007516523
0.007113814
0.006728785
0.006364346
0.006027586
0.005731619
0.005497018
0.005341163
0.005251301
0.005126318
0.004696523
0.004031911
0.00328012
0.002446996
0.001553308
0.0006796109
6.412391e-05
5.953234e-05
0.0003977346
0.0007049238
0.001138247
0.001683616
0.00210413
0.002522583
0.00294026
0.003358957
0.003780438
0.00420565
0.004635042
0.005068496
0.005504205
0.005940185
0.006374104
0.006803117
0.00722419
0.007634178
0.008029918
0.008408329
0.008766484
0.009101756
0.009411744
0.009694375
0.009947912
0.01017094
0.01036239
0.01052145
0.01064762
0.01074062
0.0108004
0.01082704
0.01078227
0.01066066
0.01047768
0.01024535
0.009958059
0.009616536
0.009229243
0.008811251
0.008379196
0.007948503
0.007529125
0.007126244
0.006741562
0.00637757
0.006040806
0.005744638
0.005509419
0.005353834
0.005266572
0.005142705
0.004703483
0.004036893
0.003283378
0.002448784
0.001553987
0.0006798067
6.413802e-05
6.006137e-05
0.000402285
0.0007039741
0.001132513
0.001693164
0.002118162
0.002543904
0.002970992
0.003400795
0.003834436
0.004272391
0.004714391
0.00515939
0.005605564
0.006050583
0.006491772
0.006926188
0.007350737
0.007762275
0.008157722
0.008534149
0.00888881
0.009219368
0.009523652
0.009799853
0.01004649
0.01026238
0.01044667
0.01059875
0.01071826
0.01080505
0.01085916
0.01088073
0.01087003
0.01074717
0.01054715
0.01030197
0.01000553
0.009656424
0.009262713
0.008839182
0.008403097
0.007969405
0.007547855
0.007143061
0.00675682
0.006391635
0.006054179
0.005758037
0.005523638
0.005369182
0.005281871
0.00515573
0.004711022
0.004042405
0.003287084
0.002450982
0.001554972
0.0006801083
6.415701e-05
5.981339e-05
0.0004084646
0.0007038225
0.001128185
0.001694739
0.002134485
0.00256806
0.003005427
0.003447239
0.003893886
0.004345136
0.004800034
0.005256945
0.005713657
0.006167528
0.006615665
0.007054998
0.0074824
0.007894797
0.00828926
0.008663067
0.009013732
0.009339137
0.009637395
0.00990696
0.0101466
0.01035537
0.01053259
0.01067783
0.01079085
0.01087161
0.0109202
0.01093682
0.01092175
0.01082182
0.01061306
0.010357
0.01005177
0.009695938
0.009296428
0.00886782
0.008427477
0.007990454
0.007566557
0.007160246
0.006772976
0.006406949
0.006068769
0.00577216
0.00553783
0.005384211
0.005298027
0.005170904
0.004719229
0.004048496
0.003291245
0.002453452
0.001556127
0.0006804723
6.417989e-05
5.978045e-05
0.0004122859
0.0007045701
0.001122654
0.001690129
0.002154183
0.002596737
0.003045554
0.003500422
0.003960888
0.004425939
0.004893945
0.005362724
0.005829659
0.006291836
0.006746193
0.007189608
0.007619006
0.00803145
0.008424208
0.008794609
0.009140787
0.009460666
0.009752658
0.01001547
0.01024811
0.01044981
0.01062009
0.01075864
0.01086536
0.01094027
0.01098353
0.01099536
0.01097604
0.01088794
0.0106746
0.01041145
0.01009896
0.009736514
0.009331163
0.008897602
0.008453326
0.00801335
0.007587248
0.007179206
0.006790468
0.006423161
0.006083964
0.005786798
0.005552562
0.005399657
0.005314162
0.005185858
0.004727851
0.004054999
0.003295785
0.002456216
0.001557419
0.0006808003
6.419302e-05
6.05612e-05
0.0004153346
0.0007065826
0.001118523
0.001685324
0.002177503
0.002630189
0.003091458
0.003560194
0.004035038
0.00451416
0.00499525
0.005475604
0.005952239
0.006422022
0.006881799
0.007328468
0.007759064
0.008170825
0.008561233
0.008927896
0.009269183
0.009583302
0.009868912
0.01012496
0.01035065
0.01054541
0.01070892
0.010841
0.01094163
0.01101092
0.01104905
0.01105627
0.01103287
0.01095467
0.01073806
0.01046908
0.01014997
0.009780942
0.009369457
0.008930538
0.008481891
0.008038538
0.007609876
0.007199825
0.006809385
0.006440566
0.006100094
0.005802071
0.005567603
0.005415092
0.005330025
0.005200461
0.004736861
0.004061878
0.003300689
0.002459315
0.001558937
0.0006812088
6.421476e-05
6.151748e-05
0.0004189865
0.0007092015
0.001115536
0.001682245
0.002204081
0.00266795
0.003142559
0.003625831
0.004115456
0.00460877
0.005102799
0.005594353
0.006080136
0.006556861
0.007021342
0.007470551
0.007901672
0.008312151
0.008699712
0.00906228
0.0093984
0.009706592
0.00998576
0.01023507
0.01045392
0.01064192
0.01079887
0.01092471
0.01101951
0.01108341
0.01111664
0.01111944
0.01109208
0.01101931
0.01080039
0.01052752
0.01020309
0.00982794
0.009410327