/*--------------------------------*- C++ -*----------------------------------*\
| =========                 |                                                 |
| \\      /  F ield         | OpenFOAM: The Open Source CFD Toolbox           |
|  \\    /   O peration     | Version:  2312                                  |
|   \\  /    A nd           | Website:  www.openfoam.com                      |
|    \\/     M anipulation  |                                                 |
\*---------------------------------------------------------------------------*/
FoamFile
{
    version     2.0;
    format      ascii;
    arch        "LSB;label=32;scalar=64";
    class       volScalarField;
    location    "4050";
    object      omega;
}
// * * * * * * * * * * * * * * * * * * * * * * * * * * * * * * * * * * * * * //

dimensions      [0 0 -1 0 0 0 0];

internalField   nonuniform List<scalar> 
12000
(
51.24701
19.45714
21.03388
22.59181
23.82459
24.93221
25.8279
26.58342
27.25347
27.8947
28.48116
28.9518
29.36569
29.75509
30.13895
30.47182
30.73676
30.97783
31.20602
31.41828
31.59025
31.73527
31.86122
31.95696
32.03191
32.09005
32.13128
32.13814
32.14466
32.12424
32.10347
32.05917
32.00638
31.93206
31.77864
31.60617
31.5057
31.42676
31.2567
30.93395
30.3893
30.04333
29.99619
29.88767
29.35466
28.3334
27.85423
27.73066
27.68634
26.66408
25.31452
24.79964
24.56513
23.58876
22.28723
21.13143
20.01932
18.76903
17.45852
40.16696
88.806
22.78924
22.00177
22.35026
22.34151
22.42241
22.32664
21.9278
21.21743
20.5955
19.98526
19.22044
18.70103
18.22309
17.66761
16.93223
16.36337
16.07434
15.72864
15.25556
14.8077
14.48215
14.14218
13.81275
13.59284
13.37849
13.09573
12.88216
12.8083
12.75068
12.64611
12.53525
12.49828
12.50074
12.57588
12.67156
12.68563
12.68308
12.75059
12.99825
13.40746
13.72708
13.74123
13.84373
14.40585
15.37838
16.0874
16.13958
16.27499
17.64147
19.33855
20.45756
20.91691
22.80601
25.50588
28.20858
32.35189
39.50289
53.3087
75.67302
92.37328
23.00429
20.97564
20.29342
19.36748
18.46202
17.61178
16.69984
15.77314
14.7552
13.93307
13.27047
12.67102
12.13297
11.63312
11.21499
10.87892
10.58476
10.30253
10.05237
9.846995
9.67617
9.528121
9.407449
9.311668
9.23035
9.166679
9.12816
9.107748
9.09458
9.092128
9.095349
9.119162
9.166347
9.220915
9.282238
9.348523
9.429235
9.535322
9.667037
9.804215
9.933678
10.07334
10.25473
10.4678
10.70337
10.95862
11.25012
11.5957
11.97411
12.44643
13.10434
13.93907
14.93164
16.15104
18.18992
21.97218
29.1448
46.67203
83.81844
94.62879
21.92822
18.86181
17.9952
16.83468
15.72522
14.66526
13.64831
12.70135
11.90602
11.20411
10.5992
10.06574
9.608077
9.228187
8.909191
8.641765
8.405283
8.19912
8.026917
7.884734
7.766949
7.670121
7.592454
7.53163
7.485751
7.454313
7.436672
7.432973
7.436947
7.447827
7.471839
7.513672
7.566072
7.629232
7.704428
7.792687
7.895103
8.013509
8.148847
8.301758
8.473231
8.66455
8.879735
9.128131
9.411485
9.732799
10.09876
10.52101
11.01141
11.60072
12.29339
13.04385
13.96824
15.24185
17.19516
20.2963
26.23771
41.91146
89.59428
96.73526
21.04718
17.2743
16.23374
15.00738
13.84359
12.75687
11.75861
10.88673
10.1636
9.564915
9.063522
8.618841
8.21312
7.874884
7.59079
7.353742
7.149715
6.97435
6.82853
6.707756
6.607532
6.525585
6.460224
6.409923
6.373466
6.349945
6.34174
6.340851
6.348844
6.367454
6.401053
6.445966
6.502291
6.569767
6.649623
6.742416
6.848353
6.968145
7.102605
7.252498
7.419051
7.602303
7.802571
8.022111
8.26464
8.535204
8.833317
9.175225
9.568431
10.00434
10.47752
11.07478
11.9118
13.10345
14.84543
17.71943
23.41122
38.83891
93.52972
98.5965
20.76541
16.0174
14.81456
13.60048
12.46541
11.4359
10.52512
9.744291
9.084702
8.525585
8.04815
7.65097
7.308557
6.999632
6.730448
6.50163
6.308251
6.145466
6.008464
5.893662
5.798507
5.721184
5.660225
5.614387
5.58265
5.564193
5.559803
5.565083
5.582899
5.612741
5.654972
5.709884
5.77806
5.857205
5.948957
6.056458
6.178597
6.315752
6.468799
6.638718
6.826627
7.033935
7.261802
7.508366
7.779408
8.07702
8.412117
8.781191
9.175639
9.624695
10.16687
10.83664
11.67655
12.78608
14.39057
17.00366
22.13601
36.41835
96.54887
100.325
20.69129
15.05866
13.70244
12.53425
11.46137
10.50237
9.664211
8.945039
8.332223
7.809
7.359816
6.973446
6.644623
6.365019
6.117331
5.897158
5.708577
5.548354
5.413331
5.300599
5.207934
5.13361
5.076228
5.034636
5.007902
4.997886
4.997862
5.011684
5.038831
5.079166
5.131584
5.196494
5.275605
5.368524
5.474925
5.595888
5.732047
5.88389
6.051969
6.236844
6.439072
6.659187
6.897663
7.15532
7.432365
7.734894
8.060376
8.40453
8.782914
9.20907
9.701277
10.29242
11.043
12.06393
13.57194
16.06881
21.02601
34.8515
98.66485
102.494
20.83984
14.38949
12.84402
11.71262
10.7076
9.818401
9.04352
8.374962
7.799866
7.304266
6.87589
6.504287
6.181173
5.902979
5.665586
5.458074
5.275352
5.118628
4.986078
4.875754
4.785813
4.714701
4.661122
4.624
4.602455
4.596929
4.604033
4.625289
4.660386
4.709172
4.771468
4.847098
4.936679
5.040548
5.159073
5.292779
5.442234
5.608016
5.790724
5.99095
6.209266
6.446207
6.702269
6.977533
7.275181
7.593439
7.928493
8.285765
8.674679
9.106922
9.602602
10.19447
10.93505
11.92659
13.37026
15.7328
20.39317
33.49588
100.1778
104.5653
20.9029
13.88334
12.16667
11.06609
10.12488
9.296768
8.573662
7.946656
7.403876
6.93312
6.52367
6.166599
5.854807
5.582639
5.347583
5.146762
4.972937
4.821656
4.692882
4.585563
4.498489
4.430435
4.380275
4.347021
4.329928
4.328292
4.341037
4.368187
4.409502
4.464858
4.5347
4.618782
4.716891
4.829574
4.957349
5.10077
5.260424
5.436913
5.630828
5.842734
6.073125
6.322526
6.591027
6.880001
7.18733
7.512525
7.85665
8.221869
8.609056
9.026185
9.491004
10.03866
10.72919
11.66444
13.04465
15.3326
19.87871
32.6342
101.302
88.23117
20.80487
13.57898
11.66892
10.565
9.674367
8.903244
8.229821
7.641849
7.128302
6.67929
6.286092
5.941342
5.639044
5.374188
5.142895
4.943364
4.773348
4.628211
4.504387
4.401045
4.317266
4.252184
4.204914
4.174602
4.161829
4.163134
4.17956
4.210665
4.256166
4.315925
4.39062
4.48012
4.583935
4.70261
4.836722
4.986889
5.153764
5.338016
5.5403
5.761214
6.001249
6.260652
6.541643
6.842942
7.163314
7.49852
7.849442
8.217332
8.605042
9.020649
9.481516
10.01814
10.69374
11.60813
12.95065
15.16478
19.54316
31.83063
102.0235
90.26256
21.29341
13.40949
11.29648
10.17492
9.321516
8.59444
7.960592
7.406113
6.920787
6.494829
6.120224
5.790287
5.499564
5.243722
5.019349
4.823884
4.655873
4.513434
4.393941
4.294752
4.214734
4.152981
4.108761
4.08135
4.070797
4.074879
4.093938
4.127608
4.175653
4.237969
4.315201
4.407378
4.51418
4.636146
4.773885
4.928072
5.099441
5.288773
5.496865
5.724498
5.972389
6.241112
6.529234
6.836614
7.162751
7.507643
7.869078
8.244614
8.633576
9.04091
9.48482
10.00205
10.6465
11.51978
12.82197
14.99151
19.30339
31.37374
102.5808
107.9693
22.41688
13.44343
11.04936
9.874225
9.038766
8.349316
7.753302
7.231015
6.771288
6.365412
6.006276
5.688817
5.409198
5.164174
4.950213
4.764081
4.603007
4.465384
4.349565
4.254096
4.177573
4.118953
4.077219
4.05161
4.041896
4.04692
4.066699
4.100991
4.149672
4.212756
4.290835
4.384127
4.492369
4.615966
4.755475
4.911567
5.084996
5.276578
5.487162
5.717581
5.968592
6.240824
6.534463
6.849539
7.185273
7.539844
7.911038
8.296857
8.691359
9.09287
9.52049
10.01606
10.6432
11.50109
12.78233
14.91102
19.12869
30.9103
102.8806
93.72741
22.88246
13.52126
10.90368
9.661691
8.831367
8.169588
7.60399
7.109359
6.672479
6.286414
5.94654
5.649521
5.388932
5.156876
4.949638
4.765279
4.604686
4.46742
4.352219
4.257748
4.182929
4.126323
4.086418
4.062181
4.053071
4.058517
4.078372
4.112476
4.160763
4.223261
4.300341
4.392316
4.499395
4.622054
4.760902
4.916675
5.090203
5.282394
5.494208
5.726613
5.980499
6.256541
6.555085
6.875658
7.218654
7.584702
7.968996
8.36166
8.755452
9.151489
9.565785
10.04144
10.64713
11.48453
12.73912
14.84147
19.02586
30.7025
103.1363
94.67185
23.53731
13.66869
10.81531
9.508226
8.672494
8.029422
7.490407
7.022115
6.6103
6.247283
5.92836
5.646225
5.392735
5.166749
4.966117
4.789314
4.633853
4.499338
4.386023
4.293099
4.218889
4.1623
4.122416
4.098375
4.089383
4.094687
4.114015
4.14714
4.19409
4.255046
4.330349
4.420497
4.525967
4.647241
4.784974
4.93993
5.11298
5.305058
5.517142
5.750226
6.005291
6.28305
6.584833
6.913778
7.27007
7.647452
8.037412
8.431735
8.823435
9.212273
9.615761
10.07636
10.66377
11.48364
12.72373
14.80357
18.93818
30.45192
103.3013
95.5229
24.1997
13.8712
10.81427
9.415244
8.558667
7.924832
7.405844
6.959968
6.569117
6.224177
5.920868
5.652422
5.41401
5.200304
5.008689
4.837686
4.686989
4.556107
4.444338
4.351039
4.275886
4.21817
4.17705
4.151678
4.141305
4.145201
4.163044
4.194546
4.239776
4.29884
4.372059
4.460201
4.563898
4.683546
4.819858
4.97365
5.14585
5.337421
5.549314
5.7824
6.039054
6.322021
6.631875
6.968091
7.328816
7.710074
8.104131
8.499818
8.888265
9.270658
9.664762
10.11052
10.68068
11.48593
12.71138
14.77747
18.89829
30.36602
103.3852
96.15665
24.8023
14.09689
10.83306
9.357046
8.476694
7.845377
7.340034
6.911471
6.538202
6.21036
5.923578
5.671478
5.44569
5.241994
5.058734
4.895453
4.751112
4.624549
4.51519
4.422879
4.347284
4.28823
4.245256
4.217808
4.205304
4.20714
4.223022
4.252647
4.295843
4.35256
4.423002
4.508318
4.609525
4.726929
4.861217
5.013367
5.184572
5.376081
5.589275
5.82564
6.086739
6.373935
6.687975
7.028365
7.392482
7.774871
8.167475
8.561024
8.947095
9.324319
9.708912
10.14253
10.70014
11.49401
12.70855
14.76205
18.86578
30.30939
103.4487
96.58045
25.40721
14.34885
10.90243
9.342449
8.428063
7.790636
7.292464
6.876626
6.51785
6.204579
5.931743
5.692355
5.478671
5.286482
5.113366
4.957743
4.818742
4.696123
4.589477
4.49873
4.423686
4.364115
4.319812
4.290469
4.275723
4.275223
4.288121
4.315228
4.355893
4.410033
4.477458
4.55907
4.657081
4.772863
4.906511
5.058398
5.229602
5.421538
5.63576
5.873883
6.13747
6.427703
6.7449
7.088001
7.453971
7.837152
8.229
8.619166
8.999224
9.369563
9.747268
10.17312
10.7199
11.50091
12.70516
14.7487
18.83181
30.22888
103.4413
96.88636
25.95611
14.60955
10.99525
9.348251
8.399859
7.752273
7.256728
6.84988
6.5029
6.202272
5.941701
5.713978
5.511379
5.329261
5.164922
5.016715
4.883619
4.765145
4.661358
4.572174
4.49768
4.437809
4.392508
4.361612
4.344897
4.342119
4.352539
4.376985
4.414885
4.466245
4.53119
4.610127
4.7051
4.818565
4.951005
5.1024
5.273605
5.465986
5.68115
5.920741
6.186234
6.478634
6.79803
7.143033
7.510163
7.893355
8.283951
8.671745
9.048115
9.412639
9.78256
10.20005
10.73873
11.51249
12.71078
14.74656
18.82389
30.19741
103.3688
97.10621
26.45874
14.87483
11.10725
9.379669
8.391744
7.728109
7.230201
6.828498
6.490421
6.200064
5.949255
5.731007
5.538051
5.365009
5.208776
5.067429
4.93991
4.825741
4.724828
4.637368
4.563611
4.503762
4.457841
4.425789
4.407487
4.402796
4.411147
4.433296
4.468813
4.517753
4.580299
4.656824
4.749435
4.8609
4.991995
5.142747
5.313897
5.506714
5.722779
5.96374
6.231024
6.525468
6.846858
7.193397
7.561164
7.943702
8.332063
8.715974
9.087137
9.445797
9.809693
10.22107
10.75304
11.51986
12.71251
14.74313
18.80603
30.14988
103.3036
97.29573
26.9307
15.14443
11.23336
9.425747
8.39467
7.712674
7.209243
6.809531
6.477466
6.194616
5.950798
5.74091
5.556499
5.391248
5.241955
5.106645
4.984135
4.873909
4.77594
4.690512
4.617964
4.558577
4.512495
4.479778
4.460412
4.454352
4.461195
4.481634
4.515383
4.562572
4.623431
4.698303
4.789225
4.899117
5.029151
5.179571
5.351062
5.544775
5.762206
6.004939
6.2743
6.570939
6.894352
7.24237
7.610673
7.992482
8.378692
8.759049
9.125384
9.478168
9.835625
10.2407
10.76679
11.52855
12.71749
14.74466
18.80436
30.13283
103.1571
97.48051
27.34718
15.4083
11.36665
9.481918
8.408136
7.703921
7.191658
6.791001
6.462419
6.185158
5.947531
5.740905
5.562179
5.404239
5.261537
5.13171
5.013799
4.907388
4.812479
4.729345
4.658374
4.59993
4.554285
4.521581
4.501886
4.49524
4.501364
4.520947
4.553821
4.600186
4.66031
4.734478
4.824566
4.933602
5.063202
5.213839
5.386128
5.581118
5.800212
6.044898
6.316366
6.615056
6.94016
7.289144
7.657324
8.03764
8.420869
8.796877
9.157877
9.504912
9.856808
10.25693
10.77858
11.53655
12.72297
14.74787
18.80229
30.11491
103.0623
97.75276
27.76143
15.67247
11.50497
9.544537
8.427145
7.699022
7.175457
6.771301
6.443806
6.170006
5.936668
5.735444
5.55911
5.403415
5.264498
5.139635
5.026534
4.924309
4.832807
4.752411
4.683607
4.626823
4.582387
4.55052
4.531375
4.525068
4.531394
4.551096
4.584069
4.630579
4.691007
4.765926
4.856332
4.964874
5.094484
5.245993
5.419581
5.616185
5.837154
6.083883
6.357413
6.657964
6.984444
7.333994
7.701625
8.080065
8.460033
8.831536
9.187121
9.528339
9.874636
10.26992
10.78762
11.54259
12.72708
14.75026
18.80105
30.10001
102.9048
98.03554
28.16314
15.933
11.6462
9.611734
8.450181
7.69657
7.159488
6.749423
6.420647
6.148106
5.917086
5.71821
5.544897
5.392522
5.257041
5.135066
5.024785
4.92479
4.836395
4.759251
4.693449
4.639247
4.596935
4.566852
4.549239
4.544285
4.551815
4.572698
4.606842
4.654549
4.716226
4.792462
4.884099
4.993582
5.124005
5.276559
5.451586
5.649958
5.872893
6.121645
6.397086
6.69922
7.026688
7.376342
7.742934
8.119027
8.495336
8.862069
9.212201
9.547896
9.889256
10.28066
10.79559
11.54894
12.73318
14.75709
18.80871
30.09825
102.8205
98.24915
28.60917
16.20303
11.79057
9.681112
8.474618
7.694301
7.142062
6.724226
6.392281
6.119246
5.889095
5.691646
5.519978
5.369148
5.235419
5.11604
5.009266
4.914264
4.829491
4.75527
4.691808
4.639523
4.599599
4.571999
4.5568
4.554121
4.563772
4.586792
4.623061
4.672908
4.736749
4.815107
4.908673
5.019775
5.151603
5.305617
5.482308
5.682529
5.907403
6.158053
6.435187
6.7386
7.066684
7.416034
7.781187
8.15459
8.526994
8.888829
9.233496
9.563761
9.900373
10.28817
10.80065
11.55261
12.73627
14.75979
18.80994
30.09235
102.6909
98.39737
29.01019
16.46237
11.93586
9.753255
8.501139
7.692636
7.123476
6.696036
6.35916
6.084056
5.85348
5.656484
5.485731
5.336087
5.203866
5.086448
4.982047
4.88951
4.808107
4.737665
4.678351
4.630591
4.594015
4.569153
4.556419
4.556391
4.56882
4.594694
4.633813
4.686502
4.753156
4.834267
4.930433
5.043784
5.177462
5.333174
5.51162
5.713666
5.940361
6.192712
6.471269
6.775627
7.10395
7.452606
7.815957
8.186382
8.554709
8.91163
9.251008
9.576242
9.908729
10.29374
10.80476
11.55661
12.74148
14.76739
18.82024
30.09657
102.6344
98.51368
29.41349
16.74348
12.08697
9.825917
8.526583
7.689004
7.101932
6.663729
6.320708
6.0424
5.810448
5.613199
5.442909
5.294244
5.163462
5.047937
4.945875
4.856109
4.777957
4.711106
4.655498
4.611229
4.57846
4.557532
4.548781
4.552181
4.568244
4.597347
4.639819
4.695876
4.765887
4.850305
4.949613
5.065512
5.20114
5.358764
5.539167
5.743039
5.971399
6.225204
6.504886
6.809861
7.138078
7.485704
7.846965
8.214208
8.578377
8.930436
9.264704
9.58518
9.913805
10.29611
10.80591
11.55778
12.74322
14.77001
18.82352
30.09874
102.5281
112.0238
30.18294
17.04221
12.24135
9.901532
8.553297
7.684919
7.078397
6.628044
6.277636
5.99506
5.760891
5.562789
5.392598
5.244754
5.115398
5.001845
4.902259
4.815428
4.740604
4.677418
4.6257
4.585455
4.556767
4.539836
4.534926
4.542097
4.562137
4.595171
4.641407
4.701237
4.774923
4.862922
4.965929
5.085089
5.222933
5.382328
5.564514
5.770088
5.999982
6.255059
6.535624
6.840928
7.168737
7.515054
7.874011
8.237965
8.598003
8.94538
9.27487
9.591116
9.91617
10.29651
10.80586
11.55833
12.7465
14.7769
18.83535
30.11418
102.4809
112.8721
30.71282
17.31482
12.38528
9.973167
8.577533
7.678272
7.051616
6.588241
6.22958
5.941985
5.705016
5.505675
5.335384
5.188323
5.060478
4.949071
4.852196
4.768579
4.697408
4.638179
4.590618
4.554624
4.530266
4.51767
4.517023
4.528264
4.55228
4.589212
4.639471
4.70324
4.780833
4.872619
4.97924
5.101696
5.242263
5.403761
5.58765
5.794706
6.025877
6.281956
6.563122
6.868466
7.195591
7.54037
7.896874
8.257502
8.613502
8.95641
9.281382
9.593314
9.916294
10.29593
10.80525
11.55843
12.74698
14.77868
18.83873
30.11629
102.399
113.0537
31.1901
17.58434
12.52773
10.04487
8.60103
7.669874
7.022167
6.544966
6.177376
5.884233
5.6441
5.443318
5.272876
5.126672
5.000506
4.891471
4.797561
4.717409
4.650119
4.595065
4.551901
4.520452
4.500694
4.49267
4.496408
4.512251
4.540402
4.581216
4.635216
4.702821
4.784251
4.879814
4.990034
5.11577
5.259099
5.422732
5.608257
5.816621
6.048833
6.305647
6.587138
6.892258
7.218472
7.56155
7.915534
8.272887
8.625029
8.963794
9.284774
9.593777
9.914232
10.29242
10.80189
11.55648
12.7471
14.78362
18.85055
30.1379
102.3754
113.07
31.66982
17.86695
12.66935
10.11218
8.62207
7.659064
6.989812
6.498247
6.121295
5.822314
5.578871
5.376638
5.206154
5.061012
4.936799
4.830448
4.739817
4.663417
4.60024
4.5496
4.511068
4.484383
4.469408
4.466131
4.474451
4.49481
4.527257
4.572067
4.629722
4.700835
4.785789
4.884842
4.998432
5.127324
5.273378
5.439094
5.626128
5.835604
6.068614
6.325903
6.607464
6.912131
7.237254
7.578537
7.930019
8.284229
8.632749
8.96768
9.284942
9.591015
9.909545
10.28709
10.79712
11.55329
12.74635
14.78423
18.8535
30.14356
102.3179
113.3057
32.15537
18.1579
12.80743
10.17304
8.638356
7.644619
6.954311
6.448522
6.062216
5.757391
5.510671
5.307079
5.1367
4.992811
4.870768
4.767329
4.680213
4.607836
4.549048
4.503033
4.469247
4.447393
4.437266
4.438747
4.451875
4.47673
4.513463
4.562308
4.623578
4.697904
4.785977
4.888142
5.004767
5.136537
5.285104
5.452739
5.641123
5.851528
6.085128
6.342675
6.624107
6.928163
7.252086
7.591512
7.940484
8.291636
8.636748
8.968059
9.282355
9.585903
9.90299
10.28024
10.79106
11.54893
12.74426
14.78516
18.86333
30.16782
102.3119
113.5331
32.64954
18.46253
12.94961
10.23291
8.652582
7.627866
6.916425
6.396397
6.000772
5.690191
5.440341
5.235588
5.065562
4.923207
4.803638
4.703417
4.620105
4.551958
4.497663
4.456375
4.427469
4.410537
4.405298
4.411523
4.429299
4.458591
4.49952
4.55229
4.617192
4.694661
4.785439
4.890215
5.009428
5.143715
5.294516
5.463848
5.65339
5.864536
6.098531
6.356132
6.637218
6.940437
7.26298
7.600526
7.947151
8.295518
8.637373
8.965792
9.277296
9.57876
9.894726
10.27192
10.78371
11.54339
12.74106
14.78547
18.86543
30.17522
102.2956
113.7549
33.11115
18.75907
13.08447
10.28396
8.659909
7.6062
6.875042
6.341711
5.937402
5.621542
5.368963
5.163421
4.994098
4.853607
4.736806
4.640054
4.560737
4.496926
4.447256
4.410735
4.3867
4.374628
4.37418
4.385055
4.407323
4.440889
4.48584
4.542349
4.610684
4.691212
4.784534
4.891492
5.012817
5.14919
5.301876
5.47264
5.663131
5.874831
6.109037
6.36652
6.647166
6.949635
7.271078
7.606983
7.951068
8.296397
8.635497
8.961142
9.270314
9.570262
9.885702
10.26316
10.77597
11.53741
12.7375
14.78545
18.87207
30.19702
102.3305
114.0099
33.57872
19.06909
13.2288
10.33999
8.66872
7.584339
6.832947
6.286334
5.873614
5.552847
5.297931
5.09197
4.923672
4.785295
4.671448
4.578297
4.503079
4.443714
4.398726
4.367001
4.347756
4.34042
4.344574
4.359994
4.386529
4.424133
4.472859
4.532854
4.604362
4.687734
4.783437
4.892288
5.015273
5.153252
5.307401
5.479276
5.670487
5.88258
6.116889
6.374194
6.654343
6.955891
7.275708
7.609432
7.951588
8.294869
8.631554
8.954797
9.26193
9.560425
9.875181
10.25288
10.76682
11.53002
12.73226
14.78306
18.87294
30.20559
102.3568
114.2131
34.02316
19.3639
13.36081
10.38594
8.670105
7.557535
6.787629
6.229004
5.808789
5.483805
5.227103
5.021169
4.854276
4.718375
4.607825
4.518541
4.447527
4.392609
4.352201
4.325161
4.310603
4.307886
4.316538
4.336275
4.366894
4.408321
4.460579
4.523796
4.598199
4.68413
4.782054
4.89262
5.016863
5.155985
5.311177
5.483841
5.675519
5.887773
6.121955
6.378774
6.658047
6.958295
7.276809
7.609102
7.949286
8.290413
8.624919
8.946084
9.251377
9.548594
9.862993
10.24128
10.75662
11.52183
12.72634
14.78003
18.87416
30.21913
102.3784
114.1928
34.44835
19.67032
13.50454
10.43947
8.676394
7.534125
6.745138
6.174396
5.746829
5.417838
5.159555
4.953862
4.788586
4.655325
4.548076
4.462529
4.395538
4.344883
4.3089
4.286335
4.276236
4.277867
4.29072
4.314438
4.3488
4.393705
4.449159
4.515272
4.592259
4.680447
4.780289
4.892384
5.017659
5.157472
5.313251
5.486354
5.678221
5.890364
6.124112
6.380338
6.658863
6.958198
7.275343
7.605884
7.944088
8.283147
8.615697
8.935234
9.23943
9.53614
9.850516
10.22922
10.74563
11.51261
12.71926
14.77554
18.87331
30.22194
102.3821
113.5193
34.83653
19.95044
13.63495
10.48293
8.675792
7.505849
6.699505
6.118076
5.684382
5.352454
5.093495
4.888733
4.725516
4.595086
4.49122
4.409472
4.346617
4.300292
4.268687
4.250439
4.244556
4.250243
4.266973
4.294363
4.332149
4.380198
4.438493
4.507141
4.586355
4.676469
4.777937
4.891354
5.017474
5.157676
5.313702
5.486952
5.678801
5.890738
6.124093
6.379638
6.657196
6.955292
7.270992
7.599931
7.936452
8.273836
8.604816
8.922999
9.226199
9.52247
9.83713
10.21677
10.73455
11.50315
12.71147
14.7704
18.87278
30.22766
102.3855
107.0869
35.02832
20.21471
13.76409
10.52793
8.676169
7.479508
6.656366
6.064747
5.625307
5.290698
5.031202
4.827408
4.666221
4.538566
4.438047
4.360057
4.301228
4.259033
4.231573
4.217426
4.215532
4.225051
4.245389
4.276119
4.31698
4.367836
4.428662
4.499552
4.580711
4.672462
4.775261
4.889707
5.016553
5.157081
5.313102
5.486229
5.67782
5.889321
6.122042
6.376764
6.653313
6.950217
7.264559
7.592004
7.92696
8.262811
8.592416
8.909509
9.212023
9.508089
9.823052
10.20348
10.72262
11.49308
12.7033
14.76369
18.86797
30.22723
102.3924
109.6819
35.43166
20.49259
13.8998
10.57303
8.676333
7.455128
6.616518
6.015528
5.570872
5.233909
4.974054
4.77131
4.612181
4.487313
4.390091
4.315715
4.260661
4.222297
4.198652
4.188317
4.189992
4.202906
4.226435
4.260128
4.303701
4.357007
4.420021
4.492825
4.575614
4.668706
4.772548
4.887736
5.015034
5.155672
5.311503
5.484277
5.675374
5.886239
6.118177
6.371968
6.647434
6.94311
7.256099
7.582115
7.915645
8.250166
8.578637
8.89489
9.196948
9.493022
9.808474
10.18979
10.7102
11.48231
12.69465
14.75836
18.86725
30.2319
102.3985
112.8615
35.87042
20.76652
14.03828
10.61901
8.676817
7.432545
6.579638
5.9701
5.520792
5.181855
4.92189
4.72034
4.563318
4.441188
4.347111
4.276131
4.224596
4.189784
4.169652
4.162711
4.16763
4.18359
4.209951
4.246262
4.292216
4.347643
4.4125
4.486866
4.57094
4.665039
4.769619
4.885279
5.012789
5.153331
5.308785
5.481011
5.671424
5.881485
6.112506
6.365271
6.639605
6.934051
7.245737
7.570425
7.902674
8.236051
8.563609
8.879263
9.181103
9.477382
9.793447
10.17568
10.69726
11.47068
12.68415
14.74905
18.86075
30.23495
102.4104
115.1993
36.25184
21.02255
14.17378
10.66476
8.67827
7.41225
6.546132
5.928847
5.475436
5.134881
4.875008
4.674735
4.519802
4.400305
4.3092
4.241382
4.193087
4.16151
4.144525
4.140584
4.148371
4.167029
4.195876
4.234431
4.282378
4.339545
4.405887
4.481482
4.56653
4.661353
4.766407
4.882298
5.009802
5.150074
5.305007
5.476537
5.666114
5.875233
6.105229
6.356896
6.630064
6.923287
7.233718
7.557171
7.888278
8.220689
8.547537
8.862802
9.164618
9.46126
9.778048
10.16128
10.68412
11.4591
12.67446
14.74203
18.85789
30.24117
102.4293
115.9092
36.55364
21.26316
14.30922
10.71227
8.682102
7.395395
6.51696
5.892591
5.43551
5.093568
4.83386
4.63481
4.481814
4.364717
4.276298
4.211318
4.165916
4.137203
4.123014
4.121693
4.131965
4.152919
4.183862
4.224297
4.273896
4.332479
4.399997
4.476529
4.562275
4.657562
4.762855
4.878766
5.006078
5.145926
5.300211
5.470921
5.659547
5.867624
6.096518
6.347039
6.619027
6.911047
7.220281
7.542595
7.87269
8.204296
8.530614
8.845668
9.147614
9.444714
9.762223
10.14632
10.67015
11.44619
12.66251
14.73129
18.84995
30.24382
102.4621
115.7157
36.79538
21.48708
14.44228
10.76131
8.68912
7.382865
6.492828
5.861849
5.401383
5.058183
4.798635
4.600695
4.449434
4.334474
4.248427
4.185933
4.14304
4.116782
4.10511
4.106013
4.118392
4.141275
4.17395
4.215907
4.266811
4.326478
4.394859
4.472033
4.558206
4.653711
4.759019
4.874752
5.001701
5.140996
5.294538
5.464338
5.651928
5.858892
6.086631
6.335978
6.606781
6.897621
7.205714
7.526977
7.85618
8.187123
8.513065
8.828064
9.130284
9.42796
9.746285
10.13134
10.65628
11.43359
12.65126
14.72153
18.84172
30.23518
102.4816
115.5086
37.03261
21.70499
14.57596
10.81216
8.699033
7.374423
6.473844
5.836911
5.373382
5.029007
4.769543
4.572523
4.422737
4.309598
4.225575
4.165202
4.124446
4.1003
4.090644
4.093448
4.107563
4.132005
4.166048
4.209177
4.26105
4.321484
4.39043
4.467973
4.554322
4.649818
4.754941
4.87032
4.996756
5.135386
5.288102
5.456922
5.643415
5.849214
6.075762
6.323913
6.593529
6.883211
7.190207
7.510489
7.838894
8.169285
8.49497
8.810026
9.112607
9.410906
9.730038
10.11599
10.64192
11.42034
12.63917
14.71098
18.83382
30.23265
102.4925
114.7343
37.23628
21.91386
14.71131
10.86794
8.715105
7.373328
6.461672
5.818596
5.351887
5.006189
4.746599
4.550237
4.401613
4.289957
4.207599
4.148974
4.109982
4.087555
4.07951
4.083825
4.099303
4.124945
4.160014
4.203985
4.256518
4.317426
4.386666
4.464326
4.550624
4.645908
4.750667
4.865538
4.991333
5.1292
5.281022
5.448807
5.634157
5.838757
6.064088
6.311028
6.579456
6.867994
7.173932
7.493293
7.82098
8.150915
8.476445
8.791662
9.094697
9.393696
9.713699
10.1006
10.62758
11.4072
12.62737
14.70103
18.82716
30.2338
102.4985
114.3343
37.42519
22.11267
14.84449
10.9242
8.734516
7.375859
6.455282
5.806635
5.33688
4.989756
4.729808
4.533797
4.385991
4.275448
4.194376
4.137119
4.0995
4.0784
4.071579
4.077024
4.0935
4.119991
4.155749
4.200246
4.253138
4.314242
4.383519
4.461063
4.547101
4.641989
4.746225
4.860457
4.985502
5.122523
5.273388
5.440088
5.624261
5.827637
6.051732
6.297448
6.564684
6.852091
7.156998
7.475487
7.802522
8.132077
8.457532
8.772977
9.076507
9.376201
9.697011
10.08474
10.61255
11.39305
12.61415
14.68916
18.8183
30.23639
102.5186
114.5441
37.62133
22.30694
14.98057
10.98964
8.759438
7.384218
6.455524
5.801593
5.328423
4.979586
4.719005
4.523045
4.375727
4.26594
4.185779
4.129504
4.092879
4.072731
4.066767
4.072977
4.090091
4.117083
4.153197
4.197904
4.250862
4.311892
4.38096
4.458169
4.543754
4.638081
4.741655
4.855133
4.979342
5.115451
5.265307
5.430887
5.613862
5.816
6.038852
6.283342
6.549392
6.835683
7.13959
7.457254
7.783697
8.112942
8.438393
8.754131
9.058204
9.358622
9.680245
10.06879
10.59745
11.37889
12.60099
14.6772
18.80771
30.22486
102.5314
114.8837
37.79601
22.48874
15.11563
11.06137
8.78896
7.396209
6.4604
5.802383
5.327179
4.976521
4.714804
4.518353
4.371023
4.261543
4.181876
4.126185
4.090161
4.070579
4.0651
4.071693
4.089069
4.116192
4.152309
4.196896
4.249626
4.310321
4.378951
4.455625
4.540586
4.634206
4.737001
4.849634
4.972944
5.108101
5.256919
5.421356
5.603118
5.804017
6.025628
6.268895
6.533764
6.818952
7.121883
7.438757
7.764653
8.093637
8.41913
8.735194
9.039827
9.34096
9.663365
10.05267
10.58213
11.36446
12.58751
14.66501
18.79794
30.22201
102.5535
115.6178
37.98093
22.66653
15.25372
11.14059
8.824682
7.413783
6.471349
5.808666
5.329865
4.97776
4.715404
4.518739
4.371323
4.261825
4.182187
4.126562
4.090651
4.071192
4.065806
4.072442
4.089788
4.116798
4.15271
4.196993
4.249295
4.309444
4.377445
4.453418
4.537613
4.63041
4.73233
4.844039
4.966404
5.100602
5.248379
5.411661
5.592204
5.791861
6.012233
6.254279
6.517969
6.802059
7.104027
7.420132
7.745507
8.074258
8.399813
8.716212
9.021396
9.323223
9.646387
10.03645
10.56667
11.34981
12.57368
14.65207
18.78626
30.21572
102.5703
116.3345
38.14357
22.83466
15.39284
11.22573
8.866465
7.437259
6.488219
5.821227
5.339667
4.985383
4.721461
4.523628
4.375562
4.265787
4.186097
4.130512
4.094585
4.075023
4.069447
4.075795
4.092752
4.119271
4.154598
4.19821
4.249797
4.309213
4.376413
4.451542
4.534854
4.626733
4.727699
4.838418
4.959835
5.093136
5.239863
5.401914
5.581215
5.779641
5.998781
6.239603
6.502104
6.785085
7.086082
7.401414
7.726268
8.054783
8.380394
8.697114
9.002827
9.305315
9.629196
10.01996
10.55088
11.33479
12.55953
14.63922
18.77589
30.21188
102.5894
117.0564
38.2982
22.99573
15.53234
11.31645
8.914585
7.466976
6.511115
5.8396
5.354932
4.99839
4.732842
4.533884
4.384963
4.274512
4.194258
4.138168
4.101771
4.081725
4.075613
4.081333
4.097574
4.123299
4.157772
4.200491
4.251149
4.309596
4.375848
4.450015
4.532357
4.623259
4.723242
4.832973
4.953394
5.085677
5.231328
5.392219
5.570301
5.767481
5.985367
6.224941
6.48623
6.768082
7.068093
7.382645
7.706978
8.03526
8.360929
8.677967
8.984194
9.287318
9.611873
10.00327
10.5348
11.31933
12.54474
14.62538
18.76386
30.20507
102.6089
117.7188
38.44215
23.15123
15.67418
11.41297
8.969219
7.502996
6.54003
5.863865
5.37576
5.016644
4.749147
4.548693
4.398583
4.28715
4.206045
4.149176
4.112015
4.091163
4.084182
4.088935
4.104133
4.128763
4.162115
4.203714
4.253265
4.31063
4.375809
4.448914
4.530216
4.620092
4.719057
4.827771
4.947168
5.078409
5.222969
5.382697
5.559561
5.755486
5.972095
6.210394
6.470444
6.751146
7.050157
7.363922
7.687729
8.015774
8.34149
8.658821
8.965526
9.269232
9.594396
9.986359
10.51842
11.3035
12.52944
14.6108
18.75104
30.19627
102.6225
118.3107
38.57439
23.29971
15.81523
11.51488
9.033157
7.544511
6.57267
5.892664
5.401361
5.039625
4.769996
4.567798
4.416237
4.30356
4.221339
4.163405
4.125167
4.103198
4.095045
4.098526
4.112385
4.135629
4.1676
4.207874
4.256164
4.31232
4.37633
4.448332
4.528552
4.617366
4.71528
4.822947
4.941288
5.071456
5.214912
5.373476
5.549114
5.743764
5.95907
6.196061
6.454842
6.734367
7.032357
7.345318
7.668584
7.996371
8.322106
8.639691
8.946821
9.251048
9.576757
9.969226
10.50179
11.28743
12.51398
14.59607
18.73779
30.18568
102.6287
119.0022
38.71408
23.44729
15.95916
11.62405
9.10563
7.592423
6.610346
5.926222
5.431604
5.067115
4.795176
4.591023
4.437784
4.323628
4.240057
4.180862
4.141289
4.117814
4.108082
4.10993
4.122161
4.143813
4.17424
4.21304
4.259954
4.314821
4.37761
4.448424
4.527503
4.615202
4.712019
4.818597
4.935843
5.064911
5.207243
5.364625
5.539017
5.732366
5.946335
6.181985
6.439462
6.717781
7.014727
7.326863
7.649567
7.977072
8.302792
8.620588
8.92809
9.232785
9.558991
9.951927
10.48496
11.27114
12.49832
14.58114
18.72403
30.17416
102.6278
119.723
38.84331
23.5895
16.10325
11.73887
9.185549
7.646718
6.653446
5.96466
5.466368
5.098877
4.824432
4.618162
4.463124
4.347452
4.262415
4.201473
4.159968
4.134557
4.122928
4.122889
4.133285
4.153179
4.181941
4.219169
4.264611
4.318109
4.379605
4.449187
4.527073
4.613612
4.70929
4.814741
4.930856
5.058791
5.199972