/*--------------------------------*- C++ -*----------------------------------*\
| =========                 |                                                 |
| \\      /  F ield         | OpenFOAM: The Open Source CFD Toolbox           |
|  \\    /   O peration     | Version:  2312                                  |
|   \\  /    A nd           | Website:  www.openfoam.com                      |
|    \\/     M anipulation  |                                                 |
\*---------------------------------------------------------------------------*/
FoamFile
{
    version     2.0;
    format      ascii;
    arch        "LSB;label=32;scalar=64";
    class       surfaceScalarField;
    location    "4050";
    object      phi;
}
// * * * * * * * * * * * * * * * * * * * * * * * * * * * * * * * * * * * * * //

dimensions      [1 0 -1 0 0 0 0];

oriented        oriented;

internalField   nonuniform List<scalar> 
23740
(
-0.0001314109
0.0001310663
-0.0002546633
0.000123253
-0.000374194
0.0001195314
-0.0004929424
0.0001187491
-0.0006222615
0.0001293199
-0.0007623822
0.0001401215
-0.0008898015
0.0001274201
-0.0009886192
9.881848e-05
-0.001075705
8.708632e-05
-0.001189953
0.0001142492
-0.001308403
0.0001184507
-0.001392323
8.392031e-05
-0.001447595
5.527247e-05
-0.001515032
6.743748e-05
-0.00160341
8.837847e-05
-0.001679901
7.649171e-05
-0.001726736
4.683477e-05
-0.00176657
3.983423e-05
-0.001818045
5.147558e-05
-0.001869736
5.169105e-05
-0.001910592
4.085545e-05
-0.001947432
3.683991e-05
-0.001982464
3.503228e-05
-0.002009317
2.685325e-05
-0.002031975
2.265729e-05
-0.002057255
2.52798e-05
-0.002078761
2.150531e-05
-0.002089896
1.113524e-05
-0.002096425
6.528818e-06
-0.002104479
8.053433e-06
-0.002112568
8.088585e-06
-0.002117649
5.081369e-06
-0.002116728
-9.213e-07
-0.002107803
-8.924778e-06
-0.002094704
-1.309882e-05
-0.002087965
-6.738412e-06
-0.002086659
-1.305898e-06
-0.002079692
-6.966536e-06
-0.002053775
-2.59162e-05
-0.00200617
-4.760453e-05
-0.00196736
-3.880948e-05
-0.001954677
-1.268178e-05
-0.001941657
-1.301836e-05
-0.001895639
-4.601651e-05
-0.001807071
-8.856766e-05
-0.001738017
-6.905335e-05
-0.001716289
-2.172693e-05
-0.001695771
-2.051694e-05
-0.001608272
-8.749891e-05
-0.001477073
-0.0001311989
-0.001389202
-8.787035e-05
-0.001337361
-5.184072e-05
-0.001233288
-0.0001040725
-0.001084689
-0.0001485984
-0.0009473905
-0.0001372986
-0.0008080584
-0.0001393318
-0.0006424858
-0.0001655723
-0.0004352642
-0.0002072211
-0.0002153935
-0.0002198696
-0.0002153933
-0.000124989
0.0002560557
-0.0002517416
0.0002500062
-0.0003798786
0.0002476691
-0.000501934
0.0002408052
-0.0006061437
0.0002335305
-0.0006951807
0.0002291593
-0.0007864726
0.0002187129
-0.0008885595
0.0002009062
-0.0009881705
0.0001866982
-0.001052015
0.0001780945
-0.001104625
0.0001710611
-0.001175815
0.0001551119
-0.001259278
0.0001387357
-0.001322016
0.0001301757
-0.001357906
0.0001242692
-0.001395773
0.0001143592
-0.001450468
0.0001015301
-0.001502623
9.198975e-05
-0.001536686
8.553854e-05
-0.001563784
7.87886e-05
-0.001593991
7.106296e-05
-0.001621051
6.389971e-05
-0.001643117
5.709809e-05
-0.001666302
5.003761e-05
-0.001687301
4.365638e-05
-0.001700091
3.806915e-05
-0.001710562
3.197638e-05
-0.001724732
2.530454e-05
-0.001737536
1.933252e-05
-0.001743742
1.425926e-05
-0.001745119
9.464817e-06
-0.001745708
5.670539e-06
-0.001744242
-2.387479e-06
-0.001744379
-8.787502e-06
-0.001742733
-1.474436e-05
-0.001729401
-2.00703e-05
-0.00170544
-2.526545e-05
-0.001679769
-3.263735e-05
-0.00166405
-4.163462e-05
-0.001662721
-4.893248e-05
-0.001646495
-5.50333e-05
-0.001597551
-6.162436e-05
-0.001540758
-6.981001e-05
-0.001506499
-8.027321e-05
-0.001503458
-9.160787e-05
-0.001470817
-0.0001016925
-0.001382667
-0.0001098759
-0.001282938
-0.0001202458
-0.001236178
-0.0001342575
-0.001219573
-0.0001478035
-0.001146085
-0.0001613585
-0.00102323
-0.0001746946
-0.0009373194
-0.0001899831
-0.0008809313
-0.0002049861
-0.0007815353
-0.0002366942
-0.0006484684
-0.0002723982
-0.0005141932
-0.000299847
-0.0003707122
-0.0003507015
-0.0001993471
-0.0003912338
-0.0004147403
-0.0001037013
0.0003597577
-0.0002049034
0.0003512091
-0.000302496
0.0003452625
-0.0003972108
0.0003355208
-0.0004858848
0.0003222053
-0.0005645553
0.0003078308
-0.0006369795
0.0002911379
-0.0007095746
0.0002735021
-0.0007865467
0.0002636712
-0.0008551758
0.0002467243
-0.0009121393
0.0002280253
-0.0009684088
0.0002113821
-0.001022637
0.0001929644
-0.0010716
0.0001791398
-0.001113667
0.0001663367
-0.001152755
0.0001534472
-0.001191981
0.000140756
-0.001229042
0.0001290508
-0.001261805
0.0001183017
-0.001290989
0.0001079726
-0.001317817
9.789067e-05
-0.001342128
8.821058e-05
-0.001363877
7.884693e-05
-0.001383519
6.967916e-05
-0.001400715
6.085281e-05
-0.001414992
5.234528e-05
-0.001426892
4.387638e-05
-0.001436999
3.541085e-05
-0.001444838
2.717099e-05
-0.001449799
1.922066e-05
-0.001452554
1.221955e-05
-0.001451338
4.454196e-06
-0.001448841
-4.883986e-06
-0.001444001
-1.362792e-05
-0.001436402
-2.234253e-05
-0.001425368
-3.11036e-05
-0.001410574
-4.005911e-05
-0.001393598
-4.961265e-05
-0.001375447
-5.978429e-05
-0.001354069
-7.030902e-05
-0.001328206
-8.089468e-05
-0.001298156
-9.167365e-05
-0.001264486
-0.0001034777
-0.001228708
-0.0001160504
-0.001190461
-0.0001298539
-0.001148109
-0.0001440435
-0.001099454
-0.000158529
-0.001045452
-0.0001742471
-0.0009885028
-0.0001912062
-0.0009280504
-0.0002082553
-0.0008675359
-0.0002218725
-0.000800871
-0.0002413591
-0.0007233741
-0.0002674796
-0.0006333694
-0.0002949905
-0.0005371408
-0.0003329224
-0.00044612
-0.0003634186
-0.0003440832
-0.0004018832
-0.000245065
-0.000449719
-0.0001282988
-0.0005079992
-0.000543039
-8.406185e-05
0.00044382
-0.0001630468
0.0004301946
-0.0002381167
0.0004203328
-0.0003095126
0.0004069173
-0.0003774551
0.0003901484
-0.0004410794
0.0003714556
-0.0005010033
0.0003510623
-0.0005589198
0.000331419
-0.0006086085
0.0003133604
-0.0006598011
0.0002979173
-0.0007098814
0.000278106
-0.0007603386
0.0002618397
-0.0008075287
0.0002401549
-0.0008503589
0.0002219703
-0.0008894858
0.0002054639
-0.0009257034
0.0001896651
-0.0009608381
0.0001758909
-0.0009936098
0.0001618226
-0.00102326
0.0001479515
-0.001050044
0.0001347566
-0.001074299
0.0001221462
-0.00109612
0.0001100316
-0.001115587
9.831335e-05
-0.001132816
8.690825e-05
-0.001147747
7.578321e-05
-0.001160297
6.489552e-05
-0.001170589
5.416823e-05
-0.001178727
4.354766e-05
-0.001184596
3.304051e-05
-0.001189096
2.372056e-05
-0.001190806
1.392962e-05
-0.001189062
2.709563e-06
-0.001185736
-8.209553e-06
-0.001180309
-1.905529e-05
-0.001172685
-2.996588e-05
-0.001162538
-4.124955e-05
-0.001149744
-5.285233e-05
-0.0011345
-6.485661e-05
-0.001116963
-7.732027e-05
-0.001097012
-9.025812e-05
-0.001074188
-0.000103718
-0.001048075
-0.0001177859
-0.001018864
-0.0001326869
-0.0009882741
-0.0001466395
-0.0009544868
-0.0001636402
-0.0009172521
-0.0001812774
-0.0008761821
-0.0001995982
-0.0008316422
-0.0002187863
-0.0007856102
-0.0002372376
-0.0007371787
-0.0002566865
-0.0006810636
-0.0002779872
-0.000614392
-0.0003080302
-0.000541437
-0.0003404343
-0.0004655124
-0.0003709147
-0.0003961558
-0.0004022786
-0.0003223277
-0.0004372463
-0.0002458803
-0.0004783302
-0.0001678086
-0.0005277902
-8.800932e-05
-0.0005877978
-0.0006310482
-6.656106e-05
0.0005103814
-0.0001306304
0.0004942643
-0.0001907611
0.0004804638
-0.0002477285
0.000463885
-0.0003021001
0.0004445203
-0.0003540636
0.0004234194
-0.0004043491
0.0004013482
-0.0004519114
0.0003789815
-0.0004956005
0.0003570498
-0.000533108
0.000335425
-0.0005705256
0.0003155239
-0.0006069488
0.0002982631
-0.0006459212
0.0002791275
-0.0006826113
0.0002586606
-0.0007159642
0.000238817
-0.0007465056
0.0002202066
-0.0007747946
0.00020418
-0.0008012447
0.0001882728
-0.0008256423
0.0001723492
-0.0008478508
0.0001569651
-0.0008679195
0.0001422149
-0.0008858929
0.000128005
-0.0009018087
0.000114229
-0.0009157143
0.0001008137
-0.0009276347
8.770349e-05
-0.0009375867
7.484739e-05
-0.00094561
6.219136e-05
-0.0009517514
4.968894e-05
-0.0009559922
3.728124e-05
-0.0009583981
2.61264e-05
-0.000957885
1.341649e-05
-0.0009560478
8.724211e-07
-0.000952429
-1.182817e-05
-0.0009468007
-2.468342e-05
-0.0009401544
-3.661186e-05
-0.0009311524
-5.025111e-05
-0.0009199558
-6.404829e-05
-0.0009066674
-7.814427e-05
-0.000891313
-9.267384e-05
-0.0008738439
-0.0001077263
-0.0008541781
-0.0001233829
-0.0008322254
-0.0001397376
-0.000808129
-0.0001567825
-0.0007815083
-0.0001732593
-0.0007522582
-0.0001928893
-0.0007205844
-0.0002129504
-0.000686301
-0.0002338809
-0.0006506825
-0.0002544043
-0.0006113472
-0.0002765724
-0.0005654986
-0.0003025346
-0.0005117016
-0.0003317838
-0.0004582195
-0.0003615119
-0.0004073142
-0.0003913393
-0.0003555234
-0.0004227052
-0.0003007494
-0.0004570523
-0.0002429215
-0.0004950739
-0.0001833971
-0.0005378542
-0.0001237095
-0.0005874773
-6.381393e-05
-0.0006476929
-0.0006948621
-5.087008e-05
0.0005612518
-0.0001004359
0.0005438304
-0.0001465855
0.0005266136
-0.0001900505
0.0005073503
-0.000231351
0.000485821
-0.0002708407
0.0004629094
-0.0003088773
0.000439385
-0.0003456265
0.0004157309
-0.0003809655
0.0003923891
-0.0004150026
0.0003694623
-0.0004466735
0.000347195
-0.0004740985
0.0003256882
-0.0005014594
0.0003064886
-0.0005300543
0.0002872557
-0.0005583735
0.0002671363
-0.0005849505
0.0002467838
-0.0006085385
0.0002277681
-0.0006299189
0.0002096533
-0.0006497043
0.0001921345
-0.0006678866
0.0001751475
-0.0006843618
0.0001586901
-0.0006990868
0.00014273
-0.0007120696
0.0001272117
-0.0007233373
0.0001120814
-0.0007329209
9.728709e-05
-0.0007408525
8.27789e-05
-0.0007471688
6.85076e-05
-0.0007519046
5.442467e-05
-0.0007550967
4.047334e-05
-0.0007556346
2.666428e-05
-0.0007549385
1.272052e-05
-0.0007537137
-3.522755e-07
-0.0007507604
-1.478135e-05
-0.0007461772
-2.926642e-05
-0.0007399481
-4.284061e-05
-0.0007320669
-5.813187e-05
-0.0007225788
-7.35358e-05
-0.0007114666
-8.925595e-05
-0.0006987152
-0.0001054245
-0.000684296
-0.0001221447
-0.0006681732
-0.0001395049
-0.0006503229
-0.0001575872
-0.0006306496
-0.000176455
-0.0006076626
-0.0001962456
-0.000583332
-0.0002172192
-0.0005570702
-0.0002392116
-0.0005296044
-0.0002613461
-0.0004989896
-0.0002850186
-0.0004636047
-0.0003119568
-0.0004261277
-0.0003400111
-0.0003887094
-0.0003692016
-0.0003507737
-0.0003994473
-0.0003108982
-0.0004312145
-0.0002686368
-0.0004649663
-0.0002246439
-0.0005010449
-0.0001796944
-0.0005400231
-0.0001345008
-0.0005830475
-8.964716e-05
-0.0006323305
-4.583091e-05
-0.0006915086
-0.0007406929
-3.904987e-05
0.0006003019
-7.717482e-05
0.0005819556
-0.0001123666
0.0005618056
-0.0001454929
0.0005404768
-0.0001771148
0.000517443
-0.0002075684
0.0004933632
-0.0002370405
0.0004688572
-0.0002656203
0.0004443108
-0.0002932491
0.000420018
-0.0003199145
0.0003961279
-0.0003454794
0.00037276
-0.0003696938
0.0003499027
-0.0003907716
0.0003275665
-0.000410322
0.0003068062
-0.0004305438
0.0002873582
-0.000450921
0.000267161
-0.0004697577
0.0002466048
-0.0004870125
0.0002269082
-0.0005027626
0.0002078846
-0.0005170733
0.0001894582
-0.000529963
0.0001715798
-0.0005414362
0.0001542032
-0.0005515048
0.0001372804
-0.0005601864
0.0001207629
-0.0005675013
0.000104602
-0.0005734698
8.874734e-05
-0.0005781088
7.314669e-05
-0.000581429
5.774486e-05
-0.0005834377
4.248209e-05
-0.0005840791
2.730574e-05
-0.0005834609
1.210239e-05
-0.000582369
-1.444028e-06
-0.0005800027
-1.714743e-05
-0.0005764431
-3.28258e-05
-0.0005707003
-4.858305e-05
-0.0005641096
-6.472225e-05
-0.0005564379
-8.120702e-05
-0.0005475653
-9.812802e-05
-0.0005374204
-0.0001155689
-0.0005259448
-0.0001336197
-0.0005130784
-0.0001523706
-0.0004987525
-0.0001719124
-0.0004828753
-0.0001923316
-0.0004654009
-0.0002137194
-0.0004463917
-0.0002362278
-0.0004264439
-0.0002591588
-0.0004043455
-0.000283444
-0.0003790436
-0.00031032
-0.0003527582
-0.0003382418
-0.0003254497
-0.0003673192
-0.0002969379
-0.000397713
-0.0002669228
-0.000429462
-0.0002354729
-0.0004626641
-0.0002029087
-0.0004975302
-0.000169523
-0.0005344303
-0.000135573
-0.0005739729
-0.0001013975
-0.0006172227
-6.748133e-05
-0.0006662463
-3.429351e-05
-0.0007246959
-0.0007749864
-2.942613e-05
0.0006297283
-5.783179e-05
0.0006103614
-8.370966e-05
0.0005876837
-0.0001079994
0.0005647667
-0.0001312627
0.0005407064
-0.0001538043
0.0005159049
-0.0001757658
0.0004908188
-0.0001972033
0.0004657485
-0.0002180818
0.0004408965
-0.0002383332
0.0004163793
-0.0002578503
0.0003922773
-0.0002765768
0.0003686292
-0.000294458
0.0003454477
-0.0003104628
0.000322811
-0.0003244478
0.0003013433
-0.000338452
0.0002811653
-0.000352498
0.0002606508
-0.0003655127
0.000239923
-0.0003774794
0.0002198514
-0.0003883773
0.0002003561
-0.0003981977
0.0001814002
-0.0004069382
0.0001629438
-0.0004146056
0.0001449478
-0.0004212139
0.0001273712
-0.0004267816
0.0001101698
-0.0004313291
9.329485e-05
-0.000434877
7.66947e-05
-0.0004374462
6.03141e-05
-0.0004390586
4.409453e-05
-0.0004397284
2.79757e-05
-0.0004395176
1.189167e-05
-0.0004381312
-2.830308e-06
-0.0004359919
-1.928649e-05
-0.0004329986
-3.581891e-05
-0.0004290662
-5.251509e-05
-0.00042427
-6.951819e-05
-0.0004185854
-8.689126e-05
-0.0004119897
-0.0001047233
-0.0004044554
-0.0001231027
-0.000395953
-0.0001421217
-0.000386449
-0.0001618741
-0.0003759054
-0.0001824556
-0.0003642857
-0.0002039507
-0.0003514586
-0.0002265461
-0.0003378553
-0.0002498306
-0.0003226437
-0.00027437
-0.0003050246
-0.0003010627
-0.0002864373
-0.0003289068
-0.0002667329
-0.0003579458
-0.0002458301
-0.0003882217
-0.0002237951
-0.0004197478
-0.0002007105
-0.0004525463
-0.0001766758
-0.0004866985
-0.0001518307
-0.0005223751
-0.0001263763
-0.0005598844
-0.0001005764
-0.0005997725
-7.476013e-05
-0.0006430386
-4.935747e-05
-0.0006916485
-2.492486e-05
-0.0007491279
-0.0007999111
-2.192379e-05
0.0006516523
-4.263308e-05
0.0006310709
-6.106392e-05
0.0006061146
-7.824496e-05
0.0005819479
-9.476424e-05
0.0005572258
-0.0001108801
0.0005320208
-0.0001266629
0.0005066018
-0.0001420915
0.0004811771
-0.0001571134
0.0004559185
-0.0001716796
0.0004309456
-0.0001857392
0.0004063368
-0.0001992555
0.0003821456
-0.0002122208
0.0003584131
-0.000224592
0.0003351822
-0.0002357143
0.0003124656
-0.0002452831
0.0002907341
-0.0002547287
0.0002700964
-0.0002642073
0.0002494016
-0.0002730559
0.0002287001
-0.0002812051
0.0002085054
-0.0002885709
0.000188766
-0.0002951287
0.0001695017
-0.0003008772
0.0001506963
-0.0003058301
0.0001323241
-0.0003100085
0.0001143483
-0.0003134354
9.672181e-05
-0.0003161339
7.939327e-05
-0.0003181269
6.230717e-05
-0.0003194364
4.540409e-05
-0.0003200819
2.862132e-05
-0.0003200842
1.189407e-05
-0.0003191104
-3.803975e-06
-0.0003176142
-2.07825e-05
-0.0003155445
-3.788833e-05
-0.0003128562
-5.520321e-05
-0.0003095566
-7.281757e-05
-0.0003056309
-9.081658e-05
-0.0003010632
-0.0001092907
-0.0002958336
-0.000128332
-0.0002899203
-0.0001480346
-0.0002833003
-0.0001684937
-0.0002759528
-0.0001898027
-0.0002678321
-0.000212071
-0.0002590951
-0.0002352827
-0.000249261
-0.0002596643
-0.0002377106
-0.00028592
-0.0002253581
-0.0003134148
-0.0002120931
-0.0003421715
-0.0001978038
-0.0003722348
-0.0001824489
-0.0004035762
-0.0001660667
-0.0004361297
-0.0001487672
-0.0004698455
-0.0001307157
-0.0005047497
-0.0001121084
-0.0005409822
-9.315356e-05
-0.000578839
-7.406588e-05
-0.0006188598
-5.506891e-05
-0.0006620353
-3.641315e-05
-0.0007103038
-1.83937e-05
-0.0007671467
-0.0008183048
-1.550935e-05
0.0006671618
-2.970423e-05
0.0006452659
-4.206386e-05
0.0006184744
-5.345521e-05
0.0005933393
-6.430763e-05
0.0005680782
-7.480624e-05
0.0005425195
-8.505047e-05
0.000516846
-9.516898e-05
0.0004912956
-0.0001052324
0.000465982
-0.000115206
0.0004409192
-0.0001250308
0.0004161616
-0.0001346408
0.0003917556
-0.0001439696
0.0003677418
-0.0001529416
0.0003441543
-0.0001614892
0.0003210132
-0.000169109
0.0002983539
-0.0001755156
0.0002765031
-0.0001816614
0.0002555473
-0.0001877127
0.0002347515
-0.0001932898
0.0002140825
-0.0001983471
0.0001938233
-0.0002028543
0.0001740089
-0.0002068193
0.0001546614
-0.0002102757
0.0001357805
-0.0002132564
0.000117329
-0.0002157762
9.924169e-05
-0.0002178453
8.146246e-05
-0.0002194724
6.393432e-05
-0.0002206654
4.65972e-05
-0.0002214319
2.938792e-05
-0.0002217782
1.224049e-05
-0.0002213861
-4.195988e-06
-0.0002206547
-2.151379e-05
-0.000219561
-3.898185e-05
-0.0002180851
-5.667888e-05
-0.0002162139
-7.46886e-05
-0.0002139319
-9.309839e-05
-0.0002112225
-0.0001119999
-0.0002080662
-0.0001314881
-0.0002044397
-0.0001516609
-0.000200315
-0.0001726181
-0.0001956579
-0.0001944596
-0.0001904361
-0.0002172925
-0.0001845683
-0.0002411502
-0.0001776971
-0.0002665353
-0.0001702593
-0.0002933576
-0.0001621546
-0.0003215192
-0.000153199
-0.0003511268
-0.0001432604
-0.0003821732
-0.0001322825
-0.0004145538
-0.0001203437
-0.0004480683
-0.0001076289
-0.0004825601
-9.434698e-05
-0.0005180314
-8.068535e-05
-0.0005546436
-6.681664e-05
-0.0005927074
-5.290316e-05
-0.0006327731
-3.911027e-05
-0.0006758278
-2.564977e-05
-0.0007237638
-1.284586e-05
-0.00077995
-0.0008311505
-1.110173e-05
0.0006782636
-2.09012e-05
0.0006550655
-2.897028e-05
0.0006265436
-3.600852e-05
0.0006003776
-4.243313e-05
0.0005745029
-4.860955e-05
0.0005486959
-5.468792e-05
0.0005229244
-6.074662e-05
0.0004973543
-6.682564e-05
0.000472061
-7.289079e-05
0.0004469843
-7.891796e-05
0.0004221888
-8.488037e-05
0.000397718
-9.078018e-05
0.0003736416
-9.659263e-05
0.0003499667
-0.0001022413
0.0003266618
-0.000107624
0.0003037366
-0.0001123332
0.0002812122
-0.0001160949
0.000259309
-0.000119383
0.0002380395
-0.0001224605
0.00021716
-0.0001253398
0.0001967026
-0.0001280314
0.0001767005
-0.0001305229
0.0001571529
-0.00013279
0.0001380476
-0.0001348282
0.0001193673
-0.0001366335
0.000101047
-0.0001382071
8.303607e-05
-0.0001395503
6.527758e-05
-0.0001406655
4.771252e-05
-0.000141556
3.027848e-05
-0.0001422252
1.290978e-05
-0.0001423961
-4.024954e-06
-0.0001423861
-2.152371e-05
-0.0001421783
-3.918951e-05
-0.000141759
-5.709807e-05
-0.0001411162
-7.533123e-05
-0.0001402354
-9.397899e-05
-0.0001390999
-0.0001131352
-0.0001376892
-0.0001328986
-0.0001359769
-0.000153373
-0.000133928
-0.0001746668
-0.0001314931
-0.0001968943
-0.0001286243
-0.0002201611
-0.0001251255
-0.0002446488
-0.0001212135
-0.000270447
-0.0001170512
-0.0002975197
-0.0001123422
-0.000326228
-0.0001068774
-0.0003565914
-0.00010039
-0.0003886603
-9.275225e-05
-0.0004221914
-8.417271e-05
-0.0004566476
-7.50067e-05
-0.0004917259
-6.551957e-05
-0.0005275183
-5.586769e-05
-0.0005642952
-4.617227e-05
-0.0006024026
-3.653458e-05
-0.0006424105
-2.70467e-05
-0.0006853154
-1.781141e-05
-0.0007329986
-8.971906e-06
-0.0007887889
-0.0008401224
-6.612849e-06
0.0006848767
-1.161242e-05
0.0006600652
-1.453467e-05
0.0006294659
-1.651405e-05
0.0006023571
-1.863867e-05
0.0005766276
-2.108167e-05
0.000551139
-2.394465e-05
0.0005257874
-2.702154e-05
0.0005004312
-3.004081e-05
0.0004750802
-3.308421e-05
0.0004500277
-3.618507e-05
0.0004252896
-3.936175e-05
0.0004008946
-4.260171e-05
0.0003768815
-4.579587e-05
0.0003531608
-4.876653e-05
0.0003296324
-5.140535e-05
0.0003063754
-5.370746e-05
0.0002835143
-5.558483e-05
0.0002611864
-5.716759e-05
0.0002396223
-5.878273e-05
0.0002187752
-6.050375e-05
0.0001984237
-6.235689e-05
0.0001785536
-6.434997e-05
0.000159146
-6.638237e-05
0.0001400801
-6.832843e-05
0.0001213134
-7.017257e-05
0.0001028912
-7.190378e-05
8.476731e-05
-7.351902e-05
6.689287e-05
-7.501754e-05
4.92111e-05
-7.639844e-05
3.165943e-05
-7.766173e-05
1.417314e-05
-7.858748e-05
-3.099121e-06
-7.942979e-05
-2.068132e-05
-8.017962e-05
-3.843959e-05
-8.082779e-05
-5.64498e-05
-8.136849e-05
-7.479042e-05
-8.179282e-05
-9.355455e-05
-8.209041e-05
-0.0001128375
-8.224824e-05
-0.0001327407
-8.224907e-05
-0.000153372
-8.206861e-05
-0.0001748471
-8.16708e-05
-0.0001972919
-8.099423e-05
-0.0002208375
-8.001821e-05
-0.0002456247
-7.870062e-05
-0.0002717645
-7.686255e-05
-0.0002993577
-7.450204e-05
-0.0003285884
-7.135201e-05
-0.0003597413
-6.72046e-05
-0.0003928076
-6.209669e-05
-0.0004272992
-5.616271e-05
-0.0004625815
-4.979027e-05
-0.0004980982
-4.331179e-05
-0.0005339966
-3.681723e-05
-0.0005707896
-3.03383e-05
-0.0006088813
-2.390848e-05
-0.00064884
-1.75774e-05
-0.0006916462
-1.143082e-05
-0.0007391447
-5.649718e-06
-0.0007945694
-0.000845772
-3.610999e-06
0.0006884879
-5.119595e-06
0.000661574
-4.79782e-06
0.0006291443
-3.884308e-06
0.0006014436
-2.494267e-06
0.0005752376
-9.324352e-07
0.0005495771
5.916611e-07
0.0005242633
1.759915e-06
0.0004992629
2.305996e-06
0.0004745341
2.248989e-06
0.0004500846
1.577604e-06
0.0004259609
2.762231e-07
0.000402196
-1.427183e-06
0.0003785849
-3.318855e-06
0.0003550525
-5.334642e-06
0.0003316481
-7.367432e-06
0.0003084082
-9.326467e-06
0.0002854733
-1.112443e-05
0.0002629843
-1.257911e-05
0.0002410769
-1.36844e-05
0.0002198804
-1.460655e-05
0.0001993458
-1.543032e-05
0.0001793774
-1.621343e-05
0.0001599291
-1.708187e-05
0.0001409485
-1.813476e-05
0.0001223663
-1.937221e-05
0.0001041287
-2.075849e-05
8.615362e-05
-2.224263e-05
6.837705e-05
-2.378895e-05
5.075746e-05
-2.537219e-05
3.324272e-05
-2.697049e-05
1.577149e-05
-2.841655e-05
-1.653006e-06
-2.989794e-05
-1.919985e-05
-3.139774e-05
-3.693972e-05
-3.289808e-05
-5.494938e-05
-3.438366e-05
-7.330476e-05
-3.584402e-05
-9.20941e-05
-3.726792e-05
-0.0001114135
-3.864435e-05
-0.0001313642
-3.996278e-05
-0.0001520535
-4.121358e-05
-0.0001735962
-4.238521e-05
-0.0001961202
-4.347229e-05
-0.0002197504
-4.445487e-05
-0.000244642
-4.517866e-05
-0.0002710406
-4.533391e-05
-0.0002992023
-4.461039e-05
-0.0003293118
-4.30452e-05
-0.0003613064
-4.087695e-05
-0.0003949758
-3.802853e-05
-0.0004301475
-3.448761e-05
-0.0004661222
-3.052135e-05
-0.0005020643
-2.645841e-05
-0.0005380594
-2.24419e-05
-0.0005748059
-1.846696e-05
-0.000612856
-1.455104e-05
-0.0006527557
-1.072947e-05
-0.0006954674
-7.052036e-06
-0.0007428217
-3.585068e-06
-0.0007980358
-0.000849357
-1.95116e-06
0.0006904393
-1.4088e-06
0.0006610319
5.165892e-07
0.000627219
3.423593e-06
0.0005985367
6.761657e-06
0.0005718995
1.014163e-05
0.0005461971
1.34116e-05
0.0005209933
1.656268e-05
0.0004961117
1.95235e-05
0.0004715732
2.223812e-05
0.0004473699
2.463152e-05
0.0004235674
2.658413e-05
0.0004002432
2.784037e-05
0.0003773285
2.8304e-05
0.0003545887
2.806375e-05
0.0003318883
2.720799e-05
0.0003092638
2.596964e-05
0.0002867116
2.455074e-05
0.0002644031
2.31e-05
0.0002425276
2.182568e-05
0.0002211547
2.078004e-05
0.0002003914
1.99198e-05
0.0001802376
1.919305e-05
0.0001606559
1.852497e-05
0.0001416166
1.782297e-05
0.0001230683
1.702615e-05
0.0001049255
1.609509e-05
8.70847e-05
1.499608e-05
6.947608e-05
1.372747e-05
5.20261e-05
1.231317e-05
3.465705e-05
1.075418e-05
1.733053e-05
9.10769e-06
-6.475058e-09
7.265046e-06
-1.735716e-05
5.302941e-06
-3.497756e-05
3.233237e-06
-5.287961e-05
1.078385e-06
-7.114985e-05
-1.142345e-06
-8.987331e-05
-3.411933e-06
-0.0001091438
-5.717697e-06
-0.0001290583
-8.056144e-06
-0.000149715
-1.044142e-05
-0.0001712109
-1.285471e-05
-0.0001937068
-1.521922e-05
-0.0002173858
-1.74447e-05
-0.0002424165
-1.941598e-05
-0.0002690692
-2.098359e-05
-0.0002976346
-2.205121e-05
-0.0003282441
-2.248264e-05
-0.0003608748
-2.207262e-05
-0.0003953857
-2.094211e-05
-0.0004312779
-1.930428e-05
-0.00046776
-1.714616e-05
-0.0005042223
-1.474158e-05
-0.0005404639
-1.238874e-05
-0.0005771586
-1.008963e-05
-0.000615155
-7.850317e-06
-0.0006549948
-5.686635e-06
-0.0006976308
-3.628756e-06
-0.0007448791
-1.746927e-06
-0.000799917
-0.0008511039
-8.222976e-07
0.0006912619
1.0357e-06
0.0006591741
4.995801e-06
0.0006232591
9.937549e-06
0.0005935951
1.518155e-05
0.0005666556
2.043051e-05
0.0005409482
2.553491e-05
0.0005158888
3.036609e-05
0.0004912805
3.48472e-05
0.000467092
3.888175e-05
0.0004433352
4.236626e-05
0.0004200828
4.518567e-05
0.0003974237
4.740627e-05
0.0003751078
4.925383e-05
0.0003527411
5.082472e-05
0.0003303173
5.214337e-05
0.0003079451
5.301934e-05
0.0002858355
5.332902e-05
0.0002640934
5.324749e-05
0.0002426091
5.290051e-05
0.0002215017
5.238857e-05
0.0002009033
5.175483e-05
0.0001808713
5.099892e-05
0.0001614118
5.013032e-05
0.0001424852
4.916693e-05
0.0001240317
4.810984e-05
0.0001059826
4.692835e-05
8.82662e-05
4.558918e-05
7.081527e-05
4.408203e-05
5.353327e-05
4.240494e-05
3.633417e-05
4.055397e-05
1.918154e-05
3.850717e-05
2.040356e-06
3.616358e-05
-1.501353e-05
3.363301e-05
-3.244694e-05
3.093627e-05
-5.018283e-05
2.808947e-05
-6.8303e-05
2.510819e-05
-8.689197e-05
2.201002e-05
-0.0001060456
1.881337e-05
-0.0001258616
1.554122e-05
-0.0001464428
1.222516e-05
-0.0001678948
8.913857e-06
-0.0001903955
5.699725e-06
-0.0002141716
2.701878e-06
-0.0002394186
-1.830934e-08
-0.000266349
-2.470919e-06
-0.0002951819
-4.622912e-06
-0.0003260921
-6.346572e-06
-0.0003591511
-7.541561e-06
-0.0003941906
-8.08822e-06
-0.0004307312
-7.81996e-06
-0.0004680281
-6.879558e-06
-0.0005051626
-5.7144e-06
-0.0005416289
-4.60123e-06
-0.0005782717
-3.557936e-06
-0.0006161981
-2.595439e-06
-0.0006559571
-1.730891e-06
-0.0006984951
-9.906593e-07
-0.000745619
-4.230496e-07
-0.0008004842
-0.0008515268
7.787868e-08
0.0006911842
3.34486e-06
0.0006559073
8.777354e-06
0.0006178268
1.518062e-05
0.0005871919
2.193732e-05
0.0005598989
2.870852e-05
0.000534177
3.526314e-05
0.0005093341
4.143776e-05
0.0004851058
4.712035e-05
0.0004614093
5.222039e-05
0.0004382351
5.669133e-05
0.0004156117
6.055585e-05
0.0003935591
6.389794e-05
0.0003717656
6.675385e-05
0.000349885
6.914639e-05
0.0003279246
7.107352e-05
0.0003060179
7.261155e-05
0.0002842974
7.388991e-05
0.000262815
7.478894e-05
0.00024171
7.52542e-05
0.0002210363
7.534008e-05
0.0002008174
7.50907e-05
0.0001811207
7.455356e-05
0.0001619489
7.375429e-05
0.0001432844
7.270703e-05
0.0001250789
7.142425e-05
0.0001072654
6.992378e-05
8.976668e-05
6.823611e-05
7.250295e-05
6.637794e-05
5.539146e-05
6.435157e-05
3.836056e-05
6.215891e-05
2.137422e-05
5.975306e-05
4.44624e-06
5.69969e-05
-1.225735e-05
5.388887e-05
-2.933888e-05
5.057301e-05
-4.686693e-05
4.7094e-05
-6.482395e-05
4.34617e-05
-8.325963e-05
3.968285e-05
-0.0001022667
3.577703e-05
-0.0001219558
3.178619e-05
-0.0001424519
2.778869e-05
-0.0001638972
2.385723e-05
-0.000186464
2.004045e-05
-0.0002103548
1.640735e-05
-0.0002357854
1.303698e-05
-0.0002629786
9.992545e-06
-0.0002921375
7.301564e-06
-0.000323401
4.946403e-06
-0.0003567959
2.933697e-06
-0.0003921779
1.354175e-06
-0.0004291516
2.799828e-07
-0.0004669539
-2.877717e-07
-0.0005045948
-4.763851e-07
-0.0005414402
-5.14945e-07
-0.000578233
-5.215194e-07
-0.0006161914
-5.052918e-07
-0.0006559731
-4.704067e-07
-0.0006985297
-4.142417e-07
-0.0007456746
-3.014704e-07
-0.0008005961
-0.0008518282
6.393411e-07
0.0006905452
4.796305e-06
0.0006517506
1.11006e-05
0.0006115226
1.845356e-05
0.000579839
2.622661e-05
0.0005521259
3.404099e-05
0.0005263626
4.164771e-05
0.0005017273
4.887727e-05
0.0004778761
5.561787e-05
0.0004546685
6.180005e-05
0.0004320527
6.739618e-05
0.0004100154
7.240586e-05
0.0003885492
7.680138e-05
0.0003673699
8.053795e-05
0.0003461483
8.362308e-05
0.0003248394
8.612351e-05
0.0003035173
8.813868e-05
0.0002822821
8.968921e-05
0.0002612643
9.080275e-05
0.0002405964
9.147589e-05
0.0002203631
9.167305e-05
0.0002006202
9.145436e-05
0.0001813393
9.085521e-05
0.000162548
8.991464e-05
0.000144225
8.866808e-05
0.0001263255
8.714469e-05
0.0001087888
8.536633e-05
9.154504e-05
8.335127e-05
7.451802e-05
8.111525e-05
5.762749e-05
7.867234e-05
4.080349e-05
7.603497e-05
2.401161e-05
7.319458e-05
7.286662e-06
7.01623e-05
-9.225045e-06
6.664834e-05
-2.582488e-05
6.285706e-05
-4.307562e-05
5.88836e-05
-6.085045e-05
5.476592e-05
-7.914191e-05
5.052421e-05
-9.802498e-05
4.618547e-05
-0.000117617
4.179238e-05
-0.0001380588
3.740639e-05
-0.0001595112
3.310198e-05
-0.0001821595
2.895641e-05
-0.0002062092
2.504345e-05
-0.0002318724
2.142215e-05
-0.0002593572
1.813358e-05
-0.0002888489
1.520906e-05
-0.0003204765
1.267403e-05
-0.0003542608
1.053656e-05
-0.0003900404
8.772535e-06
-0.0004273875
7.367739e-06
-0.000465549
6.335692e-06
-0.0005035626
5.622407e-06
-0.0005407268
5.017043e-06
-0.0005776275
4.3525e-06
-0.0006155267
3.626518e-06
-0.0006552469
2.833571e-06
-0.0006977365
1.960371e-06
-0.000744801
9.912906e-07
-0.0007996265
-0.0008508369
7.917626e-07
0.0006897538
5.41853e-06
0.0006471241
1.231192e-05
0.0006046294
2.032679e-05
0.0005718242
2.879979e-05
0.0005436529
3.732382e-05
0.0005178385
4.563376e-05
0.0004934173
5.35528e-05
0.0004699569
6.09688e-05
0.0004472524
6.782039e-05
0.000425201
7.408959e-05
0.000403746
7.979298e-05
0.0003828456
8.488946e-05
0.0003622733
8.930777e-05
0.0003417299
9.30387e-05
0.0003211083
9.6095e-05
0.0003004609
9.848836e-05
0.0002798887
0.0001002501
0.0002595025
0.0001014378
0.0002394086
0.0001021029
0.000219698
0.000102298
0.0002004251
0.0001020093
0.0001816279
0.0001012671
0.0001632902
0.00010011
0.000145382
9.858052e-05
0.000127855
9.671992e-05
0.0001106494
9.456662e-05
9.369834e-05
9.215361e-05
7.693104e-05
8.950362e-05
6.027749e-05
8.662706e-05
4.368006e-05
8.352764e-05
2.711105e-05
8.02258e-05
1.058852e-05
7.682714e-05
-5.826366e-06
7.306331e-05
-2.206102e-05
6.901017e-05
-3.902245e-05
6.474729e-05
-5.658755e-05
6.034026e-05
-7.473485e-05
5.583809e-05
-9.352278e-05
5.128369e-05
-0.0001130625
4.672491e-05
-0.0001335
4.221915e-05
-0.0001550054
3.782846e-05
-0.0001777688
3.361344e-05
-0.0002019941
2.963089e-05
-0.0002278898
2.592901e-05
-0.0002556553
2.254124e-05
-0.0002854611
1.948368e-05
-0.0003174189
1.676003e-05
-0.0003515372
1.437443e-05
-0.0003876547
1.233796e-05
-0.000425351
1.065194e-05
-0.000463863
9.273646e-06
-0.0005021843
8.111468e-06
-0.0005395646
7.008811e-06
-0.0005765247
5.860625e-06
-0.0006143783
4.681746e-06
-0.0006540679
3.486545e-06
-0.0006965411
2.289499e-06
-0.0007436036
1.104099e-06
-0.0007984405
-0.0008497327
7.678604e-07
0.0006889862
5.588697e-06
0.0006423035
1.275767e-05
0.0005974606
2.110829e-05
0.0005634737
2.995496e-05
0.0005348062
3.887185e-05
0.0005089215
4.758309e-05
0.0004847059
5.591069e-05
0.0004616292
6.37465e-05
0.0004394164
7.103619e-05
0.0004179111
7.776928e-05
0.0003970128
8.39699e-05