/*--------------------------------*- C++ -*----------------------------------*\
| =========                 |                                                 |
| \\      /  F ield         | OpenFOAM: The Open Source CFD Toolbox           |
|  \\    /   O peration     | Version:  2312                                  |
|   \\  /    A nd           | Website:  www.openfoam.com                      |
|    \\/     M anipulation  |                                                 |
\*---------------------------------------------------------------------------*/
FoamFile
{
    version     2.0;
    format      ascii;
    arch        "LSB;label=32;scalar=64";
    class       volScalarField;
    location    "4050";
    object      qin;
}
// * * * * * * * * * * * * * * * * * * * * * * * * * * * * * * * * * * * * * //

dimensions      [1 0 -3 0 0 0 0];

internalField   uniform 0;

boundaryField
{
    plate
    {
        type            calculated;
        value           nonuniform List<scalar> 
200
(
2235.566
2199.064
2175.641
2149.536
2117.62
2092.144
2082.987
2088.772
2100.955
2112.793
2120.639
2120.964
2111.886
2096.88
2083.164
2076.456
2078.847
2089.924
2107.04
2124.979
2137.897
2142.869
2141.74
2139.944
2143.147
2153.368
2167.517
2180.365
2189.062
2193.978
2196.001
2195.24
2192.65
2190.661
2190.904
2192.593
2194.471
2197.308
2202.801
2210.525
2217.752
2222.342
2224.511
2225.744
2227.255
2229.902
2234.492
2241.253
2249.204
2256.54
2261.653
2263.666
2262.326
2257.94
2251.654
2245.543
2241.927
2242.204
2246.034
2251.534
2256.337
2258.827
2258.826
2257.45
2256.331
2256.702
2258.815
2261.967
2265.013
2267.038
2267.794
2267.714
2267.536
2267.826
2268.653
2269.567
2269.856
2268.915
2266.532
2262.978
2258.879
2254.962
2251.811
2249.727
2248.742
2248.725
2249.501
2250.927
2252.882
2255.229
2257.78
2260.313
2262.635
2264.65
2266.394
2268.009
2269.662
2271.459
2273.38
2275.282
2276.948
2278.178
2278.852
2278.974
2278.653
2278.062
2277.386
2276.777
2276.342
2276.133
2276.169
2276.444
2276.934
2277.606
2278.42
2279.334
2280.312
2281.324
2282.345
2283.348
2284.297
2285.148
2285.864
2286.431
2286.883
2287.302
2287.802
2288.49
2289.415
2290.535
2291.717
2292.775
2293.542
2293.939
2294.007
2293.888
2293.745
2293.679
2293.659
2293.541
2293.151
2292.415
2291.471
2290.687
2290.563
2291.524
2293.696
2296.755
2299.933
2302.205
2302.614
2300.599
2296.235
2290.26
2283.886
2278.433
2274.866
2273.405
2273.353
2273.281
2271.597
2267.353
2260.967
2254.446
2250.864
2253.179
2262.83
2278.791
2297.6
2314.484
2325.132
2327.392
2322.17
2313.152
2305.408
2303.288
2308.277
2317.696
2325.226
2323.751
2309.774
2287.029
2266.313
2260.409
2276.651
2312.301
2356.233
2395.379
2420.647
2428.529
2419.6
2398.185
2375.444
2371.592
2407.727
2486.257
2581.114
2660.182
2733.933
2861.223
)
;
    }
    riser
    {
        type            calculated;
        value           nonuniform List<scalar> 
200
(
4553.735
4474.991
4477.783
4547.602
4667.157
4783.47
4882.438
4897.11
4755.695
4629.832
4747.311
4958.918
5002.805
4996.362
5172.437
5447.412
5590.878
5542.026
5410.151
5322.2
5341.103
5454.774
5568.955
5569.962
5464.974
5368.123
5310.032
5246.312
5251.45
5453.51
5788.683
6038.561
6101.586
6097.648
6192.433
6378.794
6515.854
6540.879
6502.351
6419.093
6275.825
6133.116
6093.735
6170.347
6271.132
6304.598
6252.031
6143.874
6010.386
5866.587
5727.484
5621.262
5580.323
5619.169
5721.757
5850.642
5969.303
6058.986
6120.455
6164.402
6200.062
6229.04
6245.938
6243.639
6219.434
6178.361
6131.954
6093.174
6070.54
6064.837
6069.979
6077.036
6078.718
6071.945
6057.726
6039.269
6019.918
6002.072
5987.258
5976.738
5971.872
5973.865
5983.062
5998.304
6016.822
6034.841
6048.637
6055.628
6055.027
6047.856
6036.39
6023.322
6010.999
6000.971
5993.899
5989.76
5988.168
5988.678
5990.963
5994.864
6000.351
6007.452
6016.186
6026.505
6038.24
6051.055
6064.408
6077.54
6089.519
6099.335
6106.042
6108.909
6107.535
6101.913
6092.416
6079.736
6064.786
6048.599
6032.25
6016.805
6003.275
5992.569
5985.432
5982.364
5983.536
5988.74
5997.404
6008.681
6021.605
6035.27
6048.982
6062.324
6075.111
6087.258
6098.626
6108.927
6117.729
6124.556
6129.05
6131.075
6130.718
6128.163
6123.518
6116.711
6107.573
6096.107
6082.847
6069.092
6056.829
6048.251
6044.983
6047.279
6053.594
6060.801
6065.16
6063.795
6056.17
6044.896
6035.356
6034.02
6045.934
6072.275
6109.046
6147.571
6176.746
6186.174
6169.038
6123.836
6054.816
5971.249
5885.626
5810.77
5756.245
5725.157
5712.788
5708.268
5699.793
5682.452
5665.145
5670.351
5721.786
5823.182
5941.792
6014.061
5979.843
5825.954
5602.105
5388.127
5238.12
5156.549
5132.883
5186.246
5348.586
5562.197
5650.644
5431.888
4950.253
4556.606
4416.152
4478.852
)
;
    }
    topAndBottom
    {
        type            calculated;
        value           nonuniform List<scalar> 
120
(
7010.236
6235.899
5699.776
5376.909
5162.843
5003.349
4877.215
4774.133
4688.389
4617.953
4562.731
4521.669
4491.245
4466.52
4443.407
4420.131
4397.104
4375.816
4357.677
4343.332
4332.503
4324.22
4317.246
4310.496
4303.284
4295.322
4286.55
4276.943
4266.426
4254.926
4242.49
4229.379
4216.092
4203.279
4191.596
4181.509
4173.142
4166.205
4160.07
4153.976
4147.28
4139.639
4131.073
4121.937
4112.863
4104.654
4097.985
4092.875
4088.111
4081.199
4069.287
4050.988
4028.027
4005.11
3987.005
3974.122
3960.95
3940.334
3915.286
3897.199
5893.95
5916.386
5914.037
5808.189
5570.315
5266.347
4995.771
4813.297
4714.525
4666.311
4640.885
4635.412
4669.374
4761.025
4901.085
5046.613
5141.232
5146.022
5058.681
4909.927
4743.179
4592.743
4472.863
4380.162
4303.607
4233.992
4168.231
4108.456
4058.567
4020.938
3994.71
3975.815
3958.262
3936.03
3904.889
3863.567
3813.939
3760.262
3707.879
3661.991
3626.906
3605.874
3601.199
3614.238
3645.139
3692.472
3753.112
3822.535
3895.404
3966.253
4030.286
4084.356
4127.685
4161.367
4186.303
4200.731
4201.341
4183.695
4161.641
4104.783
)
;
    }
    frontAndBack
    {
        type            empty;
    }
}


// ************************************************************************* //
