/*--------------------------------*- C++ -*----------------------------------*\
| =========                 |                                                 |
| \\      /  F ield         | OpenFOAM: The Open Source CFD Toolbox           |
|  \\    /   O peration     | Version:  2312                                  |
|   \\  /    A nd           | Website:  www.openfoam.com                      |
|    \\/     M anipulation  |                                                 |
\*---------------------------------------------------------------------------*/
FoamFile
{
    version     2.0;
    format      ascii;
    arch        "LSB;label=32;scalar=64";
    class       volScalarField;
    location    "4050";
    object      qr;
}
// * * * * * * * * * * * * * * * * * * * * * * * * * * * * * * * * * * * * * //

dimensions      [1 0 -3 0 0 0 0];

internalField   uniform 0;

boundaryField
{
    plate
    {
        type            calculated;
        value           nonuniform List<scalar> 
200
(
-7355.968
-7518.744
-7622.842
-7623.985
-7554.05
-7495.345
-7494.22
-7654.939
-7790.312
-691.857
-851.5515
-7466.456
-1099.893
-1195.364
-1262.33
-1293.773
-1296.026
-1285.646
-1266.507
-1244.714
-1240.336
-1256.723
-1293.702
-1327.472
-1336.278
-1314.667
-7124.196
-7055.449
-7007.058
-6962.297
-6895.98
-6814.659
-6719.837
-6625.732
-6506.002
-6227.396
-5578.223
-2415.325
-3301.853
-4523.275
-5434.621
-5527.815
-5155.676
-4782.394
-4142.318
-3710.077
-3566.884
-3484.882
-3581.68
-3679.535
-3780.97
-3861.662
-3912.052
-4015.002
-4139.901
-4265.083
-4345.488
-4348.873
-4293.24
-4206.688
-4132.665
-4099.058
-4107.976
-4145.234
-4183.958
-4203.756
-4197.088
-4170.054
-4138.132
-4114.465
-4105.127
-4107.266
-4113.04
-4114.516
-4108.933
-4099.544
-4093.403
-4097.636
-4115.913
-4146.54
-4183.597
-4219.118
-4246.211
-4261.077
-4263.318
-4255.165
-4239.961
-4220.905
-4200.688
-4181.407
-4164.898
-4152.575
-4145.231
-4142.802
-4144.083
-4147.094
-4149.619
-4150.12
-4148.157
-4144.435
-4140.438
-4137.657
-4137.118
-4139.014
-4142.8
-4147.555
-4152.372
-4156.703
-4160.311
-4163.313
-4165.917
-4168.342
-4170.64
-4172.81
-4174.814
-4176.678
-4178.465
-4180.249
-4182.09
-4183.947
-4185.798
-4187.464
-4188.9
-4189.894
-4190.401
-4190.184
-4189.232
-4187.395
-4184.858
-4181.793
-4178.295
-4174.636
-4170.772
-4166.49
-4161.51
-4155.848
-4149.903
-4144.704
-4141.613
-4141.901
-4146.139
-4153.704
-4162.804
-4170.862
-4175.494
-4175.286
-4170.326
-4162.08
-4152.737
-4144.43
-4138.57
-4135.833
-4136.391
-4140.356
-4147.808
-4158.424
-4170.86
-4182.494
-4189.867
-4190.007
-4182.079
-4168.505
-4154.429
-4145.362
-4144.384
-4150.138
-4157.084
-4157.63
-4146.44
-4124.725
-4101.796
-4091.132
-4102.689
-4134.802
-4173.305
-4199.181
-4195.19
-4156.697
-4097.145
-4044.379
-4024.509
-4045.053
-4092.042
-4143.313
-4178.901
-4191.492
-4175.703
-4132.159
-4065.938
-3996.808
-3968.992
-3992.684
-4071.894
-4151.623
-4208.265
-1928.936
-7960.772
355.2757
-9365.631
-9448.347
)
;
    }
    riser
    {
        type            calculated;
        value           nonuniform List<scalar> 
200
(
2772.404
2705.447
2701.9
2740.514
2809.939
2879.282
2946.84
2957.218
2845.016
2744.868
2840.573
3009.937
3038.403
3020.621
3148.024
3356.304
3461.34
3415.855
3308.56
3239.823
3257.433
3350.261
3442.244
3442.038
3356.155
3277.596
3230.739
3178.558
3180.825
3341.406
3608.21
3803.562
3845.822
3834.48
3905.765
4053.975
4163.945
4184.283
4154.066
4087.799
3972.093
3855.929
3823.451
3885.424
3967.132
3994.14
3951.429
3863.768
3755.459
3638.463
3525.062
3438.423
3404.98
3436.413
3519.558
3624.023
3720.274
3793.133
3843.133
3878.826
3907.66
3930.994
3944.543
3942.585
3922.912
3889.58
3851.921
3820.443
3802.064
3797.425
3801.589
3807.312
3808.679
3803.188
3791.65
3776.658
3760.915
3746.36
3734.231
3725.56
3721.464
3722.937
3730.274
3742.548
3757.527
3772.16
3783.443
3789.299
3789.11
3783.724
3774.993
3765.1
3755.932
3748.709
3743.917
3741.476
3741.008
3742.09
3744.404
3747.782
3752.175
3757.606
3764.104
3771.666
3780.206
3789.509
3799.202
3808.731
3817.394
3824.416
3829.056
3830.73
3829.112
3824.179
3816.216
3805.765
3793.545
3780.376
3767.118
3754.62
3743.684
3735.035
3729.264
3726.769
3727.689
3731.864
3738.843
3747.954
3758.421
3769.506
3780.631
3791.439
3801.762
3811.524
3820.62
3828.844
3835.873
3841.346
3844.98
3846.65
3846.395
3844.332
3840.529
3834.936
3827.452
3818.133
3807.448
3796.459
3786.73
3779.956
3777.349
3779.043
3783.78
3789.103
3792.128
3790.689
3784.451
3775.49
3767.945
3766.721
3775.576
3795.376
3823.183
3852.721
3875.992
3885.442
3875.873
3845.594
3796.892
3735.853
3671.46
3613.615
3570.334
3544.882
3534.304
3530.413
3523.817
3510.146
3495.749
3497.863
3535.402
3612.591
3705.701
3766.397
3747.357
3636.212
3469.181
3306.998
3191.767
3127.406
3106.135
3144.474
3270.471
3442.987
3526.182
3373.448
3011.073
2709.33
2599.229
2647.807
)
;
    }
    topAndBottom
    {
        type            calculated;
        value           nonuniform List<scalar> 
120
(
3077.601
2567.057
2186.152
1965.123
1820.595
1717.121
1635.645
1568.228
1513.388
1471.092
1438.931
1415.517
1401.28
1392.676
1384.831
1374.769
1363.656
1354.029
1347.421
1343.984
1342.842
1343.261
1344.653
1346.124
1346.888
1346.541
1344.989
1342.466
1338.978
1334.381
1328.696
1322.147
1315.168
1308.35
1302.296
1297.436
1293.89
1291.429
1289.519
1287.492
1284.762
1281.045
1276.391
1271.124
1265.801
1261.169
1257.886
1255.966
1254.295
1250.625
1242.433
1228.481
1210.302
1192.129
1178.287
1169.187
1160.016
1145.878
1142.094
1260.663
3251.968
3494.822
3517.802
3426.035
3212.577
2939.273
2695.999
2532.034
2443.437
2400.466
2378.102
2373.611
2404.412
2487.085
2613.565
2745.318
2831.424
2836.564
2758.521
2625.044
2475.461
2340.852
2234.054
2151.858
2084.119
2022.428
1964.04
1911.018
1867.035
1834.319
1812.082
1796.57
1782.325
1763.896
1737.44
1701.945
1659.231
1613.149
1568.397
1529.46
1500.269
1484.313
1483.711
1499.174
1530.369
1576.607
1635.911
1704.026
1775.165
1844.147
1907.706
1964.316
2012.19
2051.76
2085.086
2111.852
2130.276
2137.054
2151.645
2160.207
)
;
    }
    frontAndBack
    {
        type            empty;
    }
}


// ************************************************************************* //
