/*--------------------------------*- C++ -*----------------------------------*\
| =========                 |                                                 |
| \\      /  F ield         | OpenFOAM: The Open Source CFD Toolbox           |
|  \\    /   O peration     | Version:  2312                                  |
|   \\  /    A nd           | Website:  www.openfoam.com                      |
|    \\/     M anipulation  |                                                 |
\*---------------------------------------------------------------------------*/
FoamFile
{
    version     2.0;
    format      ascii;
    arch        "LSB;label=32;scalar=64";
    class       volScalarField;
    location    "3150";
    object      alphat;
}
// * * * * * * * * * * * * * * * * * * * * * * * * * * * * * * * * * * * * * //

dimensions      [1 -1 -1 0 0 0 0];

internalField   nonuniform List<scalar> 
12000
(
4.34353e-05
0.0001565132
0.0001664474
0.0001761608
0.0001869338
0.000198858
0.0001989346
0.0001867192
0.0001821489
0.0001910221
0.0002007049
0.0001945684
0.00017842
0.0001750932
0.0001865755
0.0001947195
0.0001831189
0.0001699118
0.0001705454
0.0001812269
0.0001844707
0.000175217
0.0001671614
0.0001679
0.0001731787
0.0001744896
0.0001690254
0.0001637582
0.0001653687
0.0001698289
0.0001674456
0.0001622425
0.0001601571
0.0001603223
0.0001657766
0.0001690969
0.0001614706
0.0001503152
0.0001487914
0.0001684348
0.0001900474
0.0001625064
0.0001289581
0.0001348694
0.0001959244
0.0002078823
0.0001317715
0.0001196802
0.0001665442
0.000203
0.0001395633
0.0001226649
0.0001458269
0.0001505552
0.0001332546
0.0001174202
0.0001055961
8.733172e-05
8.15135e-05
6.503059e-05
2.675629e-05
0.0001923449
0.0002297214
0.0002822081
0.0003214692
0.0003683953
0.0004161165
0.0004730306
0.000537373
0.0005965216
0.0006579702
0.0007199942
0.0007955073
0.000869199
0.0009329824
0.0009897035
0.00105851
0.001136669
0.001206988
0.001259201
0.001309516
0.001372699
0.001442538
0.001502125
0.001547851
0.001591111
0.001641739
0.001695176
0.001736559
0.001763394
0.00179209
0.001829046
0.001855218
0.001869853
0.001874044
0.001873008
0.001881278
0.001888298
0.001881331
0.001846334
0.001805613
0.00168496
0.001777517
0.001733802
0.001638515
0.001510486
0.001269451
0.001456259
0.001336682
0.001223435
0.001072492
0.001014657
0.0008829178
0.0007584115
0.0006409718
0.0005082861
0.0003632068
0.0002176332
0.0001179105
5.74513e-05
3.010882e-05
0.0002895039
0.0003679173
0.0004502486
0.0005511546
0.00066455
0.0007861697
0.0009141785
0.001048678
0.001182069
0.001314042
0.001445405
0.001576192
0.001701406
0.00181857
0.001929716
0.002036841
0.00213871
0.002232369
0.0023177
0.002397469
0.002472993
0.00254319
0.002606598
0.002663534
0.00271526
0.002762362
0.00280442
0.002840791
0.002871886
0.00285266
0.002921241
0.00294004
0.002955517
0.002966457
0.002952829
0.002977298
0.002977063
0.002973152
0.00296533
0.00289273
0.002936617
0.002911812
0.002882925
0.002849289
0.002727495
0.002749639
0.002677192
0.002546334
0.002311348
0.002203593
0.002062381
0.001857818
0.001452397
0.001182141
0.001094032
0.0008755561
0.0005237986
0.0001964854
5.803133e-05
2.935545e-05
0.0003086545
0.0004436522
0.0005664235
0.0007208312
0.0008944975
0.001079596
0.001269258
0.00146061
0.001652058
0.001834768
0.002007537
0.002169957
0.002321207
0.002460762
0.002590306
0.002710704
0.002822381
0.002925763
0.00302117
0.003108832
0.003189239
0.003262573
0.00332924
0.0033894
0.003443246
0.003490918
0.003532559
0.003568362
0.00359857
0.003622099
0.003638713
0.003651821
0.003659047
0.003660704
0.003656093
0.003645263
0.003628665
0.003605972
0.003576634
0.003539991
0.00349512
0.003442133
0.003380052
0.003308154
0.003225344
0.003129476
0.003018461
0.002895046
0.002753601
0.002594443
0.002417131
0.001985181
0.001799735
0.001685263
0.001368905
0.001014204
0.0006317218
0.0002715641
5.69806e-05
2.929256e-05
0.0003309661
0.0005185789
0.0006871688
0.0008896079
0.001109466
0.001336067
0.001561666
0.00178136
0.001994008
0.002197024
0.002389339
0.002571245
0.002741229
0.002900552
0.003048733
0.003182584
0.00330526
0.003417887
0.003521338
0.00361594
0.003702727
0.003782084
0.003854227
0.0039191
0.003976919
0.00402796
0.004072485
0.004110728
0.004141978
0.004165627
0.004185093
0.004198804
0.004206633
0.004208159
0.004203036
0.004191559
0.004173625
0.004149079
0.004117592
0.004080254
0.004035578
0.003981999
0.003920175
0.003849172
0.003768054
0.003675302
0.003569322
0.00344708
0.003305486
0.003144856
0.00293164
0.002720378
0.002441819
0.002122626
0.001750295
0.001316178
0.0008256037
0.0003383287
5.655719e-05
2.95466e-05
0.000340903
0.0005758646
0.0007796765
0.00101194
0.00125855
0.001509025
0.00175695
0.001998028
0.002230396
0.002455843
0.002665092
0.002860046
0.003039734
0.003201516
0.003348207
0.003485722
0.003613523
0.00373204
0.003842501
0.003945586
0.004041804
0.004131089
0.004213466
0.004288935
0.004357507
0.004419175
0.004473887
0.004521532
0.004561038
0.004594882
0.004621137
0.004639845
0.004651152
0.004654883
0.00465034
0.004637583
0.004616959
0.004588802
0.004552062
0.004504493
0.004447072
0.004380077
0.004302616
0.004213309
0.004111212
0.003995139
0.003863264
0.003714583
0.003542761
0.003350903
0.003127336
0.002870034
0.002573891
0.002230537
0.001833978
0.001382224
0.0008850417
0.0003851877
5.604301e-05
3.017543e-05
0.0003428014
0.0006191809
0.0008500941
0.001100024
0.001363609
0.0016329
0.00190044
0.002157319
0.002399984
0.002623956
0.002834395
0.003030316
0.003213149
0.003383251
0.003540658
0.003686809
0.003823142
0.003951027
0.004071563
0.004185497
0.004293224
0.004394812
0.004490154
0.004579046
0.004661236
0.004736437
0.004804335
0.004862986
0.004915959
0.004960415
0.004996214
0.005022937
0.005040689
0.005049684
0.005049649
0.005040382
0.005020694
0.004989874
0.004948453
0.004896592
0.004833804
0.00475957
0.004673236
0.004574042
0.004461116
0.004333269
0.004189716
0.004028725
0.003842425
0.003634479
0.003396217
0.003123016
0.002810389
0.002450553
0.002033368
0.001549451
0.0009968955
0.0004311926
5.59977e-05
3.071541e-05
0.0003408347
0.0006482663
0.0009031828
0.001168421
0.001443832
0.00172033
0.001990421
0.002250567
0.002496274
0.00272577
0.002939775
0.003138836
0.003324345
0.003498772
0.003663903
0.003820105
0.003967826
0.004107922
0.004241335
0.004368784
0.004490651
0.004606986
0.004717585
0.004822066
0.004919944
0.005010681
0.005091351
0.005166408
0.005232456
0.005289016
0.00533567
0.005372071
0.005398268
0.005413141
0.005416341
0.005407711
0.005387227
0.00535454
0.005309295
0.005251113
0.005179542
0.005094045
0.004993998
0.004878681
0.004747236
0.004599076
0.004433179
0.004247245
0.00403619
0.003804573
0.003543866
0.003250935
0.002917767
0.002534307
0.002094574
0.001592122
0.001032552
0.0004591464
5.561766e-05
3.168892e-05
0.0003320387
0.0006635247
0.0009391828
0.001212785
0.001492282
0.001771348
0.002043722
0.002305102
0.002552615
0.002785126
0.003002906
0.003206825
0.003398209
0.003578755
0.003750536
0.003915403
0.004074251
0.004227454
0.004375352
0.004518206
0.004656093
0.004788854
0.004916097
0.005037223
0.00515149
0.005258077
0.005354754
0.005443853
0.005522857
0.005590977
0.005647604
0.005692452
0.005725025
0.005744752
0.005751165
0.005743896
0.005722615
0.005686995
0.005636693
0.005571342
0.005490538
0.005393831
0.00528073
0.005150665
0.00500315
0.004837435
0.004652113
0.004445558
0.004213052
0.003958128
0.003679433
0.003371828
0.003029592
0.002643031
0.002194706
0.00167785
0.001092547
0.0004874072
5.566974e-05
3.266247e-05
0.000323315
0.0006728362
0.0009663739
0.001246094
0.00152561
0.001802767
0.002073222
0.002333408
0.002581082
0.00281532
0.003036376
0.003245201
0.003443147
0.003631494
0.003812198
0.003986819
0.004156774
0.004322925
0.004485536
0.004644511
0.004799469
0.004949885
0.005094797
0.005233166
0.005363906
0.005485896
0.005597525
0.005698831
0.00578868
0.005866886
0.005932445
0.005984585
0.006022516
0.006045658
0.006053529
0.006045725
0.006021886
0.005981675
0.005924761
0.005850802
0.005759442
0.005650314
0.005523066
0.005377324
0.005212499
0.005027883
0.00482262
0.004594727
0.00434507
0.003974901
0.003627137
0.003363385
0.003092219
0.00269271
0.002231884
0.001704387
0.00111352
0.0005030633
5.539208e-05
3.367845e-05
0.0003113211
0.0006698752
0.0009780427
0.001262699
0.001541973
0.001817506
0.002086284
0.002345368
0.002593014
0.002828798
0.003053208
0.003267289
0.003472437
0.003670173
0.003862
0.004049148
0.004232677
0.004412811
0.004589476
0.00476222
0.004930128
0.005092182
0.005249868
0.005401698
0.005546263
0.005681849
0.005807754
0.005922685
0.006025026
0.006113133
0.006186381
0.006244215
0.00628594
0.006310949
0.006318768
0.006309014
0.006281359
0.006235506
0.006171164
0.00608803
0.005985768
0.005863992
0.00572286
0.005562171
0.005380891
0.005178681
0.004955242
0.004627926
0.004180453
0.003809366
0.003533798
0.003323832
0.003111391
0.00273766
0.002277254
0.001745238
0.001143042
0.0005181308
5.543948e-05
3.46158e-05
0.0002978776
0.0006607225
0.0009806566
0.001270293
0.001548367
0.001819836
0.00208442
0.00234085
0.002588046
0.00282569
0.003054055
0.003274019
0.003486823
0.003693717
0.003895752
0.004092755
0.004285005
0.004474895
0.004662675
0.004848276
0.00503153
0.005211913
0.005386117
0.00555318
0.005711821
0.005860162
0.00599755
0.006122115
0.006232475
0.006327379
0.006405793
0.006466826
0.006509841
0.006534436
0.006540242
0.00652694
0.006494256
0.006441957
0.006369842
0.006277742
0.006165521
0.006033056
0.005879624
0.005704927
0.005509553
0.005293176
0.004901951
0.004444701
0.004046121
0.003724914
0.003475103
0.003278021
0.003086413
0.002764957
0.002299536
0.001761064
0.001154942
0.0005263872
5.526016e-05
3.532988e-05
0.0002875886
0.0006494466
0.0009781797
0.001272104
0.001549413
0.001817897
0.002079236
0.002332962
0.002578567
0.002815967
0.00304567
0.003268442
0.003484714
0.003651734
0.003832645
0.004021243
0.00422492
0.004442173
0.004673496
0.004917714
0.005129967
0.005323196
0.00551038
0.005689726
0.005859514
0.00601811
0.006163998
0.00629567
0.006411775
0.006511138
0.006592784
0.006655948
0.006699968
0.006724266
0.006728396
0.006712019
0.006674867
0.006616729
0.006537428
0.006436818
0.006314768
0.006171123
0.006005858
0.005818929
0.005602891
0.005168022
0.004737904
0.004335854
0.003972238
0.003667538
0.003423987
0.003238817
0.003068801
0.002786215
0.002319163
0.001779584
0.001168489
0.0005336109
5.524962e-05
3.592892e-05
0.0002767178
0.0006348246
0.0009701432
0.001267989
0.001545219
0.001811148
0.002068998
0.002319486
0.00256278
0.002799178
0.003029196
0.003253285
0.003465315
0.003627285
0.003768537
0.003929101
0.004098711
0.004279382
0.004473735
0.004683832
0.004923958
0.005210296
0.005539143
0.005798016
0.005976819
0.006143794
0.006297088
0.006435178
0.006556532
0.006660011
0.006744576
0.006809366
0.006853693
0.006877004
0.006878867
0.006858972
0.006817098
0.006753092
0.006666857
0.00655834
0.00642753
0.006274451
0.00609917
0.005881068
0.005458633
0.005012318
0.004604931
0.004238573
0.003912691
0.003627279
0.00339183
0.003207418
0.003044449
0.002799022
0.002331453
0.001788107
0.001174276
0.0005371361
5.514543e-05
3.638291e-05
0.0002666966
0.0006187227
0.000957247
0.001258793
0.001536335
0.001800012
0.002054514
0.00230175
0.002542597
0.002777644
0.003007436
0.003232576
0.003445877
0.003616277
0.003765883
0.00390297
0.004049136
0.004199246
0.004357595
0.004531653
0.004733362
0.004975465
0.00526376
0.005592968
0.005942956
0.006244491
0.006403574
0.006546923
0.006672293
0.006778758
0.00686524
0.006930852
0.006974907
0.006996857
0.006996287
0.006972931
0.00692663
0.006857305
0.006764945
0.0066496
0.006511369
0.006350405
0.006131212
0.005755048
0.005341429
0.00492827
0.00453177
0.004170743
0.003857072
0.003589949
0.003365793
0.003182079
0.003027497
0.002808491
0.002340122
0.001795533
0.001179955
0.0005405079
5.512296e-05
3.67213e-05
0.0002579622
0.0006026405
0.0009428338
0.001246449
0.001524188
0.001785989
0.00203749
0.002281555
0.002519716
0.002752975
0.002982164
0.003208067
0.003430942
0.003619605
0.003782956
0.003927048
0.00405443
0.004176766
0.004302145
0.004443415
0.004616512
0.004834556
0.005100346
0.00540503
0.005733773
0.006068438
0.006383933
0.00663326
0.006761767
0.006870511
0.006958332
0.007024336
0.007067847
0.007088336
0.007085416
0.007058874
0.007008616
0.006934645
0.006837042
0.006715959
0.006571605
0.006363054
0.006036826
0.00565786
0.005255067
0.004856016
0.004482796
0.004142001
0.003831025
0.003556911
0.003331054
0.003159132
0.003017146
0.002813396
0.002344329
0.001799189
0.001182022
0.0005408714
5.507443e-05
3.694374e-05
0.0002502834
0.0005870052
0.0009264582
0.001231562
0.001509473
0.00176974
0.00201865
0.002259847
0.002495493
0.002727042
0.002955632
0.003182234
0.003406745
0.003630474
0.003829534
0.003983282
0.0041087
0.004216143
0.00431418
0.004423401
0.004566454
0.004759984
0.005009922
0.005309848
0.00564137
0.00597717
0.006290845
0.006563704
0.006784207
0.006938869
0.007027823
0.007094095
0.007137022
0.007156125
0.007151068
0.007121709
0.007068035
0.006990141
0.006888204
0.006762489
0.006573216
0.0063021
0.005969015
0.005590139
0.005191705
0.004801252
0.004436565
0.004104433
0.003806392
0.003544201
0.003320767
0.003142885
0.002997131
0.002802937
0.002348125
0.001802561
0.001184625
0.0005423107
5.502904e-05
3.708237e-05
0.0002445727
0.0005730176
0.0009098048
0.001215106
0.001492871
0.00175181
0.001998498
0.002237163
0.002470512
0.002700407
0.002928237
0.003155042
0.003382422
0.003609218
0.003836922
0.004063007
0.004199411
0.004290709
0.004361092
0.004436891
0.00454928
0.004719298
0.00495372
0.005245947
0.00557819
0.005923997
0.006252622
0.0065363
0.006759842
0.006923894
0.007042681
0.007144878
0.007187183
0.00720497
0.007197972
0.007166136
0.007109549
0.00702841
0.006914803
0.00675541
0.00654119
0.006262729
0.005922718
0.005540676
0.005144922
0.004760614
0.004403065
0.004076343
0.00378041
0.003518643
0.003298752
0.00312677
0.002987251
0.002797358
0.002348335
0.001802632
0.001184738
0.0005422533
5.500848e-05
3.716896e-05
0.0002395835
0.0005602436
0.000893233
0.001197696
0.001474964
0.001732725
0.001977567
0.002214113
0.002445528
0.002674066
0.002901417
0.003128866
0.003357355
0.003588452
0.003819979
0.004052415
0.004285444
0.004393368
0.004437257
0.004476736
0.004555924
0.004702324
0.004923911
0.005212747
0.005548632
0.005902603
0.006242194
0.006538619
0.006773622
0.006943739
0.007060304
0.007147163
0.007223182
0.00723959
0.00719648
0.007163784
0.007112023
0.007030966
0.006914783
0.006752824
0.006531415
0.006243389
0.005896124
0.00551111
0.005115976
0.004734753
0.004381522
0.00405962
0.003768448
0.003510194
0.003291546
0.003118885
0.002978973
0.002791547
0.002349717
0.001803831
0.001185277
0.0005426201
5.497992e-05
3.720079e-05
0.0002364756
0.0005493491
0.0008775466
0.001180219
0.00145654
0.001713127
0.001956396
0.002191217
0.002421125
0.002648726
0.002875992
0.00310439
0.003334917
0.003568047
0.003804724
0.004043557
0.004281795
0.004507302
0.00454584
0.004544909
0.004584105
0.004703564
0.004911915
0.005198479
0.005539825
0.005903797
0.006254646
0.006560702
0.006802264
0.00697561
0.007091707
0.007173322
0.007249721
0.007264648
0.007219764
0.007182206
0.007127345
0.007044958
0.006926718
0.006759979
0.006531252
0.006235073
0.005880665
0.005491014
0.005094331
0.004714048
0.004363076
0.00404371
0.003754809
0.003498636
0.003282336
0.003112438
0.002975358
0.002790364
0.002349486
0.0018034
0.001184883
0.0005422585
5.495559e-05
3.721185e-05
0.0002343824
0.000540088
0.0008628078
0.001162947
0.001437955
0.001693386
0.001935367
0.002168909
0.002397845
0.002625096
0.002852889
0.003082869
0.00331612
0.003553142
0.003793839
0.004037086
0.004282119
0.004524874
0.004659596
0.004638509
0.004634779
0.004722165
0.004915444
0.00520049
0.005548731
0.005923419
0.006285102
0.006599475
0.006845617
0.007019891
0.007133939
0.007208746
0.007270306
0.007283529
0.007253305
0.00721307
0.00715257
0.007066078
0.006945288
0.006775572
0.0065415
0.006237834
0.005875902
0.005480595
0.005080928
0.004700074
0.004350165
0.004032722
0.003745943
0.003491549
0.003276426
0.003107219
0.002970833
0.002787308
0.002349443
0.00180322
0.001184541
0.0005420768
5.494708e-05
3.724132e-05
0.00023296
0.0005325056
0.0008496267
0.001146605
0.001419853
0.00167404
0.001914972
0.002147713
0.002376314
0.002603945
0.002833033
0.00306533
0.003301919
0.003543164
0.003788662
0.004037183
0.004286796
0.004536078
0.004767689
0.004735912
0.004695251
0.004752432
0.00493132
0.005215628
0.005571664
0.005957425
0.006329042
0.006649175
0.006895856
0.00706796
0.00718016
0.007250227
0.007287355
0.007298574
0.007283968
0.007243772
0.007178398
0.007087922
0.006965233
0.006793726
0.006555476
0.006245127
0.005875916
0.005474641
0.005071359
0.00468922
0.004339673
0.004023473
0.003738236
0.003485395
0.003271853
0.003104363
0.002969763
0.002787533
0.002349249
0.001802762
0.001183982
0.0005416388
5.492312e-05
3.726415e-05
0.0002321434
0.0005258674
0.0008372596
0.00113095
0.001402368
0.001655442
0.001895689
0.002128199
0.002357193
0.002586034
0.002817293
0.003052776
0.003293506
0.003539683
0.003790667
0.004045009
0.004300583
0.004554831
0.004804618
0.004829435
0.004766446
0.004794724
0.00495983
0.005244774
0.005609786
0.006006761
0.006386968
0.006709928
0.006953915
0.007118621
0.007206953
0.007267685
0.00730252
0.007311427
0.007294552
0.007252187
0.007184793
0.007092943
0.006977285
0.006812728
0.006572297
0.006255908
0.005879542
0.005472176
0.005064969
0.004681143
0.004331582
0.00401633
0.003732396
0.00348084
0.003268462
0.003102051
0.002968466
0.002787041
0.002349008
0.001802261
0.00118336
0.0005412176
5.492321e-05
3.729759e-05
0.0002325309
0.0005212264
0.0008269416
0.001116955
0.001386267
0.001638235
0.001878111
0.002110969
0.002341136
0.002572101
0.002806507
0.003046139
0.003291881
0.003543699
0.003800637
0.004060924
0.004322138
0.004581426
0.004835646
0.004913185
0.0048357
0.004842975
0.004998956
0.005287005
0.005662011
0.006069741
0.006456763
0.006779871
0.00701408
0.007143184
0.00722688
0.007284926
0.007317102
0.007323429
0.007304106
0.007259478
0.007190047
0.007096417
0.006979264
0.006829986
0.006589773
0.006268611
0.005885617
0.005472146
0.005060775
0.004674995
0.004325184
0.004010687
0.003727895
0.003477526
0.003266331
0.003101204
0.002968937
0.002788239
0.00234909
0.001801977
0.001182881
0.0005408237
5.490592e-05
3.736517e-05
0.0002333464
0.0005171094
0.0008175324
0.001103974
0.001371313
0.00162248
0.001862514
0.002096464
0.002328725
0.002562842
0.002801445
0.003046204
0.003297786
0.003555851
0.003819107
0.004085464
0.004352214
0.004616313
0.004874471
0.004975843
0.004891066
0.004889314
0.005044721
0.005340669
0.005727746
0.006146168
0.006537114
0.006852876
0.007061534
0.007167256
0.007247802
0.007302757
0.007331958
0.007335476
0.007313556
0.007266587
0.007195095
0.007099705
0.006981106
0.006840008
0.006607588
0.006284074
0.005894414
0.00547443
0.005058639
0.004670709
0.004320466
0.004006499
0.003724468
0.003475015
0.003264976
0.003101104
0.002969883
0.002789524
0.00234922
0.00180167
0.001182335
0.000540417
5.490895e-05
3.745654e-05
0.0002345579
0.0005143632
0.0008098712
0.001092847
0.001358314
0.00160899
0.00184976
0.002085627
0.002320984
0.002559351
0.002803255
0.003054162
0.003312429
0.003577326
0.00384718
0.004119557
0.004391438
0.004659742
0.004921035
0.005024121
0.004935036
0.004934103
0.005097428
0.005406273
0.005806968
0.00623464
0.006625658
0.00692733
0.007091045
0.007193119
0.0072701
0.007321636
0.007347618
0.007348148
0.007323514
0.007274144
0.007200575
0.007103444
0.006983438
0.006841263
0.006624967
0.006300322
0.005904247
0.00547797
0.005057816
0.004667596
0.004316706
0.004003283
0.003722381
0.003474266
0.0032649
0.003101626
0.002971689
0.00279217
0.002349781
0.001801702
0.001182069
0.0005400943
5.48997e-05
3.757247e-05
0.0002360269
0.0005121129
0.0008028738
0.001082691
0.001346736
0.00159753
0.001839824
0.002078568
0.002318111
0.002561867
0.002812163
0.003070148
0.003335772
0.003607874
0.003884382
0.004162531
0.004439269
0.004711077
0.00497463
0.005053901
0.004962319
0.004973215
0.005155441
0.005484592
0.005901553
0.006336091
0.006720366
0.007000249
0.007122722
0.007220785
0.007293902
0.007341783
0.007364366
0.007361791
0.007334373
0.007282561
0.007206905
0.00710804
0.006986646
0.006843414
0.006643179
0.00631796
0.00591611
0.005483972
0.005059605
0.00466714
0.00431628
0.004003815
0.003721748
0.003471908
0.003264854
0.003104824
0.002976074
0.002795637
0.002350462
0.001801729
0.001181632
0.0005397292
5.490472e-05
3.771976e-05
0.0002377255
0.0005107831
0.0007976493
0.001074801
0.001337869
0.001589389
0.001834047
0.002076714
0.002321609
0.002571946
0.00282973
0.003095666
0.00336922
0.003648827
0.003932102
0.004215366
0.00449595
0.004770348
0.005035261
0.005075887
0.004987028
0.005019581
0.005225702
0.005577943
0.006012424
0.006453128
0.006821047
0.007038264
0.007156381
0.007250178
0.007319228
0.007363303
0.007382383
0.007376637
0.007346401
0.007292137
0.007214399
0.007113817
0.006991057
0.006846786
0.006659795
0.006333938
0.005926963
0.005489461
0.005061495
0.004667181
0.004314558
0.003998741
0.003717625
0.003473122
0.003267803
0.003107391
0.002978915
0.00279885
0.002351405
0.001802017
0.001181482
0.0005394565
5.491099e-05
3.786315e-05
0.0002394349
0.0005097056
0.0007927271
0.001067649
0.001330419
0.00158356
0.001831641
0.002079378
0.002330797
0.0025888
0.002854943
0.003129412
0.00341118
0.003698223
0.003986941
0.004275493
0.004559659
0.00483609
0.005101664
0.005089415
0.005001731
0.005061984
0.005310418
0.005696998
0.006150334
0.00658793
0.006930891
0.007078
0.007191639
0.007281143
0.007346047
0.007386246
0.007401774
0.007392829
0.007359766
0.007303052
0.007223243
0.007120956
0.006996835
0.00685152
0.00667557
0.006348873
0.005937444
0.005495633
0.005063972
0.004665257
0.004308803
0.003996084
0.00371961
0.003476269
0.003270853
0.003110543
0.002981813
0.002800872
0.002352721
0.001802603
0.001181313
0.0005391562
5.491543e-05
3.804489e-05
0.0002417416
0.0005071064
0.0007899262
0.001063235
0.00132653
0.001582174
0.00183467
0.002088603
0.002347693
0.002614331
0.002889479
0.003172789
0.003462775
0.003755958
0.004050944
0.004343514
0.004630167
0.004907601
0.005172853
0.005081987
0.005014234
0.005117348
0.005400898
0.005819277
0.006290044
0.006715952
0.006988001
0.007120104
0.007228876
0.007313754
0.007374442
0.007410699
0.007422632
0.007410473
0.00737459
0.007315445
0.007233585
0.00712961
0.007004136
0.006857769
0.006690347
0.0063638
0.005948972
0.005500789
0.005062707
0.00466294
0.004310317
0.003999328
0.003723275
0.003479042
0.003273205
0.003112964
0.002984931
0.002804627
0.002354072
0.001803272
0.001181408
0.000538911
5.492354e-05
3.82354e-05
0.0002434354
0.0005005515
0.0007872498
0.001059312
0.001323807
0.001583101
0.00184148
0.002103125
0.002371175
0.002647429
0.002932316
0.003224748
0.003521566
0.003822036
0.004121832
0.004417373
0.00470516
0.004981962
0.005161076
0.005059364
0.005029248
0.005180329
0.00549905
0.005936903
0.00641437
0.006825227
0.007036661
0.007163697
0.00726758
0.007347824
0.007404142
0.007436477
0.007444873
0.007429552
0.007390884
0.007329347
0.007245465
0.007139821
0.007013004
0.006865583
0.006698083
0.006378155
0.005957591
0.005502173
0.005062205
0.004663975
0.00431314
0.004002966
0.003726451
0.003482354
0.003276682
0.003116783
0.002989197
0.002808661
0.002355668
0.001804177
0.001181655
0.0005387716
5.49337e-05
3.842836e-05
0.0002455866
0.000496393
0.0007865002
0.001058741
0.001325713
0.001589855
0.001855124
0.002125214
0.002402779
0.002689061
0.002983241
0.003283456
0.003588934
0.003895314
0.004199056
0.004496578
0.004784504
0.005059808
0.00513075
0.005033187
0.005049578
0.005249551
0.005614463
0.006077834
0.006553694
0.006935232
0.007086344
0.007208358
0.007307413
0.007383096
0.007435178
0.007463604
0.007468476
0.007450047
0.007408671
0.007344783
0.007258916
0.007151637
0.007023484
0.006875001
0.006706669
0.006390626
0.005967154
0.005508515
0.005065817
0.004666682
0.004315647
0.004006326
0.003730328
0.003486058
0.003280075
0.003120068
0.002992622
0.002811999
0.002357338
0.001805115
0.001182038
0.0005386387
5.494211e-05
3.862304e-05
0.0002473436
0.0004916228
0.0007860114
0.001058817
0.001329328
0.001599515
0.001872991
0.002153034
0.002441285
0.002737071
0.003040933
0.003350894
0.003663351
0.003974784
0.004281555
0.004580156
0.004867402
0.005140539
0.005090098
0.00500873
0.005083346
0.005341828
0.005750042
0.006237259
0.00669705
0.00699768
0.007136907
0.00725393
0.007348218
0.007419417
0.00746734
0.007491963
0.00749341
0.007471938
0.007427909
0.007361763
0.007273981
0.007165051
0.007035554
0.006885993
0.006716774
0.006402037
0.005974835
0.005512317
0.005067842
0.004668413
0.004318623
0.004010194
0.003734451
0.003490027
0.003283812
0.003123791
0.002996638
0.00281605
0.002359575
0.001806419
0.001182618
0.0005385667
5.495777e-05
3.88344e-05
0.0002491255
0.0004876929
0.0007871104
0.001062008
0.001336766
0.001614378
0.001897603
0.00218802
0.002486001
0.002793434
0.003107471
0.003425475
0.003744
0.004059351
0.004367882
0.004666196
0.004951294
0.005142519
0.005035043
0.004995794
0.005128818
0.005442606
0.005890286
0.006391348
0.006831652
0.007053979
0.007188116
0.007300228
0.007389844
0.00745666
0.007500524
0.007521438
0.007519541
0.007495096
0.00744846
0.007380059
0.007290373
0.007179908
0.007049113
0.006898408
0.006728268
0.006412316
0.005980923
0.005515206
0.005070005
0.004671234
0.004322341
0.004014572
0.00373899
0.003494295
0.003287678
0.003127433
0.003000342
0.002819718
0.002361949
0.001807939
0.001183287
0.0005386404
5.496605e-05
3.904802e-05
0.0002510427
0.0004849066
0.0007893681
0.001066719
0.001347973
0.001633718
0.001926071
0.002227375
0.002538325
0.002856761
0.003180298
0.003505733
0.003829422
0.004147637
0.00445683
0.004753806
0.005035809
0.005084692
0.004983985
0.004995122
0.005193516
0.005561841
0.006042724
0.006547005
0.006956799
0.007110585
0.00723975
0.007347069
0.007432135
0.007494689
0.007534613
0.00755193
0.007546788
0.007519453
0.007470275
0.007399663
0.007308076
0.007195987
0.00706386
0.006912126
0.006741105
0.006423789
0.005988293
0.005519644
0.005073426
0.004675064
0.004327026
0.004019806
0.003744204
0.003499056
0.003291883
0.003131318
0.003004306
0.002823744
0.002364495
0.001809563
0.001183976
0.0005387406
5.498356e-05
3.925821e-05
0.0002526919
0.0004828461
0.0007925576
0.00107361
0.001361215
0.001656481
0.001960883
0.002274787
0.002597397
0.002926423
0.00325874
0.003590719
0.003918566
0.004238599
0.004547456
0.004842207
0.005112669
0.005006559
0.004930331
0.005012275
0.005277433
0.00569687
0.006205449
0.006697066
0.007022015
0.007167421
0.007291699
0.007394345
0.007474993
0.007533421
0.007569536
0.007583377
0.0075751
0.007544969
0.007493325
0.00742056
0.007327105
0.007213405
0.007079885
0.006926934
0.006754876
0.006434476
0.005994484
0.005523204
0.005076603
0.004679111
0.004332102
0.004025417
0.003749694
0.003503956
0.003296087
0.003135087
0.00300808
0.002827604
0.002367173
0.001811385
0.00118495
0.000539022
5.499301e-05
3.946172e-05
0.0002544952
0.0004813305
0.0007972369
0.00108297
0.001378621
0.001684665
0.002001381
0.002327929
0.002662298
0.003001445
0.003341705
0.003679165
0.004009963
0.004330506
0.0046376
0.004928504
0.005038655
0.004930876
0.004903779
0.005053264
0.005380065
0.005843825
0.006369544
0.00683964
0.007083615
0.007224172
0.00734375
0.0074419
0.007518302
0.007572764
0.007605219
0.007615719
0.007604426
0.007571601
0.007517574
0.007442719
0.007347446
0.007232168
0.00709728
0.006943132
0.006770013
0.00644461
0.006000154
0.00552676
0.005080175
0.004683728
0.004337749
0.004031491
0.003755488
0.003509014
0.003300351
0.003138871
0.00301186
0.002831483
0.002369923
0.001813248
0.001185938
0.0005393014
5.500863e-05
3.96774e-05
0.0002561605
0.0004805754
0.0007986229
0.001094807
0.001399642
0.001717418
0.002047027
0.002386324
0.002732192
0.003080836
0.003428158
0.003770084
0.004102799
0.004422897
0.004727452
0.005014049
0.004947514
0.004852874
0.004895781
0.005116857
0.005500681
0.006000194
0.006532687
0.006973978
0.007144779
0.007280704
0.007395788
0.007489639
0.007561979
0.007612648
0.007641598
0.007648896
0.007634705
0.007599285
0.007542955
0.007466071
0.007369019
0.007252186
0.007115934
0.006960581
0.006786379
0.006454506
0.006005361
0.00553019
0.00508401
0.004688829
0.004343916
0.004038002
0.0037616
0.00351427
0.003304688
0.003142571
0.003015385
0.002835068
0.002372739
0.001815201
0.001187013
0.0005396458
5.501969e-05
3.987486e-05
0.0002579414
0.0004802117
0.0007975121
0.001109484
0.00142433
0.001754531
0.002097384
0.002449336
0.002806201
0.003163507
0.003516822
0.003861994
0.004195302
0.004513525
0.004813948
0.004959652
0.004851977
0.004802412
0.004914243
0.005200681
0.005636462
0.006165339
0.006687914
0.00705399
0.007205623
0.00733705
0.007447807
0.007537534
0.007605985
0.007653023
0.007678618
0.007682844
0.007665869
0.007627946
0.007569384
0.00749052
0.007391719
0.007273339
0.007135713
0.006979124
0.006803793
0.006463896
0.00601003
0.005533558
0.005088199
0.004694461
0.004350588
0.004044884
0.003767908
0.003519549
0.003308894
0.003146032
0.003018652
0.00283851
0.002375586
0.001817185
0.001188114
0.0005400041
5.503243e-05
4.009377e-05
0.0002597702
0.0004804613
0.0007969262
0.00112683
0.001452558
0.001795724
0.002151936
0.002516221
0.002883404
0.003248453
0.003606722
0.00395409
0.004287022
0.004602567
0.004898324
0.004859766
0.004759215
0.004775274
0.004958768
0.005305652
0.005784827
0.006332751
0.006835891
0.007118703
0.007265946
0.007393095
0.007499728
0.007585524
0.007650263
0.007693832
0.007716215
0.007717495
0.00769784
0.007657499
0.007596769
0.007515969
0.007415442
0.00729552
0.007156505
0.006998652
0.006822148
0.006472855
0.00601427
0.005536924
0.005092732
0.004700568
0.00435769
0.004052065
0.003774369
0.003524855
0.003313031
0.003149355
0.003021754
0.002841828
0.002378455
0.001819215
0.001189285
0.0005404094
5.504269e-05
4.029925e-05
0.0002614362
0.0004810924
0.0007969677
0.001146656
0.001483944
0.001840364
0.002209794
0.002585874
0.002962525
0.003334252
0.003696273
0.004044541
0.004375697
0.004686992
0.004845078
0.004747591
0.004691506
0.004775973
0.005024137
0.005423708