/*--------------------------------*- C++ -*----------------------------------*\
| =========                 |                                                 |
| \\      /  F ield         | OpenFOAM: The Open Source CFD Toolbox           |
|  \\    /   O peration     | Version:  2312                                  |
|   \\  /    A nd           | Website:  www.openfoam.com                      |
|    \\/     M anipulation  |                                                 |
\*---------------------------------------------------------------------------*/
FoamFile
{
    version     2.0;
    format      ascii;
    arch        "LSB;label=32;scalar=64";
    class       volScalarField;
    location    "3150";
    object      G;
}
// * * * * * * * * * * * * * * * * * * * * * * * * * * * * * * * * * * * * * //

dimensions      [1 0 -3 0 0 0 0];

internalField   nonuniform List<scalar> 
12000
(
14288.34
13213.1
12747.01
12472.93
12293.69
12169.82
12077.67
12001.01
11932.82
11871.86
11818.44
11772.51
11733.66
11701.37
11674.96
11653.3
11634.86
11618.11
11601.87
11585.44
11568.58
11551.29
11533.71
11516.04
11498.52
11481.39
11464.77
11448.65
11432.89
11417.25
11401.54
11385.65
11369.59
11353.47
11337.41
11321.45
11305.44
11289.1
11272
11253.62
11233.61
11212.16
11189.99
11168.18
11147.12
11126.36
11105.33
11083.42
11058.85
11028.89
10991.92
10948.72
10901.64
10853.29
10804.4
10750.84
10685.3
10598
10489.31
10316.33
15034.74
14385.25
13905.24
13566.7
13305
13085.6
12903.16
12753.3
12629.32
12524.68
12434.49
12355.9
12287.52
12228.4
12177.07
12131.44
12089.17
12048.36
12007.84
11967.1
11926.11
11885.09
11844.39
11804.46
11765.72
11728.48
11692.8
11658.49
11625.19
11592.53
11560.17
11527.88
11495.55
11463.22
11431.02
11399.14
11367.74
11336.83
11306.16
11275.32
11243.9
11211.8
11179.34
11147.14
11115.84
11085.82
11057
11028.75
10999.74
10967.87
10930.56
10885.77
10833.38
10775.73
10716.32
10656.56
10593.56
10517.77
10426.94
10307.43
15139.58
14742.55
14344.4
14061.67
13847.24
13636.48
13426.82
13238.82
13083.39
12957.52
12852.73
12761.82
12680.65
12607.16
12540.2
12478.88
12422.51
12370.62
12322.8
12278.59
12237.39
12198.57
12161.51
12125.71
12090.73
12056.14
12021.45
11986.18
11949.92
11912.39
11873.5
11833.29
11791.88
11749.46
11706.29
11662.68
11618.91
11575.15
11531.33
11487.15
11442.25
11396.38
11349.65
11302.58
11256.01
11210.81
11167.43
11125.68
11084.84
11043.48
10999.16
10948.99
10891.23
10827.08
10760.96
10697.74
10637.51
10569.9
10491.94
10393.02
15100.66
14854.71
14506.14
14233.77
14067.47
13923.26
13754.05
13569.33
13395.46
13247.53
13126.62
13026.69
12940.23
12860.84
12784.28
12708.79
12634.76
12563.85
12498.04
12438.87
12387.11
12342.79
12305.34
12273.82
12247.01
12223.56
12202.08
12181.29
12160.18
12138.01
12114.3
12088.76
12061.18
12031.42
11999.41
11965.14
11928.72
11890.18
11849.5
11806.51
11761
11712.83
11662.14
11609.6
11556.42
11503.98
11453.13
11403.96
11355.91
11307.85
11257.73
11203.03
11142.25
11076.7
11010.65
10947.81
10886.67
10818.2
10748.91
10660.46
14986.96
14866.11
14585.59
14289.56
14107.91
14012.39
13922.68
13797.63
13644.63
13488.69
13349.23
13233.89
13140.99
13063.84
12994.57
12926.82
12856.98
12784.23
12709.74
12635.71
12564.58
12498.49
12438.96
12386.78
12341.98
12304.02
12271.99
12244.84
12221.56
12201.25
12183.08
12166.28
12150.1
12133.74
12116.5
12097.78
12077.11
12054.17
12028.75
12000.68
11969.79
11935.9
11898.96
11859.35
11818
11776.07
11734.27
11692.65
11650.87
11608.42
11564.65
11518.79
11470.51
11420.3
11368.83
11314.98
11256.75
11193.82
11145.65
11084.25
14861.48
14834.86
14651.75
14356.95
14119.43
14008.15
13971.11
13927.91
13840.12
13713.76
13572.79
13438.69
13323.65
13231.18
13158.75
13100.48
13049.42
12999.33
12945.75
12886.45
12821.2
12751.31
12678.91
12606.29
12535.51
12468.15
12405.38
12347.95
12296.33
12250.76
12211.16
12177.24
12148.41
12123.93
12102.94
12084.58
12068.08
12052.78
12038.16
12023.75
12008.95
11992.96
11974.88
11954.05
11930.37
11904.22
11876.21
11846.95
11817.1
11787.56
11759.37
11733.31
11709.04
11684.11
11653.65
11612.81
11563.67
11517.64
11499.1
11475.39
14787.62
14809.96
14723.07
14477.05
14199.11
14023.26
13970.78
13973.41
13959.57
13898.98
13796.52
13670.7
13540.1
13419.01
13316.61
13236.72
13177.98
13135.1
13100.81
13067.89
13030.61
12985.41
12930.85
12867.24
12796.06
12719.47
12639.92
12559.88
12481.6
12406.99
12337.53
12274.24
12217.7
12168.13
12125.45
12089.36
12059.38
12034.97
12015.46
12000.02
11987.42
11976.05
11964.07
11949.83
11932.32
11911.59
11888.68
11865.34
11843.57
11825.26
11811.98
11804.25
11799.99
11793.17
11775.34
11742.27
11702.72
11675.42
11679.15
11681.35
14730.16
14784.34
14773.45
14609.5
14341.02
14102.17
13981.75
13966.52
13989.63
13994.38
13957.33
13879.25
13770.97
13646.18
13519.02
13402.17
13304.59
13230.07
13177.3
13141.24
13114.93
13091.29
13064.32
13029.81
12985.51
12930.97
12867.16
12795.96
12719.74
12640.91
12561.75
12484.23
12409.96
12340.25
12276.04
12217.97
12166.36
12121.21
12082.23
12048.71
12019.52
11993.09
11967.73
11941.9
11914.76
11886.62
11859.02
11834.28
11814.64
11801.62
11795.74
11795.77
11797.42
11792.88
11774.47
11742.31
11709.91
11694.97
11705.55
11711.83
14834.09
14851.22
14859.77
14764.97
14539.92
14268.1
14065.4
13980.91
13984.17
14015.39
14030.14
14009.79
13952.01
13861.41
13746.14
13617.26
13487.38
13368.13
13267.93
13190.67
13135.78
13099.26
13075.07
13056.66
13038.22
13015.36
12985.41
12947.27
12901.03
12847.59
12788.26
12724.53
12657.9
12589.76
12521.33
12453.66
12387.56
12323.62
12262.23
12203.57
12147.61
12094.24
12043.29
11994.64
11948.46
11905.47
11867.05
11834.95
11810.54
11794.26
11785.06
11779.8
11772.82
11757.37
11730.35
11697.36
11671.8
11662.97
11668.84
11665.59
14904.66
14901.42
14911.89
14870.83
14710.7
14450.76
14192.52
14027.3
13973.13
13988.59
14021.48
14039.02
14028.7
13987.56
13915.52
13814.98
13692.31
13557.81
13423.62
13301.08
13198.44
13119.77
13064.96
13030.61
13011.38
13001.32
12994.89
12987.62
12976.27
12958.82
12934.26
12902.26
12862.95
12816.72
12764.03
12705.45
12641.59
12573.18
12501.14
12426.63
12351.09
12276.21
12203.68
12134.94
12071.03
12012.71
11960.67
11915.69
11878.34
11848.4
11823.95
11800.78
11773.46
11738.79
11700.02
11666.63
11647.08
11639.13
11634.54
11618.4
15008.65
14969.39
14960.64
14944.44
14843.91
14625.81
14350.52
14119.67
13993.57
13963.18
13982.17
14008.87
14022.5
14016.68
13988.56
13934.72
13853
13745.35
13618.72
13483.65
13351.78
13233.42
13135.82
13062.48
13013.23
12985.08
12973.24
12972.18
12976.53
12981.64
12983.84
12980.44
12969.64
12950.25
12921.61
12883.46
12835.94
12779.64
12715.59
12645.41
12571.2
12495.35
12420.18
12347.47
12278.15
12212.47
12150.37
12092.03
12037.91
11987.86
11939.89
11890.1
11835.23
11777.22
11724.91
11688.3
11668.49
11653.58
11634.31
11602.46
15020.96
14977.12
14957.23
14951.21
14899.53
14742
14490.69
14227.88
14037.92
13949.42
13935.88
13953.59
13972.57
13981.94
13979.85
13964
13929.43
13871.19
13787.57
13681.55
13560.23
13433.25
13310.73
13201.56
13112
13045.13
13000.83
12976.36
12967.27
12968.31
12974.32
12980.71
12983.82
12980.99
12970.51
12951.56
12924.03
12888.44
12845.77
12797.39
12744.92
12689.96
12633.79
12577.08
12519.71
12461.06
12400.48
12337.84
12273.54
12207.42
12137.86
12062.6
11982.32
11904.03
11839.25
11794.93
11765.4
11734.55
11697.43
11643.6
15005.16
14959.19
14930.59
14921.59
14900.26
14804.09
14604.95
14346.63
14113.47
13965.99
13908.5
13906.38
13921.94
13935.18
13942.35
13944.84
13941.26
13926.23
13893.16
13837.31
13757.67
13657.35
13542.94
13423.2
13307.32
13203.38
13117.04
13050.95
13004.81
12975.97
12960.27
12953.01
12949.75
12946.85
12941.79
12933.22
12920.75
12904.66
12885.58
12864.21
12841.04
12816.2
12789.37
12759.71
12726.04
12687.03
12641.58
12589.07
12529.04
12460.58
12382.42
12294.99
12203.42
12117.98
12048.77
11997.25
11953.98
11904.3
11851.47
11772.41
14930.38
14900.6
14875.34
14862.27
14857.51
14813.98
14681.04
14459.79
14212.92
14017.09
13910.03
13878.76
13885.9
13900.71
13911.3
13918.82
13926.59
13933.87
13935.29
13923.47
13891.75
13836.23
13756.73
13656.83
13543.18
13424.16
13308.28
13202.77
13112.59
13040.03
12984.9
12945.21
12917.9
12899.72
12887.81
12880.05
12875.08
12872.11
12870.7
12870.37
12870.45
12869.92
12867.5
12861.76
12851.29
12834.79
12811
12778.41
12735
12678.54
12608.36
12527.9
12445.79
12372.4
12313.01
12263.11
12212.85
12152.65
12094.62
11998.71
14867.19
14848.89
14829.08
14811.95
14811.83
14803.56
14732.91
14567.43
14335.78
14110.42
13954.21
13883.44
13873.05
13886.6
13900.55
13909.22
13916.67
13926.98
13939.73
13950.09
13951
13935.39
13897.9
13835.95
13750.3
13644.93
13526.36
13402.47
13281.23
13169.51
13072.33
12992.53
12930.92
12886.63
12857.73
12841.69
12835.81
12837.53
12844.49
12854.61
12865.98
12876.96
12886.15
12892.58
12895.58
12894.57
12888.43
12874.78
12850.16
12811.58
12759.62
12700.46
12644.12
12598.13
12561.53
12525.37
12481.89
12427.2
12379.29
12286.35
14830.25
14818.71
14804.49
14786.5
14784.84
14793.51
14769.16
14662.69
14468.49
14237.58
14041.61
13924.6
13884.08
13888.06
13903.76
13914.52
13919.27
13923.52
13931.5
13943.17
13954.77
13960.44
13953.72
13928.7
13881.12
13809.27
13714.5
13601.19
13476.12
13347.43
13223.37
13111.18
13016.22
12941.49
12887.68
12853.36
12835.65
12830.79
12834.84
12844.1
12855.5
12866.75
12876.49
12884.28
12890.31
12894.68
12896.36
12892.52
12879.28
12854.4
12820.58
12785.89
12759.41
12744.11
12733.85
12718.18
12692.64
12657.73
12631.8
12562.93
14829.42
14818.94
14808.38
14792.86
14787.71
14798.27
14799.16
14742.04
14596.48
14383.24
14164.85
14002.71
13920.72
13902.21
13912.99
13925.88
13930.46
13928.87
13927.1
13929.11
13935.28
13943.08
13948.16
13945.12
13928.29
13892.66
13834.95
13754.55
13653.88
13538.19
13414.81
13291.96
13177.46
13077.6
12996.43
12935.39
12893.62
12868.44
12856.12
12852.63
12854.23
12858.01
12862.15
12865.96
12869.45
12872.44
12873.49
12869.63
12857.95
12838.5
12816.43
12800.23
12796.08
12802.44
12810.81
12812.52
12806.7
12796.06
12793.92
12759.26
14845.38
14836.8
14829.35
14818.77
14811.16
14815.35
14823.63
14800.32
14703.86
14525.8
14306.3
14109.29
13980.96
13927.25
13922.56
13934.21
13941.29
13938.43
13929.6
13920.54
13914.77
13913.08
13914.23
13915.55
13913.21
13902.56
13878.82
13838.01
13777.96
13698.9
13603.67
13497.31
13386.25
13277.29
13176.52
13088.57
13016.12
12959.9
12918.88
12890.83
12872.86
12862.15
12856.32
12853.69
12852.86
12852.06
12848.64
12839.72
12824.22
12805.02
12788.9
12782.86
12789.02
12802.71
12816.31
12825.48
12832.46
12840.03
12853.59
12847.64
14893.88
14876.61
14866.38
14857.64
14847.34
14842.28
14846.58
14840.92
14785.24
14650.48
14449.4
14234.31
14063.43
13966.24
13934.28
13937.33
13946.32
13946.15
13935.22
13918.5
13901.36
13887.11
13877.13
13871.52
13869.33
13868.45
13865.47
13856.09
13835.76
13800.6
13748.29
13678.57
13593.46
13496.95
13394.38
13291.64
13194.3
13106.89
13032.44
12972.29
12926.29
12893.23
12871.18
12857.7
12849.65
12843.11
12833.94
12819.45
12800.49
12781.93
12770.25
12769.02
12776.16
12785.77
12793.6
12800.5
12810.66
12825.28
12842.42
12849.59
14920.54
14901.76
14891.03
14883.88
14873.54
14862.98
14860.8
14861.58
14835.11
14743.77
14575.92
14362.91
14161.94
14020.44
13951.44
13935.69
13941.72
13945.24
13936.66
13917.55
13893.67
13870.15
13850.22
13835.69
13827.61
13826.18
13830.34
13837.45
13843.32
13842.76
13830.46
13801.96
13754.52
13687.75
13603.68
13506.58
13402.19
13296.86
13196.64
13106.5
13029.94
12968.81
12923.16
12891.1
12868.78
12851.03
12833.05
12812.86
12792.68
12777.58
12771.46
12773.34
12777.61
12778.94
12777.21
12777.41
12784.15
12796.16
12807.43
12812.21
14927.43
14910.01
14900.25
14894.11
14885.88
14874.75
14867.92
14868.48
14859.27
14804.9
14677.67
14484.99
14271.38
14091.9
13979.96
13933.98
13927.98
13932.36
13928.84
13913.07
13889.11
13862.97
13839.16
13820.28
13807.91
13803.08
13806.21
13816.52
13831.71
13847.83
13859.72
13861.76
13848.7
13816.7
13763.96
13691.17
13601.42
13499.74
13392.35
13285.86
13186.44
13098.98
13026.31
12968.46
12922.72
12884.81
12851.27
12821.83
12799.56
12788.01
12787.05
12791.14
12792.65
12787.75
12779.48
12774.45
12776.09
12780.93
12782.91
12777.33
14905.64
14897.1
14892.28
14888.58
14884.23
14876.33
14868.26
14866.31
14864.93
14837.83
14751.14
14591.64
14383.89
14179.09
14024.7
13939.49
13910.73
13909.98
13912.05
13904.77
13887.82
13866.35
13845.5
13828.31
13816.13
13809.58
13809.16
13815.09
13826.85
13842.83
13860.12
13874.67
13881.75
13876.58
13855.1
13814.68
13754.63
13676.44
13583.69
13481.68
13376.65
13274.69
13180.43
13096.09
13021.51
12955.6
12898.55
12853.03
12822.84
12809.31
12808.37
12811.5
12810.77
12803.92
12794.91
12789.02
12787.32
12785.35
12779.96
12764.8
14874.4
14877.92
14879.5
14878.4
14877
14872.69
14865.53
14861.04
14861.08
14850.48
14797.87
14676.88
14490.81
14277.5
14088.82
13961.36
13900.64
13886.63
13891.54
13895.27
13890.53
13879.14
13865.8
13853.95
13844.88
13838.6
13835
13834.28
13836.9
13843.12
13852.59
13863.97
13874.89
13881.97
13881.24
13868.68
13840.9
13795.83
13733.26
13655.06
13564.79
13466.85
13365.38
13263.48
13163.66
13069.12
12984.91
12917.33
12871.07
12845.81
12835.37
12830.86
12825.79
12819.02
12813.03
12809.46
12806.69
12800.73
12792.32
12773.57
14900.48
14894.36
14892.22
14887.77
14883.63
14878.51
14870.73
14862.91
14859.54
14854.92
14825.66
14741.07
14587.07
14382.92
14174.59
14009.36
13911.44
13875.14
13876.08
13888.64
13897.34
13898.19
13893.76
13887.65
13881.71
13876.02
13870.01
13863.54
13857.17
13852.02
13849.31
13849.89
13853.8
13860.03
13866.32
13869.4
13865.36
13850.37
13821.38
13776.59
13715.58
13638.91
13547.81
13444.37
13332.5
13218.92
13112.82
13023.34
12955.9
12909.79
12879.45
12858.5
12843.43
12833.72
12828.99
12826.61
12822.82
12815.08
12807.1
12790.9
14925.99
14914.69
14909.74
14902.69
14895.05
14887.14
14877.55
14866.49
14857.99
14852.66
14836.91
14783.1
14666.64
14487.78
14278.56
14087.39
13952.96
13886.77
13874.09
13888.54
13907.54
13919.74
13923.62
13922.05
13917.8
13911.9
13904.09
13894.03
13882.01
13869.07
13856.82
13846.99
13841.02
13839.67
13842.71
13848.69
13855.04
13858.34
13854.75
13840.34
13811.27
13764.02
13696.08
13607.26
13501.24
13386.05
13272.36
13169.83
13083.63
13013.69
12957.3
12912.68
12880.12
12859.72
12848.58
12840.98
12832.38
12821.91
12814.42
12802.97
14955.81
14940.42
14932.15
14922.88
14912.19
14900.45
14887.37
14872.44
14858.4
14849.01
14839.31
14808.93
14729.95
14587.28
14395.01
14193.56
14028.67
13927.92
13890.91
13896.5
13918.55
13938.47
13948.96
13950.67
13946.89
13940.08
13931.05
13919.72
13906.06
13890.62
13874.51
13859.27
13846.5
13837.63
13833.63
13834.73
13840.27
13848.53
13856.68
13860.58
13854.89
13833.67
13791.82
13727.22
13642.36
13544.16
13441.43
13341.32
13247.19
13159.62
13079.49
13009.9
12954.72
12914.97
12886.92
12864.42
12843.81
12825.66
12814.38
12803.97
14991.31
14970.44
14957.45
14945.25
14931.94
14916.5
14899.34
14880.53
14861.96
14848.17
14840.04
14825.51
14779.14
14676.62
14514.62
14319.24
14134.55
13999.46
13929.44
13914.2
13929.27
13951
13965.62
13969.79
13966.1
13958.23
13948.46
13937.43
13925.04
13911.26
13896.43
13881.31
13866.93
13854.43
13844.97
13839.61
13839.03
13843.22
13850.93
13859.11
13862.88
13856.29
13834.13
13794.02
13737.45
13668.75
13592.48
13510.97
13424.41
13333.25
13240.88
13153.59
13077.34
13014.15
12961.53
12915.64
12875.23
12841.94
12819.54
12800.81
15002.96
14986.5
14972.7
14958.71
14943.98
14926.82
14907.73
14887.4
14867.21
14851.08
14842.77
14837.4
14815.76
14750.99
14626.5
14451.54
14260.89
14097.49
13990.67
13944.51
13941.86
13958.03
13973.55
13979.7
13976.54
13967.99
13957.67
13947.35
13937.24
13926.91
13916
13904.44
13892.43
13880.45
13869.23
13859.79
13853.24
13850.39
13851.04
13853.43
13854.23
13849.48
13836.18
13813.63
13783.19
13746.5
13703.28
13650.73
13585.59
13507.3
13419.65
13329.17
13241.55
13159.29
13082.34
13010.7
12946.28
12891.46
12850.69
12811.26
15041.65
15016.37
14996.35
14976.43
14957.74
14938.84
14919.42
14899.65
14880.16
14863.61
14854.27
14852.26
14845.82
14811.05
14724.06
14578.67
14395.5
14213.92
14072.06
13988.86
13959.05
13961.78
13974.36
13982.18
13980.89
13972.9
13962.48
13952.63
13944.32
13937.14
13930.27
13922.97
13914.79
13905.57
13895.53
13885.23
13875.49
13866.95
13859.55
13852.25
13843.42
13831.9
13818.07
13803.88
13791.3
13780.06
13766.26
13743.61
13706.57
13653.31
13586.06
13508.8
13424.75
13335.8
13244.06
13153.06
13067.38
12989.68
12927.32
12856.25
15065.6
15034.98
15011.18
14986.74
14965.39
14946.66
14929.37
14912.67
14896.46
14881.98
14872.52
14870.68
14871.29
14856.61
14801.53
14688.84
14523.9
14336.49
14166.96
14046.34
13983.48
13966.04
13971.79
13981.14
13983.95
13979.08
13970.06
13960.79
13953.32
13947.82
13943.4
13938.98
13933.72
13927.13
13919.09
13909.76
13899.34
13887.72
13874.26
13858.08
13838.9
13818.11
13799.15
13786.23
13781.93
13784.94
13789.88
13789.57
13778.25
13753.39
13714.77
13662.51
13596.19
13516.15
13425.25
13328.6
13231.96
13137.45
13057.18
12950.37
15077.04
15043.36
15018.69
14993.18
14971.94
14954.83
14940.53
14927.81
14916.06
14905.17
14896.65
14893.37
14894.82
14890.33
14858.32
14776.26
14636.54
14455.94
14270.43
14117.91
14020.59
13977.93
13972.44
13982.09
13990.74
13991.94
13986.65
13978.72
13971.31
13965.62
13961.28
13957.29
13952.73
13947.05
13940.06
13931.65
13921.41
13908.37
13891.18
13868.9
13842.26
13814.46
13790.67
13776.01
13772.88
13779.54
13790.97
13801.48
13806.99
13805.15
13793.76
13769.5
13728.8
13670.19
13595.7
13509.65
13417.08
13318.54
13231.18
13095.4
15068.9
15040.13
15019.81
14998.06
14979.98
14965.46
14954.13
14945.26
14937.85
14930.6
14923.24
14917.82
14916.41
14914.67
14897.15
14841.25
14730.48
14568.13
14380.54
14206.03
14076.75
14005.14
13982.53
13988.24
14001.7
14010.34
14010.74
14005.24
13997.55
13990.17
13983.76
13977.87
13971.83
13965.23
13957.89
13949.48
13939.06
13925
13905.55
13880.02
13850.01
13819.64
13794.36
13778.58
13773.6
13777.43
13786.47
13797.74
13809.63
13820.68
13827.81
13826.04
13810.37
13778.14
13729.73
13667.06
13593.08
13505.99
13426.3
13279.03
15047.56
15031.95
15019.4
15003.48
14989.3
14977.48
14968.87
14963.11
14958.73
14953.67
14946.64
14938.81
14933.23
14930.14
14920.63
14885.67
14804.48
14668.77
14492.33
14307.83
14152.13
14049.38
14002.52
13996.66
14009.99
14024.54
14031.3
14029.38
14021.96
14012.56
14003.19
13994.38
13985.99
13977.8
13969.53
13960.54
13949.43
13934.25
13913.43
13886.99
13857.38
13828.98
13806.31
13791.92
13785.52
13784.92
13788.18
13794.86
13805.48
13819.52
13834.09
13844.55
13846.48
13837.2
13815.69
13781.27
13734.57
13671.41
13612.56
13476.53
15110.73
15075.91
15056.3
15037.61
15021.21
15007.71
14998.14
14991.75
14986.56
14980.27
14971.31
14960.17
14949.86
14943.13
14936.64
14916.63
14862.27
14757.19
14602.33
14420.22
14246.48
14113.42
14036.28
14009.73
14014.92
14030.79
14042.73
14045.2
14039.32
14028.81
14016.96
14005.54
13995.12
13985.63
13976.53
13966.69
13954.36
13937.71
13915.88
13890.03
13863.36
13839.92
13822.61
13811.84
13805.78
13802.28
13800.71
13802.2
13808.23
13818.74
13831.65
13843.99
13853.27
13857.85
13856.24
13846.22
13826.9
13792.54
13760.96
13655.66
15097.4
15078.76
15066.74
15053.33
15039.77
15027.38
15017.78
15010.62
15004.25
14996.72
14986.63
14973.98
14961.1
14951.6
14946.02
14936.31
14904.68
14830.92
14705.19
14537.72
14357.53
14199.93
14090.63
14036.03
14024.39
14035.12
14049.38
14056.35
14053.57
14043.73
14030.8
14017.8
14006.09
13995.73
13985.77
13974.56
13960.19
13941.37
13918.41
13893.68
13870.85
13853.18
13841.77
13835.16
13830.69
13826.53
13822.85
13821.16
13822.69
13827.24
13833.6
13840.77
13848.52
13856.67
13864.24
13868.96
13869.67
13860.4
13853.74
13788.3
15097.78
15090.42
15083.25
15073.67
15062.41
15050.36
15039.13
15029.25
15020.13
15010.65
14999.7
14986.83
14973.23
14962.06
14955.95
14951.72
14936.48
14890.17
14795.87
14651.86
14476.9
14303.82
14164.88
14078.03
14041.71
14039.81
14051.92
14062.37
14064.06
14057.14
14045.26
14032.23
14020.2
14009.38
13998.43
13985.33
13968.32
13947.02
13923.08
13899.84
13880.96
13868.52
13862
13858.85
13856.35
13853.25
13850.05
13847.75
13846.58
13845.86
13845.03
13844.61
13846
13850.28
13857.48
13866.41
13876.51
13882.81
13892.1
13863.32
15115.78
15111.76
15104.69
15095.34
15084.37
15071.88
15058.56
15045.36
15032.94
15021.34
15009.97
14998
14985.43
14974.16
14967.22
14964.83
14959.32
14933.82
14868.52
14752.3
14592.35
14414.37
14252.2
14132.89
14066.31
14044.33
14048.43
14059.8
14066.38
14064.41
14055.86
14044.51
14033.06
14021.98
14009.84
13994.59
13975
13951.8
13927.78
13906.77
13891.82
13883.67
13880.63
13879.85
13879.18
13878.03
13876.82
13875.64
13873.66
13869.77
13863.82
13857.11
13851.7
13849.32
13850.97
13856.82
13867.1
13878.34
13892.57
13888.46
15140.9
15136.19
15127.18
15116.06
15103.73
15090.12
15075.09
15059.41
15044.48
15031.28
15019.82
15009.21
14998.58
14988.41
14981.03
14978.39
14977.24
14965.5
14924.17
14836.37
14698.61
14526.63
14350.77
14203.14
14104.1
14055.78
14045.09
14052.82
14062.76
14066.42
14062.63
14054.01
14043.34
14031.48
14017.43
13999.65
13977.83
13953.75
13930.9
13912.89
13901.71
13896.82
13895.9
13896.44
13897.14
13897.91
13898.82
13899.07
13897.15
13891.91
13883.48
13873.32
13863.39
13855.46
13851.06
13851.25
13856.61
13864.95
13875.48
13881.39
15169.3
15159.91
15147.95
15134.6
15120.33
15105.2
15088.92
15072.06
15056.05
15042.21
15030.94
15021.5
15012.6
15003.66
14995.91
14991.72
14991.01
14986.68
14963.16
14901.62
14790.42
14634.44
14456.54
14288.94
14159.63
14081.41
14049.58
14047.83
14057.72
14066.11
14067.5
14062.04
14051.86
14038.3
14021.32
14000.63
13977.07
13953.27
13932.77
13918.3
13910.53
13907.92
13908.07
13909.18
13910.71
13912.74
13914.84
13915.65
13913.56
13907.73
13898.62
13887.52
13875.95
13865.38
13857.31
13852.88
13852.31
13854.16
13856.91
13860.98
15190.71
15176.6
15162.64
15148.22
15133.1
15117.16
15100.48
15083.65
15067.85
15054.3
15043.51
15034.92
15027.18
15019.06
15010.74
15004.22
15001.25
14999.08
14986.9
14947.19
14863.51
14731.01
14562.61
14386.08
14232.76
14124.65
14067.01
14049.63
14054.68
14065.42
14071.51
14069.38
14059.55
14043.69
14023.21
13999.56
13974.99
13952.6
13935.33
13924.59
13919.71
13918.62
13919.22
13920.51
13922.4
13924.81
13926.82
13926.92
13923.85
13917.39
13908.29
13897.68
13886.63
13876.22
13867.48
13860.88
13855.91
13851.31
13846.48
13842.52
15201.96
15185.27
15171.03
15157.07
15142.71
15127.39
15111.4
15095.45
15080.49
15067.48
15056.98
15048.72
15041.51
15033.81
15024.94
15016.1
15009.72
15006.18
14999.55
14975.85
14917.34
14811.94
14662.29
14488.18
14319.74
14185.08
14099.27
14060.67
14055.1
14064.38
14073.66
14074.8
14065.7
14047.86
14024.24
13998.32
13973.73
13953.7
13940.11
13932.92
13930.37
13930.24
13931.04
13932.36
13934.21
13936.14
13936.94
13935.29
13930.59
13923.26
13914.29
13904.72
13895.36
13886.89
13879.59
13872.97
13865.79
13856.84
13847.22
13834.71
15204.51
15188.24
15175.49
15163.12
15150.67
15137.23
15122.97
15108.48
15094.44
15081.62
15070.73
15061.89
15054.33
15046.59
15037.4
15027.02
15017.6
15011.26
15006.09
14992.61
14954.69
14876.23
14750.98
14589.07
14415.41
14260.19
14146.53
14082.38
14060.1
14062.73
14072.32
14076.1
14068.5
14050.02
14024.73
13997.95
13974.49
13957.43
13947.5
13943.32
13942.49
13943
13943.92
13945.16
13946.57
13947.31
13946.16
13942.27
13935.72
13927.46
13918.64
13910.25
13902.97
13897.02
13891.89
13886.26
13878.56
13867.78
13856.7
13838.68
15202.85
15189.6
15179.54
15169.26
15158.95
15147.79
15135.68
15122.82
15109.56
15096.5
15084.46
15074.06
15065.15
15056.66
15047.18
15036.16
15024.92
15015.98
15010.11
15002.18
14979.41
14924.91
14826.13
14683.64
14514.44
14346.65
14208.36
14116.52
14071.91
14061.74
14067.29
14072.03
14066.55
14049.39
14024.73
13999.01
13977.77
13963.84
13956.98
13954.97
13955.23
13956.12
13957.11
13958.13
13958.7
13957.78
13954.38
13948.27
13940.12
13931.17
13922.64
13915.46
13910.1
13906.31
13902.92
13898.13
13890.65
13879.88
13869.71
13850
15203.9
15194.31
15186.86
15178.34
15169.52
15160.02
15149.56
15137.94
15125.14
15111.54
15097.98
15085.45
15074.42
15064.45
15054.37
15043.17
15031.22
15020.57
15013.22
15007.47
14994.63
14959.49
14886.26
14767.64
14611.48
14440.41
14283.57
14164.8
14093.86
14064.62
14060.53
14063.21
14059.76
14045.87
14024.49
14001.91
13983.76
13972.6
13967.77
13966.84
13967.48
13968.46
13969.38
13969.94
13969.33
13966.56
13961.06
13953.17
13943.98
13934.83
13926.88
13920.89
13917.02
13914.52
13911.78
13907.09
13899.82
13889.89
13881.56
13862.78
15211.34
15204.6
15198.79
15191.22
15182.85
15173.82
15163.92
15152.7
15139.89
15125.66
15110.72
15096.12
15082.79
15070.92
15059.83
15048.43
15036.35
15024.73
15015.76
15009.96
15002.52
14981.51
14930.79
14837.7
14701.39
14536.64
14369.69
14227.99
14129.25
14075.65
14055.76
14052.05
14049.36
14040.05
14024.34
14006.86
13992.46
13983.48
13979.43
13978.39
13978.65
13979.27
13979.77
13979.5
13977.46
13972.87
13965.67
13956.68
13947.17
13938.4
13931.37
13926.53
13923.59
13921.37
13918.22
13912.89
13905.56
13896.55
13889.86
13872.91
15226.24
15220.44
15214.73
15207.11
15198.19
15188.43
15177.86
15166.09
15152.8
15137.97
15122.03
15105.89
15090.62
15076.89
15064.54
15052.7
15040.54
15028.34
15017.8
15010.58
15004.99
14993
14960.4
14892.02
14779.93
14630.12
14462.72
14304.89
14179.96
14098.7
14057.27
14042
14037.39
14032.7
14024.23
14013.43
14003.4
13996.15
13991.9
13989.81
13988.96
13988.68
13988.24
13986.65
13982.94
13976.68
13968.27
13958.82
13949.62
13941.76
13935.88
13932.01
13929.4
13926.62
13922.33
13916.01
13908.47
13900.15
13894.39
13878.96
15246.46
15239.52
15232.44
15223.8
15213.67
15202.44
15190.36
15177.38
15163.31
15147.97
15131.5
15114.46
15097.85
15082.58
15068.97
15056.46
15044.09
15031.47
15019.57
15010.29
15004.13
14996.78
14977.36
14930.78
14844.47
14716.08
14557.55
14392.15
14245.57
14136.08
14068.81
14036.64
14026.16
14024.5
14023.52
14020.32
14015.3
14009.85
14005.08
14001.5
13999.11
13997.44
13995.52
13992.2
13986.64
13978.86
13969.65
13960.24
13951.77
13945.06
13940.32
13937.06
13934.15
13930.23
13924.53
13917.25
13909.54
13901.63
13896.1
13881.46
15268.09
15258.46
15249.07
15238.76
15227.19
15214.37
15200.64
15186.31
15171.4
15155.71
15139.06
15121.65
15104.26
15087.87
15073.12
15059.83
15047.14
15034.24
15021.36
15010.12
15002.16
14996.24
14985.27
14956.24
14894.46
14790.94
14648.84
14484.75
14323.32
14188.04
14092.93
14039.27
14018.14
14016.2
14021.31
14025.69
14026.27
14023.27
14018.45
14013.61
14009.64
14006.31
14002.56
13997.25
13989.87
13980.8
13971.11
13962.03
13954.48
13948.89
13944.98
13941.8
13938.03
13932.67
13925.62
13917.64
13909.84
13902.06
13896.29
13881.71
15286.97
15274.1
15262.23
15250.05
15237.18
15223.19
15208.3
15192.97
15177.45
15161.57
15144.97
15127.54
15109.76
15092.56
15076.82
15062.74
15049.69
15036.71
15023.43
15010.85
15000.98
14994.59
14988.17
14971.85
14931.16
14852.76
14731.86
14576.99
14408.77
14252.89
14130.78
14052.66
14016
14009.09
14017.18
14027.94
14034.39
14034.88
14031.15
14025.82
14020.58
14015.55
14009.87
14002.62
13993.66
13983.66
13973.83
13965.26
13958.63
13953.9
13950.32
13946.63
13941.62
13934.8
13926.68
13918.27
13910.4
13902.46
13896.16
13881.12
15300.07
15284.46
15270.67
15256.87
15243.07
15228.59
15213.35
15197.7
15181.96
15166.06
15149.62
15132.34
15114.43
15096.69
15080.1
15065.23
15051.81
15038.94
15025.85
15012.85
15001.66
14994.13
14989.46
14981.21
14956.8
14901.01
14803.03
14663.4
14496.65
14327.52
14182.19
14078.92
14022.58
14005.3
14011.78
14026.41
14038.37
14043.39
14042.19
14037.49
14031.5
14024.92
14017.39
14008.48
13998.37
13987.94
13978.34
13970.46
13964.62
13960.36
13956.57
13951.91
13945.52
13937.48
13928.68
13920.05
13912.01
13903.67
13896.69
13880.89
15306.7
15289.39
15274.61
15259.72
15245.43
15231.07
15216.25
15200.97
15185.41
15169.63
15153.41
15136.39
15118.58
15100.56
15083.31
15067.7
15053.86
15041.14
15028.63
15016.02
15004.41
14995.84
14991.21
14987.1
14973.71
14936.15
14860.1
14739.42
14581.71
14407.96
14245.8
14119.31
14040.72
14007.73
14007.09
14021.82
14037.96
14048.07
14050.74
14047.85
14041.76
14033.89
14024.72
14014.49
14003.77
13993.45
13984.47
13977.42
13972.21
13968
13963.51
13957.61
13949.96
13941.1
13932
13923.29
13914.99
13906.1
13898.43
13881.75
15307.77
15290.04
15275.23
15259.9
15245.48
15231.57
15217.62
15203.16
15188.12
15172.62
15156.65
15140.01
15122.55
15104.58
15086.98
15070.73
15056.39
15043.7
15031.79
15020.01
15008.71
14999.54
14994.07
14991.09
14983.76
14959.21
14902.15
14801.9
14659.41
14489.97
14319.21
14174.02
14072.76
14019.75
14006.21
14016.24
14034.03
14048.86
14056.22
14056.17
14050.71
14041.94
14031.41
14020.23
14009.35
13999.6
13991.59
13985.44
13980.63
13976.07
13970.55
13963.37
13954.73
13945.45
13936.35
13927.62
13919.01
13909.54
13901.28
13883.86
15305.81
15288.52
15274.29
15259.07
15244.73
15231.28
15218.19
15204.67
15190.33
15175.27
15159.67
15143.53
15126.68
15109.16
15091.58
15074.9
15059.99
15047.01
15035.42
15024.41
15013.76
15004.34
14997.64
14993.66
14988.28
14971.56
14929.47
14849.24
14726.36
14569.4
14399.14
14241.87
14119.96
14044.41
14012.8
14012.75
14028.41
14046.28
14058.3
14061.81
14057.76
14048.68
14037.21
14025.44
14014.75
14005.86
13998.97
13993.65
13988.98
13983.75
13977.05
13968.72
13959.41
13950.01
13941.01
13932.24
13923.28
13913.32
13904.59
13886.73
15303.09
15286.65
15273.23
15258.47
15244.32
15231.11
15218.56
15205.82
15192.24
15177.77
15162.71
15147.24
15131.22
15114.5
15097.33
15080.48
15064.95
15051.35
15039.56
15028.91
15018.77
15009.2
15001.02
14994.71
14988.2
14974.89
14943.53
14881.49
14780.57
14642.65
14481.66
14320.22
14182.03
14083.78
14030.3
14014.86
14023.59
14041.47
14057
14064.26
14062.42
14053.9
14042.14
14030.17
14019.88
14011.94
14006.08
14001.38
13996.55
13990.46
13982.62
13973.39
13963.68
13954.26
13945.3
13936.36
13927.01
13916.64
13907.54
13889.6
15301.11
15285.54
15272.84
15258.72
15244.83
15231.64
15219.22
15206.92
15194.03
15180.32
15165.99
15151.32
15136.27
15120.53
15104.05
15087.29
15071.2
15056.71
15044.2
15033.31
15023.22
15013.27
15003.41
14993.98
14984.39
14971.16
14946.66
14900.13
14821.51
14706.88
14562.56
14405.13
14256.89
14138.29
14061.23
14025.89