/*--------------------------------*- C++ -*----------------------------------*\
| =========                 |                                                 |
| \\      /  F ield         | OpenFOAM: The Open Source CFD Toolbox           |
|  \\    /   O peration     | Version:  2312                                  |
|   \\  /    A nd           | Website:  www.openfoam.com                      |
|    \\/     M anipulation  |                                                 |
\*---------------------------------------------------------------------------*/
FoamFile
{
    version     2.0;
    format      ascii;
    arch        "LSB;label=32;scalar=64";
    class       volScalarField;
    location    "3150";
    object      ILambda_5_0;
}
// * * * * * * * * * * * * * * * * * * * * * * * * * * * * * * * * * * * * * //

dimensions      [1 0 -3 0 0 0 0];

internalField   nonuniform List<scalar> 
12000
(
1757.16
1755.736
1754.49
1753.39
1752.377
1751.383
1750.345
1749.202
1747.903
1746.407
1744.678
1742.695
1740.441
1737.915
1735.124
1732.087
1728.833
1725.403
1721.848
1718.224
1714.596
1711.03
1707.595
1704.356
1701.373
1698.7
1696.381
1694.447
1692.92
1691.805
1691.097
1690.777
1690.815
1691.171
1691.797
1692.638
1693.635
1694.729
1695.86
1696.969
1698.004
1698.916
1699.664
1700.215
1700.544
1700.635
1700.478
1700.074
1699.431
1698.563
1697.49
1696.237
1694.831
1693.302
1691.684
1690.002
1688.303
1686.539
1685.064
1682.432
1754.471
1753.996
1753.319
1752.378
1751.118
1749.505
1747.522
1745.166
1742.446
1739.385
1736.013
1732.374
1728.521
1724.52
1720.445
1716.376
1712.4
1708.604
1705.073
1701.885
1699.106
1696.791
1694.979
1693.69
1692.928
1692.677
1692.905
1693.565
1694.595
1695.925
1697.478
1699.172
1700.925
1702.658
1704.296
1705.772
1707.028
1708.018
1708.705
1709.066
1709.09
1708.777
1708.138
1707.192
1705.967
1704.5
1702.828
1700.996
1699.048
1697.027
1694.977
1692.938
1690.944
1689.027
1687.211
1685.512
1683.952
1682.487
1681.325
1679.488
1756.248
1754.514
1752.354
1749.794
1746.875
1743.64
1740.131
1736.393
1732.478
1728.442
1724.354
1720.29
1716.333
1712.568
1709.08
1705.947
1703.237
1701.003
1699.281
1698.091
1697.43
1697.277
1697.595
1698.33
1699.416
1700.776
1702.331
1703.997
1705.689
1707.331
1708.849
1710.181
1711.273
1712.085
1712.587
1712.762
1712.604
1712.121
1711.327
1710.248
1708.915
1707.364
1705.638
1703.779
1701.832
1699.838
1697.838
1695.87
1693.965
1692.151
1690.449
1688.874
1687.435
1686.134
1684.967
1683.924
1682.999
1682.132
1681.466
1680.261
1750.778
1747.322
1743.644
1739.802
1735.833
1731.773
1727.667
1723.576
1719.574
1715.749
1712.192
1708.991
1706.222
1703.949
1702.214
1701.039
1700.423
1700.342
1700.756
1701.604
1702.815
1704.306
1705.99
1707.777
1709.58
1711.316
1712.911
1714.3
1715.43
1716.26
1716.763
1716.923
1716.738
1716.216
1715.376
1714.245
1712.856
1711.251
1709.47
1707.56
1705.564
1703.528
1701.491
1699.492
1697.564
1695.733
1694.021
1692.443
1691.008
1689.717
1688.568
1687.551
1686.652
1685.853
1685.133
1684.464
1683.836
1683.169
1682.64
1681.395
1739.1
1735.057
1731.044
1727.034
1723.059
1719.2
1715.562
1712.258
1709.392
1707.045
1705.275
1704.109
1703.547
1703.562
1704.103
1705.102
1706.475
1708.13
1709.971
1711.9
1713.824
1715.655
1717.318
1718.746
1719.886
1720.7
1721.162
1721.26
1720.997
1720.383
1719.443
1718.207
1716.713
1715.003
1713.125
1711.124
1709.047
1706.941
1704.847
1702.804
1700.843
1698.994
1697.276
1695.703
1694.285
1693.021
1691.907
1690.933
1690.083
1689.338
1688.675
1688.07
1687.496
1686.928
1686.341
1685.709
1685.027
1684.208
1683.513
1681.788
1726.35
1722.912
1719.3
1715.824
1712.728
1710.18
1708.281
1707.07
1706.543
1706.66
1707.352
1708.53
1710.096
1711.941
1713.956
1716.037
1718.084
1720.007
1721.727
1723.18
1724.315
1725.096
1725.502
1725.525
1725.17
1724.456
1723.409
1722.064
1720.463
1718.652
1716.679
1714.594
1712.446
1710.28
1708.14
1706.063
1704.082
1702.224
1700.51
1698.951
1697.556
1696.324
1695.249
1694.319
1693.517
1692.822
1692.211
1691.657
1691.133
1690.612
1690.069
1689.481
1688.825
1688.087
1687.253
1686.31
1685.274
1684.062
1683.019
1680.7
1717.729
1713.896
1711.277
1709.774
1709.236
1709.509
1710.445
1711.9
1713.74
1715.833
1718.061
1720.311
1722.483
1724.487
1726.25
1727.709
1728.819
1729.548
1729.88
1729.812
1729.354
1728.528
1727.366
1725.905
1724.193
1722.276
1720.208
1718.038
1715.818
1713.592
1711.406
1709.297
1707.296
1705.431
1703.72
1702.175
1700.802
1699.6
1698.561
1697.672
1696.914
1696.267
1695.703
1695.196
1694.717
1694.238
1693.733
1693.176
1692.548
1691.831
1691.012
1690.084
1689.044
1687.894
1686.642
1685.294
1683.883
1682.343
1681.036
1678.47
1708.278
1710.437
1712.678
1715.031
1717.48
1719.981
1722.471
1724.881
1727.139
1729.176
1730.93
1732.351
1733.398
1734.046
1734.282
1734.107
1733.534
1732.587
1731.303
1729.723
1727.895
1725.871
1723.705
1721.45
1719.157
1716.874
1714.643
1712.503
1710.485
1708.614
1706.909
1705.379
1704.03
1702.859
1701.856
1701.008
1700.295
1699.693
1699.176
1698.714
1698.278
1697.838
1697.367
1696.84
1696.234
1695.533
1694.723
1693.797
1692.755
1691.598
1690.335
1688.979
1687.546
1686.055
1684.528
1682.984
1681.458
1679.909
1678.627
1676.382
1725.601
1726.998
1728.693
1730.551
1732.432
1734.208
1735.776
1737.056
1737.988
1738.53
1738.663
1738.382
1737.697
1736.635
1735.232
1733.534
1731.591
1729.458
1727.193
1724.851
1722.484
1720.142
1717.867
1715.698
1713.665
1711.791
1710.093
1708.581
1707.258
1706.118
1705.153
1704.346
1703.676
1703.119
1702.647
1702.228
1701.833
1701.431
1700.992
1700.491
1699.904
1699.214
1698.409
1697.48
1696.428
1695.255
1693.973
1692.595
1691.14
1689.629
1688.085
1686.532
1684.994
1683.495
1682.055
1680.692
1679.427
1678.237
1677.285
1675.802
1733.795
1736.635
1738.933
1740.695
1741.928
1742.642
1742.852
1742.578
1741.851
1740.71
1739.205
1737.39
1735.327
1733.077
1730.702
1728.264
1725.816
1723.41
1721.09
1718.891
1716.844
1714.969
1713.282
1711.79
1710.494
1709.388
1708.461
1707.695
1707.068
1706.555
1706.126
1705.75
1705.394
1705.028
1704.62
1704.143
1703.573
1702.893
1702.089
1701.153
1700.086
1698.893
1697.584
1696.177
1694.691
1693.149
1691.578
1690.003
1688.451
1686.945
1685.508
1684.16
1682.916
1681.787
1680.783
1679.905
1679.154
1678.515
1678.033
1677.377
1749.185
1749.078
1748.657
1747.894
1746.778
1745.317
1743.54
1741.49
1739.22
1736.792
1734.266
1731.702
1729.157
1726.678
1724.308
1722.082
1720.024
1718.154
1716.484
1715.017
1713.752
1712.682
1711.793
1711.067
1710.482
1710.01
1709.623
1709.286
1708.969
1708.636
1708.258
1707.804
1707.251
1706.579
1705.774
1704.83
1703.745
1702.527
1701.187
1699.744
1698.22
1696.641
1695.035
1693.43
1691.854
1690.332
1688.89
1687.547
1686.318
1685.216
1684.248
1683.416
1682.719
1682.152
1681.705
1681.369
1681.128
1680.966
1680.87
1680.757
1749.196
1748.198
1746.709
1744.809
1742.594
1740.16
1737.596
1734.983
1732.39
1729.875
1727.485
1725.253
1723.204
1721.355
1719.712
1718.279
1717.051
1716.018
1715.167
1714.479
1713.932
1713.497
1713.146
1712.846
1712.563
1712.262
1711.912
1711.482
1710.945
1710.281
1709.475
1708.52
1707.416
1706.169
1704.795
1703.311
1701.744
1700.122
1698.474
1696.832
1695.225
1693.682
1692.228
1690.884
1689.665
1688.584
1687.646
1686.854
1686.204
1685.69
1685.302
1685.027
1684.85
1684.757
1684.73
1684.753
1684.81
1684.883
1684.962
1684.998
1747.913
1744.949
1741.939
1738.968
1736.105
1733.4
1730.887
1728.586
1726.51
1724.661
1723.037
1721.632
1720.435
1719.434
1718.613
1717.954
1717.434
1717.028
1716.705
1716.434
1716.18
1715.909
1715.585
1715.178
1714.658
1714.003
1713.197
1712.232
1711.108
1709.831
1708.418
1706.89
1705.274
1703.602
1701.906
1700.221
1698.579
1697.01
1695.54
1694.191
1692.979
1691.915
1691.006
1690.25
1689.645
1689.18
1688.845
1688.625
1688.505
1688.467
1688.494
1688.57
1688.678
1688.804
1688.935
1689.059
1689.167
1689.242
1689.306
1689.223
1738.422
1735.894
1733.534
1731.385
1729.458
1727.75
1726.25
1724.948
1723.833
1722.894
1722.118
1721.49
1720.994
1720.607
1720.304
1720.053
1719.823
1719.577
1719.279
1718.895
1718.394
1717.751
1716.948
1715.975
1714.83
1713.522
1712.067
1710.489
1708.819
1707.09
1705.34
1703.606
1701.922
1700.321
1698.832
1697.476
1696.271
1695.226
1694.345
1693.627
1693.066
1692.65
1692.367
1692.2
1692.13
1692.142
1692.215
1692.334
1692.482
1692.645
1692.81
1692.966
1693.104
1693.217
1693.301
1693.349
1693.362
1693.324
1693.284
1693.006
1733.002
1731.407
1729.983
1728.731
1727.64
1726.701
1725.907
1725.251
1724.725
1724.312
1723.991
1723.735
1723.51
1723.279
1723.003
1722.643
1722.164
1721.537
1720.739
1719.76
1718.595
1717.253
1715.753
1714.119
1712.387
1710.594
1708.781
1706.989
1705.257
1703.62
1702.108
1700.744
1699.545
1698.52
1697.671
1696.994
1696.481
1696.118
1695.888
1695.774
1695.755
1695.813
1695.928
1696.082
1696.261
1696.451
1696.638
1696.814
1696.97
1697.101
1697.201
1697.267
1697.298
1697.293
1697.25
1697.171
1697.06
1696.897
1696.754
1696.315
1731.142
1730.392
1729.654
1728.989
1728.428
1727.98
1727.636
1727.373
1727.159
1726.955
1726.715
1726.396
1725.956
1725.36
1724.581
1723.602
1722.421
1721.045
1719.493
1717.797
1715.992
1714.124
1712.236
1710.377
1708.588
1706.908
1705.369
1703.995
1702.803
1701.801
1700.988
1700.358
1699.898
1699.592
1699.421
1699.363
1699.396
1699.499
1699.653
1699.84
1700.044
1700.252
1700.453
1700.638
1700.801
1700.937
1701.043
1701.116
1701.154
1701.159
1701.129
1701.065
1700.969
1700.841
1700.684
1700.497
1700.288
1700.035
1699.821
1699.275
1732.52
1731.86
1731.381
1731.057
1730.837
1730.662
1730.472
1730.21
1729.825
1729.274
1728.521
1727.549
1726.35
1724.934
1723.322
1721.548
1719.655
1717.694
1715.716
1713.774
1711.916
1710.184
1708.613
1707.228
1706.045
1705.069
1704.298
1703.722
1703.323
1703.082
1702.975
1702.977
1703.065
1703.214
1703.406
1703.621
1703.845
1704.066
1704.273
1704.46
1704.622
1704.755
1704.857
1704.927
1704.964
1704.969
1704.943
1704.885
1704.797
1704.68
1704.536
1704.366
1704.172
1703.956
1703.72
1703.464
1703.194
1702.887
1702.634
1702.023
1733.679
1733.938
1734.04
1733.978
1733.729
1733.268
1732.567
1731.612
1730.398
1728.936
1727.251
1725.384
1723.385
1721.312
1719.224
1717.183
1715.241
1713.447
1711.839
1710.441
1709.268
1708.325
1707.603
1707.09
1706.761
1706.594
1706.558
1706.626
1706.771
1706.969
1707.196
1707.437
1707.676
1707.903
1708.109
1708.29
1708.444
1708.567
1708.659
1708.72
1708.751
1708.752
1708.723
1708.665
1708.579
1708.467
1708.328
1708.166
1707.981
1707.776
1707.553
1707.313
1707.058
1706.79
1706.51
1706.217
1705.916
1705.578
1705.304
1704.639
1738.459
1737.845
1737.015
1735.958
1734.654
1733.102
1731.316
1729.332
1727.203
1724.994
1722.774
1720.611
1718.569
1716.701
1715.047
1713.635
1712.477
1711.573
1710.911
1710.47
1710.223
1710.139
1710.182
1710.322
1710.528
1710.773
1711.034
1711.295
1711.543
1711.768
1711.966
1712.134
1712.271
1712.378
1712.455
1712.504
1712.525
1712.519
1712.486
1712.427
1712.341
1712.23
1712.093
1711.933
1711.751
1711.549
1711.33
1711.095
1710.849
1710.591
1710.325
1710.051
1709.768
1709.476
1709.174
1708.857
1708.528
1708.153
1707.845
1707.084
1738.117
1736.773
1735.109
1733.161
1730.993
1728.692
1726.349
1724.059
1721.901
1719.945
1718.237
1716.808
1715.669
1714.814
1714.225
1713.872
1713.721
1713.732
1713.865
1714.082
1714.35
1714.64
1714.931
1715.205
1715.453
1715.667
1715.847
1715.992
1716.105
1716.189
1716.247
1716.28
1716.29
1716.277
1716.241
1716.181
1716.097
1715.987
1715.852
1715.693
1715.51
1715.307
1715.085
1714.849
1714.601
1714.345
1714.082
1713.815
1713.543
1713.267
1712.984
1712.693
1712.388
1712.067
1711.724
1711.354
1710.961
1710.503
1710.118
1709.19
1735.326
1732.923
1730.357
1727.806
1725.411
1723.271
1721.448
1719.971
1718.843
1718.046
1717.547
1717.304
1717.269
1717.392
1717.626
1717.927
1718.259
1718.592
1718.904
1719.181
1719.416
1719.607
1719.756
1719.867
1719.947
1720
1720.033
1720.047
1720.046
1720.027
1719.99
1719.933
1719.853
1719.748
1719.617
1719.459
1719.275
1719.068
1718.841
1718.598
1718.342
1718.079
1717.812
1717.543
1717.273
1717.003
1716.731
1716.454
1716.168
1715.87
1715.552
1715.211
1714.842
1714.439
1714.001
1713.522
1713.011
1712.427
1711.931
1710.817
1728.879
1726.351
1724.328
1722.813
1721.761
1721.107
1720.785
1720.725
1720.863
1721.138
1721.496
1721.891
1722.286
1722.653
1722.974
1723.239
1723.445
1723.595
1723.697
1723.76
1723.794
1723.809
1723.811
1723.804
1723.791
1723.769
1723.736
1723.687
1723.616
1723.52
1723.396
1723.241
1723.057
1722.845
1722.609
1722.355
1722.087
1721.811
1721.533
1721.256
1720.981
1720.71
1720.442
1720.174
1719.9
1719.617
1719.318
1718.996
1718.648
1718.266
1717.848
1717.392
1716.895
1716.359
1715.787
1715.178
1714.547
1713.856
1713.278
1712.07
1723.485
1723.625
1723.876
1724.231
1724.661
1725.134
1725.619
1726.087
1726.514
1726.881
1727.177
1727.398
1727.547
1727.633
1727.669
1727.668
1727.645
1727.612
1727.579
1727.55
1727.526
1727.505
1727.48
1727.445
1727.39
1727.309
1727.196
1727.048
1726.864
1726.646
1726.399
1726.129
1725.843
1725.55
1725.255
1724.964
1724.68
1724.405
1724.137
1723.873
1723.609
1723.338
1723.053
1722.747
1722.414
1722.047
1721.643
1721.198
1720.713
1720.187
1719.624
1719.027
1718.401
1717.752
1717.088
1716.411
1715.736
1715.026
1714.446
1713.286
1729.754
1730.098
1730.41
1730.715
1731.004
1731.259
1731.461
1731.6
1731.672
1731.683
1731.646
1731.576
1731.492
1731.408
1731.338
1731.286
1731.254
1731.238
1731.228
1731.214
1731.183
1731.124
1731.028
1730.889
1730.706
1730.48
1730.218
1729.927
1729.618
1729.299
1728.981
1728.671
1728.373
1728.09
1727.821
1727.561
1727.306
1727.048
1726.778
1726.487
1726.168
1725.813
1725.418
1724.98
1724.498
1723.973
1723.409
1722.811
1722.186
1721.539
1720.879
1720.212
1719.544
1718.882
1718.228
1717.584
1716.958
1716.311
1715.789
1714.728
1734.525
1734.881
1735.192
1735.43
1735.574
1735.621
1735.585
1735.489
1735.363
1735.233
1735.121
1735.04
1734.996
1734.983
1734.991
1735.003
1735.003
1734.974
1734.901
1734.776
1734.594
1734.359
1734.076
1733.758
1733.415
1733.063
1732.714
1732.377
1732.06
1731.766
1731.494
1731.24
1730.996
1730.753
1730.5
1730.227
1729.924
1729.582
1729.195
1728.76
1728.277
1727.747
1727.175
1726.567
1725.931
1725.275
1724.608
1723.939
1723.273
1722.619
1721.978
1721.355
1720.749
1720.159
1719.582
1719.011
1718.45
1717.852
1717.365
1716.296
1739.523
1739.869
1739.921
1739.784
1739.553
1739.296
1739.065
1738.892
1738.788
1738.751
1738.764
1738.804
1738.844
1738.856
1738.819
1738.717
1738.542
1738.297
1737.989
1737.633
1737.246
1736.847
1736.454
1736.081
1735.738
1735.429
1735.154
1734.906
1734.678
1734.455
1734.226
1733.975
1733.692
1733.365
1732.987
1732.555
1732.068
1731.528
1730.942
1730.317
1729.662
1728.989
1728.306
1727.625
1726.953
1726.296
1725.66
1725.047
1724.457
1723.889
1723.338
1722.799
1722.266
1721.731
1721.187
1720.624
1720.044
1719.393
1718.853
1717.611
1744.342
1743.612
1743.036
1742.643
1742.426
1742.359
1742.402
1742.51
1742.637
1742.737
1742.774
1742.724
1742.572
1742.322
1741.983
1741.576
1741.128
1740.663
1740.209
1739.784
1739.404
1739.074
1738.794
1738.556
1738.349
1738.155
1737.957
1737.737
1737.48
1737.173
1736.806
1736.376
1735.882
1735.329
1734.723
1734.074
1733.395
1732.697
1731.992
1731.292
1730.607
1729.942
1729.305
1728.696
1728.116
1727.563
1727.031
1726.516
1726.009
1725.502
1724.986
1724.455
1723.899
1723.311
1722.687
1722.018
1721.313
1720.515
1719.845
1718.35
1744.72
1745.164
1745.588
1745.997
1746.368
1746.663
1746.845
1746.888
1746.778
1746.519
1746.13
1745.644
1745.098
1744.533
1743.984
1743.482
1743.047
1742.687
1742.401
1742.179
1742.003
1741.85
1741.696
1741.519
1741.297
1741.016
1740.663
1740.234
1739.731
1739.158
1738.525
1737.846
1737.134
1736.404
1735.671
1734.948
1734.245
1733.57
1732.928
1732.322
1731.75
1731.209
1730.693
1730.197
1729.71
1729.225
1728.731
1728.222
1727.687
1727.12
1726.516
1725.869
1725.176
1724.437
1723.651
1722.817
1721.95
1720.994
1720.193
1718.51
1751.037
1751.304
1751.455
1751.469
1751.318
1750.989
1750.496
1749.875
1749.175
1748.454
1747.765
1747.149
1746.636
1746.237
1745.948
1745.754
1745.627
1745.536
1745.448
1745.331
1745.158
1744.91
1744.574
1744.145
1743.625
1743.024
1742.355
1741.634
1740.88
1740.111
1739.343
1738.592
1737.869
1737.182
1736.537
1735.933
1735.37
1734.843
1734.344
1733.866
1733.398
1732.931
1732.455
1731.96
1731.439
1730.885
1730.291
1729.654
1728.972
1728.242
1727.466
1726.645
1725.782
1724.882
1723.95
1722.987
1722.012
1720.974
1720.11
1718.395
1755.008
1754.946
1754.595
1753.991
1753.21
1752.348
1751.499
1750.743
1750.131
1749.685
1749.403
1749.258
1749.212
1749.217
1749.225
1749.195
1749.089
1748.884
1748.565
1748.129
1747.582
1746.939
1746.218
1745.441
1744.632
1743.813
1743.004
1742.221
1741.476
1740.779
1740.132
1739.535
1738.985
1738.475
1737.996
1737.538
1737.089
1736.64
1736.18
1735.698
1735.186
1734.637
1734.047
1733.412
1732.729
1731.999
1731.223
1730.403
1729.543
1728.648
1727.722
1726.772
1725.802
1724.82
1723.832
1722.84
1721.86
1720.846
1720.011
1718.414
1757.798
1756.825
1755.672
1754.578
1753.698
1753.095
1752.77
1752.677
1752.745
1752.894
1753.049
1753.144
1753.132
1752.98
1752.675
1752.218
1751.623
1750.914
1750.116
1749.262
1748.381
1747.5
1746.642
1745.825
1745.06
1744.356
1743.714
1743.13
1742.6
1742.112
1741.658
1741.223
1740.797
1740.366
1739.919
1739.447
1738.942
1738.395
1737.804
1737.164
1736.475
1735.737
1734.953
1734.126
1733.259
1732.36
1731.432
1730.483
1729.518
1728.544
1727.567
1726.592
1725.625
1724.67
1723.731
1722.81
1721.916
1721.008
1720.267
1718.866
1757.358
1756.088
1755.543
1755.547
1755.886
1756.364
1756.831
1757.176
1757.331
1757.263
1756.969
1756.465
1755.783
1754.964
1754.051
1753.087
1752.11
1751.153
1750.24
1749.389
1748.61
1747.909
1747.281
1746.722
1746.22
1745.764
1745.339
1744.932
1744.528
1744.116
1743.682
1743.217
1742.714
1742.165
1741.568
1740.919
1740.22
1739.47
1738.673
1737.833
1736.955
1736.045
1735.109
1734.154
1733.186
1732.212
1731.239
1730.271
1729.315
1728.375
1727.455
1726.557
1725.684
1724.837
1724.016
1723.22
1722.454
1721.677
1721.048
1719.83
1756.557
1758.79
1760.429
1761.486
1762.007
1762.054
1761.707
1761.05
1760.166
1759.133
1758.021
1756.889
1755.78
1754.731
1753.763
1752.889
1752.113
1751.432
1750.838
1750.318
1749.858
1749.442
1749.053
1748.675
1748.295
1747.898
1747.473
1747.011
1746.505
1745.95
1745.343
1744.682
1743.968
1743.203
1742.391
1741.536
1740.644
1739.721
1738.773
1737.809
1736.833
1735.855
1734.879
1733.913
1732.961
1732.028
1731.118
1730.235
1729.38
1728.553
1727.757
1726.989
1726.248
1725.533
1724.84
1724.164
1723.509
1722.83
1722.281
1721.16
1770.283
1769.227
1767.905
1766.425
1764.88
1763.342
1761.864
1760.485
1759.229
1758.109
1757.126
1756.277
1755.55
1754.931
1754.402
1753.945
1753.541
1753.172
1752.82
1752.47
1752.107
1751.719
1751.297
1750.831
1750.317
1749.75
1749.128
1748.451
1747.72
1746.938
1746.109
1745.238
1744.331
1743.394
1742.435
1741.459
1740.475
1739.49
1738.51
1737.541
1736.589
1735.659
1734.754
1733.879
1733.034
1732.221
1731.44
1730.691
1729.972
1729.28
1728.613
1727.967
1727.337
1726.72
1726.11
1725.501
1724.896
1724.248
1723.718
1722.578
1766.523
1765.226
1763.99
1762.861
1761.854
1760.97
1760.204
1759.544
1758.978
1758.49
1758.065
1757.686
1757.339
1757.007
1756.678
1756.338
1755.977
1755.583
1755.15
1754.671
1754.141
1753.557
1752.918
1752.223
1751.475
1750.676
1749.83
1748.944
1748.022
1747.071
1746.099
1745.113
1744.12
1743.127
1742.141
1741.168
1740.215
1739.284
1738.382
1737.51
1736.672
1735.867
1735.096
1734.359
1733.654
1732.978
1732.329
1731.703
1731.095
1730.501
1729.915
1729.334
1728.751
1728.162
1727.563
1726.946
1726.318
1725.626
1725.054
1723.796
1765.591
1764.916
1764.258
1763.65
1763.099
1762.604
1762.158
1761.75
1761.369
1761.003
1760.641
1760.27
1759.881
1759.463
1759.008
1758.509
1757.961
1757.36
1756.705
1755.995
1755.231
1754.418
1753.558
1752.656
1751.721
1750.757
1749.772
1748.775
1747.771
1746.77
1745.777
1744.8
1743.843
1742.912
1742.01
1741.141
1740.306
1739.507
1738.744
1738.016
1737.32
1736.656
1736.018
1735.405
1734.811
1734.232
1733.663
1733.1
1732.536
1731.967
1731.388
1730.795
1730.184
1729.55
1728.892
1728.203
1727.493
1726.707
1726.053
1724.628
1766.839
1766.398
1765.959
1765.545
1765.158
1764.789
1764.426
1764.058
1763.671
1763.257
1762.805
1762.307
1761.758
1761.154
1760.493
1759.775
1759.001
1758.175
1757.301
1756.386
1755.435
1754.457
1753.458
1752.448
1751.433
1750.422
1749.422
1748.439
1747.478
1746.545
1745.643
1744.776
1743.945
1743.151
1742.394
1741.672
1740.985
1740.329
1739.701
1739.097
1738.513
1737.944
1737.386
1736.833
1736.28
1735.723
1735.157
1734.577
1733.98
1733.362
1732.72
1732.051
1731.353
1730.625
1729.865
1729.071
1728.255
1727.36
1726.615
1725.034
1768.731
1768.508
1768.224
1767.902
1767.543
1767.143
1766.697
1766.198
1765.642
1765.027
1764.351
1763.615
1762.821
1761.974
1761.079
1760.143
1759.172
1758.174
1757.158
1756.133
1755.105
1754.083
1753.074
1752.085
1751.12
1750.185
1749.284
1748.419
1747.591
1746.802
1746.051
1745.336
1744.656
1744.008
1743.388
1742.792
1742.215
1741.654
1741.103
1740.556
1740.01
1739.459
1738.899
1738.326
1737.735
1737.125
1736.49
1735.83
1735.142
1734.426
1733.679
1732.902
1732.095
1731.259
1730.394
1729.499
1728.588
1727.604
1726.786
1725.098
1771.366
1771.051
1770.631
1770.131
1769.562
1768.928
1768.229
1767.469
1766.651
1765.78
1764.861
1763.902
1762.91
1761.893
1760.861
1759.82
1758.78
1757.748
1756.732
1755.737
1754.77
1753.834
1752.934
1752.071
1751.248
1750.463
1749.718
1749.01
1748.337
1747.696
1747.083
1746.494
1745.924
1745.369
1744.823
1744.282
1743.74
1743.193
1742.635
1742.064
1741.476
1740.866
1740.234
1739.575
1738.89
1738.176
1737.434
1736.663
1735.864
1735.037
1734.184
1733.305
1732.403
1731.478
1730.534
1729.569
1728.597
1727.561
1726.704
1724.97
1773.292
1772.738
1772.065
1771.307
1770.479
1769.592
1768.654
1767.675
1766.664
1765.629
1764.579
1763.524
1762.471
1761.429
1760.405
1759.404
1758.434
1757.497
1756.597
1755.737
1754.917
1754.138
1753.399
1752.697
1752.031
1751.396
1750.79
1750.208
1749.644
1749.094
1748.553
1748.015
1747.476
1746.931
1746.375
1745.804
1745.215
1744.604
1743.969
1743.309
1742.621
1741.905
1741.161
1740.389
1739.59
1738.764
1737.914
1737.04
1736.145
1735.231
1734.299
1733.351
1732.389
1731.416
1730.432
1729.436
1728.443
1727.393
1726.527
1724.794
1774.17
1773.363
1772.448
1771.467
1770.442
1769.389
1768.321
1767.249
1766.181
1765.127
1764.093
1763.087
1762.112
1761.173
1760.274
1759.416
1758.6
1757.826
1757.092
1756.397
1755.737
1755.11
1754.51
1753.934
1753.376
1752.831
1752.294
1751.759
1751.222
1750.678
1750.122
1749.55
1748.959
1748.346
1747.707
1747.043
1746.35
1745.629
1744.88
1744.102
1743.298
1742.468
1741.615
1740.739
1739.844
1738.932
1738.003
1737.062
1736.11
1735.148
1734.179
1733.203
1732.222
1731.236
1730.247
1729.252
1728.263
1727.222
1726.365
1724.651
1774.075
1773.092
1772.044
1770.971
1769.896
1768.834
1767.793
1766.781
1765.803
1764.864
1763.966
1763.11
1762.298
1761.528
1760.8
1760.111
1759.458
1758.837
1758.244
1757.674
1757.121
1756.581
1756.047
1755.516
1754.98
1754.437
1753.88
1753.307
1752.713
1752.096
1751.452
1750.782
1750.083
1749.356
1748.599
1747.815
1747.003
1746.167
1745.307
1744.426
1743.526
1742.609
1741.679
1740.738
1739.787
1738.829
1737.866
1736.899
1735.929
1734.958
1733.986
1733.013
1732.039
1731.064
1730.087
1729.105
1728.13
1727.101
1726.254
1724.553
1773.427
1772.463
1771.465
1770.472
1769.503
1768.569
1767.675
1766.823
1766.015
1765.25
1764.527
1763.844
1763.197
1762.581
1761.994
1761.429
1760.881
1760.345
1759.815
1759.286
1758.752
1758.208
1757.651
1757.075
1756.477
1755.856
1755.207
1754.53
1753.824
1753.089
1752.324
1751.532
1750.712
1749.867
1748.999
1748.11
1747.203
1746.281
1745.345
1744.4
1743.446
1742.487
1741.524
1740.559
1739.594
1738.629
1737.666
1736.704
1735.744
1734.785
1733.827
1732.868
1731.909
1730.946
1729.981
1729.008
1728.039
1727.014
1726.17
1724.464
1773.054
1772.223
1771.374
1770.543
1769.747
1768.989
1768.273
1767.595
1766.953
1766.343
1765.76
1765.2
1764.657
1764.124
1763.597
1763.07
1762.536
1761.993
1761.434
1760.855
1760.254
1759.627
1758.973
1758.289
1757.575
1756.832
1756.058
1755.256
1754.427
1753.573
1752.696
1751.799
1750.883
1749.953
1749.011
1748.06
1747.101
1746.138
1745.173
1744.207
1743.241
1742.278
1741.318
1740.36
1739.407
1738.456
1737.508
1736.562
1735.617
1734.672
1733.726
1732.777
1731.823
1730.864
1729.9
1728.925
1727.951
1726.919
1726.068
1724.347
1773.3
1772.655
1771.991
1771.34
1770.714
1770.115
1769.541
1768.987
1768.448
1767.919
1767.395
1766.869
1766.336
1765.792
1765.23
1764.649
1764.043
1763.411
1762.75
1762.059
1761.337
1760.585
1759.802
1758.99
1758.151
1757.287
1756.401
1755.494
1754.57
1753.632
1752.682
1751.724
1750.759
1749.791
1748.822
1747.853
1746.885
1745.921
1744.961
1744.004
1743.053
1742.105
1741.162
1740.222
1739.284
1738.348
1737.412
1736.476
1735.537
1734.595
1733.649
1732.697
1731.738
1730.772
1729.798
1728.813
1727.829
1726.787
1725.927
1724.196
1774.309
1773.823
1773.301
1772.773
1772.248
1771.728
1771.208
1770.684
1770.152
1769.606
1769.042
1768.457
1767.846
1767.208
1766.539
1765.84
1765.11
1764.348
1763.555
1762.734
1761.885
1761.011
1760.114
1759.198
1758.265
1757.318
1756.36
1755.395
1754.424
1753.45
1752.476
1751.503
1750.533
1749.566
1748.605
1747.648
1746.696
1745.75
1744.808
1743.87
1742.936
1742.003
1741.072
1740.142
1739.21
1738.276
1737.34
1736.4
1735.455
1734.504
1733.548
1732.585
1731.615
1730.639
1729.655
1728.663
1727.673
1726.629
1725.767
1724.045
1775.876
1775.465
1774.995
1774.493
1773.971
1773.429
1772.865
1772.276
1771.661
1771.016
1770.341
1769.633
1768.893
1768.122
1767.319
1766.487
1765.628
1764.743
1763.836
1762.91
1761.968
1761.012
1760.047
1759.074
1758.097
1757.117
1756.138
1755.161
1754.187
1753.218
1752.255
1751.296
1750.344
1749.397
1748.456
1747.519
1746.585
1745.654
1744.725
1743.796
1742.867
1741.937
1741.004
1740.069
1739.13
1738.187
1737.24
1736.288
1735.331
1734.369
1733.403
1732.432
1731.457
1730.477
1729.494
1728.505
1727.523
1726.491
1725.641
1723.951
1777.618
1777.18
1776.66
1776.089
1775.478
1774.832
1774.151
1773.436
1772.687
1771.906
1771.093
1770.25
1769.38
1768.484
1767.567
1766.631
1765.68
1764.715
1763.742
1762.762
1761.778
1760.793
1759.809
1758.828
1757.851
1756.879
1755.913
1754.953
1754
1753.052
1752.11
1751.173
1750.239
1749.309
1748.38
1747.451
1746.523
1745.593
1744.662
1743.727
1742.79
1741.849
1740.905
1739.957
1739.005
1738.05
1737.092
1736.132
1735.169
1734.205
1733.239
1732.272
1731.305
1730.337
1729.37
1728.4
1727.44
1726.434
1725.607
1723.965
1779.123
1778.573
1777.93
1777.228
1776.48
1775.693
1774.872
1774.02
1773.139
1772.234
1771.306
1770.36
1769.399
1768.426
1767.445
1766.457
1765.467
1764.477
1763.488
1762.503
1761.523
1760.548
1759.58
1758.619
1757.665
1756.716
1755.774
1754.836
1753.902
1752.971
1752.041
1751.113
1750.184
1749.253
1748.321
1747.386
1746.448
1745.507
1744.562
1743.615
1742.664
1741.71
1740.755
1739.798
1738.84
1737.883
1736.926
1735.97
1735.016
1734.064
1733.115
1732.168
1731.224
1730.282
1729.343
1728.403
1727.474
1726.501
1725.702
1724.111
1780.09
1779.4
1778.617
1777.776
1776.896
1775.985
1775.049
1774.095
1773.125
1772.144
1771.155
1770.161
1769.165
1768.169
1767.176
1766.187
1765.204
1764.227
1763.258
1762.295
1761.339
1760.39
1759.447
1758.509
1757.574
1756.643
1755.712
1754.783
1753.853
1752.921
1751.987
1751.051
1750.111
1749.168
1748.222
1747.272
1746.32
1745.366
1744.409
1743.452
1742.495
1741.539
1740.585
1739.633
1738.685
1737.741
1736.801
1735.866
1734.936
1734.011
1733.091
1732.175
1731.263
1730.354
1729.448
1728.54
1727.642
1726.698
1725.923
1724.367
1780.475
1779.656
1778.757
1777.814
1776.845
1775.861
1774.867
1773.868
1772.867
1771.867
1770.871
1769.879
1768.893
1767.915
1766.944
1765.98
1765.024
1764.074
1763.131
1762.192
1761.257
1760.325
1759.394
1758.463
1757.532
1756.599
1755.663
1754.725
1753.783
1752.837
1751.888
1750.936
1749.981
1749.024
1748.065
1747.107
1746.148
1745.191
1744.237
1743.285
1742.338
1741.396
1740.46
1739.53
1738.607
1737.69
1736.781
1735.877
1734.98
1734.089
1733.202
1732.319
1731.437
1730.557
1729.678
1728.794
1727.916
1726.989
1726.227
1724.683
1780.371
1779.488
1778.537
1777.556
1776.561
1775.564
1774.567
1773.574
1772.588
1771.609
1770.637
1769.673
1768.717
1767.767
1766.823
1765.885
1764.95
1764.017
1763.086
1762.154
1761.221
1760.287
1759.349
1758.408
1757.464
1756.515
1755.563
1754.608
1753.65
1752.689
1751.728
1750.766
1749.805
1748.846
1747.89
1746.937
1745.989
1745.047
1744.112
1743.183
1742.262
1741.349
1740.444
1739.546
1738.657
1737.774
1736.898
1736.028
1735.162
1734.3
1733.439
1732.579
1731.718
1730.855
1729.988
1729.112
1728.239
1727.313
1726.549
1724.991
1780.066
1779.174
1778.224
1777.253
1776.276
1775.301
1774.332
1773.37
1772.415
1771.466
1770.523
1769.585
1768.651
1767.718
1766.787
1765.854
1764.921
1763.985
1763.045
1762.102
1761.155
1760.204
1759.248
1758.29
1757.328
1756.364
1755.399
1754.434
1753.47
1752.508
1751.549
1750.594
1749.644
1748.701
1747.765
1746.836
1745.915
1745.003
1744.099
1743.204
1742.318
1741.439
1740.568
1739.704
1738.846
1737.993
1737.143
1736.296
1735.45
1734.603
1733.755
1732.903
1732.046
1731.182
1730.31
1729.427
1728.543
1727.601
1726.824
1725.232
1779.767
1778.902
1777.984
1777.046
1776.103
1775.161
1774.223
1773.288
1772.355
1771.425
1770.494
1769.562
1768.628
1767.691
1766.75
1765.805
1764.856
1763.901
1762.943
1761.981
1761.016
1760.048
1759.08
1758.111
1757.144
1756.178
1755.216
1754.259
1753.307
1752.362
1751.424
1750.494
1749.573
1748.661
1747.757
1746.863
1745.977
1745.1
1744.231
1743.37
1742.515
1741.665
1740.821
1739.979
1739.14
1738.302
1737.464
1736.624
1735.781
1734.933
1734.08
1733.219
1732.349
1731.47
1730.58
1729.676
1728.77
1727.802
1727.003
1725.369
1779.592
1778.763
1777.878
1776.969
1776.05
1775.127
1774.201
1773.272
1772.339
1771.403
1770.462
1769.515
1768.564
1767.607
1766.646
1765.681
1764.712
1763.741
1762.769
1761.797
1760.826
1759.858
1758.893
1757.933
1756.979
1756.032
1755.093
1754.161
1753.239
1752.326
1751.422
1750.527
1749.642
1748.765
1747.897