/*--------------------------------*- C++ -*----------------------------------*\
| =========                 |                                                 |
| \\      /  F ield         | OpenFOAM: The Open Source CFD Toolbox           |
|  \\    /   O peration     | Version:  2312                                  |
|   \\  /    A nd           | Website:  www.openfoam.com                      |
|    \\/     M anipulation  |                                                 |
\*---------------------------------------------------------------------------*/
FoamFile
{
    version     2.0;
    format      ascii;
    arch        "LSB;label=32;scalar=64";
    class       volScalarField;
    location    "3150";
    object      ILambda_9_0;
}
// * * * * * * * * * * * * * * * * * * * * * * * * * * * * * * * * * * * * * //

dimensions      [1 0 -3 0 0 0 0];

internalField   nonuniform List<scalar> 
12000
(
635.3558
631.1388
629.0516
626.6577
624.5812
622.739
621.1851
619.9193
618.9304
618.1895
617.6571
617.2877
617.0363
616.8638
616.7408
616.6503
616.5874
616.5564
616.5651
616.6186
616.7101
616.8141
616.88
616.8298
616.56
615.9486
614.8673
613.1973
610.8475
607.7726
603.987
599.5732
594.6817
589.5212
584.3409
579.4053
574.9655
571.2314
568.3471
566.3734
565.2784
564.9366
565.1344
565.582
565.9307
565.7966
564.7923
562.5681
558.8628
553.5601
546.7405
538.7121
530.003
521.304
513.3571
506.8051
502.0404
499.0978
497.6439
497.0892
642.8432
638.884
636.5379
633.76
631.0862
628.5099
626.1294
624.0042
622.1781
620.6708
619.4787
618.5766
617.923
617.4656
617.1493
616.9238
616.75
616.605
616.484
616.3986
616.372
616.4308
616.5941
616.8622
617.2061
617.5596
617.8175
617.8389
617.4593
616.508
614.8314
612.3176
608.9194
604.6712
599.6959
594.2001
588.4579
582.7831
577.4962
572.8894
569.1952
566.5622
565.0404
564.5743
565.0031
566.0642
567.4001
568.5702
569.0738
568.39
566.0431
561.689
555.2144
546.8229
537.0751
526.8494
517.205
509.1553
503.3968
500.0644
646.0394
642.9017
640.8371
638.3054
635.6964
633.027
630.3973
627.8894
625.579
623.526
621.7702
620.3289
619.1965
618.3469
617.7375
617.3156
617.0258
616.8168
616.6483
616.4955
616.3513
616.2248
616.1371
616.1133
616.1725
616.3162
616.5186
616.7185
616.8168
616.6802
616.1517
615.0687
613.2851
610.696
607.2601
603.0164
598.0901
592.6871
587.0761
581.56
576.4422
571.9924
568.4172
565.8399
564.2915
563.7094
563.9417
564.7519
565.8223
566.7568
567.0912
566.3215
563.9596
559.6223
553.1437
544.6858
534.8075
524.4452
514.7627
506.8282
648.9672
646.7303
645.0805
642.9646
640.6228
638.0757
635.4065
632.6993
630.0436
627.5248
625.2173
623.1792
621.4476
620.0363
618.9361
618.1173
617.5346
617.1338
616.8585
616.6584
616.495
616.3464
616.2085
616.0941
616.0266
616.0327
616.1308
616.32
616.5696
616.8113
616.9375
616.8057
616.2508
615.1044
613.2184
610.4914
606.8918
602.4735
597.3812
591.8421
586.1446
580.6066
575.538
571.2051
567.8005
565.4261
564.0871
563.6966
564.0845
565.0057
566.1427
567.1045
567.43
566.6084
564.1312
559.5831
552.7668
543.8332
533.3633
522.3107
650.6505
649.3168
648.2037
646.6774
644.8434
642.7043
640.3084
637.7187
635.014
632.2823
629.6142
627.0954
624.8001
622.7845
621.0833
619.7069
618.6427
617.8571
617.3016
616.9193
616.6523
616.4498
616.2742
616.1058
615.9438
615.8048
615.7166
615.7092
615.8037
616
616.2656
616.5283
616.674
616.5523
615.9895
614.81
612.861
610.0411
606.3235
601.7725
596.5479
590.8939
585.1157
579.5436
574.4937
570.2296
566.9331
564.6893
563.4843
563.215
563.7027
564.7023
565.9044
566.928
567.3158
566.5447
564.0723
559.4311
552.3688
543.0155
651.4464
650.8175
650.2195
649.2983
648.0679
646.5026
644.6092
642.4142
639.9654
637.3297
634.5885
631.8319
629.1516
626.6338
624.3517
622.36
620.6906
619.3509
618.3245
617.5746
617.0494
616.6895
616.4358
616.2371
616.0567
615.8768
615.6997
615.5451
615.4445
615.431
615.5273
615.7336
616.0153
616.2958
616.4547
616.3337
615.7516
614.526
612.5013
609.5771
605.7336
601.0473
595.6942
589.9368
584.0965
578.5156
573.5136
569.3483
566.1867
564.0925
563.0292
562.8756
563.4441
564.4937
565.73
566.792
567.237
566.5421
564.1554
559.6536
651.615
651.4168
651.2194
650.8044
650.1443
649.1875
647.9055
646.2854
644.335
642.084
639.5835
636.9031
634.127
631.3474
628.6571
626.1425
623.8758
621.9099
620.2739
618.9716
617.9831
617.268
616.7714
616.4316
616.1882
615.9899
615.8014
615.6071
615.4126
615.2415
615.129
615.1111
615.2126
615.4334
615.7363
616.0397
616.2161
616.0987
615.4979
614.2245
612.1196
609.0848
605.1077
600.2783
594.7904
588.9259
583.0243
577.4403
572.497
568.4453
565.4352
563.506
562.5953
562.5608
563.2053
564.2942
565.5556
566.6646
567.2305
566.845
651.4902
651.45
651.489
651.4074
651.1801
650.7412
650.0422
649.0402
647.7069
646.0316
644.0245
641.7182
639.1668
636.4431
633.6338
630.8331
628.1351
625.6262
623.3777
621.4402
619.84
618.5775
617.6287
616.9497
616.4824
616.1629
615.9294
615.7308
615.533
615.3232
615.1103
614.9222
614.7977
614.7763
614.8845
615.1218
615.4484
615.7772
615.9731
615.8606
615.241
613.9185
611.731
608.5819
604.4673
599.4914
593.8667
587.8959
581.9375
576.3589
571.487
567.5647
564.7225
562.9726
562.223
562.3078
563.0216
564.1439
565.4492
566.7145
651.3368
651.2543
651.3709
651.437
651.4572
651.3663
651.1138
650.6438
649.9059
648.8585
647.4741
645.744
643.6808
641.32
638.7188
635.9531
633.1124
630.2927
627.5893
625.0885
622.8605
620.9539
619.3917
618.1706
617.2629
616.6207
616.183
615.8834
615.659
615.4591
615.251
615.0247
614.793
614.5879
614.4523
614.429
614.5461
614.8026
615.1556
615.5123
615.7294
615.6223
614.9834
613.6097
611.336
608.0684
603.8117
598.6853
592.9216
586.8455
580.8353
575.2726
570.4875
566.7137
564.0598
562.507
561.9311
562.1429
562.9349
564.1193
651.3094
651.086
651.1673
651.2336
651.3273
651.3961
651.4017
651.2931
651.0158
650.5144
649.738
648.6454
647.2104
645.4259
643.3072
640.8928
638.243
635.4369
632.5666
629.7301
627.0238
624.5338
622.3292
620.4559
618.934
617.7562
616.8909
616.2864
615.8784
615.5981
615.382
615.1795
614.9598
614.7161
614.4651
614.243
614.0973
614.0738
614.2022
614.4807
614.863
615.25
615.4903
615.3896
614.7309
613.3043
610.9416
607.5515
603.1482
597.8673
591.9625
585.7821
579.7264
574.1913
569.5106
565.9071
563.4652
562.133
561.7537
562.1143
651.4468
651.0764
651.0718
651.0566
651.1042
651.1796
651.2646
651.3245
651.3167
651.19
650.8885
650.3561
649.5415
648.4041
646.9187
645.0803
642.9067
640.4396
637.7425
634.8976
631.9997
629.1489
626.4423
623.9659
621.7873
619.9501
618.4707
617.3382
616.5165
615.9502
615.5718
615.3103
615.1013
614.8948
614.6623
614.4001
614.1292
613.8906
613.7358
613.7139
613.8561
614.1595
614.5739
614.9939
615.2592
615.1658
614.4874
613.0068
610.5527
607.0367
602.4829
597.0439
590.9962
584.7134
578.6193
573.1258
568.5706
565.1644
562.9634
561.8669
651.7044
651.2383
651.1523
651.0398
650.9911
650.9864
651.0261
651.0962
651.1738
651.2246
651.2042
651.0599
650.7348
650.1718
649.3194
648.1374
646.602
644.7102
642.4825
639.9637
637.2206
634.3387
631.4153
628.5525
625.8483
623.3883
621.2385
619.4399
618.0054
616.9198
616.1429
615.6152
615.266
615.0224
614.8192
614.6073
614.3605
614.0788
613.7878
613.5331
613.3706
613.3525
613.5111
613.8422
614.2917
614.7472
615.0397
614.9553
614.2579
612.7231
610.1764
606.5319
601.824
596.2231
590.0302
583.6472
577.524
572.0907
567.6838
564.4716
652.004
651.5084
651.3769
651.1967
651.0607
650.9569
650.8984
650.8875
650.9209
650.9854
651.0566
651.0991
651.0668
650.9058
650.5576
649.9645
649.0747
647.8485
646.2634
644.3187
642.0376
639.4681
636.6804
633.7632
630.8165
627.9442
625.245
622.8042
620.686
618.9286
617.5411
616.504
615.7727
615.2838
614.9633
614.7364
614.5373
614.3184
614.056
613.754
613.4428
613.1729
613.0044
612.9924
613.1703
613.5322
614.0196
614.5136
614.8362
614.7633
614.0494
612.4618
609.8219
606.0462
601.1796
595.412
589.0721
582.5925
576.4443
571.0361
652.2778
651.8008
651.6652
651.4631
651.2811
651.1076
650.959
650.8463
650.7792
650.7617
650.7897
650.8495
650.9154
650.9507
650.9076
650.7306
650.3601
649.7373
648.8104
647.5403
645.906
643.9089
641.5751
638.9558
636.1248
633.174
630.206
627.3266
624.6352
622.2163
620.1325
618.4188
617.0803
616.0932
615.4082
614.9579
614.6651
614.4535
614.257
614.0294
613.7502
613.4274
613.0964
612.8124
612.6399
612.6367
612.8368
613.2328
613.7619
614.2982
614.655
614.5979
613.8708
612.232
609.4982
605.588
600.5582
594.6208
588.1303
581.5257
652.493
652.0506
651.9384
651.7517
651.569
651.3729
651.1769
650.9918
650.8315
650.709
650.6341
650.6109
650.6348
650.6912
650.7533
650.7825
650.7297
650.5376
650.1453
649.4933
648.5297
647.216
645.5327
643.4836
641.0976
638.4295
635.5564
632.5736
629.5863
626.7022
624.0211
621.627
619.5803
617.9127
616.6251
615.6891
615.0509
614.6388
614.3729
614.175
613.9794
613.7417
613.4447
613.101
612.7508
612.4545
612.2805
612.2894
612.5155
612.9496
613.5247
614.1081
614.5041
614.4676
613.731
612.043
609.2155
605.1711
599.9821
593.8905
652.6545
652.2342
652.1521
651.9967
651.8417
651.6624
651.4658
651.2573
651.0474
650.8495
650.6781
650.5466
650.4652
650.4377
650.4591
650.5136
650.5733
650.5978
650.5362
650.3298
649.9163
649.2356
648.2355
646.8784
645.1463
643.0454
640.6078
637.8915
634.9774
631.9639
628.9593
626.0727
623.4046
621.038
619.0311
617.412
616.1773
615.2935
614.7023
614.328
614.0876
613.902
613.7058
613.4567
613.1413
612.7771
612.4093
612.1033
611.9312
611.956
612.2124
612.6892
613.3152
613.951
614.3918
614.3813
613.6414
611.9142
609.018
604.9224
652.7898
652.3659
652.3035
652.174
652.0521
651.907
651.7399
651.549
651.3384
651.1156
650.8922
650.6821
650.5006
650.3615
650.2752
650.2451
650.2657
650.3199
650.3785
650.3994
650.33
650.11
649.6759
648.9667
647.9304
646.53
644.7493
642.5967
640.1077
637.3437
634.3894
631.3467
628.3265
625.4397
622.7872
620.451
618.4866
616.9184
615.7383
614.9079
614.3638
614.0266
613.8107
613.6358
613.4377
613.1766
612.8432
612.4598
612.0769
611.7645
611.5984
611.6435
611.9347
612.4591
613.1412
613.8353
614.3288
614.3599
613.6557
612.0131
652.9295
652.4793
652.4191
652.2983
652.1968
652.0811
651.9494
651.7948
651.6149
651.4102
651.1854
650.9488
650.7126
650.4916
650.3015
650.1567
650.0672
650.0363
650.0577
650.1132
650.1718
650.1902
650.1139
649.8809
649.4267
648.6894
647.617
646.1733
644.3437
642.1393
639.5988
636.7874
633.7937
630.723
627.689
624.8044
622.1704
619.8675
617.9485
616.4337
615.3099
614.5337
614.0368
613.7361
613.5436
613.3786
613.178
612.9051
612.5549
612.1546
611.7598
611.4449
611.2892
611.3593
611.6902
612.2677
613.0138
613.7821
614.3682
614.5588
653.091
652.6053
652.5332
652.4038
652.3036
652.1995
652.0902
651.9672
651.8247
651.658
651.4648
651.2465
651.0081
650.7587
650.5112
650.2809
650.0841
649.9352
649.8444
649.8145
649.8382
649.8962
649.9562
649.973
649.8905
649.6453
649.1713
648.406
647.2974
645.81
643.9311
641.6745
639.0823
636.2237
633.1912
630.0937
627.048
624.1682
621.5556
619.2893
617.4186
615.9596
614.8939
614.1727
613.7233
613.4587
613.2891
613.1337
612.9309
612.6473
612.2823
611.868
611.4651
611.152
611.0112
611.1115
611.4897
612.1342
612.9761
613.9009
653.2736
652.7582
652.6693
652.5221
652.4083
652.2975
652.1907
652.081
651.9628
651.8296
651.6757
651.4967
651.2908
651.0596
650.8088
650.5481
650.291
650.0533
649.8516
649.7005
649.6101
649.5826
649.61
649.6718
649.7342
649.7504
649.6626
649.4055
648.9118
648.1183
646.9729
645.4412
643.5124
641.2031
638.559
635.6533
632.5827
629.46
626.4048
623.5326
620.9447
618.7182
616.8991
615.4984
614.4927
613.8276
613.426
613.1977
613.0512
612.9059
612.7021
612.4097
612.0325
611.6075
611.2
610.8933
610.7742
610.9166
611.3648
612.1207
653.4631
652.9325
652.831
652.6674
652.5357
652.408
652.2882
652.1726
652.058
651.9397
651.8118
651.6682
651.5032
651.3127
651.0951
650.8524
650.5908
650.3205
650.0555
649.8121
649.6073
649.4557
649.3671
649.3435
649.3758
649.4426
649.5085
649.5249
649.432
649.1632
648.6496
647.8275
646.6448
645.0681
643.0885
640.7258
638.0294
635.0768
631.9691
628.8229
625.7606
622.8994
620.3399
618.157
616.3927
615.0532
614.1094
613.5019
613.1491
612.9579
612.8355
612.7016
612.4986
612.1996
611.8126
611.3801
610.9734
610.6828
610.6026
610.8115
653.6423
653.1107
653.0058
652.8345
652.6904
652.5464
652.4087
652.2762
652.1491
652.0255
651.9024
651.7752
651.638
651.4847
651.3096
651.1088
650.8809
650.6283
650.3575
650.0793
649.8081
649.5606
649.3541
649.2034
649.1181
649.0997
649.1384
649.2112
649.2812
649.2981
649.2004
648.9197
648.3859
647.5346
646.3137
644.6911
642.66
640.2432
637.4942
634.495
631.3513
628.1836
625.1174
622.2708
619.7438
617.6087
615.9031
614.6279
613.7485
613.2004
612.898
612.7454
612.6488
612.5281
612.3276
612.0242
611.6312
611.1986
610.8067
610.5517
653.8007
653.2749
653.1749
653.0058
652.8594
652.7079
652.5576
652.4086
652.2632
652.1227
651.9873
651.8556
651.7244
651.589
651.4436
651.282
651.0983
650.8888
650.6521
650.3911
650.1126
649.8278
649.5517
649.3015
649.0947
648.9463
648.8657
648.8537
648.8995
648.979
649.0537
649.0713
648.9688
648.676
648.1216
647.2404
645.9807
644.3113
642.2277
639.7561
636.9542
633.909
630.7306
627.5441
624.4774
621.6499
619.1604
617.0777
615.4351
614.2278
613.4157
612.9293
612.6794
612.5674
612.4984
612.393
612.1983
611.8973
611.5124
611.1062
653.9393
653.4161
653.3245
653.1634
653.0234
652.8747
652.7221
652.5652
652.4067
652.2492
652.0952
651.9465
651.8033
651.6644
651.5264
651.3844
651.2324
651.064
650.8733
650.6564
650.4124
650.1441
649.859
649.5687
649.2889
649.0372
648.8314
648.6865
648.6116
648.6069
648.6606
648.7473
648.8269
648.8455
648.7382
648.433
647.8577
646.946
645.6466
643.9294
641.7925
639.2654
636.4106
633.32
630.1091
626.9069
623.8443
621.0412
618.5946
616.5698
614.9948
613.8592
613.1175
612.6956
612.5004
612.4314
612.3937
612.3111
612.1388
611.8768
654.069
653.5381
653.4521
653.2981
653.1677
653.0281
652.8823
652.7283
652.5672
652.4012
652.2335
652.0671
651.9051
651.7491
651.5997
651.4552
651.3121
651.1653
651.0084
650.8346
650.6382
650.4151
650.1646
649.89
649.5992
649.3046
649.0221
648.77
648.5661
648.4255
648.3571
648.3603
648.4224
648.5168
648.6017
648.6215
648.5094
648.1919
647.5952
646.6526
645.3126
643.5468
641.3555
638.7725
635.865
632.7304
629.4897
626.2761
623.223
620.4502
618.0527
616.0915
614.589
613.5291
612.8609
612.5063
612.3701
612.3529
612.3659
612.3511
654.2046
653.6539
653.5665
653.4135
653.2891
653.1583
653.0229
652.8784
652.7244
652.561
652.3902
652.2148
652.0383
651.8642
651.6956
651.5342
651.3804
651.2322
651.0858
650.9358
650.7752
650.5973
650.396
650.1675
649.9113
649.6313
649.3357
649.0375
648.7531
648.5012
648.2999
648.1643
648.1029
648.1146
648.1857
648.2882
648.3789
648.4002
648.2836
647.9537
647.3354
646.3613
644.9802
643.1648
640.9187
638.2795
635.3201
632.1438
628.8768
625.657
622.6196
619.884
617.5422
615.6502
614.2248
613.2445
612.6546
612.3764
612.3193
612.3989
654.3576
653.7793
653.6829
653.5223
653.3961
653.2682
653.1397
653.0051
652.8619
652.7085
652.5448
652.3717
652.1917
652.0079
651.8241
651.6441
651.4708
651.306
651.1496
650.9993
650.8511
650.6989
650.5357
650.3544
650.1491
649.9159
649.6549
649.37
649.0702
648.7689
648.4831
648.2319
648.0337
647.9035
647.8497
647.8704
647.9512
648.0624
648.1594
648.1828
648.0619
647.7199
647.08
646.0741
644.6512
642.7859
640.4846
637.7899
634.7801
631.565
628.2765
625.0563
622.0414
619.3501
617.0705
615.2535
613.9112
613.0196
612.5262
612.3605
654.532
653.9255
653.8149
653.6402
653.504
653.3703
653.2409
653.1102
652.9749
652.8322
652.68
652.5173
652.3443
652.1626
651.9748
651.7844
651.5953
651.4113
651.2351
651.0685
650.9109
650.7598
650.6107
650.4572
650.2921
650.1082
649.8994
649.6622
649.3967
649.1073
648.8037
648.4996
648.2129
647.9628
647.7681
647.644
647.5983
647.6287
647.7197
647.8404
647.9444
647.9704
647.846
647.4921
646.8308
645.7932
644.3286
642.4134
640.0575
637.3084
634.2506
631.0003
627.6954
624.4814
621.4962
618.8566
616.6471
614.9154
613.6716
612.8908
654.7233
654.0947
653.9693
653.7783
653.627
653.4806
653.3419
653.2063
653.0712
652.9333
652.79
652.6387
652.478
652.307
652.1264
651.9378
651.7441
651.5489
651.3562
651.1696
650.9921
650.8247
650.6669
650.5159
650.3666
650.2126
650.0463
649.8602
649.6484
649.4074
649.1376
648.8442
648.537
648.2306
647.9432
647.6947
647.5041
647.3864
647.3495
647.3904
647.4924
647.6235
647.7354
647.765
647.6378
647.2729
646.5909
645.5222
644.0165
642.0521
639.6426
636.8408
633.7378
630.4565
627.1406
623.9396
620.9931
618.4172
616.2932
614.6588
654.9205
654.2805
654.144
653.9393
653.7729
653.6109
653.4576
653.3097
653.1659
653.0241
652.8819
652.7366
652.5858
652.4273
652.2595
652.082
651.8954
651.7017
651.5036
651.3051
651.1101
650.9222
650.7441
650.577
650.4198
650.2695
650.1208
649.9667
649.7994
649.6114
649.3967
649.1522
648.8785
648.5812
648.2708
647.9624
647.6749
647.4284
647.2424
647.132
647.1047
647.1569
647.271
647.4136
647.5347
647.5692
647.4405
647.066
646.3645
645.2659
643.7203
641.708
639.2464
636.394
633.2485
629.9402
626.6202
623.4437
620.5518
618.0501
655.111
654.4707
654.3289
654.1169
653.9397
653.7644
653.596
653.4327
653.2746
653.1211
652.9711
652.8229
652.6744
652.523
652.3663
652.2022
652.0291
651.8466
651.6555
651.4579
651.2567
651.0559
650.8595
650.6711
650.4934
650.3272
650.1713
650.0222
649.8742
649.7202
649.5521
649.3624
649.145
648.8971
648.6198
648.319
648.0058
647.696
647.4087
647.1649
646.9842
646.8818
646.8651
646.9299
647.0577
647.2134
647.3454
647.3867
647.2585
646.8761
646.157
645.0302
643.4464
641.3879
638.8759
635.9747
632.7903
629.4633
626.1532
623.0151
655.2847
654.6521
654.5113
654.2991
654.1179
653.9352
653.7561
653.5794
653.4063
653.2375
653.0736
652.9144
652.759
652.6059
652.4526
652.2968
652.1359
651.9675
651.7904
651.6042
651.4096
651.209
651.0056
650.8033
650.6062
650.4181
650.2414
650.0766
649.9223
649.7746
649.6276
649.4738
649.305
649.1137
648.8939
648.643
648.3624
648.0585
647.743
647.4322
647.1458
646.9054
646.7308
646.6376
646.6329
646.7121
646.8555
647.0268
647.1723
647.2227
647.0972
646.7092
645.9746
644.8218
643.2019
641.0992
638.5398
635.596
632.3855
629.0604
655.4361
654.8149
654.6794
654.4727
654.2944
654.1114
653.9285
653.7443
653.5603
653.3781
653.1992
653.0251
652.8564
652.6929
652.5338
652.3772
652.2209
652.0621
651.8981
651.7267
651.5464
651.3571
651.1598
650.9569
650.7518
650.5487
650.3517
650.1644
649.989
649.826
649.6736
649.5275
649.3816
649.2281
649.0588
648.8661
648.6441
648.3905
648.1071
647.8007
647.4834
647.1722
646.8876
646.6513
646.4841
646.4017
646.4112
646.5073
646.6693
646.859
647.0208
647.0832
646.9629
646.5717
645.824
644.6479
642.996
640.8571
638.2671
635.3191
655.565
654.9547
654.8261
654.628
654.457
654.2798
654.0999
653.9155
653.7276
653.5378
653.348
653.1604
652.9769
652.7988
652.6268
652.4608
652.2995
652.141
651.9828
651.8219
651.6556
651.4817
651.2989
651.1071
650.9076
650.7029
650.4968
650.2933
650.0967
649.9106
649.7369
649.576
649.4256
649.2814
649.1367
648.9838
648.8142
648.6204
648.3967
648.1409
647.8552
647.5469
647.2286
646.9178
646.6357
646.405
646.247
646.1778
646.2043
646.3206
646.5047
646.7165
646.8978
646.9747
646.8621
646.47
645.7136
644.524
642.8632
640.7486
655.6744
655.0722
654.9499
654.7603
654.5984
654.43
654.258
654.0796
653.895
653.705
653.5113
653.316
653.1214
652.9298
652.7432
652.5627
652.389
652.2217
652.0594
651.8999
651.7405
651.5782
651.4102
651.2343
651.0494
650.8555
650.6541
650.4481
650.2411
650.0376
649.8418
649.6572
649.4856
649.327
649.1789
649.0367
648.8936
648.7415
648.572
648.3776
648.1528
647.8955
647.6083
647.2989
646.9805
646.6712
646.3933
646.1701
646.0237
645.9707
646.0179
646.1585
646.3688
646.6062
646.8101
646.9044
646.8033
646.4201
645.6803
644.5488
655.768
655.1712
655.0532
654.8705
654.7166
654.5573
654.395
654.2259
654.0496
653.866
653.6757
653.4804
653.2818
653.0823
652.8844
652.6903
652.5018
652.3203
652.146
651.9783
651.8156
651.6558
651.4957
651.3325
651.1631
650.9856
650.7988
650.6031
650.4001
650.1929
649.9854
649.7822
649.5876
649.4047
649.2355
649.0796
648.9342
648.7943
648.6531
648.5023
648.3334
648.139
647.9139
647.656
647.3684
647.0591
646.742
646.4361
646.1644
645.9513
645.8198
645.7867
645.8589
646.0282
646.2687
646.5357
646.7671
646.8885
646.8233
646.5168
655.8487
655.2558
655.1404
654.9622
654.8141
654.6622
654.5086
654.3493
654.1833
654.0096
653.8282
653.6394
653.4445
653.2449
653.0427
652.8404
652.6404
652.4448
652.2556
652.0738
651.8995
651.7321
651.5698
651.41
651.2498
651.0858
650.9154
650.7363
650.5478
650.3504
650.1459
649.9378
649.7302
649.5277
649.3345
649.1539
648.9874
648.8345
648.6922
648.5551
648.4162
648.2673
648.0998
647.9064
647.682
647.425
647.1385
646.8313
646.5176
646.2173
645.9544
645.7546
645.6416
645.6328
645.7343
645.9371
646.2141
646.5215
646.8038
647.011
655.9168
655.3282
655.2147
655.0397
654.8955
654.7486
654.6014
654.4501
654.2935
654.1303
653.9598
653.7816
653.5959
653.4031
653.2046
653.002
652.7974
652.5932
652.3919
652.1957
652.0063
651.8249
651.6513
651.4847
651.3231
651.1637
651.0034
650.8389
650.6674
650.4869
650.2968
650.0978
649.8921
649.6834
649.4759
649.2745
649.0833
648.9054
648.7422
648.5928
648.454
648.3203
648.1845
648.0382
647.8732
647.6822
647.4603
647.2061
646.9231
646.6202
646.3124
646.0206
645.7697
645.5868
645.4963
645.5162
645.6535
645.9007
646.2363
646.6331
655.9711
655.3883
655.2773
655.1055
654.9644
654.821
654.6781
654.5323
654.3827
654.2281
654.0677
653.9008
653.7266
653.5449
653.3559
653.1602
652.9591
652.7542
652.5479
652.3424
652.1405
651.9442
651.7553
651.5747
651.4023
651.2368
651.0761
650.9173
650.7571
650.5921
650.4196
650.2378
650.0462
649.8458
649.6393
649.4302
649.2234
649.0235
648.8348
648.6601
648.5008
648.3555
648.2209
648.0914
647.9597
647.8175
647.6567
647.4702
647.2531
647.0043
646.7274
646.4317
646.1329
645.8527
645.6174
645.4551
645.3928
645.4518
645.6445
645.9752
656.0102
655.4341
655.327
655.1593
655.022
654.882
654.7425
654.6006
654.4557
654.3073
654.1545
653.9968
653.8334
653.6635
653.4866
653.3024
653.1109
652.913
652.7099
652.5034
652.2958
652.0897
651.8876
651.6917
651.5037
651.3242
651.1531
650.9889
650.8293
650.6712
650.5111
650.3458
650.1724
649.9894
649.7965
649.5951
649.3879
649.1791
648.9734
648.7757
648.5901
648.4194
648.2646
648.1243
647.995
647.871
647.745
647.6089
647.4547
647.2753
647.0659
646.8255
646.5579
646.2726
645.986
645.7209
645.5061
645.3739
645.3575
645.4872
656.0344
655.4641
655.3618
655.1994
655.0671
654.9317
654.7962
654.658
654.5169
654.3727
654.2251
654.0739
653.9187
653.7586
653.593
653.4211
653.2422
653.056
652.8627
652.6631
652.4584
652.2507
652.0423
651.8359
651.6339
651.4387
651.2518
651.0738
650.9042
650.7415
650.5831
650.4258
650.266
650.1003
649.9263
649.7423
649.5484
649.3462
649.139
648.9309
648.727
648.5322
648.3506
648.1848
648.0356
647.9016
647.7792
647.6626
647.5447
647.4174
647.2726
647.1035
646.9052
646.6766
646.4214
646.1499
645.8802
645.6391
645.4616
645.3888
656.0469
655.4786
655.3811
655.2239
655.0976
654.968
654.838
654.7047
654.5679
654.4277
654.2841
654.1375
653.9877
653.8346
653.6776
653.5159
653.3489
653.1754
652.9951
652.8074
652.6127
652.4116
652.2058
651.9972
651.7882
651.5817
651.3801
651.1858
651.0002
650.8237
650.6559
650.4948
650.3378
650.1815
650.0221
649.8564
649.6818
649.4971
649.3026
649.1002
648.8935
648.6869
648.4857
648.2947
648.1181
647.9586
647.8167
647.691
647.5777
647.4712
647.3643
647.2489
647.1171
646.9617
646.7779
646.5645
646.3265
646.0774
645.8417
645.6562
656.0545
655.4816
655.3869
655.2331
655.1124
654.9889
654.8654
654.7384
654.6075
654.4724
654.3334
654.191
654.0454
653.8969
653.7456
653.5912
653.433
653.2704
653.1023
652.9278
652.7464
652.5576
652.3617
652.1595
651.9527
651.7433
651.5339
651.3274
651.1265
650.9332
650.7491
650.5745
650.4086
650.2494
650.094
649.9388
649.78
649.6145
649.4397
649.2548
649.0602
648.8583
648.6529
648.4487
648.2513
648.0656
647.8958
647.7444
647.6122
647.4973
647.3961
647.3028
647.2103
647.1105
646.9952
646.8572
646.6925
646.503
646.2998
646.1088
656.0659
655.4804
655.385
655.2309
655.1131
654.9944
654.877
654.7568
654.633
654.5047
654.3718
654.2347
654.0938
653.9496
653.8025
653.6529
653.5006
653.3453
653.1865
653.0232
652.8545
652.6793
652.497
652.3073
652.1103
651.9071
651.6994
651.4894
651.2798
651.0735
650.8733
650.6814
650.499
650.3265
650.1628
650.0057
649.8521
649.6983
649.5406
649.3756
649.2012
649.0165
648.8226
648.622
648.419
648.2188
648.0268
647.8484
647.6877
647.5471
647.4273
647.3264
647.2407
647.1644
647.09
647.0095
646.9156
646.8039
646.6766
646.5494
656.0906
655.4847
655.3839
655.2246
655.1055
654.988
654.8743
654.7597
654.6426
654.5218
654.3965
654.2664
654.1318
653.9931
653.8506
653.7052
653.5571
653.4066
653.2538
653.0981
652.939
652.7754
652.6063
652.4305
652.2475
652.0569
651.859
651.6548
651.4463
651.2357
651.026
650.8202
650.621
650.4306
650.2503
650.0802
649.919
649.7644
649.613
649.4611
649.3048
649.1409
648.9674
648.7839
648.5917
648.3939
648.1951
648.0007
647.8166
647.648
647.4992
647.3726
647.2686
647.1854
647.119
647.0634
647.0123
646.9603
646.9063
646.8602
656.1365
655.5041
655.3933
655.2236
655.098
654.9769
654.8626
654.7502
654.6376
654.5231
654.4052
654.2831
654.1564
654.0249
653.8888
653.7488
653.6052
653.4589
653.3102
653.1593
653.0063
652.8505
652.6913
652.5275
652.358
652.1818
651.9981
651.8067
651.6078
651.4028
651.1936
650.9826
650.773
650.5678
650.3699
650.1814
650.0036
649.8362
649.678
649.5263
649.3776
649.2281
649.0739
648.9119
648.7405
648.5595
648.3707
648.1776
647.9852
647.7993
647.6258
647.4702
647.3367
647.2277
647.1434
647.0819
647.04
647.0146
647.0054
647.0209
656.2082
655.5464
655.4221
655.2377
655.1006
654.9707
654.8506
654.7354
654.6231
654.5115
654.3989
654.2837
654.1649
654.0417
653.9138
653.7811
653.644
653.503
653.3587
653.2118
653.0627
652.9117
652.7586
652.6028
652.4436
652.2797
652.1101
651.9334
651.7491
651.5569
651.3572
651.1514
650.9416
650.7304
650.5211
650.3169
650.1207
649.9346
649.7596
649.5955
649.4408
649.2926
649.1473
649.001
648.8498
648.6911
648.5233
648.3468
648.1637
647.9779
647.7947
647.6203
647.4609
647.322
647.2076
647.1201
647.0607
647.0304
647.0317
647.0746
656.3064
655.6157
655.4761
655.2744
655.1223
654.9791
654.8481
654.7249
654.6075
654.494
654.3823
654.2709
654.158
654.0423
653.9227
653.7987
653.6699
653.5363
653.3983
653.2566
653.1118
652.9645
652.8152
652.6641
652.5111
652.3554
652.1963
652.0324
651.8626
651.6856
651.5007
651.3078
651.1073
650.9009
650.6906
650.4796
650.271
650.0682
649.8741
649.6908
649.5193
649.3592
649.2087
649.0649
648.924
648.7821
648.6357
648.4821
648.3202
648.1506
647.9759
647.8005
647.6301
647.4709
647.3292
647.2107
647.1205
647.0641
647.0484
647.0865
656.4278
655.7121
655.5573
655.3381
655.1692
655.0101
654.8645
654.7286
654.6011
654.4801
654.3641
654.2514
654.1402
654.0288
653.9157
653.7997
653.6796
653.555
653.4254
653.2911
653.1525
653.0102
652.8649
652.7173
652.5679
652.4168
652.2639
652.1085
651.9495
651.7857
651.6158
651.4385
651.2531
651.0596
650.8586
650.6517
650.4414
650.2307
650.0233
649.8224
649.6311
649.4514
649.2842
649.1289
648.9837
648.8455
648.7106
648.5752
648.4356
648.2896
648.1363
647.9768
647.8141
647.6527
647.4986
647.3583
647.2393
647.1505
647.1031
647.1142
656.5657
655.8317
655.6635
655.4287
655.2436
655.068
654.9062
654.7548
654.6131
654.4801
654.3545
654.2349
654.12
654.008
653.8972
653.7861
653.673
653.5568
653.4364
653.3112
653.181
653.046
652.9067
652.7638
652.6181
652.4703
652.3209
652.17
652.0173
651.8622
651.7035
651.5399
651.3699
651.1925
651.0068
650.8128
650.6115
650.4045
650.1945
649.9848
649.779
649.5808
649.393
649.2178
649.056
648.907
648.7687
648.6381
648.5114
648.3847
648.2548
648.1195
647.9784
647.8326
647.6854
647.5418
647.4088
647.2965
647.2184
647.1955
656.7105
655.9674
655.789
655.5424
655.3436
655.1531
654.9754
654.8079
654.6504
654.5022
654.3629
654.2318
654.1077
653.9895
653.8756
653.7644
653.6543
653.5435
653.4305
653.3141
653.1933
653.0676
652.9368
652.8011
652.6612
652.5178
652.3718
652.2238
652.0744
651.9238
651.7715
651.6168
651.4585
651.2952
651.1254
650.9479
650.7621
650.568
650.3667
650.16
649.9509
649.7428
649.5396
649.3449
649.1619
648.9926
648.8379
648.697
648.5679
648.4473
648.3316
648.2169
648.1001
647.9792
647.8538
647.7254
647.5987
647.4816
647.3877
647.339
656.8501
656.109
655.9249
655.6719
655.4635
655.2615
655.0706
654.8884
654.7153
654.5513
654.3965
654.2506
654.1133
653.9839
653.8613
653.7444
653.6317
653.5214
653.4118
653.3014
653.1885
653.0719
652.9506
652.8243
652.6929
652.5566
652.416
652.2722
652.1259
651.9779
651.8287
651.6784
651.5266
651.3725
651.2148
651.052
650.8826
650.7054
650.5199
650.3261
650.1252
649.9195
649.712
649.5064
649.3068
649.1171
648.9406
648.7792
648.6339
648.5037
648.3865
648.2792
648.1779
648.0789
647.9789
647.8761
647.7713
647.6693
647.5808
647.5268
656.9706
656.2442
656.0602
655.8071
655.5948
655.3862
655.1862
654.9927
654.8065
654.628
654.4579
654.2964
654.1438
653.9999
653.8645
653.7368
653.6158
653.5002
653.3885
653.2791
653.1701
653.0599
652.9469
652.8301
652.7084
652.5815
652.4494
652.3124
652.1714
652.0271
651.8806
651.7327
651.5838
651.4341
651.2831
651.1298
650.9729
650.8109
650.6423
650.4658
650.281
650.088
649.8884
649.6844
649.4796
649.278
649.0838
648.9011
648.7333
648.5824
648.4492
648.333
648.2313
648.141
648.0579
647.9783
647.9
647.8242
647.758
647.7191
657.056
656.3587
656.1813
655.936
655.7263
655.5174
655.3137
655.1137
654.9185
654.7288
654.5457
654.3699
654.2022
654.0429
653.8924
653.7505
653.6169
653.4908
653.3713
653.257
653.1463
653.0376
652.929
652.819
652.706
652.5888
652.4667
652.3392
652.2064
652.0688
651.9273
651.7827
651.6362
651.4885
651.3402
651.1913
651.0413
650.8892
650.7336
650.5728
650.4054
650.2302
650.0467
649.8554
649.658
649.4573
649.2569
649.0611
648.8746
648.7015
648.5452
648.4081
648.2908
648.1922
648.1099
648.0403
647.9805
647.9294
647.891
647.8797
657.0893
656.4361
656.2729
656.0441
655.8449
655.6429
655.4423
655.2419
655.043
654.8469
654.6549
654.4679
654.2873
654.1138
653.9483
653.7911
653.6425
653.5025
653.3706
653.2461
653.1279
653.0147
652.9049
652.7968
652.6887
652.5788
652.4657
652.3482
652.2255
652.0974
651.964
651.8259
651.6839
651.5393