/*--------------------------------*- C++ -*----------------------------------*\
| =========                 |                                                 |
| \\      /  F ield         | OpenFOAM: The Open Source CFD Toolbox           |
|  \\    /   O peration     | Version:  2312                                  |
|   \\  /    A nd           | Website:  www.openfoam.com                      |
|    \\/     M anipulation  |                                                 |
\*---------------------------------------------------------------------------*/
FoamFile
{
    version     2.0;
    format      ascii;
    arch        "LSB;label=32;scalar=64";
    class       volScalarField;
    location    "3150";
    object      nut;
}
// * * * * * * * * * * * * * * * * * * * * * * * * * * * * * * * * * * * * * //

dimensions      [0 2 -1 0 0 0 0];

internalField   nonuniform List<scalar> 
12000
(
5.472386e-05
0.0001921451
0.0002037389
0.000215542
0.0002287008
0.0002432736
0.0002433533
0.0002283976
0.0002227946
0.0002336341
0.0002454619
0.0002379414
0.0002181777
0.0002140932
0.0002281144
0.0002380505
0.0002238471
0.0002076811
0.0002084326
0.000221461
0.0002253966
0.0002140613
0.0002041909
0.0002050623
0.000211476
0.0002130414
0.0002063337
0.0001998671
0.0002017938
0.0002071949
0.0002042455
0.0001978577
0.0001952733
0.0001954319
0.000202034
0.0002060275
0.0001966782
0.0001830325
0.0001811186
0.0002049609
0.0002311707
0.0001975793
0.00015671
0.0001638129
0.0002378539
0.0002522155
0.0001597523
0.0001449843
0.0002016077
0.0002455197
0.0001686115
0.0001480201
0.0001757381
0.0001811482
0.0001600299
0.0001406943
0.0001261822
0.0001039369
9.645963e-05
7.618602e-05
3.373434e-05
0.0002364764
0.000281774
0.000346233
0.0003946346
0.0004525364
0.0005114944
0.0005818316
0.0006613942
0.0007346259
0.0008107636
0.0008876531
0.0009812228
0.001072597
0.00115179
0.001222277
0.001307688
0.00140466
0.001491962
0.001556888
0.001619443
0.001697883
0.001784541
0.001858507
0.001915304
0.001969014
0.002031802
0.002098035
0.002149325
0.002182574
0.002218073
0.002263745
0.002296033
0.002313998
0.002318977
0.002317416
0.002327299
0.002335567
0.002326467
0.002282645
0.002231684
0.002081899
0.002195468
0.002140592
0.002021996
0.001862996
0.001564748
0.001793748
0.001645124
0.001504327
0.001317284
0.001244642
0.001081376
0.0009271708
0.0007818961
0.0006183293
0.0004402187
0.0002623494
0.0001409605
6.767077e-05
3.799569e-05
0.000356577
0.0004521217
0.0005536069
0.0006783997
0.0008189128
0.0009698855
0.00112904
0.001296487
0.001462793
0.001627557
0.00179173
0.001955326
0.002112115
0.002258981
0.002398413
0.002532862
0.002660774
0.002778454
0.002885739
0.002986056
0.003081033
0.003169317
0.003249078
0.003320706
0.003385771
0.003444995
0.003497854
0.003543545
0.003582579
0.003558754
0.003644382
0.003667827
0.003687047
0.003700481
0.003683156
0.00371324
0.003712399
0.003706855
0.003696312
0.003604913
0.003658541
0.003626423
0.003589061
0.003545623
0.003392353
0.003417925
0.003325665
0.003160733
0.002866537
0.002730089
0.002552063
0.002295682
0.001791634
0.001455078
0.001342838
0.001070638
0.0006369662
0.0002366754
6.853838e-05
3.711211e-05
0.0003807821
0.0005460117
0.0006976154
0.000888995
0.001104785
0.001335308
0.001572028
0.001811328
0.0020512
0.002280584
0.00249788
0.002702494
0.002893333
0.003069663
0.003233537
0.003385991
0.003527526
0.003658648
0.003779738
0.003891063
0.003993222
0.004086434
0.004171197
0.004247703
0.00431619
0.004376825
0.004429783
0.004475301
0.004513678
0.004543549
0.004564608
0.004581141
0.004590158
0.004592019
0.004585857
0.00457174
0.004550234
0.004520925
0.004483119
0.004435987
0.004378369
0.004310399
0.004230869
0.004138865
0.004033019
0.003910656
0.003769185
0.003612087
0.003432346
0.003230425
0.00300587
0.002465014
0.002230652
0.002084143
0.001688188
0.001246051
0.000771814
0.0003285654
6.742858e-05
3.710076e-05
0.0004089293
0.0006391019
0.0008475453
0.001098918
0.001372778
0.001655834
0.001938391
0.002214241
0.002481874
0.002737953
0.002981027
0.003211354
0.003426957
0.003629323
0.003817784
0.003988297
0.004144762
0.004288556
0.004420755
0.004541748
0.004652814
0.004754418
0.004846818
0.004929937
0.005004037
0.005069458
0.005126523
0.00517552
0.005215545
0.005245833
0.005270677
0.0052881
0.005297906
0.00529957
0.005292663
0.005277563
0.005254134
0.005222174
0.005181265
0.005132769
0.005074809
0.005005411
0.004925406
0.004833606
0.004728837
0.004609195
0.004472697
0.004315562
0.004133973
0.003928397
0.003657034
0.003388062
0.00303535
0.002632515
0.002164551
0.001621567
0.001011587
0.0004105384
6.702639e-05
3.749878e-05
0.0004218254
0.0007105806
0.0009627934
0.001251609
0.001559374
0.001872966
0.00218428
0.002487828
0.002781145
0.003066326
0.003331671
0.003579438
0.003808291
0.004014809
0.004202427
0.004378501
0.00454231
0.004694356
0.004836161
0.004968561
0.005092182
0.005206916
0.005312783
0.005409772
0.005497888
0.005577114
0.005647375
0.005708525
0.0057592
0.005802527
0.005836062
0.005859843
0.005874039
0.005878436
0.005872153
0.005855273
0.005828227
0.00579143
0.005743551
0.005681748
0.005607252
0.005520407
0.005420084
0.005304544
0.005172605
0.005022786
0.004852819
0.004661487
0.004440904
0.00419504
0.003909399
0.003581648
0.00320569
0.002771478
0.00227211
0.001705935
0.001086336
0.000468258
6.64869e-05
3.837856e-05
0.0004247783
0.0007649148
0.001050854
0.001361978
0.001691391
0.002029062
0.00236557
0.00268965
0.002996683
0.003280898
0.003548578
0.003798369
0.004031957
0.004249688
0.004451513
0.004639166
0.004814398
0.004978891
0.005134001
0.005280644
0.005419299
0.005550034
0.005672699
0.005787027
0.005892688
0.005989311
0.00607649
0.006151758
0.006219623
0.006276484
0.006322154
0.00635609
0.006378421
0.006389419
0.006388741
0.006376128
0.006350071
0.006309668
0.006255581
0.006188008
0.006106325
0.006009869
0.00589781
0.005769186
0.005622903
0.005457473
0.005271935
0.005064151
0.004824285
0.004557043
0.004251705
0.003902712
0.003504768
0.003048571
0.002522073
0.001914512
0.00122506
0.0005248387
6.648347e-05
3.915482e-05
0.0004229376
0.0008017265
0.001117533
0.001447937
0.001792465
0.002139623
0.002479885
0.002808642
0.003120089
0.003411829
0.003684594
0.003938925
0.004176447
0.004400169
0.004612255
0.004813096
0.005003193
0.005183576
0.005355398
0.005519535
0.005676449
0.005826184
0.005968465
0.006102799
0.006228561
0.006345061
0.006448583
0.006544764
0.006629292
0.006701553
0.006761007
0.006807206
0.006840208
0.006858596
0.006861928
0.006850001
0.006822781
0.006779819
0.006720657
0.00664481
0.006551695
0.00644063
0.006310819
0.006161354
0.00599116
0.005799512
0.005585149
0.005345219
0.005073401
0.004775548
0.004441131
0.004066487
0.00364195
0.003155427
0.002600078
0.001968774
0.00126988
0.0005593434
6.60674e-05
4.049683e-05
0.0004126019
0.0008214665
0.001163093
0.001504075
0.001853966
0.002204664
0.002548156
0.002878863
0.003192996
0.003488948
0.003766889
0.004027763
0.004273106
0.004504946
0.004725811
0.004937963
0.005142475
0.00533977
0.005530236
0.00571417
0.005891643
0.00606243
0.006226022
0.006381645
0.006528346
0.006665077
0.006789004
0.006903074
0.00700409
0.007091046
0.007163159
0.007220061
0.00726112
0.007285613
0.007292945
0.007282644
0.007254289
0.007207457
0.007141707
0.007056565
0.006951511
0.006825971
0.006679319
0.006510833
0.006319911
0.006105616
0.005866202
0.005599667
0.00530015
0.004972222
0.004614381
0.004220494
0.003783799
0.003292629
0.002725821
0.002075867
0.001344393
0.0005941326
6.615791e-05
4.184997e-05
0.0004023286
0.0008338605
0.001197764
0.001546473
0.001896571
0.002245115
0.002586459
0.002915942
0.003230559
0.003528969
0.003811327
0.004078676
0.004332593
0.004574576
0.004807
0.005031757
0.005250581
0.005464509
0.005673837
0.005878407
0.006077708
0.006271054
0.006457204
0.006634827
0.006802535
0.006958896
0.00710186
0.007231467
0.007346272
0.007446037
0.00752948
0.007595617
0.007643444
0.007672223
0.007681343
0.007670284
0.007638585
0.007585813
0.00751154
0.007415325
0.007296708
0.007155222
0.006990415
0.006801817
0.006588692
0.00635016
0.006085172
0.005791269
0.005469625
0.004996193
0.00455112
0.004211754
0.003863513
0.003355758
0.002772991
0.002109453
0.001370714
0.0006134846
6.58514e-05
4.32707e-05
0.0003879611
0.0008310425
0.001213196
0.0015681
0.001917985
0.002264621
0.002604014
0.002932284
0.003247049
0.003547599
0.003834384
0.004108572
0.004371794
0.004625858
0.004872563
0.005113386
0.005349599
0.005581431
0.005808745
0.006030928
0.006246793
0.006455022
0.00665748
0.006852264
0.007037579
0.007211239
0.00737235
0.007519264
0.007649928
0.007762251
0.007855436
0.007928773
0.007981379
0.008012484
0.008021483
0.008007884
0.007971266
0.007911246
0.007827446
0.007719474
0.007586899
0.007429228
0.007246658
0.007038938
0.006804773
0.006543753
0.006255531
0.005835906
0.005264758
0.004789991
0.004435485
0.004163421
0.003888444
0.003412573
0.002830018
0.002160527
0.00140742
0.0006320591
6.592977e-05
4.460039e-05
0.0003717479
0.0008205281
0.001217411
0.001578545
0.001926969
0.002268579
0.002602789
0.002927806
0.003242096
0.003545089
0.003836972
0.004118711
0.004391741
0.00465753
0.004917307
0.005170767
0.005418189
0.005662537
0.005904081
0.006142691
0.006378122
0.006609684
0.006833164
0.007047327
0.007250537
0.007440402
0.007616091
0.007775227
0.007916051
0.008036977
0.008136688
0.008214049
0.008268254
0.008298788
0.008305182
0.008287025
0.008243964
0.008175696
0.008081958
0.007962528
0.007817228
0.007645896
0.00744762
0.007222027
0.006969875
0.006690777
0.006190424
0.005606687
0.005097063
0.004685011
0.004362818
0.004106859
0.003857876
0.003447125
0.002858156
0.002180474
0.001422327
0.0006422804
6.573654e-05
4.5648e-05
0.0003594372
0.0008073713
0.001215331
0.00158183
0.001929308
0.0022672
0.002597372
0.002919034
0.003231372
0.003534115
0.00382775
0.004113101
0.00439058
0.004606156
0.004839297
0.005082159
0.005344067
0.005623104
0.005919872
0.006232856
0.00650515
0.006753087
0.006993095
0.007222881
0.007440252
0.007643131
0.007829592
0.007997722
0.008145804
0.008272349
0.008376119
0.008456143
0.00851158
0.008541693
0.008545914
0.008523806
0.008475025
0.008399292
0.008296379
0.008166089
0.008008255
0.007822674
0.00760932
0.007368146
0.007089751
0.006534229
0.005984658
0.005470539
0.005004952
0.004613657
0.004299321
0.004058291
0.003836288
0.003473973
0.002882842
0.00220364
0.001439189
0.0006512062
6.574333e-05
4.65494e-05
0.0003463826
0.0007900456
0.001206356
0.00157777
0.001925138
0.002259823
0.002585618
0.002903222
0.003212668
0.00351417
0.003808225
0.004095261
0.004367412
0.004576603
0.004759653
0.004967043
0.005185804
0.00541847
0.005668344
0.005938021
0.006245604
0.006611634
0.007031425
0.007362168
0.00759097
0.00780446
0.008000287
0.008176521
0.008331222
0.008462943
0.00857037
0.008652412
0.008708192
0.008737009
0.00873831
0.008711696
0.008656878
0.008573657
0.008461901
0.008321536
0.008152542
0.007954953
0.007728859
0.007448159
0.006908451
0.006338427
0.005817576
0.005348521
0.004930521
0.004563516
0.004259372
0.004019297
0.003806106
0.003490141
0.002898293
0.002214342
0.001446433
0.0006555867
6.563654e-05
4.726442e-05
0.0003343594
0.0007708521
0.001191338
0.001567403
0.001915148
0.002246989
0.002568564
0.002882069
0.003188427
0.003488221
0.00378199
0.004070349
0.004344099
0.004563904
0.004757476
0.004935164
0.005124227
0.005318153
0.005522359
0.005746292
0.006005089
0.006314928
0.006683189
0.007103185
0.007549354
0.007933736
0.008136865
0.008319724
0.008479468
0.008614929
0.008724738
0.008807773
0.008863162
0.008890208
0.008888379
0.008857334
0.008796861
0.008706854
0.008587292
0.008438231
0.008259796
0.008052183
0.007770412
0.007289458
0.006760901
0.006232809
0.00572571
0.005263392
0.004860811
0.004516861
0.004226931
0.003987747
0.003785058
0.003502058
0.002909166
0.002223626
0.001453504
0.0006597582
6.562451e-05
4.782944e-05
0.0003239156
0.0007516495
0.001174422
0.001553131
0.001901116
0.002230582
0.002548366
0.00285786
0.003160816
0.003458339
0.00375133
0.004040637
0.004326454
0.004569297
0.004780211
0.004966729
0.005131992
0.005290707
0.005453086
0.005635393
0.005857841
0.006137095
0.006476734
0.006865539
0.007284673
0.007711096
0.008112918
0.0084304
0.008594072
0.008732372
0.008843831
0.008927317
0.008981971
0.009007121
0.00900227
0.008967144
0.008901615
0.008805679
0.008679434
0.008523067
0.008336844
0.008068871
0.007651415
0.007166911
0.006652061
0.006141822
0.005664155
0.005227388
0.004828214
0.00447548
0.004183443
0.003959083
0.003772176
0.00350821
0.002914427
0.00222819
0.001456089
0.0006602342
6.55775e-05
4.824219e-05
0.0003147612
0.0007329651
0.001155045
0.001535697
0.001883906
0.002211432
0.002525935
0.002831797
0.003131562
0.003426904
0.003719115
0.004009283
0.004297152
0.004584255
0.004840296
0.005039022
0.00520178
0.0053416
0.005469289
0.005610911
0.005795196
0.00604329
0.00636276
0.006745482
0.007168109
0.007595936
0.007995401
0.008342744
0.008623294
0.008819909
0.008932759
0.009016543
0.009070415
0.009093766
0.009086168
0.009047432
0.008977536
0.008876592
0.00874482
0.008582554
0.008339326
0.007991998
0.007565848
0.007081457
0.006572128
0.006072772
0.005605905
0.005180095
0.004797256
0.004459554
0.004170581
0.003938766
0.003747173
0.003495167
0.002919148
0.002232385
0.001459324
0.0006620158
6.55309e-05
4.854296e-05
0.0003080505
0.0007162996
0.0011353
0.001516307
0.001864364
0.002190218
0.002501914
0.002804569
0.003101418
0.003394652
0.003685878
0.003976278
0.004267746
0.004558706
0.004850939
0.00514116
0.005317813
0.005437146
0.00552973
0.005628909
0.005774226
0.005992417
0.006292133
0.006665028
0.007088529
0.007529031
0.007947456
0.008308509
0.008592879
0.008801388
0.008952121
0.00908153
0.009134577
0.009156225
0.009146129
0.009104217
0.009030593
0.008925504
0.008778893
0.008573867
0.008298978
0.007942328
0.007507394
0.007018988
0.006513051
0.006021475
0.005563642
0.005144684
0.004764528
0.004427395
0.004142914
0.003918541
0.003734784
0.003488174
0.002919385
0.002232469
0.001459472
0.000661958
6.550993e-05
4.877245e-05
0.0003022202
0.0007011126
0.001115629
0.001495721
0.001843209
0.002167598
0.002476968
0.002776945
0.003071342
0.003362845
0.003653446
0.003944634
0.004237479
0.004533847
0.00483089
0.005129121
0.005428072
0.005568415
0.00562734
0.005680371
0.005783478
0.005971616
0.006254969
0.006623504
0.007051584
0.007502415
0.007934735
0.00831195
0.008610848
0.008827029
0.008974903
0.009084785
0.009180655
0.009200522
0.009144513
0.009101489
0.009033977
0.008928975
0.008779079
0.00857078
0.008286754
0.007917958
0.007473814
0.00698163
0.006476472
0.005988797
0.005536425
0.005123559
0.004749415
0.004416717
0.004133813
0.003908605
0.003724377
0.003480871
0.002921062
0.002233939
0.001460138
0.0006624149
6.547797e-05
4.892603e-05
0.000298736
0.000688241
0.001097036
0.001475043
0.00182142
0.002144368
0.002451772
0.002749577
0.003042068
0.00333238
0.003622855
0.00391522
0.004210613
0.004509522
0.004813043
0.00511933
0.005424831
0.005714116
0.005766165
0.005767832
0.005820089
0.005973935
0.006240404
0.006605989
0.007040952
0.007504446
0.00795103
0.008340444
0.00864764
0.008867888
0.009015131
0.009118318
0.009214644
0.009232604
0.009174314
0.00912509
0.009053618
0.008946904
0.008794374
0.008579987
0.008286655
0.007907498
0.007454282
0.006956211
0.006449084
0.005962596
0.005513082
0.005103428
0.004732162
0.004402102
0.004122169
0.003900448
0.003719785
0.003479336
0.002920738
0.002233391
0.001459656
0.0006619834
6.545099e-05
4.904767e-05
0.0002965189
0.0006773863
0.0010796
0.001454608
0.001799437
0.002120985
0.002426797
0.002723007
0.003014279
0.003304145
0.003595277
0.003889621
0.00418843
0.004492228
0.004800793
0.00511262
0.005426671
0.005737743
0.005911665
0.005887635
0.005885288
0.005998308
0.006245548
0.006609135
0.007052801
0.00752986
0.007990165
0.008390106
0.008703081
0.008924469
0.009069073
0.009163575
0.009241013
0.009256783
0.009217101
0.009164451
0.009085792
0.00897384
0.008818047
0.008599855
0.008299716
0.007911042
0.007448267
0.006943015
0.006432098
0.005944882
0.005496712
0.005089488
0.004720907
0.004393098
0.004114661
0.003893824
0.003714052
0.00347546
0.002920643
0.002233152
0.001459238
0.0006617723
6.544345e-05
4.918881e-05
0.000295139
0.0006686118
0.001064088
0.001435322
0.001778062
0.00209812
0.002402658
0.002697887
0.002988754
0.003279107
0.003571869
0.003869127
0.004172131
0.004481233
0.004795829
0.005114277
0.005434062
0.005753334
0.006050068
0.006012331
0.005962961
0.006037508
0.006266374
0.006628945
0.007082452
0.007573529
0.00804641
0.008453623
0.008767239
0.008985827
0.009128045
0.009216488
0.009262844
0.009276044
0.009256188
0.009203566
0.009118693
0.009001657
0.008843427
0.008622938
0.008317474
0.007920301
0.007448278
0.00693545
0.006419946
0.005931098
0.005483384
0.005077733
0.004711104
0.004385262
0.004108825
0.003890157
0.003712636
0.003475681
0.002920366
0.002232573
0.001458555
0.0006612506
6.541842e-05
4.931611e-05
0.0002945117
0.0006609985
0.001049569
0.00141688
0.001757457
0.002076208
0.002379947
0.002674928
0.002966319
0.003258215
0.003553722
0.003854996
0.004163212
0.004478517
0.004800007
0.005125765
0.005453031
0.005778515
0.006098209
0.006132152
0.006054279
0.006091989
0.006303244
0.006666543
0.007131391
0.007636663
0.00812041
0.008531166
0.00884131
0.00905045
0.009162286
0.009238831
0.009282245
0.009292485
0.009269726
0.00921433
0.009126875
0.009008076
0.008858756
0.008647068
0.008338813
0.00793396
0.00745285
0.00693229
0.006411807
0.00592082
0.005473086
0.005068634
0.004703654
0.004379438
0.004104476
0.003887177
0.003710941
0.003475011
0.002920036
0.002231943
0.001457797
0.0006607507
6.542262e-05
4.945171e-05
0.0002954059
0.0006558771
0.001037597
0.0014005
0.001738583
0.002056052
0.002359403
0.00265488
0.002947791
0.003242392
0.003541884
0.003848395
0.004162927
0.004485333
0.004814306
0.005147528
0.005481861
0.005813646
0.006138863
0.006239592
0.006143148
0.00615404
0.006353595
0.006720757
0.007198239
0.007717122
0.008209478
0.008620373
0.008918036
0.009081869
0.009187774
0.009260873
0.00930088
0.009307818
0.009281928
0.00922364
0.00913358
0.009012507
0.008861273
0.008668961
0.008360964
0.007950038
0.007460511
0.006932204
0.00640644
0.005912976
0.005464925
0.005061427
0.004697891
0.004375179
0.004101713
0.003886034
0.003711462
0.003476455
0.00292011
0.002231586
0.001457218
0.0006602859
6.540659e-05
4.962648e-05
0.0002968448
0.0006514009
0.001026744
0.001385375
0.001721141
0.002037725
0.002341367
0.002638291
0.002933893
0.003232505
0.003537315
0.003850304
0.004172202
0.004502474
0.004839392
0.005180232
0.005521498
0.005859288
0.006189399
0.006320247
0.006214371
0.006213652
0.006412368
0.006789484
0.007282243
0.00781466
0.00831195
0.008713453
0.008978582
0.009112643
0.009214507
0.009283645
0.009319845
0.009323188
0.00929398
0.009232699
0.009140004
0.009016681
0.008863595
0.008681651
0.008383526
0.0079696
0.007471609
0.00693504
0.006403673
0.005907485
0.005458887
0.00505606
0.004693489
0.004371936
0.004099931
0.003885836
0.003712583
0.003478016
0.002920252
0.002231206
0.001456559
0.0006598075
6.541511e-05
4.982734e-05
0.0002987872
0.0006486399
0.001018068
0.001372563
0.001706146
0.002022246
0.00232692
0.002626341
0.002925909
0.003229927
0.003541456
0.003862219
0.004192556
0.004531437
0.004876654
0.005225045
0.005572727
0.005915752
0.006249737
0.006382618
0.006271096
0.006271274
0.006479945
0.006873372
0.007383375
0.007927492
0.00842482
0.008808357
0.009016296
0.009145678
0.009242974
0.009307736
0.009339819
0.009339341
0.009306663
0.009242313
0.009146964
0.009021412
0.008866526
0.0086832
0.00840552
0.007990146
0.00748401
0.00693946
0.006402563
0.005903476
0.00545406
0.005051923
0.00469078
0.004370917
0.004099763
0.003886426
0.003714791
0.003481282
0.002920937
0.002231249
0.001456249
0.0006594336
6.540946e-05
5.005627e-05
0.0003010568
0.000646495
0.001010211
0.001360953
0.001692926
0.002009318
0.002316027
0.002619167
0.002924085
0.003234957
0.003554587
0.003884305
0.004223932
0.004571894
0.004925478
0.005281106
0.005634855
0.005982224
0.00631897
0.006421452
0.006306584
0.006321652
0.00655424
0.0069734
0.007504019
0.00805681
0.008545512
0.008901296
0.009056748
0.009180992
0.009273343
0.009333429
0.009361166
0.00935672
0.009320483
0.009253012
0.009154994
0.009027225
0.008870561
0.008685877
0.008428564
0.008012446
0.007498978
0.006946993
0.006404757
0.005902826
0.005453448
0.00505252
0.004689909
0.00436788
0.004099641
0.003890379
0.003720233
0.003485582
0.002921778
0.002231291
0.001455731
0.0006590097
6.542144e-05
5.032279e-05
0.0003036161
0.0006455069
0.001004573
0.001352179
0.001683106
0.002000563
0.002310377
0.002618563
0.002930314
0.003249551
0.003578675
0.003918455
0.0042681
0.004625524
0.004987619
0.005349651
0.005708182
0.006058734
0.0063971
0.006450334
0.006338757
0.006381214
0.006644077
0.007092518
0.007645352
0.00820593
0.008673785
0.008949837
0.009099708
0.009218491
0.00930564
0.009360862
0.009384122
0.009375625
0.009335786
0.009265181
0.0091645
0.009034535
0.00887612
0.008690102
0.008449579
0.008032637
0.007512662
0.006953874
0.006407078
0.005902807
0.005451202
0.005046048
0.004684644
0.004369344
0.004103293
0.003893555
0.003723754
0.003489571
0.002922949
0.00223166
0.001455568
0.0006587002
6.54358e-05
5.058074e-05
0.0003061856
0.0006448364
0.0009993052
0.001344324
0.00167506
0.001994718
0.002308976
0.002623665
0.002943733
0.00327271
0.003612435
0.003963015
0.004323036
0.004689834
0.005058759
0.005427411
0.00579039
0.006143419
0.006482519
0.006468411
0.006358163
0.006435702
0.006752267
0.007244299
0.007821051
0.008377626
0.008813697
0.009000553
0.00914469
0.009257981
0.009339831
0.009390099
0.00940882
0.009396237
0.009352786
0.00927905
0.009175722
0.009043574
0.008883417
0.00869606
0.008469531
0.008051511
0.007525878
0.006961624
0.006410144
0.005900305
0.005443861
0.005042625
0.004687084
0.00437325
0.004107079
0.003897471
0.003727352
0.00349208
0.002924588
0.002232401
0.001455384
0.0006583579
6.54489e-05
5.088741e-05
0.000309518
0.0006422319
0.0009967063
0.001339906
0.001671493
0.001994466
0.002314429
0.002637049
0.002966891
0.003306841
0.003657984
0.004019756
0.00439016
0.004764687
0.005141489
0.005515151
0.005881188
0.006235386
0.006573976
0.006459795
0.006374723
0.006506633
0.006867759
0.007400163
0.007999028
0.008540692
0.008886539
0.00905427
0.009192181
0.009299558
0.009376019
0.009421252
0.009435381
0.009418693
0.009371641
0.009294799
0.009188849
0.009054541
0.008892651
0.008703944
0.008488223
0.00807038
0.007540428
0.006968093
0.00640848
0.005897308
0.005445709
0.005046659
0.00469165
0.004376696
0.004109997
0.003900478
0.003731233
0.003496759
0.002926275
0.002233248
0.001455526
0.0006580837
6.546711e-05
5.120399e-05
0.0003120656
0.0006345934
0.0009942541
0.001336101
0.001669389
0.00199713
0.002324655
0.002657126
0.002998375
0.003350541
0.003714035
0.004087353
0.004466381
0.004850091
0.005232918
0.005610259
0.005977637
0.006330929
0.006559939
0.006431802
0.00639443
0.006587216
0.006992987
0.007550094
0.008157429
0.008679908
0.008948627
0.009109871
0.009241531
0.009342985
0.009413864
0.009454087
0.009463699
0.009442972
0.009392363
0.009312465
0.009203932
0.009067491
0.008903881
0.008713825
0.008497992
0.008088534
0.007551301
0.006969793
0.006407788
0.005898561
0.005449221
0.005051201
0.00469561
0.004380828
0.004114337
0.003905245
0.003736558
0.003501791
0.002928273
0.00223439
0.001455856
0.000657938
6.548797e-05
5.152172e-05
0.0003151974
0.0006299687
0.0009942237
0.001336519
0.001673125
0.002007149
0.002343515
0.002686769
0.003040132
0.003405038
0.003780316
0.004163484
0.00455345
0.004944592
0.005332345
0.005712111
0.006079569
0.006430859
0.006522255
0.00639923
0.006420853
0.006675709
0.007140146
0.007729651
0.008334897
0.008820045
0.009012006
0.009166826
0.009292312
0.009387938
0.009453406
0.009488636
0.009493749
0.009469052
0.009414985
0.009332084
0.009221014
0.009082484
0.008917166
0.008725749
0.008508849
0.00810431
0.007563382
0.006977784
0.006412316
0.005901939
0.005452344
0.005055401
0.004700462
0.004385463
0.004118581
0.003909352
0.003740838
0.003505962
0.002930367
0.002235574
0.001456354
0.0006577982
6.550631e-05
5.184082e-05
0.0003178242
0.0006245469
0.0009945128
0.001337747
0.001679015
0.002020841
0.002367715
0.00272366
0.00309062
0.0034676
0.003855154
0.004250654
0.004649425
0.005046912
0.005438428
0.005819471
0.006185971
0.006534416
0.006471375
0.006368788
0.006464324
0.006793496
0.007312939
0.007932721
0.008517487
0.008899694
0.009076497
0.009224933
0.009344326
0.009434223
0.009494377
0.00952475
0.009525489
0.009496908
0.009439452
0.009353668
0.009240151
0.009099511
0.008932474
0.008739678
0.008521644
0.008118752
0.007573088
0.00698257
0.006414849
0.005904096
0.005456073
0.005060255
0.004705638
0.004390444
0.004123269
0.003914019
0.003745866
0.00351103
0.00293317
0.002237214
0.001457092
0.00065773
6.553214e-05
5.218125e-05
0.0003204811
0.0006201708
0.0009967998
0.001342902
0.001689733
0.002041109
0.002400444
0.002769618
0.003148964
0.003540733
0.003941185
0.004346857
0.004753273
0.005155661
0.005549328
0.005929918
0.006293595
0.006537821
0.006402118
0.006352943
0.006522646
0.006922077
0.007491657
0.008129001
0.008688941
0.008971516
0.009141805
0.00928396
0.009397382
0.009481677
0.009536648
0.009562284
0.009558753
0.009526376
0.009465591
0.009376926
0.009260979
0.009118377
0.008949682
0.008755425
0.008536213
0.008131774
0.00758079
0.006986213
0.006417567
0.005907643
0.005460752
0.005065766
0.00471135
0.004395814
0.00412813
0.003918593
0.003750513
0.003515625
0.002936147
0.002239125
0.001457942
0.0006578378
6.554764e-05
5.252335e-05
0.0003233082
0.0006172282
0.001000544
0.001349972
0.001705212
0.002067036
0.002438051
0.002821103
0.003216937
0.003622677
0.004035169
0.004450234
0.004863146
0.005269095
0.005663519
0.006042319
0.006401976
0.006465125
0.006337878
0.00635265
0.006605393
0.007074118
0.007685877
0.008327273
0.008848367
0.009043722
0.009207648
0.009343674
0.00945128
0.00953013
0.009580068
0.00960111
0.009593435
0.009557368
0.009493337
0.009401851
0.009283475
0.0091388
0.008968404
0.008772832
0.008552496
0.008146319
0.007590126
0.006991827
0.006421887
0.005912478
0.005466664
0.005072369
0.004717926
0.004401816
0.004133427
0.003923484
0.003755494
0.003520675
0.002939345
0.002241168
0.001458818
0.0006579767
6.557254e-05
5.285885e-05
0.0003257843
0.00061519
0.001005459
0.001359792
0.00172326
0.002097294
0.002483689
0.00288279
0.003293453
0.003712639
0.004136255
0.004559585
0.004977713
0.005385895
0.005779805
0.006155692
0.006500596
0.00636654
0.006270278
0.006374987
0.006712563
0.00724624
0.00789318
0.008518426
0.008931561
0.009116215
0.009273889
0.009403938
0.009505898
0.009579476
0.009624547
0.00964115
0.009629472
0.009589835
0.009522657
0.00942842
0.009307661
0.00916093
0.008988757
0.008791632
0.008569973
0.008159878
0.007597979
0.006996342
0.006425912
0.005917599
0.005473083
0.005079462
0.004724863
0.004408006
0.004138737
0.00392824
0.003760248
0.003525527
0.002942713
0.002243459
0.001460047
0.0006583366
6.558656e-05
5.318334e-05
0.0003284525
0.0006138277
0.001012254
0.001372733
0.001746576
0.002134414
0.002536526
0.002951734
0.003377352
0.003809387
0.004243063
0.004673302
0.005095112
0.005503863
0.00589545
0.00626636
0.006407331
0.006271003
0.006237094
0.006427608
0.006843522
0.007433525
0.008102225
0.008700057
0.00901015
0.009188595
0.009340255
0.009464555
0.009561085
0.009629596
0.009669993
0.009682329
0.009666799
0.009623722
0.009553502
0.009456598
0.009333518
0.009184774
0.009010855
0.008812205
0.008589194
0.008172747
0.007605183
0.007000861
0.006430446
0.005923451
0.005480235
0.005087149
0.004732194
0.004414406
0.004144133
0.003933026
0.003765019
0.003530411
0.002946177
0.002245808
0.001461296
0.0006586946
6.560714e-05
5.352231e-05
0.0003309356
0.0006134188
0.001014853
0.001388805
0.001774469
0.002177321
0.002595888
0.003027335
0.003467577
0.003911665
0.004354278
0.004790138
0.005214314
0.005622419
0.006010695
0.006376049
0.006292213
0.006172452
0.006227464
0.006508957
0.006997345
0.007632782
0.00831006
0.00887121
0.009088181
0.009260693
0.009406601
0.009525403
0.00961674
0.009680403
0.009716322
0.009724568
0.009705338
0.009658948
0.009585788
0.009486295
0.009360945
0.009210217
0.00903456
0.008834373
0.008609982
0.008185323
0.007611809
0.00700523
0.006435325
0.005929928
0.005488055
0.005095401
0.004739939
0.004421068
0.004149632
0.003937718
0.003769482
0.003534937
0.002949729
0.002248272
0.001462655
0.0006591332
6.562204e-05
5.38352e-05
0.0003335623
0.000613496
0.001014254
0.001408471
0.001807007
0.002225757
0.002661224
0.003108791
0.003563017
0.004018096
0.004468285
0.004908211
0.00533307
0.005738711
0.006121649
0.00630774
0.006171436
0.006108872
0.006251453
0.00661602
0.007170452
0.007843203
0.008507825
0.008973255
0.009165799
0.009332551
0.009472919
0.009586445
0.00967281
0.009731833
0.009763465
0.009767788
0.009745002
0.009695417
0.009619408
0.009517389
0.009389808
0.009237108
0.0090597
0.00885794
0.008632112
0.00819727
0.007617765
0.007009533
0.00644066
0.005937085
0.005496523
0.005104132
0.004747943
0.00442777
0.004154979
0.003942119
0.00377363
0.003539291
0.002953325
0.002250778
0.001464048
0.0006595901
6.563911e-05
5.417602e-05
0.0003362458
0.0006143436
0.001014297
0.00143152
0.001844034
0.002279369
0.002731885
0.003195162
0.003662507
0.004127408
0.004583849
0.005026505
0.00545081
0.005852966
0.006229891
0.00618151
0.006054119
0.006074911
0.006308571
0.006749972
0.007359564
0.008056507
0.008696368
0.009055833
0.009242749
0.009404019
0.009539108
0.009647604
0.009729223
0.009783811
0.00981134
0.0098119
0.009785693
0.009733021
0.009654245
0.009549757
0.009419976
0.00926531
0.009086134
0.008882764
0.008655444
0.00820868
0.007623188
0.007013841
0.006446442
0.005944854
0.005505547
0.005113252
0.00475615
0.004434517
0.004160248
0.003946358
0.003777582
0.003543499
0.002956955
0.002253346
0.00146553
0.0006601059
6.565356e-05
5.449779e-05
0.0003387139
0.0006156663
0.001015111
0.001457713
0.001885071
0.002337359
0.002806745
0.003285049
0.003764432
0.004237795
0.004698959
0.005142694
0.005564666
0.005961335
0.006163062
0.006039575
0.005968612
0.006076325
0.006392183
0.006900561
0.007554547
0.008262664
0.008869216