/*--------------------------------*- C++ -*----------------------------------*\
| =========                 |                                                 |
| \\      /  F ield         | OpenFOAM: The Open Source CFD Toolbox           |
|  \\    /   O peration     | Version:  2312                                  |
|   \\  /    A nd           | Website:  www.openfoam.com                      |
|    \\/     M anipulation  |                                                 |
\*---------------------------------------------------------------------------*/
FoamFile
{
    version     2.0;
    format      ascii;
    arch        "LSB;label=32;scalar=64";
    class       volScalarField;
    location    "3150";
    object      omega;
}
// * * * * * * * * * * * * * * * * * * * * * * * * * * * * * * * * * * * * * //

dimensions      [0 0 -1 0 0 0 0];

internalField   nonuniform List<scalar> 
12000
(
47.1585
20.24637
21.88158
23.46554
24.62491
25.63942
26.4979
27.25492
27.89982
28.47305
28.9881
29.45463
29.87441
30.23488
30.56028
30.8527
31.12619
31.35811
31.55884
31.72941
31.8891
32.02697
32.14242
32.22778
32.29787
32.35013
32.39186
32.40838
32.40978
32.39211
32.36966
32.32795
32.27077
32.1971
32.09208
31.95328
31.89043
31.81311
31.66105
31.34695
31.00664
30.86
30.82058
30.59242
29.86693
29.3432
29.29757
29.18951
28.35808
27.54318
27.20282
26.6916
25.82642
24.85382
24.03102
22.99351
21.79195
20.22008
19.38876
42.83849
79.62405
23.2749
22.59719
23.33534
23.34535
23.03442
22.56513
22.14633
21.5723
20.96882
20.33579
19.75655
19.1397
18.57987
18.11776
17.70941
17.25395
16.76847
16.37437
16.10587
15.84478
15.51512
15.16295
14.89167
14.70498
14.52631
14.30966
14.08557
13.93728
13.8631
13.76608
13.62353
13.56142
13.55523
13.58548
13.64398
13.65585
13.66951
13.76805
14.038
14.34675
14.46176
14.4863
14.77184
15.52497
16.20707
16.36721
16.55763
17.72211
18.96858
19.76233
20.6427
22.38732
24.50602
26.48122
29.34873
33.80307
42.34003
57.18909
80.33967
83.78265
23.14971
21.7568
20.76565
19.8651
18.82492
17.77599
16.88334
15.98828
15.09276
14.35564
13.71887
13.1695
12.69933
12.30185
11.93888
11.61307
11.33343
11.09929
10.89303
10.70059
10.52615
10.37963
10.26069
10.15873
10.06583
9.984267
9.920802
9.877026
9.844903
9.817942
9.794398
9.79213
9.812886
9.837929
9.867732
9.903791
9.960012
10.04391
10.146
10.24776
10.34883
10.48017
10.66516
10.87423
11.09036
11.32465
11.61845
11.972
12.39349
12.90999
13.56032
14.38148
15.44984
16.85109
18.92036
22.32561
29.04936
47.82744
88.93915
86.60835
22.37803
19.51137
18.37964
17.19806
16.01802
14.92349
13.91893
13.02579
12.25822
11.59481
11.03062
10.54591
10.13405
9.78536
9.485051
9.226067
9.006637
8.817934
8.649477
8.50158
8.373891
8.267267
8.17724
8.100984
8.036881
7.984658
7.944483
7.916584
7.901333
7.88959
7.886671
7.900097
7.931368
7.973065
8.027306
8.097295
8.184744
8.291473
8.418844
8.567629
8.739716
8.936484
9.167652
9.435607
9.743493
10.08806
10.47605
10.92345
11.43987
12.05231
12.78183
13.62197
14.57441
15.87003
17.87995
21.1216
27.23053
43.0052
94.16318
88.9509
21.40145
17.79976
16.58569
15.31684
14.09825
12.98874
12.00224
11.16028
10.47769
9.901146
9.403445
8.965741
8.585205
8.266599
7.995009
7.763686
7.565061
7.390333
7.233406
7.097253
6.982694
6.88729
6.805239
6.73555
6.677987
6.632288
6.598341
6.576132
6.560659
6.557163
6.5678
6.591104
6.628419
6.679818
6.745732
6.828196
6.928793
7.048655
7.189213
7.352234
7.538822
7.747114
7.982423
8.250763
8.55208
8.888243
9.262929
9.666375
10.13288
10.66683
11.23624
11.89531
12.76521
13.91857
15.5734
18.28344
23.73734
39.20459
97.77444
90.96038
20.88581
16.47882
15.17763
13.926
12.74894
11.69829
10.78602
10.00999
9.356754
8.801354
8.330672
7.93238
7.580369
7.269277
7.001921
6.770344
6.568323
6.391191
6.237484
6.104955
5.991416
5.894112
5.811422
5.742544
5.686987
5.644395
5.614555
5.59736
5.59389
5.601793
5.624151
5.661338
5.714409
5.784592
5.869757
5.972596
6.097717
6.244494
6.414168
6.608625
6.829932
7.080068
7.3584
7.670009
8.017842
8.404389
8.830023
9.307547
9.828971
10.37962
10.99567
11.71525
12.59344
13.73649
15.3682
17.99498
23.03712
36.96603
100.2429
92.64303
20.74083
15.51248
14.08454
12.87912
11.77085
10.78829
9.935965
9.205105
8.580787
8.046705
7.587771
7.19538
6.862409
6.566494
6.297813
6.061131
5.8538
5.67311
5.516177
5.380587
5.26427
5.165514
5.083076
5.016148
4.964191
4.926859
4.903987
4.8972
4.902693
4.923509
4.96016
5.011734
5.079366
5.16554
5.270399
5.394326
5.539261
5.706698
5.8981
6.115062
6.359271
6.63243
6.936268
7.272503
7.642844
8.047885
8.493917
8.975427
9.485403
10.03916
10.65106
11.34343
12.15824
13.19152
14.65003
17.02179
21.79308
35.33187
102.0209
93.98612
20.7781
14.80153
13.24143
12.09119
11.05631
10.13646
9.334338
8.642045
8.046028
7.531994
7.085013
6.695073
6.354255
6.058144
5.797939
5.562764
5.35246
5.167639
5.006864
4.868375
4.750405
4.651458
4.570384
4.50635
4.458764
4.427221
4.413539
4.413281
4.429006
4.46091
4.509313
4.574256
4.656201
4.756494
4.876005
5.015765
5.177079
5.361397
5.570325
5.805633
6.069236
6.363145
6.689394
7.050006
7.446705
7.883637
8.358271
8.865613
9.408446
9.987676
10.61327
11.30026
12.10029
13.1235
14.56702
16.89984
21.43347
34.10273
103.1508
95.51205
21.17326
14.38319
12.62009
11.49026
10.52049
9.663972
8.911833
8.254504
7.680834
7.179777
6.740356
6.353932
6.012483
5.711085
5.446488
5.214121
5.00791
4.824718
4.664021
4.525058
4.40704
4.309044
4.230158
4.169533
4.126513
4.100621
4.092602
4.099881
4.123765
4.16434
4.222034
4.297078
4.3897
4.500704
4.631047
4.781809
4.954252
5.149821
5.370149
5.617054
5.892533
6.198731
6.537968
6.912324
7.325174
7.776131
8.263635
8.788385
9.353013
9.954442
10.58454
11.25829
12.01581
12.95339
14.30315
16.51631
20.92585
33.35432
103.9939
96.78946
21.58955
14.0838
12.14072
11.02623
10.11299
9.307086
8.595242
7.970112
7.422128
6.939933
6.513594
6.135265
5.798723
5.499006
5.232225
4.99713
4.791244
4.610547
4.45262
4.316274
4.200264
4.103967
4.027016
3.968958
3.929243
3.907368
3.903264
3.915837
3.945347
3.991788
4.055706
4.137314
4.236649
4.354399
4.491464
4.648918
4.828027
5.03027
5.257344
5.511169
5.793882
6.107832
6.455465
6.839929
7.262645
7.724973
8.227055
8.770764
9.347818
9.958215
10.59879
11.26822
12.00922
12.93673
14.27681
16.46471
20.74623
32.6808
104.494
98.0013
22.24075
14.00513
11.81901
10.67354
9.794248
9.037184
8.369099
7.776504
7.250875
6.783726
6.368223
5.998261
5.66851
5.374016
5.110858
4.876635
4.669782
4.48933
4.333144
4.199516
4.087221
3.994923
3.921556
3.866705
3.830016
3.811379
3.810063
3.825879
3.858712
3.908511
3.975767
4.06067
4.163256
4.284213
4.424404
4.584889
4.766946
4.972088
5.202086
5.458976
5.745077
6.063
6.414967
6.803565
7.232123
7.70233
8.21534
8.770403
9.371004
10.00361
10.64545
11.29951
12.01523
12.91113
14.19098
16.31195
20.53143
32.3463
104.865
98.8354
22.98248
14.0219
11.59961
10.41218
9.559322
8.840751
8.206236
7.642394
7.138996
6.689645
6.287304
5.925986
5.601578
5.311313
5.052853
4.823422
4.620831
4.443194
4.28906
4.157028
4.046232
3.955869
3.885088
3.832894
3.798712
3.782371
3.782991
3.800603
3.835041
3.886297
3.954783
4.040868
4.144716
4.266861
4.408084
4.569421
4.752152
4.957821
5.188242
5.445502
5.731941
6.050125
6.403447
6.794805
7.226225
7.700132
8.223015
8.799143
9.416305
10.05165
10.68938
11.33663
12.04113
12.91632
14.18214
16.29153
20.44601
31.99844
105.1024
99.46405
23.56192
14.10244
11.46772
10.22124
9.372353
8.680557
8.07888
7.543745
7.064504
6.633762
6.245444
5.896254
5.583248
5.302939
5.050545
4.824015
4.622381
4.445348
4.291875
4.161097
4.051799
3.962603
3.892747
3.841623
3.808568
3.793082
3.794722
3.813211
3.848401
3.900239
3.968843
4.054484
4.157551
4.278631
4.418528
4.578304
4.759276
4.963046
5.191526
5.446958
5.731935
6.049437
6.402627
6.794823
7.229239
7.714463
8.255967
8.84474
9.465817
10.10061
10.73514
11.3747
12.06581
12.92142
14.16417
16.23145
20.34927
31.83486
105.2371
99.87272
24.2477
14.24641
11.39082
10.07512
9.222519
8.551777
7.976992
7.466995
7.008556
6.594467
6.22095
5.884864
5.583359
5.309581
5.062855
4.841912
4.645957
4.473507
4.323668
4.195303
4.087235
3.999001
3.930323
3.88039
3.848119
3.832895
3.83436
3.852311
3.886724
3.937549
4.004934
4.089114
4.190593
4.309975
4.447991
4.605714
4.784495
4.985978
5.212139
5.465307
5.748191
6.063874
6.41577
6.807992
7.249772
7.749335
8.302567
8.898077
9.520069
10.1517
10.78109
11.41474
12.09803
12.94057
14.1645
16.22746
20.32147
31.69753
105.3433
100.142
24.8831
14.42765
11.37251
9.975332
9.105883
8.446029
7.891314
7.402866
6.964591
6.568442
6.209718
5.885062
5.592042
5.329721
5.093195
4.880789
4.691339
4.5241
4.378092
4.252303
4.145858
4.058214
3.9891
3.93827
3.905307
3.889584
3.890425
3.907339
3.94053
3.989825
4.055367
4.137442
4.23671
4.3538
4.489343
4.64445
4.820494
5.01916
5.24248
5.492872
5.773173
6.086651
6.437724
6.834532
7.284989
7.7906
8.347591
8.945838
9.569002
10.19888
10.82364
11.45056
12.12422
12.95406
14.1635
16.20844
20.2769
31.60144
105.4154
100.3256
25.46731
14.62888
11.37905
9.906716
9.014554
8.358209
7.81794
7.347307
6.926596
6.546352
6.201413
5.88872
5.606977
5.354027
5.126685
4.923196
4.742079
4.581983
4.441714
4.320151
4.216426
4.13008
4.061027
4.009287
3.974768
3.957207
3.95623
3.970997
4.00218
4.049408
4.112725
4.192391
4.289137
4.40364
4.536486
4.688785
4.861933
5.057654
5.278046
5.525624
5.803374
6.115546
6.469068
6.871375
7.326994
7.836647
8.395417
8.99267
9.613903
10.24252
10.86528
11.48671
12.15274
12.97463
14.17604
16.20996
20.27211
31.59029
105.4701
100.4241
25.96236
14.83555
11.41534
9.862713
8.941273
8.281577
7.750234
7.293493
6.887817
6.521942
6.189952
5.88853
5.617246
5.373237
5.155271
4.961132
4.788897
4.637021
4.503981
4.388265
4.288729
4.204804
4.136501
4.08416
4.048119
4.028505
4.02521
4.037617
4.066362
4.111004
4.171728
4.248816
4.342955
4.454831
4.584995
4.734549
4.904906
5.097827
5.315482
5.560497
5.836661
6.149586
6.505754
6.911156
7.369914
7.882194
8.442591
9.039984
9.65882
10.28221
10.89874
11.51476
12.17521
12.98963
14.18134
16.20529
20.25435
31.53127
105.4669
100.4514
26.35116
15.03187
11.46453
9.834841
8.880102
8.211624
7.68436
7.237774
6.844542
6.491474
6.171832
5.882096
5.618921
5.383927
5.17396
4.988681
4.826072
4.683448
4.558806
4.450262
4.356262
4.275981
4.20942
4.157164
4.11996
4.098376
4.092677
4.102572
4.128716
4.170826
4.229036
4.303479
4.394902
4.504202
4.631907
4.779026
4.946955
5.13747
5.352892
5.596408
5.87228
6.185886
6.543417
6.950743
7.411557
7.925454
8.48655
9.083593
9.701288
10.32275
10.93553
11.54545
12.19882
13.00747
14.19489
16.21439
20.25614
31.53182
105.4338
100.4702
26.69215
15.21833
11.51969
9.816686
8.826568
8.145347
7.618152
7.17836
6.795029
6.452942
6.144272
5.864853
5.612348
5.383837
5.181891
5.004197
4.850071
4.717146
4.601909
4.501705
4.414468
4.338987
4.275158
4.223784
4.186038
4.162955
4.15519
4.162805
4.186481
4.226118
4.281935
4.354179
4.443158
4.54985
4.675489
4.820849
4.987025
5.175868
5.389872
5.632338
5.907648
6.221327
6.579568
6.988041
7.450081
7.964831
8.525922
9.121662
9.736483
10.35366
10.9615
11.5666
12.21538
13.01941
14.20173
16.21597
20.25331
31.50878
105.389
100.4198
26.94985
15.38918
11.57537
9.803101
8.776799
8.080075
7.549713
7.113727
6.737856
6.404915
6.105962
5.836223
5.593107
5.375185
5.180191
5.008806
4.861745
4.737019
4.63126
4.540113
4.460638
4.391017
4.330907
4.281276
4.243728
4.219789
4.210529
4.216374
4.238053
4.275648
4.329452
4.399771
4.486886
4.59177
4.715725
4.859552
5.024352
5.211961
5.424889
5.666518
5.94135
6.255017
6.61375
7.02314
7.48628
8.001933
8.563327
9.158459
9.771584
10.38586
10.98951
11.58936
12.23266
13.03204
14.21104
16.22296
20.25784
31.50614
105.3129
100.3613
27.15767
15.54131
11.62796
9.791105
8.72854
8.01421
7.477948
7.043117
6.67246
6.346925
6.056426
5.795494
5.561095
5.351474
5.165498
5.002775
4.861728
4.744219
4.646796
4.564686
4.493543
4.430635
4.375146
4.328109
4.291552
4.267507
4.257464
4.262189
4.282501
4.318645
4.370989
4.439902
4.525742
4.629473
4.752234
4.894853
5.058608
5.245331
5.457492
5.698469
5.972844
6.286371
6.645369
7.055381
7.51929
8.03549
8.596779
9.190778
9.801551
10.41235
11.01179
11.60726
12.24658
13.04276
14.21926
16.22932
20.26297
31.50598
105.2679
100.2987
27.38241
15.68062
11.67327
9.776022
8.678235
7.945371
7.4014
6.965743
6.598534
6.279015
5.996003
5.743335
5.517556
5.316689
5.13956
4.985384
4.853616
4.74243
4.651636
4.577678
4.514487
4.458402
4.407959
4.3641
4.329198
4.305753
4.295648
4.299945
4.31958
4.354928
4.406415
4.474471
4.559593
4.662731
4.784804
4.926683
5.089814
5.276025
5.487714
5.728225
6.002206
6.315564
6.674729
7.085245
7.549822
8.066527
8.627758
9.220796
9.829517
10.43717
11.03254
11.62345
12.25843
13.0512
14.22554
16.23447
20.26672
31.50463
105.2038
100.2487
27.60904
15.82379
11.71898
9.760432
8.626467
7.873604
7.320184
6.881996
6.516762
6.202114
5.925797
5.680931
5.463575
5.271395
5.103028
4.957421
4.833616
4.730557
4.647428
4.580145
4.524467
4.475108
4.429893
4.389598
4.356886
4.334675
4.325193
4.329738
4.34937
4.384557
4.435833
4.503682
4.588576
4.691452
4.813258
4.954931
5.117938
5.304107
5.515704
5.755897
6.029448
6.342537
6.701735
7.112594
7.577666
8.094699
8.6557
9.247618
9.854169
10.45868
11.05027
11.63728
12.26889
13.05933
14.23256
16.24165
20.27539
31.51592
105.1771
100.3223
27.78671
15.94636
11.75507
9.73924
8.570329
7.797266
7.233515
6.791695
6.427391
6.116768
5.846564
5.609207
5.400268
5.217058
5.05778
4.921049
4.80565
4.710563
4.63469
4.574959
4.525497
4.482394
4.442243
4.405637
4.375468
4.355001
4.346737
4.352144
4.372401
4.408087
4.459771
4.52789
4.612978
4.715977
4.837876
4.979676
5.142853
5.329225
5.541035
5.781181
6.054374
6.367161
6.726297
7.137384
7.602845
8.120123
8.680845
9.271636
9.876068
10.47753
11.0654
11.64852
12.27669
13.06469
14.23669
16.24557
20.27899
31.51698
105.1356
100.4303
28.00799
16.07421
11.79133
9.716281
8.511236
7.717066
7.142165
6.695962
6.331952
6.02489
5.760522
5.530564
5.330027
5.155889
5.005822
4.878201
4.771524
4.684564
4.616011
4.562985
4.520382
4.482277
4.446626
4.413584
4.386113
4.367751
4.361188
4.367996
4.389435
4.426137
4.478656
4.547434
4.633061
4.736479
4.858751
5.000948
5.164512
5.351271
5.563452
5.803803
6.076842
6.389291
6.74827
7.1595
7.625274
8.142728
8.703124
9.29279
9.895194
10.4938
11.07827
11.65796
12.28335
13.06972
14.24149
16.25161
20.28755
31.52922
105.1201
100.567
28.24764
16.19116
11.81744
9.686259
8.446668
7.631832
7.045688
6.594856
6.230934
5.927329
5.668819
5.446381
5.254492
5.08951
4.948866
4.830472
4.732725
4.654018
4.592872
4.546406
4.509606
4.477049
4.445176
4.414951
4.390081
4.374039
4.369517
4.378122
4.401159
4.439251
4.492904
4.562632
4.649106
4.753181
4.876003
5.01879
5.182916
5.370204
5.582869
5.823635
6.09672
6.40885
6.767659
7.17899
7.645017
8.162594
8.722633
9.311168
9.911557
10.50735
11.08852
11.66495
12.28767
13.07235
14.24367
16.25447
20.29138
31.53363
105.0943
100.7469
28.51922
16.32561
11.84941
9.655968
8.379616
7.543508
6.946015
6.490531
6.126642
5.826432
5.573721
5.358881
5.175847
5.020305
4.889194
4.780111
4.691203
4.620672
4.566857
4.526693
4.49511
4.466688
4.438393
4.411294
4.388786
4.374877
4.372562
4.383242
4.408146
4.44787
4.502885
4.573775
4.66126
4.766228
4.889836
5.033343
5.198162
5.386109
5.599384
5.840686
6.113928
6.425822
6.784494
7.195908
7.662137
8.179779
8.739392
9.326763
9.925378
10.51885
11.0969
11.67013
12.29071
13.07463
14.2465
16.25921
20.29932
31.54705
105.0873
100.9141
28.81412
16.44852
11.87092
9.619008
8.307521
7.450688
6.842072
6.382165
6.018667
5.722317
5.475986
5.269189
5.095118
4.94903
4.82746
4.727822
4.647795
4.585369
4.538711
4.504496
4.47756
4.452613
4.427045
4.402346
4.382438
4.371223
4.371224
4.384033
4.41096
4.452443
4.508978
4.581196
4.669865
4.775898
4.900456
5.044826
5.210458
5.399168
5.613143
5.855057
6.128561
6.440363
6.799
7.210554
7.677001
8.194716
8.754056
9.340678
9.937424
10.52763
11.10251
11.67364
12.29296
13.07602
14.2478
16.26172
20.3042
31.55684
105.0834
101.1504
29.10518
16.5942
11.90302
9.584266
8.234967
7.357007
6.737582
6.273651
5.91073
5.618373
5.378607
5.180012
5.014894
4.878041
4.765802
4.675229
4.603737
4.549072
4.509224
4.480605
4.457795
4.43558
4.411954
4.389237
4.371664
4.362996
4.365663
4.38114
4.410228
4.453542
4.511714
4.585388
4.675362
4.782583
4.908206
5.053536
5.22006
5.409599
5.624331
5.866912
6.140769
6.452599
6.811281
7.222983
7.689622
8.207456
8.766582
9.351881
9.946153
10.53385
11.10668
11.676
12.29349
13.07587
14.24796
16.26339
20.31139
31.57275
105.0912
101.4113
29.38909
16.71834
11.92112
9.541794
8.157028
7.259297
6.630033
6.162842
5.801563
5.514206
5.281556
5.091239
4.93521
4.807912
4.705136
4.623541
4.560356
4.513162
4.479786
4.456179
4.436672
4.416441
4.394391
4.373483
4.358178
4.352087
4.357371
4.375303
4.406634
4.451915
4.511752
4.586934
4.678272
4.78673
4.913461
5.059785
5.227223
5.417599
5.633092
5.876348
6.150626
6.46257
6.821302
7.233189
7.700164
8.218004
8.776167
9.359764
9.952168
10.53818
11.1095
11.67732
12.294
13.07603
14.24823
16.26468
20.31556
31.58581
105.1134
101.691
29.70556
16.85979
11.95025
9.506084
8.083662
7.164993
6.52546
6.0554
5.696158
5.413952
5.188183
5.005985
4.858857
4.740768
4.647096
4.57418
4.519016
4.479073
4.451618
4.432162
4.415102
4.396202
4.375419
4.356262
4.343172
4.339539
4.347307
4.367584
4.401013
4.448162
4.509693
4.58634
4.678994
4.788662
4.916492
5.063801
5.232141
5.423333
5.639555
5.883446
6.158259
6.470485
6.829348
7.241562
7.708814
8.226435
8.783724
9.365943
9.95677
10.54112
11.1105
11.67747
12.29399
13.07581
14.24838
16.26589
20.32031
31.60251
105.1525
101.9652
29.98302
16.97333
11.96112
9.459826
8.003241
7.066547
6.419706
5.948999
5.592898
5.316284
5.097901
4.924357
4.78642
4.677502
4.592659
4.527996
4.480349
4.447109
4.424901
4.408851
4.393393
4.375142
4.355133
4.337502
4.326574
4.325365
4.335534
4.358039
4.393456
4.442387
4.505522
4.583636
4.677615
4.788485
4.917412
5.06573
5.234984
5.426993
5.64395
5.888483
6.163838
6.4764
6.835428
7.247796
7.715125
8.232545
8.78918
9.37021
9.959512
10.54211
11.11093
11.67734
12.2936
13.07548
14.24838
16.2669
20.32214
31.61529
105.1965
102.2423
30.27642
17.09676
11.97431
9.416046
7.927327
6.973757
6.31938
5.847095
5.493795
5.222955
5.012301
4.847385
4.718407
4.618338
4.541919
4.485041
4.444404
4.417255
4.399666
4.386173
4.371385
4.353129
4.333653
4.317485
4.308747
4.309935
4.322436
4.347065
4.384395
4.435057
4.49976
4.579304
4.674586
4.786659
4.916691
5.06599
5.236126
5.42896
5.646633
5.891766
6.16763
6.480557
6.839865
7.252532
7.720026
8.237231
8.793065
9.372807
9.960484
10.54211
11.10975
11.67517
12.29059
13.07215
14.24553
16.26574
20.32367
31.63403
105.2543
102.668
30.53384
17.20994
11.98475
9.372948
7.853494
6.8837
6.222836
5.750419
5.400875
5.136234
4.933209
4.776637
4.656176
4.56442
4.495852
4.446209
4.412138
4.39038
4.376405
4.364383
4.349471
4.330819
4.311753
4.29699
4.290297
4.293732
4.30844
4.335095
4.374268
4.426604
4.492831
4.573761
4.670305
4.783541
4.914644
5.064913
5.235907
5.42945
5.647751
5.893473
6.169798
6.483086
6.842707
7.255677
7.723264
8.240131
8.795068
9.373555
9.96012
10.5405
11.10726
11.67221
12.28744
13.06887
14.24224
16.26308
20.32328
31.64138
105.3026
102.978
30.78812
17.31736
11.99163
9.328087
7.780567
6.797136
6.131272
5.659373
5.314019
5.055819
4.860419
4.711973
4.599656
4.515743
4.454504
4.411564
4.383455
4.36633
4.354962
4.343388
4.327595
4.308273
4.289613
4.276273
4.271553
4.2771
4.293856
4.322382
4.363274
4.417193
4.484873
4.567133
4.664888
4.779235
4.911357
5.062546
5.234364
5.428642
5.647551
5.893708
6.170382
6.483941
6.843855
7.257076
7.724684
8.241138
8.795359
9.37274
9.958031
10.53742
11.10357
11.6682
12.28323
13.06452
14.23799
16.25973
20.32398
31.65405
105.3543
103.3039
31.02771
17.42276
11.99925
9.285638
7.711335
6.715204
6.04542
5.574988
5.234306
4.982618
4.794661
4.653967
4.549298
4.472666
4.418184
4.381404
4.358688
4.345413
4.33556
4.323238
4.305898
4.285741
4.267518
4.255626
4.252778
4.260273
4.278885
4.309146
4.351647
4.40705
4.476095
4.559607
4.65851
4.773911
4.906995
5.059048
5.231637
5.426596
5.646102
5.892785
6.16988
6.48377
6.843942
7.257394
7.725048
8.241158
8.794392
9.370546
9.954707
10.53332
11.0991
11.66365
12.27868
13.05988
14.23321
16.25506
20.3203
31.6556
105.3912
103.6584
31.23757
17.51447
12.00264
9.24381
7.645411
6.638582
5.966154
5.497881
5.162146
4.916918
4.736112
4.602728
4.505188
4.435305
4.387103
4.356069
4.3379
4.327204
4.317554
4.303574
4.284357
4.263401
4.245703
4.235227
4.234127
4.243421
4.263736
4.295591
4.339581
4.396367
4.466694
4.551387
4.65137
4.767761
4.901744
5.054598
5.22789
5.423455
5.643473
5.890576
6.168002
6.482221
6.842792
7.256524
7.724084
8.239585
8.791844
9.36686
9.950037
10.52806
11.09368
11.65833
12.27347
13.05463
14.22784
16.24981
20.31635
31.65878
105.4249
104.0328
31.44339
17.60874
12.00851
9.205775
7.585584
6.569254
5.894866
5.429044
5.098227
4.859183
4.685083
4.558464
4.467472
4.403753
4.361245
4.335367
4.320976
4.311729
4.300903
4.284398
4.263096
4.241436
4.224331
4.215284
4.21579
4.226726
4.248591
4.281908
4.327272
4.385343
4.456864
4.542659
4.643652
4.760961
4.895771
5.049354
5.223275
5.419368
5.639816
5.887253
6.164923
6.479396
6.840297
7.254258
7.721719
8.236658
8.787965
9.36191
9.944237
10.52186
11.08754
11.6525
12.26789
13.04904
14.22201
16.2438
20.31115
31.65887
105.4512
104.4113
31.60552
17.69154
12.00941
9.167723
7.530767
6.507245
5.831883
5.368795
5.042769
4.809535
4.641626
4.521197
4.436181
4.378136
4.340983
4.319441
4.307539
4.298269
4.285111
4.265587
4.242218
4.220044
4.203669
4.195929
4.197905
4.210309
4.233586
4.268251
4.314888
4.374155
4.446788
4.533609
4.635538
4.753695
4.889261
5.043499
5.217974
5.41452
5.635321
5.883016
6.160855
6.475544
6.836767
7.250928
7.718227
8.232536
8.782863
9.355783
9.937383
10.51479
11.08073
11.64614
12.26184
13.04296
14.21556
16.23699
20.30488
31.65771
105.4761
104.8144
31.77627
17.77855
12.01241
9.132794
7.481878
6.452908
5.777389
5.317218
4.995771
4.767908
4.605641
4.490824
4.411218
4.358305
4.325939
4.307915
4.297261
4.286436
4.269906
4.247098
4.22184
4.199364
4.183774
4.177259
4.180585
4.194323
4.218893
4.254796
4.302609
4.362981
4.436643
4.524412
4.627202
4.746132
4.882376
5.037191
5.21214
5.409057
5.630128
5.877998
6.155925
6.470775
6.832293
7.246603
7.713664
8.227273
8.776599
9.348546
9.929542
10.5069
11.07328
11.6393
12.25541
13.03654
14.20874
16.22965
20.29768
31.65513
105.5019
105.2
31.92209
17.86271
12.01775
9.102957
7.44073
6.407686
5.732422
5.275001
4.957651
4.734535
4.577252
4.467435
4.392766
4.344717
4.316345
4.300556
4.289557
4.275808
4.255273
4.22919
4.20229
4.179679
4.164867
4.159473
4.164018
4.178957
4.204696
4.241726
4.290612
4.351994
4.426595
4.515224
4.618793
4.738413
4.875251
5.030557
5.205892
5.403089
5.624339
5.872295
6.150222
6.465167
6.826933
7.241326
7.708063
8.220904
8.769213
9.340249
9.920777
10.49827
11.06526
11.63203
12.24861
13.02971
14.20143
16.22163
20.28933
31.64841
105.5259
105.5967
32.05405
17.94466
12.02453
9.077283
7.406
6.37028
5.695915
5.241332
4.927822
4.709011
4.556203
4.450878
4.38066
4.337004
4.311852
4.29701
4.284079
4.266216
4.241263
4.212041
4.183762
4.161159
4.14709
4.14269
4.148311
4.164319
4.191108
4.229156
4.279013
4.341309
4.416754
4.50615
4.610408
4.730634
4.867977
5.02368
5.199304
5.396688
5.618025
5.865975
6.143815
6.458781
6.820731
7.235128
7.70146
8.213475
8.760771
9.330973
9.91117
10.48895
11.05671
11.62433
12.24145
13.02258
14.19383
16.21334
20.28087
31.64253
105.5526
105.9892
32.17576
18.02822
12.037
9.059682
7.381411
6.343578
5.66981
5.217386
4.906912
4.691647
4.542743
4.441687
4.376148
4.336226
4.312583
4.296918
4.280346
4.257425
4.227899
4.195767
4.166365
4.14389
4.1305
4.126955
4.133506
4.150461
4.17819
4.217152
4.267884
4.330999
4.407196
4.497262
4.602122
4.72287
4.860621
5.016624
5.192441
5.389916
5.611248
5.859104
6.13677
6.451683
6.81375
7.228072
7.693914
8.205049
8.751336
9.320777
9.900769
10.479
11.04766
11.61623
12.23394
13.01506
14.18566
16.20409
20.27082
31.63397
105.5754
106.3902
32.27879
18.1079
12.05194
9.047264
7.3624
6.323474
5.65093
5.20085
4.893424
4.681746
4.536853
4.439827
4.377433
4.339567
4.316594
4.29848
4.277269
4.248984
4.215099
4.180424
4.15014
4.127846
4.11507
4.112279
4.119642
4.13743
4.165992
4.205767
4.257276
4.321119
4.397979
4.488629
4.594006
4.715186
4.853246
5.00945
5.185366
5.382839
5.604075
5.851748
6.129165
6.443958
6.806065
7.220213
7.685475
8.195679
8.740974
9.309738
9.889657
10.46847
11.03817
11.60778
12.22609
13.00718
14.17712
16.19456
20.26092
31.62652
105.5997
106.8082
32.39192
18.19381
12.0746
9.049173
7.358205
6.316531
5.643891
5.195256
4.890078
4.680829
4.537881
4.443832
4.38486
4.348392
4.324062
4.301971
4.274991
4.241078
4.203074
4.166179
4.135199
4.113095
4.100856
4.098716
4.106783
4.125297
4.15459
4.195079
4.247269
4.311745
4.389177
4.480327
4.586151
4.707657
4.845905
5.002212
5.178132
5.375503
5.596531
5.843903
6.121054
6.435724
6.797728
7.211569
7.67615
8.185378
8.729703
9.297874
9.877837
10.45737
11.02818
11.59888
12.2178
12.99879
14.16789
16.18399
20.24941
31.61644
105.6181
107.2286
32.4924
18.28077
12.10599
9.051072
7.358896
6.316892
5.644614
5.196119
4.891819
4.684676
4.54601
4.455605
4.398218
4.361393
4.334102
4.306647
4.273324
4.233837
4.192052
4.153238
4.121691
4.099752
4.087956
4.086359
4.09502
4.114155
4.144076
4.185181
4.237957
4.30297
4.380879
4.472434
4.578577
4.700303
4.838663
4.994976
5.170793
5.367955
5.588672
5.835649
6.112465
6.426938
6.788716
7.202116
7.665926
8.17415
8.717545
9.285219
9.865356
10.44573
11.01778
11.58963
12.20916
12.99001
14.15825
16.17308
20.23792
31.60825
105.6373
107.668
32.59746
18.37203
12.14918
9.062076
7.361822
6.322553
5.650997
5.204348
4.902277
4.69779
4.562285
4.474047
4.416885
4.378106
4.346205
4.312296
4.272317
4.227448
4.182222
4.141756
4.109761
4.087917
4.076428
4.075247
4.084391
4.104045
4.134492
4.176113
4.229372
4.294822
4.373106
4.464961
4.571319
4.69316
4.831529
4.987745
5.163358
5.36021
5.580522
5.827012
6.103408
6.417588
6.779015
7.191846
7.654803
8.162014
8.704537
9.271817
9.852245
10.43356
11.0069
11.57992
12.20003
12.98068
14.14787
16.16099
20.22413
31.59537
105.6516
108.1096
32.69811
18.46948
12.20427
9.082311
7.374822
6.337046
5.666649
5.220985
4.920707
4.71934
4.585974
4.498202
4.439837
4.397517
4.359741
4.31874
4.272078
4.222106
4.17374
4.1318
4.099379
4.077546
4.066262
4.065381
4.074897
4.094961
4.125831
4.167863
4.221504
4.28729
4.365847
4.457901
4.564369
4.686224
4.824505
4.980526
5.155838
5.352287
5.572102
5.818016
6.093907
6.407702
6.768664
7.180812
7.642843
8.149037
8.690748
9.257732
9.838558
10.42091
10.99563
11.56987
12.19062
12.97107
14.13722
16.1486
20.20949
31.57661
105.666
108.5609
32.79226
18.56585
12.26705
9.111213
7.395149
6.35841
5.689071
5.244897
4.947112
4.7484
4.615942
4.527318
4.466291
4.418975
4.374266
4.325743
4.27247
4.217737
4.166562
4.123309
4.090468
4.068577
4.057409
4.056722
4.066505
4.086876
4.118066
4.16041
4.214336
4.28036
4.359094
4.45125
4.557734
4.679507
4.817606
4.973341
5.148261
5.344216
5.563447
5.808698
6.083998
6.397318
6.757702
7.169056
7.630093
8.135268
8.676228
9.243017
9.824349
10.40783
10.98398
11.55947
12.18081
12.96106
14.12621
16.13595
20.19423
31.55115
105.6682
109.0225
32.90827
18.67415
12.34143
9.148617
7.424007
6.388009
5.719226
5.276537
4.981918
4.784545
4.651316
4.560662
4.495568
4.441906
4.389443
4.333219
4.273587
4.214456
4.160736
4.116283
4.083008
4.060989
4.049841
4.049257
4.05921
4.079789
4.111203
4.153763
4.207877
4.274043
4.35286
4.445025
4.551431
4.67303
4.810855
4.966213
5.140652
5.336027
5.554586
5.799086
6.073708
6.386453
6.746147
7.156601
7.61658
8.120742
8.661017
9.227708
9.809646
10.39434
10.97197
11.5487
12.17067
12.9508
14.11524
16.12418
20.18288
31.54246
105.6712
109.4747
33.00888
18.7825
12.42372
9.198546
7.459433
6.422236
5.755965
5.316905
5.023923
4.826
4.691164
4.597279
4.526789
4.465793
4.405132
4.341259
4.275593
4.212408
4.156372
4.110792
4.077041
4.05481
4.043582
4.043006
4.053031
4.073722
4.105261
4.147938
4.202142
4.268355
4.347157
4.439234
4.545467
4.6668
4.804259
4.95915
5.133021
5.327729
5.54553
5.789195
6.063046
6.375109
6.733993
7.143441
7.602303
8.105453
8.645102
9.211784
9.794412
10.38037
10.95947
11.53739
12.15983
12.93963
14.10303
16.11071
20.16989
31.53834
105.6785
109.9423
33.12117
18.89674
12.51505
9.259564
7.503063
6.463312
5.800682
5.364403
5.071621
4.872316
4.734927
4.636659
4.559653
4.490563
4.421452
4.350087
4.278727
4.211821
4.153604
4.106905
4.072601
4.050056
4.038633
4.037964
4.04796
4.06866
4.100224
4.142919
4.197114
4.263273
4.341963
4.433858
4.539823
4.660796
4.7978
4.952137
5.125354
5.319314
5.536278
5.779028
6.052014
6.363279
6.721234
7.129579
7.587275
8.089427
8.628513
9.195271
9.778665
10.36591
10.94647
11.5255
12.14831
12.92763
14.08976
16.09567
20.15353
31.52392
105.6859
110.4041
33.23012
19.01393
12.6151
9.330319
7.55462
6.512433
5.853801
5.418733
5.124692
4.923115
4.782087
4.678262
4.593765
4.51601
4.438331
4.359661
4.282877
4.212432
4.152273
4.104537
4.069612
4.046643
4.034917
4.034059
4.043931
4.064546
4.096038
4.138654
4.192743
4.258754
4.337239
4.428858
4.534467
4.654994
4.791459
4.945161
5.117648
5.310784
5.526837
5.768599
6.040633
6.350992
6.70791
7.115067
7.571557
8.072725
8.611306
9.178214
9.762436
10.35101
10.93303
11.51319
12.13643
12.91537
14.07635
16.08061
20.13646
31.50169
105.6863
110.8782
33.33926
19.13194
12.72048
9.410076
7.617582
6.570608
5.912317
5.477348
5.181937
4.977574
4.832032
4.721618
4.628766
4.541934
4.455716
4.370021
4.288158
4.214468
4.152412
4.103631
4.067994
4.044494
4.03236
4.03122
4.040874
4.06131
4.092638
4.135084
4.188979
4.254754
4.332948
4.424208
4.52938
4.649383
4.785235
4.93823
5.109917
5.302162
5.517238
5.757943
6.028945
6.338299
6.694078
7.099965
7.55521
8.055406
8.593538
9.160671
9.745782
10.33572
10.91921
11.50049
12.12417
12.9028
14.06282
16.06589
20.12207
31.49353
105.6862
111.3582
33.46167
19.25418
12.83298
9.499835
7.69131
6.637572
5.977066
5.54069
5.243115
5.035152
4.884071
4.766103
4.664276
4.568163
4.473532
4.381105
4.29445
4.217694
4.153817
4.103968
4.067615
4.043505
4.030895
4.029386
4.038734
4.058905
4.089983
4.132175
4.185791
4.251249
4.329072
4.419897
4.524558