/*--------------------------------*- C++ -*----------------------------------*\
| =========                 |                                                 |
| \\      /  F ield         | OpenFOAM: The Open Source CFD Toolbox           |
|  \\    /   O peration     | Version:  2312                                  |
|   \\  /    A nd           | Website:  www.openfoam.com                      |
|    \\/     M anipulation  |                                                 |
\*---------------------------------------------------------------------------*/
FoamFile
{
    version     2.0;
    format      ascii;
    arch        "LSB;label=32;scalar=64";
    class       volScalarField;
    location    "3150";
    object      qr;
}
// * * * * * * * * * * * * * * * * * * * * * * * * * * * * * * * * * * * * * //

dimensions      [1 0 -3 0 0 0 0];

internalField   uniform 0;

boundaryField
{
    plate
    {
        type            calculated;
        value           nonuniform List<scalar> 
200
(
-3481.391
-3480.301
-3494.731
-3504.153
-3506.208
-3494.928
-3481.725
-3433.923
-3474.09
-3479.776
-3521.842
-3520.63
-3528.309
-3514.361
-3514.656
-3521.156
-3529.334
-3523.079
-3523.184
-3504.766
-3482.998
-3456.019
-3432.609
-3453.381
-3470.147
-3484.822
-3498.929
-3492.831
-3507.878
-3517.994
-3528.75
-3533.383
-3528.469
-3580.863
-3570.548
-3563.282
-3560.36
-3558.093
-3559.373
-3560.795
-3561.322
-3560.306
-3557.53
-3554.5
-3551.676
-3549.669
-3548.568
-3548.175
-3548.103
-3547.89
-3547.456
-3546.708
-3546.025
-3545.55
-3545.304
-3545.178
-3544.897
-3544.308
-3543.238
-3541.944
-3540.698
-3539.623
-3538.858
-3538.35
-3538.043
-3537.838
-3537.564
-3537.225
-3536.79
-3536.321
-3535.737
-3535.087
-3534.362
-3533.52
-3532.646
-3531.706
-3530.765
-3529.959
-3529.273
-3528.681
-3528.093
-3527.571
-3527.086
-3526.588
-3526.081
-3525.586
-3525.125
-3524.653
-3524.171
-3523.685
-3523.163
-3522.605
-3522.005
-3521.387
-3520.757
-3520.123
-3519.477
-3518.853
-3518.314
-3517.843
-3517.431
-3517.066
-3516.782
-3516.556
-3516.376
-3516.202
-3516.049
-3515.901
-3515.811
-3515.695
-3515.646
-3515.562
-3515.479
-3515.323
-3515.142
-3514.865
-3514.593
-3514.243
-3513.926
-3513.616
-3513.459
-3513.4
-3513.75
-3513.324
-3514.033
-3514
-3514.374
-3514.416
-3514.274
-3514.041
-3513.798
-3513.671
-3513.636
-3513.643
-3513.478
-3512.935
-3511.932
-3510.567
-3509.263
-3508.521
-3508.881
-3510.565
-3513.385
-3516.727
-3519.735
-3521.662
-3522.044
-3520.939
-3518.72
-3515.949
-3513.1
-3510.538
-3508.545
-3507.465
-3507.739
-3509.702
-3513.269
-3517.79
-3521.904
-3524.211
-3523.607
-3520.332
-3515.685
-3512.099
-3511.489
-3514.71
-3520.185
-3524.856
-3524.82
-3518.451
-3507.252
-3496.805
-3493.197
-3500.415
-3516.834
-3536.125
-3548.334
-3546.085
-3527.819
-3502.217
-3482.438
-3478.546
-3489.687
-3507.958
-3524.101
-3535.923
-3540.128
-3535.769
-3514.964
-3487.535
-3467.834
-3472.407
-3500.17
-3541.739
-3592.734
-3702.248
-2067.866
-953.0993
-6325.979
-6440.585
)
;
    }
    riser
    {
        type            calculated;
        value           nonuniform List<scalar> 
200
(
2040.277
2054.784
2078.652
2175.275
2337.948
2488.507
2564.752
2571.398
2549.094
2527.66
2518.821
2531.042
2575.068
2653.9
2754.313
2850.063
2916.618
2944.841
2943.261
2929.02
2916.591
2912.44
2915.801
2922.059
2926.317
2926.619
2925.314
2927.875
2940.052
2965.084
3002.593
3049.328
3099.528
3145.06
3178.411
3197.066
3203.638
3202.475
3197.813
3193.457
3191.914
3193.625
3197.383
3201.538
3204.925
3207.084
3208.069
3208.207
3207.963
3207.807
3208.069
3208.803
3209.817
3210.777
3211.428
3211.734
3211.889
3212.213
3212.997
3214.352
3216.17
3218.158
3219.983
3221.412
3222.391
3223.02
3223.478
3223.913
3224.376
3224.811
3225.102
3225.148
3224.918
3224.47
3223.928
3223.439
3223.129
3223.082
3223.321
3223.824
3224.543
3225.419
3226.381
3227.341
3228.191
3228.798
3229.006
3228.646
3227.56
3225.627
3222.787
3219.064
3214.58
3209.551
3204.274
3199.099
3194.396
3190.522
3187.78
3186.389
3186.465
3188.018
3190.952
3195.073
3200.115
3205.766
3211.698
3217.594
3223.178
3228.233
3232.615
3236.248
3239.122
3241.275
3242.778
3243.723
3244.2
3244.296
3244.094
3243.686
3243.178
3242.674
3242.266
3242.031
3242.013
3242.195
3242.514
3242.881
3243.22
3243.494
3243.722
3243.972
3244.331
3244.859
3245.548
3246.311
3247.025
3247.588
3247.996
3248.353
3248.839
3249.606
3250.654
3251.757
3252.488
3252.365
3251.082
3248.739
3245.953
3243.759
3243.302
3245.368
3249.949
3256.014
3261.692
3264.884
3264.155
3259.597
3253.135
3248.023
3247.515
3253.259
3264.185
3276.539
3285.151
3285.288
3274.194
3251.705
3220.002
3182.987
3145.557
3112.847
3089.188
3076.844
3074.748
3078.028
3079.604
3073.714
3059.734
3044.722
3042.608
3065.898
3111.531
3153.582
3154.645
3092.637
2984.078
2877.384
2810.804
2774.419
2731.065
2687.231
2713.396
2841.905
2951.46
2862.585
2608.139
2427.832
2356.831
2283.629
)
;
    }
    topAndBottom
    {
        type            calculated;
        value           nonuniform List<scalar> 
120
(
1741.398
1458.405
1270.465
1181.555
1103.749
1031.744
979.1011
949.8481
935.8423
929.1299
925.3204
922.7681
920.9968
919.4727
917.6259
915.9822
915.8232
917.4978
920.2306
923.6117
927.6618
931.6688
934.7728
936.4492
936.5818
935.2507
932.6451
929.0117
924.6241
919.7557
914.6908
909.7131
905.089
901.0466
897.7439
895.2205
893.354
891.8574
890.3428
888.4499
885.9907
883.0291
879.8381
876.776
874.1773
872.3095
871.3108
871.0161
870.7093
869.0839
864.6581
856.6666
845.906
834.801
825.9973
819.9684
813.9113
805.2902
809.7269
943.1509
1354.371
1541.891
1551.151
1542.633
1536.86
1534.589
1532.31
1527.506
1520.315
1512.313
1504.877
1498.702
1494.103
1491.31
1490.375
1490.993
1492.512
1494.169
1495.358
1495.754
1495.279
1493.993
1492.015
1489.495
1486.612
1483.544
1480.422
1477.288
1474.094
1470.736
1467.12
1463.22
1459.112
1454.967
1450.986
1447.379
1444.172
1441.116
1437.786
1433.965
1429.836
1425.738
1421.985
1418.582
1416.073
1415.461
1416.607
1417.857
1418.095
1417.254
1414.863
1410.562
1406.386
1405.645
1409.607
1417.19
1425.345
1437.345
1458.575
1507.642
)
;
    }
    frontAndBack
    {
        type            empty;
    }
}


// ************************************************************************* //
