/*--------------------------------*- C++ -*----------------------------------*\
| =========                 |                                                 |
| \\      /  F ield         | OpenFOAM: The Open Source CFD Toolbox           |
|  \\    /   O peration     | Version:  2312                                  |
|   \\  /    A nd           | Website:  www.openfoam.com                      |
|    \\/     M anipulation  |                                                 |
\*---------------------------------------------------------------------------*/
FoamFile
{
    version     2.0;
    format      ascii;
    arch        "LSB;label=32;scalar=64";
    class       volScalarField;
    location    "3150";
    object      T;
}
// * * * * * * * * * * * * * * * * * * * * * * * * * * * * * * * * * * * * * //

dimensions      [0 0 0 1 0 0 0];

internalField   nonuniform List<scalar> 
12000
(
445.926
434.5176
433.2374
433.0634
433.0207
432.9928
432.9678
432.9435
432.9191
432.8936
432.8671
432.8386
432.808
432.7749
432.7394
432.7011
432.6597
432.615
432.5673
432.5164
432.4621
432.4042
432.3429
432.2781
432.2097
432.1378
432.062
431.9824
431.8992
431.8128
431.7244
431.6346
431.5434
431.4491
431.3495
431.2385
431.1128
430.9764
430.8375
430.6926
430.5256
430.3277
430.1069
429.8955
429.6847
429.4202
429.0955
428.7727
428.456
428.0741
427.6069
427.0997
426.5375
425.8605
425.0578
424.0946
422.9408
421.2376
418.8373
414.6551
446.2457
435.1457
434.1372
434.2368
434.4937
434.7774
435.0643
435.347
435.6241
435.8805
436.1294
436.3566
436.5668
436.7618
436.9452
437.1109
437.2564
437.3853
437.5039
437.6118
437.7053
437.7836
437.8508
437.91
437.9608
438.001
438.0302
438.051
438.0657
438.0729
438.0692
438.0559
438.0361
438.0082
437.9689
437.9163
437.8508
437.7727
437.682
437.5774
437.4565
437.3176
437.1598
436.9798
436.774
436.5384
436.2703
435.9633
435.61
435.1996
434.7231
434.1629
433.4948
432.6956
431.7555
430.5656
428.9853
426.6608
423.1289
416.8974
446.6498
435.9385
434.9422
435.1866
435.6508
436.1504
436.6469
437.1238
437.5745
437.992
438.3822
438.7418
439.0725
439.3751
439.6514
439.9025
440.1293
440.3336
440.5174
440.6823
440.8295
440.96
441.075
441.1758
441.2634
441.3384
441.4013
441.4528
441.4935
441.5238
441.5436
441.5524
441.5514
441.5408
441.5152
441.4764
441.4245
441.3592
441.2799
441.1856
441.0752
440.947
440.7992
440.6293
440.435
440.213
439.9596
439.6682
439.3376
438.9533
438.5021
437.9743
437.3558
436.6066
435.6557
434.4304
432.7978
430.4062
426.3334
418.0207
447.4578
436.6456
435.5966
435.9131
436.5066
437.1433
437.7691
438.3644
438.9224
439.4481
439.9363
440.3853
440.7968
441.1733
441.5155
441.8262
442.108
442.3634
442.5946
442.8035
442.9917
443.1605
443.3113
443.4452
443.5635
443.6668
443.7558
443.8309
443.8925
443.9408
443.9759
443.9971
444.0057
444.0012
443.9801
443.9436
443.8918
443.8245
443.7408
443.6396
443.5194
443.3787
443.2151
443.0277
442.8128
442.5668
442.2855
441.9638
441.5984
441.179
440.6973
440.1441
439.4851
438.6804
437.7084
436.4881
434.8461
432.4261
428.2276
418.8342
448.28
437.3092
436.1935
436.5393
437.2105
437.9353
438.6443
439.3159
439.9435
440.531
441.0775
441.5823
442.0468
442.4732
442.862
443.2161
443.5382
443.8308
444.0959
444.3367
444.5547
444.7515
444.9278
445.0849
445.2238
445.3455
445.4508
445.5401
445.6137
445.6718
445.7151
445.7431
445.7562
445.7516
445.73
445.6916
445.6369
445.565
445.4747
445.3648
445.2336
445.0793
444.8995
444.6926
444.4546
444.1817
443.8698
443.514
443.1079
442.6454
442.1181
441.5113
440.8042
439.9658
438.956
437.7038
436.0579
433.6658
429.4759
419.4515
449.1923
437.95
436.7326
437.0602
437.7604
438.5332
439.2946
440.019
440.6983
441.3306
441.9165
442.4582
442.9596
443.4217
443.8452
444.2324
444.5853
444.906
445.1967
445.4603
445.6987
445.9137
446.1062
446.2773
446.4283
446.5602
446.6738
446.7698
446.8486
446.9105
446.9562
446.9852
446.9971
446.9907
446.9667
446.9252
446.8663
446.7891
446.6925
446.5751
446.4351
446.2704
446.0787
445.857
445.6019
445.3092
444.9745
444.5924
444.1573
443.6617
443.0948
442.4435
441.6907
440.8124
439.7687
438.4878
436.8241
434.433
430.2643
419.8916
450.1494
438.5723
437.2371
437.5187
438.217
439.011
439.8019
440.5578
441.2682
441.9303
442.5449
443.1137
443.6398
444.126
444.5739
444.9844
445.3591
445.7
446.0092
446.2887
446.5406
446.7665
446.968
447.1463
447.3028
447.4386
447.5547
447.652
447.7311
447.7925
447.8364
447.8628
447.8714
447.8621
447.8352
447.7907
447.7283
447.6472
447.5463
447.424
447.2785
447.1075
446.9083
446.6776
446.4117
446.1061
445.7559
445.3553
444.8977
444.3741
443.7744
443.0869
442.2966
441.3814
440.3047
438.9983
437.3221
434.9396
430.8002
420.2084
451.1792
439.1903
437.7166
437.9302
438.6018
439.3939
440.1954
440.9676
441.697
442.3794
443.0147
443.6041
444.1494
444.6527
445.1166
445.5428
445.9326
446.2874
446.6088
446.8987
447.1589
447.3912
447.597
447.7781
447.9359
448.0717
448.1867
448.2819
448.3583
448.4164
448.4566
448.4792
448.4841
448.4714
448.4415
448.3943
448.3293
448.2456
448.1422
448.0173
447.8691
447.695
447.4922
447.2571
446.9858
446.6734
446.3143
445.9021
445.4287
444.8848
444.2601
443.5435
442.7221
441.7773
440.6755
439.3501
437.6627
435.2821
431.1689
420.4309
452.3062
439.8064
438.1793
438.3118
438.9395
439.7135
440.5117
441.2889
442.028
442.723
443.3724
443.9766
444.5366
445.0537
445.5296
445.9661
446.3651
446.7281
447.0566
447.3521
447.6164
447.851
448.0578
448.2384
448.3944
448.5275
448.639
448.7302
448.8021
448.8557
448.8914
448.9098
448.911
448.8952
448.8628
448.8135
448.7468
448.6618
448.5574
448.4318
448.283
448.1084
447.905
447.669
447.396
447.081
446.7177
446.2987
445.8151
445.2564
444.6103
443.8656
443.0133
442.0413
440.9197
439.5818
437.8901
435.517
431.43
420.6118
453.4861
440.4259
438.6336
438.6759
439.2475
439.9907
440.7747
441.5477
442.2888
442.9897
443.6474
444.2612
444.8314
445.3588
445.8443
446.2892
446.6948
447.0629
447.395
447.6929
447.958
448.1923
448.3974
448.5752
448.7276
448.8563
448.9629
449.049
449.1157
449.1642
449.1953
449.2095
449.2072
449.1886
449.154
449.1032
449.0355
448.9501
448.8456
448.7204
448.5723
448.3986
448.1962
447.9612
447.689
447.3741
447.01
446.5884
446.0994
445.5315
444.8674
444.0911
443.2045
442.2114
441.0814
439.7386
438.0457
435.679
431.6172
420.7607
454.7352
441.0585
439.0824
439.0255
439.532
440.2356
440.9977
441.7603
442.4983
443.2009
443.8633
444.4837
445.0614
445.5967
446.0898
446.5415
446.9527
447.3245
447.6585
447.9564
448.22
448.4515
448.6528
448.826
448.9732
449.0962
449.1969
449.2771
449.3381
449.3813
449.4076
449.4177
449.412
449.3909
449.3545
449.3024
449.2342
449.1488
449.0448
448.9205
448.7738
448.6018
448.4013
448.1683
447.8983
447.5855
447.2231
446.8028
446.3119
445.7298
445.0395
444.2382
443.3308
442.3213
441.1832
439.8396
438.1489
435.7906
431.7525
420.9001
456.0157
441.6989
439.5314
439.3756
439.8135
440.47
441.2017
441.9459
442.6742
443.3731
444.0359
444.6592
445.2414
445.7817
446.2801
446.7366
447.1515
447.526
447.8615
448.1595
448.4219
448.6505
448.8476
449.0157
449.157
449.2737
449.3681
449.4421
449.4972
449.535
449.5565
449.5626
449.5537
449.5302
449.492
449.439
449.3704
449.2852
449.182
449.0589
448.9138
448.7437
448.5455
448.3151
448.0479
447.7381
447.3791
446.9582
446.4566
445.8581
445.1536
444.3395
443.4183
442.3944
441.2494
439.9073
438.2189
435.8677
431.8519
421.0272
457.2925
442.3497
439.9915
439.7342
440.1004
440.7058
441.4028
442.1246
442.8391
443.5299
444.1887
444.8105
445.3926
445.9326
446.4305
446.8874
447.3036
447.68
448.0175
448.3166
448.5782
448.8043
448.9978
449.1612
449.2969
449.4076
449.4957
449.5635
449.6128
449.6452
449.6621
449.6642
449.6522
449.6263
449.5866
449.5327
449.4638
449.3789
449.2765
449.1547
449.0112
448.8433
448.6476
448.4201
448.1563
447.8505
447.491
447.0617
446.5497
445.9427
445.2306
444.4083
443.477
442.4426
441.292
439.9506
438.2647
435.9208
431.9249
421.1499
458.5463
443.0292
440.4653
440.1015
440.3939
440.9457
441.6048
442.3007
442.998
443.6779
444.3298
444.9472
445.5256
446.0614
446.5549
447.0084
447.4227
447.7979
448.135
448.4346
448.6975
448.9245
449.1171
449.2768
449.4067
449.511
449.5929
449.6546
449.6983
449.7257
449.7381
449.7365
449.7216
449.6935
449.6522
449.5973
449.5281
449.4434
449.3416
449.221
449.079
448.913
448.7197
448.4953
448.2352
447.9299
447.5649
447.1283
446.6088
445.9954
445.2786
444.4518
443.5144
442.4715
441.3162
439.9759
438.2928
435.9548
431.9754
421.2592
459.7789
443.7191
440.9478
440.4768
440.6956
441.1929
441.8122
442.48
443.1577
443.8243
444.4671
445.078
445.6511
446.182
446.6702
447.1178
447.5263
447.897
448.2308
448.5283
448.79
449.016
449.2074
449.3655
449.493
449.5929
449.6689
449.7247
449.7631
449.7857
449.794
449.789
449.7712
449.7409
449.6981
449.6422
449.5725
449.4877
449.3864
449.2665
449.1258
448.9615
448.7705
448.549
448.2893
447.9806
447.6117
447.171
446.647
446.029
445.3081
444.4776
443.5359
442.4875
441.329
439.9894
438.3091
435.9765
432.0111
421.3526
460.9865
444.413
441.4363
440.8595
441.0062
441.4497
442.0288
442.6671
443.3237
443.9751
444.607
445.2098
445.7768
446.3029
446.7856
447.2258
447.626
447.9889
448.3164
448.6093
448.8677
449.0913
449.2802
449.4356
449.5599
449.6562
449.7283
449.7796
449.8132
449.8315
449.836
449.8278
449.8075
449.7752
449.7308
449.6739
449.6035
449.5185
449.4172
449.2977
449.1577
448.9947
448.8055
448.5843
448.3228
448.0113
447.6391
447.1952
446.6687
446.0489
445.3255
444.4912
443.5452
442.4932
441.3323
439.9927
438.315
435.9869
432.031
421.4207
462.1639
445.1014
441.9277
441.2484
441.3256
441.7168
442.2562
442.8648
443.4994
444.1345
444.7542
445.3476
445.9073
446.4276
446.9051
447.3381
447.7289
448.0819
448.4004
448.6859
448.9387
449.1578
449.3429
449.4946
449.615
449.7073
449.7753
449.8225
449.8522
449.8669
449.8682
449.8573
449.8347
449.8006
449.7548
449.6968
449.6256
449.54
449.4384
449.319
449.1794
449.0172
448.828
448.6058
448.3425
448.0288
447.6539
447.2072
446.678
446.0559
445.3311
444.4962
443.549
442.4946
441.3311
439.9919
438.3178
435.994
432.0461
421.4675
463.3057
445.7822
442.4208
441.6427
441.6536
441.9948
442.4959
443.0751
443.6875
444.3059
444.9126
445.4957
446.0468
446.5598
447.0307
447.4574
447.8395
448.181
448.4879
448.7635
449.0082
449.2209
449.4004
449.5471
449.6628
449.7505
449.8141
449.8573
449.8833
449.8948
449.8933
449.88
449.8555
449.8198
449.7726
449.7135
449.6415
449.5552
449.4532
449.3335
449.1939
449.0313
448.8415
448.6182
448.3535
448.0376
447.6605
447.2115
446.6802
446.0563
445.3298
444.4931
443.5445
442.4891
441.3254
439.9873
438.3159
435.9956
432.053
421.489
464.4104
446.4515
442.9132
442.0413
441.9894
442.2836
442.7482
443.2992
443.8898
444.4912
445.0845
445.6565
446.1979
446.7021
447.1647
447.5833
447.9574
448.2883
448.5819
448.8449
449.0791
449.2834
449.4559
449.5963
449.7061
449.7886
449.8474
449.8864
449.9089
449.9173
449.9133
449.898
449.8717
449.8345
449.7863
449.7261
449.6531
449.5661
449.4634
449.3431
449.203
449.0398
448.8492
448.6248
448.3586
448.0409
447.6617
447.2106
446.6774
446.0518
445.3241
444.4865
443.5372
442.4811
441.317
439.9801
438.3119
435.9953
432.0578
421.5012
465.4729
447.1033
443.4031
442.4431
442.3324
442.5826
443.0128
443.5369
444.1064
444.6911
445.2706
445.8307
446.3613
446.8553
447.3079
447.7166
448.0806
448.4014
448.6823
448.9309
449.1527
449.3468
449.5107
449.6436
449.7468
449.8233
449.877
449.9117
449.9305
449.936
449.9296
449.9123
449.8844
449.846
449.7966
449.7355
449.6617
449.5738
449.4703
449.3493
449.2084
449.0445
448.853
448.6275
448.3599
448.0407
447.6597
447.2067
446.6718
446.0446
445.3156
444.4771
443.5273
442.4714
441.3082
439.9732
438.3078
435.9951
432.0632
421.5129
466.4903
447.7472
443.8921
442.8478
442.6818
442.891
443.2894
443.7882
444.3374
444.9056
445.471
446.0186
446.5373
447.0196
447.4605
447.8573
448.2095
448.5183
448.7868
449.0214
449.2291
449.4114
449.5656
449.6901
449.7859
449.8559
449.9041
449.9341
449.9493
449.9517
449.943
449.9238
449.8945
449.8548
449.8044
449.7424
449.6678
449.5791
449.4748
449.353
449.2113
449.0466
448.8542
448.6278
448.3589
448.0382
447.6556
447.201
446.6643
446.0358
445.3057
444.4666
443.5167
442.4611
441.299
439.9659
438.3036
435.9949
432.0691
421.5285
467.4612
448.3835
444.3797
443.2551
443.037
443.2081
443.5769
444.0521
444.5821
445.1339
445.6851
446.2192
446.7248
447.1939
447.6212
448.0043
448.3428
448.6382
448.8936
449.1141
449.3074
449.4771
449.6206
449.7358
449.8235
449.8867
449.9291
449.9544
449.9658
449.9653
449.9542
449.9332
449.9023
449.8615
449.8101
449.7472
449.6719
449.5825
449.4774
449.3548
449.2123
449.0468
448.8536
448.6263
448.3564
448.0344
447.6503
447.1941
446.656
446.0262
445.2951
444.4554
443.5055
442.4508
441.2902
439.9594
438.3001
435.9956
432.0765
421.5501
468.3827
449.0033
444.8642
443.6641
443.3972
443.533
443.8745
444.3277
444.8393
445.3752
445.9116
446.4314
446.9225
447.3767
447.7887
448.1563
448.4794
448.7597
449.0009
449.2072
449.3863
449.5429
449.675
449.7805
449.8598
449.9158
449.9523
449.973
449.9807
449.9772
449.9638
449.9409
449.9085
449.8664
449.814
449.7504
449.6743
449.5842
449.4785
449.355
449.2117
449.0455
448.8517
448.6236
448.3529
448.0298
447.6444
447.1868
446.6474
446.0164
445.2845
444.4445
443.4948
442.4409
441.282
439.9535
438.2972
435.997
432.0848
421.5754
469.2483
449.6148
445.3467
444.0746
443.7616
443.8648
444.1811
444.6138
445.1079
445.6277
446.1487
446.6531
447.1283
447.5658
447.9608
448.3111
448.6173
448.8814
449.1073
449.2992
449.4643
449.6078
449.7284
449.8237
449.8944
449.9433
449.974
449.99
449.994
449.9877
449.972
449.9473
449.9134
449.8701
449.8167
449.7522
449.6754
449.5847
449.4782
449.354
449.21
449.0432
448.8488
448.6201
448.3486
448.0247
447.6382
447.1794
446.6388
446.0068
445.2742
444.4339
443.4845
442.4316
441.2744
439.9484
438.295
435.999
432.0943
421.6038
470.0538
450.2247
445.8276
444.486
444.1297
444.2025
444.4954
444.9088
445.3857
445.8893
446.3941
446.8817
447.3393
447.7586
448.1348
448.4665
448.7545
449.0014
449.2113
449.3886
449.5401
449.6708
449.7799
449.8651
449.9272
449.9689
449.994
450.0056
450.0061
449.9971
449.9792
449.9527
449.9173
449.8728
449.8184
449.7531
449.6755
449.5841
449.4769
449.3521
449.2072
449.0397
448.8449
448.6158
448.3438
448.0191
447.6317
447.172
446.6304
445.9977
445.2645
444.424
443.475
442.4232
441.268
439.9443
438.2938
436.0021
432.105
421.6343
470.8039
450.829
446.307
444.8984
444.5009
444.5451
444.8161
445.211
445.671
446.1579
446.6455
447.1149
447.5534
447.9528
448.3089
448.6207
448.8895
449.1185
449.312
449.4746
449.6129
449.7313
449.8291
449.9043
449.9578
449.9927
450.0123
450.0197
450.0171
450.0055
449.9856
449.9573
449.9206
449.8749
449.8195
449.7533
449.675
449.5828
449.475
449.3494
449.2038
449.0357
448.8404
448.6109
448.3384
448.0132
447.6251
447.1646
446.6224
445.989
445.2556
444.4152
443.4667
442.4161
441.2628
439.9413
438.2935
436.0062
432.1171
421.6678
471.5064
451.4252
446.7846
445.3114
444.8745
444.8917
445.142
445.519
445.9619
446.4314
446.9004
447.3501
447.7679
448.1459
448.4806
448.7715
449.0206
449.2314
449.4085
449.5566
449.6819
449.7885
449.8753
449.9408
449.9861
450.0144
450.029
450.0326
450.027
450.0131
449.9912
449.9614
449.9234
449.8766
449.8202
449.7532
449.674
449.5812
449.4726
449.3463
449.2
449.0311
448.8354
448.6055
448.3327
448.007
447.6185
447.1574
446.6146
445.9809
445.2472
444.407
443.4593
442.4102
441.2587
439.9393
438.2941
436.0111
432.1303
421.7055
472.1646
452.0087
447.2621
445.725
445.25
445.2414
445.4716
445.8308
446.2561
446.707
447.1561
447.5845
447.9799
448.3353
448.6477
448.9172
449.1463
449.339
449.4999
449.6337
449.7467
449.842
449.9182
449.9744
450.012
450.0343
450.0443
450.0443
450.036
450.0199
449.9962
449.965
449.9258
449.878
449.8208
449.7529
449.673
449.5794
449.4701
449.3431
449.196
449.0265
448.8302
448.6001
448.3269
448.0009
447.6119
447.1504
446.6072
445.9732
445.2397
444.4003
443.4536
442.4055
441.2555
439.938
438.2954
436.0166
432.1446
421.7488
472.7864
452.5784
447.7409
446.1399
445.6273
445.5933
445.8036
446.1447
446.5515
446.9825
447.4101
447.8155
448.1873
448.519
448.8084
449.0563
449.2656
449.4404
449.5856
449.7059
449.8071
449.8916
449.9578
450.0051
450.0356
450.0524
450.0582
450.0551
450.0442
450.0261
450.0009
449.9683
449.928
449.8793
449.8212
449.7525
449.6719
449.5776
449.4676
449.3399
449.1922
449.022
448.8253
448.5948
448.3214
447.995
447.6056
447.1436
446.6
445.9661
445.2332
444.3945
443.4485
442.4015
441.2529
439.9373
438.2972
436.0226
432.1595
421.7981
473.3796
453.1375
448.217
446.5563
446.006
445.9466
446.1366
446.4587
446.8458
447.2555
447.6599
448.041
448.388
448.6954
448.9616
449.188
449.3778
449.5354
449.6655
449.7731
449.8634
449.9376
449.9941
450.0333
450.0572
450.0689
450.0709
450.065
450.0519
450.0319
450.0051
449.9713
449.93
449.8804
449.8215
449.7521
449.6708
449.5759
449.4653
449.337
449.1886
449.0179
448.8207
448.59
448.3162
447.9894
447.5994
447.1371
446.5935
445.96
445.2277
444.3896
443.4444
442.3985
441.2514
439.9376
438.2998
436.0292
432.1749
421.8521
473.95
453.6873
448.6846
446.9708
446.3854
446.3006
446.4698
446.7719
447.1378
447.5244
447.9041
448.2596
448.581
448.8636
449.1067
449.312
449.483
449.624
449.7399
449.8357
449.9157
449.98
450.0274
450.059
450.077
450.0842
450.0828
450.0742
450.059
450.0373
450.0091
449.9742
449.9318
449.8814
449.8218
449.7517
449.6698
449.5743
449.4632
449.3344
449.1855
449.0143
448.8168
448.5858
448.3117
447.9844
447.594
447.1314
446.588
445.9549
445.2231
444.3856
443.4413
442.3963
441.2506
439.9384
438.3027
436.0358
432.19
421.9074
474.4952
454.2253
449.145
447.382
446.7646
446.6549
446.8024
447.0828
447.4256
447.7874
448.1409
448.4697
448.7649
449.0228
449.243
449.4278
449.5808
449.7064
449.8091
449.894
449.9642
450.019
450.058
450.0825
450.0951
450.0983
450.0939
450.0829
450.0657
450.0424
450.0129
449.9769
449.9337
449.8824
449.8221
449.7515
449.669
449.573
449.4614
449.3322
449.1829
449.0113
448.8135
448.5822
448.3078
447.9801
447.5894
447.1267
446.5834
445.9506
445.2194
444.3827
443.4392
442.3951
441.2506
439.9399
438.3061
436.0423
432.2037
421.9598
475.0262
454.7559
449.5989
447.7893
447.1417
447.0074
447.1322
447.3894
447.7073
448.0425
448.3686
448.6701
448.9389
449.1722
449.3703
449.5355
449.6716
449.7828
449.8734
449.9482
450.0091
450.055
450.0861
450.1043
450.112
450.1115
450.1043
450.0911
450.072
450.0473
450.0166
449.9795
449.9354
449.8834
449.8225
449.7513
449.6683
449.5718
449.4599
449.3303
449.1807
449.0088
448.8108
448.5793
448.3047
447.9768
447.5858
447.1231
446.58
445.9477
445.2171
444.3811
443.4382
442.395
441.2516
439.9422
438.3099
436.0486
432.2155
422.0048
475.5421
455.2766
450.045
448.1912
447.515
447.3564
447.4576
447.6899
447.9811
448.2883
448.5861
448.8599
449.1026
449.312
449.4887
449.6355
449.7557
449.8535
449.9333
449.9989
450.0508
450.0882
450.112
450.1244
450.1277
450.124
450.1142
450.0989
450.0781
450.0519
450.0201
449.982
449.9371
449.8844
449.8229
449.7512
449.6677
449.5709
449.4586
449.3288
449.179
449.0069
448.8088
448.5773
448.3024
447.9742
447.5831
447.1204
446.5776
445.9459
445.216
444.3806
443.4383
442.3957
441.2532
439.945
438.3142
436.055
432.2261
422.04
476.04
455.7841
450.4821
448.5869
447.8831
447.6998
447.7761
447.982
448.2452
448.5235
448.7925
449.0388
449.256
449.4424
449.5989
449.7283
449.8339
449.9194
449.9894
450.0462
450.0894
450.1188
450.136
450.1432
450.1426
450.1358
450.1236
450.1063
450.084
450.0564
450.0235
449.9845
449.9388
449.8854
449.8233
449.7511
449.6673
449.5701
449.4576
449.3276
449.1776
449.0056
448.8074
448.5758
448.3008
447.9725
447.5813
447.1187
446.5764
445.9453
445.2161
444.3814
443.4397
442.3977
441.2559
439.9487
438.3192
436.0619
432.2358
422.0648
476.5143
456.2761
450.9095
448.9753
448.2445
448.0359
448.0862
448.2644
448.4986
448.7474
448.9877
449.207
449.3996
449.564
449.7015
449.8146
449.9066
449.9811
450.0419
450.0902
450.1251
450.1471
450.1583
450.1608
450.1566
450.1471
450.1326
450.1134
450.0895
450.0608
450.0267
449.9869
449.9405
449.8865
449.8239
449.7513
449.6671
449.5696
449.4569
449.3267
449.1768
449.0047
448.8067
448.5751
448.3
447.9715
447.5804
447.1181
446.5763
445.9459
445.2176
444.3836
443.4424
442.4009
441.2597
439.9534
438.3251
436.0694
432.2454
422.0813
476.966
456.7523
451.3265
449.3555
448.598
448.3635
448.3866
448.536
448.7404
448.9597
449.1717
449.3648
449.5337
449.6775
449.7971
449.8952
449.9745
450.0391
450.0913
450.1312
450.1582
450.1734
450.1791
450.1774
450.17
450.1579
450.1412
450.1203
450.0949
450.0649
450.0299
449.9892
449.9421
449.8876
449.8245
449.7515
449.667
449.5694
449.4565
449.3263
449.1764
449.0044
448.8065
448.5749
448.2998
447.9712
447.5802
447.1183
446.5772
445.9477
445.2202
444.3869
443.4463
442.4051
441.2645
439.959
438.3319
436.0776
432.2553
422.0928
477.3955
457.2124
451.7334
449.7261
448.9421
448.6812
448.6762
448.796
448.9704
449.1604
449.3448
449.5127
449.6593
449.7835
449.8865
449.9706
450.0385
450.0938
450.1376
450.1692
450.1888
450.1979
450.1987
450.1932
450.1828
450.1682
450.1495
450.1268
450.1
450.0689
450.033
449.9915
449.9437
449.8886
449.8251
449.7518
449.6671
449.5693
449.4564
449.3262
449.1763
449.0046
448.8068
448.5753
448.3002
447.9718
447.5809
447.1195
446.5792
445.9507
445.2241
444.3916
443.4515
442.4106
441.2704
439.9657
438.3396
436.0867
432.2659
422.1028
477.8072
457.6583
452.1312
450.0856
449.2752
448.9879
448.9543
449.0442
449.1886
449.3499
449.5076
449.6515
449.7769
449.8829
449.9705
450.0415
450.099
450.1455
450.1809
450.2046
450.2172
450.2207
450.2171
450.2082
450.195
450.178
450.1574
450.1331
450.105
450.0727
450.0359
449.9937
449.9453
449.8897
449.8258
449.7522
449.6673
449.5694
449.4565
449.3264
449.1768
449.0053
448.8078
448.5764
448.3014
447.973
447.5824
447.1216
446.5821
445.9546
445.2291
444.3973
443.4576
442.417
441.2771
439.973
438.3479
436.0965
432.2774
422.1137
478.2055
458.0912
452.5195
450.4341
449.5967
449.2829
449.2203
449.2803
449.3953
449.5287
449.6609
449.782
449.8875
449.9764
450.0496
450.1086
450.1565
450.1944
450.2213
450.2374
450.2437
450.2421
450.2345
450.2224
450.2067
450.1875
450.1649
450.139
450.1096
450.0764
450.0386
449.9957
449.9468
449.8908
449.8266
449.7527
449.6677
449.5698
449.4569
449.327
449.1776
449.0065
448.8093
448.5781
448.3031
447.9749
447.5847
447.1246
446.586
445.9596
445.2351
444.4042
443.4649
442.4245
441.2848
439.9812
438.3571
436.1071
432.2899
422.1269
478.5918
458.5119
452.8977
450.7711
449.9065
449.566
449.4745
449.5049
449.5911
449.6977
449.8056
449.9051
449.9919
450.0649
450.1244
450.1726
450.2113
450.2403
450.259
450.2679
450.2683
450.2621
450.2509
450.236
450.2178
450.1965
450.1721
450.1447
450.1141
450.0798
450.0412
449.9977
449.9482
449.8918
449.8273
449.7533
449.6683
449.5704
449.4577
449.3279
449.1789
449.0082
448.8114
448.5803
448.3055
447.9775
447.5878
447.1285
446.591
445.9658
445.2423
444.4121
443.4732
442.4328
441.2932
439.9901
438.367
436.1184
432.3031
422.1421
478.9703
458.9217
453.2657
451.0968
450.2044
449.8372
449.7169
449.7183
449.7768
449.8576
449.9424
450.0216
450.0909
450.1488
450.1959
450.2338
450.2632
450.2833
450.2941
450.2962
450.2912
450.2809
450.2665
450.2489
450.2284
450.205
450.1789
450.1501
450.1183
450.083
450.0437
449.9995
449.9496
449.8929
449.8281
449.754
449.669
449.5712
449.4586
449.3292
449.1805
449.0103
448.8139
448.5831
448.3084
447.9807
447.5916
447.1331
446.5968
445.9727
445.2503
444.4208
443.4822
442.4418
441.3022
439.9995
438.3773
436.13
432.3166
422.1585
479.3421
459.321
453.6235
451.4112
450.4907
450.0969
449.9482
449.9214
449.953
450.0093
450.0722
450.1323
450.185
450.2289
450.2643
450.2922
450.3122
450.3236
450.3267
450.3226
450.3127
450.2985
450.2811
450.2611
450.2384
450.2131
450.1854
450.1552
450.1223
450.086
450.046
450.0012
449.9509
449.8939
449.829
449.7548
449.6698
449.5721
449.4598
449.3307
449.1825
449.0128
448.8168
448.5864
448.312
447.9847
447.5963
447.1388
446.6036
445.9808
445.2595
444.4306
443.4922
442.4517
441.3119
440.0094
438.388
436.1419
432.3305
422.1754
479.7104
459.7113
453.9713
451.7147
450.7657
450.3455
450.1689
450.1148
450.1207
450.1537
450.1959
450.2379
450.275
450.3056
450.33
450.3478
450.3583
450.3613
450.3572
450.3472
450.3327
450.315
450.2949
450.2725
450.2477
450.2207
450.1915
450.16
450.126
450.0889
450.0481
450.0028
449.9521
449.8949
449.8299
449.7557
449.6708
449.5733
449.4613
449.3326
449.1849
449.0157
448.8203
448.5902
448.3161
447.9893
447.6016
447.1451
446.6112
445.9896
445.2693
444.4411
443.5028
442.462
441.3219
440.0195
438.3988
436.154
432.3446
422.1922
480.0774
460.093
454.3096
452.008
451.0301
450.5835
450.3797
450.2992
450.2807
450.2915
450.3141
450.3389
450.3613
450.3794
450.3928
450.4004
450.4016
450.3964
450.3855
450.3701
450.3514
450.3305
450.3077
450.2831
450.2564
450.2278
450.1972
450.1645
450.1295
450.0915
450.0501
450.0044
449.9533
449.8959
449.8308
449.7567
449.672
449.5747
449.4631
449.3348
449.1876
449.0191
448.8242
448.5944
448.3207
447.9945
447.6076
447.1522
446.6195
445.9992
445.2799
444.4523
443.514
442.4728
441.3323
440.03
438.4101
436.1665
432.3591
422.2088
480.4439
460.4672
454.6398
452.2933
451.2832
450.8104
450.581
450.4754
450.4336
450.4235
450.4275
450.436
450.4443
450.4503
450.4525
450.45
450.4422
450.4292
450.412
450.3915
450.3689
450.3449
450.3197
450.293
450.2645
450.2343
450.2024
450.1686
450.1327
450.094
450.052
450.0058
449.9545
449.897
449.8319
449.7579
449.6733
449.5764
449.4651
449.3373
449.1907
449.0228
448.8285
448.5991
448.3258
448.0002
447.6142
447.16
446.6286
446.0096
445.2912
444.464
443.5257
442.484
441.3431
440.0408
438.4216
436.1793
432.3738
422.2253
480.8112
460.8342
454.9624
452.571
451.5261
451.0274
450.7736
450.6442
450.5803
450.5502
450.5365
450.5295
450.5242
450.5179
450.5091
450.4966
450.4801
450.4598
450.4366
450.4115
450.3853
450.3584
450.3308
450.3021
450.2719
450.2403
450.2072
450.1725
450.1357
450.0963
450.0538
450.0073
449.9557
449.8981
449.833
449.7591
449.6748
449.5782
449.4674
449.3401
449.194
449.0268
448.8331
448.6041
448.3313
448.0064
447.6214
447.1683
446.6383
446.0204
445.3029
444.4762
443.5377
442.4954
441.354
440.0518
438.4333
436.1923
432.3887
422.242
481.1765
461.194
455.2781
452.8413
451.7602
451.2356
450.9584
450.8064
450.7214
450.6723
450.6416
450.6195
450.6007
450.5823
450.5625
450.5404
450.5155
450.4884
450.4596
450.4301
450.4005
450.3709
450.3411
450.3104
450.2786
450.2457
450.2116
450.176
450.1384
450.0985
450.0555
450.0086
449.9569
449.8992
449.8342
449.7605
449.6765
449.5802
449.4698
449.3431
449.1977
449.0311
448.8379
448.6095
448.3373
448.0131
447.6291
447.1774
446.6486
446.032
445.3154
444.4889
443.5502
442.5073
441.3652
440.063
438.4452
436.2055
432.4038
422.2592
481.5384
461.5467
455.587
453.1044
451.9863
451.436
451.1364
450.9626
450.8576
450.7903
450.743
450.7059
450.6736
450.6432
450.6128
450.5813
450.5486
450.5149
450.481
450.4474
450.4146
450.3825
450.3505
450.318
450.2847
450.2506
450.2155
450.1791
450.141
450.1005
450.0571
450.01
449.9581
449.9004
449.8355
449.7621
449.6783
449.5825
449.4726
449.3464
449.2017
449.0358
448.8432
448.6153
448.3437
448.0203
447.6374
447.1869
446.6595
446.0439
445.3281
444.5019
443.5628
442.5192
441.3764
440.0741
438.4571
436.2186
432.4191
422.2772
481.8929
461.8915
455.8891
453.3612
452.2059
451.6297
451.3081
451.1136
450.9894
450.9043
450.8406
450.7885
450.743
450.7008
450.66
450.6196
450.5794
450.5397
450.5009
450.4635
450.4277
450.3932
450.3591
450.3249
450.2902
450.255
450.2191
450.182
450.1433
450.1024
450.0587
450.0114
449.9594
449.9017
449.837
449.7637
449.6803
449.5849
449.4755
449.3499
449.2058
449.0407
448.8487
448.6214
448.3505
448.028
447.6462
447.1969
446.6707
446.0563
445.3411
444.5151
443.5757
442.5313
441.3879
440.0855
438.4693
436.2322
432.435
422.2958
482.2375
462.2286
456.1851
453.6128
452.4208
451.817
451.4738
451.2598
451.1169
451.0141
450.9339
450.8672
450.8087
450.755
450.7042
450.6554
450.6081
450.5626
450.5193
450.4784
450.4397
450.4029
450.3669
450.331
450.2951
450.2589
450.2222
450.1845
450.1454
450.1042
450.0603
450.0128
449.9608
449.9031
449.8385
449.7655
449.6825
449.5875
449.4786
449.3536
449.2103
449.0458
448.8545
448.6278
448.3576
448.036
447.6554
447.2074
446.6825
446.0691
445.3546
444.5287
443.5888
442.5437
441.3994
440.097
438.4816
436.2459
432.4509
422.3146
482.5717
462.5575
456.475
453.8598
452.6312
451.9993
451.6347
451.4017
451.2402
451.1195
451.0232
450.9421
450.8709
450.8061
450.7457
450.6888
450.6348
450.584
450.5364
450.4921
450.4509
450.4119
450.374
450.3366
450.2994
450.2623
450.2249
450.1868
450.1473
450.1059
450.0618
450.0142
449.9622
449.9047
449.8403
449.7675
449.6848
449.5903
449.4819
449.3576
449.2149
449.0512
448.8605
448.6345
448.365
448.0444
447.6649
447.2182
446.6946
446.0821
445.3682
444.5424
443.602
442.556
441.4111
440.1086
438.494
436.2597
432.4666
422.3334
482.8933
462.8781
456.7592
454.1027
452.8381
452.1779
451.7915
451.5391
451.3588
451.2205
451.1084
451.0132
450.9296
450.8541
450.7846
450.7199
450.6597
450.6038
450.5522
450.5049
450.4611
450.42
450.3804
450.3415
450.3032
450.2653
450.2273
450.1887
450.149
450.1074
450.0633
450.0157
449.9638
449.9063
449.8421
449.7697
449.6873
449.5933
449.4854
449.3617
449.2198
449.0567
448.8667
448.6414
448.3729
448.0533
447.675
447.2296
446.7071
446.0956
445.3823
444.5564
443.6156
442.5687
441.4229
440.1203
438.5065
436.2735
432.4824
422.3523
483.2039
463.1907
457.0379
454.3418
453.0419
452.3538
451.9445
451.6719
451.4729
451.3174
451.1897
451.0808
450.9852
450.8993
450.821
450.749
450.6828
450.6221
450.5669
450.5166
450.4705
450.4274
450.3861
450.3458
450.3066
450.2679
450.2293
450.1904
450.1505
450.1088
450.0647
450.0172
449.9654
449.9082
449.8442
449.772
449.6901
449.5964
449.4892
449.3661
449.2249
449.0625
448.8732
448.6487
448.3811
448.0626
447.6855
447.2413
446.72
446.1094
445.3964
444.5706
443.6291
442.5812
441.4346
440.1319
438.5189
436.2873
432.4982
422.3715
483.5023
463.4945
457.3113
454.5778
453.2433
452.5268
452.094
451.8007
451.5829
451.4103
451.2673
451.1449
451.0376
450.9418
450.8551
450.7762
450.7043
450.6392
450.5804
450.5274
450.4791
450.4341
450.3912
450.3497
450.3094
450.2701
450.2311
450.1919
450.1518
450.1102
450.0661
450.0188
449.9671
449.9101
449.8464
449.7745