/*--------------------------------*- C++ -*----------------------------------*\
| =========                 |                                                 |
| \\      /  F ield         | OpenFOAM: The Open Source CFD Toolbox           |
|  \\    /   O peration     | Version:  2312                                  |
|   \\  /    A nd           | Website:  www.openfoam.com                      |
|    \\/     M anipulation  |                                                 |
\*---------------------------------------------------------------------------*/
FoamFile
{
    version     2.0;
    format      ascii;
    arch        "LSB;label=32;scalar=64";
    class       volVectorField;
    location    "3150";
    object      U;
}
// * * * * * * * * * * * * * * * * * * * * * * * * * * * * * * * * * * * * * //

dimensions      [0 1 -1 0 0 0 0];

internalField   nonuniform List<vector> 
12000
(
(-0.03131557 0.07689842 0)
(-0.07527947 0.07672583 0)
(-0.1250727 0.08240322 0)
(-0.1786593 0.08322815 0)
(-0.2293189 0.07690143 0)
(-0.2770528 0.07712998 0)
(-0.3244396 0.08426659 0)
(-0.3715262 0.08716655 0)
(-0.4148436 0.06888577 0)
(-0.4510631 0.05604661 0)
(-0.4852956 0.05445341 0)
(-0.5180725 0.06544145 0)
(-0.5530987 0.06065396 0)
(-0.5818433 0.04105677 0)
(-0.6054133 0.02801582 0)
(-0.626124 0.03802175 0)
(-0.6504022 0.0490832 0)
(-0.6733239 0.04012768 0)
(-0.6916955 0.01981143 0)
(-0.7045546 0.01429835 0)
(-0.7182827 0.02562638 0)
(-0.7335638 0.03321969 0)
(-0.7484312 0.02505589 0)
(-0.759111 0.01235485 0)
(-0.7673736 0.008933048 0)
(-0.7750912 0.0147837 0)
(-0.7839701 0.01855701 0)
(-0.7917515 0.01185668 0)
(-0.7966734 0.002142409 0)
(-0.7993807 0.003121532 0)
(-0.8030874 0.009768631 0)
(-0.8075998 0.006269168 0)
(-0.8086542 -0.0005101208 0)
(-0.8086123 -0.008565881 0)
(-0.8057806 -0.0123421 0)
(-0.803336 -0.0004059188 0)
(-0.8029235 0.008321479 0)
(-0.8025453 -0.003496545 0)
(-0.7959204 -0.03253938 0)
(-0.7818428 -0.04635022 0)
(-0.768618 -0.004867052 0)
(-0.7677501 0.03585315 0)
(-0.7664325 0.004509042 0)
(-0.7514286 -0.08527506 0)
(-0.7171385 -0.07882636 0)
(-0.7014376 0.01942912 0)
(-0.6987904 0.03468745 0)
(-0.6817117 -0.0736485 0)
(-0.640408 -0.1106495 0)
(-0.6073266 -0.02844226 0)
(-0.5886382 -0.008088481 0)
(-0.556901 -0.07925567 0)
(-0.5073292 -0.1045357 0)
(-0.4646648 -0.07770384 0)
(-0.4134754 -0.08327726 0)
(-0.3671723 -0.1041544 0)
(-0.292355 -0.1192655 0)
(-0.2239477 -0.1230159 0)
(-0.1221648 -0.1333962 0)
(-0.05575158 -0.1295235 0)
(-0.03010025 0.214614 0)
(-0.07159997 0.2052432 0)
(-0.1239955 0.2117163 0)
(-0.1664102 0.2143481 0)
(-0.2129237 0.2060156 0)
(-0.2544279 0.1946238 0)
(-0.2938976 0.185597 0)
(-0.3229133 0.17626 0)
(-0.3581952 0.1566858 0)
(-0.3872792 0.1490387 0)
(-0.4190375 0.1372529 0)
(-0.4438544 0.1306423 0)
(-0.4655437 0.1217584 0)
(-0.4859973 0.1099409 0)
(-0.5084434 0.09908108 0)
(-0.5287716 0.09194757 0)
(-0.5439843 0.08633122 0)
(-0.5561567 0.07877147 0)
(-0.5697836 0.06983309 0)
(-0.5849001 0.06260793 0)
(-0.5976886 0.05794678 0)
(-0.6062914 0.05382917 0)
(-0.6132498 0.04849364 0)
(-0.621227 0.04245705 0)
(-0.6298114 0.0373548 0)
(-0.6368052 0.03346353 0)
(-0.6412369 0.02974053 0)
(-0.644481 0.02513509 0)
(-0.6484548 0.02019573 0)
(-0.6524988 0.01630417 0)
(-0.6542816 0.01389266 0)
(-0.6546068 0.01047736 0)
(-0.6549663 0.004681677 0)
(-0.6552452 0.0001402998 0)
(-0.6557264 -0.003207123 0)
(-0.6547088 -0.00663231 0)
(-0.6492712 -0.01136574 0)
(-0.6415229 -0.01783487 0)
(-0.6373912 -0.02483045 0)
(-0.6368472 -0.03100272 0)
(-0.6332169 -0.03516536 0)
(-0.6182054 -0.0401684 0)
(-0.5962343 -0.04922988 0)
(-0.5887853 -0.05712993 0)
(-0.5883704 -0.06616085 0)
(-0.5768563 -0.0738376 0)
(-0.5431997 -0.08055528 0)
(-0.5169306 -0.09335358 0)
(-0.5100613 -0.1062671 0)
(-0.4933846 -0.1183427 0)
(-0.4560738 -0.1331927 0)
(-0.422837 -0.1508437 0)
(-0.3963855 -0.168502 0)
(-0.37231 -0.1809963 0)
(-0.3252295 -0.2022392 0)
(-0.2932088 -0.2316306 0)
(-0.2289206 -0.3100541 0)
(-0.1901501 -0.3364029 0)
(-0.1042464 -0.3850885 0)
(-0.0563158 -0.3959876 0)
(-0.02981816 0.3623963 0)
(-0.05851876 0.3509182 0)
(-0.1049985 0.3452486 0)
(-0.1410799 0.3345287 0)
(-0.1696892 0.3233442 0)
(-0.2048847 0.3022934 0)
(-0.2334994 0.2810027 0)
(-0.2622352 0.2599653 0)
(-0.2871586 0.2472322 0)
(-0.3136052 0.2268104 0)
(-0.3359483 0.2094585 0)
(-0.3561074 0.1936477 0)
(-0.3744049 0.1776789 0)
(-0.3911792 0.1623153 0)
(-0.4069489 0.148573 0)
(-0.4217395 0.1363628 0)
(-0.4349551 0.1249786 0)
(-0.446957 0.1137759 0)
(-0.4583792 0.1031422 0)
(-0.4692595 0.09365141 0)
(-0.4791054 0.08521067 0)
(-0.4876673 0.07708832 0)
(-0.4952359 0.0689736 0)
(-0.5021855 0.06111585 0)
(-0.5085308 0.05388787 0)
(-0.5140322 0.0472104 0)
(-0.5185722 0.0406388 0)
(-0.5223134 0.03384211 0)
(-0.5254515 0.0270027 0)
(-0.5278118 0.02060537 0)
(-0.5293946 0.01469777 0)
(-0.5299527 0.01052645 0)
(-0.5299703 0.002159095 0)
(-0.5291727 -0.005085995 0)
(-0.5275363 -0.01201744 0)
(-0.5247055 -0.01868956 0)
(-0.5208099 -0.02582954 0)
(-0.5160897 -0.03404675 0)
(-0.5107878 -0.04322908 0)
(-0.5048134 -0.05248676 0)
(-0.4974129 -0.06101382 0)
(-0.4881983 -0.07017885 0)
(-0.4777497 -0.08157951 0)
(-0.4666358 -0.09542686 0)
(-0.4545287 -0.1089471 0)
(-0.4406157 -0.1213446 0)
(-0.4237863 -0.1361778 0)
(-0.4063476 -0.1533904 0)
(-0.3877692 -0.1720622 0)
(-0.3665999 -0.1908624 0)
(-0.3427473 -0.2113543 0)
(-0.3178388 -0.2315492 0)
(-0.2912763 -0.2482001 0)
(-0.2650308 -0.2718643 0)
(-0.2209914 -0.3243399 0)
(-0.1848323 -0.3644823 0)
(-0.1485881 -0.4049089 0)
(-0.1132811 -0.4597414 0)
(-0.06987278 -0.5239956 0)
(-0.02648846 -0.5564047 0)
(-0.02042139 0.4666685 0)
(-0.04397433 0.4452068 0)
(-0.07536386 0.4330612 0)
(-0.1001908 0.4155045 0)
(-0.1251787 0.3954694 0)
(-0.147856 0.3735281 0)
(-0.1696445 0.3510452 0)
(-0.1917554 0.3311808 0)
(-0.2095567 0.3150181 0)
(-0.2286602 0.2907787 0)
(-0.2470804 0.2649977 0)
(-0.2646634 0.2448042 0)
(-0.2808532 0.226138 0)
(-0.2971437 0.2058577 0)
(-0.3109964 0.1891075 0)
(-0.3243581 0.1739929 0)
(-0.3363047 0.1599575 0)
(-0.3471683 0.1467818 0)
(-0.3574589 0.1341563 0)
(-0.3672736 0.12203 0)
(-0.376246 0.1106027 0)
(-0.3840835 0.09986315 0)
(-0.3908478 0.08972028 0)
(-0.396864 0.07997925 0)
(-0.4021369 0.07062769 0)
(-0.4066365 0.06162207 0)
(-0.4103518 0.05286581 0)
(-0.4133418 0.04420488 0)
(-0.4155876 0.03543412 0)
(-0.4175729 0.02635389 0)
(-0.4187461 0.01984045 0)
(-0.4190178 0.0116073 0)
(-0.4182595 0.001861232 0)
(-0.4171801 -0.007531988 0)
(-0.415369 -0.0168757 0)
(-0.4127456 -0.02643181 0)
(-0.4092839 -0.03649313 0)
(-0.404947 -0.047078 0)
(-0.3998668 -0.0582779 0)
(-0.3940451 -0.07008313 0)
(-0.3872802 -0.08255372 0)
(-0.3791901 -0.09586489 0)
(-0.3704004 -0.1099392 0)
(-0.3608388 -0.1254401 0)
(-0.3501348 -0.1422988 0)
(-0.3385638 -0.1603822 0)
(-0.323947 -0.1798457 0)
(-0.311195 -0.1960445 0)
(-0.2941455 -0.2220351 0)
(-0.2768649 -0.2474642 0)
(-0.2588924 -0.2701188 0)
(-0.2410575 -0.2952058 0)
(-0.2143127 -0.3345241 0)
(-0.186937 -0.3753491 0)
(-0.1599735 -0.4137056 0)
(-0.1343049 -0.4538392 0)
(-0.1057667 -0.5032811 0)
(-0.07746045 -0.5597772 0)
(-0.04589303 -0.627945 0)
(-0.01929625 -0.6666867 0)
(-0.01472451 0.5450034 0)
(-0.03477448 0.5190756 0)
(-0.05837617 0.5018259 0)
(-0.07839936 0.4805812 0)
(-0.09861585 0.4565209 0)
(-0.1171986 0.4308783 0)
(-0.1351778 0.4041731 0)
(-0.1516001 0.3770162 0)
(-0.1673042 0.3502901 0)
(-0.1796539 0.3281994 0)
(-0.1936384 0.3073382 0)
(-0.2051798 0.288541 0)
(-0.2192475 0.2659329 0)
(-0.2307608 0.2446832 0)
(-0.2418932 0.2248677 0)
(-0.2520833 0.2062245 0)
(-0.2614037 0.1886061 0)
(-0.2702848 0.1725078 0)
(-0.2777188 0.1599678 0)
(-0.2854 0.1463426 0)
(-0.2919125 0.1329019 0)
(-0.2981013 0.1184238 0)
(-0.3033589 0.105519 0)
(-0.3080722 0.09348978 0)
(-0.3121133 0.08199889 0)
(-0.3155261 0.07089562 0)
(-0.3183123 0.06007828 0)
(-0.3204716 0.04945815 0)
(-0.3221345 0.03893051 0)
(-0.323178 0.03055754 0)
(-0.3238041 0.0193662 0)
(-0.3233492 0.008742594 0)
(-0.3224039 -0.002034902 0)
(-0.3211277 -0.0129991 0)
(-0.3191329 -0.02419401 0)
(-0.3167659 -0.03566834 0)
(-0.3138939 -0.04773292 0)
(-0.3102307 -0.0604161 0)
(-0.3059293 -0.07376682 0)
(-0.3009594 -0.08787754 0)
(-0.2954622 -0.1028619 0)
(-0.2886668 -0.1188771 0)
(-0.2822508 -0.1327885 0)
(-0.2738228 -0.1524091 0)
(-0.2652712 -0.1723994 0)
(-0.2556268 -0.193345 0)
(-0.2452154 -0.2154243 0)
(-0.2335343 -0.2395776 0)
(-0.2190966 -0.2651162 0)
(-0.2078022 -0.2886254 0)
(-0.1919298 -0.3193019 0)
(-0.1728973 -0.3575241 0)
(-0.1546458 -0.3952316 0)
(-0.1360874 -0.4331586 0)
(-0.117009 -0.4744853 0)
(-0.09660683 -0.5199115 0)
(-0.07547856 -0.570069 0)
(-0.05427432 -0.627464 0)
(-0.0328139 -0.6948866 0)
(-0.01164441 -0.7406065 0)
(-0.0101993 0.6072614 0)
(-0.02529152 0.577266 0)
(-0.04179833 0.5555096 0)
(-0.05612582 0.531264 0)
(-0.0703768 0.5046537 0)
(-0.08359541 0.4768746 0)
(-0.09631796 0.4486081 0)
(-0.1084589 0.4204173 0)
(-0.1204498 0.392785 0)
(-0.1316451 0.366431 0)
(-0.1425566 0.341892 0)
(-0.1518745 0.3196968 0)
(-0.1602288 0.2975113 0)
(-0.1704015 0.2732047 0)
(-0.1791345 0.2510844 0)
(-0.1876387 0.23095 0)
(-0.1954521 0.2120962 0)
(-0.2027924 0.1944152 0)
(-0.2092938 0.177942 0)
(-0.2148917 0.1623136 0)
(-0.2198054 0.1472255 0)
(-0.2243486 0.1325293 0)
(-0.2285593 0.1183934 0)
(-0.2322546 0.1048444 0)
(-0.2354326 0.09179055 0)
(-0.2380979 0.07915001 0)
(-0.2402608 0.06684447 0)
(-0.2419286 0.0548031 0)
(-0.2431955 0.04295089 0)
(-0.2437405 0.03125859 0)
(-0.2436869 0.0194604 0)
(-0.243256 0.007547727 0)
(-0.2425418 -0.004546571 0)
(-0.2415668 -0.01702893 0)
(-0.2398934 -0.02989912 0)
(-0.2380212 -0.04115574 0)
(-0.2354175 -0.0554417 0)
(-0.2324765 -0.06989941 0)
(-0.2290251 -0.08484087 0)
(-0.2251035 -0.1004767 0)
(-0.2206909 -0.1169636 0)
(-0.2158613 -0.1343733 0)
(-0.2101129 -0.1530807 0)
(-0.2035839 -0.1733519 0)
(-0.1967692 -0.194969 0)
(-0.1892523 -0.2181633 0)
(-0.181306 -0.2431631 0)
(-0.1712622 -0.2696697 0)
(-0.1635801 -0.2962759 0)
(-0.1507874 -0.3295053 0)
(-0.1384667 -0.3650739 0)
(-0.1253354 -0.4018225 0)
(-0.1122294 -0.4404271 0)
(-0.09834618 -0.4815314 0)
(-0.08368758 -0.5252619 0)
(-0.0685457 -0.5722021 0)
(-0.05305269 -0.6235996 0)
(-0.03776754 -0.681312 0)
(-0.02224821 -0.7480393 0)
(-0.008280889 -0.7926527 0)
(-0.007230129 0.6492988 0)
(-0.0186816 0.616089 0)
(-0.03044948 0.5908077 0)
(-0.04077103 0.5644392 0)
(-0.05092013 0.5360586 0)
(-0.0604375 0.5065827 0)
(-0.0696315 0.4768027 0)
(-0.07849905 0.4473206 0)
(-0.08716511 0.4186199 0)
(-0.09560925 0.3911349 0)
(-0.1032681 0.3648417 0)
(-0.1110968 0.339683 0)
(-0.1178164 0.3175225 0)
(-0.1225946 0.2969958 0)
(-0.1303749 0.2740802 0)
(-0.1364563 0.2518431 0)
(-0.1425873 0.2310957 0)
(-0.1481019 0.2117474 0)
(-0.1531157 0.1935087 0)
(-0.1575847 0.1761226 0)
(-0.1615583 0.1594338 0)
(-0.1651033 0.1433445 0)
(-0.168256 0.1278807 0)
(-0.1710098 0.1129896 0)
(-0.173366 0.09860346 0)
(-0.1753272 0.0846468 0)
(-0.1768976 0.07104194 0)
(-0.1780795 0.05771003 0)
(-0.1788831 0.04456931 0)
(-0.1792864 0.0315633 0)
(-0.1793223 0.01848404 0)
(-0.1789387 0.005328571 0)
(-0.1784113 -0.00643744 0)
(-0.177602 -0.02029469 0)
(-0.1764852 -0.03421394 0)
(-0.1748124 -0.04840822 0)
(-0.1726533 -0.06319153 0)
(-0.1703268 -0.07855059 0)
(-0.1676535 -0.09460205 0)
(-0.1646292 -0.1114671 0)
(-0.1612265 -0.1292816 0)
(-0.1574214 -0.1481854 0)
(-0.153176 -0.1682926 0)
(-0.1485121 -0.1899183 0)
(-0.1434104 -0.2130891 0)
(-0.1380632 -0.2380268 0)
(-0.1312776 -0.2645472 0)
(-0.1261691 -0.2916959 0)
(-0.1175517 -0.3237467 0)
(-0.1095773 -0.357884 0)
(-0.1009155 -0.393848 0)
(-0.09184426 -0.4321107 0)
(-0.08214237 -0.4725188 0)
(-0.07186017 -0.5150937 0)
(-0.06111123 -0.5600144 0)
(-0.05000568 -0.6076974 0)
(-0.03870989 -0.6589979 0)
(-0.02743425 -0.7157761 0)
(-0.01641339 -0.7808992 0)
(-0.005736158 -0.8281352 0)
(-0.004920452 0.6826921 0)
(-0.01284618 0.646623 0)
(-0.02068792 0.6181695 0)
(-0.02742434 0.5897679 0)
(-0.03411322 0.5600159 0)
(-0.04049917 0.5296003 0)
(-0.04680335 0.499218 0)
(-0.0529918 0.4693405 0)
(-0.0590744 0.4402643 0)
(-0.06501735 0.4121461 0)
(-0.07070128 0.3850153 0)
(-0.07629116 0.3586609 0)
(-0.08116361 0.3333373 0)
(-0.08651775 0.3098169 0)
(-0.08945492 0.2888114 0)
(-0.09399565 0.2672005 0)
(-0.0986924 0.2454645 0)
(-0.102765 0.224808 0)
(-0.1067026 0.2052965 0)
(-0.1102085 0.1866982 0)
(-0.1133357 0.1688993 0)
(-0.1161135 0.1518088 0)
(-0.1185778 0.1353683 0)
(-0.1207412 0.1195097 0)
(-0.1226076 0.1041618 0)
(-0.1241796 0.08925069 0)
(-0.1254595 0.07470072 0)
(-0.1264503 0.06043512 0)
(-0.1271557 0.04637489 0)
(-0.1275794 0.03244237 0)
(-0.1276934 0.01854717 0)
(-0.1276937 0.00463429 0)
(-0.1273806 -0.008273762 0)
(-0.1266227 -0.02281472 0)
(-0.1257359 -0.03755481 0)
(-0.1245738 -0.05259415 0)
(-0.1231604 -0.06816723 0)
(-0.1215133 -0.08433439 0)
(-0.119617 -0.1012206 0)
(-0.1174682 -0.1189515 0)
(-0.1150596 -0.1376652 0)
(-0.1123862 -0.1575095 0)
(-0.1094318 -0.1786447 0)
(-0.1061868 -0.2012383 0)
(-0.1028388 -0.2255165 0)
(-0.09849738 -0.251422 0)
(-0.09536792 -0.2784733 0)
(-0.08985539 -0.309312 0)
(-0.08477323 -0.3424669 0)
(-0.07913949 -0.3777389 0)
(-0.07309221 -0.415367 0)
(-0.06649535 -0.4552867 0)
(-0.05934028 -0.4973454 0)
(-0.0516882 -0.5413767 0)
(-0.04368629 -0.5874418 0)
(-0.03549894 -0.6359797 0)
(-0.02725032 -0.6879207 0)
(-0.0191351 -0.7449798 0)
(-0.0112371 -0.8094717 0)
(-0.003937909 -0.8550529 0)
(-0.003078282 0.7041165 0)
(-0.008496749 0.6650227 0)
(-0.01333716 0.633837 0)
(-0.01755985 0.6044187 0)
(-0.02167627 0.5743734 0)
(-0.02564178 0.5438836 0)
(-0.02955389 0.5134013 0)
(-0.0334421 0.4832748 0)
(-0.03735188 0.4538159 0)
(-0.04126945 0.4252344 0)
(-0.04513509 0.3976206 0)
(-0.0489712 0.3709917 0)
(-0.05270191 0.3454563 0)
(-0.05623709 0.3208583 0)
(-0.05976742 0.2976245 0)
(-0.06229524 0.276375 0)
(-0.06491382 0.2556447 0)
(-0.06775004 0.2347629 0)
(-0.07034127 0.2144063 0)
(-0.07296058 0.1948165 0)
(-0.07538534 0.1760339 0)
(-0.07759678 0.1580931 0)
(-0.07956617 0.1409154 0)
(-0.08130997 0.1243475 0)
(-0.08283084 0.1083011 0)
(-0.08413286 0.09269499 0)
(-0.08521959 0.07745303 0)
(-0.08609483 0.06249887 0)
(-0.08676214 0.04775452 0)
(-0.08722911 0.03313905 0)
(-0.08747009 0.01856741 0)
(-0.08762642 0.004847778 0)
(-0.08751635 -0.009849889 0)
(-0.08707691 -0.02481122 0)
(-0.08654279 -0.04006836 0)
(-0.08582417 -0.055716 0)
(-0.08493056 -0.07186359 0)
(-0.08386402 -0.08861745 0)
(-0.0826214 -0.1060966 0)
(-0.08120171 -0.1244271 0)
(-0.07960341 -0.1437445 0)
(-0.07782787 -0.1641938 0)
(-0.07585352 -0.1859299 0)
(-0.07384983 -0.2091253 0)
(-0.07115791 -0.2339463 0)
(-0.06935363 -0.26025 0)
(-0.06597528 -0.2895142 0)
(-0.06293931 -0.3210667 0)
(-0.05954174 -0.3548588 0)
(-0.05590367 -0.3911696 0)
(-0.05186301 -0.4300643 0)
(-0.04730023 -0.4714221 0)
(-0.04214857 -0.5148405 0)
(-0.03656352 -0.5598427 0)
(-0.03077218 -0.6063192 0)
(-0.02494978 -0.6547411 0)
(-0.01915668 -0.7060425 0)
(-0.01347021 -0.7619514 0)
(-0.008031143 -0.8249971 0)
(-0.002806639 -0.8717087 0)
(-0.002054866 0.719376 0)
(-0.005331563 0.67794 0)
(-0.008375513 0.6448222 0)
(-0.0104756 0.6140884 0)
(-0.01255303 0.583141 0)
(-0.01451388 0.5520202 0)
(-0.01656913 0.5212047 0)
(-0.0186353 0.4912533 0)
(-0.02078471 0.4622473 0)
(-0.02295829 0.4340087 0)
(-0.0251518 0.4065681 0)
(-0.02736297 0.3799448 0)
(-0.02958669 0.3542011 0)
(-0.03181892 0.3293454 0)
(-0.03391153 0.3053435 0)
(-0.03621009 0.2823391 0)
(-0.03736296 0.2610789 0)
(-0.03913268 0.2406519 0)
(-0.04085678 0.2207094 0)
(-0.04261737 0.2013266 0)
(-0.04438421 0.1824771 0)
(-0.04635747 0.1640279 0)
(-0.04804743 0.1461954 0)
(-0.04965573 0.1290155 0)
(-0.05107849 0.1123724 0)
(-0.05232529 0.09619297 0)
(-0.05339923 0.08040026 0)
(-0.05430716 0.06491705 0)
(-0.05505702 0.04966481 0)
(-0.05565406 0.03456346 0)
(-0.05612907 0.01953377 0)
(-0.05640912 0.00508143 0)
(-0.05649713 -0.01008325 0)
(-0.05646372 -0.02547174 0)
(-0.05630885 -0.04114967 0)
(-0.05602827 -0.05721884 0)
(-0.05562398 -0.07378505 0)
(-0.05509637 -0.09095883 0)
(-0.05444537 -0.1088588 0)
(-0.05367092 -0.1276112 0)
(-0.05277282 -0.1473507 0)
(-0.05174968 -0.1682208 0)
(-0.05060701 -0.1903719 0)
(-0.04929973 -0.213977 0)
(-0.0480033 -0.2391036 0)
(-0.04628337 -0.2664819 0)
(-0.04465881 -0.2961627 0)
(-0.04286586 -0.3281056 0)
(-0.04097005 -0.3625686 0)
(-0.03880154 -0.3997234 0)
(-0.03619574 -0.4398607 0)
(-0.0330099 -0.4829626 0)
(-0.02930078 -0.52797 0)
(-0.02529937 -0.5737381 0)
(-0.02118623 -0.6204258 0)
(-0.01709709 -0.6690364 0)
(-0.01306847 -0.7205982 0)
(-0.009115466 -0.7768002 0)
(-0.005335259 -0.8398057 0)
(-0.001801972 -0.8856206 0)
(-0.0006159622 0.7292962 0)
(-0.002592839 0.685212 0)
(-0.002753157 0.649229 0)
(-0.003107736 0.6174861 0)
(-0.003371014 0.5866886 0)
(-0.003945884 0.556267 0)
(-0.004527838 0.5261595 0)
(-0.005907645 0.4962438 0)
(-0.006880241 0.466893 0)
(-0.008190658 0.4383639 0)
(-0.00955701 0.410741 0)
(-0.01101406 0.3841671 0)
(-0.01253714 0.3586197 0)
(-0.01411339 0.3339475 0)
(-0.01577068 0.3101249 0)
(-0.01739245 0.2870992 0)
(-0.01925147 0.2649735 0)
(-0.02059179 0.2441205 0)
(-0.02187086 0.2241718 0)
(-0.02297938 0.2049161 0)
(-0.02404763 0.1862914 0)
(-0.02480513 0.1681894 0)
(-0.02600496 0.1503105 0)
(-0.02694785 0.1328221 0)
(-0.02793638 0.1157947 0)
(-0.02886522 0.09920707 0)
(-0.02973546 0.0830114 0)
(-0.03053676 0.06714291 0)
(-0.03126261 0.05152821 0)
(-0.0319029 0.03609405 0)
(-0.03247514 0.02075226 0)
(-0.03290401 0.005765084 0)
(-0.03320146 -0.009706669 0)
(-0.0334301 -0.02537913 0)
(-0.03357627 -0.04134274 0)
(-0.03364162 -0.05769761 0)
(-0.0336271 -0.07454859 0)
(-0.03353383 -0.09200695 0)
(-0.0333631 -0.1101916 0)
(-0.03311611 -0.1292301 0)
(-0.03279399 -0.1492593 0)
(-0.03239491 -0.170426 0)
(-0.03193276 -0.1928874 0)
(-0.03129638 -0.2168064 0)
(-0.03082812 -0.2423695 0)
(-0.02984921 -0.2699095 0)
(-0.02907883 -0.2995347 0)
(-0.02838952 -0.3316059 0)
(-0.02739167 -0.366539 0)
(-0.02611543 -0.4048381 0)
(-0.02437338 -0.4466477 0)
(-0.02220751 -0.4910937 0)
(-0.01972036 -0.5369156 0)
(-0.01701374 -0.5830581 0)
(-0.01420993 -0.6297054 0)
(-0.01141014 -0.6779733 0)
(-0.008713832 -0.7289848 0)
(-0.006083603 -0.7843647 0)
(-0.003607813 -0.8462984 0)
(-0.00126741 -0.892404 0)
(-0.0003568936 0.7335925 0)
(-0.0004204111 0.6862047 0)
(-0.0002288082 0.6486683 0)
(0.000783985 0.6167499 0)
(0.00169861 0.5861491 0)
(0.002609574 0.5559507 0)
(0.003382059 0.5261391 0)
(0.004184185 0.4972573 0)
(0.00426754 0.4689852 0)
(0.004130459 0.4414864 0)
(0.003767843 0.4147156 0)
(0.00285926 0.3885368 0)
(0.002056376 0.3630364 0)
(0.0009972371 0.33847 0)
(-0.0001514318 0.3148234 0)
(-0.001372301 0.2919755 0)
(-0.00265544 0.2698117 0)
(-0.003906833 0.2483436 0)
(-0.005068509 0.227631 0)
(-0.006098399 0.2076415 0)
(-0.007047072 0.1883648 0)
(-0.007897213 0.1699205 0)
(-0.008492074 0.1521806 0)
(-0.009267746 0.1348696 0)
(-0.009990206 0.117988 0)
(-0.01074295 0.1014868 0)
(-0.0115033 0.0853119 0)
(-0.01226375 0.06940139 0)
(-0.01300372 0.05368608 0)
(-0.0137394 0.03808041 0)
(-0.01442611 0.02253135 0)
(-0.01503008 0.007142548 0)
(-0.0155426 -0.008518244 0)
(-0.01602833 -0.02437882 0)
(-0.01645729 -0.04053175 0)
(-0.01683686 -0.05706908 0)
(-0.01716697 -0.07409636 0)
(-0.0174498 -0.09172364 0)
(-0.01768848 -0.1100691 0)
(-0.01788672 -0.1292605 0)
(-0.01804874 -0.1494364 0)
(-0.01817848 -0.1707489 0)
(-0.01827944 -0.1933665 0)
(-0.01835793 -0.2174709 0)
(-0.01834641 -0.2433111 0)
(-0.01843549 -0.2709996 0)
(-0.01842484 -0.3007372 0)
(-0.01799936 -0.3331552 0)
(-0.01760861 -0.3689477 0)
(-0.01685414 -0.4083839 0)
(-0.01576487 -0.4510804 0)
(-0.01447803 -0.4962207 0)
(-0.01296277 -0.5427212 0)
(-0.01121499 -0.5894709 0)
(-0.009362699 -0.6363584 0)
(-0.007494698 -0.6846137 0)
(-0.005703799 -0.7357725 0)
(-0.003947373 -0.791436 0)
(-0.002288921 -0.8536225 0)
(-0.0007557698 -0.8995272 0)
(1.381388e-05 0.7362707 0)
(0.0002627469 0.6857365 0)
(0.001650091 0.6461565 0)
(0.00331302 0.6131069 0)
(0.005047039 0.5821761 0)
(0.006734302 0.5522497 0)
(0.007947395 0.5233028 0)
(0.009166634 0.4950192 0)
(0.01010842 0.4674637 0)
(0.01091763 0.4405976 0)
(0.01145079 0.4144496 0)
(0.0120437 0.3890755 0)
(0.01203277 0.3645115 0)
(0.01165225 0.3406148 0)
(0.01119117 0.3172956 0)
(0.01046518 0.2946374 0)
(0.009616647 0.2726275 0)
(0.008663377 0.2512877 0)
(0.007644023 0.2306266 0)
(0.006593341 0.2106335 0)
(0.005570494 0.1912917 0)
(0.004542825 0.1725424 0)
(0.003656634 0.1544485 0)
(0.002875927 0.1369819 0)
(0.002146669 0.1200125 0)
(0.001453745 0.1034663 0)
(0.0007847599 0.08727013 0)
(0.0001381483 0.07134629 0)
(-0.0005098324 0.05561852 0)
(-0.001111201 0.04001528 0)
(-0.001765475 0.02443306 0)
(-0.002380383 0.008828429 0)
(-0.002976675 -0.006892679 0)
(-0.003554217 -0.02283459 0)
(-0.004143382 -0.03908413 0)
(-0.004699913 -0.05572385 0)
(-0.005240061 -0.07285118 0)
(-0.005759166 -0.09057233 0)
(-0.006259483 -0.1090019 0)
(-0.006743946 -0.1282641 0)
(-0.007217039 -0.1484951 0)
(-0.007684585 -0.169845 0)
(-0.008153948 -0.1924814 0)
(-0.008631711 -0.2165938 0)
(-0.009142493 -0.2423997 0)
(-0.009669549 -0.2701636 0)
(-0.01003948 -0.3004495 0)
(-0.01036081 -0.333734 0)
(-0.01013398 -0.3702399 0)
(-0.009743372 -0.4102132 0)
(-0.009294487 -0.4533857 0)
(-0.008604893 -0.4991097 0)
(-0.007762706 -0.5462144 0)
(-0.006730048 -0.5934233 0)
(-0.005596023 -0.640392 0)
(-0.0044401 -0.6884253 0)
(-0.003346984 -0.7392509 0)
(-0.002294562 -0.7943742 0)
(-0.001319803 -0.8557859 0)
(-0.0004699164 -0.9015362 0)
(0.0004042789 0.7373455 0)
(0.001264445 0.6831359 0)
(0.003269605 0.6414889 0)
(0.005578538 0.607923 0)
(0.007910822 0.5772205 0)
(0.0100998 0.5478356 0)
(0.01206642 0.5192749 0)
(0.01384852 0.4913873 0)
(0.01536941 0.4642382 0)
(0.01668509 0.4378534 0)
(0.01769673 0.4123401 0)
(0.01845992 0.3877585 0)
(0.01894726 0.3639955 0)
(0.01954068 0.3409368 0)
(0.01939655 0.3185328 0)
(0.01922728 0.2965293 0)
(0.01874058 0.2750247 0)
(0.01807197 0.2540462 0)
(0.01726033 0.2335977 0)
(0.01635843 0.2136716 0)
(0.01542345 0.194258 0)
(0.01449355 0.1753454 0)
(0.01360518 0.1569797 0)
(0.01278624 0.1392581 0)
(0.0120366 0.1221463 0)
(0.01132794 0.1054881 0)
(0.01062499 0.08918485 0)
(0.009910202 0.07317949 0)
(0.009184933 0.05739842 0)
(0.008438848 0.04176741 0)
(0.007709203 0.02620611 0)
(0.006972208 0.01060822 0)
(0.006248022 -0.0051275 0)
(0.00550372 -0.0210209 0)
(0.004764042 -0.03727848 0)
(0.004025509 -0.05393545 0)
(0.003294654 -0.07108535 0)
(0.00256827 -0.08882993 0)
(0.001844714 -0.1072791 0)
(0.001120337 -0.1265522 0)
(0.0003896798 -0.14678 0)
(-0.000354606 -0.1681064 0)
(-0.001122625 -0.1906925 0)
(-0.001933261 -0.2147185 0)
(-0.002770178 -0.2403994 0)
(-0.003561645 -0.268283 0)
(-0.004249497 -0.2990527 0)
(-0.004713002 -0.3330692 0)
(-0.005065751 -0.3703858 0)
(-0.005155875 -0.4109137 0)
(-0.004918025 -0.4544889 0)
(-0.004681616 -0.5005178 0)
(-0.004330109 -0.5479809 0)
(-0.003813633 -0.5956351 0)
(-0.003186141 -0.6428429 0)
(-0.002540663 -0.6908996 0)
(-0.001930935 -0.7418312 0)
(-0.001333949 -0.797184 0)
(-0.0007763809 -0.8588868 0)
(-0.0002821412 -0.9046916 0)
(0.0004269388 0.7366624 0)
(0.001739539 0.6788443 0)
(0.004248595 0.6351451 0)
(0.00700044 0.6009136 0)
(0.009845894 0.5702659 0)
(0.01255934 0.5412864 0)
(0.01507089 0.5133433 0)
(0.01732879 0.4862237 0)
(0.01929539 0.4598948 0)
(0.02096781 0.4343481 0)
(0.02234699 0.4095618 0)
(0.02344735 0.3855129 0)
(0.02435867 0.3622415 0)
(0.02480279 0.3398946 0)
(0.02536319 0.3181944 0)
(0.02532623 0.2970178 0)
(0.02517621 0.2762059 0)
(0.02473117 0.2557881 0)
(0.02409366 0.2357563 0)
(0.02331346 0.2160943 0)
(0.02244931 0.1967996 0)
(0.02155175 0.1778961 0)
(0.0206577 0.1594461 0)
(0.01980173 0.1415317 0)
(0.01900247 0.1242112 0)
(0.01825384 0.1074949 0)
(0.01752883 0.09130966 0)
(0.01679184 0.07545071 0)
(0.01601841 0.05975736 0)
(0.01520677 0.04416312 0)
(0.01436601 0.02859384 0)
(0.01351296 0.01297532 0)
(0.01265434 -0.002776463 0)
(0.01178744 -0.018622 0)
(0.01089829 -0.03490594 0)
(0.0100174 -0.05158005 0)
(0.009133927 -0.06874076 0)
(0.008249147 -0.08648799 0)
(0.007359849 -0.1049281 0)
(0.006461319 -0.1241758 0)
(0.00554694 -0.144356 0)
(0.004606058 -0.1656074 0)
(0.003625235 -0.1880838 0)
(0.002614782 -0.2119964 0)
(0.001632292 -0.237802 0)
(0.0007373814 -0.2660635 0)
(-2.120755e-05 -0.2971989 0)
(-0.000654281 -0.3315457 0)
(-0.001175811 -0.3693225 0)
(-0.001536472 -0.4104885 0)
(-0.001847404 -0.4545939 0)
(-0.001935459 -0.5009975 0)
(-0.001776278 -0.5488139 0)
(-0.001551339 -0.5968157 0)
(-0.001247215 -0.644126 0)
(-0.0009179479 -0.6920748 0)
(-0.000621991 -0.7428361 0)
(-0.000361695 -0.7979021 0)
(-0.0001644889 -0.859187 0)
(-7.815696e-05 -0.9049767 0)
(0.0005012858 0.7354837 0)
(0.002053649 0.6737004 0)
(0.004799213 0.6278312 0)
(0.007843337 0.5928764 0)
(0.01100254 0.5622367 0)
(0.01404046 0.5336446 0)
(0.01687602 0.5063079 0)
(0.01944613 0.4799329 0)
(0.0217196 0.4544133 0)
(0.02368535 0.4297004 0)
(0.02534111 0.4057649 0)
(0.0266865 0.3825868 0)
(0.02772647 0.3601682 0)
(0.02852593 0.338482 0)
(0.02895258 0.317505 0)
(0.029332 0.297047 0)
(0.02924974 0.2770263 0)
(0.02898231 0.2572926 0)
(0.02845427 0.2377913 0)
(0.02774496 0.2184893 0)
(0.02691148 0.1993889 0)
(0.0260135 0.1805449 0)
(0.02509844 0.1620612 0)
(0.02419927 0.1440551 0)
(0.02333397 0.1266058 0)
(0.02250827 0.1097307 0)
(0.02172066 0.09339472 0)
(0.02094914 0.07751487 0)
(0.02016954 0.06195434 0)
(0.01935236 0.04651371 0)
(0.01848957 0.0310484 0)
(0.01758941 0.01549466 0)
(0.01666167 -0.000219177 0)
(0.01571302 -0.01600429 0)
(0.01474414 -0.03226012 0)
(0.01376677 -0.04891855 0)
(0.01278275 -0.0660663 0)
(0.01179206 -0.08379691 0)
(0.0107923 -0.1022103 0)
(0.009778944 -0.1214146 0)
(0.008742716 -0.1415281 0)
(0.00767452 -0.1626801 0)
(0.006579259 -0.1850616 0)
(0.005492941 -0.2090417 0)
(0.004457378 -0.2350869 0)
(0.003515351 -0.2636429 0)
(0.002678833 -0.2951196 0)
(0.001957157 -0.3297977 0)
(0.001342656 -0.3677963 0)
(0.0008150235 -0.4091036 0)
(0.0003624155 -0.4535412 0)
(3.17198e-05 -0.5005214 0)
(-0.0002547455 -0.5488698 0)
(-0.0003417814 -0.5971565 0)
(-0.0003522344 -0.6445977 0)
(-0.0002928433 -0.6925989 0)
(-0.0002199926 -0.7433985 0)
(-0.0001544792 -0.7985071 0)
(-0.0001046862 -0.8598536 0)
(-8.430711e-05 -0.9055906 0)
(0.0004646975 0.7337975 0)
(0.002114049 0.6679987 0)
(0.004997059 0.6199191 0)
(0.00820024 0.5841757 0)
(0.01153707 0.5535047 0)
(0.01476115 0.5253053 0)
(0.01778034 0.4986104 0)
(0.02052773 0.4730225 0)
(0.0229714 0.4483613 0)
(0.02509707 0.4245315 0)
(0.02690178 0.4014752 0)
(0.02838921 0.3791535 0)
(0.02956921 0.3575412 0)
(0.03046306 0.3366112 0)
(0.03110493 0.3163116 0)
(0.03144008 0.2966186 0)
(0.03159113 0.2773583 0)
(0.03141468 0.2583513 0)
(0.0309849 0.2394864 0)
(0.03033022 0.2206729 0)
(0.02951482 0.2018844 0)
(0.02860509 0.1831857 0)
(0.02765932 0.1647163 0)
(0.02671915 0.1466416 0)
(0.02580695 0.1290972 0)
(0.02492704 0.1121477 0)
(0.02407176 0.09577129 0)
(0.02322876 0.07987006 0)
(0.02238692 0.06430754 0)
(0.02152878 0.04893626 0)
(0.0206427 0.03360387 0)
(0.01972267 0.01816846 0)
(0.01876692 0.002535053 0)
(0.01779341 -0.01317744 0)
(0.01678582 -0.02939399 0)
(0.0157636 -0.04602623 0)
(0.01473329 -0.06315297 0)
(0.01369453 -0.08085955 0)
(0.01264504 -0.0992385 0)
(0.01157887 -0.1183904 0)
(0.01049032 -0.1384233 0)
(0.00938183 -0.1595026 0)
(0.008272559 -0.181911 0)
(0.007188858 -0.2060193 0)
(0.006161679 -0.2322552 0)
(0.005210245 -0.2610655 0)
(0.004351969 -0.2928343 0)
(0.00359616 -0.3278253 0)
(0.0029461 -0.3661484 0)
(0.002400961 -0.4077534 0)
(0.001952142 -0.4523673 0)
(0.00158041 -0.4994131 0)
(0.001280408 -0.5479281 0)
(0.001055168 -0.5965729 0)
(0.0009089347 -0.644341 0)
(0.0007960536 -0.6924719 0)
(0.0006754705 -0.7432411 0)
(0.0005184242 -0.7982908 0)
(0.000324719 -0.8595705 0)
(7.750315e-05 -0.9053705 0)
(0.0003684946 0.7324636 0)
(0.002035219 0.6620825 0)
(0.004942421 0.6117294 0)
(0.008203477 0.5751516 0)
(0.01160645 0.5444246 0)
(0.01490923 0.5166112 0)
(0.01801321 0.4905597 0)
(0.02085083 0.4657614 0)
(0.02338848 0.4419654 0)
(0.02560896 0.4190325 0)
(0.02750627 0.396877 0)
(0.02908173 0.3754398 0)
(0.03034332 0.3546744 0)
(0.03130473 0.334539 0)
(0.0319854 0.3149851 0)
(0.03240425 0.295954 0)
(0.03257065 0.2774269 0)
(0.03248113 0.2592325 0)
(0.03211083 0.2410897 0)
(0.03148548 0.2228497 0)
(0.03066878 0.2044473 0)
(0.02973478 0.185948 0)
(0.02874994 0.167528 0)
(0.02776205 0.1494053 0)
(0.02679746 0.1317663 0)
(0.0258644 0.1147179 0)
(0.0249583 0.098271 0)
(0.02406697 0.0823488 0)
(0.02317589 0.06681081 0)
(0.02227348 0.05148474 0)
(0.02135231 0.0362028 0)
(0.0204102 0.02082678 0)
(0.01943545 0.005268381 0)
(0.01846837 -0.01037083 0)
(0.0174736 -0.0264944 0)
(0.0164395 -0.04309363 0)
(0.01540326 -0.06019462 0)
(0.01436048 -0.07787315 0)
(0.01330768 -0.09621195 0)
(0.01224072 -0.115308 0)
(0.01115993 -0.1352994 0)
(0.01007254 -0.1563862 0)
(0.008993304 -0.1788499 0)
(0.007940871 -0.2030683 0)
(0.006934116 -0.2294795 0)
(0.005992011 -0.2585172 0)
(0.005128763 -0.2905459 0)
(0.004352277 -0.3258079 0)
(0.003664263 -0.3643997 0)
(0.00306319 -0.40628 0)
(0.002548051 -0.4511986 0)
(0.002118705 -0.4985628 0)
(0.001769817 -0.5473167 0)
(0.001483084 -0.5960692 0)
(0.001244245 -0.6438552 0)
(0.001025173 -0.6919366 0)
(0.0008056072 -0.7426269 0)
(0.0005754538 -0.7976182 0)
(0.0003380144 -0.8588521 0)
(6.667506e-05 -0.9045877 0)
(0.0002994169 0.7311975 0)
(0.001886109 0.6562139 0)
(0.004740806 0.6035468 0)
(0.007957346 0.5661024 0)
(0.01133188 0.5352842 0)
(0.01462074 0.5078241 0)
(0.01772499 0.482386 0)
(0.02057445 0.4583518 0)
(0.02313199 0.4354031 0)
(0.0253762 0.4133585 0)
(0.02729729 0.3921038 0)
(0.02889382 0.3715587 0)
(0.03017115 0.3516591 0)
(0.03114103 0.332348 0)
(0.03181919 0.3135726 0)
(0.03222501 0.2952768 0)
(0.03238605 0.2774057 0)
(0.03231398 0.2599162 0)
(0.03199637 0.2425504 0)
(0.03142464 0.2249674 0)
(0.03062566 0.2070228 0)
(0.02968729 0.188772 0)
(0.0286853 0.1704294 0)
(0.02767422 0.1522747 0)
(0.02668294 0.134555 0)
(0.02572002 0.1174221 0)
(0.02478136 0.100912 0)
(0.02385712 0.08495824 0)
(0.02293622 0.06942274 0)
(0.0220089 0.05413152 0)
(0.02106795 0.03890707 0)