/*--------------------------------*- C++ -*----------------------------------*\
| =========                 |                                                 |
| \\      /  F ield         | OpenFOAM: The Open Source CFD Toolbox           |
|  \\    /   O peration     | Version:  2312                                  |
|   \\  /    A nd           | Website:  www.openfoam.com                      |
|    \\/     M anipulation  |                                                 |
\*---------------------------------------------------------------------------*/
FoamFile
{
    version     2.0;
    format      ascii;
    arch        "LSB;label=32;scalar=64";
    class       volScalarField;
    location    "3750";
    object      alphat;
}
// * * * * * * * * * * * * * * * * * * * * * * * * * * * * * * * * * * * * * //

dimensions      [1 -1 -1 0 0 0 0];

internalField   nonuniform List<scalar> 
12000
(
3.812001e-05
0.0001559909
0.0001657274
0.0001868644
0.0002063696
0.000201885
0.0001805586
0.0001739006
0.0002028547
0.0002341685
0.0002033008
0.0001666713
0.0001680246
0.0002107995
0.0002254057
0.0001787303
0.0001565264
0.000177079
0.0002104987
0.000192866
0.000164807
0.0001646494
0.0001813828
0.0001857852
0.0001736297
0.0001649307
0.0001673922
0.0001752499
0.0001762903
0.0001695851
0.0001651698
0.0001637563
0.0001628779
0.0001689628
0.0001754993
0.0001697943
0.0001577842
0.0001494372
0.0001592054
0.0001873193
0.0001852175
0.0001518042
0.0001268451
0.0001405567
0.000216802
0.0002372185
0.0001415436
0.0001067075
0.000126044
0.0002299205
0.0002473786
0.0001111911
0.000102518
0.000150039
0.0001747779
0.0001133195
9.003183e-05
8.275151e-05
7.567416e-05
6.185812e-05
2.326358e-05
0.0002025758
0.0002349642
0.0002730859
0.0003236695
0.0003638095
0.000418062
0.0004827597
0.0005419357
0.0005872398
0.0006524525
0.0007365094
0.0008213816
0.0008732717
0.0009222074
0.001009235
0.001115972
0.001186272
0.001221544
0.001286125
0.001387953
0.001476798
0.001527369
0.001575539
0.001646311
0.001723566
0.001781018
0.001814329
0.001846003
0.001891236
0.001938442
0.001970748
0.001989627
0.001999198
0.001995791
0.002005424
0.002018558
0.002022698
0.00199527
0.001947671
0.001913385
0.001802096
0.001881556
0.001815821
0.001692706
0.001505664
0.001102332
0.001502004
0.001380313
0.001231012
0.0009939215
0.0008251687
0.0008927586
0.0007427366
0.0006286295
0.0004872579
0.0003375141
0.0002054334
0.0001133371
5.623308e-05
3.015236e-05
0.0002717646
0.0003608393
0.0004428194
0.0005465991
0.0006623257
0.0007924151
0.0009306372
0.001072726
0.001213738
0.001354021
0.001501237
0.00164493
0.001776571
0.001905767
0.002036397
0.002162919
0.002275254
0.002378125
0.002479485
0.002577539
0.002665991
0.002744194
0.002816769
0.002884621
0.002945945
0.002999366
0.00304592
0.003087531
0.003124729
0.003156367
0.003183882
0.003206622
0.00322516
0.003238279
0.003246951
0.003250385
0.003248032
0.003239948
0.003227464
0.003208429
0.003181578
0.003145549
0.003106015
0.003048671
0.002873054
0.002854409
0.002752423
0.002514247
0.00230238
0.002289671
0.002103603
0.001833816
0.00148694
0.001260492
0.001111148
0.0008408217
0.000476423
0.000177644
5.601035e-05
2.948313e-05
0.0003006591
0.0004460568
0.0005776822
0.0007436949
0.0009270895
0.001123677
0.001328884
0.001535104
0.001744575
0.001949511
0.002144874
0.002329212
0.00249826
0.002657239
0.002806002
0.00294405
0.003071014
0.003187534
0.003294748
0.00339332
0.003483486
0.003565885
0.00364098
0.003708935
0.003769962
0.003824314
0.003872201
0.003913295
0.003949275
0.003977439
0.003999143
0.004015692
0.004026324
0.004030311
0.004027646
0.004018426
0.004002629
0.003979065
0.003945603
0.003902812
0.003849927
0.003786053
0.00371143
0.003624246
0.003521395
0.003404404
0.003269485
0.003116111
0.002942594
0.002750512
0.002260809
0.001972858
0.001796118
0.001685573
0.001381009
0.001012242
0.0006230245
0.0002592524
5.587115e-05
2.933213e-05
0.0003269654
0.0005299946
0.0007101096
0.0009280333
0.001165293
0.001413536
0.001665965
0.001914701
0.002154308
0.002384265
0.002602359
0.002808188
0.002996599
0.003168121
0.003326409
0.003473363
0.003611363
0.003741253
0.003859006
0.00396552
0.004062754
0.004151631
0.004232632
0.004306124
0.004372442
0.004431828
0.004484403
0.004529597
0.004568571
0.004599797
0.004624813
0.004643529
0.004655338
0.004659787
0.004657087
0.004646914
0.00462896
0.004603492
0.004569831
0.004527085
0.004474978
0.004412524
0.004339803
0.004255244
0.004157588
0.004045202
0.003914036
0.003766968
0.003599855
0.003060678
0.002937396
0.002883042
0.002568006
0.002199906
0.001778873
0.001304603
0.0007940748
0.0003188594
5.547542e-05
2.979625e-05
0.0003436292
0.0005996773
0.0008217493
0.001077974
0.001352845
0.001634925
0.001915788
0.002188395
0.00244852
0.00269522
0.002929226
0.003150924
0.003356065
0.003543558
0.003714004
0.003868983
0.004010215
0.004138356
0.004258501
0.004371887
0.004477729
0.004576
0.004666838
0.004750356
0.004826606
0.004895548
0.004954915
0.005009896
0.005056175
0.005094356
0.005124262
0.005145924
0.005159336
0.005163637
0.005159483
0.005146343
0.005123695
0.005090535
0.005047149
0.004993092
0.004927796
0.004850612
0.004760599
0.004656243
0.004536549
0.004399909
0.004245361
0.004069493
0.003870564
0.003638785
0.00337009
0.003065303
0.002722324
0.002335533
0.00190025
0.001415155
0.000889222
0.0003752123
5.535508e-05
3.017085e-05
0.000354894
0.00065735
0.0009134004
0.001193765
0.001488971
0.001789148
0.002087657
0.002379816
0.002658411
0.002919031
0.003159941
0.003382357
0.003590533
0.003784807
0.003963953
0.00412844
0.004280199
0.00442137
0.004553929
0.004678894
0.004796603
0.004907159
0.005010542
0.005106631
0.005195219
0.005276021
0.005347819
0.005412846
0.005468795
0.005515554
0.005552772
0.005580287
0.005598169
0.005606025
0.005602997
0.005588934
0.00556394
0.005527742
0.005480019
0.005420422
0.005348528
0.005263797
0.005165526
0.005052925
0.004924858
0.004780471
0.004618056
0.004431997
0.004220171
0.003977514
0.003700707
0.003383968
0.003021154
0.002604525
0.002127328
0.001587521
0.0009969745
0.0004198562
5.527837e-05
3.114279e-05
0.0003505932
0.0006963383
0.0009815541
0.001277613
0.001589316
0.001904708
0.002214877
0.002512308
0.002794699
0.003060406
0.003308086
0.003538304
0.003752372
0.00395248
0.004140581
0.00431703
0.004482334
0.004637813
0.004784813
0.004924259
0.005056613
0.005181995
0.005300288
0.005411212
0.005514374
0.005606581
0.00569338
0.005770455
0.005837428
0.005893907
0.005939435
0.005974041
0.005997125
0.006008172
0.006006889
0.005992898
0.005965896
0.005925576
0.005871607
0.00580362
0.005721183
0.005623772
0.00551076
0.005381286
0.005234595
0.005069499
0.004883629
0.004673889
0.004438842
0.004173751
0.00387434
0.003534456
0.003147955
0.002710052
0.00221555
0.001661718
0.001056784
0.0004561642
5.512987e-05
3.270883e-05
0.0003531793
0.0007261373
0.001034816
0.001346263
0.001663247
0.001981676
0.002294235
0.002595328
0.002881909
0.003152334
0.003406073
0.00364367
0.003866247
0.004075211
0.004272717
0.004460778
0.004640198
0.004811328
0.004974681
0.005130734
0.005279725
0.005421619
0.00555615
0.005682885
0.005801303
0.005909209
0.006009317
0.006098745
0.006176803
0.006242909
0.006296661
0.006338061
0.006366297
0.006380743
0.00638091
0.006366386
0.006336817
0.006291879
0.006231258
0.006154633
0.006061653
0.005951906
0.00582489
0.005679973
0.005516472
0.005333493
0.005127671
0.004897171
0.004644176
0.004365099
0.004055003
0.003706911
0.003312865
0.002860949
0.002344773
0.001762324
0.001123222
0.0004874289
5.513894e-05
3.285635e-05
0.0003522169
0.0007402202
0.001071091
0.001388525
0.001708518
0.002028116
0.002341711
0.002644708
0.00293433
0.003209259
0.003469274
0.003714934
0.003947286
0.004167588
0.004377219
0.004577893
0.004771227
0.004957945
0.005138232
0.005311823
0.005478346
0.005637303
0.005788026
0.005929649
0.006061069
0.00618252
0.006294845
0.006396088
0.006485254
0.006561409
0.006623711
0.006671496
0.006704077
0.006720859
0.006721329
0.006705047
0.00667163
0.006620745
0.00655209
0.006465391
0.006360394
0.006236873
0.00609464
0.005932525
0.005749854
0.005546527
0.005323923
0.005078638
0.004809157
0.004511862
0.00418252
0.003815312
0.003401879
0.002931924
0.002401521
0.001807734
0.001158098
0.0005086456
5.495827e-05
3.32521e-05
0.0003466528
0.0007489342
0.001098533
0.001424359
0.001745515
0.002063384
0.002374785
0.002676616
0.002966907
0.003244721
0.003509981
0.003763263
0.00400561
0.004238214
0.004462182
0.004678036
0.004885747
0.00508533
0.005276503
0.005462355
0.005642258
0.005815551
0.005981523
0.006139461
0.006288725
0.006426492
0.006552316
0.006665137
0.00676408
0.006848285
0.006917018
0.006969679
0.007005352
0.00702334
0.007023076
0.007004092
0.006965999
0.006908467
0.006831208
0.006733965
0.006616502
0.006478597
0.006320035
0.006141754
0.005943572
0.005724024
0.005481761
0.005216537
0.004902133
0.004587059
0.004275654
0.003901393
0.003480911
0.003007887
0.002470137
0.001863245
0.001196499
0.0005284982
5.498331e-05
3.488031e-05
0.0003322854
0.0007438716
0.001107889
0.001439643
0.001760307
0.002075631
0.002385105
0.002686804
0.002978969
0.00326072
0.003532055
0.00379349
0.004045306
0.004287658
0.004519435
0.004743791
0.004962167
0.005175794
0.005385624
0.00558879
0.005785209
0.005974309
0.006155304
0.006327182
0.006488707
0.006638401
0.006775141
0.006897649
0.007004807
0.007095566
0.007168979
0.007224183
0.007260637
0.007277829
0.007275282
0.007252578
0.00720936
0.007145337
0.007060274
0.00695398
0.006826299
0.006677078
0.006506132
0.006313171
0.006098039
0.0058611
0.005463342
0.005034729
0.004685759
0.004446063
0.004252966
0.003953634
0.003531399
0.003050621
0.002503515
0.001888881
0.00121515
0.0005395182
5.480385e-05
3.569551e-05
0.0003224878
0.0007343935
0.001109525
0.00144772
0.001769225
0.002082494
0.002389096
0.00268836
0.002979458
0.003261862
0.003534862
0.003796779
0.003917535
0.004018908
0.004181616
0.004389343
0.004647277
0.004935035
0.005248937
0.005554256
0.005874384
0.006115205
0.006308101
0.006491012
0.006662438
0.006821134
0.006965848
0.007095314
0.007208383
0.007304001
0.007381236
0.007439271
0.007477275
0.007494548
0.007490498
0.007464639
0.00741658
0.007346023
0.007252758
0.007136661
0.006997684
0.006835855
0.00665125
0.00644407
0.006075647
0.00565209
0.005240489
0.004880074
0.004595229
0.004368244
0.004187927
0.003993414
0.00356996
0.003086669
0.002537421
0.001917037
0.001234918
0.0005500368
5.483148e-05
3.640691e-05
0.0003127292
0.0007219188
0.00110628
0.001450242
0.001772642
0.002083808
0.002387308
0.002683798
0.002972884
0.003253476
0.003523774
0.003670722
0.003813596
0.003975636
0.004130101
0.004289885
0.004470059
0.00471121
0.00498861
0.005292857
0.005610117
0.005941385
0.006288915
0.006614381
0.006794027
0.006960763
0.007113188
0.007249312
0.007368161
0.007468552
0.007549402
0.007609746
0.007648708
0.00766552
0.007659555
0.007630311
0.007577415
0.007500618
0.00739979
0.007274917
0.007126073
0.00695352
0.006706114
0.006296578
0.005863274
0.005455317
0.005097052
0.004778177
0.004498009
0.004282842
0.00413759
0.00397289
0.003593456
0.003109163
0.002555689
0.00193083
0.001244614
0.0005556032
5.468513e-05
3.698851e-05
0.0003042867
0.0007076795
0.001095788
0.001445603
0.001769824
0.0020798
0.00238068
0.002674081
0.002959905
0.003237187
0.003472158
0.003651917
0.0037929
0.003916729
0.004033939
0.004195564
0.004393968
0.004614551
0.004860405
0.005148299
0.005449493
0.005756933
0.006066807
0.006375273
0.006686079
0.006989416
0.007221867
0.007363781
0.007487734
0.007592297
0.007676244
0.00773855
0.007778271
0.007794573
0.007786809
0.007754492
0.007697278
0.007614958
0.007507487
0.007375071
0.007162626
0.006837524
0.006484439
0.006116384
0.005737264
0.005357966
0.004990134
0.004663519
0.004406102
0.00421653
0.004073932
0.003924886
0.003610504
0.00312637
0.002571424
0.001943828
0.001253411
0.0005600007
5.464401e-05
3.750561e-05
0.0002966529
0.0006923727
0.001084051
0.001437077
0.001762556
0.002071325
0.002369391
0.002659285
0.002941672
0.003216313
0.00348224
0.003633653
0.00374935
0.003866792
0.00402543
0.004197202
0.004378829
0.004579564
0.004806068
0.005052947
0.005326611
0.005615965
0.005911958
0.006205865
0.006492671
0.006770796
0.007036975
0.00728409
0.007504182
0.007678574
0.007765502
0.00782978
0.007870332
0.007886291
0.007877043
0.007842162
0.007781406
0.007660045
0.007470358
0.007241403
0.006978184
0.006678095
0.006342029
0.005980626
0.005611653
0.005253398
0.004918321
0.0046136
0.004346764
0.0041423
0.004011548
0.003898082
0.003621212
0.003136808
0.002580371
0.001950403
0.001257625
0.0005616245
5.458816e-05
3.799002e-05
0.0002894733
0.000677057
0.001068763
0.00142441
0.001751519
0.002059632
0.002355311
0.002641929
0.002920869
0.003192374
0.003455948
0.003629065
0.003764838
0.003895417
0.004031808
0.00418958
0.004379982
0.004590131
0.004820036
0.005059382
0.005314798
0.005577947
0.005845319
0.006114375
0.006382349
0.006643649
0.006889592
0.007113301
0.007313482
0.007494627
0.007674558
0.007881048
0.007918555
0.007817568
0.00776686
0.007714369
0.007632099
0.0075081
0.007337379
0.007119162
0.00685522
0.006551657
0.006219418
0.005871179
0.005518915
0.005174089
0.004847781
0.004551819
0.004300092
0.004106563
0.003972185
0.003861047
0.003629267
0.003145539
0.002588523
0.001957052
0.001262092
0.0005635967
5.452227e-05
3.833301e-05
0.0002833525
0.0006622508
0.00105242
0.001410076
0.001737859
0.002045227
0.002338785
0.002622441
0.002898188
0.003166818
0.00342842
0.003639587
0.003785487
0.00392196
0.004068303
0.004231476
0.004412554
0.004619231
0.004844584
0.005085479
0.005328295
0.005573611
0.005820738
0.006069337
0.006318421
0.00656462
0.006801225
0.007020138
0.0072165
0.007395012
0.007578712
0.007803587
0.007857597
0.007750254
0.007689976
0.007632193
0.007550323
0.007427045
0.007254405
0.007032717
0.006766926
0.006464516
0.006135761
0.005793029
0.005448873
0.005114135
0.004797488
0.00450722
0.004255344
0.00405968
0.003930176
0.003833572
0.003632088
0.003148252
0.002590354
0.001958257
0.001262536
0.0005637328
5.447418e-05
3.862495e-05
0.0002786876
0.0006493081
0.001036137
0.001393982
0.001722442
0.002029178
0.002320932
0.002602107
0.002875286
0.003141885
0.003402691
0.003657303
0.003828717
0.003974863
0.004125835
0.004291686
0.004477378
0.00468498
0.004908995
0.005142083
0.005375832
0.005608374
0.005839438
0.006071252
0.006305114
0.006538741
0.00676559
0.006977504
0.007170331
0.007350877
0.007542317
0.007785274
0.007864743
0.007760732
0.007683313
0.007611374
0.007522009
0.00739543
0.007220246
0.006994222
0.006722452
0.006414923
0.006084255
0.005743442
0.005404013
0.005075234
0.004764709
0.004480293
0.004233093
0.004039487
0.003909609
0.003816706
0.003635077
0.003151376
0.002593023
0.001959806
0.001263882
0.0005645024
5.44314e-05
3.889069e-05
0.000274861
0.000637258
0.001019958
0.001376912
0.001705148
0.002011499
0.002301981
0.002581274
0.002852442
0.003117366
0.003377177
0.003633531
0.003885597
0.004054254
0.00421179
0.004384405
0.004575491
0.004782246
0.005003283
0.005231324
0.005458204
0.005679485
0.00589606
0.006111836
0.00633069
0.006552819
0.006772912
0.00698187
0.007172539
0.007348824
0.007536362
0.007790523
0.007906124
0.007810854
0.00771369
0.007625763
0.007525104
0.007389598
0.007205925
0.006971312
0.006691583
0.006377988
0.006044114
0.005703241
0.005366435
0.00504192
0.004736029
0.004455535
0.004210916
0.004018956
0.003891279
0.003804105
0.003635539
0.003151771
0.00259309
0.001959704
0.001263368
0.0005639562
5.437171e-05
3.902745e-05
0.0002727573
0.000627435
0.001004916
0.001359998
0.001687927
0.001993347
0.002282604
0.00256039
0.002830039
0.003093808
0.003353234
0.003609481
0.003864471
0.004118961
0.004330458
0.004506442
0.004695251
0.004903546
0.005125595
0.005350827
0.005571117
0.005780978
0.005982572
0.006181254
0.006383152
0.006591021
0.006801743
0.007007618
0.007201542
0.007383258
0.007561392
0.007745938
0.007928373
0.007913104
0.0077578
0.007648789
0.007536974
0.007392421
0.007200124
0.006957128
0.006669795
0.006350385
0.006013353
0.005672166
0.005337352
0.005016218
0.004714207
0.004437422
0.004195685
0.004005251
0.003877944
0.003792954
0.003635684
0.003151758
0.002592579
0.001959064
0.001262877
0.000563804
5.434742e-05
3.930807e-05
0.0002712099
0.000618942
0.0009907901
0.001343321
0.001670092
0.001974822
0.002263139
0.002539807
0.002808392
0.003071462
0.003330893
0.003588149
0.003844496
0.004100715
0.004358742
0.004618744
0.004851914
0.005054281
0.005264252
0.00548258
0.005697884
0.00590188
0.006091497
0.006272543
0.006455136
0.006645889
0.006844207
0.007042888
0.007233232
0.00741195
0.007584796
0.007762506
0.007947149
0.007952098
0.007803252
0.00768185
0.007555229
0.007398464
0.007196338
0.00694504
0.006650829
0.006326449
0.005986829
0.005645467
0.005312409
0.004994169
0.004695397
0.004421629
0.004182421
0.003994054
0.00386858
0.003786156
0.003635202
0.003151074
0.002591641
0.001957764
0.001261584
0.0005629336
5.428754e-05
3.941003e-05
0.0002710563
0.0006121838
0.0009783218
0.001327458
0.001652591
0.00195641
0.00224393
0.002519802
0.002787716
0.003050465
0.003310164
0.003568455
0.003826648
0.004085756
0.004346601
0.004609358
0.004873802
0.005140281
0.005407096
0.005641011
0.00584267
0.006032872
0.006210345
0.006375975
0.006538641
0.006709333
0.006891837
0.007080762
0.007266009
0.007440268
0.007605087
0.007771529
0.007958127
0.007982099
0.007841221
0.00771131
0.00757285
0.007405428
0.007194417
0.006935673
0.006635437
0.006306813
0.005965047
0.005623586
0.00529203
0.004976244
0.004680261
0.004409032
0.004172182
0.003985729
0.003861749
0.003780733
0.00363168
0.003149859
0.002590123
0.001956133
0.00126028
0.0005624118
5.42753e-05
3.969108e-05
0.0002712547
0.0006067909
0.0009668511
0.001312585
0.001635837
0.001938599
0.002225399
0.002500728
0.00276833
0.003031154
0.003291485
0.003551101
0.003811362
0.004073259
0.004337402
0.00460394
0.004872605
0.005142684
0.005412744
0.005680795
0.005945636
0.00618507
0.006348841
0.006490582
0.006629391
0.006777126
0.006940682
0.007116874
0.007294935
0.007464398
0.007623275
0.007781913
0.007961567
0.007997313
0.007870479
0.007737626
0.007590753
0.007414245
0.007195025
0.006929258
0.006623385
0.006290819
0.005947022
0.005605351
0.005275004
0.004961291
0.004667696
0.004398669
0.004164067
0.003979715
0.003857708
0.003778582
0.003630981
0.003149015
0.002588802
0.001954536
0.001258762
0.0005614399
5.422216e-05
3.994055e-05
0.0002722531
0.0006026911
0.000956979
0.001298871
0.001620009
0.001921653
0.002207863
0.002482945
0.002750655
0.003014046
0.003275533
0.003536987
0.003799804
0.004064935
0.004332874
0.004603636
0.00487677
0.005151315
0.0054258
0.00569832
0.005966672
0.006228304
0.006480293
0.006630599
0.006743238
0.006861506
0.007000394
0.00716007
0.00732897
0.007492309
0.007642067
0.007786247
0.007955666
0.00802438
0.007912676
0.007759006
0.00760552
0.007424228
0.007199158
0.006927071
0.006615574
0.006278913
0.005932888
0.005590749
0.005261283
0.004949266
0.00465772
0.004390772
0.004158219
0.003975762
0.003855377
0.003777402
0.003630208
0.003148069
0.002587264
0.001952769
0.001257306
0.0005608298
5.42171e-05
4.013163e-05
0.0002737133
0.0005996608
0.000948437
0.001286525
0.00160543
0.001905921
0.002191679
0.002466838
0.002735134
0.002999685
0.003262989
0.003526973
0.003793041
0.004062082
0.004334472
0.004610061
0.004888202
0.005167729
0.005446993
0.005723929
0.005996141
0.006261003
0.006515743
0.006757612
0.006882998
0.00697334
0.007081004
0.007217273
0.007373334
0.007532713
0.007681931
0.00781551
0.007931715
0.008019125
0.007961368
0.007794478
0.007629885
0.007439779
0.00720712
0.006928256
0.006611075
0.006270294
0.005921964
0.005579214
0.005250417
0.004939836
0.00465006
0.004384958
0.004154235
0.003973555
0.00385487
0.003778305
0.003631497
0.003147429
0.002586024
0.001951248
0.001255849
0.0005598757
5.417322e-05
4.063822e-05
0.000275247
0.0005926412
0.0009413742
0.001275551
0.001592232
0.001891681
0.002177255
0.002452929
0.002722405
0.00298883
0.003254746
0.003522098
0.003792251
0.004066001
0.004343569
0.004624612
0.004908261
0.005193122
0.005477334
0.005758662
0.006034594
0.006302353
0.006559265
0.006802551
0.0070293
0.007115778
0.007191597
0.007297234
0.007432523
0.007580342
0.007722667
0.007848412
0.007951727
0.008029904
0.007982286
0.00782509
0.007657443
0.007459854
0.007219038
0.00693275
0.006609537
0.006264514
0.005913831
0.005570384
0.005242078
0.004932666
0.004644355
0.004380822
0.004151706
0.003972638
0.003855483
0.003779971
0.003633
0.00314675
0.002585011
0.001949781
0.001254474
0.0005591841
5.417389e-05
4.085181e-05
0.0002774706
0.0005828964
0.0009358097
0.001266062
0.001580517
0.00187914
0.0021649
0.002441622
0.002712964
0.002982077
0.003251502
0.003523146
0.003798288
0.004077573
0.004361024
0.004648067
0.004937581
0.00522793
0.005517038
0.005802499
0.006081676
0.00635195
0.006610351
0.00685416
0.0070808
0.007248803
0.007317826
0.007394469
0.007504064
0.007635306
0.00776629
0.007880511
0.007973082
0.008044257
0.008001961
0.007853437
0.007684626
0.007481099
0.007232795
0.006939302
0.006610167
0.006260996
0.005908021
0.005563877
0.005236002
0.004927635
0.004640602
0.004378428
0.004150715
0.003973137
0.003857584
0.00378321
0.003633992
0.003146544
0.002584042
0.001948574
0.001253265
0.0005583691
5.413956e-05
4.120126e-05
0.0002795914
0.0005723989
0.0009317231
0.001258241
0.001570589
0.001868613
0.00215503
0.002433482
0.002707538
0.0029803
0.003254252
0.003531207
0.003812292
0.004097951
0.004387964
0.004681494
0.004977157
0.005273073
0.00556698
0.005856335
0.006138263
0.006410141
0.006669155
0.006912632
0.007138247
0.007343473
0.007444651
0.007504019
0.007587388
0.007698314
0.00781639
0.007921379
0.008002728
0.008060488
0.008018823
0.007879895
0.007712153
0.007504266
0.007249184
0.006948661
0.00661358
0.00626022
0.005904934
0.00556
0.005232274
0.004924429
0.004638143
0.004377001
0.004150569
0.003974575
0.003860819
0.003787307
0.003635333
0.003146962
0.00258367
0.001947751
0.001252219
0.0005577529
5.414401e-05
4.1537e-05
0.000282036
0.0005650273
0.0009287738
0.00125172
0.001562502
0.001860446
0.002148107
0.002429017
0.002706659
0.002984041
0.003263526
0.003546762
0.003834662
0.004127414
0.004424514
0.004724844
0.005026748
0.005328113
0.005626485
0.005918811
0.006202963
0.006475824
0.006734682
0.006976976
0.007200604
0.007403016
0.007563999
0.007621034
0.007682833
0.007771652
0.007873354
0.007966482
0.008037398
0.008082225
0.008039469
0.007908685
0.007741986
0.007530261
0.007268795
0.006961322
0.00662012
0.006262191
0.00590404
0.005557735
0.005230125
0.004923174
0.004638164
0.004378169
0.004152877
0.003978255
0.003865927
0.003792837
0.003637146
0.003147752
0.002583586
0.001947062
0.001251386
0.0005571341
5.411821e-05
4.177139e-05
0.0002843779
0.0005578666
0.0009203456
0.001246459
0.001556013
0.001854459
0.002144192
0.002428541
0.002710842
0.002993955
0.003280061
0.00357058
0.003866149
0.004166646
0.004471244
0.004778512
0.005086506
0.005392686
0.005694561
0.005989906
0.006275449
0.006548454
0.006806314
0.007046667
0.007267246
0.007466165
0.007641811
0.007732169
0.007784189
0.00785315
0.007937657
0.008018042
0.00807773
0.008108976
0.008064042
0.007940537
0.007774824
0.007559474
0.007291773
0.00697737
0.00663003
0.006267753
0.005907722
0.005561368
0.005234001
0.004926099
0.004639668
0.004380123
0.004155826
0.003982934
0.003873207
0.003800504
0.003639614
0.003149109
0.002583998
0.001946724
0.001250806
0.0005566376
5.412526e-05
4.205367e-05
0.0002870462
0.0005521655
0.0009094688
0.001243756
0.001552327
0.001851826
0.002144317
0.002432962
0.002720902
0.003010773
0.00330449
0.003603167
0.003907104
0.004215827
0.00452816
0.004842315
0.005155635
0.005466403
0.005771809
0.006068901
0.006354895
0.006627122
0.006883096
0.007120664
0.007337636
0.007532399
0.007703531
0.007841453
0.007892289
0.007944053
0.008010018
0.008075532
0.008122732
0.008140002
0.008091814
0.007974078
0.007808912
0.007590298
0.007317053
0.006996453
0.006643562
0.006277079
0.005913057
0.005562404
0.005231874
0.004926017
0.004643238
0.004385241
0.004162478
0.003990462
0.003879921
0.003806221
0.003642495
0.003150918
0.002584846
0.001946832
0.001250373
0.0005562443
5.411352e-05
4.215623e-05
0.0002894928
0.0005464259
0.0008958334
0.001241763
0.001549985
0.001851405
0.002147744
0.002441869
0.002736648
0.00303442
0.003336772
0.003644451
0.003957364
0.004274604
0.004594175
0.004914433
0.005233609
0.005548497
0.005856384
0.006154497
0.006440142
0.006710788
0.006964121
0.007198107
0.007410865
0.007600926
0.007767054
0.007908281
0.007988353
0.008033148
0.008083334
0.008134547
0.008169935
0.008174499
0.008123378
0.008011117
0.007846316
0.007623639
0.007343641
0.007015313
0.006655334
0.006282739
0.005914973
0.005564361
0.005236075
0.004930612
0.004648259
0.004390561
0.004167382
0.003995343
0.003886007
0.003812933
0.003645792
0.003153074
0.002585982
0.001947124
0.001250256
0.0005559056
5.411357e-05
4.235874e-05
0.0002923566
0.000542431
0.0008887304
0.001242484
0.00155175
0.00185544
0.002156341
0.002456906
0.002759633
0.003066467
0.00337855
0.003696015
0.004017866
0.00434272
0.004669832
0.004996578
0.005320266
0.005638197
0.005947616
0.006245817
0.006530228
0.006798477
0.007048449
0.007278239
0.007486267
0.007671216
0.007832038
0.007967936
0.008078076
0.008121703
0.008158751
0.008195641
0.008218626
0.008210641
0.008155146
0.008045311
0.007879032
0.007652877
0.007368211
0.00703465
0.006669205
0.006292404
0.005922494
0.005570871
0.005241962
0.004935436
0.004651624
0.00439391
0.004172526
0.00400329
0.00389574
0.003821233
0.003649724
0.003155798
0.002587641
0.001947893
0.001250269
0.0005558032
5.411289e-05
4.260325e-05
0.0002945493
0.0005385862
0.0008771779
0.001243331
0.00155367
0.001862016
0.002168952
0.002477388
0.002789393
0.003106144
0.003427771
0.003754049
0.004084993
0.004418996
0.004753331
0.005085648
0.005413319
0.005733619
0.006043844
0.006341403
0.006623881
0.006889092
0.007135108
0.007360264
0.007563173
0.00774271
0.007898002
0.008028403
0.008133475
0.008199373
0.0082322
0.008257372
0.008271268
0.00825286
0.008189916
0.008080005
0.007913694
0.007684987
0.00739504
0.007055229
0.006684249
0.006303557
0.005930693
0.00557723
0.005247478
0.004941549
0.004658492
0.004400977
0.004179139
0.004009613
0.003903061
0.003829487
0.003653877
0.00315872
0.002589483
0.001948848
0.001250566
0.0005557103
5.411576e-05
4.287785e-05
0.0002970952
0.0005360047
0.0008717037
0.001246975
0.001560317
0.001873373
0.002188001
0.002504999
0.002825896
0.003152343
0.00348455
0.003821782
0.004162146
0.004503843
0.00484453
0.005181633
0.005512443
0.005834251
0.006144448
0.006440589
0.0067204
0.006981974
0.00722355
0.00744368
0.007641178
0.007815106
0.007964756
0.008089626
0.008189398
0.008263912
0.008311794
0.008326317
0.008330477
0.008303138
0.008233169
0.008122371
0.007954974
0.007722203
0.007426147
0.007079491
0.006702723
0.006317658
0.005942302
0.005587537
0.005257097
0.004950378
0.004666612
0.004408762
0.004187217
0.004018488
0.003912225
0.003837523
0.00365865
0.003162202
0.002591768
0.001950076
0.001251001
0.0005557605
5.412243e-05
4.318231e-05
0.0002993588
0.0005345033
0.0008635918
0.001251691
0.001568439
0.001887239
0.002209091
0.002535703
0.002868056
0.003205978
0.003549135
0.003896329
0.004245693
0.004594961
0.004941585
0.00528288
0.005616141
0.005938745
0.00624822
0.006542299
0.006818915
0.007076377
0.007313148
0.007527994
0.007719918
0.007888151
0.008032126
0.008151462
0.008245937
0.008315465
0.008360072
0.008379875
0.008375062
0.008345881
0.00827353
0.008161982
0.007993089
0.007757126
0.007456088
0.007103722
0.006721539
0.006332321
0.005954237
0.005597849
0.005266518
0.00495929
0.004675117
0.004416879
0.004195104
0.004026525
0.003920763
0.003845898
0.003663688
0.003165939
0.00259429
0.001951523
0.00125161
0.0005559314
5.412738e-05
4.34476e-05
0.000301784
0.000532882
0.0008579888
0.001258026
0.001579342
0.001905214
0.002236378
0.002573645
0.002917272
0.003266771
0.003621014
0.003978261
0.00433629
0.004692568
0.005044412
0.005389112
0.005724029
0.006046664
0.006354724
0.006646036
0.006918991
0.007171956
0.007403645
0.007613017
0.007799254
0.00796174
0.008100042
0.008213889
0.008303145
0.008367791
0.008407897
0.008423609
0.008415126
0.008382692
0.008314001
0.00820219
0.008031288
0.007791489
0.007485173
0.007127088
0.00673984
0.006346884
0.005966462
0.005608765
0.005276635
0.004968739
0.004683899
0.004425085
0.004203004
0.004034476
0.003928919
0.003853685
0.003669018
0.003169956
0.002597073
0.001953178
0.001252311
0.0005560621
5.413595e-05
4.373323e-05
0.000304109
0.0005324272
0.0008534304
0.001266123
0.001593168
0.001927248
0.002268624
0.002617375
0.002972997
0.00333432
0.003699589
0.004066577
0.004432735
0.004795343
0.005151656
0.005498997
0.00583483
0.006156818
0.006462863
0.006750994
0.007019882
0.007268079
0.007494505
0.007698304
0.007878821
0.008035589
0.008168298
0.008276773
0.008360957
0.008420882
0.008456655
0.008468437
0.008456431
0.008420871
0.00835904
0.008246642
0.008072917
0.007828599
0.00751654
0.007152473
0.00676002
0.006363193
0.005980234
0.005620976
0.005287815
0.00497908
0.004693441
0.004433916
0.004211388
0.004042835
0.003937555
0.003862055
0.003674608
0.00317419
0.002600032
0.001954997
0.001253201
0.0005563269
5.414826e-05
4.400578e-05
0.0003062361
0.0005324675
0.0008499871
0.001276061
0.001609766
0.001953111
0.002305618
0.002666552
0.003034598
0.003407864
0.003784001
0.004160349
0.004534091
0.004902376
0.005262454
0.005611726
0.005947804
0.006268541
0.006572059
0.00685665
0.007121153
0.007364363
0.007585398
0.007783578
0.007958408
0.00810955
0.0082368
0.008340067
0.008419355
0.008474738
0.008506346
0.008514351
0.008498949
0.008460359
0.008398792
0.008291051
0.008115761
0.007866692
0.007548584
0.007178478
0.006780906
0.006380326
0.005994908
0.005634097
0.00529984
0.004990144
0.004703561
0.00444318
0.004220064
0.004051343
0.003946224
0.003870475
0.003680462
0.003178699
0.002603273
0.001957063
0.001254235
0.000556592
5.415154e-05
4.427301e-05
0.0003084401
0.0005331105
0.0008474754
0.001279288
0.001629532
0.001982828
0.002347178
0.002720826
0.003101553
0.003486722
0.003873428
0.00425864
0.004639336
0.005012606
0.005375745
0.005726281
0.006062006
0.006380989
0.006681578