/*--------------------------------*- C++ -*----------------------------------*\
| =========                 |                                                 |
| \\      /  F ield         | OpenFOAM: The Open Source CFD Toolbox           |
|  \\    /   O peration     | Version:  2312                                  |
|   \\  /    A nd           | Website:  www.openfoam.com                      |
|    \\/     M anipulation  |                                                 |
\*---------------------------------------------------------------------------*/
FoamFile
{
    version     2.0;
    format      ascii;
    arch        "LSB;label=32;scalar=64";
    class       volScalarField;
    location    "3750";
    object      G;
}
// * * * * * * * * * * * * * * * * * * * * * * * * * * * * * * * * * * * * * //

dimensions      [1 0 -3 0 0 0 0];

internalField   nonuniform List<scalar> 
12000
(
19172.09
17446.9
16679.74
16139.2
15620.06
15124.36
14728.91
14471.98
14327.91
14245.91
14189.72
14146.05
14111.9
14080.34
14035.96
13960.94
13846.05
13698.13
13538.65
13394.15
13284.51
13215.7
13179.95
13161.63
13144.8
13118.57
13078.76
13026.49
12965.43
12899.27
12830.42
12759.82
12687.59
12613.71
12538.49
12462.84
12388.12
12315.86
12247.49
12184.23
12127.26
12078.22
12039.18
12012.23
11997.99
11995.22
12000.88
12010.82
12019.71
12022
12013.92
11994.94
11967.62
11933.44
11891.02
11836.01
11763
11666.32
11552.45
11366.64
21039.97
19840.81
18897.55
18077.35
17287.45
16615.18
16148.12
15857.48
15655.38
15475.79
15297.2
15124.08
14963.81
14815.04
14668.2
14513.82
14351.32
14191.29
14049.58
13937.54
13855.3
13791.71
13730.18
13656.08
13561.76
13447.41
13318.67
13182.96
13046.6
12913.48
12785.34
12662.73
12546.04
12436.18
12334.66
12243.37
12164.17
12098.31
12046.2
12007.21
11979.98
11962.85
11954.39
11953.61
11959.69
11971.36
11986.21
12000.31
12008.53
12005.52
11987.22
11952.11
11901.85
11840.32
11771.63
11697.61
11616.77
11522.63
11420.32
11281.79
21370.22
20568.52
19671.67
18853.39
18140.83
17561.68
17122.2
16775.61
16468.89
16178.82
15909.52
15674.3
15480.15
15320.62
15179.23
15040
14896.83
14754.58
14622.34
14505
14399.23
14295.5
14183.71
14058.15
13919.34
13772.58
13624.83
13481.93
13347.19
13221.57
13104.63
12995.74
12894.74
12802.19
12719.15
12646.81
12586.04
12537
12498.92
12470.03
12447.75
12429.19
12411.76
12393.75
12374.53
12354.07
12331.98
12306.73
12275.61
12235.29
12182.76
12116.39
12037.04
11948.71
11857.51
11768.49
11682.08
11590.2
11496.47
11373.96
21273.54
20726.97
19826.52
18987.55
18434.56
18070.01
17726.22
17331.8
16912.99
16526.86
16214.78
15987.96
15828.67
15700.29
15564.69
15399.22
15203.73
14994.33
14790.58
14604.95
14439.67
14290.27
14151.31
14020.39
13898.79
13789.65
13695.54
13616.95
13552.1
13497.87
13451.01
13409.01
13370.53
13335.22
13303.35
13275.4
13251.53
13231.41
13213.95
13197.32
13179.03
13156.27
13126.49
13088.23
13041.56
12987.83
12928.48
12864.02
12793.7
12715.78
12628.28
12529.84
12421.3
12306.85
12193.05
12084.55
11980.82
11873.42
11776.27
11640.76
20884.33
20546.21
19710.97
18878
18411.46
18180.75
17926.66
17552.22
17117.57
16721.04
16422.41
16225.52
16091.84
15966.78
15807.29
15598.51
15352.8
15095.96
14851.54
14632.23
14440.09
14271.88
14124.44
13997.19
13891.58
13808.95
13748.88
13708.66
13683.99
13670.1
13662.89
13659.46
13658.19
13658.4
13659.89
13662.43
13665.46
13667.91
13668.17
13664.18
13653.43
13633.18
13600.96
13555.35
13496.67
13426.84
13348.39
13263.39
13172.94
13077.19
12975.77
12868.44
12756.13
12641.68
12528.68
12418.42
12310.52
12202.33
12118.63
11994.31
20301.32
20155.9
19524.27
18789.01
18266.84
17956.62
17719.78
17459.48
17167.17
16881.01
16633.55
16426.62
16236.83
16037.3
15817.03
15585.54
15363.17
15166.83
15001.32
14859.84
14730.66
14604.25
14477.03
14350.99
14230.78
14120.74
14023.14
13938.07
13864.24
13800.11
13744.59
13697.3
13658.43
13628.26
13606.78
13593.26
13586.11
13582.93
13580.76
13576.37
13566.38
13547.41
13516.57
13472.05
13413.89
13344.05
13265.93
13183.3
13099.36
13016.29
12935.12
12856.04
12778.66
12702.09
12624.7
12544.86
12465.54
12393.53
12351.71
12286.95
19875.33
19793.85
19359.93
18714.92
18030.45
17512.63
17235.02
17113.28
17028.85
16914.95
16753.62
16543.8
16289.31
16005.26
15721.59
15473.68
15286.35
15163.34
15088.18
15034.01
14975.44
14896.28
14791.38
14663.83
14520.66
14369.18
14215.29
14063.21
13916.14
13776.89
13648.2
13532.78
13432.92
13350.16
13284.92
13236.28
13202.01
13178.76
13162.56
13149.16
13134.45
13114.62
13086.54
13048.21
12999.4
12942.07
12880.26
12819.18
12763.72
12717.16
12680.58
12652.88
12630.68
12608.46
12580.41
12545.24
12511.3
12492.67
12500.31
12509.14
21144.53
20208.53
19540.18
18782.02
17906.95
17190.49
16809.57
16708.55
16728
16738.93
16676.7
16520.08
16274.06
15966.8
15643.98
15353.01
15125.15
14966.77
14863.15
14789.8
14723.68
14649.43
14560.33
14455.78
14338.19
14210.81
14076.73
13938.95
13800.54
13664.79
13535.08
13414.62
13306.06
13211.17
13130.69
13064.18
13010.12
12966.06
12929.02
12895.84
12863.61
12829.85
12792.74
12751.23
12705.47
12657.29
12610.56
12570.44
12541.85
12527.67
12527.84
12539.09
12555.06
12567.27
12568.99
12561.81
12558.24
12573.4
12607.05
12652.17
20591.47
19343.11
18729.79
18154.4
17452.34
16779.2
16331.76
16167.03
16200.96
16300.15
16357.4
16315.88
16164.08
15923.8
15635.85
15343.45
15078.6
14856.59
14679.02
14540.43
14433.87
14353.2
14293
14247.7
14211.27
14177.75
14142
14100.45
14051.28
13994.23
13930.06
13860.04
13785.5
13707.62
13627.31
13545.2
13461.64
13376.79
13290.68
13203.48
13115.69
13028.26
12942.46
12859.58
12780.92
12708.2
12644.06
12592.08
12555.71
12536.72
12533.89
12542.47
12554.71
12562.2
12560.53
12554.13
12554.97
12572.66
12600.57
12634.94
12508.15
14104.84
14933.67
15359.69
15442.64
15246.45
14994.05
14900.62
15018.07
15252.89
15476.44
15606.74
15624.6
15550.59
15416.89
15250.37
15068.49
14882.77
14703.84
14543.76
14414.76
14326.09
14281.27
14277.23
14305.58
14354.97
14413.6
14471.11
14519.4
14552.85
14567.91
14562.54
14535.81
14487.58
14418.43
14329.64
14223.17
14101.53
13967.69
13825.08
13677.66
13529.77
13385.72
13249.11
13122.44
13007.21
12904.68
12816.53
12744.73
12690.43
12652.31
12625.7
12603.74
12581.06
12557.72
12539.55
12533.06
12538.46
12546.57
12554.85
12570.52
13672.41
14373.51
14816.55
15023.34
14958.59
14741.33
14581.9
14599.71
14759.97
14952.72
15094.31
15164.07
15180.33
15163.03
15115.9
15030.99
14902.11
14734.44
14545.52
14359.81
14201.22
14087.18
14025.92
14016.7
14051.9
14119.83
14207.3
14301.64
14391.83
14469.07
14526.81
14560.54
14567.66
14547.29
14500.11
14428.14
14334.47
14222.91
14097.85
13964.09
13826.62
13690.17
13558.54
13434.08
13317.7
13209.56
13110.14
13020.78
12942.9
12876.22
12817.87
12764.2
12714.88
12674.88
12650.15
12639.96
12635.82
12629.2
12624.37
15843.11
15294.99
15267.48
15291.71
15256.44
15121.35
14893.19
14665.74
14541.27
14538.24
14599.44
14663.94
14712.79
14758.32
14810.29
14857.35
14873.11
14833.19
14728.1
14566.01
14367.94
14160.14
13967.5
13809.25
13697.04
13634.7
13619.36
13643.16
13695.33
13764.09
13838.22
13908.09
13966.3
14007.85
14030.15
14032.78
14016.99
13985.17
13940.31
13885.49
13823.67
13757.5
13689.12
13619.95
13550.46
13480.18
13408.22
13334.22
13258.97
13184.06
13110.59
13038.69
12969.5
12907.95
12861.89
12835.52
12822.5
12810.01
12792.54
12779.6
13804.72
13980.4
14282.76
14528.42
14631.39
14612.8
14498.09
14331.7
14187.02
14115.69
14115.16
14153.81
14211.06
14287.99
14390.33
14510.95
14628.03
14715.04
14751.68
14729.15
14649.9
14524.7
14369.29
14201.33
14037.74
13892.44
13774.77
13688.82
13633.81
13605.17
13596.09
13599.09
13607.32
13615.51
13620.4
13620.76
13616.97
13610.42
13602.76
13595.24
13588.32
13581.55
13573.74
13563.26
13548.17
13526.38
13495.79
13454.74
13402.55
13339.76
13268.14
13191.19
13115.02
13047.98
12997.07
12962.17
12934.21
12901.11
12863.48
12817.4
13627.51
13697.91
13966.95
14303.63
14532.4
14596.72
14514.86
14327.73
14106.82
13935.58
13861.18
13875.41
13940.91
14026.79
14122.26
14228.86
14347.63
14472.77
14592.21
14691.23
14755.98
14776.28
14747.54
14671.73
14556.92
14415.59
14262.03
14109.72
13969.26
13847.35
13746.76
13667.12
13606.02
13560.27
13526.83
13503.49
13489.01
13482.92
13485.06
13494.99
13511.49
13532.44
13554.99
13576.09
13592.77
13602.23
13601.52
13587.48
13557.1
13508.8
13444.23
13369.5
13294.24
13227.4
13171.85
13121.91
13068.64
13003.28
12937.58
12829.24
13283.3
13348.82
13555.52
13918.06
14290.84
14518.19
14531.4
14341.81
14034.43
13742.43
13578.08
13572.36
13677.32
13818.13
13943.17
14040.03
14122.43
14209.44
14311.76
14427.79
14545.84
14648.84
14719.28
14743.6
14715.18
14635.51
14513.35
14362.49
14198.67
14036.88
13889.23
13763.88
13664.93
13592.96
13545.98
13520.58
13512.89
13519.32
13536.82
13562.82
13594.93
13630.71
13667.69
13703.57
13736.34
13764.06
13784.1
13792.51
13784.52
13756.77
13710.51
13653.12
13595.15
13543.49
13496
13442.91
13377.03
13292.64
13213.61
13056.82
13194.11
13236.31
13364.36
13669.24
14100.59
14475.09
14624.69
14487.81
14132.09
13721.08
13427.89
13343.37
13445.28
13641.76
13840.9
13994.03
14097.86
14173.18
14243.12
14321.42
14409.96
14500.89
14580.43
14632.99
14645.28
14609.64
14525.85
14401.09
14248.28
14083.44
13922.81
13780.35
13666.02
13584.99
13537.78
13521.18
13529.63
13556.63
13595.94
13642.22
13691.36
13740.34
13787.17
13830.79
13870.79
13906.81
13937.44
13959.4
13968.1
13960.38
13937.95
13908.34
13880.67
13858.51
13836.39
13803.59
13754.84
13686.01
13625.71
13478.58
13288.98
13275.63
13342.06
13568.53
13973.93
14413.85
14680.9
14647.04
14330.75
13876.37
13473.64
13261.16
13270.5
13439.71
13672.28
13892.32
14066
14192.8
14286.5
14361.1
14425.17
14481.26
14526.97
14556.28
14561.4
14535.08
14473.07
14375.82
14249.05
14103.12
13951.27
13807.45
13683.99
13589.87
13529.67
13503.53
13507.87
13536.67
13582.79
13639.24
13699.95
13760.2
13816.81
13868.06
13913.31
13952.36
13984.39
14007.41
14018.99
14018.62
14009.94
14000.24
13996.17
13998.56
14001.48
13996.52
13980.43
13950.06
13928.06
13839.95
13204.95
13243.6
13325.24
13522.23
13878.35
14308.4
14635.65
14714.71
14516.01
14128.15
13705.22
13393.27
13270.26
13328.89
13505.04
13724.52
13935.56
14115.33
14259.74
14371.42
14453.59
14509.17
14541.35
14553.25
14546.94
14522.61
14478.84
14413.87
14327.17
14220.79
14099.87
13972.31
13847.63
13735.39
13643.73
13578.21
13541.28
13532.29
13548.02
13583.48
13632.87
13690.29
13750.4
13808.69
13861.51
13905.83
13939.1
13959.55
13967.18
13964.91
13958.54
13954.54
13956.71
13964.38
13973.82
13981.48
13987.12
13989.1
13997.85
13971.37
13331.67
13351.7
13434.95
13609.23
13895.07
14251.18
14567.86
14727.21
14669.2
14415.84
14057.01
13712.16
13480.78
13404.97
13465.71
13610.33
13786.62
13961.46
14120.03
14256.52
14367.18
14449.16
14502.38
14530.53
14539.82
14536.26
14523.37
14501.23
14467.07
14417.05
14348.14
14259.75
14154.48
14038.06
13918.51
13804.86
13705.73
13627.99
13575.93
13550.93
13551.63
13574.42
13614.01
13663.91
13716.91
13765.78
13804.46
13829.69
13842.25
13846.65
13848.58
13851.65
13856.01
13859.98
13863.38
13868.69
13879.68
13896.4
13917.3
13925.24
13476.62
13493.94
13592.27
13755.62
13970.96
14229.24
14497.65
14708.44
14786.36
14690.11
14440.25
14116.69
13822.81
13636.17
13578.63
13623.05
13723.65
13843.74
13965.19
14082.37
14192.66
14291.9
14375.56
14441.63
14491.92
14530.8
14562.57
14589.08
14608.62
14616.34
14605.72
14570.52
14506.71
14413.79
14295.32
14158.63
14013.67
13871.5
13742.63
13635.72
13556.65
13508.05
13489.1
13495.48
13519.85
13553.24
13587.46
13617.73
13643.96
13669.05
13695.03
13720.05
13739.38
13750.04
13754.83
13761.4
13776.69
13801.27
13825.55
13847.55
13436.11
13551.28
13704.36
13873.05
14031.55
14201.56
14418.32
14665.7
14864.09
14920.44
14792.41
14518.38
14195.95
13927.29
13769.97
13723.05
13748.73
13805.9
13871.23
13940.39
14017.55
14105.27
14200.92
14298.59
14392.72
14480.16
14560.09
14632.5
14696.5
14749.22
14785.68
14799.59
14784.58
14735.83
14651.38
14533
14386.3
14220.16
14045.62
13874.59
13718.4
13586.44
13484.81
13415.33
13375.4
13359.41
13361.39
13377.59
13407.16
13449.7
13501.6
13554.65
13599.34
13631.01
13653.48
13676.34
13706.79
13744.46
13775.95
13812.43
13950.34
13954.58
14064.63
14178.46
14252.75
14328.57
14481.92
14732.97
15007.31
15180.88
15161.95
14945.8
14611.99
14274.92
14023.96
13889.43
13848.4
13856.53
13879.35
13905.34
13940.5
13995.31
14074.85
14176.14
14290.82
14409.35
14524.04
14629.91
14724.16
14804.91
14870.02
14916.3
14939.47
14934.64
14897.28
14824.41
14715.6
14573.65
14404.76
14218.18
14025.25
13837.95
13666.98
13520.2
13401.9
13313.55
13255.62
13228.8
13233.44
13266.93
13321.46
13384.82
13445.09
13496.34
13541.05
13586.5
13636.77
13690.45
13733.46
13791.98
13798.94
14008.39
14192.38
14309.93
14356.13
14395.13
14519.63
14770.08
15089.51
15352.08
15438.37
15302.03
14989.85
14610.93
14278.24
14058.38
13955.7
13932.02
13941.42
13955.93
13971.46
13998.48
14048.8
14127.22
14230.09
14348.32
14471.51
14590.83
14700.21
14796.17
14876.96
14941.44
14988.1
15014.52
15017.23
14992.26
14935.97
14846.17
14723.13
14570.22
14393.9
14202.99
14007.35
13816.69
13639.92
13485.34
13360.87
13273.27
13226.02
13217.04
13238.2
13277.97
13325.83
13376.05
13428.12
13483.84
13542.51
13602.84
13652.2
13729.66
14615.71
14650.13
14726.66
14751.38
14725.65
14711.71
14787.26
14991.17
15287.69
15573.18
15724.81
15663.04
15392.11
14996.25
14595.36
14287.73
14113.01
14052.31
14056.54
14079.94
14099.25
14114.07
14135.87
14176.12
14239.82
14324.8
14424.36
14530.33
14635.3
14733.63
14821.6
14897.13
14959.05
15006.34
15037.43
15049.85
15040.32
15005.26
14941.7
14848.07
14724.75
14574.3
14401.4
14212.89
14018.02
13828.42
13656.84
13514.58
13408.31
13338.43
13300.26
13287.2
13293.7
13315.91
13350.4
13393.03
13438.91
13487.98
13530.48
13610.11
14920.96
15039.36
15101.88
15088.92
15039.14
15012.35
15061.32
15213.63
15455.8
15722.5
15911.14
15926.6
15731.97
15371.55
14949.97
14580.79
14336.51
14227.54
14215.78
14246.97
14279.43
14296.11
14300.46
14305.14
14321.99
14357.31
14411.62
14481.56
14561.92
14647.1
14731.99
14812.48
14885.59
14949.3
15002.16
15042.66
15068.85
15078.1
15067.11
15032.25
14969.92
14877.23
14753.14
14599.85
14424.01
14236.68
14051.19
13879.6
13729.65
13604.17
13503.29
13427.25
13376.95
13351.74
13346.9
13354.64
13368.09
13388.48
13409.88
13469.99
15558.94
15639.72
15617.86
15534.06
15448.74
15403.94
15416.7
15497.18
15651.09
15855.71
16043.41
16121.66
16021.42
15739.43
15344.43
14943.54
14630.99
14450.36
14388.65
14398.37
14428.65
14446.92
14444.08
14427.34
14409.76
14402.53
14412.11
14440.44
14486.35
14546.84
14617.86
14694.96
14773.85
14850.77
14922.74
14987.44
15042.92
15087.1
15117.24
15129.48
15118.82
15079.8
15008.16
14902.9
14767.84
14611.3
14443.6
14273.86
14107.99
13949.63
13802.77
13673.45
13568.1
13489.49
13433.94
13393.64
13362.46
13342.28
13331.76
13353.91
17041.32
16713.02
16448.48
16221.37
16057.61
15956.97
15899.58
15881.82
15923.39
16035.95
16188.18
16302.71
16291.82
16107.46
15771.39
15365.84
14992.03
14723.41
14580.42
14536.17
14542.32
14556.07
14554.54
14534.73
14505.08
14476.69
14458.21
14454.62
14467.97
14498.43
14544.88
14605.04
14675.74
14753.15
14833.35
14912.72
14988.12
15056.72
15115.41
15160.15
15185.75
15186.52
15157.86
15098.13
15009.57
14897.35
14767.19
14623.18
14467.68
14303.42
14136.12
13974.73
13828.51
13702.67
13596.2
13504.42
13424.15
13357.45
13308.15
13279.2
16879.53
16807.38
16607.39
16418.67
16287.32
16194.3
16113.61
16046.51
16023.24
16076.25
16203.97
16352.26
16431.55
16362.52
16121.24
15754.2
15354.38
15015.1
14790.4
14682.22
14655.06
14662.8
14670.66
14663.32
14641.23
14612.11
14584.15
14563.08
14552.29
14553.89
14569.41
14599.72
14644.66
14702.7
14771.13
14846.46
14924.87
15002.42
15074.87
15137.36
15184.56
15211.4
15214.46
15192.94
15148.46
15083.35
14998.67
14893.62
14766.99
14619.99
14457.99
14289.67
14123.84
13966.32
13819
13681.78
13555.47
13442.25
13351.82
13263.52
17725.59
17415.19
17094.13
16843.08
16669.19
16532.95
16405.26
16286.58
16203.99
16194.51
16275.98
16419.92
16549.58
16571.94
16426.63
16119.83
15721.85
15330.91
15027.26
14844.03
14766.54
14753.31
14761.82
14764.81
14753.09
14729.4
14700.47
14671.92
14647.18
14628.44
14617.94
14618.27
14631.9
14660.34
14703.64
14760.24
14827.21
14900.5
14975.09
15045.39
15105.88
15152.26
15182.4
15196.36
15194.97
15177.88
15142.36
15084.08
14999.64
14888.95
14755.78
14606.11
14445.74
14279.2
14110.33
13943.09
13782.21
13629.95
13502.87
13353.14
17849.1
17535.19
17218.25
16962.43
16774.37
16626.94
16495.74
16373.18
16273.92
16230.52
16272.99
16398.66
16554.7
16652.22
16608.32
16390.61
16035.56
15629.83
15267.65
15010.66
14870.87
14820.35
14815.55
14819.76
14813.74
14794.09
14765.59
14734.15
14703.46
14675.16
14650.46
14631.41
14621.04
14622.66
14638.86
14670.74
14717.48
14776.28
14842.69
14911.39
14977.5
15037.77
15091.12
15137.7
15176.93
15205.83
15218.94
15210.21
15175.55
15114.08
15027.35
14917.44
14785.97
14635
14468.76
14293.52
14116.74
13940.5
13789.03
13584.19
17557.51
17342.15
17105.88
16887.89
16710.82
16575.4
16466.99
16369.28
16282.09
16228.26
16241.83
16340.57
16499.77
16648.52
16697.48
16583.84
16305.66
15923.91
15531.96
15212.32
15005.56
14905.13
14874.5
14871.9
14868.14
14851.78
14824.22
14791.57
14758.77
14727.78
14698.72
14671.85
14648.79
14632.55
14626.69
14634.19
14656.39
14692.49
14739.86
14794.95
14854.78
14917.89
14984.18
15053.39
15123.19
15188.41
15242.11
15278.01
15292.32
15283.59
15250.98
15192.68
15106.34
14991.29
14850.72
14690.91
14520.38
14340.39
14182.73
13938.48
17180.5
17032.99
16887.61
16725.16
16576.25
16462.12
16379.33
16310.87
16247.58
16200.74
16199.33
16271.09
16415.57
16587.15
16705.1
16689.87
16504.9
16177.56
15786.29
15422.96
15153.43
14997.34
14933.3
14920.42
14921.14
14913.89
14893.64
14864.95
14834.19
14805.03
14777.93
14751.87
14726.42
14702.83
14683.82
14672.59
14671.59
14681.81
14702.94
14734.26
14775.7
14828.22
14892.83
14968.84
15052.55
15137.6
15216.97
15285.22
15339.29
15377.13
15395.69
15390.16
15355.4
15288.5
15190.67
15066.27
14923.2
14761.18
14617.75
14358.32
16218.07
16368.11
16417.64
16378.14
16303.53
16234.4
16185.8
16152.64
16125.81
16106.61
16113.1
16172.79
16301.28
16478.69
16643.31
16713.53
16627.91
16379.05
16019.67
15637.75
15316.58
15102.72
14996.81
14966.76
14970.88
14977.14
14970.85
14951.76
14926.16
14899.99
14875.75
14852.89
14829.83
14805.82
14781.6
14759.04
14740.24
14727.02
14721.09
14724.63
14740.72
14772.7
14822.63
14889.65
14969.57
15056.21
15143.78
15228.4
15307.74
15379.13
15437.97
15477.8
15492.23
15476.96
15431
15355.84
15257.51
15133.54
15023.46
14779.55
16016.04
16160.56
16262.66
16272.72
16221.92
16154.72
16102.29
16073.52
16062
16060.12
16072.44
16119.06
16222.81
16385.01
16567.49
16698.34
16703.03
16543.33
16239.7
15863.28
15503.22
15228.91
15067.18
15003.01
14997.85
15012.04
15019.78
15012.42
14993.13
14968.99
14945.32
14923.73
14903.12
14881.55
14857.66
14831.1
14802.51
14773.46
14746.8
14726.88
14719.07
14728.33
14757.34
14805.32
14868.6
14942.5
15023.36
15109.1
15198.04
15287.09
15371.01
15443.21
15497.48
15529.17
15535.63
15515.68
15472.87
15402.14
15339.4
15143.03
15940.2
16069.44
16196.86
16242.9
16205.51
16127.26
16055.68
16015.76
16006.84
16015.63
16034.27
16072.04
16151.62
16289.02
16469.55
16639.29
16722.68
16658.8
16434.42
16093.52
15717.91
15390.95
15165.19
15049.26
15016.47
15025.77
15041.83
15045.46
15033.26
15010.89
14985.7
14962.28
14941.46
14921.42
14899.41
14873.02
14841.09
14804.37
14765.95
14731.14
14706.17
14696.3
14704.07
14728.97
14768.58
14820.53
14883.62
14957.38
15040.6
15130.18
15221.22
15308.32
15386.62
15452.13
15501.68
15532.52
15545.64
15533.44
15522.52
15397.48
16064.16
16133.78
16245.93
16309.44
16282.24
16190.2
16089.06
16020.39
15994.74
15999.63
16018.73
16049.25
16107.22
16215.06
16377.57
16562.93
16705.49
16732.83
16602.43
16325.59
15964.43
15604.17
15317.24
15138.27
15060.17
15048.64
15063.54
15075.48
15071.85
15053.61
15028
15001.96
14978.85
14958.13
14936.78
14911.23
14879.11
14840.45
14798.15
14757.32
14723.56
14701.03
14691.42
14694.39
14709.1
14735.53
14774.58
14826.88
14891.53
14965.8
15046.03
15128.77
15211.29
15291.16
15365.95
15432.74
15490.23
15529.02
15562.66
15516.19
16267.34
16265.89
16337.68
16404.38
16396.49
16308.34
16185.72
16080.88
16021.1
16004.48
16014.05
16037.24
16078.94
16159.31
16295.1
16475.92
16653.68
16756.57
16721.98
16529.22
16212.3
15845.6
15511.45
15267.74
15131.58
15083.49
15085.52
15101.14
15107.73
15098.64
15077.93
15053.05
15029.4
15008.21
14987.25
14962.95
14932.74
14896.55
14857
14818.32
14784.42
14757.5
14737.89
14725.27
14720.07
14724
14739.16
14766.63
14805.71
14854.4
14910.71
14973.45
15042.22
15116.73
15196.23
15278.56
15360.71
15432.66
15494.79
15516.69
16297.73
16312.43
16366.83
16439.03
16466.37
16412.93
16297.43
16169.25
16071.32
16020.2
16008.5
16020.68
16050.89
16110.9
16220.71
16386.07
16578.97
16737.88
16791.35
16692.61
16444.43
16099.97
15739.66
15437.64
15235.6
15135.12
15108.28
15117
15130.27
15132.17
15120.68
15101.22
15079.9
15059.64
15039.67
15017.47
14991.17
14961.09
14929.58
14899.62
14873.08
14850.03
14829.48
14810.94
14795.5
14785.48
14783.12
14789.3
14803.46
14824.57
14852.35
14887.73
14932.48
14988.45
15056.78
15136.28
15222.79
15307.04
15379.36
15448.6
16456.45
16439.91
16450.67
16497.67
16541.06
16527.23
16439.37
16306.28
16174.99
16080.25
16031.5
16019.23
16032.18
16072.54
16156.87
16299.81
16491.38
16685.79
16813.04
16809.02
16647.04
16352.38
15992.19
15646.78
15378.41
15212.68
15138.7
15123.87
15132.73
15140.48
15136.99
15123.14
15104.1
15084.06
15064.26
15043.98
15022.63
15000.98
14980.85
14963.71
14949.49
14936.6
14923.21
14908.67
14894.01
14881.06
14871.19
14864.61
14860.87
14859.96
14863.1
14872.93
14892.98
14926.85
14976.92
15042.58
15118.91
15198.62
15266.73
15360.16
16568.08
16544.21
16524
16538.67
16581.22
16602.07
16557.34
16445.34
16301.98
16171.49
16080.98
16033.92
16021.14
16038.38
16095.88
16210.95
16387.44
16597.39
16780.47
16865.14
16800.73
16582.29
16254.31
15891.81
15569.68
15336.11
15201.82
15146.62
15136.29
15139.54
15137.55
15124.69
15103.53
15078.97
15054.7
15032.61
15013.75
14999.19
14989.73
14985.1
14983.61
14982.77
14980.55
14976.28
14970.42
14963.56
14955.57
14945.77
14933.71
14920.16
14907.5
14899.61
14901.24
14916.96
14949.43
14997.81
15056.9
15122.23
15178.11
15276.24
16702.1
16660.15
16613.31
16593.36
16617.24
16653.62
16649.1
16574
16441.81
16293.21
16167.05
16081.89
16036.71
16025.46
16051.94
16131.78
16278.06
16480.52
16694.68
16851.62
16885.29
16762.56
16499.41
16154.58
15804.86
15515.32
15319.01
15213.42
15171.8
15160.42
15152.75
15135.44
15106.78
15071.51
15035.94
15005.17
14982.42
14968.99
14964.47
14966.84
14973.21
14980.83
14988.07
14994.37
14999.45
15002.43
15001.67
14995.56
14983.52
14966.72
14948.2
14932.46
14924.79
14929.72
14949.19
14981.69
15022.39
15070.03
15111.33
15200.66
16813.09
16755.68
16693.33
16648.6
16648.34
16682.38
16704.97
16670.66
16568.02
16422.83
16276.05
16158.8
16081.44
16040.52
16034.66
16074.74
16178.14
16349.99
16565.36
16767.16
16884.6
16862.96
16688.71
16396.11
16052.59
15731.06
15483.5
15327.53
15249.29
15217.72
15201.03
15177.95
15140.88
15092.85
15042.07
14996.95
14963.23
14942.92
14934.69
14935.23
14940.97
14949.43
14959.57
14971.03
14982.94
14993.34
14999.55
14999.38
14992.07
14978.82
14962.66
14948.03
14939.71
14941.19
14953.03
14973.13
14997.91
15029.2
15057.29
15130.85
16842.09
16795.06
16736.56
16684.68
16666.65
16688.98
16723.85
16724.98
16661.55
16538.44
16388.99
16251.21
16147.43
16080.65
16046.76
16049.99
16106.61
16232.19
16421.2
16634.9
16808.56
16875.9
16798.16
16581.69
16275.34
15949.59
15668.73
15469.57
15354.86
15301.42
15276.1
15250.79
15210.76
15155.16
15092.17
15032.56
14984.53
14951.36
14931.74
14921.99
14918.54
14919.38
14923.97
14932.12
14942.69
14953.35
14961.31
14964.39
14961.89
14954.82
14945.72
14938.07
14935.1
14938.33
14946.81
14958.44
14971.52
14990.36
15008.38
15064.84
16866.28
16822.26
16769.76
16717.86
16686.83
16691.98
16724.66
16748.59
16723.25
16632.82
16495.59
16348.97
16225.16
16136.72
16080.89
16055.62
16071.4
16147.24
16292.58
16488.99
16686.08
16817.1
16826.41
16694.22
16445.56
16139.33
15843.8
15611.04
15461.74
15385.27
15351.93
15329.42
15295.66
15243.57
15178.47
15111.26
15051.75
15004.9
14970.62
14946.05
14928.3
14915.85
14908.37
14905.59
14906.44
14908.97
14911.13
14911.55
14910.01
14907.46
14905.65
14906.44
14910.7
14917.56
14924.87
14931.19
14936.86
14947.54
14958.63
14999.78
16848.38
16817.41
16778.06
16733.58
16697.04
16686.71
16709.05
16743.05
16748.85
16695.48
16582.73
16439.52
16302.86
16196.07
16122.7
16077.94
16064.66
16098.57
16196.84
16358.41
16551.25
16717.3
16793.98
16741.21
16559.37
16289.27
15994.8
15737.33
15554.38
15451.16
15406.68
15388.62
15368.8
15332.35
15278.48
15215.18
15152.19
15096.05
15048.87
15009.82
14977.34
14950.36
14928.38
14910.81
14896.7
14884.97
14874.87
14866.39
14860.25
14857.6
14859.42
14865.67
14874.68
14883.45
14889.24
14891.72
14892.75
14898.04
14903.92
14931.45
16812.65
16796.07
16771.74
16737.82
16701.28
16679.31
16687.19
16719.26
16744.75
16726.28
16646.28
16518.7
16377.88
16255.67
16165.78
16106.18
16074.08
16078.08
16135.68
16257.21
16428.4
16605.49
16727.98
16743.2
16629.51
16406.3
16125.85
15851.84
15635.24
15498.63
15434.56
15415.97
15411.65
15398.77
15367.89
15320.79
15264.75
15207.08
15152.51
15103.07
15059.06
15019.99
14984.97
14952.92
14923.01
14895.05
14869.73
14848.53
14833.29
14825.56
14825.63
14831.74
14840.2
14846.75
14848.83
14847.14
14844.21
14844.6
14845.29
14858.89
16771.96
16767.3
16756.59
16733.75
16701.15
16672.23
16664.92
16685.82
16717.98
16726.9
16682.95
16582.17
16448.41
16316.23
16209.97
16135.6
16089.44
16073.08
16099.37
16183.41
16325.08
16496.78
16646.69
16717.26
16669.63
16501.14
16247
15965.95
15717.24
15540.1
15444.2
15413.35
15417.98
15429.13
15427.63
15406.44
15367.65
15317.75
15263.54
15210.03
15159.73
15112.93
15068.51
15025.05
14981.82
14939.4
14899.67
14865.41
14839.41
14823.45
14817.18
14817.62
14820.03
14820.05
14815.89
14808.91
14801.41
14796
14790.79
14789.08
16729.62
16735.61
16736.28
16723.92
16697.83
16666.45
16645.9
16650.43
16677.66
16703
16692.55
16626.14
16511.66
16378.86
16259.1
16168.78
16108.68
16076.55
16078.98
16130.62
16240.58
16396.5
16559.17
16672.95
16687.63
16580.11
16365.13
16089.74
15814.91
15593.33
15453.23
15394.07
15393.54
15420.47
15447.12
15456.36
15442.84
15409.87
15364.79
15314.77
15264.35
15214.88
15165.46
15114.68
15062.11
15008.98
14958.09
14913.07
14877.23
14852.23
14837.08
14828.17
14820.83
14811.66
14799.87
14786.93
14774.25
14762.35
14751.1
14734.11
16713.64
16719.45
16724.32
16718.46
16698.28
16666.73
16635.74
16622.47
16636.32
16665.85
16680.57
16649.8
16564.28
16442.23
16315.71
16210.24
16134.68
16087.53
16070.34
16094.25
16172.78
16306.04
16469.05
16613.57
16684.31
16641.5
16478.29
16224.61
15935.95
15672.9
15480.73
15377.35
15353.06
15379.95
15425.21
15462.54
15477.84
15468.96
15441.38
15402.76
15358.92
15312.28
15262.64
15209.12
15151.8
15092.54
15034.73
14982.44
14938.97
14905.54
14880.61
14860.68
14842.12
14823.04
14803.61
14784.82
14766.99
14748.89
14732.51
14703.19
16716.25
16716.04
16719.92
16717.12
16701.55
16671.37
16633.77
16605.21
16602.08
16625.5
16653.94
16653.82
16601.92
16501.26
16377.67
16261.37
16170.23
16107.54
16072.85
16072.9
16121.58
16227.66
16379.94
16541.42
16658.1
16679.03
16577.44
16362.88
16078.58
15785.77
15542.15
15383.86
15317.59
15324.44
15371.91
15427.61
15469.15
15487.22
15482.98
15462.42
15431.42
15393.26
15348.71
15297.74
15241.08
15181.04
15121.27
15065.72
15017.24
14976.47
14941.75
14910.42
14880.56
14851.91
14825.23
14800.79
14777.91
14754.44
14734.13
14697.23
16733.58
16723.83
16722.98
16720.13
16707.45
16679.54
16639.41
16600.39
16580.95
16591.44
16621.78
16642.67
16623.09
16551.02
16440.64
16320.85
16216.52
16138.28
16087.24
16066.72
16088.21
16164.88
16297.03
16460.78
16609.1
16686.5
16650.66
16490.44
16231.73
15928.68
15644.4
15429.69
15308.73
15276.37
15306.34
15364.98
15423.75
15465.83
15486.14
15487.01
15473.07
15447.99
15413.64
15370.98
15321.32
15267.01
15211.3
15157.37
15107.2
15060.9
15017.27
14975.16
14934.65
14896.91
14862.9
14832.23
14803.71
14775.07
14751.15
14710.41
16754.73
16736.26
16729.51
16724.52
16713.32
16688.59
16649.99
16606.42
16574.4
16569.2
16591.73
16622.1
16628.54
16587.54
16499.02
16384.69
16272.22
16179.8
16113.29
16074.85
16072.5
16119.88
16225.19
16377.38
16540.38
16661.01
16687.73
16591.43
16378.32
16088.81
15783.3
15521.11
15341.91
15256.79
15250.94
15294.81
15357.24
15414.92
15455.72
15476.83
15480.54
15470.48
15449.65
15420.1
15383.55
15341.88
15297.12
15250.85
15203.69
15155.35
15105.5
15054.85
15005.35
14959.18
14917.38
14879.24
14843.69
14808.98
14780.41
14736.42
16769.42
16746.93
16735.46
16727.29
16716.54
16695.83
16662.29
16619.91
16580.68
16560.68
16569.34
16598.33
16621.41
16609.13
16547.89
16447.89
16334.33
16230.92
16149.99
16095.47
16072.51
16092.56
16167.62
16297.21
16458.07
16604.97
16684.25
16653.96
16501.22
16248.42
15945.72
15653.46
15422.32
15279.39
15224.72
15237.73
15288.8
15350.33
15403.49
15439.59
15457.72
15461.1
15453.84
15439.31
15419.64
15395.88
15368.15
15335.75
15297.52
15252.67
15201.78
15147.16
15092.12
15039.38
14990.07
14943.74
14899.96
14857.79
14822.87
14773.02
16779.41
16756.21
16741.24
16729.04
16717.44
16700.74
16674.38
16637.58
16596.66
16565.39
16558.12
16577.45
16606.74
16616.78
16583.95
16505.25
16398.52
16289.07
16195.53
16126.06
16084.91
16080.41
16124.82
16224.84
16369.55
16525.31
16642.71
16673.28
16588.25
16390.5
16114.4
15814.05
15545.1
15348
15238.69
15209.11
15235.25
15288.27
15343.94
15387.66
15414.69
15427.19
15430.28
15428.85
15425.72
15421.21
15413.41
15399.13
15375.29
15340.41
15295.49
15243.66
15188.66
15133.29
15078.84
15025.53
14973.94
14923.83
14881.59
14822.11
16785.85
16764.27
16747.02
16730.56
16716.98
16703.38
16684.51
16655.77
16617.9
16580.44
16558.9
16564.04
16590.11
16613.48
16605.79
16552.11
16459.56
16350.4
16247.39
16164.07
16106.25
16079.84
16095.26
16162.85
16281.83
16431.4
16571.1
16652.09
16634.53
16503.01
16273.2
15987.11
15699.01
15458.24
15295.44
15216.88