/*--------------------------------*- C++ -*----------------------------------*\
| =========                 |                                                 |
| \\      /  F ield         | OpenFOAM: The Open Source CFD Toolbox           |
|  \\    /   O peration     | Version:  2312                                  |
|   \\  /    A nd           | Website:  www.openfoam.com                      |
|    \\/     M anipulation  |                                                 |
\*---------------------------------------------------------------------------*/
FoamFile
{
    version     2.0;
    format      ascii;
    arch        "LSB;label=32;scalar=64";
    class       volScalarField;
    location    "3750";
    object      ILambda_2_0;
}
// * * * * * * * * * * * * * * * * * * * * * * * * * * * * * * * * * * * * * //

dimensions      [1 0 -3 0 0 0 0];

internalField   nonuniform List<scalar> 
12000
(
2314.914
1828.792
1456.04
1183.689
991.1917
859.3017
772.4368
718.5748
688.3816
674.4851
671.1389
674.0735
680.2999
687.8072
695.2456
701.6995
706.5869
709.6462
710.9317
710.7589
709.5933
707.9155
706.1099
704.4086
702.8956
701.552
700.3114
699.106
697.8909
696.6484
695.3803
694.096
692.8021
691.5009
690.1824
688.8285
687.4256
685.974
684.4927
683.0002
681.4928
679.9677
678.435
676.9727
675.6368
674.409
673.2119
672.03
670.8928
669.7639
668.4902
666.8722
664.8934
662.5771
659.8398
656.5149
652.426
647.0662
641.4067
625.7096
2751.589
2725.766
2580.065
2357.799
2099.867
1836.876
1589.093
1368.486
1180.946
1028.074
908.5299
819.0792
755.4527
713.0224
687.2708
674.0638
669.7786
671.3497
676.2848
682.6688
689.1462
694.871
699.4195
702.6799
704.7372
705.7749
706.004
705.6221
704.7955
703.6571
702.311
700.8379
699.2997
697.7416
696.1954
694.6788
693.1954
691.7376
690.2925
688.8518
687.4132
685.9732
684.5228
683.0489
681.5627
680.0991
678.6883
677.3281
676.0078
674.7368
673.5335
672.3777
671.1823
669.8671
668.3923
666.698
664.8139
662.2687
660.5573
653.8848
2735.644
2777.064
2805.075
2793.579
2730.295
2615.222
2456.443
2266.187
2057.922
1844.424
1636.624
1443.019
1269.506
1119.528
994.403
893.7578
815.9644
758.5473
718.5346
692.7545
678.0785
671.6115
670.8233
673.622
678.3723
683.8701
689.2878
694.1061
698.0425
700.9874
702.9494
704.0121
704.3015
703.961
703.1351
701.958
700.5454
698.9905
697.3617
695.706
694.0545
692.4263
690.8305
689.2629
687.7134
686.1774
684.662
683.1763
681.7232
680.3054
678.9353
677.6336
676.4033
675.2226
674.0655
672.8862
671.7152
670.3151
669.3318
666.6104
2705.875
2719.077
2743.996
2775.827
2803.691
2815.176
2799.824
2751.007
2666.472
2548.001
2400.563
2231.257
2048.245
1859.82
1673.664
1496.333
1332.96
1187.151
1061.016
955.3101
869.6405
802.7144
752.5988
716.9729
693.3532
679.2798
672.4563
670.8433
672.7108
676.6544
681.5863
686.7081
691.4725
695.5403
698.7369
701.0114
702.3998
702.9938
702.9152
702.2956
701.2628
699.9323
698.4028
696.7536
695.0434
693.3116
691.5843
689.8799
688.2111
686.5849
685.0054
683.479
682.0154
680.6222
679.3029
678.0443
676.8636
675.6576
674.7071
672.8762
2650.244
2663.601
2677.305
2695.242
2719.445
2748.725
2778.753
2803.073
2814.462
2806.249
2773.33
2712.785
2624.099
2509.044
2371.314
2216.01
2049.065
1876.681
1704.845
1538.929
1383.416
1241.736
1116.203
1008.055
917.5511
844.1313
786.5924
743.2795
712.265
691.5087
678.99
672.8099
671.2616
672.8738
676.4292
680.9637
685.7514
690.2786
694.2128
697.3693
699.6769
701.1475
701.8484
701.8806
701.3606
700.4056
699.1248
697.6134
695.9516
694.2038
692.4195
690.6348
688.8764
687.1651
685.5168
683.9394
682.4522
680.9914
679.8232
677.7543
2555.273
2577.913
2598.822
2618.22
2637.564
2658.822
2683.512
2711.894
2742.555
2772.435
2797.223
2811.969
2811.764
2792.383
2750.785
2685.425
2596.383
2485.293
2355.14
2209.947
2054.409
1893.514
1732.188
1574.984
1425.851
1287.966
1163.654
1054.375
960.7702
882.7518
819.6287
770.2423
733.1083
706.5504
688.8192
678.1923
673.0516
671.9387
673.5899
676.9521
681.1838
685.6437
689.8717
693.5633
696.5434
698.7383
700.1498
700.8315
700.8693
700.3655
699.4268
698.1553
696.6437
694.9715
693.2056
691.3988
689.6026
687.7877
686.2777
683.6395
2455.547
2461.054
2473.773
2491.761
2513.073
2536.448
2561.483
2588.438
2617.811
2649.845
2684.109
2719.252
2752.955
2782.075
2802.942
2811.746
2804.944
2779.641
2733.884
2666.852
2578.928
2471.658
2347.609
2210.16
2063.239
1911.047
1757.787
1607.42
1463.472
1328.884
1205.925
1096.156
1000.444
919.0181
851.5455
797.2382
754.9616
723.3454
700.8886
686.0511
677.3316
673.3276
672.7783
674.5914
677.8555
681.8401
685.9866
689.8919
693.2875
696.0173
698.0138
699.2768
699.8532
699.8193
699.2691
698.2973
697.0148
695.4365
693.987
691.0907
2732.904
2659.604
2597.753
2549.345
2514.792
2493.354
2483.636
2484.047
2493.14
2509.749
2532.96
2561.955
2595.796
2633.21
2672.438
2711.175
2746.615
2775.593
2794.807
2801.078
2791.613
2764.244
2717.622
2651.328
2565.91
2462.847
2344.44
2213.648
2073.892
1928.837
1782.184
1637.466
1497.888
1366.197
1244.59
1134.677
1037.47
953.4124
882.4361
824.0361
777.357
741.2857
714.541
695.7578
683.56
676.6215
673.7132
673.7361
675.7415
678.9397
682.6986
686.5354
690.1021
693.167
695.5989
697.334
698.4004
698.7543
698.7817
697.3781
2836.519
2885.78
2894.224
2871.524
2828.463
2774.602
2717.612
2663.203
2615.323
2576.471
2548.04
2530.624
2524.246
2528.493
2542.569
2565.291
2595.062
2629.844
2667.169
2704.188
2737.781
2764.708
2781.794
2786.129
2775.258
2747.353
2701.332
2636.936
2554.74
2456.113
2343.124
2218.408
2085.008
1946.192
1805.285
1665.499
1529.792
1400.75
1280.506
1170.689
1072.411
986.2729
912.4086
850.5364
800.0299
759.9935
729.3405
706.8679
691.3244
681.47
676.124
674.2016
674.7401
676.9123
680.035
683.5565
687.0781
690.2741
692.9044
695.5937
1304.298
1655.238
1960.496
2212.146
2408.053
2550.573
2645.209
2699.359
2721.262
2719.184
2700.839
2673.041
2641.539
2610.969
2584.897
2565.883
2555.565
2554.731
2563.38
2580.781
2605.528
2635.622
2668.563
2701.474
2731.258
2754.761
2768.954
2771.112
2758.973
2730.873
2685.837
2623.635
2544.782
2450.497
2342.623
2223.514
2095.894
1962.712
1826.99
1691.678
1559.532
1433.001
1314.157
1204.636
1105.618
1017.827
941.5543
876.7004
822.8301
779.2351
745.001
719.0741
700.324
687.6007
679.7798
675.8105
674.7084
675.7385
677.6074
682.4124
1167.067
1135.372
1196.429
1328.196
1504.959
1703.101
1903.13
2090.321
2254.675
2390.484
2495.657
2570.943
2619.144
2644.4
2651.578
2645.775
2631.93
2614.551
2597.518
2583.955
2576.156
2575.554
2582.717
2597.392
2618.558
2644.528
2673.068
2701.545
2727.092
2746.782
2757.804
2757.632
2744.166
2715.856
2671.778
2611.68
2535.983
2445.746
2342.598
2228.634
2106.302
1978.275
1847.313
1716.145
1587.347
1463.249
1345.86
1236.813
1137.335
1048.245
969.9612
902.5356
845.6945
798.8931
761.3665
732.211
710.3752
694.8719
684.6256
677.2473
1897.106
1729.106
1575.258
1458.068
1391.389
1379.826
1420.467
1505.172
1622.785
1761.037
1908.049
2053.375
2188.638
2307.807
2407.203
2485.313
2542.463
2580.436
2602.059
2610.813
2610.468
2604.771
2597.192
2590.71
2587.671
2589.687
2597.586
2611.41
2630.462
2653.382
2678.262
2702.79
2724.408
2740.477
2748.444
2746.001
2731.215
2702.638
2659.387
2601.18
2528.344
2441.787
2342.937
2233.662
2116.162
1992.864
1866.302
1739.002
1613.383
1491.661
1375.782
1267.366
1167.673
1077.592
997.6471
928.0024
868.6175
818.4771
780.471
734.655
1570.934
1656.54
1685.517
1667.064
1617.371
1554.606
1495.624
1453.928
1438.631
1454.234
1501.031
1575.904
1673.31
1786.284
1907.379
2029.436
2146.18
2252.608
2345.191
2421.915
2482.193
2526.687
2557.058
2575.693
2585.421
2589.236
2590.05
2590.477
2592.663
2598.164
2607.867
2621.967
2639.984
2660.828
2682.891
2704.175
2722.435
2735.327
2740.565
2736.061
2720.05
2691.193
2648.647
2592.109
2521.826
2438.57
2343.594
2238.562
2125.458
2006.49
1883.987
1760.296
1637.69
1518.276
1403.955
1296.232
1196.838
1104.507
1030.592
923.4953
1501.088
1520.754
1557.293
1594.707
1620.28
1627.176
1614.436
1585.849
1548.348
1510.292
1479.936
1464.262
1468.23
1494.424
1543.046
1612.189
1698.283
1796.639
1902.02
2009.163
2113.228
2210.134
2296.784
2371.171
2432.389
2480.549
2516.635
2542.313
2559.714
2571.202
2579.168
2585.82
2593.026
2602.187
2614.145
2629.151
2646.866
2666.401
2686.4
2705.142
2720.666
2730.906
2733.828
2727.554
2710.486
2681.39
2639.472
2584.419
2516.409
2436.103
2344.602
2243.391
2134.266
2019.232
1900.483
1779.993
1660.851
1540.754
1441.061
1274.98
1451.203
1457.918
1469.213
1488.444
1514.444
1542.863
1568.131
1585.221
1590.886
1584.276
1566.948
1542.459
1515.692
1492.082
1476.866
1474.454
1487.979
1519.049
1567.699
1632.515
1710.881
1799.321
1893.872
1990.454
2085.207
2174.765
2256.457
2328.429
2389.684
2440.053
2480.109
2511.026
2534.413
2552.138
2566.134
2578.238
2590.03
2602.721
2617.065
2633.314
2651.209
2670.013
2688.571
2705.396
2718.775
2726.889
2727.931
2720.22
2702.31
2673.072
2631.762
2578.065
2512.11
2434.448
2346.12
2248.151
2143.51
2028.186
1929.503
1740.405
1435.626
1435.163
1435.688
1438.604
1445.812
1458.543
1476.635
1498.395
1520.975
1541.048
1555.555
1562.316
1560.439
1550.486
1534.387
1515.168
1496.547
1482.464
1476.624
1482.106
1501.066
1534.566
1582.532
1643.818
1716.374
1797.469
1883.961
1972.573
2060.144
2143.86
2221.42
2291.151
2352.061
2403.837
2446.782
2481.724
2509.882
2532.722
2551.802
2568.626
2584.509
2600.473
2617.164
2634.806
2653.187
2671.682
2689.292
2704.725
2716.482
2722.956
2722.543
2713.736
2695.233
2665.986
2625.375
2572.764
2509.624
2430.595
2360.857
2201.569
1457.664
1452.163
1446.898
1442.045
1438.163
1436.264
1437.572
1443.095
1453.216
1467.463
1484.513
1502.4
1518.848
1531.672
1539.157
1540.358
1535.28
1524.908
1511.118
1496.458
1483.873
1476.381
1476.762
1487.29
1509.524
1544.193
1591.151
1649.43
1717.348
1792.684
1872.867
1955.196
2037.034
2115.998
2190.094
2257.826
2318.243
2370.952
2416.079
2454.196
2486.22
2513.296
2536.668
2557.556
2577.041
2595.967
2614.872
2633.939
2652.981
2671.451
2688.482
2702.94
2713.51
2718.757
2717.312
2707.57
2689.401
2657.613
2628.36
2536.173
1439.284
1442.32
1443.706
1443.57
1442.103
1439.631
1436.73
1434.264
1433.267
1434.741
1439.413
1447.549
1458.84
1472.405
1486.9
1500.711
1512.205
1519.982
1523.113
1521.299
1514.953
1505.197
1493.758
1482.805
1474.739
1471.957
1476.627
1490.493
1514.723
1549.822
1595.606
1651.233
1715.289
1785.919
1860.976
1938.19
2015.332
2090.357
2161.529
2227.505
2287.39
2340.748
2387.575
2428.25
2463.452
2494.066
2521.075
2545.457
2568.087
2589.652
2610.587
2631.028
2650.804
2669.419
2686.151
2699.847
2709.913
2713.024
2715.128
2690.723
1454.642
1449.395
1445.913
1443.648
1442.023
1440.527
1438.776
1436.588
1434.047
1431.516
1429.586
1428.967
1430.343
1434.226
1440.82
1449.942
1461.006
1473.069
1484.954
1495.403
1503.261
1507.653
1508.123
1504.735
1498.105
1489.37
1480.101
1472.165
1467.564
1468.253
1475.969
1492.087
1517.506
1552.581
1597.109
1650.347
1711.087
1777.755
1848.53
1921.481
1994.697
2066.41
2135.094
2199.542
2258.913
2312.742
2360.935
2403.715
2441.57
2475.169
2505.278
2532.669
2558.04
2581.932
2604.707
2626.395
2646.994
2665.712
2682.043
2699.086
1478.774
1474.083
1468.915
1463.785
1459.03
1454.785
1451.012
1447.553
1444.206
1440.81
1437.321
1433.852
1430.691
1428.266
1427.084
1427.635
1430.299
1435.243
1442.365
1451.264
1461.26
1471.468
1480.894
1488.573
1493.694
1495.728
1494.518
1490.335
1483.886
1476.273
1468.916
1463.437
1461.531
1464.822
1474.732
1492.369
1518.437
1553.192
1596.422
1647.472
1705.298
1768.55
1835.669
1904.994
1974.874
2043.766
2110.318
2173.439
2232.337
2286.532
2335.853
2380.402
2420.509
2456.661
2489.443
2519.454
2547.149
2573.561
2595.512
2630.353
1456.22
1456.879
1457.188
1456.977
1456.215
1454.979
1453.393
1451.564
1449.544
1447.332
1444.885
1442.153
1439.127
1435.868
1432.546
1429.438
1426.914
1425.394
1425.288
1426.923
1430.476
1435.92
1442.998
1451.226
1459.936
1468.344
1475.641
1481.094
1484.152
1484.526
1482.253
1477.725
1471.681
1465.167
1459.465
1455.993
1456.202
1461.461
1472.953
1491.586
1517.925
1552.153
1594.064
1643.079
1698.293
1758.539
1822.474
1888.659
1955.657
2022.11
2086.815
2148.779
2207.25
2261.744
2312.016
2358.127
2399.989
2439.232
2470.388
2520.45
1549.136
1529.988
1513.956
1500.782
1490.018
1481.209
1473.955
1467.93
1462.874
1458.566
1454.813
1451.433
1448.257
1445.132
1441.941
1438.625
1435.201
1431.782
1428.573
1425.862
1423.983
1423.272
1424.015
1426.389
1430.42
1435.954
1442.653
1450.017
1457.424
1464.201
1469.702
1473.382
1474.883
1474.087
1471.16
1466.561
1461.031
1455.55
1451.272
1449.446
1451.325
1458.076
1470.697
1489.943
1516.274
1549.827
1590.408
1637.507
1690.337
1747.89
1809
1872.416
1936.878
2001.194
2064.257
2125.273
2183.039
2239.158
2284.241
2358.103
1505.086
1509.494
1510.274
1508.292
1504.425
1499.39
1493.733
1487.849
1482.015
1476.413
1471.153
1466.283
1461.803
1457.671
1453.812
1450.132
1446.532
1442.928
1439.275
1435.585
1431.941
1428.503
1425.497
1423.194
1421.876
1421.79
1423.112
1425.902
1430.08
1435.415
1441.533
1447.947
1454.1
1459.427
1463.417
1465.679
1465.999
1464.382
1461.076
1456.576
1451.605
1447.072
1444.018
1443.546
1446.748
1454.626
1468.032
1487.601
1513.717
1546.487
1585.732
1631.009
1681.632
1736.738
1795.274
1856.31
1918.068
1982.341
2035.846
2131.006
1641.85
1609.065
1583.29
1563.075
1546.972
1533.827
1522.796
1513.286
1504.892
1497.348
1490.484
1484.192
1478.405
1473.074
1468.155
1463.602
1459.354
1455.341
1451.482
1447.694
1443.911
1440.096
1436.256
1432.46
1428.835
1425.567
1422.882
1421.021
1420.206
1420.607
1422.311
1425.29
1429.395
1434.354
1439.786
1445.237
1450.221
1454.271
1456.993
1458.117
1457.539
1455.351
1451.855
1447.558
1443.153
1439.479
1437.475
1438.118
1442.364
1451.083
1465.005
1484.678
1510.422
1542.336
1580.222
1623.867
1671.951
1726.833
1774.321
1869.962
1687.434
1675.521
1659.467
1641.177
1622.2
1603.579
1585.937
1569.595
1554.674
1541.17
1529.01
1518.089
1508.288
1499.49
1491.585
1484.474
1478.065
1472.27
1467.002
1462.167
1457.67
1453.414
1449.303
1445.262
1441.24
1437.23
1433.273
1429.468
1425.961
1422.939
1420.607
1419.164
1418.773
1419.533
1421.459
1424.46
1428.345
1432.822
1437.524
1442.04
1445.955
1448.889
1450.547
1450.757
1449.498
1446.923
1443.365
1439.331
1435.476
1432.572
1431.464
1433.022
1438.085
1447.422
1461.632
1481.336
1506.18
1538.913
1568.281
1639.481
1766.423
1737.661
1713.734
1692.995
1674.162
1656.457
1639.487
1623.103
1607.295
1592.113
1577.63
1563.917
1551.022
1538.979
1527.797
1517.469
1507.974
1499.279
1491.343
1484.116
1477.54
1471.544
1466.049
1460.965
1456.197
1451.653
1447.25
1442.932
1438.676
1434.501
1430.477
1426.718
1423.373
1420.617
1418.622
1417.541
1417.48
1418.477
1420.489
1423.384
1426.944
1430.877
1434.84
1438.469
1441.415
1443.378
1444.145
1443.619
1441.844
1439.016
1435.484
1431.742
1428.405
1426.187
1425.825
1428.201
1433.614
1444.504
1454.497
1490.377
2044.069
1985.896
1930.809
1880.114
1834.36
1793.547
1757.347
1725.276
1696.804
1671.421
1648.668
1628.155
1609.555
1592.607
1577.1
1562.867
1549.778
1537.727
1526.629
1516.416
1507.028
1498.414
1490.52
1483.292
1476.668
1470.576
1464.935
1459.657
1454.657
1449.856
1445.194
1440.641
1436.201
1431.92
1427.886
1424.219
1421.064
1418.57
1416.877
1416.089
1416.261
1417.382
1419.367
1422.055
1425.217
1428.572
1431.806
1434.603
1436.676
1437.794
1437.811
1436.693
1434.529
1431.547
1428.087
1424.687
1421.683
1420.57
1419.177
1427.205
2000.387
2008.835
2004.388
1988.974
1965.192
1935.606
1902.472
1867.643
1832.554
1798.254
1765.462
1734.624
1705.975
1679.596
1655.456
1633.455
1613.447
1595.268
1578.748
1563.723
1550.04
1537.563
1526.175
1515.774
1506.27
1497.583
1489.636
1482.354
1475.656
1469.457
1463.671
1458.21
1452.998
1447.972
1443.095
1438.362
1433.802
1429.478
1425.489
1421.953
1419
1416.753
1415.315
1414.748
1415.063
1416.209
1418.072
1420.475
1423.187
1425.946
1428.471
1430.494
1431.781
1432.163
1431.542
1429.962
1427.46
1424.485
1421.061
1417.131
2139.481
2108.092
2084.724
2065.751
2047.967
2029.131
2007.951
1983.911
1957.062
1927.831
1896.853
1864.85
1832.533
1800.548
1769.435
1739.617
1711.4
1684.977
1660.449
1637.836
1617.1
1598.158
1580.901
1565.205
1550.941
1537.982
1526.21
1515.513
1505.786
1496.929
1488.845
1481.437
1474.608
1468.259
1462.3
1456.646
1451.23
1446.008
1440.96
1436.103
1431.481
1427.171
1423.271
1419.891
1417.14
1415.114
1413.879
1413.461
1413.836
1414.922
1416.585
1418.642
1420.871
1423.03
1424.873
1426.179
1426.765
1426.428
1425.649
1421.943
2178.153
2172.765
2161.089
2145.965
2129.289
2111.907
2093.929
2075.063
2054.886
2033.018
2009.228
1983.466
1955.866
1926.716
1896.412
1865.414
1834.206
1803.252
1772.976
1743.737
1715.821
1689.439
1664.728
1641.757
1620.542
1601.052
1583.221
1566.964
1552.18
1538.759
1526.591
1515.562
1505.56
1496.471
1488.183
1480.584
1473.564
1467.018
1460.855
1454.995
1449.383
1443.989
1438.811
1433.877
1429.245
1424.992
1421.21
1417.995
1415.434
1413.594
1412.509
1412.172
1412.531
1413.485
1414.89
1416.554
1418.301
1419.79
1421.197
1421.338
2131.453
2144.831
2154.154
2158.663
2158.481
2154.214
2146.604
2136.305
2123.78
2109.287
2092.921
2074.677
2054.513
2032.405
2008.391
1982.587
1955.194
1926.493
1896.826
1866.571
1836.126
1805.877
1776.186
1747.373
1719.703
1693.387
1668.575
1645.364
1623.8
1603.887
1585.596
1568.869
1553.629
1539.784
1527.231
1515.86
1505.551
1496.186
1487.641
1479.795
1472.533
1465.75
1459.356
1453.282
1447.483
1441.94
1436.665
1431.695
1427.087
1422.918
1419.267
1416.213
1413.819
1412.124
1411.136
1410.814
1411.109
1411.847
1412.919
1414.583
2081.86
2099.236
2115.342
2129.559
2141.215
2149.787
2155.005
2156.843
2155.451
2151.079
2143.993
2134.431
2122.573
2108.537
2092.395
2074.194
2053.981
2031.826
2007.841
1982.191
1955.093
1926.818
1897.673
1867.995
1838.128
1808.414
1779.173
1750.695
1723.23
1696.983
1672.111
1648.725
1626.894
1606.648
1587.98
1570.857
1555.22
1540.99
1528.07
1516.351
1505.715
1496.038
1487.193
1479.056
1471.513
1464.462
1457.821
1451.529
1445.551
1439.88
1434.533
1429.551
1424.989
1420.914
1417.394
1414.482
1412.227
1410.631
1409.639
1409.374
1909.007
1946.593
1981.586
2013.8
2043.049
2069.092
2091.666
2110.55
2125.605
2136.804
2144.223
2148.025
2148.424
2145.654
2139.944
2131.498
2120.487
2107.051
2091.307
2073.362
2053.328
2031.335
2007.544
1982.148
1955.379
1927.501
1898.805
1869.598
1840.195
1810.905
1782.021
1753.812
1726.514
1700.328
1675.416
1651.898
1629.858
1609.343
1590.364
1572.904
1556.915
1542.328
1529.054
1516.985
1506.004
1495.987
1486.809
1478.349
1470.497
1463.159
1456.261
1449.751
1443.605
1437.82
1432.419
1427.438
1422.934
1418.92
1415.685
1411.759
1869.152
1873.621
1885.626
1903.717
1926.213
1951.538
1978.285
2005.229
2031.317
2055.677
2077.617
2096.627
2112.369
2124.654
2133.421
2138.704
2140.607
2139.271
2134.855
2127.524
2117.432
2104.73
2089.561
2072.07
2052.413
2030.759
2007.299
1982.251
1955.855
1928.376
1900.094
1871.302
1842.293
1813.357
1784.767
1756.779
1729.621
1703.49
1678.551
1654.931
1632.723
1611.986
1592.744
1574.987
1558.678
1543.755
1530.132
1517.707
1506.365
1495.987
1486.453
1477.649
1469.472
1461.838
1454.683
1447.959
1441.672
1435.686
1430.742
1423.198
1859.096
1856.782
1855.681
1857.392
1862.928
1872.709
1886.67
1904.385
1925.176
1948.21
1972.576
1997.357
2021.686
2044.783
2065.987
2084.771
2100.739
2113.625
2123.274
2129.622
2132.68
2132.51
2129.209
2122.896
2113.707
2101.785
2087.285
2070.37
2051.218
2030.023
2006.997
1982.37
1956.391
1929.325
1901.447
1873.039
1844.384
1815.758
1787.423
1759.627
1732.592
1706.513
1681.558
1657.858
1635.512
1614.585
1595.108
1577.079
1560.468
1545.216
1531.243
1518.453
1506.738
1495.985
1486.083
1476.919
1468.449
1460.34
1453.769
1442.944
1878.794
1871.078
1864.011
1857.82
1853.022
1850.281
1850.25
1853.454
1860.218
1870.633
1884.556
1901.633
1921.336
1943.011
1965.927
1989.327
2012.469
2034.665
2055.304
2073.874
2089.962
2103.263
2113.562
2120.734
2124.722
2125.528
2123.199
2117.819
2109.498
2098.37
2084.586
2068.318
2049.755
2029.101
2006.579
1982.429
1956.903
1930.266
1902.792
1874.755
1846.432
1818.092
1789.991
1762.371
1735.451
1709.426
1684.463
1660.697
1638.229
1617.13
1597.433
1579.142
1562.232
1546.65
1532.325
1519.151
1507.111
1495.705
1486.623
1471.713
1915.135
1906.483
1897.421
1888.175
1878.983
1870.164
1862.135
1855.402
1850.51
1847.991
1848.301
1851.777
1858.599
1868.777
1882.147
1898.387
1917.039
1937.538
1959.257
1981.531
2003.704
2025.149
2045.297
2063.648
2079.786
2093.379
2104.176
2112.005
2116.763
2118.405
2116.94
2112.418
2104.928
2094.588
2081.543
2065.963
2048.038
2027.978
2006.01
1982.376
1957.331
1931.14
1904.075
1876.407
1848.409
1820.345
1792.47
1765.019
1738.213
1712.244
1687.278
1663.452
1640.87
1619.602
1599.693
1581.121
1563.994
1547.69
1534.688
1513.565
1914.624
1913.726
1911.298
1907.399
1902.165
1895.778
1888.472
1880.551
1872.391
1864.447
1857.231
1851.279
1847.119
1845.23
1846.005
1849.724
1856.53
1866.42
1879.246
1894.726
1912.458
1931.953
1952.655
1973.976
1995.319
2016.11
2035.81
2053.936
2070.072
2083.869
2095.052
2103.417
2108.824
2111.195
2110.505
2106.778
2100.08
2090.513
2078.212
2063.338
2046.08
2026.646
2005.263
1982.173
1957.631
1931.901
1905.253
1877.959
1850.286
1822.499
1794.848
1767.568
1740.877
1714.964
1690.005
1666.095
1643.52
1621.543
1603.776
1574.365
1936.705
1930.554
1925.516
1921.163
1917.041
1912.761
1908.033
1902.66
1896.549
1889.715
1882.285
1874.492
1866.665
1859.208
1852.578
1847.248
1843.68
1842.287
1843.405
1847.273
1854.007
1863.603
1875.928
1890.733
1907.667
1926.295
1946.122
1966.617
1987.236
2007.444
2026.73
2044.629
2060.724
2074.661
2086.148
2094.956
2100.92
2103.934
2103.947
2100.958
2095.012
2086.196
2074.629
2060.466
2043.887
2025.094
2004.313
1981.784
1957.759
1932.503
1906.283
1879.37
1852.031
1824.524
1797.112
1769.972
1743.562
1716.998
1695.158
1657.395
1953.204
1948.061
1942.675
1937.382
1932.36
1927.635
1923.123
1918.675
1914.102
1909.217
1903.862
1897.931
1891.39
1884.291
1876.777
1869.077
1861.502
1854.421
1848.244
1843.392
1840.269
1839.236
1840.584
1844.517
1851.137
1860.436
1872.296
1886.497
1902.726
1920.594
1939.653
1959.422
1979.396
1999.075
2017.975
2035.645
2051.674
2065.704
2077.431
2086.612
2093.06
2096.646
2097.299
2094.996
2089.762
2081.667
2070.817
2057.355
2041.451
2023.303
2003.13
1981.17
1957.674
1932.9
1907.13
1880.564
1853.764
1825.694
1802.225
1759.146
1974.49
1968.426
1962.415
1956.467
1950.634
1944.987
1939.584
1934.451
1929.565
1924.858
1920.216
1915.501
1910.563
1905.265
1899.5
1893.209
1886.4
1879.151
1871.619
1864.033
1856.688
1849.925
1844.117
1839.641
1836.857
1836.084
1837.578
1841.52
1847.997
1857.001
1868.429
1882.081
1897.678
1914.868
1933.244
1952.361
1971.753
1990.947
2009.484
2026.926
2042.87
2056.957
2068.877
2078.373
2085.244
2089.344
2090.58
2088.912
2084.347
2076.939
2066.779
2053.998
2038.759
2021.247
2001.694
1980.257
1957.508
1932.31
1910.867
1868.225
1994.551
1989.499
1984.008
1978.212
1972.225
1966.142
1960.055
1954.052
1948.211
1942.585
1937.201
1932.046
1927.071
1922.191
1917.296
1912.263
1906.967
1901.304
1895.199
1888.627
1881.619
1874.272
1866.75
1859.279
1852.136
1845.641
1840.133
1835.954
1833.427
1832.84
1834.42
1838.328
1844.643
1853.358
1864.379
1877.529
1892.552
1909.129
1926.887
1945.413
1964.271
1983.017
2001.209
2018.425
2034.27
2048.386
2060.459
2070.224
2077.467
2082.026
2083.794
2082.711
2078.772
2072.01
2062.521
2050.35
2035.96
2018.229
2002.742
1967.668
1999.272
1997.669
1995.277
1992.138
1988.33
1983.939
1979.061
1973.799
1968.262
1962.56
1956.799
1951.071
1945.449
1939.98
1934.676
1929.518
1924.453
1919.404
1914.271
1908.951
1903.344
1897.372
1890.989
1884.192
1877.034
1869.623
1862.125
1854.76
1847.793
1841.52
1836.255
1832.309
1829.977
1829.517
1831.136
1834.98
1841.119
1849.55
1860.186
1872.869
1887.365
1903.381
1920.572
1938.555
1956.919
1975.244
1993.107
2010.099
2025.833
2039.955
2052.148
2062.14
2069.709
2074.677
2076.938
2076.356
2073.158
2066.379
2059.933
2039.105
2002.96
2001.621
2000.157
1998.468
1996.45
1994.02
1991.124
1987.738
1983.866
1979.54
1974.816
1969.767
1964.478
1959.038
1953.533
1948.036
1942.603
1937.263
1932.02
1926.848
1921.695
1916.489
1911.145
1905.577
1899.707
1893.479
1886.869
1879.895
1872.622
1865.169
1857.702
1850.434
1843.618
1837.53
1832.46
1828.696
1826.506
1826.127
1827.748
1831.502
1837.456
1845.606
1855.876
1868.119
1882.124
1897.619
1914.285
1931.761
1949.662
1967.587
1985.132
2001.9
2017.514
2031.619
2043.909
2054.072
2062.006
2067.063
2070.641
2068.011
1999.13
1999.451
1999.362
1998.944
1998.237
1997.242
1995.931
1994.267
1992.21
1989.724
1986.79
1983.402
1979.577
1975.348
1970.768
1965.9
1960.818
1955.595
1950.3
1944.991
1939.707
1934.465
1929.26
1924.062
1918.822
1913.473
1907.943
1902.161
1896.068
1889.628
1882.834
1875.719
1868.36
1860.881
1853.448
1846.268
1839.579
1833.643
1828.729
1825.103
1823.013
1822.678
1824.271
1827.916
1833.675
1841.546
1851.461
1863.286
1876.827
1891.831
1908.001
1924.999
1942.46
1960.002
1977.237
1993.781
2009.25
2023.437
2035.025
2049.625
1991.121
1992.264
1993.19
1993.886
1994.344
1994.558
1994.52
1994.215
1993.623
1992.716
1991.463
1989.83
1987.79
1985.323
1982.421
1979.089
1975.351
1971.242
1966.811
1962.118
1957.224
1952.192
1947.078
1941.925
1936.761
1931.593
1926.411
1921.18
1915.856
1910.378
1904.685
1898.72
1892.439
1885.822
1878.877
1871.651
1864.228
1856.734
1849.336
1842.233
1835.652
1829.839
1825.047
1821.523
1819.498
1819.173
1820.712
1824.229
1829.783
1837.374
1846.942
1858.364
1871.459
1885.995
1901.689
1918.249
1935.195
1952.793
1967.724
1993.063
1981.93
1983.228
1984.453
1985.614
1986.689
1987.65
1988.47
1989.123
1989.586
1989.837
1989.852
1989.603
1989.061
1988.193
1986.969
1985.362
1983.349
1980.919
1978.071
1974.817
1971.18
1967.199
1962.918
1958.39
1953.669
1948.808
1943.851
1938.831
1933.766
1928.656
1923.484
1918.219
1912.816
1907.222
1901.386
1895.263
1888.823
1882.059
1874.992
1867.676
1860.205
1852.705
1845.34
1838.303
1831.812
1826.097
1821.397
1817.943
1815.951
1815.608
1817.068
1820.439
1825.777
1833.088
1842.306
1853.363
1865.897
1880.542
1893.358
1919.657
1971.964
1973.15
1974.352
1975.589
1976.854
1978.125
1979.373
1980.567
1981.68
1982.684
1983.553
1984.262
1984.786
1985.098
1985.169
1984.971
1984.47
1983.638
1982.446
1980.873
1978.901
1976.524
1973.745
1970.58
1967.054
1963.203
1959.068
1954.697
1950.136
1945.429
1940.611
1935.705
1930.723
1925.658
1920.492
1915.191
1909.714
1904.017
1898.056
1891.797
1885.221
1878.334
1871.166
1863.78
1856.271
1848.769
1841.434
1834.452
1828.031
1822.391
1817.755
1814.341
1812.352
1811.968
1813.322
1816.56
1821.553
1829.065
1835.957
1854.422
1966.936
1966.825
1966.953
1967.332
1967.944
1968.755
1969.727
1970.818
1971.99
1973.203
1974.419
1975.605
1976.728
1977.758
1978.664
1979.418
1979.991
1980.352
1980.469
1980.313
1979.851
1979.056
1977.903
1976.372
1974.452
1972.14
1969.441
1966.373
1962.962
1959.24
1955.248
1951.025
1946.613
1942.046
1937.352
1932.548
1927.636
1922.607
1917.44
1912.103
1906.559
1900.769
1894.697
1888.32
1881.629
1874.637
1867.384
1859.939
1852.399
1844.895
1837.583
1830.644
1824.275
1818.688
1814.087
1810.708
1808.624
1808.45
1808.675
1815.151
1965.989
1964.912
1963.969
1963.239
1962.759
1962.546
1962.597
1962.898
1963.425
1964.151
1965.041
1966.061
1967.173
1968.341
1969.53
1970.704
1971.83
1972.876
1973.808
1974.594
1975.203
1975.601
1975.757
1975.637
1975.213
1974.457
1973.347
1971.867
1970.006
1967.766
1965.154
1962.188
1958.893
1955.301
1951.446
1947.365
1943.091
1938.654
1934.072
1929.355
1924.504
1919.503
1914.332
1908.96
1903.353
1897.477
1891.307
1884.824
1878.031
1870.948
1863.62
1856.122
1848.555
1841.047
1833.748
1826.845
1820.493
1814.97
1810.413
1806.132
1968.386
1966.639
1964.937
1963.346
1961.915
1960.682
1959.674
1958.912
1958.406
1958.158
1958.164
1958.41
1958.876
1959.538
1960.366
1961.328
1962.392
1963.523
1964.686
1965.847
1966.971
1968.025
1968.974
1969.783
1970.419
1970.848
1971.036
1970.951
1970.564
1969.849
1968.786
1967.36
1965.564
1963.401
1960.88
1958.018
1954.841
1951.376
1947.654
1943.708
1939.564
1935.245
1930.763
1926.125
1921.324
1916.344
1911.164
1905.755
1900.087
1894.132
1887.869
1881.29
1874.404
1867.237
1859.843
1852.292
1844.724
1837.052
1830.518
1819.931
1972.137
1970.245
1968.275
1966.293
1964.345
1962.471
1960.707
1959.088
1957.643
1956.399
1955.378
1954.596
1954.061
1953.776
1953.736
1953.929
1954.338
1954.941
1955.713
1956.625
1957.645
1958.741
1959.879
1961.024
1962.143
1963.199
1964.158
1964.984
1965.642
1966.096
1966.312
1966.26
1965.909
1965.235
1964.22
1962.851
1961.124
1959.041
1956.614
1953.858
1950.797
1947.457
1943.865
1940.045
1936.022
1931.81
1927.418
1922.846
1918.085
1913.119
1907.924
1902.474
1896.744
1890.711
1884.364
1877.683
1870.764
1863.27
1856.886
1844.571
1974.966
1973.381
1971.64
1969.79
1967.864
1965.893
1963.905
1961.93
1959.999
1958.144
1956.398
1954.792
1953.354
1952.111
1951.081
1950.281
1949.718
1949.397
1949.313
1949.456
1949.813
1950.364
1951.085
1951.95
1952.929
1953.99
1955.102
1956.231
1957.34
1958.396
1959.36
1960.198
1960.872
1961.347
1961.588
1961.565
1961.248
1960.616
1959.65
1958.34
1956.683
1954.683
1952.35
1949.7
1946.754
1943.534
1940.063
1936.362
1932.448
1928.332
1924.017
1919.499
1914.767
1909.804
1904.591
1899.083
1893.353
1886.979
1881.62
1870.354
1976.939
1975.577
1974.094
1972.515
1970.849
1969.103
1967.283
1965.399
1963.466
1961.5
1959.526
1957.57
1955.659
1953.823
1952.094
1950.501
1949.069
1947.824
1946.785
1945.966
1945.377
1945.021
1944.897
1944.995
1945.304
1945.806
1946.479
1947.3
1948.239
1949.268
1950.353
1951.463
1952.561
1953.612
1954.578
1955.423
1956.109
1956.6
1956.862
1956.865
1956.581
1955.989
1955.072
1953.821
1952.235
1950.317
1948.077
1945.53
1942.694
1939.587
1936.229
1932.636
1928.819
1924.785
1920.538
1916.048
1911.393
1906.19
1901.87
1892.526
1978.161
1976.934
1975.617
1974.238
1972.806
1971.318
1969.769
1968.152
1966.465
1964.708
1962.884
1961.003
1959.077
1957.124
1955.166
1953.227
1951.334
1949.516
1947.801
1946.217
1944.79
1943.542
1942.492
1941.655
1941.041
1940.653
1940.49
1940.546
1940.809
1941.265
1941.894
1942.672