/*--------------------------------*- C++ -*----------------------------------*\
| =========                 |                                                 |
| \\      /  F ield         | OpenFOAM: The Open Source CFD Toolbox           |
|  \\    /   O peration     | Version:  2312                                  |
|   \\  /    A nd           | Website:  www.openfoam.com                      |
|    \\/     M anipulation  |                                                 |
\*---------------------------------------------------------------------------*/
FoamFile
{
    version     2.0;
    format      ascii;
    arch        "LSB;label=32;scalar=64";
    class       volScalarField;
    location    "3750";
    object      ILambda_6_0;
}
// * * * * * * * * * * * * * * * * * * * * * * * * * * * * * * * * * * * * * //

dimensions      [1 0 -3 0 0 0 0];

internalField   nonuniform List<scalar> 
12000
(
2619.932
2649.937
2674.015
2687.082
2685.863
2672.225
2653.523
2638.871
2633.491
2634.722
2631.992
2610.677
2557.865
2467.419
2342.344
2193.811
2037.636
1889.807
1762.688
1662.93
1591.307
1544.033
1514.821
1496.915
1484.611
1474.041
1463.276
1451.957
1440.686
1430.431
1422.053
1416.06
1412.55
1411.313
1412.025
1414.452
1418.61
1424.861
1433.907
1446.701
1464.296
1487.642
1517.403
1553.777
1596.393
1644.267
1695.843
1749.109
1801.762
1851.415
1895.809
1933.006
1961.554
1980.582
1989.87
1989.747
1981.419
1965.092
1947.832
1908.058
2709.938
2720.866
2714.224
2689.3
2654.93
2625.991
2613.778
2617.306
2621.607
2603.896
2543.793
2432.234
2275.213
2091.441
1905.705
1741.11
1613.161
1527.27
1479.688
1460.692
1458.485
1462.485
1465.307
1463.319
1456.1
1445.302
1433.414
1422.763
1414.917
1410.508
1409.374
1410.89
1414.351
1419.301
1425.742
1434.202
1445.665
1461.392
1482.681
1510.605
1545.778
1588.177
1637.051
1690.927
1747.707
1804.853
1859.611
1909.278
1951.445
1984.216
2006.359
2017.388
2017.578
2007.897
1989.903
1965.539
1937.185
1906.331
1879.149
1837.842
2720.501
2700.026
2662.923
2623.543
2601.013
2603.078
2617.748
2618.153
2576.209
2476.285
2321.923
2133.666
1940.543
1769.872
1639.557
1555.075
1510.986
1495.261
1494.236
1496.512
1494.984
1487.051
1473.571
1457.283
1441.315
1428.14
1419.085
1414.339
1413.265
1414.859
1418.186
1422.699
1428.411
1435.903
1446.21
1460.625
1480.454
1506.775
1540.214
1580.795
1627.851
1680.022
1735.346
1791.411
1845.572
1895.193
1937.888
1971.735
1995.437
2008.415
2010.831
2003.536
1987.969
1966
1939.761
1911.462
1883.247
1856.762
1835.09
1809.767
2686.328
2637.462
2595.177
2583.779
2602.549
2622.693
2604.862
2521.463
2369.884
2171.808
1962.196
1775.222
1633.585
1544.332
1500.863
1488.615
1491.421
1496.278
1495.606
1487.185
1472.633
1455.407
1439.058
1426.138
1417.806
1413.973
1413.745
1415.957
1419.62
1424.211
1429.8
1437.018
1446.927
1460.822
1480.009
1505.581
1538.22
1578.046
1624.515
1676.403
1731.859
1788.538
1843.798
1894.937
1939.446
1975.238
2000.839
2015.501
2019.25
2012.851
1997.707
1975.703
1949.029
1919.98
1890.769
1863.395
1839.397
1820.156
1805.908
1796.103
2607.186
2561.88
2570.082
2610.254
2627.192
2571.756
2428.645
2219.766
1988.959
1781.023
1625.881
1532.656
1492.681
1487.441
1497.048
1506.238
1506.857
1497.341
1480.484
1460.841
1442.651
1428.693
1420.01
1416.237
1416.209
1418.572
1422.249
1426.711
1432.045
1438.895
1448.313
1461.571
1479.955
1504.571
1536.159
1574.941
1620.512
1671.79
1727.044
1784.002
1840.028
1892.359
1938.367
1975.809
2003.042
2019.168
2024.096
2018.52
2003.824
1981.919
1955.054
1925.605
1895.875
1867.924
1843.421
1823.609
1809.053
1800.469
1795.734
1800.459
2519.926
2564.868
2632.158
2627.071
2504.575
2283.778
2023.165
1785.363
1611.781
1514.185
1480.12
1484.901
1503.374
1517.492
1518.795
1506.996
1486.667
1463.826
1443.513
1428.653
1420.009
1416.783
1417.417
1420.309
1424.284
1428.81
1434.014
1440.572
1449.542
1462.185
1479.777
1503.441
1533.981
1571.724
1616.406
1667.092
1722.174
1779.455
1836.308
1889.909
1937.507
1976.7
2005.673
2023.367
2029.568
2024.895
2010.705
1988.934
1961.89
1932.03
1901.743
1873.169
1848.053
1827.651
1812.686
1803.403
1799.412
1800.667
1803.887
1817.496
2559.659
2676.814
2610.763
2378.639
2071.386
1786.867
1586.492
1484.807
1461.578
1481.754
1512.487
1532.467
1533.663
1518.14
1493.079
1466.359
1443.817
1428.32
1420.105
1417.756
1419.241
1422.704
1426.909
1431.377
1436.316
1442.464
1450.901
1462.875
1479.651
1502.363
1531.862
1568.575
1612.366
1662.442
1717.317
1774.871
1832.493
1887.306
1936.447
1977.359
2008.054
2027.315
2034.798
2031.041
2017.374
1995.752
1968.54
1938.275
1907.437
1878.246
1852.516
1831.552
1816.11
1806.414
1802.207
1802.875
1807.406
1815.22
1823.11
1839.295
2796.852
2548.674
2150.369
1780.815
1538.296
1435.708
1434.048
1479.274
1527.186
1553.447
1552.44
1530.593
1498.92
1467.509
1442.784
1427.124
1419.868
1418.77
1421.267
1425.297
1429.645
1433.95
1438.548
1444.251
1452.156
1463.494
1479.504
1501.317
1529.826
1565.543
1608.451
1657.893
1712.506
1770.257
1828.561
1884.506
1935.129
1977.729
2010.151
2031.013
2039.836
2037.067
2023.995
2002.587
1975.258
1944.624
1913.251
1883.447
1857.097
1835.557
1819.615
1809.505
1804.974
1805.375
1809.79
1817.165
1826.351
1836.607
1845.654
1859.609
2367.085
1754.517
1433.326
1346.613
1393.783
1482.607
1554.075
1584.67
1576.383
1543.662
1502.857
1466.194
1439.907
1425.069
1419.584
1420.171
1423.774
1428.262
1432.582
1436.588
1440.773
1446.02
1453.423
1464.171
1479.464
1500.423
1527.975
1562.708
1604.721
1653.484
1707.761
1765.61
1824.491
1881.472
1933.51
1977.768
2011.931
2034.448
2044.693
2043.004
2030.618
2009.498
1982.103
1951.123
1919.217
1888.782
1861.782
1839.631
1823.154
1812.6
1807.714
1807.843
1812.054
1819.274
1828.404
1838.422
1848.45
1857.894
1865.66
1875.234
1067.118
1163.942
1348.378
1514.004
1610.048
1633.317
1605.605
1554.451
1501.911
1460.632
1434.674
1422.442
1419.806
1422.424
1426.997
1431.621
1435.615
1439.145
1442.87
1447.701
1454.676
1464.909
1479.541
1499.681
1526.29
1560.037
1601.129
1649.163
1703.026
1760.876
1820.23
1878.155
1931.545
1977.444
2013.377
2037.619
2049.383
2048.884
2037.283
2016.529
1989.116
1957.808
1925.357
1894.261
1866.57
1843.765
1826.713
1815.684
1810.423
1810.267
1814.268
1821.339
1830.372
1840.343
1850.386
1859.822
1868.21
1875.223
1880.717
1885.918
1423.937
1651.281
1726.109
1701.461
1630.855
1553.213
1490.063
1448.694
1427.409
1420.486
1421.708
1426.237
1431.173
1435.305
1438.557
1441.45
1444.742
1449.279
1455.963
1465.78
1479.803
1499.136
1524.79
1557.522
1597.655
1644.907
1698.284
1756.048
1815.782
1874.569
1929.255
1976.781
2014.516
2040.556
2053.94
2054.739
2044.022
2023.706
1996.313
1964.68
1931.66
1899.858
1871.424
1847.916
1830.25
1818.719
1813.071
1812.626
1816.422
1823.353
1832.299
1842.231
1852.283
1861.788
1870.288
1877.5
1883.346
1887.691
1890.931
1892.624
1895.895
1741.22
1612.078
1518.738
1461.028
1431.953
1422.049
1422.587
1427.207
1432.227
1436.154
1438.894
1441.014
1443.25
1446.288
1450.758
1457.339
1466.854
1480.307
1498.817
1523.475
1555.146
1594.272
1640.693
1693.529
1751.138
1811.175
1870.751
1926.683
1975.819
2015.381
2043.284
2058.381
2060.58
2050.84
2031.03
2003.691
1971.731
1938.112
1905.558
1876.328
1852.068
1833.752
1821.698
1815.653
1814.924
1818.524
1825.326
1834.194
1844.094
1854.159
1863.727
1872.343
1879.737
1885.789
1890.468
1893.866
1895.892
1897.187
1896.015
1479.715
1448.438
1432.874
1428.486
1430.175
1433.909
1437.297
1439.473
1440.609
1441.36
1442.434
1444.373
1447.54
1452.244
1458.906
1468.202
1481.091
1498.738
1522.338
1552.887
1590.956
1636.504
1688.755
1746.159
1806.438
1866.737
1923.86
1974.577
2015.976
2045.794
2062.684
2066.38
2057.708
2038.475
2011.228
1978.947
1944.706
1911.358
1881.285
1856.232
1837.235
1824.642
1818.2
1817.194
1820.61
1827.294
1836.093
1845.963
1856.037
1865.661
1874.386
1881.943
1888.208
1893.15
1896.799
1899.195
1900.443
1900.419
1899.926
1896.091
1491.068
1470.728
1457.645
1449.907
1445.447
1442.901
1441.66
1441.591
1442.743
1445.166
1448.89
1454.005
1460.794
1469.859
1482.15
1498.889
1521.377
1550.748
1587.71
1632.345
1683.974
1741.13
1801.597
1862.557
1920.809
1973.067
2016.296
2048.059
2066.813
2072.097
2064.588
2046.009
2018.905
1986.319
1951.441
1917.264
1886.306
1860.42
1840.714
1827.569
1820.728
1819.455
1822.7
1829.28
1838.017
1847.857
1857.937
1867.608
1876.429
1884.139
1890.607
1895.794
1899.707
1902.374
1903.836
1904.121
1903.328
1901.317
1899.094
1892.849
1441.477
1437.227
1436.974
1438.122
1439.638
1441.44
1443.776
1446.901
1450.999
1456.252
1462.962
1471.699
1483.375
1499.214
1520.587
1548.751
1584.56
1628.231
1679.195
1736.06
1796.667
1858.229
1917.549
1971.295
2016.331
2050.06
2070.739
2077.701
2071.456
2053.622
2026.721
1993.856
1958.334
1923.296
1891.408
1864.646
1844.198
1830.482
1823.239
1821.703
1824.789
1831.274
1839.955
1849.768
1859.848
1869.556
1878.463
1886.313
1892.976
1898.398
1902.57
1905.497
1907.19
1907.67
1906.977
1905.168
1902.394
1898.581
1894.914
1887.101
1441.15
1445.482
1446.554
1446.857
1447.81
1449.975
1453.501
1458.436
1464.935
1473.401
1484.602
1499.676
1520.005
1546.957
1581.555
1624.187
1674.419
1730.942
1791.642
1853.755
1914.085
1969.267
2016.08
2051.782
2074.438
2083.17
2078.297
2061.31
2034.688
2001.58
1965.412
1929.481
1896.615
1868.927
1847.698
1833.386
1825.731
1823.938
1826.873
1833.274
1841.907
1851.693
1861.769
1871.506
1880.488
1888.466
1895.312
1900.961
1905.385
1908.565
1910.487
1911.151
1910.583
1908.845
1906.05
1902.35
1897.991
1893.004
1888.583
1880.628
1455.096
1449.235
1448.074
1450.102
1454.116
1459.564
1466.403
1474.965
1485.939
1500.404
1519.752
1545.463
1578.756
1620.235
1669.637
1725.753
1786.506
1849.135
1910.43
1966.996
2015.547
2053.219
2077.895
2088.484
2085.095
2069.066
2042.81
2009.506
1972.693
1935.837
1901.941
1873.272
1851.216
1836.279
1828.202
1826.153
1828.95
1835.28
1843.875
1853.639
1863.71
1873.47
1882.516
1890.612
1897.63
1903.496
1908.164
1911.589
1913.735
1914.581
1914.138
1912.465
1909.681
1905.957
1901.519
1896.613
1891.538
1886.383
1882.118
1875.447
1440.655
1448.415
1455.397
1461.895
1468.857
1477.193
1487.746
1501.529
1519.864
1544.279
1576.168
1616.371
1664.835
1720.475
1781.248
1844.37
1906.598
1964.503
2014.747
2054.371
2081.097
2093.621
2091.831
2076.881
2051.088
2017.642
1980.192
1942.377
1907.393
1877.68
1854.744
1839.149
1830.637
1828.337
1831.009
1837.284
1845.854
1855.604
1865.67
1875.447
1884.55
1892.753
1899.932
1906.005
1910.907
1914.571
1916.936
1917.96
1917.643
1916.04
1913.274
1909.531
1905.049
1900.1
1894.963
1889.899
1885.153
1880.795
1877.41
1872.793
1462.931
1467.664
1472.263
1479.221
1489.172
1502.49
1520.061
1543.305
1573.776
1612.605
1660.019
1715.105
1775.863
1839.468
1902.61
1961.811
2013.697
2055.239
2084.027
2098.557
2098.48
2084.739
2059.522
2026.002
1987.928
1949.12
1912.987
1882.16
1858.285
1841.995
1833.034
1830.486
1833.048
1839.286
1847.847
1857.591
1867.654
1877.443
1886.592
1894.89
1902.216
1908.483
1913.608
1917.503
1920.081
1921.282
1921.093
1919.567
1916.829
1913.079
1908.567
1903.581
1898.412
1893.333
1888.572
1884.301
1880.635
1877.572
1875.32
1872.656
1475.201
1477.952
1488.582
1502.992
1520.627
1542.909
1571.844
1609.071
1655.229
1709.636
1770.338
1834.428
1898.481
1958.946
2012.412
2055.819
2086.663
2103.258
2105.012
2092.624
2068.109
2034.597
1995.921
1956.087
1918.737
1886.72
1861.842
1844.816
1835.391
1832.603
1835.075
1841.299
1849.868
1859.616
1869.677
1879.472
1888.655
1897.033
1904.49
1910.936
1916.272
1920.388
1923.174
1924.552
1924.495
1923.053
1920.356
1916.61
1912.083
1907.071
1901.878
1896.782
1892.014
1887.747
1884.084
1881.064
1878.671
1876.836
1875.536
1874.16
1477.292
1504.053
1523.57
1544.164
1570.682
1605.722
1650.306
1703.918
1764.58
1829.223
1894.235
1955.946
2010.922
2056.114
2088.98
2107.685
2111.389
2100.511
2076.849
2043.443
2004.194
1963.299
1924.656
1891.363
1865.408
1847.601
1837.698
1834.681
1837.085
1843.322
1851.921
1861.685
1871.745
1881.54
1890.744
1899.185
1906.758
1913.367
1918.901
1923.228
1926.219
1927.774
1927.857
1926.51
1923.868
1920.143
1915.611
1910.583
1905.369
1900.254
1895.472
1891.193
1887.52
1884.488
1882.079
1880.232
1878.857
1877.853
1877.146
1876.346
1548.577
1549.24
1568.72
1601.323
1644.699
1697.732
1758.51
1823.869
1889.952
1952.909
2009.292
2056.136
2090.942
2111.779
2117.557
2108.374
2085.742
2052.562
2012.777
1970.783
1930.76
1896.09
1868.976
1850.338
1839.944
1836.711
1839.077
1845.357
1854.009
1863.801
1873.86
1883.644
1892.855
1901.342
1909.012
1915.769
1921.489
1926.021
1929.215
1930.953
1931.186
1929.949
1927.378
1923.689
1919.167
1914.13
1908.896
1903.755
1898.945
1894.639
1890.936
1887.873
1885.43
1883.545
1882.133
1881.096
1880.338
1879.759
1879.346
1878.677
1534.138
1589.147
1639.14
1692.441
1752.693
1818.466
1885.684
1949.948
2007.63
2055.914
2092.496
2115.446
2123.435
2116.169
2094.792
2061.991
2021.718
1978.576
1937.068
1900.903
1872.535
1853.013
1842.117
1838.69
1841.054
1847.411
1856.141
1865.97
1876.025
1885.786
1894.984
1903.496
1911.245
1918.135
1924.031
1928.764
1932.164
1934.093
1934.489
1933.38
1930.897
1927.261
1922.761
1917.72
1912.464
1907.288
1902.436
1898.082
1894.33
1891.218
1888.727
1886.797
1885.342
1884.267
1883.479
1882.889
1882.436
1882.026
1881.742
1881.022
1670.598
1699.857
1748.24
1811.456
1880.319
1946.83
2006.107
2055.594
2093.618
2118.554
2128.885
2123.828
2104.006
2071.784
2031.081
1986.73
1943.604
1905.8
1876.068
1855.606
1844.204
1840.612
1843.018
1849.494
1858.326
1868.2
1878.243
1887.962
1897.125
1905.642
1913.451
1920.461
1926.526
1931.46
1935.07
1937.201
1937.774
1936.809
1934.432
1930.864
1926.394
1921.353
1916.071
1910.85
1905.939
1901.52
1897.702
1894.525
1891.976
1889.995
1888.498
1887.392
1886.581
1885.98
1885.52
1885.141
1884.813
1884.445
1884.203
1883.342
1713.159
1786.534
1868.651
1943.688
2006.163
2056.146
2094.527
2120.89
2133.633
2131.201
2113.384
2082.03
2040.973
1995.317
1950.396
1910.773
1879.548
1858.089
1846.185
1842.473
1844.976
1851.615
1860.576
1870.498
1880.515
1890.168
1899.272
1907.77
1915.623
1922.743
1928.974
1934.111
1937.939
1940.283
1941.048
1940.243
1937.986
1934.496
1930.064
1925.024
1919.71
1914.433
1909.45
1904.949
1901.049
1897.797
1895.183
1893.15
1891.617
1890.486
1889.663
1889.06
1888.604
1888.237
1887.918
1887.608
1887.3
1886.888
1886.611
1885.475
1855.519
1953.347
2016.361
2060.666
2095.163
2121.42
2136.813
2137.91
2122.933
2092.909
2051.579
2004.451
1957.474
1915.797
1882.929
1860.419
1848.037
1844.267
1846.937
1853.794
1862.908
1872.877
1882.847
1892.406
1901.42
1909.876
1917.759
1924.983
1931.38
1936.725
1940.779
1943.347
1944.316
1943.682
1941.556
1938.152
1933.762
1928.72
1923.369
1918.027
1912.959
1908.366
1904.375
1901.04
1898.358
1896.275
1894.71
1893.564
1892.737
1892.139
1891.693
1891.339
1891.032
1890.741
1890.44
1890.099
1889.718
1889.164
1888.753
1887.135
2064.59
2067.755
2088.255
2114.861
2136.139
2143.6
2133.091
2104.963
2063.266
2014.285
1964.84
1920.801
1886.127
1862.535
1849.728
1845.992
1848.917
1856.05
1865.341
1875.35
1885.245
1894.674
1903.567
1911.959
1919.86
1927.185
1933.752
1939.312
1943.602
1946.403
1947.584
1947.129
1945.139
1941.825
1937.478
1932.433
1927.041
1921.626
1916.466
1911.772
1907.683
1904.262
1901.512
1899.383
1897.791
1896.636
1895.812
1895.224
1894.79
1894.447
1894.15
1893.866
1893.571
1893.246
1892.87
1892.404
1891.844
1891.022
1890.352
1888.012
2027.244
2089.786
2132.79
2151.989
2146.687
2119.626
2076.496
2024.799
1972.312
1925.599
1889.013
1864.367
1851.238
1847.655
1850.936
1858.409
1867.896
1877.927
1887.713
1896.972
1905.709
1914.015
1921.924
1929.351
1936.095
1941.88
1946.414
1949.455
1950.855
1950.582
1948.733
1945.511
1941.207
1936.159
1930.723
1925.231
1919.974
1915.175
1910.985
1907.476
1904.659
1902.485
1900.87
1899.709
1898.892
1898.315
1897.893
1897.558
1897.264
1896.98
1896.684
1896.362
1895.992
1895.551
1895.006
1894.304
1893.433
1892.193
1891.12
1887.846
2173.26
2181.105
2168.291
2136.418
2089.704
2034.757
1979.212
1929.91
1891.507
1865.92
1852.596
1849.294
1853.03
1860.896
1870.589
1880.619
1890.251
1899.294
1907.84
1916.037
1923.947
1931.48
1938.411
1944.43
1949.218
1952.506
1954.128
1954.041
1952.334
1949.206
1944.947
1939.897
1934.417
1928.848
1923.493
1918.587
1914.293
1910.695
1907.81
1905.591
1903.954
1902.788
1901.977
1901.41
1900.997
1900.666
1900.37
1900.079
1899.776
1899.448
1899.082
1898.654
1898.134
1897.479
1896.642
1895.558
1894.217
1892.402
1890.79
1886.475
2167.099
2138.392
2095.729
2042.252
1985.721
1934.368
1894.094
1867.438
1853.891
1850.93
1855.205
1863.523
1873.434
1883.434
1892.864
1901.639
1909.953
1918.02
1925.924
1933.569
1940.697
1946.964
1952.014
1955.555
1957.401
1957.502
1955.938
1952.907
1948.696
1943.648
1938.127
1932.484
1927.031
1922.018
1917.618
1913.929
1910.973
1908.707
1907.045
1905.872
1905.065
1904.507
1904.1
1903.77
1903.468
1903.166
1902.849
1902.512
1902.143
1901.726
1901.23
1900.614
1899.826
1898.811
1897.514
1895.879
1893.915
1891.419
1889.191
1883.908
2109.45
2059.448
1999.05
1942.124
1897.602
1868.795
1854.795
1852.321
1857.354
1866.271
1876.45
1886.396
1895.564
1904.011
1912.046
1919.958
1927.852
1935.615
1942.954
1949.48
1954.801
1958.599
1960.672
1960.961
1959.542
1956.611
1952.453
1947.412
1941.856
1936.143
1930.595
1925.474
1920.968
1917.184
1914.152
1911.835
1910.144
1908.961
1908.155
1907.603
1907.201
1906.87
1906.56
1906.244
1905.912
1905.561
1905.187
1904.776
1904.302
1903.722
1902.984
1902.028
1900.795
1899.234
1897.309
1894.993
1892.333
1889.162
1886.364
1880.397
2025.142
1949.377
1897.155
1866.737
1853.77
1853.016
1859.514
1869.31
1879.779
1889.584
1898.38
1906.408
1914.11
1921.842
1929.725
1937.618
1945.182
1951.981
1957.583
1961.641
1963.942
1964.418
1963.145
1960.316
1956.216
1951.188
1945.603
1939.824
1934.184
1928.955
1924.341
1920.458
1917.347
1914.973
1913.25
1912.053
1911.246
1910.7
1910.301
1909.969
1909.651
1909.321
1908.972
1908.607
1908.225
1907.817
1907.359
1906.811
1906.118
1905.219
1904.05
1902.554
1900.689
1898.436
1895.797
1892.789
1889.505
1885.819
1882.634
1876.425
1875.072
1857.973
1852.224
1855.09
1863.157
1873.391
1883.689
1893.022
1901.252
1908.765
1916.099
1923.652
1931.538
1939.582
1947.39
1954.475
1960.363
1964.685
1967.212
1967.874
1966.746
1964.022
1959.984
1954.975
1949.366
1943.526
1937.795
1932.46
1927.734
1923.749
1920.553
1918.118
1916.358
1915.145
1914.337
1913.796
1913.404
1913.072
1912.748
1912.405
1912.04
1911.658
1911.265
1910.856
1910.41
1909.889
1909.236
1908.388
1907.278
1905.844
1904.041
1901.842
1899.247
1896.282
1892.997
1889.452
1885.766
1881.85
1878.546
1872.565
1866.206
1864.612
1869.501
1877.965
1887.334
1896.084
1903.837
1910.942
1917.98
1925.394
1933.311
1941.522
1949.588
1956.967
1963.147
1967.731
1970.483
1971.33
1970.348
1967.73
1963.759
1958.774
1953.147
1947.25
1941.431
1935.986
1931.145
1927.053
1923.767
1921.267
1919.466
1918.235
1917.426
1916.892
1916.508
1916.181
1915.854
1915.501
1915.12
1914.721
1914.315
1913.901
1913.462
1912.961
1912.342
1911.54
1910.484
1909.109
1907.364
1905.219
1902.67
1899.742
1896.481
1892.956
1889.253
1885.452
1881.675
1877.847
1874.698
1869.294
1864.387
1876.085
1887.967
1898.109
1906.281
1913.25
1919.994
1927.203
1935.095
1943.453
1951.774
1959.454
1965.93
1970.778
1973.753
1974.783
1973.947
1971.44
1967.542
1962.589
1956.95
1950.999
1945.091
1939.537
1934.577
1930.371
1926.989
1924.418
1922.573
1921.322
1920.511
1919.986
1919.614
1919.295
1918.969
1918.608
1918.213
1917.798
1917.376
1916.954
1916.517
1916.031
1915.441
1914.68
1913.673
1912.353
1910.664
1908.572
1906.07
1903.178
1899.944
1896.435
1892.736
1888.939
1885.134
1881.398
1877.828
1874.34
1871.535
1866.853
1891.857
1903.717
1911.206
1916.824
1922.443
1929.029
1936.759
1945.264
1953.887
1961.91
1968.706
1973.826
1977.022
1978.233
1977.543
1975.151
1971.332
1966.419
1960.775
1954.775
1948.781
1943.114
1938.031
1933.706
1930.222
1927.574
1925.681
1924.408
1923.594
1923.079
1922.721
1922.414
1922.091
1921.725
1921.317
1920.885
1920.447
1920.014
1919.575
1919.1
1918.534
1917.81
1916.85
1915.583
1913.949
1911.91
1909.454
1906.6
1903.392
1899.899
1896.205
1892.405
1888.59
1884.845
1881.244
1877.832
1874.666
1871.64
1869.245
1865.221
1918.539
1919.645
1923.483
1929.733
1937.768
1946.788
1955.929
1964.389
1971.526
1976.905
1980.303
1981.678
1981.129
1978.854
1975.125
1970.262
1964.623
1958.58
1952.501
1946.72
1941.509
1937.059
1933.468
1930.739
1928.793
1927.495
1926.679
1926.174
1925.832
1925.537
1925.22
1924.851
1924.431
1923.98
1923.524
1923.077
1922.634
1922.166
1921.621
1920.931
1920.017
1918.803
1917.224
1915.238
1912.83
1910.013
1906.833
1903.355
1899.666
1895.861
1892.034
1888.273
1884.652
1881.227
1878.032
1875.074
1872.371
1869.789
1867.755
1864.193
1919.277
1928.954
1938.796
1948.733
1958.366
1967.13
1974.483
1980.034
1983.583
1985.1
1984.689
1982.541
1978.915
1974.117
1968.493
1962.414
1956.253
1950.355
1945.012
1940.432
1936.727
1933.911
1931.911
1930.587
1929.768
1929.275
1928.949
1928.67
1928.359
1927.987
1927.554
1927.085
1926.608
1926.144
1925.692
1925.228
1924.702
1924.045
1923.175
1922.013
1920.49
1918.559
1916.2
1913.424
1910.271
1906.809
1903.124
1899.312
1895.47
1891.69
1888.047
1884.6
1881.385
1878.417
1875.691
1873.18
1870.872
1868.621
1866.829
1863.503
1944.17
1952.502
1961.326
1969.86
1977.288
1983.021
1986.763
1988.46
1988.213
1986.213
1982.708
1977.99
1972.394
1966.284
1960.039
1954.021
1948.539
1943.822
1939.998
1937.091
1935.033
1933.683
1932.862
1932.382
1932.076
1931.813
1931.511
1931.136
1930.69
1930.201
1929.701
1929.217
1928.753
1928.29
1927.778
1927.15
1926.323
1925.213
1923.747
1921.873
1919.565
1916.83
1913.708
1910.263
1906.581
1902.761
1898.902
1895.099
1891.431
1887.959
1884.722
1881.735
1878.996
1876.482
1874.161
1871.986
1869.938
1867.869
1866.189
1862.936
1960.691
1970.696
1979.272
1985.752
1989.921
1991.858
1991.77
1989.905
1986.518
1981.888
1976.327
1970.192
1963.865
1957.722
1952.093
1947.23
1943.279
1940.277
1938.158
1936.781
1935.959
1935.495
1935.21
1934.967
1934.676
1934.3
1933.842
1933.332
1932.807
1932.3
1931.821
1931.354
1930.854
1930.252
1929.465
1928.406
1926.997
1925.18
1922.924
1920.234
1917.143
1913.716
1910.038
1906.209
1902.332
1898.504
1894.808
1891.307
1888.044
1885.036
1882.281
1879.758
1877.433
1875.265
1873.212
1871.226
1869.295
1867.29
1865.631
1862.392
1982.528
1989.565
1993.738
1995.543
1995.394
1993.573
1990.294
1985.774
1980.277
1974.137
1967.734
1961.462
1955.678
1950.66
1946.573
1943.469
1941.286
1939.881
1939.059
1938.612
1938.352
1938.131
1937.853
1937.478
1937.009
1936.477
1935.927
1935.396
1934.899
1934.425
1933.934
1933.356
1932.607
1931.597
1930.244
1928.484
1926.282
1923.636
1920.577
1917.168
1913.495
1909.658
1905.761
1901.906
1898.179
1894.647
1891.354
1888.322
1885.549
1883.015
1880.685
1878.518
1876.469
1874.497
1872.565
1870.644
1868.737
1866.741
1865.075
1861.895
1997.806
1998.767
1998.495
1996.879
1993.889
1989.609
1984.249
1978.133
1971.66
1965.252
1959.301
1954.113
1949.881
1946.668
1944.418
1942.983
1942.161
1941.734
1941.5
1941.303
1941.041
1940.668
1940.188
1939.636
1939.06
1938.502
1937.986
1937.504
1937.019
1936.463
1935.751
1934.79
1933.492
1931.79
1929.641
1927.041
1924.016
1920.626
1916.956
1913.11
1909.192
1905.308
1901.547
1897.981
1894.657
1891.597
1888.803
1886.254
1883.917
1881.749
1879.705
1877.74
1875.819
1873.914
1872.008
1870.091
1868.185
1866.212
1864.57
1861.555
2000.316
1999.823
1997.52
1993.597
1988.369
1982.238
1975.656
1969.086
1962.95
1957.583
1953.199
1949.872
1947.552
1946.087
1945.267
1944.861
1944.656
1944.485
1944.24
1943.87
1943.38
1942.807
1942.203
1941.619
1941.081
1940.589
1940.108
1939.573
1938.897
1937.984
1936.742
1935.098
1933.006
1930.452
1927.462
1924.092
1920.427
1916.571
1912.632
1908.717
1904.92
1901.317
1897.957
1894.867
1892.048
1889.481
1887.134
1884.962
1882.92
1880.962
1879.05
1877.155
1875.26
1873.357
1871.451
1869.548
1867.683
1865.796
1864.242
1861.498
2002.186
1998.016
1992.623
1986.354
1979.63
1972.9
1966.591
1961.054
1956.52
1953.079
1950.688
1949.194
1948.376
1947.993
1947.82
1947.678
1947.45
1947.085
1946.584
1945.989
1945.357
1944.743
1944.182
1943.678
1943.199
1942.683
1942.042
1941.177
1939.992
1938.409
1936.373
1933.869
1930.916
1927.569
1923.91
1920.045
1916.084
1912.137
1908.303
1904.66
1901.262
1898.137
1895.29
1892.703
1890.341
1888.163
1886.119
1884.165
1882.26
1880.375
1878.489
1876.596
1874.697
1872.805
1870.937
1869.11
1867.357
1865.627
1864.227
1861.81
1996.079
1990.014
1983.405
1976.662
1970.243
1964.551
1959.863
1956.299
1953.829
1952.3
1951.484
1951.127
1950.988
1950.878
1950.672
1950.313
1949.803
1949.185
1948.523
1947.877
1947.289
1946.77
1946.291
1945.791
1945.184
1944.366
1943.239
1941.717
1939.741
1937.289
1934.376
1931.054
1927.405
1923.532
1919.55
1915.572
1911.7
1908.015
1904.577
1901.415
1898.537
1895.926
1893.548
1891.359
1889.312
1887.358
1885.457
1883.578
1881.699
1879.813
1877.921
1876.035
1874.17
1872.348
1870.591
1868.912
1867.34
1865.815
1864.604
1862.495
1987.311
1980.62
1974.048
1968.132
1963.237
1959.521
1956.96
1955.396
1954.586
1954.258
1954.159
1954.086
1953.905
1953.555
1953.036
1952.395
1951.701
1951.022
1950.405
1949.867
1949.385
1948.899
1948.323
1947.552
1946.482
1945.022
1943.107
1940.71
1937.839
1934.545
1930.907
1927.029
1923.028
1919.019
1915.109
1911.383
1907.902
1904.703
1901.792
1899.154
1896.757
1894.557
1892.503
1890.548
1888.649
1886.773
1884.899
1883.017
1881.129
1879.245
1877.383
1875.562
1873.804
1872.128
1870.549
1869.071
1867.709
1866.392
1865.361
1863.465
1977.774
1971.579
1966.488
1962.656
1960.042
1958.468
1957.679
1957.39
1957.335
1957.302
1957.148
1956.808
1956.282
1955.619
1954.893
1954.178
1953.53
1952.97
1952.482
1952.009
1951.462
1950.736
1949.722
1948.324
1946.472
1944.13
1941.304
1938.039
1934.415
1930.534
1926.514
1922.476
1918.527
1914.759
1911.236
1907.998
1905.053
1902.389
1899.972
1897.758
1895.697
1893.739
1891.84
1889.965
1888.093
1886.214
1884.327
1882.443
1880.58
1878.757
1876.997
1875.319
1873.737
1872.261
1870.894
1869.625
1868.456
1867.297
1866.395
1864.563
1969.154
1965.594
1963.078
1961.545
1960.788
1960.535
1960.521
1960.526
1960.4
1960.072
1959.54
1958.856
1958.097
1957.345
1956.664
1956.081
1955.585
1955.121
1954.602
1953.92
1952.963
1951.627
1949.838
1947.553
1944.773
1941.54
1937.929
1934.046
1930.009
1925.94
1921.953
1918.142
1914.577
1911.298
1908.319
1905.626
1903.189
1900.962
1898.893
1896.931
1895.032
1893.159
1891.288
1889.409
1887.521
1885.635
1883.768
1881.941
1880.176
1878.493
1876.907
1875.428
1874.058
1872.794
1871.623
1870.52
1869.48
1868.392
1867.535
1865.596
1966.018
1964.596
1963.874
1963.658
1963.691
1963.742
1963.652
1963.342
1962.809
1962.105
1961.313
1960.524
1959.806
1959.197
1958.69
1958.234
1957.742
1957.104
1956.203
1954.932
1953.206
1950.981
1948.249
1945.048
1941.454
1937.569
1933.515
1929.416
1925.39
1921.535
1917.924
1914.604
1911.588
1908.867
1906.408
1904.167
1902.09
1900.125
1898.225
1896.352
1894.483
1892.603
1890.714
1888.824
1886.952
1885.119
1883.346
1881.655
1880.062
1878.577
1877.204
1875.939
1874.769
1873.677
1872.639
1871.62
1870.611
1869.487
1868.578
1866.375
1966.464
1966.55
1966.759
1966.923
1966.9
1966.622
1966.092
1965.369
1964.544
1963.714
1962.958
1962.32
1961.799
1961.348
1960.881
1960.286
1959.442
1958.236
1956.577
1954.413
1951.732
1948.567
1944.99
1941.106
1937.035
1932.906
1928.84
1924.94
1921.283
1917.918
1914.864
1912.112
1909.63
1907.373
1905.288
1903.319
1901.418
1899.546
1897.677
1895.798
1893.906
1892.013
1890.134
1888.292
1886.51
1884.809
1883.207
1881.714
1880.335
1879.067
1877.897
1876.809
1875.778
1874.776
1873.775
1872.735
1871.649
1870.383
1869.33
1866.749
1969.605
1970.038
1970.137
1969.906
1969.382
1968.641
1967.783
1966.913
1966.117
1965.447
1964.91
1964.461
1964.017
1963.465
1962.678
1961.538
1959.948
1957.847
1955.22
1952.093
1948.538
1944.656
1940.57
1936.412
1932.306
1928.36
1924.655
1921.245
1918.151
1915.366
1912.859
1910.585
1908.49
1906.516
1904.614
1902.742
1900.874
1898.993
1897.099
1895.201
1893.315
1891.464
1889.671
1887.959
1886.345
1884.842
1883.455
1882.18
1881.008
1879.922
1878.897
1877.906
1876.919
1875.904
1874.83
1873.662
1872.402
1870.909
1869.644
1866.631
1973.17
1973.073
1972.611
1971.886
1971.014
1970.113
1969.281
1968.58
1968.024
1967.576
1967.152
1966.64
1965.91
1964.837
1963.317
1961.283
1958.711
1955.626
1952.094
1948.216
1944.118
1939.932
1935.787
1931.794
1928.042
1924.586
1921.451
1918.631
1916.099
1913.806
1911.699
1909.72
1907.816
1905.944
1904.075
1902.193
1900.296
1898.391
1896.497
1894.636
1892.832
1891.107
1889.48
1887.965
1886.567
1885.284
1884.107
1883.02
1881.998
1881.016
1880.042
1879.045
1877.992
1876.855
1875.609
1874.226
1872.719
1870.952
1869.443
1866.015
1975.578
1975.018
1974.204
1973.303
1972.445
1971.715
1971.14
1970.689
1970.285
1969.813
1969.14
1968.134
1966.685
1964.719
1962.206
1959.164
1955.658
1951.787
1947.677
1943.464
1939.28
1935.242
1931.442
1927.939
1924.762
1921.907
1919.348
1917.037
1914.918
1912.933
1911.026
1909.154
1907.285
1905.402
1903.5
1901.589
1899.686
1897.813
1895.996
1894.256
1892.615
1891.086
1889.676
1888.383
1887.199
1886.107
1885.087
1884.11
1883.146
1882.164
1881.132
1880.019
1878.799
1877.45
1875.958
1874.307
1872.524
1870.48
1868.733
1864.971
1977.237
1976.416
1975.569
1974.826
1974.239
1973.792
1973.41
1972.979
1972.364
1971.428
1970.053
1968.158
1965.705
1962.709
1959.23
1955.367
1951.246
1947.007
1942.785
1938.701
1934.852
1931.301
1928.082
1925.192
1922.605
1920.275
1918.145
1916.154
1914.246
1912.374
1910.504
1908.619
1906.714
1904.796
1902.884
1900.999
1899.167
1897.412
1895.755
1894.211
1892.786
1891.481
1890.287
1889.19
1888.167
1887.192
1886.236
1885.266
1884.251
1883.159
1881.964
1880.643
1879.18
1877.564
1875.793
1873.865
1871.82
1869.541
1867.602
1863.639
1978.425
1977.806
1977.273
1976.859
1976.513
1976.131
1975.578
1974.715
1973.417
1971.596
1969.208
1966.261
1962.811
1958.958
1954.828
1950.562
1946.302
1942.171
1938.272
1934.674
1931.41
1928.484
1925.869
1923.519
1921.378
1919.381
1917.471
1915.6
1913.731
1911.845
1909.937
1908.013
1906.091
1904.194
1902.348
1900.577