/*--------------------------------*- C++ -*----------------------------------*\
| =========                 |                                                 |
| \\      /  F ield         | OpenFOAM: The Open Source CFD Toolbox           |
|  \\    /   O peration     | Version:  2312                                  |
|   \\  /    A nd           | Website:  www.openfoam.com                      |
|    \\/     M anipulation  |                                                 |
\*---------------------------------------------------------------------------*/
FoamFile
{
    version     2.0;
    format      ascii;
    arch        "LSB;label=32;scalar=64";
    class       volScalarField;
    location    "3750";
    object      qin;
}
// * * * * * * * * * * * * * * * * * * * * * * * * * * * * * * * * * * * * * //

dimensions      [1 0 -3 0 0 0 0];

internalField   uniform 0;

boundaryField
{
    plate
    {
        type            calculated;
        value           nonuniform List<scalar> 
200
(
2165.324
2138.017
2123.001
2099.52
2066.237
2039.043
2028.421
2032.067
2041.638
2051.387
2058.721
2060.775
2054.846
2042.016
2027.713
2018.118
2016.941
2024.924
2040.169
2058.215
2073.363
2081.718
2083.506
2082.369
2082.374
2085.492
2091.243
2097.864
2103.448
2106.442
2106.054
2102.85
2098.901
2096.917
2098.839
2104.915
2113.745
2123
2130.378
2134.508
2135.507
2134.899
2134.85
2137.143
2142.469
2150.289
2159.193
2167.485
2173.776
2177.411
2178.589
2178.138
2177.056
2176.073
2175.458
2175.097
2174.759
2174.341
2173.984
2174.025
2174.82
2176.566
2179.188
2182.355
2185.601
2188.488
2190.734
2192.264
2193.184
2193.702
2194.03
2194.318
2194.62
2194.895
2195.044
2194.951
2194.523
2193.73
2192.61
2191.278
2189.896
2188.648
2187.695
2187.14
2187.011
2187.267
2187.82
2188.576
2189.464
2190.456
2191.566
2192.833
2194.287
2195.938
2197.755
2199.672
2201.601
2203.452
2205.141
2206.603
2207.799
2208.706
2209.323
2209.669
2209.777
2209.703
2209.514
2209.289
2209.106
2209.036
2209.132
2209.418
2209.899
2210.554
2211.351
2212.253
2213.223
2214.225
2215.222
2216.174
2217.031
2217.75
2218.298
2218.678
2218.937
2219.164
2219.468
2219.946
2220.639
2221.506
2222.426
2223.233
2223.776
2223.977
2223.858
2223.532
2223.144
2222.8
2222.516
2222.216
2221.794
2221.209
2220.572
2220.174
2220.409
2221.616
2223.895
2226.964
2230.147
2232.523
2233.194
2231.607
2227.785
2222.396
2216.6
2211.691
2208.642
2207.682
2208.108
2208.456
2207.098
2203.074
2196.845
2190.509
2187.24
2190.02
2200.205
2216.6
2235.596
2252.415
2262.939
2265.346
2260.828
2253.118
2246.968
2246.133
2251.529
2260.333
2266.695
2264.365
2250.578
2229.228
2210.7
2207.151
2225.406
2262.326
2306.446
2344.659
2368.467
2375.396
2366.76
2346.876
2326.364
2324.725
2362.261
2440.655
2533.533
2609.267
2678.454
2800.049
)
;
    }
    riser
    {
        type            calculated;
        value           nonuniform List<scalar> 
200
(
4117.979
4097.574
4146.962
4286.507
4466.192
4606.878
4716.12
4791.9
4772.72
4712.251
4746.021
4827.548
4815.403
4768.71
4853.711
5065.575
5250.332
5310.535
5281.141
5244.567
5236.627
5236.342
5210.68
5152.473
5083.644
5028.022
4990.7
4976.665
5009.682
5108.743
5262.009
5438.993
5611.01
5754.268
5847.601
5881.207
5868.299
5837.238
5811.343
5797.457
5790.157
5782.535
5770.87
5753.063
5727.346
5694.311
5659.18
5629.92
5612.511
5607.916
5613.116
5624.559
5640.667
5661.852
5688.871
5721.171
5756.268
5790.204
5818.639
5838.083
5846.818
5845.234
5835.504
5820.825
5804.584
5789.742
5778.492
5772.12
5770.934
5774.27
5780.628
5787.999
5794.358
5798.175
5798.788
5796.49
5792.328
5787.698
5783.912
5781.872
5781.916
5783.852
5787.107
5790.925
5794.55
5797.327
5798.753
5798.484
5796.337
5792.285
5786.462
5779.162
5770.825
5762.014
5753.362
5745.522
5739.109
5734.65
5732.547
5733.044
5736.214
5741.952
5749.977
5759.847
5770.989
5782.743
5794.402
5805.273
5814.718
5822.211
5827.364
5829.961
5829.96
5827.494
5822.852
5816.448
5808.787
5800.423
5791.934
5783.89
5776.83
5771.223
5767.433
5765.67
5765.951
5768.084
5771.69
5776.276
5781.34
5786.474
5791.437
5796.16
5800.692
5805.098
5809.359
5813.331
5816.779
5819.469
5821.271
5822.216
5822.459
5822.158
5821.338
5819.818
5817.286
5813.507
5808.604
5803.255
5798.661
5796.242
5797.092
5801.409
5808.139
5815.076
5819.486
5819.174
5813.657
5804.952
5797.53
5797.142
5808.693
5833.798
5869.062
5906.034
5933.201
5939.477
5917.854
5867.821
5795.714
5712.986
5633.047
5567.558
5523.182
5499.838
5491.25
5487.873
5481.666
5471.614
5467.136
5485.225
5540.179
5629.67
5724.818
5775.161
5733.624
5588.711
5379.596
5178.031
5045.713
4999.282
5016.064
5076.636
5190.94
5339.598
5403.158
5204.844
4762.664
4417.137
4337.701
4407.63
)
;
    }
    topAndBottom
    {
        type            calculated;
        value           nonuniform List<scalar> 
120
(
6532.847
5872.377
5419.489
5129.212
4928.986
4789.588
4690.105
4610.744
4540.38
4477.275
4423.842
4381.671
4349.633
4324.653
4303.449
4283.786
4264.769
4246.479
4229.412
4214
4200.326
4188.07
4176.661
4165.533
4154.336
4142.975
4131.512
4120.016
4108.478
4096.833
4085.049
4073.214
4061.577
4050.51
4040.408
4031.551
4023.985
4017.455
4011.457
4005.391
3998.766
3991.36
3983.272
3974.893
3966.824
3959.743
3954.126
3949.799
3945.513
3938.998
3927.891
3911.341
3891.315
3872.135
3857.633
3847.362
3835.735
3816.51
3793.068
3773.128
5173.856
5207.876
5202.28
5124.095
4957.146
4747.182
4571.188
4471.13
4436.59
4435.103
4443.576
4455.84
4472.854
4491.319
4500.259
4486.154
4441.474
4370.284
4287.181
4210.496
4154.193
4122.968
4112.341
4112.524
4113.361
4107.957
4093.875
4072.231
4045.804
4017.315
3988.474
3959.873
3931.388
3902.705
3873.707
3844.612
3815.917
3788.244
3762.224
3738.495
3717.814
3701.19
3689.88
3685.145
3687.766
3697.498
3712.717
3730.504
3747.276
3759.85
3766.53
3767.614
3764.864
3760.06
3753.413
3742.87
3725.678
3700.186
3674.23
3638.522
)
;
    }
    frontAndBack
    {
        type            empty;
    }
}


// ************************************************************************* //
