/*--------------------------------*- C++ -*----------------------------------*\
| =========                 |                                                 |
| \\      /  F ield         | OpenFOAM: The Open Source CFD Toolbox           |
|  \\    /   O peration     | Version:  2312                                  |
|   \\  /    A nd           | Website:  www.openfoam.com                      |
|    \\/     M anipulation  |                                                 |
\*---------------------------------------------------------------------------*/
FoamFile
{
    version     2.0;
    format      ascii;
    arch        "LSB;label=32;scalar=64";
    class       volVectorField;
    location    "3750";
    object      U;
}
// * * * * * * * * * * * * * * * * * * * * * * * * * * * * * * * * * * * * * //

dimensions      [0 1 -1 0 0 0 0];

internalField   nonuniform List<vector> 
12000
(
(-0.03106935 0.07330485 0)
(-0.07223991 0.07656377 0)
(-0.1213228 0.07638696 0)
(-0.1708 0.07084808 0)
(-0.2157958 0.07496581 0)
(-0.2639253 0.09309094 0)
(-0.3151188 0.0967205 0)
(-0.3625797 0.06999386 0)
(-0.397232 0.04049304 0)
(-0.4274568 0.05865764 0)
(-0.4661423 0.08873662 0)
(-0.507586 0.0783219 0)
(-0.5401495 0.0280027 0)
(-0.5585771 0.01330639 0)
(-0.581062 0.05494812 0)
(-0.6133738 0.07983292 0)
(-0.6436109 0.03981805 0)
(-0.6584222 -0.001942395 0)
(-0.6693033 0.01648307 0)
(-0.6884561 0.05402236 0)
(-0.711657 0.04597821 0)
(-0.7263424 0.01211289 0)
(-0.734634 0.003979247 0)
(-0.743946 0.02046418 0)
(-0.7564133 0.0281144 0)
(-0.7670649 0.01605742 0)
(-0.773337 -1.00444e-05 0)
(-0.7761774 -0.001917586 0)
(-0.7799309 0.008004411 0)
(-0.7849949 0.01191822 0)
(-0.7892025 0.004926343 0)
(-0.7902936 -0.002304228 0)
(-0.7903389 -0.01152807 0)
(-0.7870083 -0.01920251 0)
(-0.7826179 -0.00665463 0)
(-0.7827332 0.007181822 0)
(-0.7822309 0.003649279 0)
(-0.7772153 -0.02043385 0)
(-0.7661115 -0.05150508 0)
(-0.7485743 -0.03417647 0)
(-0.7429388 0.01599822 0)
(-0.743472 0.02794478 0)
(-0.7370204 -0.01977747 0)
(-0.7146534 -0.1120885 0)
(-0.675924 -0.07957167 0)
(-0.6635582 0.0262952 0)
(-0.6590621 0.07062663 0)
(-0.6521163 -0.02896322 0)
(-0.6174639 -0.1507156 0)
(-0.5642579 -0.1168191 0)
(-0.5348426 0.02616561 0)
(-0.5263104 0.0236931 0)
(-0.4873406 -0.1224843 0)
(-0.4266085 -0.1449897 0)
(-0.3777266 -0.05773753 0)
(-0.3329244 -0.04546866 0)
(-0.275365 -0.1108264 0)
(-0.2030647 -0.1358347 0)
(-0.1131573 -0.1250862 0)
(-0.04640023 -0.1132117 0)
(-0.02752777 0.2080378 0)
(-0.07227108 0.1975706 0)
(-0.1177971 0.2035991 0)
(-0.1634915 0.2008292 0)
(-0.2087244 0.1929057 0)
(-0.2468433 0.189452 0)
(-0.2816812 0.1843759 0)
(-0.3100325 0.1700686 0)
(-0.3516929 0.1431647 0)
(-0.3853052 0.1419572 0)
(-0.4125918 0.1398599 0)
(-0.4312091 0.1342026 0)
(-0.4548428 0.117737 0)
(-0.484369 0.1055119 0)
(-0.5092276 0.1024148 0)
(-0.5216714 0.09981735 0)
(-0.5327294 0.08885903 0)
(-0.5521976 0.07613962 0)
(-0.5736401 0.07020882 0)
(-0.5855093 0.06795719 0)
(-0.5910393 0.06274003 0)
(-0.6002016 0.0539317 0)
(-0.6132505 0.04686022 0)
(-0.6234446 0.0425698 0)
(-0.6287402 0.03852919 0)
(-0.6328191 0.03280395 0)
(-0.6387242 0.02637956 0)
(-0.6455011 0.02123003 0)
(-0.6500121 0.01772195 0)
(-0.6512083 0.01494089 0)
(-0.6515433 0.01102672 0)
(-0.6524985 0.00642792 0)
(-0.6534595 0.001238706 0)
(-0.6546361 -0.003662346 0)
(-0.6547896 -0.005047176 0)
(-0.6502964 -0.008983228 0)
(-0.6425913 -0.0158715 0)
(-0.6357414 -0.02491562 0)
(-0.6342062 -0.02990278 0)
(-0.633809 -0.033707 0)
(-0.6243568 -0.03948672 0)
(-0.6033256 -0.04626116 0)
(-0.5816413 -0.05712784 0)
(-0.5777932 -0.06441742 0)
(-0.5797775 -0.07056154 0)
(-0.5663772 -0.07886086 0)
(-0.527521 -0.08490481 0)
(-0.4903978 -0.09362353 0)
(-0.4802596 -0.1043089 0)
(-0.4759452 -0.118513 0)
(-0.4520608 -0.1358753 0)
(-0.3995113 -0.152427 0)
(-0.3619336 -0.1665014 0)
(-0.3482711 -0.1767889 0)
(-0.3203921 -0.2073738 0)
(-0.2581084 -0.2449959 0)
(-0.2237983 -0.2607951 0)
(-0.1630611 -0.3196058 0)
(-0.1039837 -0.3459467 0)
(-0.04891524 -0.3582088 0)
(-0.0274119 0.35218 0)
(-0.05610127 0.3380709 0)
(-0.09902625 0.3321103 0)
(-0.1314134 0.3234682 0)
(-0.1669812 0.3092471 0)
(-0.1981532 0.2942349 0)
(-0.226308 0.2782431 0)
(-0.2562205 0.2602345 0)
(-0.2782793 0.2537348 0)
(-0.3114537 0.2273624 0)
(-0.3332127 0.2130959 0)
(-0.3552726 0.1974788 0)
(-0.3744187 0.1810625 0)
(-0.3937705 0.1670544 0)
(-0.4114517 0.1552183 0)
(-0.4263861 0.143333 0)
(-0.440052 0.1303829 0)
(-0.4539985 0.1182442 0)
(-0.467453 0.1082548 0)
(-0.4789624 0.09926199 0)
(-0.4887794 0.08960173 0)
(-0.4980472 0.07966667 0)
(-0.5070031 0.07068428 0)
(-0.5149623 0.06267994 0)
(-0.5216199 0.05478783 0)
(-0.5273268 0.04660605 0)
(-0.5324627 0.03849513 0)
(-0.5369544 0.03099137 0)
(-0.5403988 0.02410388 0)
(-0.542519 0.01739216 0)
(-0.5440072 0.01024487 0)
(-0.544499 0.004960066 0)
(-0.5441224 -0.004328678 0)
(-0.5428783 -0.01196617 0)
(-0.5404657 -0.01894807 0)
(-0.5365665 -0.02624466 0)
(-0.5316613 -0.0345097 0)
(-0.5263283 -0.04352314 0)
(-0.5203476 -0.05286756 0)
(-0.5129665 -0.06185388 0)
(-0.5039854 -0.07070013 0)
(-0.4936011 -0.08089557 0)
(-0.482437 -0.09255459 0)
(-0.4706325 -0.1057978 0)
(-0.4573257 -0.1179474 0)
(-0.4416842 -0.129676 0)
(-0.4237227 -0.1438661 0)
(-0.4043589 -0.159973 0)
(-0.3832489 -0.177645 0)
(-0.3604502 -0.1950337 0)
(-0.3364558 -0.2104615 0)
(-0.3142339 -0.2250428 0)
(-0.2858032 -0.2426555 0)
(-0.259844 -0.2641359 0)
(-0.2210186 -0.3052492 0)
(-0.186372 -0.3420342 0)
(-0.1477615 -0.3838837 0)
(-0.1127871 -0.4326563 0)
(-0.06704877 -0.4899788 0)
(-0.02785961 -0.5141996 0)
(-0.02072973 0.4508967 0)
(-0.04495145 0.4267171 0)
(-0.0761861 0.4163599 0)
(-0.1015535 0.4027826 0)
(-0.128124 0.3855604 0)
(-0.1524631 0.3666434 0)
(-0.1758729 0.3473472 0)
(-0.1976068 0.3269568 0)
(-0.2201044 0.3077145 0)
(-0.2350446 0.2953272 0)
(-0.2572043 0.2723113 0)
(-0.2737784 0.2537322 0)
(-0.293606 0.2305606 0)
(-0.3095827 0.21313 0)
(-0.3252508 0.1974132 0)
(-0.3391361 0.1826911 0)
(-0.3520523 0.1685029 0)
(-0.3646216 0.1546066 0)
(-0.3763937 0.1413889 0)
(-0.3868133 0.1290216 0)
(-0.396166 0.1170922 0)
(-0.4046571 0.1055329 0)
(-0.4123932 0.09439373 0)
(-0.4192516 0.08367781 0)
(-0.425184 0.07326462 0)
(-0.4302788 0.06302608 0)
(-0.4346324 0.05289529 0)
(-0.4382229 0.0428706 0)
(-0.4408109 0.03302934 0)
(-0.4429484 0.02342902 0)
(-0.4441361 0.01632391 0)
(-0.444307 0.00560728 0)
(-0.4434545 -0.004719605 0)
(-0.4421127 -0.01491164 0)
(-0.4398019 -0.0250615 0)
(-0.4365096 -0.03556705 0)
(-0.4322371 -0.04651912 0)
(-0.4271252 -0.05794922 0)
(-0.4211907 -0.06981455 0)
(-0.4143192 -0.08215927 0)
(-0.4063474 -0.09510227 0)
(-0.3970224 -0.1087788 0)
(-0.3870844 -0.1229365 0)
(-0.3763632 -0.1381696 0)
(-0.364356 -0.1544688 0)
(-0.3509545 -0.171832 0)
(-0.3360951 -0.1902835 0)
(-0.3202043 -0.2101117 0)
(-0.3031832 -0.2313794 0)
(-0.2836575 -0.2507833 0)
(-0.2685501 -0.2645708 0)
(-0.2437266 -0.295369 0)
(-0.2171946 -0.333817 0)
(-0.1887668 -0.3691879 0)
(-0.1611606 -0.4024924 0)
(-0.1342271 -0.438167 0)
(-0.1055046 -0.4799993 0)
(-0.07702493 -0.5312336 0)
(-0.04618423 -0.5897502 0)
(-0.01845986 -0.6213737 0)
(-0.01532981 0.5359684 0)
(-0.03578618 0.5054691 0)
(-0.05983463 0.4894608 0)
(-0.08047582 0.4717298 0)
(-0.1013862 0.4513518 0)
(-0.120894 0.4290896 0)
(-0.1397353 0.4060035 0)
(-0.1575329 0.382372 0)
(-0.1745635 0.358337 0)
(-0.1902173 0.3352808 0)
(-0.2051718 0.3170678 0)
(-0.2165236 0.3018073 0)
(-0.2326803 0.2785567 0)
(-0.2459945 0.2570104 0)
(-0.2589756 0.2373627 0)
(-0.2710302 0.2181833 0)
(-0.2813252 0.2027108 0)
(-0.2919782 0.1867522 0)
(-0.3012077 0.1710489 0)
(-0.3095669 0.1555766 0)
(-0.3175373 0.1403859 0)
(-0.32453 0.126144 0)
(-0.3307843 0.1124989 0)
(-0.3362846 0.09931407 0)
(-0.3410406 0.08648542 0)
(-0.3450715 0.07392842 0)
(-0.348409 0.06157892 0)
(-0.3510436 0.04938429 0)
(-0.3531196 0.03729534 0)
(-0.3543935 0.02772541 0)
(-0.3548994 0.01496481 0)
(-0.354357 0.002767856 0)
(-0.3534406 -0.009442157 0)
(-0.3517297 -0.02176811 0)
(-0.3495353 -0.03420988 0)
(-0.3467289 -0.0471105 0)
(-0.3429788 -0.0604649 0)
(-0.3384785 -0.07429501 0)
(-0.3332092 -0.08867752 0)
(-0.3271435 -0.1036965 0)
(-0.3204453 -0.1194597 0)
(-0.3122498 -0.1360982 0)
(-0.3045223 -0.1503605 0)
(-0.2944626 -0.1700493 0)
(-0.2842868 -0.1898592 0)
(-0.2728708 -0.2103598 0)
(-0.2608201 -0.2319812 0)
(-0.2470843 -0.2544088 0)
(-0.2339278 -0.2753328 0)
(-0.2199622 -0.2984253 0)
(-0.2001688 -0.3304115 0)
(-0.1800055 -0.3638289 0)
(-0.1606309 -0.3957446 0)
(-0.1416847 -0.4282583 0)
(-0.1216765 -0.4642138 0)
(-0.1005884 -0.5042422 0)
(-0.07854931 -0.5491807 0)
(-0.05666598 -0.6005773 0)
(-0.03381677 -0.6616824 0)
(-0.01248256 -0.6982701 0)
(-0.01117212 0.5985195 0)
(-0.02760235 0.5641101 0)
(-0.04563034 0.5441902 0)
(-0.06158122 0.5237896 0)
(-0.07741801 0.50131 0)
(-0.09231783 0.4771811 0)
(-0.1067599 0.4522266 0)
(-0.1206018 0.4270169 0)
(-0.1340074 0.4020699 0)
(-0.147158 0.3776842 0)
(-0.1591182 0.3539744 0)
(-0.1714634 0.3317822 0)
(-0.1792123 0.3132398 0)
(-0.1912266 0.2902769 0)
(-0.201077 0.2682483 0)
(-0.2108287 0.2477531 0)
(-0.2198786 0.2284639 0)
(-0.2278946 0.2103358 0)
(-0.2351399 0.1927608 0)
(-0.2418939 0.1756717 0)
(-0.2480884 0.1591404 0)
(-0.253693 0.1431612 0)
(-0.2586815 0.127694 0)
(-0.2630573 0.112674 0)
(-0.2668254 0.09803746 0)
(-0.2699972 0.08372396 0)
(-0.2725872 0.06967915 0)
(-0.2746004 0.05585745 0)
(-0.2761404 0.04220547 0)
(-0.2768322 0.02873097 0)
(-0.2767334 0.01516796 0)
(-0.2763079 0.001474066 0)
(-0.2756694 -0.01246536 0)
(-0.274417 -0.0267954 0)
(-0.2726976 -0.03914939 0)
(-0.2701431 -0.0547263 0)
(-0.2671296 -0.07024709 0)
(-0.2634983 -0.08603587 0)
(-0.2592968 -0.1022942 0)
(-0.2545052 -0.119154 0)
(-0.2491195 -0.1367229 0)
(-0.2432164 -0.1550133 0)
(-0.2362988 -0.174381 0)
(-0.2284981 -0.1950098 0)
(-0.2203181 -0.2165783 0)
(-0.211662 -0.2393597 0)
(-0.2011823 -0.2629468 0)
(-0.1922395 -0.2855227 0)
(-0.180188 -0.3126397 0)
(-0.1659718 -0.3447119 0)
(-0.152 -0.3769347 0)
(-0.1376761 -0.4095259 0)
(-0.1229969 -0.4436623 0)
(-0.1074847 -0.4800268 0)
(-0.09122499 -0.5187877 0)
(-0.07452494 -0.5604263 0)
(-0.05761253 -0.6059957 0)
(-0.04093351 -0.6572719 0)
(-0.02416151 -0.7158024 0)
(-0.008821523 -0.7520708 0)
(-0.008294812 0.6482274 0)
(-0.02109485 0.6103222 0)
(-0.03437287 0.5865513 0)
(-0.04625593 0.5634386 0)
(-0.05794799 0.5388469 0)
(-0.06903018 0.5130481 0)
(-0.07982366 0.4866593 0)
(-0.09027527 0.4601833 0)
(-0.100423 0.4340457 0)
(-0.1102697 0.4085193 0)
(-0.1197598 0.3837895 0)
(-0.1284729 0.3596094 0)
(-0.13775 0.3363963 0)
(-0.1435897 0.3164944 0)
(-0.1519994 0.2942108 0)
(-0.1595925 0.2717391 0)
(-0.1666485 0.2505195 0)
(-0.1731675 0.2303587 0)
(-0.1790712 0.2109122 0)
(-0.1844526 0.192121 0)
(-0.1893247 0.1739283 0)
(-0.1936937 0.156301 0)
(-0.1975613 0.1391909 0)
(-0.2009319 0.1225446 0)
(-0.2038116 0.1063049 0)
(-0.2062081 0.09041219 0)
(-0.2081293 0.07480537 0)
(-0.209579 0.05942142 0)
(-0.2105689 0.04418775 0)
(-0.2110837 0.02905897 0)
(-0.2110606 0.01380313 0)
(-0.2107865 -0.0004096686 0)
(-0.2102731 -0.01425514 0)
(-0.2092895 -0.03037244 0)
(-0.2076708 -0.04638028 0)
(-0.205457 -0.06271054 0)
(-0.2030171 -0.0793848 0)
(-0.2001489 -0.096525 0)
(-0.1968507 -0.1142403 0)
(-0.1930938 -0.1326398 0)
(-0.1888577 -0.1518284 0)
(-0.1841138 -0.1719048 0)
(-0.1788193 -0.1929347 0)
(-0.1729779 -0.2151768 0)
(-0.1668274 -0.2386668 0)
(-0.1591279 -0.2632654 0)
(-0.1528861 -0.287905 0)
(-0.1431746 -0.3167388 0)
(-0.1336733 -0.3473321 0)
(-0.1235065 -0.3788992 0)
(-0.1132845 -0.4116401 0)
(-0.1025676 -0.4458384 0)
(-0.09130556 -0.4815227 0)
(-0.07957274 -0.5188822 0)
(-0.06748818 -0.5582638 0)
(-0.05515093 -0.6001964 0)
(-0.04265862 -0.6455986 0)
(-0.03031939 -0.6961914 0)
(-0.01802115 -0.7544024 0)
(-0.006385596 -0.7925647 0)
(-0.00600427 0.6849846 0)
(-0.01572175 0.6439045 0)
(-0.02528351 0.617062 0)
(-0.03390712 0.5922281 0)
(-0.04234864 0.5665211 0)
(-0.05039942 0.5399277 0)
(-0.05826866 0.512893 0)
(-0.06594338 0.4857988 0)
(-0.07344289 0.4589505 0)
(-0.08073795 0.4325503 0)
(-0.08778569 0.4067201 0)
(-0.09455663 0.3815001 0)
(-0.1007946 0.3567725 0)
(-0.1074505 0.3330192 0)
(-0.1117301 0.311819 0)
(-0.1172394 0.28979 0)
(-0.1226064 0.2672947 0)
(-0.1274587 0.2456524 0)
(-0.1319704 0.2248906 0)
(-0.1360621 0.2048268 0)
(-0.1397646 0.1853988 0)
(-0.1430789 0.1665491 0)
(-0.1460093 0.1482271 0)
(-0.1485607 0.1303816 0)
(-0.1507401 0.1129595 0)
(-0.1525554 0.0959046 0)
(-0.1540158 0.07915815 0)
(-0.1551304 0.06265816 0)
(-0.1559091 0.04633797 0)
(-0.1563623 0.0301316 0)
(-0.1564829 0.01396302 0)
(-0.1564082 -0.0006683518 0)
(-0.1558427 -0.01715744 0)
(-0.1548406 -0.03382164 0)
(-0.1536591 -0.05066366 0)
(-0.15217 -0.06789568 0)
(-0.1504017 -0.08554569 0)
(-0.1483244 -0.1037174 0)
(-0.145929 -0.1225117 0)
(-0.1432011 -0.1420375 0)
(-0.1401254 -0.1624065 0)
(-0.1366838 -0.183733 0)
(-0.1328329 -0.2061367 0)
(-0.1287053 -0.2297376 0)
(-0.1235551 -0.2546779 0)
(-0.1192431 -0.2803524 0)
(-0.1127036 -0.3088804 0)
(-0.1064407 -0.3388439 0)
(-0.09964296 -0.3700284 0)
(-0.09250749 -0.4027309 0)
(-0.08491019 -0.4368625 0)
(-0.07684184 -0.4724282 0)
(-0.06833925 -0.509471 0)
(-0.05945918 -0.5481131 0)
(-0.05028507 -0.5885934 0)
(-0.0409239 -0.6313639 0)
(-0.03148982 -0.6772374 0)
(-0.02217618 -0.7276899 0)
(-0.01306918 -0.7844423 0)
(-0.004563265 -0.8213661 0)
(-0.004420734 0.7128847 0)
(-0.01154776 0.6696921 0)
(-0.0181712 0.6399389 0)
(-0.02402429 0.6132138 0)
(-0.02971461 0.5862466 0)
(-0.03516426 0.5587891 0)
(-0.04054087 0.5311248 0)
(-0.04583868 0.5035434 0)
(-0.0510636 0.4762635 0)
(-0.05618398 0.4494239 0)
(-0.06116299 0.4230969 0)
(-0.06597415 0.397312 0)
(-0.07061946 0.37209 0)
(-0.07488209 0.3473572 0)
(-0.07946505 0.3234918 0)
(-0.08232985 0.3016107 0)
(-0.08569596 0.2796625 0)
(-0.089503 0.2572218 0)
(-0.09269276 0.2353987 0)
(-0.09581795 0.2143399 0)
(-0.09862927 0.1939134 0)
(-0.1011498 0.1740806 0)
(-0.1033766 0.1547944 0)
(-0.1053163 0.1360084 0)
(-0.1069775 0.1176731 0)
(-0.1083696 0.09973519 0)
(-0.1095026 0.08213647 0)
(-0.1103856 0.06481409 0)
(-0.1110278 0.04770076 0)
(-0.111435 0.03072582 0)
(-0.1116339 0.01381721 0)
(-0.1115362 -0.001920492 0)
(-0.1111296 -0.01907201 0)
(-0.1105506 -0.03642269 0)
(-0.1097628 -0.05401504 0)
(-0.1087604 -0.07195618 0)
(-0.107546 -0.09033753 0)
(-0.1061098 -0.1092632 0)
(-0.1044443 -0.1288413 0)
(-0.1025401 -0.1491858 0)
(-0.1003874 -0.1704167 0)
(-0.0979779 -0.1926596 0)
(-0.09528622 -0.2160433 0)
(-0.09236891 -0.2407006 0)
(-0.08908866 -0.2666468 0)
(-0.08553254 -0.2942709 0)
(-0.08148953 -0.3235743 0)
(-0.07725552 -0.3543757 0)
(-0.07261153 -0.3867916 0)
(-0.06753056 -0.4207613 0)
(-0.06199376 -0.456189 0)
(-0.05602091 -0.4929495 0)
(-0.04968374 -0.5309623 0)
(-0.04308028 -0.5702635 0)
(-0.03630724 -0.6110516 0)
(-0.02945843 -0.6537626 0)
(-0.02262321 -0.6992168 0)
(-0.0159228 -0.7489459 0)
(-0.009429886 -0.8049466 0)
(-0.003274382 -0.8427304 0)
(-0.002759296 0.7336111 0)
(-0.007725711 0.68678 0)
(-0.01202178 0.654247 0)
(-0.01575562 0.6262503 0)
(-0.01933946 0.5988131 0)
(-0.02280285 0.5712685 0)
(-0.02622493 0.5436484 0)
(-0.02960591 0.5160783 0)
(-0.0329447 0.4886826 0)
(-0.03624902 0.4615613 0)
(-0.03953884 0.4348174 0)
(-0.04280668 0.4085397 0)
(-0.04602825 0.3827861 0)
(-0.04919049 0.3576058 0)
(-0.05212144 0.3329506 0)
(-0.05523541 0.3091119 0)
(-0.05736097 0.286868 0)
(-0.05917717 0.2651762 0)
(-0.06167316 0.2432484 0)
(-0.06359336 0.2216721 0)
(-0.06551664 0.2006077 0)
(-0.06723613 0.1800892 0)
(-0.06877854 0.1601145 0)
(-0.07014269 0.1406561 0)
(-0.0713344 0.121671 0)
(-0.07235938 0.1031062 0)
(-0.07322554 0.08490268 0)
(-0.07394197 0.06699702 0)
(-0.07451421 0.04931884 0)
(-0.07493966 0.03179401 0)
(-0.07524703 0.01434569 0)
(-0.07532949 -0.00227654 0)
(-0.07519978 -0.01991828 0)
(-0.07497143 -0.03773381 0)
(-0.07461084 -0.05581044 0)
(-0.07411719 -0.07424622 0)
(-0.07348602 -0.09314017 0)
(-0.07271177 -0.1125972 0)
(-0.07178864 -0.1327262 0)
(-0.07071007 -0.1536398 0)
(-0.06946907 -0.175453 0)
(-0.06805761 -0.1982815 0)
(-0.06647344 -0.2222385 0)
(-0.06466138 -0.2474445 0)
(-0.06279722 -0.2739755 0)
(-0.06048106 -0.3023576 0)
(-0.05807134 -0.332499 0)
(-0.0553228 -0.3643319 0)
(-0.0522247 -0.3979104 0)
(-0.04870973 -0.4331339 0)
(-0.04475072 -0.4697977 0)
(-0.04038596 -0.5076327 0)
(-0.03572425 -0.5464659 0)
(-0.03089142 -0.586348 0)
(-0.02596619 -0.6275364 0)
(-0.02101128 -0.6705012 0)
(-0.01608896 -0.7160555 0)
(-0.01126657 -0.765633 0)
(-0.006636222 -0.8208896 0)
(-0.002283166 -0.8577175 0)
(-0.002119247 0.7482969 0)
(-0.005530058 0.6990973 0)
(-0.00840399 0.6644256 0)
(-0.01052491 0.6352049 0)
(-0.01241374 0.606975 0)
(-0.01416388 0.578828 0)
(-0.01591084 0.5507249 0)
(-0.01769334 0.5227923 0)
(-0.01954685 0.4951833 0)
(-0.02143893 0.4681632 0)
(-0.02337311 0.4417458 0)
(-0.0253062 0.41576 0)
(-0.02722621 0.3901941 0)
(-0.02912276 0.3650381 0)
(-0.03099924 0.3403057 0)
(-0.0327574 0.3159681 0)
(-0.03455886 0.2921793 0)
(-0.03591656 0.2694773 0)
(-0.03680421 0.2474202 0)
(-0.03792778 0.2255602 0)
(-0.03889666 0.2041726 0)
(-0.03986061 0.1833164 0)
(-0.04079461 0.1630073 0)
(-0.0416943 0.143221 0)
(-0.04255166 0.1239184 0)
(-0.04335524 0.1050506 0)
(-0.04409111 0.08657789 0)
(-0.04474653 0.06842754 0)
(-0.04532117 0.05050073 0)
(-0.04580795 0.03271923 0)
(-0.04623528 0.01500411 0)
(-0.04650742 -0.002204285 0)
(-0.04664275 -0.02007854 0)
(-0.04672938 -0.03814269 0)
(-0.04673949 -0.05648475 0)
(-0.0466741 -0.0751984 0)
(-0.04653006 -0.09438363 0)
(-0.04630363 -0.1141463 0)
(-0.04599036 -0.1345983 0)
(-0.04558443 -0.1558572 0)
(-0.0450784 -0.1780459 0)
(-0.04446023 -0.2012918 0)
(-0.04372293 -0.2257242 0)
(-0.04280658 -0.2514753 0)
(-0.04183547 -0.2786598 0)
(-0.04041513 -0.307593 0)
(-0.03927122 -0.3382905 0)
(-0.03763161 -0.371033 0)
(-0.03580679 -0.4056405 0)
(-0.03353984 -0.4420116 0)
(-0.03078932 -0.4798625 0)
(-0.02764696 -0.5186074 0)
(-0.02429434 -0.5579409 0)
(-0.02088021 -0.5980247 0)
(-0.01748055 -0.6391886 0)
(-0.01410302 -0.6819248 0)
(-0.01078255 -0.7270784 0)
(-0.007548237 -0.7761162 0)
(-0.004466061 -0.8308067 0)
(-0.001533735 -0.8683042 0)
(-0.001090652 0.7600336 0)
(-0.002920506 0.706789 0)
(-0.003262888 0.6692463 0)
(-0.003521623 0.6383952 0)
(-0.003579955 0.6096629 0)
(-0.003748123 0.5816955 0)
(-0.004090103 0.5541464 0)
(-0.004678965 0.5269065 0)
(-0.005289811 0.4999084 0)
(-0.006458499 0.4729755 0)
(-0.007262847 0.4461835 0)
(-0.008270784 0.4197739 0)
(-0.009308722 0.3938064 0)
(-0.01038703 0.3684005 0)
(-0.01144373 0.3435657 0)
(-0.01240206 0.319209 0)
(-0.01325671 0.2953009 0)
(-0.01406786 0.2719336 0)
(-0.01453609 0.2493942 0)
(-0.01516229 0.2275971 0)
(-0.01573508 0.206376 0)
(-0.01638218 0.1857034 0)
(-0.01708489 0.1655437 0)
(-0.01783541 0.1458572 0)
(-0.01861902 0.1265948 0)
(-0.01939182 0.1076795 0)
(-0.02022464 0.08902193 0)
(-0.02096315 0.07061883 0)
(-0.0216861 0.05243848 0)
(-0.02235465 0.03441694 0)
(-0.02299523 0.01648111 0)
(-0.02353022 -0.001182864 0)
(-0.02397705 -0.01922194 0)
(-0.02440315 -0.037456 0)
(-0.02478894 -0.05596761 0)
(-0.02513458 -0.07484929 0)
(-0.02543963 -0.09420763 0)
(-0.02570245 -0.1141511 0)
(-0.02592172 -0.1347947 0)
(-0.02609524 -0.1562602 0)
(-0.02621979 -0.1786762 0)
(-0.02628891 -0.2021777 0)
(-0.0263074 -0.2269041 0)
(-0.02617743 -0.2529922 0)
(-0.02609373 -0.2805871 0)
(-0.02582113 -0.3098795 0)
(-0.02510594 -0.3409971 0)
(-0.02443271 -0.3741199 0)
(-0.02350394 -0.4096366 0)
(-0.02204959 -0.4474902 0)
(-0.02030217 -0.4866783 0)
(-0.01822769 -0.5262055 0)
(-0.01599694 -0.5657412 0)
(-0.01371162 -0.6057609 0)
(-0.01147659 -0.6468923 0)
(-0.009254963 -0.6896425 0)
(-0.007060155 -0.7348309 0)
(-0.004912063 -0.7838589 0)
(-0.002865747 -0.8382944 0)
(-0.0009627062 -0.8751251 0)
(-0.0006940536 0.7656017 0)
(-0.001520835 0.7089854 0)
(-0.001249828 0.6689566 0)
(-0.0006266668 0.6375606 0)
(0.0001891112 0.6087679 0)
(0.001051359 0.5809704 0)
(0.001918122 0.553656 0)
(0.002789381 0.5265957 0)
(0.003476178 0.4997701 0)
(0.004408377 0.4732479 0)
(0.004637158 0.4471811 0)
(0.004693828 0.4216034 0)
(0.004507531 0.3965005 0)
(0.003836506 0.3715002 0)
(0.003285533 0.3463776 0)
(0.002558149 0.3214914 0)
(0.001781353 0.2971629 0)
(0.001061095 0.2735671 0)
(0.000197185 0.2507943 0)
(-0.0003611733 0.2288998 0)
(-0.0009025374 0.2076937 0)
(-0.001361526 0.187118 0)
(-0.00177445 0.1670825 0)
(-0.002159874 0.1474722 0)
(-0.002557298 0.1282489 0)
(-0.002954378 0.1094014 0)
(-0.003367512 0.09086011 0)
(-0.003888457 0.07253029 0)
(-0.00443074 0.05437932 0)
(-0.005015208 0.03634959 0)
(-0.005637214 0.01837761 0)
(-0.006246909 0.0004692954 0)
(-0.006838655 -0.01760722 0)
(-0.007454908 -0.03587694 0)
(-0.008095683 -0.05444292 0)
(-0.008722675 -0.07339083 0)
(-0.009353955 -0.09281752 0)
(-0.009980051 -0.1128302 0)
(-0.01060056 -0.1335434 0)
(-0.01121362 -0.1550801 0)
(-0.01181719 -0.1775724 0)
(-0.01240814 -0.2011645 0)
(-0.01298613 -0.2260165 0)
(-0.01354946 -0.2522909 0)
(-0.01407696 -0.2801781 0)
(-0.01444996 -0.3099729 0)
(-0.01473751 -0.3418516 0)
(-0.01466807 -0.3760119 0)
(-0.01397997 -0.4126096 0)
(-0.01330614 -0.4510428 0)
(-0.01244086 -0.4907123 0)
(-0.01119732 -0.5309399 0)
(-0.009843456 -0.5708428 0)
(-0.008401327 -0.6108522 0)
(-0.006976263 -0.65194 0)
(-0.005590938 -0.6945834 0)
(-0.004239923 -0.7395731 0)
(-0.002942424 -0.7883066 0)
(-0.001736269 -0.8423855 0)
(-0.0006226296 -0.8796568 0)
(-0.0006860802 0.7709418 0)
(-0.0003447486 0.709337 0)
(0.0004802744 0.6675328 0)
(0.001967465 0.6348757 0)
(0.003596764 0.6054232 0)
(0.005283977 0.5772752 0)
(0.006928406 0.5498086 0)
(0.008485942 0.5228869 0)
(0.009839095 0.4965191 0)
(0.01102783 0.4707355 0)
(0.01210006 0.4454312 0)
(0.01300721 0.4206214 0)
(0.01364352 0.3960891 0)
(0.01443172 0.3715742 0)
(0.01457572 0.3473411 0)
(0.01463276 0.3234104 0)
(0.01427713 0.2997071 0)
(0.01395565 0.2762467 0)
(0.01348268 0.2532793 0)
(0.01301067 0.2309508 0)
(0.01254816 0.2093204 0)
(0.01211323 0.188359 0)
(0.01169216 0.1680211 0)
(0.01127127 0.1482786 0)
(0.01084937 0.1290976 0)
(0.01036264 0.1103345 0)
(0.00988196 0.09189714 0)
(0.009354815 0.07373372 0)
(0.008776647 0.05575378 0)
(0.008153112 0.03788691 0)
(0.007483108 0.02006017 0)
(0.006792606 0.00220236 0)
(0.006047925 -0.01571468 0)
(0.005239915 -0.033902 0)
(0.004424376 -0.05238799 0)
(0.003561348 -0.07127525 0)
(0.002678453 -0.09065533 0)
(0.001771828 -0.1106313 0)
(0.0008448474 -0.1313169 0)
(-9.98996e-05 -0.1528365 0)
(-0.001063923 -0.175322 0)
(-0.002051403 -0.1989108 0)
(-0.003051354 -0.2237344 0)
(-0.004032527 -0.2499628 0)
(-0.004938406 -0.2779825 0)
(-0.00573349 -0.3082135 0)
(-0.006377058 -0.3408836 0)
(-0.006769544 -0.3759981 0)
(-0.007077527 -0.4132143 0)
(-0.00707817 -0.4522812 0)
(-0.006582283 -0.492789 0)
(-0.006099997 -0.5335487 0)
(-0.005411871 -0.57374 0)
(-0.00455816 -0.6138671 0)
(-0.003715387 -0.6548776 0)
(-0.002943369 -0.69746 0)
(-0.00220353 -0.7424094 0)
(-0.001505139 -0.791107 0)
(-0.0008633706 -0.845092 0)
(-0.0002914934 -0.8821722 0)
(-0.0002520699 0.7739808 0)
(0.0001251853 0.7085731 0)
(0.00180241 0.6637153 0)
(0.003926845 0.6298855 0)
(0.006269619 0.6001048 0)
(0.008611647 0.5720564 0)
(0.01085607 0.5449361 0)
(0.01295099 0.5184454 0)
(0.01486975 0.492447 0)
(0.01661185 0.4669011 0)
(0.01816034 0.4418706 0)
(0.01949932 0.4173715 0)
(0.0206194 0.3932999 0)
(0.02141832 0.3696091 0)
(0.02217141 0.3460637 0)
(0.02265658 0.3225819 0)
(0.02327525 0.2992157 0)
(0.02346361 0.2762883 0)
(0.02346227 0.2537935 0)
(0.02338631 0.2317808 0)
(0.0231529 0.2103982 0)
(0.02283669 0.1896532 0)
(0.02244697 0.169503 0)
(0.02199359 0.14989 0)
(0.02149494 0.1307569 0)
(0.02095189 0.1120399 0)
(0.02036916 0.09369649 0)
(0.01973973 0.07565895 0)
(0.01906201 0.05779631 0)
(0.01833025 0.0400193 0)
(0.01753994 0.02227861 0)
(0.01669649 0.004508482 0)
(0.01579825 -0.0132061 0)
(0.01480484 -0.03127777 0)
(0.01374972 -0.04966936 0)
(0.01266252 -0.06846417 0)
(0.01153746 -0.08776037 0)
(0.01037403 -0.1076586 0)
(0.009168328 -0.1282705 0)
(0.007920461 -0.1497131 0)
(0.00663998 -0.1720944 0)
(0.005345148 -0.1955729 0)
(0.004060057 -0.2204366 0)
(0.002832176 -0.2469737 0)
(0.001702396 -0.2753997 0)
(0.0006973105 -0.3059537 0)
(-0.0001904168 -0.338857 0)
(-0.0009606593 -0.3742525 0)
(-0.001601234 -0.4121447 0)
(-0.002014113 -0.4521269 0)
(-0.002336328 -0.4932432 0)
(-0.002353186 -0.5345571 0)
(-0.001978188 -0.5754034 0)
(-0.001660872 -0.6157113 0)
(-0.001273389 -0.6565597 0)
(-0.0009625261 -0.6989792 0)
(-0.0006764428 -0.7437671 0)
(-0.0004300949 -0.7922944 0)
(-0.0002277917 -0.8461106 0)
(-0.0001021485 -0.8834032 0)
(-0.0001613871 0.7759251 0)
(0.0007387853 0.705491 0)
(0.002882445 0.6580894 0)
(0.005422269 0.6231167 0)
(0.008234309 0.5929517 0)
(0.01105605 0.5649382 0)
(0.01380171 0.5381028 0)
(0.01640222 0.5120571 0)
(0.01881658 0.4866382 0)
(0.02100944 0.4617902 0)
(0.02296606 0.4375192 0)
(0.02465551 0.413862 0)
(0.02609078 0.390556 0)
(0.02729301 0.3672472 0)
(0.0283001 0.3439101 0)
(0.02915146 0.3207296 0)
(0.02970584 0.2979697 0)
(0.03014604 0.2755925 0)
(0.03055274 0.2535909 0)
(0.03056119 0.2320665 0)
(0.03052904 0.2110235 0)
(0.03031949 0.1905236 0)
(0.0299988 0.1705772 0)
(0.02957769 0.1511543 0)
(0.02907085 0.1322027 0)
(0.02848786 0.1136541 0)
(0.02783746 0.09544454 0)
(0.02712755 0.07751648 0)
(0.02636019 0.05980449 0)
(0.02553228 0.04223732 0)
(0.02464347 0.02473063 0)
(0.02368278 0.007161068 0)
(0.02267029 -0.01033386 0)
(0.02155408 -0.02806399 0)
(0.02030402 -0.0463262 0)
(0.01900664 -0.06500245 0)
(0.01766265 -0.08417487 0)
(0.01627491 -0.103925 0)
(0.01484264 -0.1243679 0)
(0.01336735 -0.1456773 0)
(0.01186414 -0.1680344 0)
(0.01036305 -0.1916136 0)
(0.008892898 -0.216625 0)
(0.007481418 -0.2433247 0)
(0.006151554 -0.2719957 0)
(0.004931366 -0.3028996 0)
(0.003841384 -0.3362153 0)
(0.002889565 -0.3719973 0)
(0.002067663 -0.4101455 0)
(0.001362613 -0.450376 0)
(0.0007879257 -0.4921067 0)
(0.0004233813 -0.5342517 0)
(0.0001597571 -0.5755568 0)
(9.43739e-05 -0.6159667 0)
(4.565692e-05 -0.6567914 0)
(-1.24153e-06 -0.6992142 0)
(-2.684286e-05 -0.7440136 0)
(-4.093397e-05 -0.7925491 0)
(-5.388084e-05 -0.8463621 0)
(-6.397411e-05 -0.8836381 0)
(-7.672678e-05 0.7770227 0)
(0.001090388 0.701788 0)
(0.003477365 0.6517132 0)
(0.006305533 0.6155063 0)
(0.009426101 0.5848748 0)
(0.01257002 0.5568469 0)
(0.01564471 0.5302723 0)
(0.01857324 0.5046577 0)
(0.02131215 0.4797815 0)
(0.02383117 0.4555483 0)
(0.02611671 0.4319285 0)
(0.02816976 0.4089163 0)
(0.02998368 0.3862714 0)
(0.03155288 0.3637063 0)
(0.03284107 0.3411661 0)
(0.03386039 0.3187112 0)
(0.03463674 0.2964152 0)
(0.03521645 0.2744225 0)
(0.03553141 0.2529135 0)
(0.03577752 0.2318844 0)
(0.03575707 0.2113363 0)
(0.03558453 0.1912871 0)
(0.03524899 0.1717242 0)
(0.03477955 0.152616 0)
(0.03419882 0.1339233 0)
(0.03352439 0.1156035 0)
(0.03276789 0.09760926 0)
(0.0319374 0.07987989 0)
(0.03103896 0.06233963 0)
(0.03007858 0.04491072 0)
(0.02906527 0.02752405 0)
(0.02798741 0.01013536 0)
(0.02685116 -0.007237468 0)
(0.02562671 -0.02450545 0)
(0.02426652 -0.04246585 0)
(0.02282581 -0.06097956 0)
(0.02133234 -0.08002624 0)
(0.01979343 -0.09967426 0)
(0.01821931 -0.1200428 0)
(0.01662004 -0.1412884 0)
(0.01500781 -0.1635992 0)
(0.01340117 -0.1871934 0)
(0.01182829 -0.2123203 0)
(0.01032031 -0.2392427 0)
(0.008905349 -0.2682127 0)
(0.007603674 -0.2994535 0)
(0.006427091 -0.3331292 0)
(0.00538256 -0.3693042 0)
(0.004476172 -0.4078838 0)
(0.003711529 -0.4485323 0)
(0.003085328 -0.4905669 0)
(0.002586803 -0.5329678 0)
(0.002232947 -0.5746827 0)
(0.001964746 -0.6154 0)
(0.001727499 -0.6563038 0)
(0.001457372 -0.6987941 0)
(0.00117818 -0.7436386 0)
(0.0008769316 -0.792196 0)
(0.0005395855 -0.8460379 0)
(0.0001572661 -0.8835389 0)
(-7.4543e-05 0.7775484 0)
(0.001213974 0.6973534 0)
(0.003739578 0.6445675 0)
(0.006752096 0.6070888 0)
(0.01007041 0.5759777 0)
(0.01342608 0.5479357 0)
(0.01671884 0.5216335 0)
(0.01986757 0.4964748 0)
(0.02282614 0.4721707 0)
(0.02556562 0.4485756 0)
(0.02807203 0.425614 0)
(0.03035872 0.4032394 0)
(0.03240566 0.3812827 0)
(0.03420073 0.359481 0)
(0.03570712 0.3377033 0)
(0.03692641 0.3159956 0)
(0.03786464 0.2944527 0)
(0.03853365 0.2731672 0)
(0.03894816 0.2522242 0)
(0.03913781 0.2317222 0)
(0.03910824 0.2117073 0)
(0.03888219 0.1921496 0)
(0.03847726 0.1730152 0)
(0.03791945 0.1542696 0)
(0.037233 0.1358793 0)
(0.03643999 0.1178117 0)
(0.03555824 0.100032 0)
(0.03460081 0.08249481 0)
(0.03357597 0.06513955 0)
(0.032489 0.04789343 0)
(0.03134404 0.03068635 0)
(0.03014257 0.01348139 0)
(0.02887474 -0.003680552 0)
(0.02754307 -0.02066653 0)
(0.02610335 -0.03837722 0)
(0.02458983 -0.05668693 0)
(0.02301753 -0.07557706 0)
(0.02140445 -0.09510471 0)
(0.01976462 -0.1153874 0)
(0.018111 -0.1365933 0)
(0.01645919 -0.158926 0)
(0.01482913 -0.182614 0)
(0.01324392 -0.207905 0)
(0.01172683 -0.2350568 0)
(0.01029927 -0.2643168 0)
(0.008978563 -0.2958957 0)
(0.007775859 -0.3299358 0)
(0.006695238 -0.3664783 0)
(0.005735138 -0.4054206 0)
(0.00489303 -0.4464518 0)
(0.004171405 -0.4889198 0)
(0.00357507 -0.5317623 0)
(0.003103411 -0.5737802 0)
(0.002695957 -0.6145376 0)
(0.002301482 -0.6553318 0)
(0.001882819 -0.6977171 0)
(0.001461608 -0.7424591 0)
(0.00103524 -0.7909132 0)
(0.0006022818 -0.844646 0)
(0.0001542975 -0.882064 0)
(-0.0001141337 0.7781367 0)
(0.001222316 0.6927697 0)
(0.003796095 0.637173 0)
(0.006881387 0.5983528 0)
(0.01028415 0.5667125 0)
(0.0137384 0.5386226 0)
(0.01713886 0.5125711 0)
(0.02040114 0.4878514 0)
(0.02347656 0.4641026 0)
(0.02633574 0.4411253 0)
(0.02896338 0.4187985 0)
(0.03136875 0.3970375 0)
(0.03354891 0.3757637 0)
(0.03547517 0.3547512 0)
(0.0371188 0.3338038 0)
(0.03844958 0.3129232 0)
(0.03947964 0.2921774 0)
(0.04021683 0.2716574 0)
(0.04067155 0.2514556 0)
(0.04085953 0.231644 0)
(0.0408045 0.2122464 0)
(0.04052933 0.1932409 0)
(0.0400581 0.1745921 0)
(0.03941619 0.1562607 0)
(0.03863054 0.1382145 0)
(0.03772679 0.1204304 0)
(0.036727 0.1028858 0)
(0.03564824 0.08554748 0)
(0.03450265 0.06836397 0)
(0.03329873 0.05126968 0)
(0.03204298 0.03420388 0)
(0.03074166 0.01714412 0)
(0.02938974 0.0001468368 0)
(0.02800681 -0.01662905 0)