/*--------------------------------*- C++ -*----------------------------------*\
| =========                 |                                                 |
| \\      /  F ield         | OpenFOAM: The Open Source CFD Toolbox           |
|  \\    /   O peration     | Version:  2312                                  |
|   \\  /    A nd           | Website:  www.openfoam.com                      |
|    \\/     M anipulation  |                                                 |
\*---------------------------------------------------------------------------*/
FoamFile
{
    version     2.0;
    format      ascii;
    arch        "LSB;label=32;scalar=64";
    class       volScalarField;
    location    "1000";
    object      G;
}
// * * * * * * * * * * * * * * * * * * * * * * * * * * * * * * * * * * * * * //

dimensions      [1 0 -3 0 0 0 0];

internalField   nonuniform List<scalar> 
12000
(
20216.4
18386.54
17612.39
17167.36
16874.47
16668.17
16516.99
16399.48
16303.42
16222.75
16154.16
16095.28
16044.1
15999.08
15959.03
15923.07
15890.51
15860.94
15834
15809.35
15786.76
15766.05
15747.04
15729.54
15713.31
15698.14
15683.79
15669.96
15656.38
15642.87
15629.29
15615.64
15602.03
15588.64
15575.54
15562.66
15550.1
15537.89
15525.37
15511.26
15494.63
15476.45
15458.68
15442.17
15426.35
15411.14
15397.9
15385.69
15369.5
15345.43
15314.1
15279.35
15243.91
15207.55
15172.76
15140.15
15102.74
15053.25
14999.47
14946.82
21502.14
20412.05
19616.41
19054.1
18612.6
18243.68
17946.77
17713.87
17527.79
17372.37
17237.22
17117.01
17009.26
16912.68
16826.14
16748.29
16677.55
16612.25
16550.9
16492.31
16435.68
16380.55
16326.71
16274.15
16222.95
16173.21
16124.97
16078.22
16032.91
15988.94
15946.2
15904.61
15864.14
15824.86
15786.93
15750.61
15716.07
15683.17
15651.36
15619.93
15588.32
15556.47
15524.8
15494.26
15466.06
15441.1
15419.37
15399.87
15380.78
15359.7
15333.72
15300.65
15261.14
15219.55
15181.64
15149.53
15119.06
15082.47
15042.6
14996.37
21679.89
21045.52
20395.19
19928.61
19573.4
19229.44
18894.66
18599.76
18358.47
18163.53
18000.4
17856.99
17726.45
17606.23
17496.19
17397
17309.03
17231.91
17164.49
17105.1
17051.84
17002.81
16956.35
16911.12
16866.13
16820.64
16774.16
16726.4
16677.2
16626.53
16574.43
16520.98
16466.34
16410.72
16354.44
16298
16241.82
16186.07
16130.66
16075.36
16019.97
15964.28
15908.36
15853.13
15800.27
15751.21
15706.11
15664.34
15625.24
15587.53
15548.34
15504.22
15454.1
15400.97
15349.68
15303.2
15261.09
15218.25
15175.01
15109.77
21702.83
21331.8
20760.73
20308.43
20039.94
19817.1
19554.71
19263.05
18985.06
18747.38
18552.91
18391.62
18250.99
18121.18
17996.7
17876
17760.3
17652.09
17553.89
17467.49
17393.59
17331.84
17281.03
17239.48
17205.22
17176.26
17150.71
17126.88
17103.37
17079.04
17052.99
17024.49
16992.99
16958.15
16919.88
16878.39
16833.98
16786.81
16736.99
16684.63
16629.8
16572.28
16511.95
16449.68
16387.45
16327.09
16269.21
16213.72
16160.82
16110.24
16059.84
16006.15
15947.04
15883.59
15818.88
15756.12
15698.57
15644.8
15598.61
15515.18
21681.2
21505.56
21033.61
20531.39
20233.63
20091.61
19959.36
19761.29
19510.39
19251.6
19019.28
18826.7
18671.48
18543.39
18430.19
18321.55
18210.94
18096.1
17978.21
17860.54
17747.14
17641.73
17547.11
17464.94
17395.74
17339.12
17293.98
17258.88
17232.13
17212.03
17196.84
17184.91
17174.65
17164.7
17154
17141.75
17127.31
17110.11
17089.79
17066.16
17038.91
17007.37
16970.99
16930.22
16886.64
16841.94
16797.18
16753.15
16710.85
16670.66
16631.21
16589.61
16543.11
16490.56
16432.88
16373.73
16319.99
16273.81
16243.64
16174.72
21649.89
21605.45
21280.4
20769.52
20366.18
20184.55
20129.5
20061.08
19914.16
19699.78
19458.86
19228.33
19030.1
18871.64
18749.59
18653.85
18571.81
18491.89
18405.83
18309.58
18202.87
18088.21
17969.58
17851.41
17737.73
17631.78
17535.86
17451.38
17378.96
17318.59
17269.72
17231.39
17202.36
17181.29
17166.77
17157.36
17151.58
17148.07
17145.71
17143.54
17140.34
17134.6
17125.06
17111.34
17093.99
17074.09
17053.05
17032.62
17014.32
16998.57
16984.3
16969.35
16950.92
16926.19
16894.32
16858.94
16828.53
16808.1
16807.23
16781.21
21631.12
21650.75
21478.7
21044.89
20562.45
20256.64
20163.37
20166.61
20143.11
20039.08
19861.37
19641.87
19413.84
19203.35
19027
18891.29
18793.48
18724.08
18670.47
18620.26
18563.66
18494.65
18410.9
18313.17
18204.23
18087.98
17968.59
17850.07
17735.87
17628.73
17530.7
17443.11
17366.75
17301.91
17248.38
17205.49
17172.19
17147.39
17129.97
17118.64
17111.69
17107.11
17103.09
17098.33
17092.08
17084.51
17076.95
17071.45
17069.49
17071.15
17075.46
17080.91
17085.08
17084.61
17077.5
17066.27
17058.7
17061.8
17082.6
17093.48
21633.45
21667.78
21610.67
21309.27
20833.86
20410.11
20193.1
20162.2
20200.74
20207.89
20141.56
20003.48
19813.65
19596.78
19377.59
19177.89
19013.16
18890.15
18806.94
18755
18722.34
18696.54
18667.04
18626.34
18570.32
18497.9
18410.33
18310.3
18201.31
18086.97
17970.78
17855.85
17744.92
17640.22
17543.43
17455.64
17377.52
17309.53
17251.83
17204.07
17165.33
17134.27
17109.37
17088.95
17071.41
17056.03
17043.54
17035.53
17032.95
17035.53
17042.29
17052
17062.64
17071.14
17075.16
17075.74
17078.58
17090.46
17114.45
17134.75
21653.71
21677.99
21683.58
21516.93
21126.43
20654.69
20304.1
20160.55
20169.57
20225.72
20251.97
20217.49
20119.7
19967.15
19773.82
19558.61
19343.37
19148.59
18989.11
18871.76
18795.39
18752.67
18732.75
18723.86
18715.44
18699.36
18670.43
18626.14
18566.16
18491.66
18404.73
18307.95
18204.09
18095.88
17985.77
17876.05
17768.84
17666.2
17569.97
17481.5
17401.68
17330.93
17269.09
17215.23
17167.97
17126.51
17091.2
17063.01
17042.54
17029.45
17022.78
17021.14
17022.65
17025.19
17027.24
17029.09
17033.37
17042.99
17057.16
17067
21681.64
21689.53
21715.77
21650.93
21380.95
20940.85
20505.29
20229.95
20144.1
20176
20237
20272.5
20262.23
20201.41
20089.55
19930.37
19734.62
19519.93
19307.12
19115.46
18958.82
18843.85
18770.05
18731.28
18718.01
18719.62
18726.13
18729.44
18723.73
18705.42
18672.87
18625.88
18565.19
18492.11
18408.21
18315.31
18215.54
18111.2
18004.65
17898.21
17794.11
17694.38
17600.42
17512.69
17431.11
17355.71
17287.17
17226.46
17174.34
17131.01
17095.95
17067.95
17045.74
17028.93
17018.02
17013.28
17013.37
17014.59
17013.15
17006.34
21705.36
21699.96
21723.02
21717.72
21563.91
21210.46
20758.76
20379.79
20176.38
20134.71
20177.57
20235.03
20272.28
20278.53
20248.68
20176.36
20057.12
19893.52
19696.65
19483.94
19274.98
19087.42
18933.93
18820.8
18748.02
18710.55
18700.14
18707.26
18722.68
18738.55
18748.96
18749.91
18739.02
18715.12
18677.93
18627.83
18565.72
18492.86
18410.71
18320.99
18225.76
18127.18
18027.1
17926.8
17827.22
17729.3
17634.08
17542.72
17456.5
17376.66
17303.94
17238.5
17180.97
17133.42
17098.66
17076.86
17062.68
17046.26
17023.46
16993.72
21717
21704.36
21715.91
21735.22
21670.47
21425.63
21019.01
20588.14
20277.84
20139.84
20130.95
20176.95
20226.47
20260.97
20277.37
20271.46
20233.91
20155.01
20030.57
19864.73
19669.26
19460.84
19257.49
19075.19
18925.49
18814.25
18741.66
18703.38
18692.08
18699.23
18716.52
18736.82
18754.59
18765.9
18768.3
18760.53
18742.1
18712.96
18673.29
18623.54
18564.5
18497.15
18422.35
18340.86
18253.4
18160.59
18062.91
17961.02
17856.28
17750.8
17647.06
17547.64
17455.87
17376.23
17312.62
17264.26
17223.34
17177.46
17126.79
17060.82
21715.75
21701.41
21702.39
21724.47
21715.28
21573.67
21252.35
20826.19
20441.23
20203.6
20121.78
20135.87
20180.3
20220.42
20249.96
20271.47
20282.29
20272.43
20229.67
20145.17
20016.92
19850.43
19657.54
19453.96
19256.21
19078.81
18932.14
18821.41
18746.82
18704.57
18688.29
18690.52
18703.98
18722.44
18741.17
18757
18767.92
18772.71
18770.6
18761.15
18744.04
18718.94
18685.43
18643.09
18591.44
18529.78
18457.07
18372.6
18276.88
18172.08
18061.85
17950.95
17844.9
17749.06
17666.21
17593.58
17523.38
17444.89
17367.26
17255.76
21706.92
21694.57
21689.51
21704.53
21721.66
21661
21440.5
21067.21
20652.14
20328.33
20160.13
20123.46
20152.14
20192.12
20222.7
20246.19
20268.77
20289.41
20298.99
20284.88
20235.76
20145.09
20012.73
19845
19653.57
19453.18
19259.07
19084.41
18938.63
18826.54
18748.49
18701.23
18679.19
18675.91
18685.19
18701.78
18721.63
18741.82
18760.43
18776.18
18788.1
18795.26
18796.67
18791.34
18778.05
18755.03
18719.96
18670.75
18606.64
18528.99
18441.53
18349.86
18260
18175.91
18097.19
18018.57
17934.19
17837.43
17747.81
17601.44
21698.71
21690.1
21683.47
21689.76
21713
21704.82
21578.81
21289.15
20890.98
20510.14
20253.34
20146.21
20143.01
20178.93
20212.39
20233.67
20250.44
20270.76
20294.87
20315.34
20320.65
20299
20241.22
20142.74
20004.7
19833.98
19642.04
19442.95
19251.02
19078.57
18934.34
18822.8
18744.28
18695.92
18672.75
18668.93
18678.61
18696.69
18719.17
18743.13
18766.49
18787.81
18806.1
18820.69
18830.69
18834.53
18829.91
18814.42
18786.56
18746.89
18698.55
18646.7
18596.05
18547.53
18496.87
18436.71
18363.85
18275.83
18198.86
18050.31
21699.01
21694.32
21688.89
21688.78
21707.37
21725.32
21673.02
21476.82
21134.57
20736.36
20404.74
20213.54
20156.12
20174.93
20211.78
20237.16
20249.45
20259
20274.26
20296.4
20320.01
20335.74
20332.83
20301.23
20233.49
20126.53
19982.55
19808.99
19617.38
19421.36
19234.45
19068.05
18930.11
18824.57
18751.52
18707.88
18688.49
18687.3
18698.38
18716.53
18737.67
18759.01
18779.03
18797.14
18813.04
18826.06
18835
18838.36
18835.14
18825.93
18813.5
18801.91
18793.64
18786.41
18773.19
18746.29
18705.01
18649.81
18606.17
18493.44
21712.77
21711.15
21707.7
21704.34
21714.72
21739.36
21734.35
21623.05
21360.09
20985.35
20607.88
20333.13
20200.98
20180.73
20211.31
20244.18
20260.57
20264.27
20266.32
20274.67
20291.09
20312.3
20331.59
20340.2
20328.55
20287.87
20212.09
20099.41
19953.04
19780.87
19594.22
19406.01
19228.78
19072.86
18945.13
18848.56
18782.4
18743.03
18725.09
18722.5
18729.49
18741.41
18755.13
18768.86
18781.67
18793.05
18802.66
18810.28
18816.28
18822.17
18830.75
18844.77
18864.37
18885.22
18900.09
18903.39
18896.71
18881.94
18876.57
18820.7
21740.32
21740.2
21738.04
21733.66
21736.38
21756.29
21774.02
21727.38
21549.22
21230.59
20844.73
20503.71
20287.35
20204.8
20209.86
20244.08
20269.8
20277.13
20273.08
20268.21
20269.46
20278.99
20295.38
20314.56
20330.12
20333.88
20317
20271.68
20192.91
20079.8
19936.01
19769.44
19590.9
19412.4
19245.26
19098.47
18977.82
18885.51
18820.51
18779.31
18756.99
18748.34
18748.63
18753.91
18761.18
18768.49
18774.99
18781.01
18787.96
18798.22
18814.28
18837.19
18865
18893.02
18916.61
18934.42
18950.08
18965.55
18986.82
18981.82
21776.78
21776.36
21774.16
21769.58
21766.78
21777.4
21799.71
21793.71
21691.01
21447.05
21089.67
20712.9
20418.77
20258.06
20214.87
20235.25
20267.52
20284.77
20284.12
20274.22
20264.45
20260.49
20264.56
20276.65
20294.86
20315.15
20331.13
20334.68
20317.25
20271.54
20193.13
20081.63
19940.95
19778.78
19605.33
19431.74
19268.46
19123.93
19003.61
18909.81
18841.98
18797.35
18771.61
18759.68
18756.46
18757.84
18761.33
18766.49
18774.52
18787.31
18805.74
18828.3
18851.25
18871
18887.19
18903.49
18924.94
18952.25
18981.36
19002.54
21813.79
21811.55
21808.16
21803.27
21797.17
21798.61
21815.17
21828.41
21782.99
21617.18
21316.69
20940.49
20590.21
20348.7
20238.26
20224.75
20252.88
20280.16
20289.62
20283.52
20270.97
20259.68
20253.9
20255.56
20265.46
20283.34
20307.04
20331.96
20351.11
20356.01
20338.18
20290.78
20210.02
20096.07
19953.18
19789.16
19614.23
19439.47
19275.25
19130
19009.36
18915.76
18848.43
18803.99
18777.52
18764.07
18759.93
18763.3
18773.82
18791.05
18812.61
18833.65
18848.92
18856.55
18860.41
18868
18884.53
18908.57
18930.73
18952.38
21842.92
21838.19
21833.18
21827.64
21819.98
21814.8
21822.11
21839.41
21830.7
21734.24
21506.12
21164.3
20789.63
20479.42
20292.19
20225.15
20232.94
20263.91
20285.76
20289.97
20282.15
20270.83
20261.77
20257.66
20259.85
20269.45
20287.08
20311.95
20341.01
20368.74
20387.61
20389.17
20365.45
20310.47
20221.43
20099.54
19949.95
19781.11
19603.55
19428.41
19265.88
19123.77
19006.66
18915.77
18849.7
18805.74
18781.15
18773.76
18781.38
18800.29
18824.06
18844.51
18855.27
18855.89
18852.62
18853.97
18863.73
18878.29
18888.34
18896.76
21859.33
21852.44
21846.17
21839.91
21831.92
21823.34
21822.44
21835.48
21845.29
21802.02
21648.26
21365.59
21001.15
20646.67
20385.72
20251.06
20220.15
20242.83
20274.37
20292.41
20294.89
20289.05
20282.06
20277.63
20276.97
20280.68
20289.74
20305.17
20327.16
20354.19
20382.55
20406.43
20418.46
20410.83
20376.58
20310.97
20212.5
20083.43
19929.62
19759.8
19584.21
19413.01
19254.9
19116.38
19001.67
18913.21
18852.12
18818.05
18808.35
18816.91
18834.36
18850.53
18858.73
18858.95
18856.87
18858.62
18865.13
18871.63
18872.5
18868.06
21863.48
21855.48
21848.78
21842.09
21834.51
21825.18
21819.08
21825.12
21840.23
21831.72
21743.4
21532.26
21208.42
20841.14
20522.22
20315.39
20229.32
20227.74
20260.82
20292.36
20308.64
20312.03
20309.98
20307.92
20307.71
20309.31
20312.67
20318.56
20328.33
20343.08
20362.81
20385.8
20408.3
20424.66
20428.02
20411.35
20368.6
20295.99
20192.8
20061.71
19908.41
19740.76
19567.77
19398.81
19242.98
19108.5
19001.89
18926.63
18881.8
18861.53
18856.48
18857.25
18858.24
18858.95
18861.75
18867.72
18874.33
18876.99
18874.71
18865.68
21860.19
21852.27
21845.91
21839.23
21832.34
21823.82
21815.57
21815.26
21827.91
21837.57
21799.32
21659.77
21397.47
21049.46
20698.02
20425.89
20274.15
20231
20252.16
20291.77
20322.42
20337.39
20341.68
20342.16
20342.57
20343.38
20343.82
20343.59
20343.53
20345.38
20351.04
20361.77
20377.51
20396.39
20414.54
20426.36
20425.16
20404.25
20358.01
20282.9
20178.07
20045.68
19890.98
19722.19
19549.86
19385.61
19240.11
19120.75
19029.85
18964.65
18919.56
18889.35
18871.3
18864.34
18866.45
18873
18878.47
18879.46
18878.17
18872.89
21855.88
21848.75
21843.16
21836.8
21830.54
21823.29
21814.95
21810.39
21817.43
21832.94
21827.57
21750.15
21558.61
21256.47
20902.54
20582.61
20363.66
20263.98
20255.97
20292.36
20333.6
20360.69
20372.32
20374.95
20374.56
20373.62
20371.85
20368.38
20363.08
20357.01
20352.1
20350.58
20354.39
20364.5
20380.4
20399.71
20418.09
20429.61
20427.38
20404.43
20354.81
20274.78
20164.06
20026.55
19870.24
19705.87
19544.51
19395.02
19262.42
19148.49
19053.88
18980.03
18928.65
18899.12
18886.24
18881.58
18878.25
18874.4
18873.08
18874.23
21855.66
21849.38
21844.49
21838.55
21832.7
21826.49
21819.03
21812.43
21813.9
21827.87
21840.06
21809.85
21687.15
21447.86
21120.16
20777.24
20499.65
20334.56
20279.6
20296.51
20339.31
20376.24
20396.02
20401.43
20399.6
20395.65
20391.24
20385.91
20378.98
20370.51
20361.5
20353.65
20348.97
20349.42
20356.42
20370.29
20389.84
20411.94
20431.48
20441.71
20435.11
20404.83
20346.36
20258.84
20145.36
20011.98
19865.83
19713.35
19559.84
19410.58
19272.37
19153.29
19059.88
18993.3
18948.15
18915.94
18890.93
18872.94
18864.16
18865.63
21861.64
21855.77
21851.23
21845.64
21840.03
21834.45
21828.07
21821.18
21818.78
21828.19
21846.54
21847.22
21782.98
21612.38
21333.16
20994.59
20675.91
20445.48
20329.42
20308.49
20339.09
20379.94
20407.77
20417.96
20416.15
20409.56
20402.43
20395.83
20389.21
20381.94
20373.99
20365.93
20358.88
20354.31
20353.83
20358.91
20370.38
20387.82
20409.02
20429.81
20444.47
20446.76
20431.28
20394.45
20334.79
20252.25
20147.41
20021.27
19876.49
19719.07
19559.08
19408.51
19276.97
19168.01
19079.06
19005.5
18945.25
18899.94
18871.44
18857.89
21872.92
21866.85
21862.27
21856.95
21851.6
21846.46
21841.13
21835.11
21831.02
21835.8
21853.31
21870.3
21849.41
21743.16
21525.2
21215.83
20879.58
20593.76
20410.07
20334.84
20336.85
20371.9
20405.66
20423.09
20424.79
20418.02
20409.39
20402.1
20396.54
20391.87
20387.31
20382.45
20377.41
20372.66
20369.07
20367.87
20370.32
20377.33
20388.91
20403.85
20419.82
20433.82
20442.59
20442.78
20430.5
20400.9
20348.33
20267.93
20158.2
20023.1
19871.82
19715.71
19564.14
19422.08
19291.16
19172.69
19069.64
18985.66
18924.99
18875.08
21886.57
21879.94
21875.2
21870.22
21865.37
21860.84
21856.61
21852.14
21848.25
21849.82
21863.23
21885.38
21891.69
21838.19
21684.14
21422.48
21093.94
20771.33
20523.46
20383.5
20340.95
20357.5
20391.97
20417.87
20427.26
20424.31
20416.61
20409.57
20405.13
20402.88
20401.66
20400.46
20398.68
20396.05
20392.64
20388.87
20385.45
20383.24
20383.11
20385.83
20392.17
20402.82
20417.96
20436.3
20453.96
20463.98
20457.36
20425.63
20364.01
20273.08
20157.91
20025.08
19880.16
19727.45
19571.7
19419.37
19277.98
19152.59
19053.73
18947.75
21899.34
21892.3
21887.64
21883.25
21879.35
21875.86
21872.99
21870.4
21867.87
21867.89
21876.45
21896.54
21915.77
21899.8
21803.8
21599.9
21301.9
20966.61
20668.05
20461.76
20362.42
20346.47
20372.79
20405.39
20425.48
20430.64
20426.98
20421.42
20417.84
20416.92
20417.65
20418.72
20419.17
20418.39
20416.05
20411.93
20406.01
20398.49
20390.1
20382.36
20377.82
20379.68
20390.81
20412.02
20440.63
20470.18
20491.82
20497.12
20480.48
20439.81
20375.02
20286.11
20172.91
20036.96
19883.49
19720.99
19559.07
19402.63
19271.37
19101.12
21909.07
21902.37
21898.37
21895.02
21892.52
21890.56
21889.31
21888.62
21887.78
21887.39
21891.61
21905.94
21927.37
21933.65
21884.22
21739.6
21489.14
21166.46
20838.49
20573.95
20412.08
20350.59
20356.77
20390.04
20420.85
20437.24
20440.75
20438.15
20435.16
20434.16
20434.95
20436.31
20437.15
20436.78
20434.77
20430.72
20424.16
20414.75
20402.84
20390
20379.24
20374.58
20379.7
20396.21
20422.51
20453.92
20484.34
20508.35
20522.13
20522.67
20506
20466.56
20399.06
20301.51
20177.09
20032.54
19876.44
19711.14
19565.66
19341.78
21915.7
21910.5
21907.81
21905.96
21905.16
21904.96
21905.36
21906.19
21906.66
21906.19
21906.96
21914.45
21931.52
21947.28
21930.7
21839.85
21646.19
21358.29
21026.03
20719.81
20497.58
20381.02
20353.52
20377.09
20414.35
20442.6
20455.7
20457.78
20455.48
20453.24
20452.37
20452.29
20451.97
20450.68
20448.01
20443.57
20436.81
20427.33
20415.39
20402.48
20391.4
20385.58
20387.8
20398.94
20417.58
20440.96
20466.58
20493.1
20519.73
20544.14
20560.82
20561.68
20538.88
20487.99
20409.01
20304.56
20179.76
20032.51
19897.94
19649.81
21921.18
21918.62
21917.67
21917.52
21918.33
21919.66
21921.28
21922.89
21923.78
21922.97
21921.09
21922.37
21932.28
21948.68
21951.85
21904.67
21769.13
21531.76
21219.68
20893.79
20621.4
20445.96
20372.11
20372.4
20407.29
20444.49
20468.1
20476.7
20476
20472.17
20468.6
20465.98
20463.68
20460.89
20457.08
20451.82
20444.74
20435.73
20425.42
20415.42
20408.08
20405.61
20408.95
20417.35
20428.98
20442.49
20458.3
20478.44
20504.62
20535.72
20566.79
20590.39
20599.41
20588.99
20556.75
20501.06
20423.03
20315.72
20214.87
19981.73
21928.46
21929.14
21929.85
21931.17
21933.01
21935.11
21937.08
21938.5
21938.8
21937.11
21933.26
21929.9
21932.74
21945.01
21957.4
21941.84
21859
21679.74
21407.71
21085.83
20779.95
20548.86
20419.69
20382.24
20402.12
20441.41
20474.17
20490.81
20493.6
20489.12
20482.9
20477.45
20472.99
20468.74
20463.85
20457.75
20450.25
20441.76
20433.51
20427.41
20425.33
20428.09
20434.77
20443.08
20450.79
20457.47
20465.25
20477.66
20497.3
20523.84
20553.86
20582.64
20605.97
20620.59
20623.5
20610.68
20580.43
20522.49
20467.37
20284.51
21939.96
21943.55
21945.27
21947.3
21949.23
21951.02
21952.27
21952.57
21951.52
21948.61
21943.44
21937.37
21934.95
21941.72
21956.14
21960.47
21920.32
21798.71
21579.32
21282.96
20964.15
20687.78
20500.32
20412.71
20403.09
20434
20471.61
20496.8
20505.54
20502.74
20495.17
20487.42
20481.03
20475.54
20469.84
20463.12
20455.33
20447.45
20441.31
20438.99
20441.79
20449.3
20459.25
20468.56
20475.12
20479.26
20483.58
20491.35
20504.43
20522.35
20543.27
20565.56
20588.45
20611.19
20631.83
20646.42
20652.5
20639.14
20627.58
20514.17
21956.28
21961.48
21963.11
21964.82
21965.8
21966.26
21965.94
21964.54
21961.89
21957.85
21952.15
21945.24
21940.06
21942.13
21954.56
21968.92
21959.31
21888.33
21726.08
21471.54
21161.04
20855.64
20614.29
20469.03
20416.19
20425.87
20460.89
20493.11
20510.03
20512.1
20505.65
20496.87
20488.97
20482.32
20475.86
20468.7
20460.95
20454.02
20450.09
20451.1
20457.6
20468.17
20479.89
20489.84
20496.7
20501.44
20506.37
20513.33
20522.54
20532.88
20543.55
20555.21
20569.66
20588.32
20611.11
20635.86
20660.99
20677.37
20695.87
20650.17
21975.72
21980.69
21981.14
21981.53
21980.84
21979.41
21977.18
21974.09
21970.19
21965.59
21960.21
21953.99
21948.33
21947.46
21956.32
21973.4
21982.33
21950.83
21842.82
21639.55
21356.26
21041.61
20758.04
20554.61
20448.37
20423.53
20445.72
20480.61
20506.43
20516.51
20514.28
20506.32
20497.48
20489.51
20482.06
20474.5
20467.19
20461.75
20460.29
20464.21
20473.15
20484.97
20496.78
20506.52
20514.03
20520.76
20528.22
20536.58
20544.41
20550.04
20553.2
20555.69
20560.44
20569.99
20585.88
20608.13
20636.51
20664.95
20695.59
20699.14
21995.06
21998.06
21996.66
21995.2
21992.68
21989.47
21985.69
21981.51
21977.13
21972.8
21968.52
21963.97
21959.4
21957.33
21962.53
21977.64
21994.86
21990.19
21928.13
21778.48
21536.57
21233.05
20924.64
20670.2
20506.2
20435.36
20432.76
20462.71
20495.41
20515.34
20520.34
20515.4
20506.45
20497.01
20488.2
20480.22
20473.77
20470.41
20471.74
20478.2
20488.54
20500.27
20511.07
20520.08
20528.18
20536.91
20546.81
20556.64
20564.04
20567.24
20566.38
20563.48
20561.36
20562.72
20569.81
20584.06
20605.98
20632.43
20660.11
20687.5
22010.97
22011.02
22007.78
22004.61
22000.74
21996.49
21992.04
21987.72
21983.81
21980.52
21977.83
21975.3
21972.48
21970.34
21972.46
21983.2
22001.17
22011.47
21984.12
21884.39
21691.99
21417.65
21104.81
20813.33
20594.18
20469.82
20430.38
20444.91
20478.96
20508.11
20522.36
20522.75
20514.97
20504.31
20493.99
20485.64
20480.48
20479.72
20483.99
20492.61
20503.6
20514.55
20524.04
20532.36
20540.97
20551.04
20562.11
20572.1
20578.57
20580.3
20577.82
20572.97
20567.96
20564.94
20566.02
20572.74
20585.32
20602.49
20619.1
20648.18
22021.44
22018.68
22014.3
22010.16
22005.88
22001.65
21997.63
21994.15
21991.45
21989.63
21988.58
21987.82
21986.59
21984.78
21984.52
21990.17
22004.3
22020.07
22015.7
21957.94
21816.91
21585.08
21288.03
20978.08
20713.26
20533.44
20447.06
20434.05
20460.46
20494.92
20518.62
20526.32
20521.57
20510.74
20499.35
20490.94
20487.44
20489.53
20496.65
20506.97
20518.08
20528.07
20536.54
20544.6
20553.69
20564.22
20574.88
20583.39
20587.93
20588.15
20585.07
20580.32
20575.48
20572.02
20571.23
20573.73
20578.73
20585.64
20590.27
20608.24
22026.61
22022.2
22017.79
22013.75
22010.1
22006.88
22004.17
22002.15
22000.96
22000.57
22000.76
22001.08
22000.73
21999.1
21997.04
21998.01
22006.31
22021.13
22029.33
22003.37
21910.08
21728.01
21463.76
21155.56
20860.07
20629.14
20489.72
20437.35
20444.58
20477.08
20507.95
20524.06
20524.64
20515.67
20504.51
20496.75
20495.17
20499.99
20509.47
20520.91
20531.81
20541
20549
20557.23
20566.64
20576.74
20585.68
20591.5
20593.35
20591.82
20588.37
20584.52
20581.46
20580.02
20580.42
20581.9
20582.63
20582.06
20578.36
20582.35
22028.62
22024.25
22020.89
22017.95
22015.69
22014.04
22012.99
22012.52
22012.62
22013.14
22013.85
22014.35
22014.03
22012.13
22008.72
22006.03
22008.48
22018.92
22031.65
22026.99
21973.78
21842.39
21622.59
21334.93
21027.06
20755.43
20562.4
20461.44
20437.16
20457.64
20490.57
20514.67
20522.87
20518.64
20509.94
20503.93
20504.39
20511.36
20522.37
20534.22
20544.7
20553.4
20561.4
20569.98
20579.32
20588.15
20594.53
20597.19
20596.25
20593.05
20589.34
20586.6
20585.78
20587.11
20589.76
20591.79
20590.9
20586.53
20579.35
20573.05
22030.64
22027.9
22026.23
22024.97
22024.33
22024.23
22024.55
22025.15
22025.88
22026.55
22026.94
22026.81
22025.76
22023.2
22018.79
22013.68
22011.43
22016.4
22028.35
22035.55
22012.53
21927.31
21757.29
21505.08
21203.8
20906.65
20665.67
20511.51
20444.75
20441.6
20468.78
20498.3
20515.58
20519.31
20515.93
20513.19
20515.71
20523.91
20535.27
20546.76
20556.68
20565.17
20573.43
20582.19
20590.86
20597.75
20601.26
20600.94
20597.73
20593.41
20589.81
20588.3
20589.54
20593.15
20597.46
20599.97
20598.64
20593.27
20586.23
20575.43
22035.6
22035.39
22035.44
22035.83
22036.46
22037.3
22038.24
22039.07
22039.56
22039.57
22038.97
22037.65
22035.45
22032.02
22026.94
22020.54
22015.17
22015.16
22023.41
22035
22031.87
21984.54
21863.59
21656.35
21378.8
21074.06
20796.61
20590.54
20473.75
20435.57
20447.13
20476.91
20503.01
20517.31
20522.33
20524.63
20529.3
20537.67
20548.13
20558.47
20567.67
20576.11
20584.61
20593.13
20600.49
20605.03
20605.78
20603.11
20598.52
20593.93
20591.03
20590.93
20593.81
20598.64
20603.26
20605.31
20603.64
20598.62
20593.33
20582.56
22045.15
22047.42
22048.6
22049.99
22051.12
22052.01
22052.6
22052.72
22052.21
22050.97
22048.98
22046.27
22042.85
22038.59
22033.13
22026.3
22019.31
22015.53
22019.08
22029.92
22037.45
22017.93
21940.6
21782.03
21541.49
21247.39
20949.29
20698.73
20529.39
20446.82
20431.96
20454.33
20486.42
20512.32
20528.19
20537.38
20544.57
20552.31
20560.8
20569.33
20577.63
20585.98
20594.45
20602.22
20607.79
20609.89
20608.33
20604.17
20599.18
20595.2
20593.62
20595.05
20599.04
20603.96
20607.58
20608.24
20605.91
20601.51
20597.97
20589.29
22059.13
22062.92
22064.26
22065.7
22066.38
22066.42
22065.82
22064.55
22062.56
22059.83
22056.41
22052.42
22047.97
22043.07
22037.46
22030.75
22023.23
22017.05
22016.18
22023.41
22034.44
22032.74
21990.6
21879.15
21683.82
21416.45
21115.59
20833.23
20614.6
20482.04
20430.57
20435.87
20468.16
20504.13
20531.94
20549.61
20560.11
20567.11
20573.12
20579.43
20586.61
20594.64
20602.68
20609.23
20612.78
20612.66
20609.45
20604.67
20600.17
20597.52
20597.65
20600.53
20605
20609.08
20610.9
20609.75
20606.59
20602.6
20600.05
20593.42
22075.79
22079.63
22080.11
22080.62
22080.08
22078.66
22076.41
22073.48
22069.91
22065.78
22061.18
22056.23
22051.07
22045.76
22040.14
22033.78
22026.4
22019.02
22014.72
22017.4
22027.25
22034.86
22018.36
21948.4
21801.02
21572.38
21286.22
20988.19
20729.13
20545.95
20449.97
20427.77
20451.67
20493.07
20531.8
20558.86
20573.93
20581.03
20584.9
20588.99
20594.85
20602.14
20609.26
20614.24
20615.8
20613.92
20609.79
20605.19
20601.86
20600.98
20602.88
20606.83
20611.11
20613.75
20613.54
20610.77
20606.91
20603.06
20600.72
20595.15
22092.49
22094.91
22093.81
22092.69
22090.51
22087.44
22083.58
22079.13
22074.25
22069.07
22063.66
22058.13
22052.57
22047.05
22041.48
22035.48
22028.55
22020.89
22014.45
22012.99
22019.34
22029.97
22029.95
21993.3
21891.64
21708.52
21451.71
21155.34
20869.21
20640.23
20495.68
20436.35
20441.39
20480.52
20526.53
20562.69
20583.82
20592.85
20595.9
20598.32
20602.7
20608.72
20614.38
20617.58
20617.39
20614.34
20610
20606.22
20604.47
20605.47
20608.86
20613.28
20616.76
20617.7
20615.73
20611.85
20607.64
20603.78
20601.22
20595.7
22106.67
22106.65
22103.72
22100.73
22096.92
22092.46
22087.37
22081.86
22076.14
22070.34
22064.51
22058.71
22052.98
22047.38
22041.87
22036.18
22029.82
22022.5
22015.17
22010.78
22013.14
22022.85
22031.57
22019.04
21956.97
21820.72
21603.5
21325
21027.88
20763.06
20570.77
20467.22
20442.5
20469.26
20516.21
20559.53
20587.94
20601.38
20605.79
20607.64
20610.55
20614.73
20618.38
20619.68
20618.08
20614.47
20610.55
20608.05
20608.07
20610.74
20615.07
20619.27
20621.5
20620.8
20617.6
20613.23
20609.01
20605.13
20602.25
20596.26
22116.59
22113.85
22109.3
22104.68
22099.61
22094.22
22088.48
22082.49
22076.42
22070.38
22064.43
22058.57
22052.83
22047.24
22041.81
22036.4
22030.64
22024.06
22016.88
22010.99
22010.03
22016.87
22028.52
22031.18
22000.14
21907.31
21734.77
21487.3
21195.97
20909.25
20675.29
20524.44
20460.45
20463.63
20502.88
20549.32
20585.21
20605.54
20613.99
20616.85
20618.6
20620.5
20621.66
20620.98
20618.33
20614.73
20611.76
20610.83
20612.54
20616.42
20621
20624.37
20625.13
20623.08
20619.21
20614.86
20610.87
20607.03
20603.91
20597.41
22121.77
22116.71
22111.1
22105.38
22099.59
22093.81
22087.93
22081.95
22075.93
22069.94
22064.04
22058.26
22052.62
22047.14
22041.87
22036.78
22031.65
22026.03
22019.7
22013.56
22010.4
22013.85
22024.52
22034.69
22025.23
21968.91
21841.11
21633.58
21363.45
21071.03
20806.2
20609.94
20500.26
20469.16
20490.58
20533.94
20575.71
20604.55
20619.64
20625.44
20626.73
20626.2
20624.59
20621.9
20618.51
20615.39
20613.76
20614.51
20617.63
20622.12
20626.24
20628.33
20627.64
20624.66
20620.62
20616.57
20612.9
20609.13
20605.96
20599.17
22122.89
22116.38
22110.35
22104.15
22098.14
22092.37
22086.71
22081.03
22075.29
22069.52
22063.81
22058.22
22052.79
22047.56
22042.59
22037.92
22033.45
22028.85
22023.67
22018.09
22013.83
22014.16
22021.62
22033.36
22036.53
22007.95
21920.88
21757.5
21520.92
21239.2
20957.74
20722.99
20565.67
20491.8
20485
20517.13
20560.88
20598.1
20621.65
20632.35
20634.37
20631.83
20627.47
20622.84
20618.94
20616.63
20616.56
20618.9
20623
20627.44
20630.53
20631.13
20629.21
20625.71
20621.8
20618.15
20614.76
20611.09
20607.98
20601.22
22121.29
22114.33
22108.42
22102.27
22096.38
22090.84
22085.53
22080.26
22074.91
22069.48
22064.08
22058.8
22053.73
22048.91
22044.4
22040.25
22036.44
22032.73
22028.68
22023.98
22019.35
22017.14
22020.44
22029.73
22038.08
22028.19
21975.12
21855.67
21660.8
21404.39
21122.14
20860.14
20658.28
20536.9
20492.63
20504.16
20543.48
20586.53
20618.9
20636.17
20640.58
20637.11
20630.54
20624.22
20619.99
20618.61
20620.07
20623.73
20628.28
20632.09
20633.8
20632.94
20630.09
20626.39
20622.75
20619.42
20616.22
20612.65
20609.66
20603.15
22118.46
22111.88
22106.4
22100.63
22095.05
22089.8
22084.81
22079.94
22075.02
22070.04
22065.09
22060.28
22055.71
22051.44
22047.49
22043.9
22040.65
22037.6
22034.37
22030.43
22025.72
22021.52
22020.59
22025.26
22033.4
22034.17
22007.15
21927.8
21778.19
21558.23
21290.57
21015.45
20777.07
20608.09
20519.71
20501.14
20527.52
20571.15
20610.7
20635.39
20644.1
20641.49
20633.89
20626.44
20622.02
20621.47
20624.18
20628.67
20633.13
20635.89
20636.12
20634.02
20630.58
20626.88
20623.49
20620.35
20617.21
20613.72
20610.85
20604.67
22115.54
22109.86
22104.91
22099.66
22094.47
22089.49
22084.78
22080.26
22075.82
22071.39
22067.03
22062.83
22058.87
22055.2
22051.81
22048.68
22045.79
22043.06
22040.19
22036.59
22031.74
22025.97
22021.27
22020.67
22025.45
22030.65
22021.78
21976.24
21871.02
21694.18
21454.16
21181.12
20918.17
20706.49
20571.1
20514.17
20517.9
20554.41
20597.16
20628.86