/*--------------------------------*- C++ -*----------------------------------*\
| =========                 |                                                 |
| \\      /  F ield         | OpenFOAM: The Open Source CFD Toolbox           |
|  \\    /   O peration     | Version:  2312                                  |
|   \\  /    A nd           | Website:  www.openfoam.com                      |
|    \\/     M anipulation  |                                                 |
\*---------------------------------------------------------------------------*/
FoamFile
{
    version     2.0;
    format      ascii;
    arch        "LSB;label=32;scalar=64";
    class       volScalarField;
    location    "1000";
    object      ILambda_7_0;
}
// * * * * * * * * * * * * * * * * * * * * * * * * * * * * * * * * * * * * * //

dimensions      [1 0 -3 0 0 0 0];

internalField   nonuniform List<scalar> 
12000
(
2627.794
2624.792
2622.248
2620.56
2619.77
2619.374
2618.807
2617.928
2617.025
2616.431
2616.198
2616.081
2615.776
2615.136
2614.23
2613.23
2612.287
2611.459
2610.724
2610.028
2609.318
2608.562
2607.75
2606.892
2606.008
2605.114
2604.206
2603.257
2602.226
2601.077
2599.803
2598.43
2597.005
2595.58
2594.19
2592.848
2591.544
2590.256
2588.958
2587.632
2586.268
2584.868
2583.434
2581.975
2580.497
2579.009
2577.521
2576.047
2574.602
2573.202
2571.862
2570.589
2569.381
2568.227
2567.108
2565.995
2564.883
2563.679
2562.668
2560.593
2626.269
2623.688
2621.793
2620.985
2620.768
2620.358
2619.466
2618.426
2617.719
2617.489
2617.467
2617.26
2616.657
2615.723
2614.674
2613.695
2612.857
2612.131
2611.449
2610.751
2610.004
2609.195
2608.335
2607.446
2606.549
2605.646
2604.711
2603.698
2602.565
2601.3
2599.924
2598.488
2597.049
2595.65
2594.304
2593.002
2591.719
2590.428
2589.107
2587.747
2586.348
2584.915
2583.456
2581.978
2580.488
2578.998
2577.519
2576.067
2574.66
2573.313
2572.034
2570.823
2569.669
2568.553
2567.452
2566.335
2565.199
2563.958
2562.907
2560.778
2625.824
2623.381
2622.063
2621.701
2621.436
2620.694
2619.615
2618.713
2618.301
2618.246
2618.153
2617.717
2616.904
2615.888
2614.879
2613.991
2613.224
2612.524
2611.831
2611.104
2610.323
2609.485
2608.609
2607.715
2606.818
2605.904
2604.934
2603.862
2602.66
2601.334
2599.924
2598.486
2597.068
2595.699
2594.378
2593.088
2591.801
2590.493
2589.151
2587.771
2586.354
2584.908
2583.439
2581.956
2580.465
2578.98
2577.514
2576.084
2574.706
2573.394
2572.15
2570.969
2569.836
2568.729
2567.623
2566.491
2565.333
2564.07
2563
2560.855
2625.092
2623.188
2622.597
2622.488
2621.989
2620.957
2619.874
2619.237
2619.097
2619.099
2618.841
2618.164
2617.189
2616.144
2615.196
2614.385
2613.668
2612.98
2612.272
2611.515
2610.699
2609.834
2608.943
2608.045
2607.142
2606.203
2605.181
2604.035
2602.756
2601.372
2599.934
2598.5
2597.107
2595.767
2594.468
2593.184
2591.888
2590.562
2589.197
2587.794
2586.358
2584.897
2583.418
2581.929
2580.439
2578.962
2577.514
2576.112
2574.771
2573.499
2572.294
2571.146
2570.033
2568.932
2567.818
2566.668
2565.486
2564.2
2563.11
2560.953
2624.5
2623.52
2623.439
2623.201
2622.316
2621.119
2620.233
2619.928
2619.958
2619.863
2619.353
2618.459
2617.406
2616.404
2615.544
2614.8
2614.108
2613.412
2612.676
2611.884
2611.037
2610.151
2609.254
2608.355
2607.438
2606.46
2605.371
2604.148
2602.801
2601.377
2599.934
2598.52
2597.158
2595.845
2594.558
2593.27
2591.958
2590.609
2589.221
2587.798
2586.347
2584.874
2583.388
2581.897
2580.412
2578.949
2577.525
2576.156
2574.854
2573.622
2572.452
2571.327
2570.226
2569.122
2567.993
2566.821
2565.614
2564.306
2563.203
2561.042
2624.421
2624.27
2624.293
2623.668
2622.464
2621.34
2620.798
2620.775
2620.811
2620.491
2619.721
2618.688
2617.641
2616.723
2615.942
2615.238
2614.548
2613.83
2613.063
2612.237
2611.363
2610.466
2609.567
2608.663
2607.719
2606.684
2605.519
2604.219
2602.819
2601.375
2599.943
2598.557
2597.226
2595.931
2594.647
2593.346
2592.013
2590.641
2589.232
2587.791
2586.327
2584.845
2583.354
2581.865
2580.39
2578.946
2577.551
2576.219
2574.957
2573.763
2572.623
2571.516
2570.418
2569.304
2568.156
2566.959
2565.729
2564.405
2563.291
2561.135
2624.927
2625.214
2624.951
2623.877
2622.57
2621.74
2621.57
2621.68
2621.554
2620.949
2619.975
2618.899
2617.921
2617.093
2616.369
2615.679
2614.975
2614.23
2613.428
2612.571
2611.678
2610.777
2609.878
2608.959
2607.971
2606.865
2605.62
2604.254
2602.818
2601.373
2599.965
2598.612
2597.305
2596.02
2594.729
2593.41
2592.054
2590.659
2589.23
2587.775
2586.299
2584.811
2583.319
2581.835
2580.375
2578.956
2577.596
2576.303
2575.081
2573.921
2572.804
2571.708
2570.605
2569.475
2568.303
2567.082
2565.832
2564.495
2563.377
2561.231
2625.865
2626.08
2625.301
2623.923
2622.793
2622.384
2622.484
2622.533
2622.128
2621.259
2620.178
2619.142
2618.26
2617.505
2616.808
2616.113
2615.387
2614.61
2613.774
2612.891
2611.989
2611.089
2610.184
2609.235
2608.186
2607
2605.678
2604.262
2602.812
2601.383
2600.006
2598.682
2597.391
2596.106
2594.8
2593.46
2592.08
2590.664
2589.219
2587.75
2586.266
2584.774
2583.284
2581.81
2580.371
2578.983
2577.661
2576.409
2575.225
2574.093
2572.992
2571.897
2570.783
2569.632
2568.436
2567.192
2565.926
2564.582
2563.465
2561.333
2626.947
2626.652
2625.371
2623.984
2623.259
2623.246
2623.422
2623.237
2622.522
2621.473
2620.388
2619.444
2618.651
2617.94
2617.247
2616.535
2615.781
2614.97
2614.103
2613.203
2612.299
2611.4
2610.478
2609.48
2608.355
2607.087
2605.702
2604.256
2602.811
2601.41
2600.065
2598.763
2597.479
2596.184
2594.859
2593.495
2592.093
2590.658
2589.198
2587.719
2586.229
2584.736
2583.252
2581.795
2580.383
2579.03
2577.748
2576.536
2575.385
2574.276
2573.182
2572.081
2570.949
2569.775
2568.555
2567.292
2566.015
2564.669
2563.557
2561.44
2627.848
2626.857
2625.32
2624.24
2624.003
2624.226
2624.26
2623.746
2622.775
2621.661
2620.65
2619.807
2619.075
2618.38
2617.677
2616.942
2616.157
2615.311
2614.419
2613.511
2612.611
2611.706
2610.75
2609.685
2608.476
2607.133
2605.702
2604.249
2602.824
2601.455
2600.138
2598.851
2597.563
2596.252
2594.904
2593.516
2592.094
2590.643
2589.171
2587.684
2586.19
2584.699
2583.228
2581.793
2580.413
2579.099
2577.858
2576.683
2575.56
2574.464
2573.37
2572.256
2571.102
2569.903
2568.662
2567.384
2566.101
2564.758
2563.654
2561.554
2628.336
2626.789
2625.365
2624.8
2624.963
2625.182
2624.908
2624.07
2622.956
2621.881
2620.979
2620.217
2619.514
2618.815
2618.094
2617.332
2616.512
2615.635
2614.727
2613.821
2612.923
2611.998
2610.988
2609.843
2608.551
2607.147
2605.693
2604.249
2602.855
2601.518
2600.222
2598.937
2597.638
2596.305
2594.933
2593.524
2592.084
2590.619
2589.137
2587.644
2586.15
2584.668
2583.214
2581.807
2580.463
2579.191
2577.989
2576.847
2575.744
2574.654
2573.552
2572.419
2571.242
2570.019
2568.759
2567.472
2566.188
2564.852
2563.759
2561.673
2628.381
2626.665
2625.691
2625.665
2626.001
2625.984
2625.339
2624.27
2623.141
2622.169
2621.367
2620.651
2619.952
2619.239
2618.497
2617.704
2616.848
2615.946
2615.034
2614.134
2613.229
2612.265
2611.183
2609.95
2608.585
2607.141
2605.684
2604.266
2602.905
2601.595
2600.309
2599.018
2597.7
2596.344
2594.949
2593.52
2592.064
2590.589
2589.099
2587.603
2586.113
2584.644
2583.214
2581.841
2580.537
2579.306
2578.141
2577.024
2575.933
2574.841
2573.725
2572.569
2571.368
2570.124
2568.85
2567.558
2566.278
2564.952
2563.87
2561.795
2628.154
2626.729
2626.376
2626.723
2626.954
2626.557
2625.59
2624.429
2623.382
2622.528
2621.793
2621.09
2620.381
2619.652
2618.885
2618.056
2617.167
2616.251
2615.344
2614.447
2613.519
2612.495
2611.327
2610.011
2608.589
2607.128
2605.687
2604.301
2602.972
2601.679
2600.393
2599.088
2597.748
2596.368
2594.952
2593.506
2592.037
2590.552
2589.057
2587.562
2586.081
2584.631
2583.231
2581.896
2580.634
2579.442
2578.309
2577.211
2576.124
2575.022
2573.886
2572.706
2571.481
2570.22
2568.938
2567.646
2566.374
2565.058
2563.989
2561.919
2627.933
2627.152
2627.372
2627.802
2627.696
2626.9
2625.744
2624.623
2623.703
2622.94
2622.232
2621.522
2620.801
2620.054
2619.254
2618.387
2617.474
2616.557
2615.658
2614.753
2613.781
2612.678
2611.42
2610.032
2608.576
2607.119
2605.707
2604.356
2603.051
2601.765
2600.47
2599.145
2597.78
2596.378
2594.943
2593.483
2592.004
2590.512
2589.015
2587.525
2586.058
2584.634
2583.269
2581.975
2580.754
2579.599
2578.49
2577.403
2576.311
2575.193
2574.034
2572.829
2571.584
2570.31
2569.025
2567.738
2566.476
2565.172
2564.112
2562.044
2627.991
2627.975
2628.52
2628.726
2628.174
2627.08
2625.895
2624.896
2624.094
2623.376
2622.666
2621.946
2621.212
2620.44
2619.601
2618.7
2617.776
2616.867
2615.973
2615.041
2614.001
2612.808
2611.466
2610.027
2608.561
2607.125
2605.747
2604.426
2603.136
2601.847
2600.535
2599.187
2597.799
2596.376
2594.925
2593.453
2591.965
2590.469
2588.973
2587.494
2586.048
2584.655
2583.329
2582.078
2580.897
2579.771
2578.679
2577.594
2576.491
2575.352
2574.168
2572.94
2571.679
2570.398
2569.114
2567.835
2566.585
2565.291
2564.24
2562.167
2628.497
2629.097
2629.614
2629.38
2628.421
2627.2
2626.113
2625.255
2624.524
2623.813
2623.09
2622.362
2621.613
2620.806
2619.925
2619.001
2618.08
2617.184
2616.279
2615.296
2614.17
2612.886
2611.476
2610.01
2608.554
2607.149
2605.806
2604.506
2603.22
2601.92
2600.587
2599.214
2597.804
2596.364
2594.9
2593.418
2591.923
2590.425
2588.936
2587.473
2586.055
2584.698
2583.415
2582.205
2581.059
2579.957
2578.873
2577.781
2576.661
2575.498
2574.289
2573.042
2571.769
2570.485
2569.207
2567.94
2566.701
2565.415
2564.369
2562.285
2629.463
2630.315
2630.474
2629.743
2628.536
2627.359
2626.427
2625.674
2624.964
2624.239
2623.508
2622.773
2621.997
2621.147
2620.231
2619.299
2618.392
2617.501
2616.563
2615.505
2614.285
2612.918
2611.463
2609.993
2608.563
2607.195
2605.88
2604.591
2603.299
2601.981
2600.624
2599.228
2597.799
2596.344
2594.868
2593.378
2591.88
2590.385
2588.907
2587.467
2586.081
2584.766
2583.525
2582.354
2581.237
2580.149
2579.065
2577.961
2576.818
2575.63
2574.399
2573.136
2571.856
2570.576
2569.307
2568.051
2566.823
2565.541
2564.497
2562.398
2630.736
2631.391
2631.008
2629.893
2628.641
2627.616
2626.825
2626.116
2625.392
2624.655
2623.923
2623.174
2622.359
2621.464
2620.527
2619.604
2618.712
2617.806
2616.81
2615.66
2614.347
2612.917
2611.442
2609.988
2608.593
2607.258
2605.962
2604.675
2603.369
2602.028
2600.647
2599.23
2597.785
2596.317
2594.832
2593.336
2591.837
2590.35
2588.89
2587.478
2586.131
2584.858
2583.659
2582.522
2581.426
2580.345
2579.252
2578.129
2576.961
2575.748
2574.498
2573.225
2571.945
2570.671
2569.413
2568.168
2566.948
2565.669
2564.622
2562.504
2632.047
2632.153
2631.245
2629.959
2628.828
2627.978
2627.266
2626.55
2625.806
2625.068
2624.336
2623.557
2622.693
2621.761
2620.822
2619.918
2619.03
2618.085
2617.006
2615.757
2614.365
2612.897
2611.425
2610.002
2608.643
2607.334
2606.047
2604.751
2603.425
2602.06
2600.658
2599.223
2597.763
2596.285
2594.792
2593.293
2591.798
2590.324
2588.889
2587.512
2586.206
2584.976
2583.815
2582.705
2581.621
2580.538
2579.43
2578.283
2577.09
2575.855
2574.591
2573.313
2572.036
2570.772
2569.526
2568.291
2567.076
2565.794
2564.743
2562.6
2633.119
2632.55
2631.306
2630.071
2629.137
2628.411
2627.709
2626.964
2626.214
2625.485
2624.739
2623.913
2623
2622.05
2621.127
2620.241
2619.334
2618.322
2617.144
2615.803
2614.354
2612.873
2611.424
2610.038
2608.711
2607.418
2606.129
2604.817
2603.468
2602.08
2600.657
2599.207
2597.736
2596.249
2594.751
2593.252
2591.766
2590.311
2588.906
2587.569
2586.307
2585.118
2583.989
2582.898
2581.818
2580.724
2579.596
2578.423
2577.206
2575.953
2574.68
2573.402
2572.133
2570.881
2569.646
2568.418
2567.205
2565.917
2564.856
2562.688
2633.782
2632.665
2631.349
2630.307
2629.549
2628.865
2628.13
2627.365
2626.627
2625.901
2625.119
2624.237
2623.287
2622.343
2621.444
2620.56
2619.606
2618.503
2617.225
2615.808
2614.328
2612.858
2611.443
2610.094
2608.791
2607.504
2606.203
2604.87
2603.498
2602.088
2600.648
2599.185
2597.704
2596.21
2594.71
2593.215
2591.744
2590.315
2588.946
2587.651
2586.432
2585.28
2584.176
2583.095
2582.011
2580.9
2579.748
2578.549
2577.311
2576.044
2574.767
2573.495
2572.237
2570.996
2569.771
2568.547
2567.331
2566.033
2564.962
2562.765
2634.03
2632.664
2631.497
2630.679
2630.01
2629.299
2628.525
2627.767
2627.048
2626.305
2625.466
2624.531
2623.569
2622.649
2621.77
2620.862
2619.831
2618.624
2617.254
2615.787
2614.303
2612.861
2611.485
2610.166
2608.876
2607.584
2606.266
2604.91
2603.515
2602.086
2600.632
2599.158
2597.668
2596.169
2594.67
2593.186
2591.735
2590.338
2589.01
2587.759
2586.58
2585.459
2584.372
2583.293
2582.196
2581.063
2579.885
2578.662
2577.406
2576.133
2574.857
2573.593
2572.347
2571.117
2569.898
2568.675
2567.452
2566.143
2565.058
2562.833
2634.012
2632.713
2631.802
2631.137
2630.464
2629.697
2628.914
2628.184
2627.47
2626.681
2625.776
2624.808
2623.86
2622.971
2622.091
2621.126
2619.995
2618.686
2617.246
2615.757
2614.291
2612.886
2611.547
2610.249
2608.962
2607.656
2606.316
2604.937
2603.521
2602.076
2600.609
2599.126
2597.63
2596.129
2594.635
2593.167
2591.744
2590.384
2589.1
2587.891
2586.748
2585.65
2584.571
2583.486
2582.37
2581.212
2580.008
2578.765
2577.497
2576.221
2574.952
2573.699
2572.464
2571.243
2570.027
2568.8
2567.568
2566.244
2565.143
2562.891
2633.936
2632.917
2632.237
2631.613
2630.875
2630.072
2629.315
2628.613
2627.874
2627.016
2626.056
2625.084
2624.17
2623.301
2622.389
2621.336
2620.097
2618.7
2617.218
2615.733
2614.3
2612.935
2611.624
2610.336
2609.041
2607.717
2606.353
2604.951
2603.517
2602.059
2600.582
2599.09
2597.59
2596.091
2594.609
2593.163
2591.773
2590.455
2589.214
2588.045
2586.931
2585.848
2584.769
2583.669
2582.53
2581.345
2580.118
2578.859
2577.585
2576.312
2575.052
2573.811
2572.587
2571.372
2570.155
2568.921
2567.676
2566.335
2565.219
2562.939
2633.984
2633.293
2632.729
2632.05
2631.245
2630.452
2629.74
2629.041
2628.24
2627.309
2626.321
2625.375
2624.498
2623.622
2622.642
2621.482
2620.141
2618.681
2617.186
2615.726
2614.333
2613.003
2611.71
2610.421
2609.111
2607.763
2606.376
2604.955
2603.506
2602.036
2600.55
2599.052
2597.55
2596.058
2594.593
2593.176
2591.826
2590.552
2589.353
2588.218
2587.126
2586.049
2584.96
2583.84
2582.675
2581.465
2580.217
2578.948
2577.673
2576.407
2575.159
2573.93
2572.714
2571.501
2570.28
2569.035
2567.776
2566.417
2565.284
2562.979
2634.241
2633.78
2633.201
2632.429
2631.602
2630.859
2630.182
2629.442
2628.559
2627.572
2626.593
2625.691
2624.833
2623.915
2622.837
2621.565
2620.141
2618.647
2617.165
2615.742
2614.389
2613.084
2611.798
2610.499
2609.168
2607.797
2606.388
2604.95
2603.488
2602.008
2600.514
2599.013
2597.514
2596.033
2594.593
2593.211
2591.903
2590.673
2589.513
2588.406
2587.326
2586.246
2585.141
2583.996
2582.805
2581.572
2580.31
2579.036
2577.765
2576.51
2575.274
2574.055
2572.844
2571.629
2570.4
2569.141
2567.865
2566.488
2565.339
2563.01
2634.688
2634.287
2633.606
2632.768
2631.979
2631.299
2630.615
2629.796
2628.832
2627.828
2626.888
2626.026
2625.154
2624.156
2622.964
2621.591
2620.113
2618.616
2617.164
2615.783
2614.462
2613.172
2611.882
2610.566
2609.211
2607.817
2606.39
2604.937
2603.464
2601.976
2600.476
2598.974
2597.482
2596.021
2594.611
2593.27
2592.006
2590.818
2589.691
2588.603
2587.527
2586.435
2585.309
2584.138
2582.921
2581.669
2580.398
2579.125
2577.862
2576.619
2575.395
2574.183
2572.973
2571.753
2570.512
2569.238
2567.945
2566.55
2565.384
2563.034
2635.231
2634.737
2633.942
2633.109
2632.399
2631.754
2631.01
2630.094
2629.079
2628.098
2627.213
2626.367
2625.439
2624.332
2623.026
2621.577
2620.076
2618.599
2617.188
2615.845
2614.547
2613.261
2611.958
2610.62
2609.241
2607.827
2606.383
2604.918
2603.436
2601.94
2600.437
2598.938
2597.46
2596.025
2594.652
2593.354
2592.134
2590.983
2589.882
2588.804
2587.723
2586.614
2585.462
2584.264
2583.025
2581.76
2580.486
2579.218
2577.967
2576.735
2575.521
2574.313
2573.101
2571.871
2570.617
2569.326
2568.014
2566.602
2565.421
2563.053
2635.757
2635.098
2634.25
2633.492
2632.859
2632.19
2631.345
2630.345
2629.327
2628.401
2627.558
2626.687
2625.666
2624.439
2623.036
2621.542
2620.046
2618.606
2617.237
2615.924
2614.637
2613.344
2612.022
2610.66
2609.259
2607.827
2606.37
2604.894
2603.404
2601.902
2600.399
2598.909
2597.452
2596.049
2594.717
2593.464
2592.285
2591.166
2590.082
2589.005
2587.91
2586.778
2585.599
2584.377
2583.121
2581.848
2580.576
2579.317
2578.078
2576.858
2575.65
2574.443
2573.224
2571.982
2570.712
2569.403
2568.074
2566.644
2565.449
2563.067
2636.186
2635.39
2634.585
2633.936
2633.329
2632.573
2631.617
2630.576
2629.601
2628.737
2627.903
2626.962
2625.822
2624.481
2623.011
2621.504
2620.036
2618.638
2617.305
2616.012
2614.725
2613.417
2612.072
2610.686
2609.266
2607.818
2606.35
2604.866
2603.368
2601.863
2600.364
2598.889
2597.46
2596.095
2594.807
2593.598
2592.455
2591.36
2590.284
2589.2
2588.086
2586.927
2585.722
2584.478
2583.21
2581.936
2580.67
2579.423
2578.197
2576.986
2575.781
2574.569
2573.34
2572.084
2570.797
2569.47
2568.123
2566.678
2565.47
2563.077
2636.497
2635.675
2634.988
2634.421
2633.763
2632.882
2631.845
2630.82
2629.915
2629.093
2628.22
2627.172
2625.907
2624.475
2622.97
2621.479
2620.05
2618.693
2617.388
2616.103
2614.806
2613.478
2612.108
2610.701
2609.264
2607.804
2606.326
2604.833
2603.329
2601.825
2600.337
2598.884
2597.488
2596.166
2594.923
2593.754
2592.642
2591.561
2590.484
2589.385
2588.246
2587.061
2585.832
2584.572
2583.298
2582.027
2580.771
2579.537
2578.321
2577.116
2575.91
2574.691
2573.449
2572.177
2570.872
2569.527
2568.164
2566.705
2565.485
2563.086
2636.738
2636.016
2635.464
2634.903
2634.126
2633.125
2632.062
2631.101
2630.265
2629.441
2628.482
2627.306
2625.93
2624.441
2622.933
2621.475
2620.09
2618.768
2617.479
2616.19
2614.877
2613.524
2612.132
2610.706
2609.254
2607.783
2606.296
2604.796
2603.29
2601.792
2600.32
2598.896
2597.54
2596.263
2595.063
2593.93
2592.839
2591.764
2590.677
2589.557
2588.391
2587.18
2585.931
2584.66
2583.386
2582.123
2580.88
2579.657
2578.45
2577.247
2576.037
2574.807
2573.55
2572.26
2570.936
2569.575
2568.196
2566.725
2565.496
2563.095
2636.992
2636.45
2635.977
2635.328
2634.403
2633.328
2632.306
2631.431
2630.632
2629.752
2628.671
2627.368
2625.91
2624.398
2622.914
2621.498
2620.153
2618.855
2617.57
2616.269
2614.934
2613.557
2612.144
2610.701
2609.238
2607.758
2606.263
2604.758
2603.253
2601.766
2600.318
2598.93
2597.618
2596.385
2595.225
2594.12
2593.042
2591.963
2590.859
2589.714
2588.521
2587.286
2586.022
2584.747
2583.478
2582.226
2580.996
2579.784
2578.581
2577.377
2576.157
2574.914
2573.64
2572.333
2570.991
2569.614
2568.221
2566.739
2565.504
2563.104
2637.338
2636.963
2636.464
2635.661
2634.612
2633.537
2632.602
2631.798
2630.982
2629.998
2628.782
2627.373
2625.869
2624.364
2622.918
2621.546
2620.233
2618.947
2617.656
2616.336
2614.977
2613.577
2612.146
2610.69
2609.217
2607.728
2606.226
2604.718
2603.22
2601.752
2600.335
2598.988
2597.721
2596.532
2595.405
2594.319
2593.244
2592.154
2591.028
2589.855
2588.637
2587.383
2586.11
2584.836
2583.576
2582.337
2581.118
2579.914
2578.713
2577.502
2576.271
2575.012
2573.721
2572.395
2571.037
2569.644
2568.24
2566.75
2565.512
2563.116
2637.806
2637.498
2636.868
2635.897
2634.794
2633.788
2632.952
2632.174
2631.282
2630.164
2628.822
2627.341
2625.825
2624.351
2622.949
2621.615
2620.322
2619.037
2617.732
2616.39
2615.006
2613.586
2612.14
2610.673
2609.191
2607.693
2606.187
2604.681
2603.197
2601.754
2600.374
2599.072
2597.85
2596.699
2595.599
2594.523
2593.443
2592.334
2591.181
2589.981
2588.74
2587.473
2586.197
2584.93
2583.681
2582.455
2581.247
2580.046
2578.842
2577.622
2576.377
2575.101
2573.791
2572.448
2571.074
2569.668
2568.253
2566.758
2565.52
2563.13
2638.363
2637.979
2637.158
2636.071
2634.999
2634.104
2633.336
2632.522
2631.507
2630.249
2628.81
2627.295
2625.796
2624.364
2623.005
2621.699
2620.415
2619.122
2617.796
2616.429
2615.022
2613.586
2612.127
2610.651
2609.16
2607.656
2606.147
2604.65
2603.186
2601.776
2600.438
2599.182
2598.002
2596.883
2595.801
2594.726
2593.631
2592.499
2591.318
2590.093
2588.835
2587.56
2586.287
2585.03
2583.795
2582.58
2581.378
2580.178
2578.967
2577.734
2576.473
2575.179
2573.852
2572.492
2571.103
2569.685
2568.263
2566.765
2565.53
2563.146
2638.928
2638.349
2637.348
2636.235
2635.266
2634.477
2633.719
2632.807
2631.647
2630.267
2628.768
2627.254
2625.791
2624.404
2623.08
2621.791
2620.505
2619.195
2617.845
2616.454
2615.029
2613.578
2612.109
2610.624
2609.125
2607.616
2606.111
2604.629
2603.192
2601.821
2600.528
2599.317
2598.174
2597.08
2596.005
2594.922
2593.808
2592.648
2591.441
2590.194
2588.924
2587.648
2586.383
2585.138
2583.915
2582.71
2581.511
2580.307
2579.085
2577.838
2576.559
2575.247
2573.903
2572.527
2571.125
2569.698
2568.272
2566.773
2565.544
2563.164
2639.408
2638.589
2637.488
2636.445
2635.607
2634.878
2634.06
2633.008
2631.707
2630.24
2628.72
2627.231
2625.813
2624.466
2623.168
2621.885
2620.587
2619.255
2617.88
2616.468
2615.027
2613.565
2612.087
2610.593
2609.087
2607.577
2606.081
2604.621
2603.219
2601.891
2600.645
2599.475
2598.363
2597.283
2596.207
2595.109
2593.969
2592.781
2591.55
2590.287
2589.011
2587.739
2586.485
2585.253
2584.042
2582.843
2581.643
2580.43
2579.196
2577.932
2576.635
2575.306
2573.944
2572.554
2571.141
2569.707
2568.279
2566.783
2565.562
2563.183
2639.744
2638.733
2637.643
2636.736
2636.005
2635.263
2634.324
2633.119
2631.704
2630.192
2628.683
2627.234
2625.861
2624.546
2623.261
2621.974
2620.658
2619.301
2617.903
2616.472
2615.018
2613.546
2612.059
2610.557
2609.047
2607.542
2606.062
2604.631
2603.269
2601.988
2600.786
2599.652
2598.563
2597.489
2596.402
2595.282
2594.115
2592.9
2591.648
2590.375
2589.099
2587.836
2586.595
2585.376
2584.174
2582.976
2581.771
2580.547
2579.297
2578.016
2576.701
2575.354
2573.978
2572.575
2571.153
2569.714
2568.288
2566.796
2565.584
2563.198
2639.932
2638.847
2637.869
2637.107
2636.42
2635.591
2634.497
2633.154
2631.665
2630.144
2628.668
2627.265
2625.93
2624.637
2623.355
2622.054
2620.714
2619.332
2617.913
2616.468
2615.004
2613.523
2612.027
2610.519
2609.008
2607.514
2606.058
2604.664
2603.346
2602.111
2600.95
2599.845
2598.768
2597.69
2596.586
2595.44
2594.244
2593.006
2591.739
2590.462
2589.192
2587.941
2586.713
2585.505
2584.308
2583.108
2581.894
2580.656
2579.389
2578.089
2576.757
2575.394
2574.004
2572.59
2571.162
2569.722
2568.3
2566.812
2565.609
2563.208
2640.023
2639.003
2638.191
2637.53
2636.802
2635.829
2634.579
2633.133
2631.613
2630.113
2628.68
2627.32
2626.014
2624.732
2623.442
2622.121
2620.756
2619.351
2617.915
2616.458
2614.985
2613.495
2611.991
2610.479
2608.974
2607.498
2606.074
2604.721
2603.45
2602.259
2601.133
2600.047
2598.973
2597.883
2596.756
2595.581
2594.359
2593.102
2591.827
2590.552
2589.291
2588.054
2586.839
2585.638
2584.441
2583.235
2582.009
2580.756
2579.471
2578.153
2576.804
2575.426
2574.023
2572.601
2571.169
2569.731
2568.315
2566.831
2565.635
2563.208
2640.104
2639.253
2638.596
2637.954
2637.109
2635.97
2634.588
2633.084
2631.569
2630.107
2628.719
2627.394
2626.107
2624.825
2623.519
2622.173
2620.784
2619.359
2617.91
2616.443
2614.961
2613.462
2611.952
2610.441
2608.948
2607.498
2606.112
2604.805
2603.58
2602.428
2601.329
2600.253
2599.174
2598.064
2596.91
2595.707
2594.463
2593.192
2591.914
2590.646
2589.399
2588.175
2586.97
2585.773
2584.573
2583.357
2582.116
2580.845
2579.542
2578.207
2576.842
2575.45
2574.037
2572.609
2571.177
2569.743
2568.334
2566.853
2565.659
2563.194
2640.256
2639.61
2639.04
2638.325
2637.316
2636.022
2634.552
2633.032
2631.545
2630.128
2628.78
2627.482
2626.203
2624.911
2623.583
2622.211
2620.8
2619.359
2617.9
2616.424
2614.932
2613.426
2611.912
2610.407
2608.935
2607.518
2606.175
2604.915
2603.734
2602.615
2601.533
2600.459
2599.364
2598.23
2597.048
2595.819
2594.557
2593.279
2592.005
2590.748
2589.514
2588.302
2587.104
2585.907
2584.7
2583.471
2582.213
2580.925
2579.604
2578.252
2576.872
2575.468
2574.046
2572.616
2571.186
2569.759
2568.355
2566.873
2565.677
2563.161
2640.528
2640.046
2639.464
2638.604
2637.422
2636.009
2634.497
2632.993
2631.548
2630.174
2628.859
2627.577
2626.295
2624.985
2623.632
2622.235
2620.805
2619.353
2617.884
2616.4
2614.899
2613.386
2611.874
2610.384
2608.939
2607.562
2606.265
2605.052
2603.909
2602.814
2601.741
2600.658
2599.542
2598.38
2597.17
2595.919
2594.646
2593.368
2592.102
2590.857
2589.637
2588.435
2587.239
2586.038
2584.82
2583.575
2582.301
2580.994
2579.656
2578.288
2576.895
2575.481
2574.054
2572.624
2571.199
2569.778
2568.379
2566.89
2565.684
2563.104
2640.921
2640.504
2639.815
2638.775
2637.445
2635.961
2634.447
2632.977
2631.577
2630.241
2628.95
2627.673
2626.379
2625.045
2623.666
2622.248
2620.804
2619.342
2617.864
2616.37
2614.861
2613.346
2611.842
2610.374
2608.964
2607.632
2606.383
2605.211
2604.1
2603.021
2601.945
2600.846
2599.705
2598.514
2597.278
2596.012
2594.733
2593.46
2592.205
2590.975
2589.767
2588.57
2587.373
2586.164
2584.931
2583.671
2582.378
2581.054
2579.699
2578.316
2576.911
2575.49
2574.061
2572.634
2571.216
2569.8
2568.401
2566.9
2565.674
2563.022
2641.392
2640.92
2640.06
2638.846
2637.413
2635.904
2634.415
2632.988
2631.629
2630.324
2629.047
2627.764
2626.45
2625.089
2623.686
2622.251
2620.796
2619.326
2617.839
2616.336
2614.821
2613.308
2611.821
2610.382
2609.014
2607.729
2606.526
2605.391
2604.302
2603.229
2602.143
2601.021
2599.851
2598.633
2597.376
2596.1
2594.822
2593.558
2592.318
2591.101
2589.901
2588.706
2587.503
2586.282
2585.034
2583.756
2582.445
2581.104
2579.733
2578.338
2576.923
2575.497
2574.069
2572.648
2571.236
2569.824
2568.418
2566.897
2565.642
2562.911
2641.87
2641.244
2640.191
2638.841
2637.356
2635.858
2634.408
2633.025
2631.701
2630.418
2629.143
2627.845
2626.505
2625.119
2623.695
2622.248
2620.784
2619.305
2617.809
2616.297
2614.78
2613.278
2611.814
2610.413
2609.091
2607.853
2606.691
2605.586
2604.51
2603.433
2602.328
2601.179
2599.98
2598.738
2597.467
2596.187
2594.915
2593.664
2592.438
2591.232
2590.037
2588.84
2587.628
2586.392
2585.127
2583.83
2582.502
2581.145
2579.76
2578.353
2576.931
2575.504
2574.08
2572.665
2571.259
2569.845
2568.427
2566.876
2565.583
2562.77
2642.284
2641.45
2640.227
2638.794
2637.301
2635.834
2634.427
2633.083
2631.788
2630.515
2629.232
2627.913
2626.545
2625.135
2623.697
2622.24
2620.768
2619.279
2617.773
2616.256
2614.743
2613.259
2611.828
2610.469
2609.195
2608.002
2606.876
2605.791
2604.718
2603.628
2602.499
2601.321
2600.095
2598.834
2597.555
2596.277
2595.016
2593.779
2592.565
2591.367
2590.173
2588.969
2587.744
2586.492
2585.21
2583.895
2582.55
2581.177
2579.779
2578.363
2576.938
2575.512
2574.094
2572.686
2571.282
2569.862
2568.422
2566.834
2565.493
2562.601
2642.584
2641.543
2640.199
2638.734
2637.262
2635.835
2634.469
2633.159
2631.883
2630.611
2629.31
2627.964
2626.57
2625.142
2623.692
2622.227
2620.746
2619.248
2617.733
2616.215
2614.715
2613.256
2611.864
2610.553
2609.326
2608.173
2607.074
2606
2604.921
2603.81
2602.653
2601.447
2600.198
2598.923
2597.642
2596.372
2595.124
2593.902
2592.698
2591.504
2590.306
2589.091
2587.852
2586.583
2585.282
2583.95
2582.589
2581.202
2579.793
2578.371
2576.945
2575.523
2574.113
2572.71
2571.304
2569.868
2568.397
2566.765
2565.369
2562.408
2642.754
2641.549
2640.142
2638.682
2637.246
2635.861
2634.532
2633.248
2631.981
2630.698
2629.373
2627.999
2626.583
2625.141
2623.683
2622.21
2620.719
2619.211
2617.691
2616.179
2614.699
2613.274
2611.926
2610.663
2609.481
2608.362
2607.281
2606.208
2605.113
2603.977
2602.791
2601.558
2600.291
2599.01
2597.733
2596.475
2595.241
2594.031
2592.835
2591.64
2590.434
2589.206
2587.95
2586.663
2585.345
2583.996
2582.62
2581.22
2579.803
2578.377
2576.953
2575.539
2574.134
2572.733
2571.319
2569.86
2568.349
2566.667
2565.212
2562.196
2642.809
2641.504
2640.083
2638.651
2637.254
2635.908
2634.611
2633.345
2632.076
2630.773
2629.42
2628.019
2626.587
2625.135
2623.669
2622.187
2620.686
2619.169
2617.651
2616.152
2614.7
2613.317
2612.016
2610.8
2609.657
2608.564
2607.491
2606.408
2605.292
2604.127
2602.913
2601.658
2600.379
2599.098
2597.83
2596.586
2595.366
2594.166
2592.972
2591.772
2590.555
2589.311
2588.038
2586.733
2585.397
2584.033
2582.643
2581.232
2579.81
2578.384
2576.965
2575.558
2574.159
2572.754
2571.323
2569.832
2568.272
2566.536
2565.022
2561.975
2642.783
2641.442
2640.038
2638.642
2637.284
2635.974
2634.703
2633.443
2632.161
2630.831
2629.45
2628.029
2626.584
2625.125
2623.651
2622.159
2620.647
2619.127
2617.615
2616.139
2614.723
2613.385
2612.134
2610.961
2609.85
2608.772
2607.698
2606.598
2605.455
2604.26
2603.02
2601.749
2600.466
2599.19
2597.935
2596.705
2595.498
2594.303
2593.107
2591.899
2590.667
2589.407
2588.115
2586.793
2585.441
2584.062
2582.66
2581.241
2579.816
2578.393
2576.981
2575.581
2574.182
2572.768
2571.31
2569.778
2568.164
2566.375
2564.804
2561.754
2642.719
2641.386
2640.014
2638.655
2637.334
2636.056
2634.801
2633.537
2632.231
2630.872
2629.466
2628.03
2626.577
2625.111
2623.628
2622.124
2620.605
2619.086
2617.59
2616.145
2614.771
2613.482
2612.277
2611.143
2610.054
2608.982
2607.896
2606.773
2605.6
2604.378
2603.117
2601.836
2600.555
2599.289
2598.048
2596.832
2595.633
2594.44
2593.239
2592.018
2590.77
2589.492
2588.183
2586.844
2585.476
2584.083
2582.671
2581.247
2579.823
2578.406
2577.002
2575.605
2574.202
2572.769
2571.277
2569.695
2568.024
2566.185
2564.566
2561.547
2642.649
2641.347
2640.011
2638.689
2637.403
2636.15
2634.9
2633.619
2632.284
2630.896
2629.471
2628.026
2626.567
2625.092
2623.598
2622.084
2620.561
2619.052
2617.581
2616.173
2614.846
2613.606
2612.444
2611.339
2610.264
2609.188
2608.083
2606.932
2605.729
2604.482
2603.207
2601.923
2600.648
2599.396
2598.17
2596.965
2595.771
2594.575
2593.363
2592.128
2590.863
2589.567
2588.241
2586.886
2585.503
2584.099
2582.679
2581.253
2579.833
2578.423
2577.025
2575.629
2574.214
2572.753
2571.217
2569.581
2567.852
2565.972
2564.317
2561.367
2642.594
2641.328
2640.027
2638.742
2637.488
2636.25
2634.992
2633.684
2632.319
2630.908
2629.47
2628.018
2626.552
2625.067
2623.561
2622.039
2620.52
2619.029
2617.591
2616.227
2614.95
2613.755
2612.629
2611.546
2610.474
2609.384
2608.254
2607.073
2605.843
2604.577
2603.293
2602.012
2600.749
2599.512