/*--------------------------------*- C++ -*----------------------------------*\
| =========                 |                                                 |
| \\      /  F ield         | OpenFOAM: The Open Source CFD Toolbox           |
|  \\    /   O peration     | Version:  2312                                  |
|   \\  /    A nd           | Website:  www.openfoam.com                      |
|    \\/     M anipulation  |                                                 |
\*---------------------------------------------------------------------------*/
FoamFile
{
    version     2.0;
    format      ascii;
    arch        "LSB;label=32;scalar=64";
    class       volScalarField;
    location    "1000";
    object      ILambda_14_0;
}
// * * * * * * * * * * * * * * * * * * * * * * * * * * * * * * * * * * * * * //

dimensions      [1 0 -3 0 0 0 0];

internalField   nonuniform List<scalar> 
12000
(
858.6154
789.4583
792.8883
791.1805
790.8587
790.441
790.0411
789.6415
789.262
788.8983
788.5286
788.1379
787.7355
787.3417
786.9432
786.5336
786.1101
785.6897
785.2621
784.815
784.3498
783.872
783.3774
782.8571
782.3107
781.742
781.1507
780.5361
779.9053
779.2689
778.6332
777.9952
777.3343
776.6082
775.7707
774.8507
773.9696
773.1765
772.3166
771.1931
769.854
768.63
767.619
766.4898
765.0334
763.5828
762.5042
761.2885
759.1695
756.4527
754.0271
752.0334
749.3867
745.2708
740.4541
735.3027
729.0062
721.6904
715.9185
716.4142
803.9231
785.4208
792.141
790.1391
790.0854
789.6309
789.2556
788.8786
788.5078
788.1269
787.7321
787.3304
786.9298
786.5244
786.108
785.6826
785.2513
784.8093
784.3487
783.8697
783.3737
782.8573
782.3156
781.7488
781.1601
780.5519
779.9274
779.2924
778.6516
778.0011
777.3263
776.6041
775.8123
774.9489
774.048
773.1533
772.2443
771.2247
770.04
768.7793
767.5915
766.4687
765.2385
763.8439
762.4323
761.0327
759.3307
757.0641
754.4666
751.8682
749.0405
745.3259
740.4494
734.8974
729.1788
723.6065
719.1426
717.4063
719.1387
722.3618
788.9897
788.5975
790.7441
789.3963
789.3079
788.8539
788.4945
788.1141
787.7284
787.3302
786.9255
786.5185
786.107
785.6849
785.2522
784.8094
784.3534
783.8786
783.3832
782.8678
782.3305
781.7688
781.1834
780.5783
779.9572
779.3234
778.6789
778.0221
777.3438
776.6279
775.8576
775.0239
774.1332
773.2043
772.2497
771.248
770.152
768.9499
767.7048
766.493
765.2997
764.0191
762.5901
761.0483
759.3732
757.3861
754.9272
752.0612
748.8918
745.2288
740.7305
735.3987
729.7898
724.6602
720.6026
718.2338
718.1111
720.0309
722.758
725.0346
787.9577
789.813
789.3653
788.7687
788.5152
788.0915
787.7222
787.327
786.9264
786.5181
786.1056
785.6866
785.2571
784.815
784.3596
783.8881
783.397
782.8839
782.3488
781.7913
781.2109
780.6093
779.9905
779.3578
778.7126
778.0528
777.3722
776.6594
775.9004
775.0845
774.2092
773.2809
772.3084
771.2923
770.2185
769.0703
767.8551
766.6116
765.3702
764.1045
762.739
761.2104
759.4916
757.5274
755.1943
752.3775
749.057
745.2431
740.8692
735.8976
730.5838
725.536
721.4609
718.873
718.0418
719.0144
721.5143
725.0972
729.7669
736.3718
788.7474
789.1825
788.3934
788.0918
787.718
787.3173
786.9265
786.519
786.1072
785.6882
785.2611
784.822
784.3684
783.8987
783.4107
782.9016
782.3698
781.8154
781.239
780.6416
780.0258
779.3943
778.749
778.0883
777.407
776.696
775.9439
775.1398
774.2774
773.3571
772.3839
771.3621
770.2909
769.1641
767.9797
766.7487
765.4897
764.2037
762.8512
761.3609
759.6612
757.6913
755.3751
752.6098
749.3094
745.455
741.087
736.2863
731.2421
726.3562
722.2105
719.3607
718.1401
718.6378
720.7997
724.5323
729.8474
737.0487
746.657
758.8577
788.6649
788.157
787.6474
787.3322
786.9179
786.519
786.1095
785.6909
785.265
784.8281
784.3776
783.9104
783.4249
782.9191
782.3912
781.8405
781.2676
780.674
780.0614
779.432
778.7873
778.1264
777.4452
776.7359
775.9886
775.1929
774.3413
773.4306
772.4629
771.4426
770.3733
769.2556
768.0892
766.8765
765.6229
764.328
762.9694
761.4929
759.8205
757.8691
755.5597
752.8119
749.5495
745.7337
741.4023
736.6819
731.7883
727.0471
722.9054
719.8614
718.3193
718.4883
720.4131
724.0911
729.5682
736.9589
746.3776
757.7201
770.3407
782.9687
787.9978
787.2573
786.9149
786.5257
786.1078
785.6961
785.2702
784.8352
784.3871
783.9231
783.4406
782.9379
782.4136
781.8669
781.2978
780.7076
780.0982
779.4712
778.8279
778.1674
777.4867
776.779
776.0356
775.2466
774.404
773.5029
772.5431
771.5282
770.4629
769.3514
768.1959
766.9974
765.7551
764.4632
763.1015
761.6264
759.968
758.0389
755.7497
753.0202
749.7876
746.0221
741.755
737.1076
732.2999
727.6428
723.523
720.3704
718.5897
718.4758
720.1783
723.7483
729.2145
736.605
745.8738
756.7568
768.6118
780.3346
790.5116
797.9237
787.1922
786.4552
786.1325
785.7003
785.2782
784.8459
784.3994
783.9384
783.4593
782.96
782.4392
781.8962
781.3311
780.7446
780.1383
779.5139
778.8723
778.213
777.5331
776.8271
776.087
775.3037
774.4688
773.5767
772.6258
771.6183
770.559
769.4536
768.3062
767.118
765.8865
764.6019
763.2427
761.7685
760.1162
758.203
755.9374
753.2355
750.0365
746.3183
742.1158
737.5423
732.8043
728.1972
724.084
720.8611
718.9149
718.5707
720.0495
723.4614
728.8337
736.1311
745.2185
755.765
767.1433
778.4003
788.3627
795.9077
800.3405
801.7189
786.3861
785.6567
785.308
784.8546
784.4153
783.9559
783.48
782.9844
782.4673
781.9281
781.3668
780.784
780.1811
779.5594
778.9199
778.2621
777.5835
776.8792
776.1421
775.3637
774.5358
773.6523
772.7104
771.7114
770.6596
769.5609
768.4207
767.2409
766.0183
764.7417
763.3877
761.9168
760.2694
758.3678
756.1235
753.4525
750.2929
746.6236
742.4813
737.9758
733.3005
728.7331
724.6181
721.3357
719.2631
718.7342
720.0043
723.2266
728.4451
735.5952
744.4849
754.7441
765.7654
776.694
786.5167
794.262
799.2667
801.4118
801.1976
799.5711
785.5745
784.8221
784.4459
783.97
783.5013
783.0079
782.4949
781.9597
781.4022
780.8233
780.2238
779.605
778.9678
778.3117
777.6346
776.9321
776.1979
775.4239
774.6025
773.727
772.7942
771.8043
770.7609
769.6699
768.5369
767.3645
766.1496
764.8804
763.5326
762.0667
760.4251
758.5341
756.3092
753.6687
750.5509
746.933
742.8497
738.4064
733.7875
729.2556
725.1384
721.8038
719.6238
718.9377
720.0175
723.0405
728.0683
735.0311
743.7102
753.7124
764.4454
775.1237
784.843
792.735
798.1731
800.959
801.4056
800.256
798.4426
796.7664
784.7328
783.9391
783.5352
783.0271
782.5211
781.9886
781.4354
780.8601
780.2642
779.6485
779.0138
778.3597
777.6844
776.9839
776.2524
775.4826
774.6669
773.7991
772.8751
771.8945
770.8602
769.7776
768.6522
767.487
766.2791
765.0166
763.6751
762.2151
760.5806
758.7005
756.4943
753.8834
750.8069
747.2411
743.2165
738.8329
734.2661
729.7666
725.6489
722.2691
719.9943
719.1669
720.0694
722.8934
727.7132
734.4633
742.9189
752.6804
763.1687
773.647
783.2879
791.2978
797.08
800.387
801.4017
800.6982
799.0798
797.3472
796.0861
795.5568
783.8445
782.9973
782.5613
782.0135
781.4672
780.8946
780.3024
779.6898
779.0578
778.406
777.7326
777.0342
776.3054
775.5394
774.7292
773.8684
772.9529
771.9816
770.9568
769.8831
768.7658
767.6079
766.4067
765.1505
763.815
762.3614
760.7347
758.8663
756.6788
754.0965
751.0604
747.5455
743.5788
739.2535
734.7365
730.268
726.1511
722.7322
720.3724
719.415
720.149
722.7763
727.3814
733.9059
742.1291
751.6569
761.9267
772.2379
781.8181
789.9281
795.9953
799.7401
801.2525
800.9773
799.6023
797.8793
796.4447
795.7071
795.842
796.8604
782.8972
781.987
781.5158
780.9262
780.3406
779.7298
779.1007
778.4511
777.7799
777.0837
776.3576
775.5953
774.7902
773.936
773.0286
772.0664
771.051
769.9865
768.8776
767.7272
766.5327
765.2825
763.953
762.5059
760.8877
759.0316
756.8629
754.3087
751.3117
747.8462
743.9358
739.6674
735.1991
730.7613
726.6469
723.1933
720.7561
719.6773
720.2501
722.6839
727.0721
733.3653
741.3519
750.6496
760.7154
770.8798
780.4109
788.6092
794.9201
799.0421
800.9961
801.1266
800.023
798.3807
796.8469
795.9067
795.8478
796.8053
798.8459
802.0085
781.8815
780.9034
780.3977
779.7677
779.1445
778.4958
777.8268
777.1327
776.4092
775.6505
774.8502
774.0023
773.1026
772.1492
771.1432
770.0879
768.9877
767.845
766.6572
765.4131
764.0895
762.6491
761.0397
759.1964
757.0468
754.5205
751.5614
748.1437
744.2878
740.0748
735.6545
731.2477
727.1375
723.6531
721.1443
719.9511
720.3689
722.6127
726.7844
732.8446
740.5934
749.6638
759.534
769.5627
779.0509
787.3282
793.853
798.3067
800.6577
801.1704
800.3513
798.8385
797.2715
796.1795
795.9259
796.7192
798.6697
801.8504
806.3183
812.0636
780.7934
779.7473
779.2087
778.5383
777.8747
777.1811
776.4602
775.7047
774.9089
774.067
773.1746
772.2298
771.233
770.187
769.0956
767.9608
766.7798
765.5418
764.2242
762.7906
761.1903
759.3601
757.23
754.7313
751.8093
748.4379
744.6349
740.4758
736.103
731.7276
727.6237
724.1119
721.5364
720.2346
720.5028
722.5606
726.5178
732.3454
739.8569
748.7026
758.3823
768.2812
777.7281
786.0757
792.7915
797.5422
800.254
801.127
800.5964
799.2463
797.6972
796.502
796.0788
796.6967
798.5053
801.581
805.9554
811.6075
818.4224
826.1479
779.6325
778.5185
777.9444
777.227
776.512
775.7578
774.9662
774.1296
773.2442
772.3075
771.3198
770.2831
769.2005
768.0737
766.8997
765.6679
764.3564
762.9297
761.3387
759.5221
757.4115
754.9402
752.0547
748.7285
744.9768
740.8704
736.5442
732.201
728.1052
724.5695
721.9318
720.5265
720.65
722.526
726.2716
731.8685
739.1444
747.7677
757.2602
767.0317
776.4361
784.8452
791.7329
796.7532
799.7968
801.0101
800.7674
799.6019
798.1099
796.8534
796.289
796.7357
798.3837
801.324
805.5757
811.0896
817.7253
825.2193
833.174
841.1137
778.3954
777.2067
776.5868
775.8079
775.0239
774.1904
773.3115
772.3824
771.4032
770.3755
769.3018
768.1831
767.0163
765.7909
764.4855
763.066
761.4844
759.6813
757.5904
755.1464
752.2967
749.0146
745.313
741.258
736.9781
732.6674
728.5816
725.0252
722.3296
720.8255
720.8092
722.5077
726.0452
731.4141
738.4567
746.8599
756.1672
765.8121
775.1709
783.6323
790.6753
795.9424
799.2939
800.8299
800.8717
799.9058
798.5006
797.2183
796.5408
796.8275
798.3066
801.0913
805.2012
810.5724
817.0494
824.3656
832.1319
839.8556
847.005
853.138
777.0688
775.7875
775.1059
774.2479
773.379
772.4549
771.4839
770.4647
769.3995
768.2888
767.1293
765.9104
764.6114
763.1991
761.627
759.8376
757.7661
755.3492
752.5348
749.2958
745.643
741.6385
737.4042
733.1265
729.0525
725.4782
722.7287
721.1304
720.9791
722.5046
725.8378
730.982
737.7942
745.9795
755.1029
764.6207
773.9299
782.4344
789.6176
795.1117
798.7506
800.5939
800.9158
800.1592
798.864
797.5855
796.8217
796.9631
798.2726
800.8886
804.8403
810.0594
816.3819
823.5403
831.1602
838.7751
845.8722
851.9654
856.6878
859.8953
775.628
774.2292
773.4724
772.5238
771.5648
770.5515
769.4946
768.3915
767.2392
766.0268
764.7342
763.3291
761.7666
759.9907
757.9386
755.5483
752.7686
749.5718
745.9669
742.0117
737.8226
733.5782
729.5173
725.928
723.1282
721.4403
721.1587
722.5157
725.6488
730.5719
737.1566
745.1263
754.0668
763.4561
772.7112
781.2497
788.5592
794.263
798.1713
800.3078
800.9045
800.3638
799.1966
797.9468
797.121
797.1338
798.2782
800.7189
804.5001
809.5571
815.7234
822.732
830.2194
837.7416
844.8126
850.9664
855.8298
859.1907
861.0404
861.5851
774.0454
772.5094
771.6739
770.6346
769.5903
768.4924
767.347
766.1408
764.8545
763.4566
761.9036
760.1411
758.1081
755.7439
752.9982
749.8428
746.2847
742.378
738.2335
734.0226
729.9762
726.3741
723.5277
721.7544
721.3471
722.5403
725.4776
730.1834
736.5438
744.3
753.0583
762.3175
771.5134
780.0771
787.5001
793.3976
797.5591
799.9762
800.842
800.5215
799.4962
798.296
797.4304
797.3319
798.3192
800.5827
804.1851
809.0713
815.0774
821.9394
829.3023
836.7391
843.7859
849.9952
854.9997
858.5736
860.6724
861.4393
861.1715
860.2527
772.3048
770.6262
769.7169
768.5897
767.4562
766.2537
764.9736
763.5826
762.0388
760.2894
758.275
755.9364
753.2239
750.1089
746.5967
742.7377
738.6372
734.46
730.4291
726.8166
723.9267
722.0721
721.5437
722.5777
725.3238
729.8163
735.9555
743.5003
752.0768
761.204
770.3359
778.9161
786.4404
792.5172
796.9171
799.6028
800.732
800.6342
799.762
798.629
797.7434
797.5503
798.3907
800.4788
803.898
808.6064
814.4476
821.163
828.4055
835.7618
842.7851
849.0431
854.1744
857.9438
860.2809
861.2911
861.2318
860.4581
859.3499
858.2321
770.407
768.587
767.5994
766.3633
765.0951
763.7081
762.1734
760.4364
758.4401
756.1262
753.446
750.3706
746.9032
743.0909
739.034
734.8907
730.8763
727.2553
724.325
722.393
721.748
722.6277
725.187
729.4703
735.3916
742.727
751.1219
760.1152
769.1779
777.7663
785.3805
791.623
796.2478
799.1909
800.5776
800.7036
799.9934
798.9425
798.0546
797.7835
798.4882
800.4054
803.6397
808.1653
813.837
820.404
827.5276
834.8058
841.8055
848.1066
853.3529
857.3016
859.8612
861.1043
861.2511
860.6252
859.59
858.4818
857.5542
856.9418
768.3509
766.3647
765.254
763.8309
762.3111
760.5834
758.6045
756.3143
753.6654
750.6282
747.2045
743.4381
739.4242
735.3148
731.3179
727.6902
724.7225
722.7169
721.9596
722.6896
725.0669
729.1451
734.8518
741.9798
750.1934
759.0505
768.0392
776.6278
784.321
790.7166
795.5534
798.7433
800.3814
800.7315
800.1903
799.2344
798.3602
798.0267
798.6075
800.3602
803.4101
807.7499
813.2479
819.6637
826.6679
833.8686
840.8438
847.1831
852.5343
856.6487
859.4166
860.8823
861.2327
860.7609
859.8102
858.712
857.732
857.0362
856.6819
856.6335
766.0854
763.8341
762.49
760.7275
758.7723
756.5019
753.8831
750.8827
747.5014
743.7798
739.8083
735.7327
731.754
728.1214
725.1189
723.0433
722.1782
722.7632
724.963
728.8404
734.3358
741.2584
749.291
758.0098
766.9197
775.5007
783.2626
789.7993
794.8361
798.2626
800.1458
800.7194
800.3529
799.503
798.6569
798.2757
798.7451
800.3408
803.209
807.3614
812.6823
818.9435
825.8263
832.9483
839.8971
846.2701
851.7176
855.9859
858.9496
860.6281
861.1786
860.8654
860.0112
858.9398
857.9237
857.1471
856.6919
856.547
856.6359
856.8551
763.4543
760.7319
758.9857
756.6855
754.1036
751.1353
747.7951
744.1167
740.1868
736.1449
732.1849
728.549
725.5141
723.372
722.4033
722.8479
724.875
728.5558
733.8434
740.5627
748.4143
756.9928
765.8191
774.3852
782.2061
788.8725
794.0977
797.7511
799.8731
800.669
800.4815
799.7471
798.9422
798.5272
798.8974
800.3448
803.0353
807.0004
812.1415
818.2449
825.0032
832.0441
838.9637
845.3655
850.9019
855.3138
858.4622
860.3445
861.0909
860.9389
860.1908
859.1608
858.1247
857.2817
856.7357
856.4981
856.5095
856.6714
856.8801
857.0573
760.1747
756.6926
754.3765
751.3814
748.0904
744.4502
740.5609
736.5519
732.611
728.9731
725.9082
723.7029
722.6345
722.9433
724.8023
728.2909
733.3741
739.8922
747.5632
755.9994
764.7376
773.2816
781.1521
787.9374
793.3401
797.2108
799.5653
800.5816
800.5765
799.9659
799.2138
798.7782
799.0614
800.3698
802.8879
806.6669
811.6267
817.5691
824.1995
831.1558
838.0423
844.4679
850.0861
854.6326
857.9559
860.0336
860.9715
860.9823
860.3479
859.3717
858.33
857.4338
856.8061
856.4801
856.4152
856.5241
856.7054
856.8711
856.9664
856.9783
755.8967
751.3938
748.4486
744.7735
740.9359
736.9548
733.0335
729.3942
726.3015
724.0359
722.8718
723.0491
724.7447
728.0453
732.9276
739.2466
746.7374
755.0294
763.6751
772.1903
780.1014
786.9953
792.565
796.6437
799.2242
800.4586
800.6385
800.1588
799.4701
799.0263
799.2344
800.4134
802.7653
806.3607
811.1386
816.9172
823.416
830.2837
837.1326
843.5765
849.2695
853.9423
857.4316
859.6972
860.8223
860.9964
860.4817
859.5699
858.5357
857.5988
856.8986
856.4886
856.3467
856.3988
856.5492
856.708
856.813
856.841
856.8093
856.7664
750.3648
744.7915
741.3884
737.3438
733.458
729.8131
726.6946
724.3712
723.115
723.1651
724.7016
727.8185
732.5034
738.6257
745.9367
754.0827
762.6319
771.1116
779.0547
786.0474
791.7738
796.0515
798.8517
800.3016
800.6681
800.3253
799.7097
799.2692
799.4139
800.4734
802.6659
806.0812
810.6773
816.29
822.6535
829.4281
836.2345
842.6909
848.4518
853.2429
856.8901
859.3365
860.6445
860.9819
860.592
859.7538
858.7388
857.7728
857.0096
856.5206
856.302
856.2938
856.4076
856.554
856.6655
856.711
856.7002
856.6815
856.7317
856.9363
743.6481
737.3614
733.9773
730.216
727.0941
724.7091
723.3648
723.2913
724.673
727.6103
732.1012
738.029
745.1607
753.1593
761.6079
770.046
778.0129
785.0947
790.9682
795.4362
798.4495
800.1116
800.6659
800.4653
799.9315
799.5051
799.5975
800.5476
802.5883
805.8277
810.2429
815.6881
821.9129
828.5898
835.3482
841.811
847.633
852.5349
856.3323
858.9527
860.4394
860.9397
860.6784
859.9217
858.9365
857.9527
857.1356
856.5735
856.2795
856.2084
856.2805
856.4087
856.5222
856.5823
856.5906
856.5883
856.65
856.8732
857.364
858.2119
736.3487
730.2186
727.6028
725.0327
723.6281
723.4275
724.6594
727.4205
731.7209
737.4563
744.4093
752.259
760.6034
768.9939
776.9768
784.1386
790.1495
794.7991
798.019
799.8902
800.6326
800.5788
800.1345
799.7323
799.7835
800.634
802.5307
805.599
809.8353
815.1119
821.1948
827.7694
834.4742
840.9371
846.8131
851.8184
855.7587
858.5469
860.2082
860.8704
860.7408
860.0725
859.1267
858.1354
857.2737
856.6446
856.2777
856.1422
856.1683
856.2729
856.3832
856.4548
856.4811
856.4954
856.5661
856.7874
857.2677
858.1169
859.4305
861.2643
729.6665
724.9993
724.0048
723.556
724.6679
727.2488
731.3629
736.9075
743.6825
751.3819
759.6186
767.9558
775.947
783.18
789.3192
794.142
797.5619
799.6385
800.5691
800.6656
800.318
799.9496
799.9698
800.7309
802.4917
805.3944
809.454
814.5616
820.4998
826.9675
833.613
840.0696
845.9926
851.0941
855.1702
858.1201
859.9519
860.7749
860.7794
860.2054
859.3074
858.3182
857.421
856.7315
856.2948
856.0944
856.0711
856.1471
856.2494
856.3287
856.3712
856.4025
856.4839
856.7047
857.1705
857.9908
859.2654
861.0722
863.4534
866.397
725.2262
723.4664
724.7757
727.0809
731.0339
736.3825
742.981
750.5282
758.6538
766.9322
774.9244
782.22
788.4786
793.4662
797.0796
799.3577
800.476
800.7261
800.4816
800.1557
800.155
800.8363
802.4696
805.2126
809.0986
814.0374
819.8284
826.185
832.7655
839.2091
845.172
850.3623
854.5674
857.6732
859.6715
860.654
860.7944
860.3198
859.4773
858.4992
857.5748
856.8316
856.3289
856.064
855.9888
856.0319
856.1213
856.2044
856.2608
856.3085
856.4019
856.6245
857.0785
857.8715
859.1035
860.8535
863.1686
866.0537
869.4665
873.3142
724.6562
726.9271
730.7672
735.8755
742.3102
749.6983
757.7102
765.9239
773.91
781.2598
787.629
792.7733
796.5735
799.0491
800.3543
800.7605
800.6248
800.3496
800.3376
800.9488
802.4629
805.0525
808.7685
813.539
819.181
825.4223
831.9323
838.3563
844.352
849.6239
853.9511
857.207
859.3678
860.5083
860.7861
860.4154
859.6352
858.6764
857.7331
856.9429
856.3781
856.0497
855.9209
855.9274
855.9995
856.0823
856.15
856.2132
856.3191
856.5454
856.9901
857.7586
858.9505
860.6461
862.8945
865.7041
869.0367
872.8059
876.8835
881.1168
729.0292
735.6724
741.643
748.8999
756.791
764.9322
772.9054
780.3008
786.7721
792.0647
796.0452
798.7139
800.2046
800.769
800.7473
800.5304
800.5163
801.0668
802.4703
804.913
808.4629
813.0664
818.5578
824.6803
831.1143
837.512
843.5334
848.8797
853.3222
856.7224
859.0417
860.3385
860.7549
860.4919
859.7802
858.8484
857.894
857.0634
856.441
856.0507
855.8671
855.8337
855.8843
855.9628
856.0388
856.1161
856.2347
856.4661
856.9037
857.6504
858.8049
860.4486
862.6331
865.3705
868.6273
872.3222
876.3295
880.489
884.6233
888.5707
738.3763
748.6888
755.8044
763.9808
771.9111
779.3459
785.9097
791.3425
795.4963
798.3535
800.0281
800.752
800.8489
800.6975
800.6898
801.1889
802.4902
804.7929
808.1811
812.6192
817.9591
823.9593
830.3121
836.6772
842.7171
848.1304
852.6814
856.2203
858.694
860.1454
860.7009
860.5491
859.9117
859.0139
858.0559
857.1914
856.516
856.0658
855.8269
855.751
855.7763
855.8465
855.9274
856.0169
856.148
856.3857
856.8183
857.5456
858.6653
860.2596
862.3824
865.0499
868.2334
871.8578
875.8034
879.9151
884.0146
887.919
891.4636
894.5364
751.5001
763.8215
770.7822
778.4332
785.0395
790.6105
794.9287
797.9697
799.8259
800.7104
800.9298
800.8503
800.8574
801.3137
802.5213
804.6909
807.9222
812.1971
817.385
823.2598
829.5264
835.8526
841.9039
847.3771
852.0298
855.7016
858.3256
859.9294
860.6247
860.5869
860.0289
859.1719
858.2174
857.3255
856.6018
856.0943
855.8
855.6795
855.6759
855.7338
855.8163
855.9158
856.0587
856.3033
856.7326
857.4429
858.5305
860.0779
862.1415
864.7409
867.8529
871.4081
875.2935
879.3602
883.4351
887.3373
890.8963
893.9704
896.4646
898.3553
766.2184
778.3833
783.989
789.9166
794.3377
797.567
799.5995
800.6452
800.9903
800.9887
801.0182
801.4404
802.5626
804.6061
807.6855
811.7996
816.8352
822.5822
828.7581
835.0392
841.0948
846.6207
851.3683
855.1671
857.9372
859.6914
860.5266
860.6054
860.1315
859.3214
858.3771
857.4642
856.6972
856.1351
855.7859
855.6191
855.5835
855.6255
855.7062
855.8131
855.9665
856.2183
856.6457
857.3413
858.3993
859.9025
861.9091
864.4426
867.4846
870.9717
874.7974
878.819
882.8688
886.7698
890.3525
893.4723
896.0242
897.9537
899.2624
900.0151
779.996
790.0074
793.5557
797.1955
799.3425
800.561
801.0311
801.113
801.1719
801.5683
802.6131
804.5375
807.4702
811.4264
816.31
821.9268
828.0075
834.2376
840.2908
845.8622
850.6979
854.6179
857.5296
859.4318
860.4068
860.6045
860.219
859.4615
858.5339
857.6061
856.8009
856.1874
855.7842
855.57
855.4997
855.5222
855.5975
855.7093
855.8717
856.1304
856.5571
857.2398
858.2706
859.7321
861.6842
864.1539
867.1276
870.5477
874.3139
878.2899
882.3134
886.2113
889.8157
892.9807
895.5974
897.6037
898.9899
899.7965
900.1075
900.0414
790.7446
797.4148
798.922
800.5015
801.0456
801.2271
801.3185
801.6971
802.6722
804.4846
807.2758
811.0771
815.8093
821.2941
827.2756
833.4489
839.4928
845.1025
850.0195
854.0547
857.1038
859.1513
860.2657
860.5842
860.291
859.5916
858.6869
857.7502
856.9117
856.2501
855.7942
855.532
855.4246
855.4244
855.491
855.6047
855.7745
856.0397
856.4662
857.1378
858.1437
859.5659
861.4659
863.8739
866.7809
870.135
873.8422
877.7721
881.768
885.6606
889.2838
892.4912
895.1702
897.253
898.7219
899.6086
899.9878
899.9652
899.6636
899.2062
797.4858
800.7941
800.9524
801.3632
801.4528
801.8298
802.7395
804.4473
807.1022
810.7519
815.3335
820.6846
826.563
832.674
838.702
844.343
849.3343
853.4788
856.6605
858.8506
860.1038
860.5446
860.3472
859.711
858.835
857.8954
857.0286
856.3224
855.8156
855.5049
855.3586
855.3328
855.3874
855.5002
855.6752
855.9461
856.373
857.0347
858.0178
859.4031
861.2534
863.6017
866.4437
869.7329
873.3814
877.2648
881.2318
885.117
888.7564
892.003
894.7413
896.8982
898.4487
899.4165
899.8683
899.9033
899.6395
899.199
898.6938
898.2126
800.6183
801.6492
801.5442
801.9859
802.8128
804.4277
806.9492
810.451
814.8828
820.0989
825.8708
831.9142
837.9197
843.5848
848.6435
852.891
856.2006
858.5304
859.9215
860.4858
860.3874
859.819
858.9774
858.0405
857.1505
856.4035
855.8476
855.4886
855.3018
855.2476
855.2872
855.3961
855.5743
855.8499
856.2772
856.9303
857.8924
859.2432
861.046
863.3368
866.1153
869.3406
872.9307
876.7672
880.7041
884.5799
888.2328
891.5157
894.3103
896.5387
898.1691
899.2177
899.7434
899.8387
899.6172
899.1986
898.6958
898.2034
897.7904
897.4954
801.6945
802.1906
802.8948
804.4358
806.8176
810.1767
814.4583
819.5384
825.2001
831.1708
837.1474
842.8295
847.9486
852.2929
855.7253
858.1915
859.7193
860.408
860.4114
859.9153
859.1133
858.1847
857.2766
856.4926
855.8898
855.4828
855.2544
855.1695
855.191
855.2932
855.4723
855.7512
856.1788
856.8243
857.7671
859.0855
860.8432
863.0785
865.7953
868.9577
872.4897
876.2788
880.1843
884.0487
887.7126
891.0288
893.8768
896.1741
897.8827
899.0113
899.6115
899.7693
899.5933
899.2009
898.7048
898.2018
897.7653
897.4411
897.249
897.185
802.8046
804.5166
806.7173
809.9353
814.0628
819.0053
824.5528
830.4455
836.3867
842.0789
847.2513
851.686
855.236
857.8351
859.4979
860.3115
860.4192
859.9994
859.2421
858.3272
857.4059
856.5888
855.9415
855.4874
855.2164
855.0988
855.0994
855.1921
855.3698
855.6506
856.0781
856.7165
857.6416
858.9296
860.6444
862.8264
865.4831
868.5837
872.058
875.7993
879.6721
883.5232
887.1954
890.542
893.4405
895.8041
897.5889
898.7967
899.4717
899.6937
899.5661
899.2035
898.7182
898.209
897.7526
897.3995
897.1738
897.0768
897.0929
897.1969
805.8148
809.8952
813.6868
818.5093
823.9326
829.7415
835.6402
841.3351
846.5535
851.072
854.7342
857.4623
859.2584
860.1971
860.4111
860.0712
859.3633
858.4672
857.5376
856.6914
856.0023
855.502
855.188
855.0357
855.013
855.0933
855.2672
855.5483
855.9751
856.6069
857.5156
858.7751
860.4492
862.5799
865.1783
868.2183
871.6354
875.3285
879.1675
883.0033
886.6813
890.0553
893.0013
895.4285
897.2876
898.5735
899.3236
899.6109
899.534
899.2045
898.7338
898.2221
897.7493
897.3705
897.1143
896.9861
896.973
897.0504
897.1898
897.365
811.7399
818.3932
823.2936
829.0766
834.9111
840.602
845.8581
850.4532
854.2218
857.0748
859.0018
860.0654
860.3874
860.1307
859.4766
858.6043
857.671
856.7997
856.0715
855.5263
855.169
854.9807
854.9322
854.9976
855.1652
855.4449
855.8702
856.4956
857.3889
858.6218
860.2572
862.3387
864.8805
867.8612
871.2215
874.8661
878.6701
882.4888
886.1702
889.5689
892.5593
895.0475
896.9787
898.3416
899.1665
899.5203
899.4963
899.2027
898.75
898.2392
897.7532
897.3512
897.0665
896.9089
896.8687
896.9237
897.0449
897.2036
897.3758
897.5468
820.4628
828.9518
834.1145
839.9073
845.1665
849.8342
853.7015
856.6747
858.7298
859.9175
860.3488
860.1781
859.582
858.738
857.8058
856.9133
856.1489
855.5602
855.1596
854.9339
854.8575
854.9054
855.0644
855.3408
855.7637
856.3826
857.2615
858.4693
860.068
862.1023
864.5893
867.5119
870.816
874.412
878.1801
881.9799
885.6623
889.0828
892.1149
894.6612
896.6624
898.1008
899.0003
899.4213
899.452
899.1971
898.7654
898.2589
897.7627
897.34
897.0285
896.8423
896.7758
896.8089
896.914
897.0619
897.2266
897.3887
897.5372
897.67
830.8665
839.8389
844.367
849.2508
853.173
856.2669
858.4448
859.7552
860.2963
860.2141
859.6796
858.8683
857.9416
857.0319
856.2342
855.6036
855.1598
854.8957
854.7895
854.8174
854.9654
855.2366
855.6559
856.2682
857.1334
858.3174
859.8813
861.8704
864.3044
867.1702
870.4188
873.966
877.6972
881.4765
885.1576
888.5973
891.6681
894.27
896.3388
897.8513
898.8249
899.3137
899.4007
899.1868
898.7792
898.2799
897.7765
897.3354
896.9987
896.785
896.6923
896.7033
896.7921
896.9296
897.089
897.2491
897.3959
897.5232
897.6315
897.7275
841.2922
849.2792
852.518
855.8908
858.1448
859.5836
860.2319
860.2401
859.77
858.9955
858.0784
857.1553
856.3272
855.6564
855.1699
854.8665
854.7286
854.7343
854.8688
855.1329
855.5473
856.1526
857.0045
858.1661
859.6969
861.6427
864.0254
866.8357
870.0296
873.528
877.2215
880.9787
884.6563
888.1125
891.2193
893.874
896.0083
897.5933
898.6403
899.1973
899.3419
899.1712
898.7904
898.3014
897.7935
897.3364
896.9763
896.7359
896.6172
896.6059
896.6777
896.8043
896.9582
897.117
897.2648
897.3935
897.501
897.5909
897.6698
897.747
850.1274
856.02
857.7278
859.44
860.1533
860.2607
859.8548
859.1206
858.2168
857.2838
856.428
855.7189
855.1901
854.8467
854.6755
854.6567
854.7754
855.0302
855.4383
856.036
856.8751
858.0152
859.5146
861.4189
863.752
866.5083
869.6482
873.0978
876.753
880.4865
884.1586
887.6287
890.7687
893.4736
895.6711
897.327
898.4466
899.072
899.2754
899.1499
898.7984
898.3224
897.8128
897.342
896.9602
896.6942
896.5497
896.5157
896.5699
896.6848
896.8326
896.9899
897.1392
897.2706
897.3805
897.4708
897.5468
897.6155
897.6844
897.761
856.3022
859.6397
859.9908
860.3067
859.9325
859.248
858.3579
857.4184
856.5374
855.7915
855.2209
854.8369
854.6308
854.5854
854.686
854.9295
855.3297
855.919
856.7452
857.8648
859.3341
861.1987
863.484
866.1877
869.2743
872.6753
876.2915
880.0001
883.6645
887.1462
890.3166
893.069
895.3274
897.0525
898.2439
898.9378
899.201
899.1226
898.8027
898.3425
897.8337
897.3515
896.9497
896.659
896.4892
896.4323
896.4682
896.5705
896.7114
896.8666
897.0173
897.1518
897.2651
897.3578
897.4343
897.5007
897.5639
897.6298
897.7035
897.7895
859.5305
860.5261
859.9724
859.3994
858.5022
857.5631
856.6568
855.8756
855.2634
854.8381
854.5957
854.5215
854.6016
854.8315
855.2222
855.8022
856.6153
857.7151
859.1555
860.9819
863.2211
865.8735
868.9079
872.2605
875.8371
879.5195
883.1743
886.665
889.8633
892.6606
894.9776
896.7702
898.0324
898.7947
899.1186
899.0887
898.8029
898.3609
897.8556
897.3643
896.9442
896.63
896.4352
896.3551
896.3721
896.4609
896.5941
896.7465
896.8982
897.0359
897.1531
897.2491
897.3274
897.3936
897.4544
897.5156
897.5817
897.6558
897.74
897.8363
860.2496
859.5875
858.6543
857.7309
856.789
855.975
855.3196
854.8522
854.5714
854.4662
854.5233
854.7373
855.1166
855.6861
856.486
857.5662
858.9789
860.7686
862.9632
865.5656
868.5487
871.8532
875.3898
879.0447
882.6882
886.1857
889.4092
892.2488
894.6219
896.4802
897.8122
898.6427
899.0279
899.0482
898.7984
898.3772
897.8779
897.3797
896.9431
896.6065
896.3872
896.2839
896.2813
896.3558
896.4803
896.6292
896.7814
896.9221
897.0434
897.1433
897.2242
897.2915
897.3513
897.4098
897.4715
897.5396
897.6156
897.6998
897.7922
897.8938
859.3323
857.8538
856.9628
856.0962
855.3945
854.8829
854.5606
854.4217
854.4529
854.6484
855.0142
855.5718
856.3578
857.4188
858.8046
860.5589
862.7102
865.264
868.1966
871.4534
874.9496
878.576
882.2063
885.7083
888.9545
891.8338
894.2609
896.183
897.5836
898.4818
898.9289
899.0007
898.7889
898.3909
897.8999
897.3972
896.946
896.5882
896.345
896.2183
896.1957
896.2549
896.3698
896.5143
896.6663
896.8098
896.9353
897.0394
897.1237
897.1927
897.2527
897.3095
897.3681
897.4321
897.5029
897.581
897.6656
897.7555
897.8502
897.9506
857.7243
856.1457
855.5285
854.9333
854.5701
854.3919
854.3935
854.5671
854.9167
855.4606
856.2317
857.2734
858.6329
860.3529
862.4624
864.9688
867.8518
871.0611
874.5166
878.1134
881.7289
885.2332
888.4996
891.4161
893.8947
895.8788
897.3467
898.3124
898.8217
898.9462
898.7742
898.4015
897.9213
897.4163
896.9522
896.5747
896.3082
896.1582
896.115
896.1582
896.2624
896.4016
896.5528
896.6986
896.8282
896.9368
897.025
897.0965
897.1573
897.2133
897.2697
897.3304
897.3973
897.471
897.5507
897.6351
897.7226
897.8119
897.9028
897.997
856.1608
854.9245
854.6406
854.3794
854.3524
854.4974
854.8273
855.3548
856.1094
857.1311
858.4646
860.1511
862.2199
864.68
867.5144
870.6765
874.0911
877.6573
881.2564
884.7608
888.0449
890.9961
893.5239
895.5679
897.1019
898.1344
898.7062
898.8844
898.7539
898.4087
897.9416
897.4365