/*--------------------------------*- C++ -*----------------------------------*\
| =========                 |                                                 |
| \\      /  F ield         | OpenFOAM: The Open Source CFD Toolbox           |
|  \\    /   O peration     | Version:  2312                                  |
|   \\  /    A nd           | Website:  www.openfoam.com                      |
|    \\/     M anipulation  |                                                 |
\*---------------------------------------------------------------------------*/
FoamFile
{
    version     2.0;
    format      ascii;
    arch        "LSB;label=32;scalar=64";
    class       volScalarField;
    location    "1000";
    object      nut;
}
// * * * * * * * * * * * * * * * * * * * * * * * * * * * * * * * * * * * * * //

dimensions      [0 2 -1 0 0 0 0];

internalField   nonuniform List<scalar> 
12000
(
3.340888e-05
0.0001632893
0.0001627995
0.0001531868
0.0001629057
0.0002270982
0.000240419
0.0001704318
0.0001282285
0.0001547673
0.0003067122
0.0002291386
0.000126081
0.0001200804
0.0002061699
0.0002620285
0.0001522364
0.0001196155
0.0001471242
0.0002053207
0.0001730122
0.0001309074
0.0001341459
0.0001660686
0.0001652588
0.0001380465
0.0001359616
0.0001493876
0.0001474991
0.0001400209
0.0001418409
0.0001407323
0.0001357312
0.000134118
0.0001388952
0.0001469714
0.0001434716
0.0001294056
0.0001208073
0.0001339214
0.000156843
0.0001390279
0.0001149567
0.0001177847
0.0001658893
0.0001798635
0.0001065265
9.226419e-05
0.0001368581
0.0002763102
0.0001582427
7.912226e-05
8.861427e-05
0.0001621466
0.0001775497
8.472891e-05
7.706382e-05
8.369443e-05
8.082736e-05
6.41107e-05
2.113707e-05
0.0002005882
0.0002425887
0.0002896704
0.0002920827
0.0003072513
0.000372198
0.0004139168
0.0004809199
0.0004539089
0.00051915
0.0005913548
0.0006805557
0.0007793524
0.0006840634
0.0008147207
0.0008936595
0.001009449
0.00105739
0.001063877
0.001105938
0.00120873
0.001269099
0.001288375
0.001305402
0.001375356
0.00142918
0.0014466
0.001467262
0.00150092
0.001519065
0.001534837
0.001552643
0.001555697
0.001548215
0.001533733
0.001525084
0.001526858
0.001520303
0.001488861
0.00144358
0.001335983
0.0013988
0.00135529
0.001287059
0.001142794
0.000960112
0.001144037
0.001042302
0.000949812
0.0006511859
0.000708459
0.0007212052
0.0006071275
0.0004860851
0.0003990957
0.0002824277
0.0001781242
0.0001074967
5.664744e-05
3.031962e-05
0.0002675976
0.0003275736
0.0003973096
0.0004860877
0.0005719324
0.0006681591
0.0007734982
0.000898331
0.0009285774
0.0009658329
0.001244663
0.001366238
0.001490391
0.001528274
0.001678666
0.001778518
0.001877655
0.001956973
0.002025629
0.002094364
0.002163309
0.002220539
0.002268634
0.002312335
0.002354509
0.002389788
0.002418191
0.002442216
0.002459733
0.002476835
0.002487401
0.002493721
0.002494564
0.002491938
0.002419964
0.002346613
0.00244044
0.002443684
0.002385699
0.002157656
0.002118927
0.00220037
0.002143947
0.001969137
0.001943247
0.002096883
0.002045439
0.001807128
0.001713273
0.001863002
0.001741792
0.001539184
0.001236166
0.001036807
0.0009278277
0.0007175032
0.0004092344
0.000173718
5.413363e-05
3.128468e-05
0.0002971279
0.0004244535
0.0005244924
0.0006602093
0.000804989
0.0009613714
0.00112656
0.001304611
0.001482596
0.001591118
0.001695505
0.001961554
0.002060807
0.002206355
0.002340519
0.002448036
0.002547993
0.00263874
0.002721708
0.002798124
0.00286775
0.002930744
0.002986611
0.003035977
0.003078918
0.003115274
0.003145082
0.003164073
0.003180522
0.003190749
0.003193036
0.003188504
0.003177499
0.003160124
0.003135974
0.003020396
0.002918093
0.002889539
0.002877237
0.002791264
0.00267851
0.002642051
0.002664181
0.002634141
0.002545738
0.002451744
0.002353147
0.002246603
0.002132729
0.002008321
0.001769088
0.001588795
0.001443798
0.001359936
0.001118615
0.0008385059
0.0005234206
0.0002273438
5.417437e-05
3.22035e-05
0.0003227286
0.0005005342
0.0006394575
0.0008199937
0.001017458
0.001226305
0.001438472
0.00164832
0.001852348
0.002043469
0.002224975
0.002388882
0.002547342
0.002690042
0.002823672
0.002950314
0.003072391
0.003181992
0.00328154
0.003373056
0.003456638
0.003533412
0.003602764
0.003664652
0.00371858
0.003764392
0.003801566
0.003829308
0.003848652
0.003827771
0.003729091
0.00366979
0.003621257
0.003651619
0.003555987
0.003445785
0.003381056
0.00333465
0.003286708
0.003248555
0.003228335
0.003150956
0.003097157
0.003130313
0.003040311
0.002927454
0.002807697
0.002685504
0.002559634
0.002300842
0.002264991
0.002081784
0.001880899
0.001652571
0.0013934
0.00107497
0.0006823806
0.0002783067
5.341585e-05
3.370161e-05
0.0003401476
0.0005635546
0.000741222
0.0009605728
0.00119815
0.001442119
0.001682831
0.00191463
0.002135655
0.002345617
0.002545428
0.002733578
0.002907215
0.003066029
0.003212793
0.003347496
0.003469997
0.003588896
0.003701819
0.00380895
0.003909698
0.004004269
0.004091525
0.00417084
0.004241419
0.004302351
0.004352864
0.004391269
0.004318869
0.004165885
0.0041653
0.004047491
0.003684177
0.003816993
0.004159271
0.003979792
0.003847102
0.003840556
0.003872555
0.003898238
0.003837011
0.003715399
0.003585323
0.00344843
0.003306045
0.003163333
0.003017119
0.002863692
0.002706211
0.002540165
0.002364739
0.002177887
0.001973589
0.00173816
0.001460242
0.001127581
0.0007406344
0.0003207419
5.326114e-05
3.511984e-05
0.0003502379
0.0006220357
0.0008330432
0.001077379
0.001335987
0.001597591
0.001855911
0.002108181
0.002349622
0.002573594
0.002777383
0.002967014
0.003145253
0.003310976
0.003465644
0.003611026
0.003748831
0.00388084
0.004007184
0.00412795
0.004241494
0.00434827
0.00444733
0.00453776
0.004618669
0.004688504
0.004747429
0.00479429
0.004828686
0.004305215
0.004299389
0.00460864
0.004433222
0.004256613
0.004463919
0.00470042
0.004629608
0.004541533
0.004439232
0.004323709
0.004195387
0.004059631
0.003917141
0.003766997
0.003609858
0.003442139
0.003272255
0.003097808
0.002913284
0.002725641
0.00253446
0.002332841
0.002117497
0.001873804
0.001589044
0.001251744
0.0008276546
0.0003579008
5.284057e-05
3.681738e-05
0.0003566486
0.0006617923
0.000899813
0.001157753
0.001431009
0.001708787
0.0019811
0.002240959
0.002485219
0.00271058
0.002922497
0.003118992
0.003303193
0.003476741
0.003640135
0.003794616
0.003941312
0.004080902
0.004213435
0.004338584
0.004455782
0.004564484
0.004664007
0.004753652
0.004832762
0.004900758
0.004957289
0.005002082
0.005035121
0.005056327
0.005064014
0.005060615
0.005044714
0.005016062
0.00497446
0.004920454
0.004853318
0.004771406
0.004677748
0.004572274
0.004454702
0.004318573
0.004161863
0.003988029
0.003805193
0.00361694
0.003424466
0.003233098
0.003047143
0.002857874
0.00266081
0.002449109
0.002218141
0.001956029
0.001650054
0.001285463
0.0008554521
0.0003815933
5.25399e-05
3.841832e-05
0.0003589753
0.0006935356
0.0009548417
0.00122671
0.001509813
0.001792855
0.002067801
0.002329152
0.002575211
0.002804832
0.00302298
0.00322812
0.003421143
0.003603217
0.003774591
0.003935492
0.004086001
0.004226216
0.00435623
0.004476013
0.004585488
0.004684412
0.004772461
0.004849384
0.004915037
0.00496939
0.005012531
0.005044644
0.005066075
0.005077562
0.005079613
0.005074265
0.005062569
0.005045128
0.005021278
0.004989072
0.004946529
0.004891246
0.004815707
0.004717603
0.004596743
0.004455606
0.004300201
0.004135525
0.003960205
0.003775162
0.003581985
0.003382014
0.00317525
0.002964261
0.002748742
0.002523683
0.002283501
0.002015534
0.001705898
0.001336375
0.0008939982
0.000401304
5.226432e-05
3.99614e-05
0.000356467
0.0007119576
0.0009946421
0.001271518
0.001553406
0.001835088
0.002111151
0.002378574
0.002634554
0.002875951
0.003053934
0.003242619
0.003300201
0.00349407
0.003710938
0.003969885
0.004163333
0.004298312
0.004423405
0.004537117
0.004636675
0.004721988
0.004794116
0.004854072
0.004902665
0.004940609
0.004968585
0.004987262
0.004998083
0.005002824
0.005003175
0.005000874
0.0049965
0.004990506
0.004982111
0.004969337
0.004949146
0.00491774
0.004871164
0.004804606
0.004714216
0.004597843
0.004455089
0.004287804
0.004100663
0.003899262
0.003688983
0.003474164
0.003257429
0.003038746
0.002815305
0.002581429
0.002328752
0.002048098
0.001728342
0.001350452
0.0009025519
0.0004116816
5.197502e-05
4.160434e-05
0.0003503876
0.0007166558
0.001020686
0.001303522
0.001585811
0.00186761
0.002143852
0.002391206
0.002484142
0.00254211
0.002559339
0.002527053
0.002631984
0.002754004
0.002888025
0.003025154
0.003167945
0.003334042
0.00354916
0.003846931
0.004254904
0.00472565
0.004779534
0.004819985
0.004848074
0.004865205
0.004873346
0.004874929
0.004872305
0.004867802
0.004863739
0.00486253
0.004865115
0.004872311
0.004883034
0.004894356
0.004901427
0.004897751
0.004875951
0.004829035
0.004751883
0.00464215
0.004500373
0.004330278
0.00413885
0.003933235
0.003719209
0.003501053
0.003281031
0.003059063
0.002832262
0.002596255
0.002235655
0.001933132
0.00168182
0.001352748
0.000907261
0.0004145842
5.18745e-05
4.296801e-05
0.0003436824
0.0007218232
0.001039513
0.001326493
0.00160883
0.001887048
0.002066881
0.002164887
0.002227988
0.002216279
0.002214892
0.002280366
0.002356524
0.00244008
0.00252931
0.0026253
0.002735975
0.002882292
0.003093893
0.00338951
0.003776373
0.004142172
0.004437149
0.004710592
0.004725111
0.004730163
0.004728113
0.00472153
0.004713472
0.004707154
0.004705557
0.004710906
0.004724071
0.004747211
0.004777049
0.004809422
0.004837964
0.004854609
0.004850336
0.004816472
0.004747266
0.004608762
0.004386913
0.00425003
0.00413143
0.003925559
0.003711849
0.003494704
0.003276247
0.003053402
0.002719005
0.002399264
0.00210518
0.00186314
0.001647447
0.001352955
0.0009081813
0.0004161425
5.186584e-05
4.444894e-05
0.0003365577
0.0007157048
0.001045002
0.001345064
0.001626177
0.00182055
0.001941894
0.002011928
0.002040885
0.002060801
0.002095808
0.00215334
0.002212174
0.002279774
0.002355574
0.002443049
0.002553303
0.002708432
0.002925252
0.003194007
0.003468629
0.003739278
0.004103302
0.004538058
0.00455006
0.004553353
0.004550884
0.004546169
0.004542708
0.004544096
0.004553626
0.004573256
0.004601026
0.00464491
0.004692671
0.004741296
0.00478292
0.00480848
0.004648381
0.004290146
0.00407723
0.003962255
0.003889804
0.003832756
0.00377929
0.003705599
0.003578032
0.003380854
0.003125945
0.002837649
0.002539334
0.002244504
0.002009855
0.001823693
0.001626664
0.00134691
0.0009046711
0.0004149875
5.187587e-05
4.588546e-05
0.0003312502
0.0006899653
0.001052808
0.001343163
0.001561224
0.001719344
0.001825502
0.001890688
0.001929801
0.001962109
0.002004216
0.002059391
0.0021231
0.002195647
0.002278221
0.002376336
0.002503137
0.002675749
0.002899558
0.003158678
0.003454053
0.003822843
0.004319446
0.004342299
0.004356187
0.004363783
0.004368534
0.004374074
0.004383722
0.004400766
0.004428328
0.004466697
0.004516903
0.004578092
0.004640424
0.004698156
0.004730437
0.004418541
0.004152502
0.003958748
0.003875886
0.003829368
0.003799046
0.003753581
0.003677122
0.003560916
0.003397116
0.003183687
0.002934592
0.002668972
0.002398607
0.002172367
0.0019888
0.001808642
0.001617167
0.001343835
0.0009024898
0.0004143207
5.188624e-05
4.730071e-05
0.0003263479
0.0006472803
0.0009924125
0.001275071
0.001483602
0.001634529
0.001740323
0.001810548
0.00185981
0.001903995
0.001954813
0.00201551
0.002085765
0.002166229
0.002259464
0.002372117
0.002517976
0.002711987
0.002965153
0.003287207
0.00369525
0.004086458
0.004133051
0.004156622
0.004175187
0.004191427
0.00420863
0.004229844
0.004258045
0.00429568
0.004345123
0.004403675
0.004473026
0.004547907
0.004617372
0.004517979
0.004268554
0.004125092
0.004114748
0.004085905
0.004029764
0.004000497
0.003920647
0.003805324
0.003653618
0.003468531
0.003257322
0.003025669
0.002778145
0.002528214
0.002319135
0.002142423
0.001967153
0.001794202
0.0016063
0.001337705
0.0008974722
0.000411535
5.198927e-05
4.860468e-05
0.0003229708
0.0006114393
0.0009401735
0.001219305
0.001426202
0.001575939
0.001682781
0.001758798
0.001817539
0.001872063
0.001931665
0.002000519
0.002080113
0.002171966
0.00227933
0.002410649
0.002583927
0.002822973
0.003147487
0.003554814
0.003900056
0.003938999
0.003970309
0.003997857
0.004024374
0.004052474
0.00408528
0.004126376
0.00417656
0.004236633
0.004306165
0.004384936
0.004466852
0.004547287
0.004549225
0.004395217
0.004327803
0.004301963
0.004344823
0.004378159
0.00433924
0.004245447
0.004069869
0.003842174
0.003596133
0.003354027
0.003120861
0.00287738
0.002647221
0.002460677
0.002293046
0.002125409
0.001958227
0.001789874
0.001603334
0.001335442
0.0008967799
0.0004108918
5.205337e-05
4.980176e-05
0.0003152863
0.0005823479
0.0008968612
0.00117447
0.001383168
0.001534232
0.001643728
0.001725574
0.001793014
0.001857502
0.001927043
0.002006083
0.002097105
0.002202413
0.002326922
0.002486318
0.002708739
0.003023787
0.003415429
0.003718879
0.003765034
0.003804418
0.00384045
0.00387685
0.0039165
0.003962166
0.004016095
0.004078639
0.004149449
0.004227785
0.004310878
0.004398849
0.004483822
0.004560973
0.004611823
0.004642577
0.004665747
0.004645853
0.004595573
0.004516279
0.004411296
0.004285181
0.004142814
0.003865206
0.003534143
0.003230929
0.002968471
0.0027664
0.002596766
0.002432442
0.002273469
0.002115407
0.001955516
0.001789442
0.001602151
0.001332694
0.0008951166
0.0004099221
5.212524e-05
5.087823e-05
0.0003085539
0.0005584953
0.0008606707
0.001138529
0.001350708
0.001504261
0.001617222
0.001705397
0.001781824
0.001856739
0.001937423
0.002028731
0.002134109
0.002257575
0.002410354
0.002619742
0.002918832
0.003287563
0.003556655
0.003611038
0.003659036
0.003703814
0.003748751
0.003797126
0.003851834
0.003914669
0.003986468
0.004066596
0.004152759
0.004242133
0.0043329
0.004420398
0.004498245
0.004562181
0.004603853
0.004620815
0.00461082
0.004573168
0.004509709
0.004423394
0.00431813
0.004197971
0.004066301
0.003836474
0.003437493
0.003117352
0.002891909
0.002715104
0.002558752
0.002409528
0.002263114
0.002113198
0.001956
0.00179
0.001601649
0.001331769
0.0008942544
0.0004093186
5.219369e-05
5.189702e-05
0.0003034232
0.0005389175
0.0008304908
0.001107908
0.001323951
0.001481524
0.001599771
0.001695622
0.001781916
0.001868372
0.00196247
0.002069939
0.002195584
0.002348273
0.002551751
0.002839284
0.003189496
0.003416664
0.003477719
0.003532311
0.003584336
0.003636442
0.003692167
0.003754587
0.003825228
0.003904501
0.003991537
0.004084009
0.004178246
0.00427065
0.004358801
0.004437697
0.004501685
0.004547606
0.004569661
0.004567535
0.004541206
0.004492126
0.004422954
0.004337127
0.004238042
0.004128509
0.004010125
0.003796705
0.003395072
0.003064711
0.002837822
0.002673694
0.002533563
0.002398965
0.002260802
0.002114302
0.001958251
0.001792102
0.001603098
0.001330189
0.0008928403
0.0004086496
5.228736e-05
5.286035e-05
0.0002999984
0.00052365
0.0008049419
0.001082141
0.001302547
0.001465517
0.00159054
0.001695351
0.001793017
0.00189368
0.002005784
0.00213663
0.002295271
0.00250189
0.002785329
0.003114981
0.003291967
0.003355317
0.003413672
0.003470654
0.003529468
0.003593154
0.003663348
0.003741017
0.003826555
0.003919022
0.004016148
0.004114499
0.004209842
0.004298658
0.004378209
0.004444056
0.004492176
0.004519545
0.004525139
0.00450933
0.004473701
0.004420703
0.004353142
0.004273513
0.004183716
0.004084653
0.003976325
0.003768509
0.003363235
0.003033838
0.002812988
0.002658453
0.002528968
0.002401878
0.002267809
0.002122507
0.001965806
0.001797775
0.001605226
0.001329521
0.0008928566
0.000409139
5.234866e-05
5.380764e-05
0.000297941
0.0005122904
0.0007853597
0.001059397
0.001284047
0.001453926
0.00158745
0.001703048
0.0018148
0.001934226
0.00207234
0.002240985
0.002458102
0.002736435
0.003041965
0.003168958
0.003237248
0.003303046
0.00336741
0.003432882
0.003502225
0.003577594
0.003660221
0.00375024
0.003846615
0.003947138
0.004048597
0.004147087
0.004238454
0.004319554
0.004387859
0.004439956
0.004473328
0.004487024
0.004481469
0.00445812
0.0044191
0.004366749
0.004303202
0.004230059
0.004148103
0.004057344
0.003956924
0.003765307
0.003361908
0.00303077
0.002811931
0.002662031
0.002537186
0.002413075
0.002279602
0.002133088
0.001974471
0.00180454
0.001608447
0.001328877
0.0008934782
0.0004098357
5.240839e-05
5.475878e-05
0.0002977076
0.0005047886
0.0007679789
0.001042127
0.001271196
0.001448759
0.001592812
0.001722322
0.001853197
0.002001573
0.002185777
0.002424646
0.002709405
0.002974702
0.003056961
0.003131568
0.003201769
0.003270668
0.003340879
0.003414782
0.003494298
0.003580584
0.003673807
0.003773027
0.003876208
0.003980365
0.004081874
0.004176872
0.004261698
0.004333837
0.004391016
0.004431653
0.004454425
0.004459641
0.004448536
0.004422892
0.004384688
0.004335712
0.004277263
0.004210018
0.004133944
0.004048334
0.003951915
0.003763665
0.003360704
0.003030264
0.00281396
0.002667573
0.002545847
0.002423165
0.00228938
0.002141663
0.001981494
0.001808741
0.001610823
0.001329283
0.0008942348
0.0004103763
5.247543e-05
5.573313e-05
0.0002991576
0.0005000799
0.0007554145
0.001027569
0.001262853
0.001450799
0.001607647
0.001755371
0.00191705
0.002118137
0.002380271
0.002675267
0.002863423
0.002950279
0.003029806
0.003104664
0.003177668
0.003251604
0.003328939
0.003411573
0.00350065
0.003596391
0.003697977
0.003803541
0.003910332
0.004015001
0.004113973
0.004203908
0.004281702
0.004344856
0.004393603
0.004426144
0.004442481
0.004443519
0.004430675
0.004405544
0.004369633
0.00432409
0.004269506
0.004205922
0.004132829
0.004049253
0.003953863
0.003752058
0.003353747
0.003029924
0.002818752
0.002675832
0.002556052
0.002433756
0.002299177
0.002150309
0.001988176
0.001813068
0.001613461
0.001329933
0.0008954096
0.0004114267
5.251962e-05
5.670721e-05
0.0003014036
0.0004978317
0.0007485998
0.00101818
0.001257767
0.001455553
0.001629366
0.001808158
0.002022918
0.00229552
0.002596459
0.002756316
0.002848748
0.002933151
0.003012369
0.003089303
0.0031668
0.003247288
0.00333261
0.003423912
0.003521494
0.003624701
0.003731921
0.003840726
0.003948113
0.0040508
0.004145863
0.004229941
0.004301108
0.004357951
0.004400348
0.00442772
0.004440547
0.004439857
0.004426903
0.004402905
0.004368882
0.004325482
0.004272851
0.004210653
0.004138179
0.004054449
0.003958246
0.003731946
0.00334114
0.00302817
0.002823814
0.002684035
0.002565179
0.002442523
0.00230726
0.002156541
0.00199215
0.00181609
0.001615192
0.001330029
0.0008958867
0.0004120732
5.257011e-05
5.77193e-05
0.000304984
0.0004986733
0.0007447622
0.001012572
0.001257756
0.001470154
0.001672066
0.001899221
0.002178446
0.002485228
0.002649484
0.002749422
0.002840002
0.002924397
0.003005762
0.003086946
0.003170356
0.003257908
0.003350845
0.003449638
0.003553876
0.003662264
0.003772719
0.003882575
0.003988852
0.004088558
0.004179116
0.004258034
0.004323085
0.004375131
0.004413138
0.004437177
0.004447908
0.004446277
0.004433276
0.004409774
0.004376439
0.00433364
0.004281255
0.004218733
0.00414534
0.004060214
0.00396231
0.003706194
0.003325789
0.003026795
0.002830196
0.002692948
0.002573989
0.002450298
0.002313812
0.002161347
0.001996066
0.001818847
0.001616642
0.001330347
0.0008965761
0.0004126803
5.262437e-05
5.878967e-05
0.0003098502
0.0005013216
0.0007436068
0.001012173
0.001264941
0.001496676
0.001736338
0.00201908
0.002334452
0.002537266
0.002647742
0.00274676
0.00283803
0.002924973
0.003010572
0.003097345
0.003187326
0.003281978
0.003381976
0.003487154
0.003596517
0.003708317
0.003820218
0.003929526
0.004033456
0.004129737
0.004215534
0.004289095
0.004349857
0.004397466
0.004431771
0.004452987
0.004461754
0.004458852
0.004445031
0.004420898
0.004386968
0.004343491
0.004290124
0.004226204
0.004151058
0.004063989
0.003964114
0.003680217
0.003311801
0.003027194
0.002837718
0.002701931
0.002582067
0.002457222
0.00231852
0.002165203
0.001999063
0.001820764
0.001617407
0.001330235
0.0008968161
0.0004130496
5.266142e-05
5.990403e-05
0.0003165163
0.0005072288
0.0007469979
0.001013986
0.001276377
0.001535512
0.001820767
0.002137795
0.002420352
0.002543348
0.00265264
0.002752406
0.002846314
0.002937437
0.003028435
0.003121498
0.003218246
0.003319623
0.003425774
0.003536002
0.003648891
0.00376244
0.003874255
0.003981786
0.004082559
0.004174471
0.004255581
0.004323844
0.004380138
0.00442357
0.004454225
0.004472391
0.00447865
0.004473641
0.004457941
0.004432057
0.004396501
0.004351431
0.004296329
0.004230455
0.004153237
0.004064234
0.003962486
0.003659388
0.003303023
0.003030846
0.002846642
0.002711052
0.002589783
0.00246238
0.00232238
0.002168219
0.00200129
0.001822
0.001617604
0.001329962
0.0008967863
0.0004130897
5.272337e-05
6.100926e-05
0.0003240247
0.0005142678
0.0007499765
0.001018671
0.001303045
0.001595857
0.001909267
0.002223732
0.002430356
0.002553627
0.002664517
0.002767354
0.002865619
0.002962175
0.003059405
0.003159121
0.003262483
0.003369941
0.003481176
0.003595088
0.00370999
0.003823773
0.003934109
0.004038654
0.004135632
0.004222566
0.004298349
0.004361812
0.004413032
0.0044518
0.004478238
0.004492637
0.004495509
0.004487384
0.004468738
0.004440143
0.004402227
0.004355008
0.004297776
0.004229743
0.004150127
0.004058682
0.003955206
0.003647162
0.003302128
0.003038568
0.002857117
0.002720593
0.002596373
0.002466863
0.002325714
0.002170943
0.002003329
0.001822985
0.0016175
0.0013296
0.0008966991
0.0004132034
5.276607e-05
6.21396e-05
0.0003319738
0.0005230111
0.0007623538
0.001040373
0.001329535
0.001637461
0.00195705
0.002271642
0.002445401
0.002571298
0.002685996
0.00279361
0.002897491
0.003000314
0.003104147
0.003210404
0.003319801
0.003432353
0.00354737
0.003663478
0.003778868
0.003891467
0.003999123
0.004099785
0.00419181
0.004273431
0.004342673
0.004400744
0.004446499
0.004480031
0.004501533
0.004511312
0.004509843
0.004497597
0.004475086
0.004443095
0.004402339
0.004352659
0.004293046
0.004222583
0.00414106
0.004048298
0.003943814
0.003644499
0.003309787
0.003051298
0.00286941
0.002729567
0.002602104
0.002470483
0.002328344
0.002173067
0.002004762
0.001823351
0.00161687
0.00132891
0.000896072
0.0004127895
5.282942e-05
6.328936e-05
0.0003414566
0.0005342336
0.000773572
0.001057514
0.001357617
0.001663161
0.001999246
0.002321442
0.002467303
0.002597981
0.00271826
0.002832063
0.002942537
0.003052085
0.003162445
0.00327467
0.003389117
0.003505482
0.003622808
0.003739577
0.003853957
0.003963975
0.004067669
0.004163812
0.004249885
0.004325173
0.004388277
0.004439843
0.004479278
0.004506721
0.004522395
0.004526617
0.004519844
0.004502531
0.004475371
0.004439512
0.004395723
0.004343582
0.004282041
0.004209989
0.004127046
0.004033352
0.003929092
0.003652689
0.003327
0.003068691
0.002882819
0.002738258
0.002607245
0.002473691
0.002330844
0.0021752
0.002006193
0.001823657
0.001616173
0.001328349
0.0008955557
0.0004125259
5.289052e-05
6.446927e-05
0.0003523337
0.0005470427
0.0007845983
0.001068993
0.001382771
0.001714387
0.002036713
0.002308312
0.00250024
0.002636927
0.002763673
0.002884233
0.003001552
0.003117659
0.003233929
0.003351117
0.003469325
0.003588049
0.00370617
0.003822135
0.003934169
0.004040439
0.004139207
0.004229403
0.004308928
0.004376973
0.004433291
0.004477641
0.004509968
0.004530473
0.004539421
0.004537156
0.004524152
0.004500953
0.004468626
0.00442875
0.00438206
0.004327854
0.004264824
0.004191704
0.004108103
0.00401434
0.00391074
0.003669369
0.003351556
0.003089272
0.002896674
0.002746342
0.002611702
0.002476487
0.002333151
0.002177176
0.002007436
0.001823814
0.001615418
0.001327582
0.0008946439
0.0004119153
5.296007e-05
6.560771e-05
0.0003635624
0.0005609395
0.0007996958
0.0010895
0.001408993
0.001731664
0.002031358
0.002281747
0.002473505
0.002620643
0.002750888
0.002890695
0.003067318
0.003193954
0.003315341
0.003436674
0.003557711
0.003677748
0.003795535
0.003909536
0.004018097
0.004119579
0.004212484
0.004295929
0.004368218
0.004427934
0.004476539
0.004513003
0.004537448
0.004550169
0.004551505
0.004541859
0.004521751
0.004491963
0.004454184
0.004410395
0.004361099
0.00430531
0.004241542
0.004168291
0.004084767
0.003991484
0.00388895
0.003691806
0.003381424
0.003112791
0.002911522
0.002754464
0.002615951
0.002479108
0.002335344
0.002179078
0.002008683
0.001824086
0.001614835
0.001326987
0.0008938075
0.0004113276
5.304179e-05
6.674939e-05
0.0003753946
0.0005754332
0.0008151194
0.001106824
0.001426558
0.001741501
0.002020515
0.002245688
0.00241718
0.002548603
0.002663339
0.002786527
0.002959471
0.0031989
0.003405668
0.003530036
0.003652812
0.003773044
0.003889398
0.004000393
0.004104508
0.004200296
0.004286471
0.004362328
0.004426445
0.004477873
0.004517689
0.004545307
0.004560941
0.004564974
0.004557827
0.004539986
0.004512024
0.004475293
0.00443209
0.004384671
0.004333268
0.00427658
0.004212789
0.004140128
0.004057463
0.003965228
0.003864448
0.003715797
0.003413755
0.003138394
0.0029272
0.002762491
0.002619749
0.002481239
0.002337152
0.002180786
0.002009984
0.001824624
0.001614578
0.001326427
0.0008928648
0.0004106579
5.31262e-05
6.787198e-05
0.0003880395
0.0005908671
0.0008304012
0.001121069
0.001435845
0.001737104
0.001994745
0.002197032
0.002349403
0.00246842
0.00257648
0.002702612
0.002867922
0.003088806
0.003375699
0.003630185
0.003753428
0.003872664
0.003986582
0.004093709
0.00419259
0.004281918
0.004360592
0.004428094
0.004483207
0.00452553
0.004555678
0.004573543
0.004579476
0.004573982
0.004557601
0.004530974
0.004494717
0.004450687
0.004402465
0.004352089
0.004299212
0.004242255
0.00417917
0.004107864
0.004026905
0.003936578
0.003838227
0.003732063
0.003446349
0.003166162
0.002944078
0.002770355
0.002622544
0.002482146
0.00233802
0.002182067
0.002011305
0.001825426
0.001614625
0.00132604
0.0008919268
0.0004099008
5.322842e-05
6.897789e-05
0.0004014851
0.0006058767
0.0008444729
0.001131637
0.001438456
0.001725254
0.001964141
0.002148432
0.002286542
0.002393719
0.002492472
0.002619131
0.002782824
0.002991448
0.003286363
0.003654821
0.003858255
0.003975324
0.004085461
0.004187519
0.004280157
0.004362218
0.004432765
0.004491474
0.004536216
0.004568981
0.00458897
0.004596555
0.004592243
0.004576699
0.004550764
0.004514591
0.004469618
0.004418907
0.004366431
0.004313755
0.004260016
0.004203442
0.0041418
0.004072693
0.003994298
0.003906673
0.003811407
0.003708957
0.003477544
0.003196803
0.00296121
0.002777063
0.00262436
0.002482814
0.00233926
0.002183969
0.002013247
0.001826784
0.001615169
0.001325967
0.0008911885
0.0004092247
5.333448e-05
7.00163e-05
0.0004153302
0.000620459
0.0008575113
0.001139811
0.001436909
0.001708688
0.001930044
0.002098667
0.002226616
0.002330278
0.002427204
0.002548209
0.002700119
0.002897277
0.003189987
0.003587698
0.003963913
0.004079825
0.004187098
0.004284313
0.004370438
0.00444456
0.004505976
0.004554613
0.004588555
0.004610133
0.004618773
0.004614933
0.004599576
0.004573099
0.004536286
0.004490527
0.004437404
0.00438083
0.004324982
0.004270748
0.004216918
0.004161511
0.004102082
0.004035954
0.003960926
0.003876766
0.003785221
0.003686977
0.003506848
0.003225938
0.002977764
0.002783684
0.002626133
0.002483393
0.002340512
0.002186135
0.002015719
0.001828829
0.001616359
0.001326136
0.0008904826
0.0004083179
5.345646e-05
7.101562e-05
0.0004289625
0.0006350106
0.0008697014
0.001146275
0.001433038
0.001690553
0.001896828
0.002052943
0.002172978
0.002273769
0.002372634
0.002487673
0.002631845
0.002825765
0.003115267
0.003531967
0.004016022
0.004187686
0.004290799
0.004382085
0.004460634
0.004525724
0.004576887
0.004614364
0.004636724
0.004646056
0.004642472
0.004626699
0.004599203
0.004561586
0.004514863
0.004460084
0.004399525
0.004338003
0.004279579
0.004224576
0.004171443
0.004117968
0.004061477
0.003999018
0.003928028
0.003847964
0.003760651
0.003666935
0.003531349
0.003251193
0.002992369
0.002789408
0.002627738
0.002484532
0.002342876
0.002189585
0.002019299
0.001831687
0.001618155
0.001326809
0.0008902325
0.0004077162
5.358598e-05
7.195777e-05
0.0004431297
0.0006495497
0.0008806631
0.001150474
0.001426654
0.001671038
0.001864608
0.00201105
0.002125622
0.002225259
0.002325748
0.002439485
0.00258032
0.002771987
0.003058981
0.003474149
0.003980883
0.004296037
0.004394712
0.004479363
0.004549374
0.004604331
0.004644091
0.004669312
0.004679104
0.004675607
0.004658892
0.004630085
0.004590842
0.004542474
0.00448621
0.00442322
0.004356391
0.004291194
0.004231315
0.004176541
0.004125011
0.00407427
0.004021405
0.003963195
0.003896747
0.003821242
0.003738532
0.003649516
0.003550185
0.003271693
0.003005141
0.002794934
0.002629796
0.002486464
0.002346147
0.002193861
0.002023566
0.001835156
0.001620502
0.001327783
0.0008901454
0.0004075068
5.372709e-05
7.283388e-05
0.0004569959
0.0006636873
0.0008910533
0.001153866
0.001419858
0.001652746
0.001836347
0.001976239
0.002087737
0.002186099
0.002284573
0.002404363
0.00255212
0.002741247
0.00301389
0.003409226
0.003926513
0.004403032
0.004496854
0.004574133
0.004634685
0.00467854
0.004706022
0.004716587
0.004713325
0.004695672
0.004665575
0.004624458
0.004573897
0.0045155
0.004450687
0.004380746
0.004309092
0.004241611
0.004181491
0.004128023
0.004079035
0.004031812
0.003983193
0.003929687
0.003868112
0.003797444
0.003719547
0.003635258
0.003542669
0.003287159
0.00301719
0.00280027
0.002632405
0.00248971
0.002351017
0.002199597
0.002028988
0.00183951
0.001623565
0.001329316
0.0008904216
0.0004072676
5.387222e-05
7.362881e-05
0.0004710404
0.0006775314
0.0009011046
0.001157575
0.001414912
0.001638788
0.001815558
0.001952074
0.002063064
0.002161782
0.002259817
0.002382039
0.002537101
0.002735394
0.003004956
0.00337672
0.003877244
0.004428546
0.00459493
0.00466373
0.004713635
0.004745197
0.004759331
0.004755572
0.004737571
0.004706072
0.004662868
0.00460975
0.004548576
0.004481189
0.004409145
0.004333792
0.004258931
0.004190628
0.004131527
0.004080453
0.004034907
0.00399191
0.003948051
0.003899582
0.003843074
0.003777378
0.003704368
0.003624737
0.00353635
0.003299066
0.003026657
0.002805359
0.002636344
0.002494803
0.002357536
0.002206538
0.002035251
0.001844548
0.001627282
0.001331273
0.0008910138
0.0004072978
5.402662e-05
7.436228e-05
0.0004845608
0.0006912562
0.0009113326
0.001161616
0.001411002
0.001627345
0.001799108
0.001934191
0.002047701
0.002153273
0.002261646
0.002381728
0.002536622
0.002737834
0.002993716
0.003342658