/*--------------------------------*- C++ -*----------------------------------*\
| =========                 |                                                 |
| \\      /  F ield         | OpenFOAM: The Open Source CFD Toolbox           |
|  \\    /   O peration     | Version:  2312                                  |
|   \\  /    A nd           | Website:  www.openfoam.com                      |
|    \\/     M anipulation  |                                                 |
\*---------------------------------------------------------------------------*/
FoamFile
{
    version     2.0;
    format      ascii;
    arch        "LSB;label=32;scalar=64";
    class       volScalarField;
    location    "1000";
    object      omega;
}
// * * * * * * * * * * * * * * * * * * * * * * * * * * * * * * * * * * * * * //

dimensions      [0 0 -1 0 0 0 0];

internalField   nonuniform List<scalar> 
12000
(
47.59604
16.80506
17.97852
19.22294
20.09346
20.86968
21.56007
22.20495
22.69731
23.08529
23.46974
23.85948
24.1992
24.41437
24.6262
24.85326
25.0624
25.2025
25.29968
25.40032
25.50668
25.58586
25.61616
25.64283
25.66803
25.67567
25.66758
25.63184
25.60884
25.55542
25.50216
25.43096
25.35597
25.26201
25.13153
24.9653
24.84705
24.77481
24.67039
24.46052
24.15807
24.03528
23.97517
23.74046
23.29982
23.05157
22.91277
22.86687
22.22587
21.5055
21.23076
21.16304
20.96018
19.66933
19.01109
18.67215
17.88065
17.14358
16.3314
39.75705
83.21409
19.22635
18.35045
19.21514
19.66698
19.53236
18.86885
18.63275
18.30762
17.73208
17.09031
16.55414
15.90387
15.11764
14.95435
14.58355
14.044
13.23707
13.02361
12.95275
12.68465
12.12214
11.89064
11.81745
11.76705
11.4612
11.26114
11.25348
11.21878
11.12909
11.10375
11.09713
11.09497
11.16307
11.29008
11.44014
11.54366
11.56265
11.63038
11.88266
12.21876
12.39538
12.44246
12.74895
13.35995
13.94461
14.05237
14.20351
15.25584
16.3938
17.2545
17.24436
18.32664
20.72511
22.80482
24.63816
28.60696
36.7162
51.44743
74.11182
86.12582
19.47456
17.84552
17.71301
16.8141
15.94549
15.03409
14.32559
13.5834
12.7576
11.88732
11.16842
10.64519
10.19284
9.820915
9.417601
9.06793
8.811594
8.631292
8.445374
8.252559
8.103082
8.014661
7.942075
7.863169
7.798106
7.768625
7.757154
7.746751
7.742615
7.750222
7.780127
7.809939
7.859617
7.916839
7.977836
8.033592
8.091949
8.174562
8.285513
8.400016
8.500921
8.614644
8.763588
8.930712
9.101764
9.305355
9.592272
9.906776
10.2572
10.70062
11.29651
12.0209
12.96019
14.17897
15.89366
18.71779
24.57052
41.36537
79.64362
88.72969
19.09205
16.34487
15.74355
14.64179
13.54503
12.50648
11.5997
10.83715
10.09113
9.436874
8.838879
8.356955
7.989914
7.636469
7.3335
7.085631
6.884704
6.714766
6.563054
6.432313
6.327904
6.241166
6.170523
6.111995
6.068581
6.040387
6.023624
6.014945
6.013425
6.032167
6.058025
6.094648
6.143908
6.205681
6.282065
6.371899
6.473977
6.587004
6.717061
6.869051
7.042771
7.23282
7.4433
7.687812
7.978255
8.298943
8.659579
9.083149
9.565905
10.12979
10.76427
11.43387
12.27102
13.32523
14.96832
17.69922
22.84848
36.83337
83.88667
91.163
18.57196
14.99379
14.16716
13.01384
11.90386
10.89075
9.99849
9.224195
8.548951
7.95955
7.487153
7.071671
6.698871
6.381787
6.109737
5.882062
5.690374
5.526457
5.384081
5.2608
5.153623
5.061931
4.987472
4.923732
4.872515
4.833041
4.802534
4.780707
4.767352
4.76557
4.771316
4.788362
4.817354
4.856764
4.913355
4.989609
5.081586
5.190709
5.319147
5.468381
5.640998
5.840502
6.064592
6.311377
6.587955
6.909258
7.273893
7.68876
8.173288
8.707102
9.265108
9.965032
10.84734
11.98704
13.42467
15.62692
20.14465
33.39323
86.30595
93.46947
18.30335
13.95291
12.95438
11.81567
10.73774
9.768598
8.919199
8.182545
7.54571
6.99905
6.534462
6.14505
5.80667
5.50963
5.255082
5.036743
4.848712
4.685526
4.544017
4.421981
4.316701
4.226301
4.148361
4.08114
4.023712
3.975345
3.935223
3.902983
3.878823
3.863363
3.857806
3.861709
3.882455
3.912091
3.954973
4.02338
4.11645
4.230828
4.368051
4.531254
4.723996
4.950314
5.213807
5.517266
5.859527
6.246243
6.690128
7.194021
7.734674
8.337274
9.041052
9.841109
10.7507
11.83142
13.24781
15.42471
19.46622
31.13922
88.07543
95.53364
18.37001
13.10744
11.95663
10.85631
9.832394
8.919214
8.119994
7.426734
6.828722
6.315911
5.874533
5.500279
5.174252
4.88695
4.640335
4.427222
4.243205
4.084335
3.947447
3.829627
3.72808
3.640334
3.564366
3.49841
3.441259
3.392049
3.350109
3.315211
3.287668
3.267146
3.252943
3.249958
3.261834
3.290857
3.333559
3.391405
3.470456
3.575254
3.70778
3.87108
4.068823
4.305382
4.585096
4.911582
5.28729
5.717942
6.20104
6.741969
7.370565
8.07551
8.846148
9.681576
10.6084
11.68031
13.01288
14.87628
18.61214
29.63807
89.21929
97.52099
18.58045
12.55341
11.20311
10.14326
9.1782
8.318079
7.564769
6.910898
6.34509
5.856484
5.430704
5.063562
4.744319
4.46676
4.224764
4.015369
3.835093
3.68044
3.548125
3.435033
3.338269
3.255205
3.183622
3.121703
3.068046
3.021679
2.982006
2.948837
2.922534
2.902546
2.892068
2.891501
2.902183
2.926916
2.968131
3.0276
3.108102
3.213897
3.349079
3.517587
3.723305
3.97114
4.269118
4.624908
5.040703
5.519663
6.067134
6.6768
7.332974
8.047847
8.827081
9.674915
10.61079
11.66924
12.95947
14.83179
18.31345
28.43023
89.82056
99.20836
18.95423
12.1515
10.60607
9.565212
8.654543
7.848895
7.144012
6.529955
5.995442
5.527341
5.1221
4.768148
4.461704
4.197329
3.967137
3.767594
3.595732
3.448556
3.322972
3.215968
3.124731
3.046709
2.979729
2.922068
2.872521
2.830419
2.795449
2.76743
2.746261
2.73268
2.72756
2.731127
2.745235
2.771697
2.813127
2.873126
2.955495
3.064505
3.205095
3.382913
3.604313
3.874769
4.195764
4.568264
4.999333
5.494252
6.056274
6.687639
7.392214
8.165476
8.999759
9.886674
10.81769
11.81899
13.01892
14.75838
18.05344
27.74544
90.31796
100.7875
19.6444
11.95967
10.16162
9.124065
8.269446
7.524376
6.869447
6.292289
5.785215
5.344081
4.963878
4.63604
4.350951
4.09968
3.882568
3.696133
3.536113
3.397688
3.277832
3.174332
3.085118
3.008237
2.941995
2.885182
2.837089
2.797175
2.765018
2.740891
2.724267
2.714533
2.711898
2.716938
2.731432
2.757353
2.797729
2.856276
2.937409
3.046102
3.187713
3.368166
3.593534
3.869888
4.203657
4.600774
5.065235
5.599653
6.205316
6.880018
7.617802
8.409427
9.244953
10.11399
11.02012
11.99288
13.12517
14.75961
17.94503
27.13469
90.38943
102.1277
20.49593
11.97967
9.893516
8.834273
8.018337
7.315286
6.701623
6.174102
5.72022
5.323008
4.967247
4.646431
4.363318
4.117389
3.905913
3.724972
3.569917
3.436103
3.320052
3.21976
3.134669
3.064274
3.005309
2.955897
2.914874
2.881028
2.854467
2.834123
2.819092
2.80931
2.805212
2.807582
2.818871
2.841798
2.880115
2.938358
3.021823
3.13644
3.288205
3.483477
3.729876
4.033562
4.399573
4.832142
5.331557
5.896573
6.525753
7.216036
7.962216
8.756218
9.587599
10.44342
11.31964
12.22381
13.2587
14.8103
17.93324
27.0425
90.55455
103.2742
21.52727
12.10554
9.7414
8.631963
7.839877
7.187805
6.634331
6.158852
5.728475
5.356407
5.033313
4.747245
4.489193
4.263115
4.067681
3.899858
3.754848
3.627356
3.513687
3.413197
3.327423
3.257441
3.201008
3.153785
3.112144
3.077154
3.048659
3.024671
3.004976
2.98969
2.979608
2.976529
2.981811
3.00057
3.036547
3.094434
3.179457
3.297766
3.456302
3.662606
3.92334
4.245045
4.636018
5.097533
5.619689
6.199776
6.839649
7.534667
8.276716
9.053014
9.857022
10.67367
11.47967
12.2975
13.28233
14.81575
17.92468
26.94658
90.55987
104.3294
22.63294
12.40439
9.742132
8.517812
7.738437
7.138508
6.636032
6.18496
5.806693
5.475511
5.18386
4.924779
4.696098
4.496454
4.324112
4.175383
4.044699
3.926362
3.817637
3.719551
3.633544
3.558442
3.491741
3.432215
3.382455
3.340483
3.302732
3.268526
3.237898
3.211429
3.190458
3.177467
3.175935
3.186811
3.219045
3.275577
3.361269
3.480525
3.641093
3.856517
4.137471
4.48482
4.898525
5.376152
5.91251
6.502417
7.142325
7.830966
8.565137
9.334373
10.11793
10.88996
11.62806
12.3791
13.32887
14.85902
17.95805
26.93954
90.6426
105.3272
23.76193
12.78245
9.787846
8.516036
7.731773
7.142189
6.664445
6.269057
5.9326
5.641807
5.386683
5.16141
4.964047
4.792832
4.645086
4.516036
4.399191
4.288859
4.183002
4.082244
3.986814
3.896491
3.813044
3.739623
3.676321
3.618451
3.563709
3.512211
3.464941
3.423234
3.388815
3.364777
3.355372
3.362664
3.393796
3.451213
3.538414
3.663014
3.8375
4.069641
4.361815
4.714938
5.129318
5.60489
6.141228
6.736325
7.386075
8.083414
8.81538
9.56095
10.29435
10.9884
11.65823
12.38495
13.33401
14.86505
17.97329
26.94629
90.65603
106.2529
24.9489
13.25278
9.945426
8.552822
7.747542
7.184518
6.744022
6.38666
6.089961
5.838402
5.620927
5.431291
5.266472
5.123777
4.999176
4.886423
4.777791
4.667052
4.552086
4.434634
4.319664
4.212974
4.113085
4.021225
3.937593
3.857851
3.781648
3.709873
3.644547
3.587848
3.541842
3.509557
3.495682
3.502355
3.534762
3.595508
3.691002
3.828834
4.012199
4.245646
4.535195
4.883872
5.295458
5.773622
6.318904
6.927743
7.590877
8.293305
9.014618
9.729072
10.40696
11.0455
11.68125
12.39844
13.35059
14.89794
18.03956
27.09339
90.74735
107.086
26.14946
13.79633
10.16464
8.649886
7.815318
7.260211
6.847699
6.525059
6.265376
6.051095
5.870047
5.714648
5.580127
5.462027
5.354349
5.248654
5.135405
5.008697
4.870543
4.730492
4.598093
4.473633
4.35268
4.237898
4.130384
4.02723
3.929562
3.838802
3.758251
3.690279
3.637243
3.602006
3.587498
3.595217
3.630442
3.69615
3.798097
3.941528
4.129855
4.366793
4.657788
5.008165
5.424095
5.91136
6.471007
7.095211
7.766499
8.463033
9.157839
9.821163
10.44666
11.05369
11.68176
12.39399
13.3521
14.90271
18.04636
27.12974
90.83629
107.8652
27.28288
14.38752
10.44038
8.795426
7.919225
7.363688
6.971544
6.678385
6.451603
6.270869
6.122293
5.9964
5.886074
5.784188
5.681619
5.566843
5.430623
5.274242
5.110788
4.952972
4.802225
4.655348
4.510419
4.370989
4.238927
4.112598
3.993854
3.887415
3.796643
3.722692
3.666462
3.630075
3.616417
3.626595
3.666563
3.739418
3.848985
3.999142
4.195879
4.444184
4.74837
5.111903
5.536373
6.02801
6.593962
7.225912
7.898229
8.575053
9.230266
9.852996
10.45382
11.04708
11.66655
12.38488
13.35267
14.92123
18.08023
27.17142
90.94878
108.5956
28.31995
14.99604
10.75498
8.975413
8.05022
7.487932
7.110223
6.841241
6.642272
6.489667
6.367163
6.262625
6.165628
6.065196
5.948482
5.804052
5.632002
5.447617
5.265853
5.089098
4.915257
4.744341
4.577112
4.415666
4.262394
4.119454
3.989237
3.874507
3.778235
3.7016
3.644714
3.609278
3.598189
3.613115
3.660126
3.742206
3.863703
4.029354
4.243012
4.508185
4.82758
5.202614
5.633618
6.124571
6.687358
7.315923
7.971532
8.621416
9.248973
9.855641
10.4415
11.02802
11.65108
12.37771
13.35491
14.9309
18.0979
27.21605
91.04825
109.3257
29.32001
15.63046
11.10549
9.18892
8.208423
7.632742
7.262964
7.011886
6.83427
6.702277
6.596057
6.499618
6.398338
6.277288
6.123574
5.93668
5.733601
5.529992
5.328575
5.128817
4.932046
4.740046
4.553833
4.375424
4.207947
4.054205
3.916785
3.798065
3.700173
3.623848
3.569339
3.538774
3.535407
3.561454
3.622476
3.72115
3.861131
4.045725
4.277586
4.558365
4.888659
5.268101
5.69633
6.177885
6.726639
7.340493
7.986191
8.626171
9.241648
9.833123
10.41332
11.00274
11.63439
12.37236
13.36072
14.94853
18.12727
27.27521
91.17592
110.0484
30.28086
16.28928
11.4909
9.430835
8.389672
7.795056
7.42691
7.186531
7.021567
6.898874
6.793824
6.685614
6.555072
6.387324
6.182703
5.962372
5.741444
5.523464
5.304934
5.086552
4.870301
4.658457
4.454828
4.263051
4.086017
3.926349
3.78633
3.667904
3.5728
3.501701
3.455383
3.436296
3.447282
3.491404
3.571323
3.689618
3.848565
4.049857
4.294546
4.583188
4.915894
5.292969
5.715278
6.18899
6.729993
7.336336
7.970731
8.598388
9.205203
9.794369
10.37834
10.97635
11.61983
12.37189
13.36647
14.9581
18.13443
27.28198
91.30609
110.8009
31.21869
16.96937
11.90589
9.702987
8.594785
7.974371
7.600759
7.362715
7.199397
7.070718
6.945051
6.794984
6.604862
6.386509
6.160599
5.92762
5.688534
5.443657
5.199072
4.957792
4.722374
4.495951
4.28199
4.083806
3.904256
3.745756
3.610289
3.499447
3.41453
3.356054
3.324874
3.323144
3.353119
3.416744
3.515758
3.651686
3.825908
4.03919
4.291729
4.583737
4.915541
5.287898
5.702646
6.166654
6.697173
7.294929
7.924527
8.551134
9.160531
9.755774
10.34899
10.95813
11.61421
12.37236
13.37904
14.97811
18.1558
27.29408
91.41883
111.5823
32.16118
17.67949
12.35682
10.00404
8.824498
8.171845
7.783479
7.535007
7.355031
7.192763
7.008445
6.794353
6.566587
6.321291
6.064495
5.803067
5.538835
5.274131
5.011921
4.755798
4.509532
4.276758
4.060767
3.864571
3.690766
3.541359
3.417769
3.321029
3.251945
3.210787
3.198372
3.215797
3.264645
3.346017
3.460843
3.609884
3.793986
4.01359
4.268777
4.560113
4.888609
5.256103
5.665651
6.125143
6.652635
7.249548
7.880537
8.510535
9.125373
9.728348
10.33169
10.95414
11.61683
12.38382
13.39864
15.00068
18.17631
27.31349
91.54388
112.4087
33.10776
18.40712
12.83683
10.32912
9.070646
8.377253
7.963215
7.687012
7.462075
7.23036
6.989116
6.729318
6.456692
6.181832
5.902222
5.620256
5.337336
5.056411
4.781651
4.517247
4.267135
4.034983
3.824039
3.636833
3.475152
3.340205
3.232785
3.153377
3.102233
3.079848
3.085474
3.120456
3.185405
3.280808
3.407115
3.564762
3.754537
3.977031
4.232647
4.522579
4.848634
5.213481
5.620938
6.080056
6.608811
7.20735
7.840645
8.474615
9.095805
9.707261
10.32176
10.95088
11.62446
12.40279
13.42301
15.02569
18.19407
27.31067
91.65432
113.2605
34.05526
19.18432
13.36575
10.69419
9.344037
8.596407
8.135778
7.798678
7.491657
7.197128
6.892928
6.59541
6.298223
5.99939
5.69838
5.396639
5.098254
4.807147
4.527063
4.261793
4.015117
3.790382
3.590276
3.416753
3.271019
3.153624
3.064665
3.003965
2.971202
2.96609
2.988186
3.03795
3.115594
3.221366
3.355614
3.518825
3.711991
3.936003
4.191703
4.480918
4.806076
5.170357
5.578005
6.03942
6.572114
7.173824
7.810213
8.448975
9.077839
9.700816
10.32259
10.96092
11.64498
12.43052
13.45528
15.05938
18.22316
27.31087
91.75397
114.1738
34.98457
19.95305
13.89705
11.0722
9.626766
8.805811
8.267541
7.840515
7.46084
7.097098
6.756759
6.427972
6.103952
5.781327
5.461228
5.146322
4.83962
4.544501
4.264861
4.004619
3.767253
3.55551
3.371272
3.215566
3.088685
2.99039
2.92013
2.877209
2.861465
2.871207
2.906685
2.967947
3.055073
3.168316
3.308131
3.475199
3.670773
3.896053
4.152288
4.441788
4.767378
5.132508
5.541611
6.006534
6.544097
7.149082
7.788359
8.431643
9.068528
9.698061
10.33043
10.98028
11.67225
12.46329
13.4911
15.09522
18.25449
27.33104
91.86398
115.1334
35.97098
20.78361
14.49639
11.48853
9.918655
8.995554
8.353384
7.829141
7.371546
6.966393
6.592519
6.234173
5.884465
5.542671
5.209548
4.886821
4.577123
4.283981
4.011093
3.761845
3.538916
3.344101
3.178294
3.041616
2.933606
2.853449
2.800176
2.773037
2.770841
2.792876
2.838917
2.909004
3.003283
3.122133
3.266201
3.43642
3.634209
3.86095
4.118303
4.408943
4.735911
5.102764
5.514013
5.982809
6.525125
7.133255
7.776363
8.426932
9.069939
9.708248
10.35074
11.00902
11.70737
12.50276
13.53277
15.13629
18.2891
27.3389
91.9492
116.1189
36.98998
21.63112
15.0879
11.9017
10.19511
9.135925
8.363796
7.756558
7.251093
6.81045
6.403674
6.018892
5.650604
5.296371
4.955954
4.630935
4.324045
4.038442
3.777185
3.54281
3.337004
3.160556
3.013455
2.895083
2.804433
2.740323
2.701559
2.687593
2.696567
2.728313
2.782616
2.859577
2.959467
3.082851
3.230582
3.40375
3.60382
3.83234
4.091339
4.383776
4.712813
5.081912
5.495844
5.968922
6.516674
7.128834
7.77473
8.428213
9.079712
9.728671
10.38022
11.04537
11.74846
12.54685
13.5784
15.18195
18.33283
27.379
92.05245
117.1201
37.95536
22.4886
15.74063
12.33738
10.4336
9.220058
8.346368
7.667674
7.117011
6.638151
6.202674
5.797955
5.41647
5.054561
4.711807
4.389568
4.090139
3.815992
3.569276
3.351532
3.163458
3.00496
2.875323
2.773421
2.697924
2.647471
2.620831
2.617126
2.63526
2.67484
2.735778
2.818317
2.922907
3.050288
3.201458
3.377654
3.580286
3.810959
4.072115
4.366963
4.699093
5.071999
5.489652
5.966078
6.516305
7.130218
7.779844
8.440905
9.101427
9.759261
10.41812
11.08839
11.79459
12.59467
13.62661
15.22864
18.37356
27.3988
92.14018
118.1578
38.90809
23.35498
16.36376
12.72618
10.62846
9.265697
8.29437
7.558093
6.964609
6.45461
5.99857
5.580115
5.190465
4.825707
4.485011
4.16934
3.880371
3.619734
3.388617
3.1876
3.016497
2.874493
2.760352
2.672618
2.609818
2.570578
2.554317
2.558993
2.584471
2.630387
2.696803
2.784109
2.892921
3.024152
3.178908
3.358427
3.563908
3.797127
4.061166
4.359513
4.695299
5.071893
5.493508
5.973433
6.526108
7.142506
7.796606
8.464625
9.133495
9.799168
10.46391
11.13768
11.84556
12.64628
13.67834
15.28017
18.4246
27.44883
92.23811
119.2172
39.86525
24.19426
16.94928
13.06078
10.78064
9.283089
8.222365
7.43408
6.809008
6.275972
5.803814
5.375092
4.980591
4.616075
4.280367
3.973745
3.696957
3.450596
3.234867
3.049448
2.893523
2.765857
2.664926
2.589151
2.537012
2.507153
2.49881
2.510556
2.542167
2.593469
2.664686
2.756367
2.869295
3.004546
3.163215
3.346324
3.555045
3.791455
4.058797
4.360847
4.701042
5.082453
5.50858
5.991612
6.545621
7.164116
7.822884
8.498026
9.174769
9.847067
10.51597
11.1914
11.89925
12.69921
13.73028
15.33079
18.47269
27.49134
92.33898
120.2849
40.81048
25.02537
17.53169
13.38078
10.89493
9.274265
8.14295
7.311285
6.656621
6.106243
5.622904
5.188114
4.792038
4.430233
4.100911
3.803789
3.538936
3.306024
3.104398
2.933059
2.790613
2.675406
2.585733
2.519964
2.476613
2.454587
2.452737
2.470399
2.507272
2.563352
2.639023
2.734989
2.852197
2.991823
3.154806
3.341869
3.554215
3.794195
4.065355
4.371699
4.716887
5.103743
5.535149
6.021191
6.575696
7.195871
7.859236
8.541223
9.225002
9.902545
10.57394
11.24937
11.95578
12.75402
13.78388
15.38408
18.52658
27.54692
92.44315
121.3403
41.66063
25.79326
18.05352
13.6439
10.97686
9.252116
8.06371
7.194096
6.514327
5.949046
5.456982
5.017496
4.622385
4.266015
3.944589
3.657673
3.404569
3.184197
2.99526
2.836206
2.705243
2.600506
2.5202
2.4627
2.4266
2.411334
2.415074
2.437821
2.47939
2.539928
2.619966
2.720361
2.842222
2.986731
3.154469
3.34585
3.562235
3.806222
4.081592
4.392634
4.743296
5.136212
5.57349
6.062456
6.616716
7.237878
7.905204
8.593245
9.282924
9.964194
10.6363
11.3099
12.01324
12.80856
13.83661
15.43655
18.58085
27.61002
92.56248
122.4183
42.4589
26.49371
18.51072
13.86144
11.03813
9.227895
7.992945
7.093672
6.394099
5.816201
5.316075
4.870633
4.470767
4.116178
3.804963
3.530745
3.289974
3.081616
2.904187
2.755876
2.63474
2.538858
2.466453
2.415967
2.386108
2.376263
2.385067
2.412495
2.458527
2.523465
2.607993
2.71312
2.840132
2.989984
3.162852
3.358908
3.579686
3.828036
4.107937
4.423959
4.780397
5.179802
5.623437
6.115433
6.669026
7.290293
7.960516
8.653502
9.34779
10.0312
10.70223
11.37225
12.07113
12.86275
13.8889
15.48902
18.63574
27.67373
92.68486
123.4806
43.20287
27.12294
18.91391
14.05294
11.09823
9.216918
7.941259
7.015639
6.297918
5.707222
5.19777
4.746099
4.343365
3.988076
3.680529
3.417093
3.189656
2.993371
2.826895
2.68845
2.576133
2.48809
2.422641
2.378347
2.354056
2.349102
2.362612
2.394531
2.444991
2.514446
2.60373
2.71396
2.846587
3.002345
3.180569
3.381481
3.606893
3.859859
4.144503
4.465633
4.827902
5.233904
5.684091
6.179636
6.73268
7.352765
8.024324
8.720846
9.418279
10.10209
10.77012
11.43482
12.12806
12.91555
13.94006
15.54135
18.69328
27.75106
92.82658
124.5317
43.88752
27.68461
19.2749
14.23234
11.16448
9.219555
7.907508
6.959419
6.225961
5.62346
5.104611
4.645862
4.239214
3.882096
3.574705
3.317231
3.100879
2.916406
2.76044
2.631293
2.527172
2.446351
2.387281
2.348655
2.330008
2.329676
2.347743
2.384128
2.4391
2.513254
2.607468
2.723358
2.862162
3.023877
3.2075
3.413372
3.643538
3.901264
4.190724
4.516904
4.884766
5.296983
5.753219
6.253634
6.807117
7.424041
8.0952
8.793761
9.49251
10.17458
10.83761
11.49567
12.18273
12.96613
13.9892
15.59163
18.74793
27.82359
92.97717
125.5498
44.45787
28.16746
19.59985
14.4091
11.24623
9.246878
7.903326
6.929054
6.178281
5.563373
5.035558
4.570422
4.159049
3.79823
3.488687
3.23219
3.023288
2.849535
2.703328
2.582935
2.486603
2.412708
2.359832
2.326816
2.313307
2.31777
2.340418
2.38137
2.440898
2.519961
2.619768
2.74158
2.886626
3.054268
3.243192
3.454058
3.68908
3.951601
4.245862
4.576982
4.950192
5.36827
5.83014
6.33489
6.888263
7.501551
8.171206
8.870111
9.568315
10.24695
10.90373
11.55437
12.23507
13.01468
14.03701
15.6418
18.80518
27.90752
93.14765
126.5604
44.9552
28.58248
19.89372
14.58567
11.343
9.293543
7.915354
6.925818
6.156518
5.527247
4.989251
4.516819
4.099284
3.733226
3.420037
3.162641
2.958213
2.792671
2.655216
2.542898
2.453918
2.386685
2.339866
2.31241
2.303924
2.313303
2.340679
2.386292
2.450936
2.535211
2.6404
2.768133
2.919351
3.092724
3.286838
3.502633
3.742428
4.009627
4.308524
4.644339
5.022521
5.445937
5.912823
6.421242
6.97418
7.583689
8.250844
8.948387
9.644061
10.31738
10.96652
11.60927
12.28393
13.06042
14.08241
15.68929
18.85876
27.98764
93.33154
127.5315
45.38019
28.9467
20.1751
14.77275
11.46
9.364149
7.955059
6.938732
6.157734
5.515779
4.965266
4.483502
4.05811
3.685553
3.367954
3.108725
2.90542
2.74542
2.615804
2.510923
2.428869
2.368035
2.327127
2.305172
2.301708
2.315924
2.348238
2.398972
2.468566
2.557991
2.668627
2.802232
2.959421
3.138233
3.3373
3.557805
3.802131
4.073733
4.376948
4.717078
5.099723
5.52776
5.998781
6.510015
7.062342
7.668181
8.331829
9.026317
9.717812
10.38464
11.02573
11.66089
12.33025
13.10434
14.12653
15.73607
18.9131
28.0742
93.53112
128.4707
45.7249
29.26114
20.44593
14.97366
11.60011
9.460184
8.019819
6.980173
6.177074
5.520421
4.959606
4.465513
4.030966
3.652229
3.330376
3.068225
2.86406
2.708105
2.585242
2.487015
2.411329
2.356485
2.32117
2.305204
2.306553
2.325971
2.363221
2.418732
2.493212
2.587688
2.703622
2.842854
3.005659
3.189533
3.393215
3.61807
3.86654
4.142125
4.449207
4.793153
5.179645
5.611408
6.085354
6.598132
7.150468
7.753487
8.412216
9.102167
9.788132
10.44746
11.08021
11.7083
12.37326
13.14571
14.16833
15.78001
18.9633
28.15596
93.74395
129.3735
45.98019
29.52921
20.70656
15.18386
11.75768
9.576185
8.104543
7.040603
6.217574
5.542793
4.964376
4.457911
4.012192
3.62657
3.301495
3.037941
2.833474
2.680112
2.5626
2.470602
2.400956
2.351889
2.32204
2.311261
2.317963
2.342247
2.38428
2.444549
2.523832
2.623203
2.744183
2.888696
3.056678
3.245161
3.45301
3.681749
3.933874
4.212944
4.523385
4.870626
5.260374
5.695077
6.170956
6.684266
7.23577
7.835665
8.489495
9.174305
9.853881
10.5054
11.13042
11.75262
12.41433
13.18586
14.20911
15.82294
19.01288
28.23927
93.97121
130.2552
46.17221
29.75922
20.96026
15.4059
11.93375
9.711752
8.207529
7.116671
6.270213
5.574668
4.979243
4.458491
4.002717
3.610339
3.282433
3.017514
2.812732
2.660706
2.547422
2.46121
2.397242
2.353595
2.32922
2.323362
2.334837
2.363793
2.410437
2.475301
2.559197
2.663207
2.788913
2.938278
3.110912
3.303472
3.514942
3.747008
4.002226
4.284221
4.597475
4.947469
5.339887
5.776771
6.253671
6.76668
7.316689
7.913347
8.562427
9.241745
9.914537
10.55842
11.1765
11.79392
12.45332
13.22438
14.24814
15.86348
19.05894
28.31857
94.21111
131.1056
46.32557
29.96516
21.21344
15.64204
12.12976
9.868034
8.329517
7.208744
6.335275
5.615497
5.000019
4.465431
4.002651
3.606895
3.276476
3.009897
2.803523
2.650666
2.540274
2.459043
2.399907
2.361334
2.341887
2.340373
2.356307
2.389629
2.440591
2.509764
2.597963
2.706275
2.836298
2.989987
3.166678
3.362711
3.5772
3.811991
4.069718
4.35408
4.669617
5.021856
5.416401
5.854772
6.331901
6.84394
7.392001
7.985452
8.630091
9.303963
9.970146
10.60712
11.21953
11.83345
12.49145
13.26235
14.28637
15.9026
19.10272
28.39408
94.46154
131.9309
46.43061
30.15105
21.47069
15.89428
12.34537
10.04332
8.467663
7.313057
6.408736
5.662117
5.025663
4.476954
4.005874
3.607853
3.277885
3.01202
2.805117
2.651096
2.541277
2.46333
2.408723
2.374265
2.359582
2.361855
2.381615
2.418771
2.473591
2.546662
2.638779
2.750962
2.884779
3.042199
3.222296
3.421169
3.638067
3.875
4.134692
4.420918
4.738278
5.092336
5.488555
5.927841
6.404614
6.915285
7.461227
8.051671
8.692288
9.361058
10.02121
10.6523
11.26024
11.87169
12.52886
13.29966
14.32362
15.94019
19.1445
28.46822
94.72407
132.7192
46.45688
30.3045
21.72566
16.15934
12.57776
10.23414
8.617819
7.425247
6.486683
5.711519
5.054288
4.493338
4.017453
3.618765
3.29039
3.025482
2.817894
2.661981
2.551528
2.475463
2.423938
2.392658
2.381087
2.386583
2.409581
2.450027
2.508203
2.584683
2.680222
2.795755
2.932822
3.093358
3.276192
3.477309
3.69608
3.934637
4.195845
4.483538
4.802377
5.157949
5.555542
5.995292
6.471291
6.980514
7.524433
8.112207
8.749308
9.413576
10.0686
10.69498
11.29964
11.9095
12.56623
13.33681
14.3601
15.97599
19.18296
28.53634
94.99403
133.4876
46.44736
30.43525
21.97755
16.43459
12.82372
10.43663
8.775909
7.541718
6.566672
5.762642
5.085803
4.514301
4.034992
3.637241
3.311309
3.048275
2.840588
2.682708
2.569821
2.494126
2.444544
2.415346
2.405881
2.413726
2.439205
2.482269
2.543205
2.622571
2.721016
2.83934
2.979063
3.142103
3.327078
3.529947
3.750136
3.989901
4.252315
4.541196
4.861286
5.218178
5.616939
6.056953
6.532132
7.040047
7.582239
8.167791
8.801951
9.462463
10.11335
10.73612
11.33844
11.9473
12.60375
13.37389
14.39604
16.01073
19.22015
28.60418
95.27393
134.2358
46.40675
30.54664
22.22422
16.71712
13.08052
10.64802
8.939327
7.660635
6.648007
5.815809
5.121081
4.540852
4.059492
3.663477
3.340432
3.079435
2.87175
2.711726
2.595863
2.518639
2.469365
2.441219
2.43298
2.442345
2.469566
2.514585
2.577668
2.659325
2.760092
2.880647
3.02247
3.187453
3.374091
3.57829
3.799574
4.040347
4.303756
4.59368
4.914912
5.273044
5.672894
6.113167
6.587705
7.094628
7.635521
8.219346
8.851156
9.508689
10.15639
10.77651
11.37722
11.98544
12.64161
13.41095
14.43121
16.0436
19.25395
28.66639
95.55998
134.974
46.35398
30.64422
22.46538
17.00365
13.34452
10.86515
9.10582
7.780979
6.730915
5.872107
5.161519
4.574257
4.091872
3.698017
3.377915
3.118841
2.910928
2.748295
2.628557
2.548202
2.497823
2.469661
2.461756
2.471781
2.499969
2.546244
2.610838
2.694192
2.796722
2.918968
3.062377
3.228817
3.416743
3.622036
3.844248
4.085917
4.350253
4.641192
4.963571
5.322967
5.723946
6.16462
6.638838
7.145182
7.685259
8.267874
8.89791
9.553193
10.19852
10.81672
11.4163
12.02407
12.67985
13.44801
14.46582
16.07527
19.28613
28.7274
95.85269
135.7035
46.29482
30.73093
22.6997
17.2909
13.61259
11.08575
9.274249
7.90282
6.816418
5.933005
5.20855
4.615628
4.132831
3.741147
3.423656
3.16605
2.957411
2.79152
2.66688
2.582085
2.5294
2.50017
2.491725
2.501557
2.529944
2.576778
2.642244
2.726716
2.830474
2.95392
3.098475
3.265982
3.454942
3.661237
3.884337
4.126906
4.392207
4.684226
5.007833
5.368591
5.770817
6.21212
6.686395
7.192596
7.732332
8.314218
8.943005
9.596658
10.24026
10.85705
11.45582
12.06321
12.71842
13.48495
14.49959
16.10509
19.31524
28.78429
96.15131
136.4293
46.23108
30.80917
22.92627
17.57507
13.8806
11.30687
9.443296
8.02629
6.905569
5.999858
5.263375
4.665801
4.182812
3.792961
3.477446
3.220578
3.010484
2.840536
2.709976
2.61956
2.563517
2.532283
2.522505
2.531347
2.559209
2.605942
2.671677
2.756712
2.861199
2.985424
3.130761
3.299001
3.4889
3.696233
3.92022
4.163791
4.43016
4.72338
5.048347
5.410605
5.814237
6.256429
6.731138
7.237605
7.777431
8.35903
8.987042
9.639574
10.28193
10.89767
11.4958
12.1028
12.75723
13.52169
14.53248
16.13321
19.34186
28.8382
96.45367
137.1572
46.17375
30.88363
23.14574
17.85496
14.14716
11.52787
9.613377
8.152677
7.000037
6.074229
5.327164
4.725494
4.242125
3.853434
3.538979
3.281878
3.069418
2.894555
2.757136
2.660037
2.599711
2.565659
2.553837
2.560969
2.587644
2.633669
2.699116
2.7842
2.888963
3.013591
3.159424
3.328241
3.518972
3.72737
3.952408
4.197095
4.464672
4.759233
5.085702
5.449605
5.854809
6.298143
6.773628
7.280726
7.82102
8.402735
9.030395
9.682214
10.32365
10.93857
11.53616
12.14273
12.79617
13.55812
14.56435
16.15934
19.36548
28.88873
96.76131
137.8842
46.12339
30.95473
23.35694
18.1276
14.40933
11.74709
9.784297
8.282796
7.101012
6.157195
5.400653
4.795057
4.310794
3.922337
3.607817
3.349321
3.133424
2.952755
2.807684
2.703016
2.637596
2.600024
2.585532
2.590323
2.615234
2.660016
2.724678
2.809351
2.91399
3.038697
3.184776
3.353994
3.545532
3.755109
3.981326
4.227267
4.496192
4.792233
5.120341
5.486024
5.892955
6.337663
6.814229
7.322282
7.863384
8.445588
9.073291
9.724733
10.36549
10.97971
11.57681
12.18289
12.8351
13.59407
14.59497
16.18322
19.38575
28.93496
97.07058
138.617
46.08828
31.02641
23.56168
18.39361
14.66738
11.96514
9.957237
8.41813
7.209881
6.249772
5.484405
4.874652
4.388668
3.99929
3.683433
3.422294
3.201841
3.014478
2.861172
2.748433
2.676907
2.635018
2.617344
2.61931
2.642001
2.685093
2.748531
2.832385
2.936542
3.061035
3.207101
3.376613
3.568959
3.779766
4.007309
4.254634
4.525039
4.822689
5.152556
5.520139
5.928939
6.375233
6.85316
7.362467
7.904693
8.487757
9.115891
9.767233
10.40746
11.02105
11.61766
12.22316
12.87394
13.62948
14.6243
16.20481
19.40276
28.97776
97.38389
139.3455
46.06204
31.09574
23.75712
18.65008
14.91916
12.18113
10.13231
8.559282
7.32726
6.352331
5.578479
4.964061
4.475316
4.083712
3.765161
3.500119
3.274051
3.079215
2.917154
2.795918
2.717701
2.671014
2.648795
2.647789
2.667983
2.709041
2.770881
2.853541
2.956879
3.080891
3.226791
3.396399
3.589432
3.801603
4.030591
4.279424
4.551428
4.850795
5.182526
5.552113
5.962913
6.411
6.890559
7.401417
7.945078
8.52936
9.158283
9.809751
10.44953
11.0625
11.65858
12.26343
12.91253
13.66414
14.652
16.22358
19.41563
29.01523
97.6973
140.0801
46.04812
31.16614
23.94549
18.89793
15.1653
12.39592
10.31063
8.707302
7.453892
6.465215
5.682854
5.062979
4.570225
4.174945
3.852248
3.581989
3.349234
3.146153
2.974838
2.84472
2.759415
2.707581
2.680509
2.67635
2.69358
2.732169
2.792004
2.873096
2.97528
3.098507
3.244074
3.413634
3.607222
3.820816
4.051361
4.301815
4.575525
4.876711
5.210403
5.582091
5.995023
6.445107
6.926553
7.439261
7.984664
8.570524
9.200587
9.852357
10.49171
11.10399
11.69949
12.30359
12.95082
13.69802
14.6781
16.23963
19.42471
29.04867
98.01309
140.8077
46.04942
31.23389
24.12395
19.13537
15.40452
12.60889
10.49205
8.862218
7.589716
6.588172
5.797086
5.170814
4.672702
4.272233
3.943904
3.667113
3.42661
3.214521
3.033516
2.89429
2.801643
2.744318
2.712742
2.705007
2.718871
2.754608
2.81207
2.891248
2.991988
3.114254
3.259264
3.428528