/*--------------------------------*- C++ -*----------------------------------*\
| =========                 |                                                 |
| \\      /  F ield         | OpenFOAM: The Open Source CFD Toolbox           |
|  \\    /   O peration     | Version:  2312                                  |
|   \\  /    A nd           | Website:  www.openfoam.com                      |
|    \\/     M anipulation  |                                                 |
\*---------------------------------------------------------------------------*/
FoamFile
{
    version     2.0;
    format      ascii;
    arch        "LSB;label=32;scalar=64";
    class       surfaceScalarField;
    location    "1000";
    object      phi;
}
// * * * * * * * * * * * * * * * * * * * * * * * * * * * * * * * * * * * * * //

dimensions      [1 0 -1 0 0 0 0];

oriented        oriented;

internalField   nonuniform List<scalar> 
23740
(
-0.0001182997
0.0001176824
-0.0002206774
0.0001023771
-0.0003343298
0.0001136517
-0.000451184
0.0001168535
-0.0005492024
9.801763e-05
-0.0006342571
8.50538e-05
-0.0007394828
0.0001052248
-0.0008689989
0.0001295153
-0.0009736576
0.0001046579
-0.0010214
4.774156e-05
-0.001073866
5.246556e-05
-0.001182976
0.0001091099
-0.001295219
0.0001122428
-0.001342081
4.686143e-05
-0.001362846
2.076533e-05
-0.00142718
6.433407e-05
-0.001518286
9.110642e-05
-0.001572514
5.422845e-05
-0.001587432
1.49178e-05
-0.001614236
2.680415e-05
-0.00167022
5.5985e-05
-0.001716844
4.66239e-05
-0.001732467
1.562267e-05
-0.001743969
1.150172e-05
-0.001773865
2.989586e-05
-0.001803188
2.93223e-05
-0.001814641
1.14529e-05
-0.001822471
7.829249e-06
-0.001835462
1.298994e-05
-0.001844567
9.10402e-06
-0.001850497
5.929686e-06
-0.001856144
5.645664e-06
-0.001857247
1.10191e-06
-0.001851076
-6.171847e-06
-0.00183908
-1.19959e-05
-0.001830526
-8.554751e-06
-0.001830442
-8.406875e-08
-0.001829275
-1.16726e-06
-0.001812179
-1.709587e-05
-0.001778031
-3.414842e-05
-0.001755514
-2.251658e-05
-0.001748365
-7.149145e-06
-0.001728467
-1.989736e-05
-0.001680113
-4.835359e-05
-0.001627493
-5.261954e-05
-0.001610998
-1.649413e-05
-0.001596592
-1.440507e-05
-0.001524654
-7.193766e-05
-0.001422652
-0.0001020012
-0.001359466
-6.318585e-05
-0.001338146
-2.131907e-05
-0.001277513
-6.063279e-05
-0.001131276
-0.0001462373
-0.000997222
-0.0001340543
-0.0009092555
-8.796678e-05
-0.0007863359
-0.0001229201
-0.0006041061
-0.0001822304
-0.0003972537
-0.0002068537
-0.0002029277
-0.0001943289
-0.0002029282
-0.0001136422
0.0002313241
-0.0002209626
0.0002096969
-0.000315384
0.0002080724
-0.0004096656
0.0002111341
-0.0005153644
0.0002037154
-0.0006226855
0.0001923739
-0.0007064862
0.0001890246
-0.0007669478
0.0001899759
-0.0008378632
0.0001755724
-0.0009398197
0.0001496973
-0.001025081
0.0001377263
-0.001057245
0.0001412738
-0.001081539
0.000136536
-0.001150826
0.0001161494
-0.001232065
0.0001020045
-0.001267932
0.0001002013
-0.001274757
9.793167e-05
-0.001305935
8.540692e-05
-0.001362894
7.187713e-05
-0.001402574
6.648449e-05
-0.001410961
6.437203e-05
-0.001421882
5.754489e-05
-0.001453707
4.744791e-05
-0.001483278
4.107181e-05
-0.001491369
3.798674e-05
-0.001494906
3.285872e-05
-0.001509221
2.576649e-05
-0.001521683
2.02906e-05
-0.00152461
1.591546e-05
-0.001527291
1.178456e-05
-0.001528186
6.823151e-06
-0.001524364
1.822501e-06
-0.001519464
-3.798772e-06
-0.001516113
-9.52428e-06
-0.001513246
-1.48634e-05
-0.001503077
-1.872393e-05
-0.0014813
-2.186163e-05
-0.001455887
-2.658084e-05
-0.001439533
-3.34495e-05
-0.001433587
-4.009473e-05
-0.00141216
-4.394346e-05
-0.001371995
-4.731327e-05
-0.001338217
-5.367508e-05
-0.001324702
-6.186761e-05
-0.001307835
-6.94856e-05
-0.00124748
-7.684822e-05
-0.001175696
-8.618871e-05
-0.001150842
-9.67909e-05
-0.001146562
-0.0001062804
-0.001091872
-0.0001178756
-0.0009790182
-0.0001341725
-0.0008876108
-0.0001520402
-0.0008698294
-0.0001640189
-0.0008270343
-0.0001768498
-0.0007066029
-0.0002083988
-0.0005810019
-0.0002485219
-0.0004837234
-0.0002795101
-0.000361453
-0.0003291259
-0.0001870645
-0.0003687199
-0.0003899929
-9.730279e-05
0.000328626
-0.0001906224
0.0003030155
-0.0002781263
0.0002955753
-0.0003580911
0.0002910979
-0.0004358749
0.0002814981
-0.0005114581
0.0002679561
-0.0005787924
0.0002563578
-0.0006358786
0.0002470612
-0.000695061
0.000234754
-0.0007637415
0.0002183771
-0.000829293
0.0002032773
-0.0008753849
0.0001873655
-0.0009150904
0.0001762415
-0.0009590492
0.0001601084
-0.001004087
0.0001470429
-0.001040642
0.0001367568
-0.001069105
0.0001263954
-0.001098312
0.0001146143
-0.001129597
0.0001031627
-0.001156832
9.371919e-05
-0.001177537
8.507735e-05
-0.001195814
7.582241e-05
-0.00121448
6.611364e-05
-0.001230887
5.747792e-05
-0.001242535
4.96338e-05
-0.001251236
4.155908e-05
-0.001258768
3.329708e-05
-0.001263991
2.551298e-05
-0.001267311
1.923437e-05
-0.001267445
1.191721e-05
-0.001264224
3.601372e-06
-0.001258883
-3.520325e-06
-0.001251845
-1.083713e-05
-0.001243194
-1.817652e-05
-0.001232625
-2.543356e-05
-0.001218926
-3.242269e-05
-0.001201841
-3.894718e-05
-0.001182748
-4.567398e-05
-0.001162844
-5.335397e-05
-0.001141424
-6.151428e-05
-0.001116258
-6.910915e-05
-0.001087126
-7.644423e-05
-0.001055879
-8.492191e-05
-0.001023039
-9.470661e-05
-0.000987999
-0.0001045248
-0.0009505463
-0.0001143
-0.0009109669
-0.0001257674
-0.0008685541
-0.0001392029
-0.0008212785
-0.0001535554
-0.0007713914
-0.0001677622
-0.0007257591
-0.0001798047
-0.0006779721
-0.0001998271
-0.0006180401
-0.0002239511
-0.0005450598
-0.0002498305
-0.0004669695
-0.0002864898
-0.0003905738
-0.0003249186
-0.0003043255
-0.0003657597
-0.0002186442
-0.0004148088
-0.0001139005
-0.0004734652
-0.0005038936
-8.03396e-05
0.0004089648
-0.0001548714
0.0003775464
-0.0002270119
0.0003677149
-0.0002940865
0.0003581716
-0.000357557
0.0003449677
-0.0004182754
0.0003286736
-0.0004736101
0.0003116917
-0.0005210243
0.0002944748
-0.000566295
0.0002800244
-0.0006109643
0.0002630461
-0.0006579892
0.000250302
-0.0007028413
0.0002322175
-0.0007416358
0.0002150361
-0.0007794493
0.0001979221
-0.0008150139
0.0001826079
-0.0008465448
0.0001682881
-0.0008745511
0.0001544022
-0.0009006136
0.0001406772
-0.0009250487
0.0001275981
-0.0009468796
0.0001155504
-0.0009658085
0.0001040063
-0.0009833833
9.339714e-05
-0.0009986652
8.139538e-05
-0.001011618
7.043051e-05
-0.001021733
5.974777e-05
-0.001029187
4.901288e-05
-0.001034547
3.865564e-05
-0.001037714
2.867929e-05
-0.001038686
2.020635e-05
-0.001036572
9.802374e-06
-0.001033257
2.84538e-07
-0.001027889
-8.888649e-06
-0.001020666
-1.806084e-05
-0.001011597
-2.724645e-05
-0.001000542
-3.648884e-05
-0.0009869863
-4.597899e-05
-0.0009706167
-5.531717e-05
-0.0009517937
-6.449715e-05
-0.0009313653
-7.378241e-05
-0.0009094928
-8.338676e-05
-0.0008853126
-9.328908e-05
-0.0008584371
-0.0001033195
-0.0008298438
-0.0001135148
-0.0008001051
-0.0001244449
-0.0007699968
-0.0001346326
-0.0007366985
-0.0001475978
-0.0007013292
-0.0001611362
-0.0006646898
-0.0001758419
-0.0006272206
-0.0001910243
-0.000588483
-0.0002064996
-0.0005436128
-0.0002246749
-0.0004914259
-0.000252014
-0.0004335306
-0.0002818467
-0.0003715328
-0.0003118287
-0.0003134686
-0.0003445544
-0.0002571268
-0.000381261
-0.0001987895
-0.0004240978
-0.0001376706
-0.0004759287
-7.380524e-05
-0.0005373318
-0.0005776989
-6.340984e-05
0.0004723738
-0.0001239122
0.0004380479
-0.000180279
0.0004240809
-0.0002328441
0.000410736
-0.0002826997
0.0003948226
-0.0003308507
0.0003768241
-0.0003770681
0.0003579086
-0.0004211732
0.0003385796
-0.0004608614
0.0003197123
-0.000498811
0.0003009957
-0.0005310046
0.0002824955
-0.0005651617
0.0002663747
-0.0005980642
0.0002479387
-0.0006293802
0.0002292384
-0.0006583101
0.0002115381
-0.0006844745
0.0001944527
-0.0007079925
0.0001779206
-0.0007291281
0.0001618131
-0.0007479526
0.0001464227
-0.000764465
0.0001320629
-0.0007786306
0.000118172
-0.0007908422
0.0001056088
-0.0008012635
9.181646e-05
-0.000809713
7.88797e-05
-0.0008162192
6.625359e-05
-0.0008208212
5.361436e-05
-0.0008235994
4.143338e-05
-0.000824611
2.969028e-05
-0.0008227195
1.831426e-05
-0.0008199698
7.052009e-06
-0.0008157688
-3.917069e-06
-0.000809917
-1.474102e-05
-0.0008022814
-2.569703e-05
-0.0007930219
-3.650636e-05
-0.0007832427
-4.626851e-05
-0.0007711555
-5.806651e-05
-0.000756932
-6.954091e-05
-0.0007408163
-8.061306e-05
-0.000722903
-9.169588e-05
-0.0007033362
-0.0001029536
-0.0006822173
-0.000114408
-0.000659465
-0.0001260718
-0.0006350051
-0.0001379746
-0.0006093283
-0.0001501214
-0.0005822643
-0.0001616964
-0.0005536582
-0.0001762037
-0.0005234821
-0.0001913122
-0.0004932439
-0.0002060799
-0.0004619757
-0.0002222923
-0.0004260345
-0.0002424407
-0.0003837133
-0.0002669962
-0.0003433187
-0.0002924086
-0.0003056273
-0.0003195382
-0.0002677417
-0.0003497145
-0.0002281104
-0.000384186
-0.0001858456
-0.0004235262
-0.0001415999
-0.0004683438
-9.71588e-05
-0.0005203704
-5.115867e-05
-0.0005833325
-0.0006288576
-5.096052e-05
0.0005233334
-9.945541e-05
0.000486542
-0.000144157
0.0004687818
-0.0001860679
0.0004526462
-0.0002260206
0.0004347747
-0.0002644913
0.0004152943
-0.0003014405
0.0003948575
-0.000336791
0.0003739298
-0.0003700004
0.0003529216
-0.0004010149
0.00033201
-0.0004296939
0.0003111745
-0.0004538887
0.0002905696
-0.0004772801
0.0002713301
-0.0004990661
0.0002510245
-0.0005191394
0.0002316115
-0.0005374141
0.0002127276
-0.000553907
0.0001944136
-0.0005687487
0.000176655
-0.0005817915
0.0001594657
-0.0005927344
0.0001430059
-0.0006016321
0.0001270696
-0.0006077964
0.0001117731
-0.0006128258
9.684566e-05
-0.0006163163
8.237e-05
-0.0006183768
6.831393e-05
-0.0006193419
5.457908e-05
-0.0006191263
4.121743e-05
-0.0006176337
2.819734e-05
-0.000614784
1.546413e-05
-0.0006106826
2.950233e-06
-0.0006055116
-9.088485e-06
-0.0006001057
-2.014739e-05
-0.0005932142
-3.258891e-05
-0.0005850323
-4.468857e-05
-0.0005758687
-5.543243e-05
-0.0005657356
-6.819984e-05
-0.0005543609
-8.091586e-05
-0.0005416136
-9.336057e-05
-0.0005275995
-0.0001057102
-0.0005123533
-0.0001181999
-0.0004958604
-0.000130901
-0.0004781446
-0.0001437877
-0.0004593112
-0.000156808
-0.0004393989
-0.0001700338
-0.0004173385
-0.0001837568
-0.0003952224
-0.0001983197
-0.000373279
-0.0002132555
-0.0003498433
-0.0002295156
-0.0003233158
-0.0002488198
-0.0002953596
-0.000270397
-0.0002692427
-0.0002931131
-0.00024341
-0.0003182413
-0.0002163722
-0.0003465761
-0.0001877619
-0.0003783249
-0.0001580125
-0.0004139355
-0.0001275978
-0.0004539409
-9.67e-05
-0.0004992418
-6.53809e-05
-0.0005516896
-3.428611e-05
-0.0006144274
-0.0006631437
-4.091389e-05
0.0005642465
-7.942019e-05
0.0005250475
-0.0001141781
0.0005035391
-0.000146258
0.0004847256
-0.0001763288
0.0004648451
-0.000204798
0.0004437633
-0.0002318588
0.000421918
-0.0002575379
0.0003996087
-0.0002816674
0.000377051
-0.0003040816
0.0003544242
-0.0003247543
0.0003318472
-0.0003435486
0.0003093639
-0.0003600693
0.0002878509
-0.0003754216
0.0002663769
-0.0003889492
0.0002451392
-0.0004007116
0.0002244901
-0.0004107165
0.0002044187
-0.000419018
0.0001849566
-0.0004256811
0.0001661289
-0.0004306625
0.0001479874
-0.0004340797
0.0001304869
-0.0004359604
0.0001136538
-0.0004365269
9.741206e-05
-0.0004359109
8.175391e-05
-0.0004342371
6.663995e-05
-0.0004316619
5.20037e-05
-0.0004282667
3.782201e-05
-0.0004241039
2.40343e-05
-0.0004192292
1.058917e-05
-0.0004136595
-2.61976e-06
-0.0004078545
-1.489372e-05
-0.0004014065
-2.659565e-05
-0.0003945262
-3.94695e-05
-0.000387094
-5.212106e-05
-0.0003781248
-6.440186e-05
-0.0003695117
-7.681317e-05
-0.0003609384
-8.948941e-05
-0.0003519721
-0.0001023271
-0.0003424463
-0.0001152361
-0.0003323461
-0.0001283003
-0.0003216569
-0.0001415904
-0.0003103498
-0.0001550949
-0.0002982976
-0.0001688603
-0.0002853051
-0.0001830263
-0.000271384
-0.0001976779
-0.000256783
-0.0002129208
-0.000241127
-0.0002289116
-0.0002241598
-0.0002464829
-0.000207918
-0.0002650616
-0.0001926819
-0.0002856331
-0.0001771793
-0.0003086157
-0.0001611013
-0.0003343193
-0.0001444772
-0.0003632002
-0.0001272926
-0.0003955095
-0.0001088619
-0.0004323663
-8.900339e-05
-0.0004737994
-6.789514e-05
-0.00052035
-4.606541e-05
-0.0005735192
-2.40406e-05
-0.0006364521
-0.0006871843
-3.120238e-05
0.0005954481
-5.995573e-05
0.0005538002
-8.520767e-05
0.0005287905
-0.0001081831
0.0005077006
-0.0001297006
0.0004863622
-0.0001501404
0.0004642028
-0.000169393
0.0004411704
-0.0001872518
0.0004174673
-0.0002036004
0.0003933996
-0.0002183384
0.0003691621
-0.0002315268
0.0003450355
-0.0002432335
0.0003210707
-0.0002529443
0.0002975618
-0.00026174
0.0002751727
-0.0002691002
0.0002524995
-0.0002748752
0.0002302652
-0.0002790229
0.0002085665
-0.0002815921
0.000187526
-0.0002826709
0.0001672077
-0.0002823442
0.0001476608
-0.0002807619
0.0001289046
-0.0002780575
0.0001109494
-0.000274416
9.377051e-05
-0.0002699944
7.733231e-05
-0.000264924
6.156945e-05
-0.0002593489
4.642846e-05
-0.0002533879
3.186086e-05
-0.0002471305
1.777675e-05
-0.0002408461
4.304592e-06
-0.0002347205
-8.745493e-06
-0.000228449
-2.116547e-05
-0.0002212208
-3.3824e-05
-0.0002143842
-4.630627e-05
-0.0002078972
-5.860833e-05
-0.0002015048
-7.079445e-05
-0.0001953021
-8.301608e-05
-0.000189458
-9.533363e-05
-0.0001839937
-0.0001077916
-0.0001788297
-0.0001204004
-0.0001739153
-0.0001332149
-0.0001692448
-0.000146261
-0.0001647167
-0.0001596232
-0.0001600468
-0.0001735303
-0.0001550672
-0.0001880061
-0.0001497352
-0.00020301
-0.0001439638
-0.0002186922
-0.00013761
-0.0002352655
-0.0001310155
-0.0002530774
-0.0001238112
-0.0002722659
-0.0001163831
-0.0002930612
-0.0001089866
-0.0003160122
-0.0001014355
-0.0003418705
-9.332926e-05
-0.0003713064
-8.352293e-05
-0.0004053157
-7.193895e-05
-0.0004439502
-5.901652e-05
-0.0004867217
-4.498511e-05
-0.0005343813
-3.037334e-05
-0.0005881308
-1.582249e-05
-0.0006510027
-0.0007030067
-2.496933e-05
0.0006204168
-4.731226e-05
0.0005761426
-6.617247e-05
0.0005476502
-8.283008e-05
0.0005243578
-9.785539e-05
0.0005013872
-0.0001113697
0.0004777169
-0.0001234109
0.0004532114
-0.0001339085
0.0004279648
-0.0001429316
0.0004024226
-0.000150546
0.0003767765
-0.0001566713
0.0003511608
-0.0001620327
0.0003264321
-0.0001663752
0.0003019044
-0.0001686794
0.000277477
-0.0001696178
0.0002534379
-0.0001691975
0.0002298451
-0.0001675518
0.000206921
-0.0001647725
0.0001847468
-0.0001609233
0.0001633586
-0.0001560884
0.000142826
-0.0001503968
0.0001232131
-0.0001440084
0.000104561
-0.0001371135
8.687559e-05
-0.0001299309
7.014974e-05
-0.0001226569
5.429537e-05
-0.0001155164
3.928793e-05
-0.0001086606
2.500491e-05
-0.0001022105
1.132656e-05
-9.623845e-05
-1.667615e-06
-9.088829e-05
-1.40958e-05
-8.567777e-05
-2.637615e-05
-8.114224e-05
-3.83597e-05
-7.726959e-05
-5.01791e-05
-7.387456e-05
-6.200353e-05
-7.078625e-05
-7.388293e-05
-6.799412e-05
-8.580839e-05
-6.546111e-05
-9.786681e-05
-6.314381e-05
-0.0001101091
-6.10166e-05
-0.0001225278
-5.91019e-05
-0.0001351297
-5.733785e-05
-0.0001480252
-5.572258e-05
-0.0001612386
-5.459638e-05
-0.0001746567
-5.417523e-05
-0.0001884274
-5.450515e-05
-0.0002026802
-5.560621e-05
-0.0002175913
-5.740405e-05
-0.0002334677
-5.973382e-05
-0.0002507477
-6.213289e-05
-0.0002698669
-6.390948e-05
-0.0002912847
-6.446637e-05
-0.0003154554
-6.328482e-05
-0.000343052
-5.986493e-05
-0.0003747262
-5.453593e-05
-0.0004106447
-4.806817e-05
-0.0004504178
-3.982961e-05
-0.0004949601
-3.034442e-05
-0.0005438663
-2.040833e-05
-0.0005980666
-1.052334e-05
-0.0006608874
-0.00071353
-1.790067e-05
0.000638317
-3.246223e-05
0.0005907036
-4.329411e-05
0.0005584817
-5.164857e-05
0.0005327119
-5.794987e-05
0.0005076883
-6.233627e-05
0.000482103
-6.572651e-05
0.0004566014
-6.907632e-05
0.0004313145
-7.243425e-05
0.0004057805
-7.571909e-05
0.0003800614
-7.887147e-05
0.0003543132
-8.085281e-05
0.0003284136
-8.105353e-05
0.0003021053
-7.955026e-05
0.0002759739
-7.64975e-05
0.0002503853
-7.2192e-05
0.0002255398
-6.680021e-05
0.0002015293
-6.040839e-05
0.0001783551
-5.3076e-05
0.0001560264
-4.490403e-05
0.0001346541
-3.606778e-05
0.0001143769
-2.682214e-05
9.53154e-05
-1.745397e-05
7.750745e-05
-8.240805e-06
6.093657e-05
5.648315e-07
4.54897e-05
8.886218e-06
3.096649e-05
1.672245e-05
1.716861e-05
2.378986e-05
4.259057e-06
3.049504e-05
-8.3729e-06
3.684608e-05
-2.044695e-05
4.26934e-05
-3.22236e-05
4.804874e-05
-4.371516e-05
5.288635e-05
-5.501684e-05
5.706214e-05
-6.617946e-05
6.040379e-05
-7.722472e-05
6.283021e-05
-8.823495e-05
6.423462e-05
-9.927135e-05
6.455457e-05
-0.0001104292
6.381283e-05
-0.0001217861
6.198748e-05
-0.0001333045
5.885805e-05
-0.0001448958
5.454391e-05
-0.0001569246
4.930862e-05
-0.0001694215
4.318696e-05
-0.0001823058
3.62238e-05
-0.0001957171
2.850035e-05
-0.0002098679
2.015777e-05
-0.0002251252
1.13782e-05
-0.0002419682
2.54587e-06
-0.0002610346
-5.818104e-06
-0.0002829207
-1.314482e-05
-0.0003081286
-1.895916e-05
-0.0003372376
-2.306103e-05
-0.0003706243
-2.491696e-05
-0.0004087886
-2.341746e-05
-0.0004519172
-1.94897e-05
-0.0004988877
-1.46257e-05
-0.0005487301
-9.675103e-06
-0.0006030169
-4.98122e-06
-0.000665581
-0.0007185112
-1.320879e-05
0.0006515252
-2.265753e-05
0.0006001519
-2.829046e-05
0.0005641142
-3.083646e-05
0.0005352575
-3.18557e-05
0.0005087072
-3.26472e-05
0.0004828944
-3.301236e-05
0.0004569665
-3.248573e-05
0.0004307878
-3.126495e-05
0.0004045597
-2.944181e-05
0.0003782383
-2.691878e-05
0.0003517903
-2.323526e-05
0.0003247302
-1.826368e-05
0.0002971339
-1.221003e-05
0.0002699205
-5.221074e-06
0.0002433966
2.64954e-06
0.0002176694
1.139228e-05
0.0001927868
2.096848e-05
0.0001687791
3.125583e-05
0.0001457392
4.203612e-05
0.0001238739
5.298487e-05
0.0001034282
6.372931e-05
8.457101e-05
7.392556e-05
6.731122e-05
8.35765e-05
5.128562e-05
9.284921e-05
3.621695e-05
0.0001018459
2.19698e-05
0.0001101005
8.913845e-06
0.0001179521
-3.592557e-06
0.0001253356
-1.575656e-05
0.0001322218
-2.733322e-05
0.0001384212
-3.842307e-05
0.0001437848
-4.907893e-05
0.0001481142
-5.934631e-05
0.0001512032
-6.926861e-05
0.0001528928
-7.891447e-05
0.0001530495
-8.839167e-05
0.000151535
-9.775696e-05
0.00014818
-0.0001070742
0.0001429186
-0.0001165248
0.0001359675
-0.0001263535
0.0001276666
-0.000136595
0.0001178257
-0.0001470837
0.0001064765
-0.0001580723
9.392455e-05
-0.0001697539
8.051013e-05
-0.0001823027
6.658706e-05
-0.0001959448
5.255942e-05
-0.0002110976
3.890341e-05
-0.0002283122
2.602125e-05
-0.0002481524
1.428742e-05
-0.0002711868
4.087512e-06
-0.0002979287
-4.12567e-06
-0.0003290243
-9.747878e-06
-0.000365002
-1.240786e-05
-0.0004061285
-1.206804e-05
-0.0004522569
-1.010773e-05
-0.0005008479
-7.724801e-06
-0.0005511128
-5.387775e-06
-0.0006053537
-2.915539e-06
-0.0006680529
-0.0007214267
-9.657444e-06
0.0006611822
-1.502478e-05
0.0006055187
-1.630257e-05
0.0005653915
-1.571488e-05
0.0005346695
-1.391439e-05
0.0005069065
-1.113615e-05
0.000480116
-7.809382e-06
0.0004536397
-4.019908e-06
0.0004269984
4.214596e-07
0.0004001184
5.725502e-06
0.0003729344
1.236851e-05
0.0003451475
2.039751e-05
0.0003167014
2.903932e-05
0.0002884923
3.820578e-05
0.0002607543
4.79561e-05
0.0002336466
5.834137e-05
0.0002072843
6.937184e-05
0.0001817566
8.098111e-05
0.0001571701
9.299681e-05
0.0001337237
0.0001051294
0.0001117415
0.0001170564
9.150135e-05
0.0001285615
7.306591e-05
0.0001396768
5.619594e-05
0.0001504749
4.048756e-05
0.0001607036
2.598819e-05
0.0001696617
1.301167e-05
0.0001778564
7.190739e-07
0.0001855518
-1.128802e-05
0.0001924039
-2.260871e-05
0.0001983258
-3.325521e-05
0.0002031591
-4.325644e-05
0.0002067303
-5.265027e-05
0.0002088759
-6.149197e-05
0.0002094296
-6.982233e-05
0.000208226
-7.771098e-05
0.0002051373
-8.530301e-05
0.0002001651
-9.278478e-05
0.000193367
-0.0001002762
0.0001847105
-0.0001078683
0.0001740021
-0.0001156451
0.0001613269
-0.0001239199
0.0001469211
-0.0001326778
0.0001309027
-0.0001420538
0.0001135938
-0.000152445
9.557086e-05
-0.0001642797
7.749881e-05
-0.0001778727
5.99801e-05
-0.0001935788
4.356646e-05
-0.0002118985
2.878158e-05
-0.0002333674
1.612553e-05
-0.0002585307
6.04979e-06
-0.0002878528
-1.099247e-06
-0.0003218752
-5.043364e-06
-0.0003610578
-5.978903e-06
-0.0004051929
-5.577651e-06
-0.000452658
-4.613663e-06
-0.0005018117
-3.496635e-06
-0.0005522297
-2.373135e-06
-0.000606477
-1.142047e-06
-0.0006692837
-0.0007225687
-7.308815e-06
0.0006684905
-9.99163e-06
0.0006082011
-8.821118e-06
0.0005642207
-5.431377e-06
0.0005312796
-4.090592e-07
0.000501884
5.687796e-06
0.0004740191
1.256405e-05
0.0004467634
1.991316e-05
0.0004196493
2.773517e-05
0.0003922966
3.623232e-05
0.0003644374
4.542284e-05
0.0003359572
5.496588e-05
0.0003071587
6.492455e-05
0.0002785339
7.53708e-05
0.0002503083
8.635647e-05
0.0002226612
9.789897e-05
0.0001957421
0.0001099668
0.000169689
0.0001224499
0.0001446872
0.0001351369
0.0001210368
0.0001477701
9.910838e-05
0.0001601728
7.90988e-05
0.000172305
6.093369e-05
0.0001840957
4.440528e-05
0.0001950708
2.951249e-05
0.0002043905
1.666846e-05
0.0002124558
4.946338e-06
0.000219968
-6.793207e-06
0.0002264302
-1.775029e-05
0.0002317479
-2.792646e-05
0.0002358002
-3.730767e-05
0.000238458
-4.591427e-05
0.0002395829
-5.377518e-05
0.0002390299
-6.093911e-05
0.0002367016
-6.749405e-05
0.0002325628
-7.35722e-05
0.0002265225
-7.926266e-05
0.0002184229
-8.46852e-05
0.0002081562
-9.000942e-05
0.0001957077
-9.541976e-05
0.0001810338
-0.0001009711
0.0001642745
-0.0001071606
0.0001458111
-0.0001142143
0.0001262426
-0.0001224852
0.0001061898
-0.0001323921
8.629094e-05
-0.0001443808
6.724212e-05
-0.0001588238
4.968424e-05
-0.0001760208
3.408828e-05
-0.0001963024
2.080056e-05
-0.0002200796
1.011416e-05
-0.0002478442
2.315697e-06
-0.0002800542
-2.508355e-06
-0.000317051
-4.541369e-06
-0.0003590246
-4.762211e-06
-0.0004049718
-4.316576e-06
-0.0004531034
-3.632842e-06
-0.0005024953
-2.85853e-06
-0.0005530038
-2.009684e-06
-0.0006073256
-1.000482e-06
-0.0006702926
-0.0007235692
-5.684651e-06
0.0006741748
-6.63754e-06
0.0006091537
-3.486373e-06
0.0005610693
2.600844e-06
0.0005251922
1.007207e-05
0.0004944127
1.838675e-05
0.0004657044
2.728816e-05
0.0004378621
3.669327e-05
0.0004102444
4.658364e-05
0.0003824064
5.691139e-05
0.0003541099
6.754874e-05
0.0003253201
7.843715e-05
0.0002962706
8.965743e-05
0.000267314
0.0001012532
0.0002387129
0.0001132369
0.0002106778
0.000125589
0.0001833903
0.0001382384
0.0001570399
0.0001510425
0.0001318833
0.0001637867
0.0001082928
0.0001762668
8.662831e-05
0.0001883066
6.705916e-05
0.0001996407
4.959961e-05
0.0002098855
3.416051e-05
0.0002189712
2.042673e-05
0.0002264589
9.180753e-06
0.0002334619
-2.056686e-06
0.0002393827
-1.271406e-05
0.000244071
-2.243861e-05
0.0002473861
-3.124166e-05
0.0002492057
-3.912728e-05
0.000249399
-4.61076e-05
0.0002478419
-5.221811e-05
0.0002444319
-5.752905e-05
0.0002388749
-6.193707e-05
0.0002312332
-6.593041e-05
0.0002214473
-6.947675e-05
0.0002095626
-7.280046e-05
0.000195608
-7.605474e-05
0.0001796747
-7.948626e-05
0.0001619777
-8.327401e-05
0.0001427972
-8.797988e-05
0.0001228493
-9.426617e-05
0.0001027579
-0.0001023937
8.315341e-05
-0.0001127874
6.456414e-05
-0.0001257913
4.745748e-05
-0.0001417169
3.228859e-05
-0.0001608517
1.946722e-05
-0.0001834808
9.306007e-06
-0.0002099182
1.991839e-06
-0.0002405298
-2.420489e-06
-0.0002756417
-4.105996e-06
-0.0003153653
-4.105123e-06
-0.0003590253
-3.691698e-06
-0.0004053851
-3.085961e-06
-0.000453709
-2.42854e-06
-0.0005031525
-1.764292e-06
-0.0005536679
-1.0802e-06
-0.0006080095
-3.435334e-07
-0.0006710291
-0.0007239127
-4.490236e-06
0.0006786647
-4.268811e-06
0.0006089319
3.358978e-07
0.0005564643
7.592236e-06
0.0005179357
1.631569e-05
0.0004856892
2.592477e-05
0.0004560953
3.616751e-05
0.0004276194
4.693057e-05
0.0003994815
5.812964e-05
0.0003712076
6.968323e-05
0.0003425566
8.149188e-05
0.0003135118
9.349995e-05
0.0002842628
0.0001057191
0.0002550952
0.0001181561
0.0002262761
0.0001307925
0.0001980418
0.0001435688
0.0001706142
0.0001563703
0.0001442386
0.0001690111
0.0001192427
0.0001812327
9.60712e-05
0.0001927424
7.511871e-05
0.0002031865
5.661511e-05
0.0002122579
4.052825e-05
0.0002200011
2.641724e-05
0.0002268233
1.360455e-05
0.0002327417
3.262322e-06
0.0002378094
-7.12444e-06
0.0002415834
-1.648805e-05
0.0002439357
-2.479096e-05
0.0002447028
-3.200875e-05
0.0002437581
-3.818262e-05
0.0002409607
-4.331016e-05
0.0002360521
-4.730948e-05
0.0002290908
-5.056774e-05
0.0002199927
-5.28389e-05
0.0002087339
-5.467152e-05
0.0001954238
-5.616659e-05
0.0001802033
-5.757983e-05
0.0001633699
-5.922114e-05
0.0001453783
-6.149453e-05
0.0001269329
-6.482844e-05
0.0001083104
-6.935713e-05
8.998454e-05
-7.594015e-05
7.235674e-05
-8.476565e-05
5.574294e-05
-9.617341e-05
4.048441e-05
-0.0001105326
2.694315e-05
-0.0001281755
1.546159e-05
-0.00014937
6.317e-06
-0.000174336
-3.374371e-07
-0.0002032635
-4.343652e-06
-0.0002365234
-5.955448e-06
-0.0002740297
-6.005357e-06
-0.0003153152
-5.553166e-06
-0.0003594773
-4.860403e-06
-0.0004060777
-4.121807e-06
-0.0004544474
-3.405458e-06
-0.0005038687
-2.680026e-06
-0.0005543932
-1.851478e-06
-0.0006088379
-8.12362e-07
-0.0006720681
-0.0007247251
-4.064973e-06
0.0006827294
-3.48398e-06
0.0006083507
1.490325e-06
0.0005514899
9.310679e-06
0.0005101153
1.876364e-05
0.0004762363
2.920111e-05
0.0004456579
4.03265e-05
0.0004164942
5.199619e-05
0.000387812
6.410912e-05
0.0003590949
7.656676e-05
0.0003300993
8.926788e-05
0.000300811
0.0001021365
0.0002713946
0.0001151266
0.0002421055
0.0001281878
0.0002132152
0.0001412414
0.0001849884
0.0001541653
0.0001576906
0.0001667742
0.0001316299
0.0001787643
0.0001072527
0.0001897282
8.510738e-05
0.0001992429
6.560412e-05
0.0002071047
4.875325e-05
0.0002135564
3.407659e-05
0.0002190156
2.095806e-05
0.0002235325
9.087621e-06
0.0002270949
-3.000428e-07
0.000229407
-9.43655e-06
0.0002302894
-1.737043e-05
0.0002295796
-2.408113e-05
0.0002269052
-2.933438e-05
0.0002222992
-3.357658e-05
0.0002156949
-3.670579e-05
0.0002070335
-3.864795e-05
0.0001963288
-3.9863e-05
0.0001839257
-4.043558e-05
0.0001698731
-4.061881e-05
0.0001544243
-4.071762e-05
0.0001379341
-4.108943e-05
0.0001208595
-4.214637e-05
0.0001036826
-4.43174e-05
8.683505e-05
-4.798069e-05
7.085689e-05
-5.337873e-05
5.584593e-05
-6.092895e-05
4.194436e-05
-7.086385e-05
2.922685e-05
-8.345566e-05
1.783976e-05
-9.914525e-05
8.091466e-06
-0.0001184269
2.949463e-07
-0.0001415732
-5.23099e-06
-0.0001688098
-8.376239e-06
-0.000200118
-9.520137e-06
-0.0002353792
-9.357831e-06
-0.0002741917
-8.66432e-06
-0.0003160084
-7.661563e-06
-0.0003604798
-6.585098e-06
-0.0004071539
-5.568308e-06
-0.000455464
-4.615868e-06
-0.000504821
-3.635056e-06
-0.0005553739
-2.534244e-06
-0.0006099386
-1.282925e-06
-0.0006733193
-0.000726008
-4.276596e-06
0.0006870058
-3.839693e-06
0.0006079137
1.074411e-06
0.0005465757
9.007666e-06
0.000502182
1.873277e-05
0.0004665113
2.955973e-05
0.0004348311
4.116264e-05
0.0004048915
5.337821e-05
0.0003755967
6.608679e-05
0.0003463866
7.916752e-05
0.0003170189
9.249555e-05
0.0002874833
0.0001059558
0.0002579346
0.0001194406
0.000228621
0.0001328257
0.0001998303
0.0001459497
0.0001718646
0.0001585919
0.0001450486
0.0001704162
0.0001198057
0.0001809204
9.674854e-05
0.0001896081
7.641972e-05
0.0001963266
5.888565e-05
0.0002014215
4.365833e-05
0.000205337
3.01611e-05
0.0002081452
1.814985e-05
0.0002096364
7.59641e-06
0.0002102324
-8.959906e-07
0.0002092514
-8.455539e-06
0.0002065431
-1.466213e-05
0.0002020053
-1.954324e-05
0.0001955471
-2.287608e-05
0.0001871554
-2.518485e-05
0.0001769172
-2.64674e-05
0.0001651427
-2.687331e-05
0.0001519441
-2.666431e-05
0.0001376211
-2.611237e-05
0.0001225156
-2.551315e-05
0.0001070031
-2.520488e-05
9.149967e-05
-2.558577e-05
7.640247e-05
-2.704894e-05
6.199951e-05
-2.991421e-05
4.849045e-05
-3.44714e-05
3.613833e-05
-4.102636e-05
2.500669e-05
-4.979705e-05
1.514458e-05
-6.100148e-05
6.55567e-06
-7.486648e-05
-8.085051e-07
-9.178079e-05
-6.774317e-06
-0.0001124608
-1.094272e-05
-0.0001374044
-1.319003e-05
-0.0001665622
-1.375195e-05
-0.0001995558
-1.328117e-05
-0.0002358497
-1.22299e-05
-0.0002752427
-1.082736e-05
-0.0003174107
-9.3169e-06
-0.00036199
-7.873828e-06
-0.0004085968
-6.557607e-06
-0.0004567801
-5.323171e-06
-0.0005060553
-4.072154e-06
-0.0005566248
-2.731697e-06
-0.000611279
-1.301595e-06
-0.0006747493
-0.0007273096
-4.808014e-06
0.0006918138
-4.903245e-06
0.0006080089
-3.855605e-07
0.0005420581
7.307468e-06
0.0004944891
1.693818e-05
0.0004568807
2.780683e-05
0.0004239627
3.956975e-05
0.0003931288
5.20391e-05
0.0003631276
6.50652e-05
0.0003333608
7.849453e-05
0.0003035899
9.216552e-05
0.0002738126
0.0001059101
0.0002441903
0.0001195408
0.0002149905
0.0001328315
0.0001865398
0.0001454992
0.000159197
0.0001571574
0.0001333905
0.0001672387
0.0001097244
0.0001751735
8.881375e-05
0.0001808435
7.074979e-05
0.0001846703
5.505878e-05
0.0001871145
4.121412e-05
0.0001882699
2.90058e-05
0.000188003
1.841675e-05
0.000186157
9.44239e-06
0.0001831544
2.106701e-06
0.0001784536
-3.754625e-06
0.0001719706
-8.179059e-06
0.000163687
-1.125957e-05
0.0001539124
-1.310132e-05
0.0001426477
-1.391997e-05
0.0001301153
-1.393482e-05
0.0001166279
-1.338568e-05
0.0001025143
-1.255051e-05
8.812529e-05
-1.172308e-05
7.382518e-05
-1.12128e-05
5.996812e-05
-1.134756e-05
4.685431e-05
-1.24717e-05
3.470649e-05
-1.490086e-05
2.367968e-05
-1.888713e-05
1.39171e-05
-2.470853e-05
5.467754e-06
-3.257673e-05
-1.630493e-06
-4.269851e-05
-7.381187e-06
-5.52505e-05
-1.186098e-05
-7.038639e-05
-1.524263e-05
-8.839883e-05
-1.755845e-05
-0.0001101447
-1.863809e-05
-0.0001363245
-1.860183e-05
-0.0001665981
-1.772667e-05
-0.0002004306
-1.620433e-05
-0.0002373717
-1.432702e-05
-0.0002771197
-1.235807e-05
-0.0003193793
-1.048286e-05
-0.0003638649
-8.781008e-06
-0.0004102984
-7.246037e-06
-0.0004583149
-5.815374e-06
-0.0005074859
-4.393663e-06
-0.0005580465
-2.903914e-06
-0.0006127688
-1.333833e-06
-0.0006763194
-0.0007286434
-5.335274e-06
0.0006971491
-6.111513e-06
0.0006087852
-2.24126e-06
0.0005381879
4.938997e-06
0.000487309
1.420146e-05
0.0004476184
2.484594e-05
0.0004133184
3.650877e-05
0.0003814662
4.896821e-05
0.0003506684
6.203806e-05
0.0003202912
7.552584e-05
0.0002901023
8.921801e-05
0.0002601206
0.0001028654
0.000230543