# Region type : patch riser
# Faces        : 200
# Area         : 6.7000000e-01
# Scale factor : 1.0000000e+00
# Time         	areaAverage(T)
2100           	3.6870871e+02
2200           	3.6872566e+02
2300           	3.6874132e+02
