# Region type : patch riser
# Faces        : 200
# Area         : 6.7000000e-01
# Scale factor : 1.0000000e+00
# Time         	areaAverage(T)
1100           	3.6843931e+02
1200           	3.6849063e+02
1300           	3.6855349e+02
1400           	3.6859740e+02
1500           	3.6862075e+02
1600           	3.6863392e+02
1700           	3.6864497e+02
