/*--------------------------------*- C++ -*----------------------------------*\
| =========                 |                                                 |
| \\      /  F ield         | OpenFOAM: The Open Source CFD Toolbox           |
|  \\    /   O peration     | Version:  2312                                  |
|   \\  /    A nd           | Website:  www.openfoam.com                      |
|    \\/     M anipulation  |                                                 |
\*---------------------------------------------------------------------------*/
FoamFile
{
    version     2.0;
    format      ascii;
    arch        "LSB;label=32;scalar=64";
    class       volScalarField;
    location    "3900";
    object      alphat;
}
// * * * * * * * * * * * * * * * * * * * * * * * * * * * * * * * * * * * * * //

dimensions      [1 -1 -1 0 0 0 0];

internalField   nonuniform List<scalar> 
12000
(
3.521889e-05
0.0001630117
0.0001708317
0.000170565
0.0001711775
0.0001949621
0.0002310916
0.0002175659
0.0001718947
0.000160546
0.0002056788
0.0002538528
0.0001989471
0.0001543441
0.0001613989
0.0002149753
0.0002257966
0.0001737079
0.0001550954
0.0001759271
0.0001998113
0.0001850247
0.000167677
0.0001682583
0.0001745036
0.0001754066
0.0001738048
0.0001704276
0.0001660361
0.0001656543
0.0001685433
0.000170865
0.0001714504
0.0001664175
0.0001585228
0.000155962
0.0001651549
0.000183613
0.0001788112
0.0001517906
0.0001359433
0.0001463726
0.0001984025
0.0002193099
0.0001440958
0.0001144398
0.0001378819
0.0002309137
0.000237647
0.0001198121
0.0001003597
0.0001498202
0.0002358697
0.0001342753
9.536312e-05
0.0001083735
0.0001123342
8.731577e-05
7.413862e-05
6.012837e-05
2.224712e-05
0.0001982326
0.0002337331
0.0002851727
0.0003262812
0.0003679521
0.0004104461
0.0004595357
0.0005270369
0.0006046991
0.0006639939
0.000704127
0.0007756478
0.0008800888
0.0009725257
0.001012664
0.001055355
0.001151453
0.001264769
0.001332475
0.001368261
0.001434239
0.001526072
0.001604198
0.001660389
0.001713846
0.001768632
0.001824124
0.001880676
0.001926292
0.001951796
0.001969667
0.00198474
0.002008799
0.002033451
0.00204581
0.002032987
0.00200671
0.00199166
0.001990315
0.001981642
0.001927736
0.001835918
0.001761664
0.001359981
0.001688639
0.001580138
0.001440889
0.00114743
0.0009162946
0.001160325
0.001002822
0.0008646274
0.0007314028
0.0006118615
0.0004650466
0.0003289567
0.0002017778
0.0001092015
5.633845e-05
2.977355e-05
0.0002686775
0.0003558905
0.0004355014
0.0005381124
0.0006564836
0.0007836752
0.0009154662
0.001059753
0.001211278
0.001352523
0.001489189
0.001631611
0.001778407
0.001916405
0.002038289
0.002157636
0.002278535
0.002393497
0.00249407
0.002586185
0.002675617
0.002760082
0.002836059
0.002903918
0.002965541
0.003021147
0.00307103
0.003115164
0.00315193
0.003185069
0.003210886
0.003233919
0.003253558
0.003267871
0.003275689
0.003277592
0.003274458
0.003265761
0.003251276
0.003230712
0.003203629
0.003169651
0.003091189
0.003069777
0.002997387
0.002921167
0.002656899
0.002473446
0.002402788
0.002357101
0.002010997
0.001803681
0.001527009
0.001252715
0.001074272
0.0008313661
0.0004691402
0.0001747597
5.523108e-05
2.931895e-05
0.0002972465
0.0004434025
0.0005723299
0.0007342412
0.0009170399
0.001111957
0.001315943
0.001527404
0.001741423
0.001949071
0.002145613
0.002332873
0.002507133
0.002670353
0.002821549
0.002962255
0.003092906
0.003213041
0.003322488
0.003422852
0.003515025
0.003599297
0.003676032
0.003745645
0.003808373
0.003864328
0.003913691
0.003955394
0.003993426
0.004023528
0.004046219
0.004063464
0.004074934
0.004080136
0.004078622
0.004070162
0.004053202
0.004027186
0.003992497
0.003948344
0.003893873
0.003827901
0.003750489
0.003659678
0.003554343
0.003433515
0.003295585
0.003138716
0.002961301
0.002763921
0.002278007
0.001931491
0.001709899
0.001621728
0.001377141
0.00100556
0.0006172778
0.0002562586
5.531726e-05
2.923292e-05
0.0003251193
0.000530007
0.0007094555
0.0009254866
0.001163508
0.001412177
0.001664622
0.001916241
0.002160599
0.002395988
0.002619283
0.002829439
0.003021113
0.003195337
0.003356073
0.003505194
0.003643823
0.00377376
0.003895567
0.00400631
0.004106271
0.004197302
0.004280285
0.004355757
0.004424031
0.004485335
0.004538853
0.004586844
0.004627512
0.004660587
0.004687078
0.004707207
0.004720033
0.00472531
0.004723191
0.004713329
0.004695899
0.004670316
0.004635586
0.004591692
0.004538192
0.004474008
0.004399085
0.004311761
0.004210812
0.004094659
0.003960257
0.00380809
0.003586506
0.003007494
0.002889996
0.002855206
0.002568996
0.002187624
0.001759547
0.001286009
0.0007796954
0.0003115454
5.499896e-05
2.971286e-05
0.0003426852
0.000600673
0.0008227842
0.001078346
0.001354881
0.001639934
0.001924205
0.002201061
0.00246568
0.00271627
0.002952892
0.003178805
0.003388064
0.003580125
0.003754686
0.003913901
0.004059484
0.004193149
0.004315253
0.004429509
0.004537062
0.004637167
0.004729788
0.004815026
0.004892923
0.004963445
0.005024659
0.005081059
0.005128675
0.005168185
0.005199274
0.005222016
0.005236339
0.005241851
0.005238416
0.00522556
0.005202543
0.005169434
0.005125755
0.005070999
0.005004606
0.004925897
0.004833856
0.004726892
0.004603906
0.004463133
0.004300932
0.004121356
0.003914141
0.003674043
0.003397725
0.00308614
0.002738428
0.002348648
0.001909209
0.001418156
0.0008874264
0.0003726167
5.492125e-05
3.020412e-05
0.0003546674
0.0006606636
0.000918502
0.001200475
0.001499062
0.001803132
0.002105159
0.002399526
0.002683786
0.002950355
0.003197872
0.00342468
0.003637134
0.003835413
0.004019054
0.004187882
0.00434362
0.004488264
0.004623511
0.0047507
0.004870441
0.004982852
0.005087912
0.005185515
0.005275471
0.005356827
0.005430653
0.005496445
0.005553169
0.00560066
0.005638473
0.00566654
0.005684817
0.005692374
0.005689241
0.005675137
0.005649851
0.005613056
0.00556442
0.005503569
0.005430039
0.005343231
0.005242354
0.005126502
0.004994434
0.004845281
0.004674519
0.00448372
0.004265063
0.004015381
0.003730741
0.003405357
0.003032331
0.002604941
0.002119003
0.0015746
0.0009844496
0.0004125493
5.483265e-05
3.101889e-05
0.0003519365
0.0007018945
0.0009899683
0.001288715
0.001603001
0.001923595
0.002239513
0.002544089
0.002831513
0.003103094
0.003356814
0.003592545
0.003811764
0.0040166
0.004209027
0.004389613
0.004558833
0.004717794
0.004867801
0.005009821
0.005144365
0.005271579
0.005391368
0.005503473
0.005607517
0.005701035
0.005788122
0.005865328
0.005932295
0.005988642
0.006033866
0.0060681
0.006090753
0.006101294
0.006099315
0.006084455
0.006056394
0.006014815
0.00595938
0.005889706
0.005805344
0.005705744
0.005590243
0.005457971
0.005308283
0.00513994
0.004949239
0.004736309
0.004495996
0.004224225
0.003916555
0.003567946
0.00317479
0.002730124
0.002228546
0.001667815
0.00105706
0.0004539265
5.478834e-05
3.253335e-05
0.0003559522
0.0007335465
0.001046205
0.001360848
0.001682937
0.002007028
0.002326113
0.002634028
0.002926991
0.00320378
0.003463846
0.003707588
0.00393606
0.004150543
0.0043532
0.004545978
0.004729615
0.004904516
0.005071149
0.005229965
0.005381201
0.005524853
0.005660729
0.005788472
0.005907445
0.00601607
0.006115732
0.006204446
0.006281566
0.00634655
0.006399432
0.006439812
0.006466896
0.006480054
0.006478794
0.006462706
0.006431437
0.00638467
0.0063221
0.006243415
0.006148275
0.006036295
0.005906966
0.005759887
0.005594553
0.005408324
0.005197646
0.004964405
0.004706862
0.004422136
0.004104946
0.003747574
0.003340085
0.002875698
0.002349244
0.001759023
0.001116037
0.0004816282
5.472613e-05
3.267666e-05
0.0003563948
0.000749642
0.001085042
0.00140752
0.001733334
0.002059305
0.002379732
0.002689744
0.002986365
0.003268303
0.003535275
0.00378776
0.004026741
0.004253419
0.004469058
0.004675226
0.004873561
0.005064738
0.005248654
0.005424979
0.005593302
0.005753061
0.005903445
0.006044172
0.006175859
0.006298247
0.006410346
0.006510968
0.006599236
0.006674288
0.006735001
0.006781114
0.006811937
0.006826875
0.00682542
0.00680714
0.006771663
0.00671867
0.00664788
0.006559048
0.006451957
0.006326428
0.006181838
0.006016739
0.005830994
0.005625612
0.005398212
0.005149675
0.004875614
0.004572748
0.004236487
0.003861112
0.003438051
0.00295899
0.002419769
0.001817342
0.001160585
0.0005074033
5.46441e-05
3.279567e-05
0.0003502241
0.0007587637
0.001114106
0.001445779
0.001773288
0.002098035
0.002416802
0.00272634
0.003024472
0.00331013
0.003583117
0.003843945
0.00409356
0.00433304
0.004563374
0.004784431
0.00499578
0.005198408
0.00539469
0.005584411
0.005767281
0.005942924
0.006110979
0.006270451
0.006417501
0.006554442
0.006678997
0.006790332
0.006887584
0.006969918
0.007036633
0.007087165
0.007120626
0.007136338
0.00713375
0.007112406
0.007071924
0.007011981
0.006932295
0.00683261
0.006712687
0.006572286
0.006411697
0.006231687
0.006030948
0.005808322
0.005562021
0.005293718
0.005001959
0.004685217
0.004338887
0.003954463
0.00352293
0.003036677
0.002485817
0.001868292
0.001194444
0.0005246025
5.459266e-05
3.522966e-05
0.0003353339
0.0007548832
0.001126168
0.001464839
0.0017928
0.002115888
0.002433403
0.002743051
0.003043048
0.003332628
0.003611906
0.00388131
0.004141009
0.004391014
0.004629726
0.004860693
0.005085727
0.005305278
0.005517896
0.005723773
0.005922501
0.006113331
0.006295348
0.006467457
0.006627693
0.006776311
0.006911464
0.00703206
0.007137057
0.007225468
0.007296402
0.007349079
0.007382979
0.007397607
0.007392495
0.007367227
0.007321447
0.007254853
0.007167197
0.007058269
0.006927879
0.006775831
0.006601873
0.006405874
0.006187831
0.005947991
0.005569218
0.005153485
0.004833133
0.004611837
0.004401043
0.00401412
0.003578393
0.003084777
0.002526168
0.001901185
0.001219171
0.0005389694
5.44973e-05
3.557614e-05
0.0003271437
0.0007458514
0.001128161
0.001473911
0.001803109
0.0021242
0.002438773
0.002746289
0.003046028
0.003337336
0.003619295
0.003890083
0.004032826
0.004139126
0.004289215
0.004496789
0.004761071
0.005066567
0.005381076
0.005682892
0.00600513
0.006262626
0.006456392
0.0066394
0.006810005
0.006967425
0.007110344
0.007237635
0.007348245
0.007441207
0.007515664
0.007570842
0.007605943
0.007620288
0.007613297
0.007584485
0.007533461
0.007459924
0.007363668
0.00724457
0.007102588
0.006937756
0.006750143
0.006539971
0.006192586
0.005771927
0.005363937
0.005010987
0.004737142
0.00452612
0.004347491
0.004056276
0.003619558
0.003122674
0.002559847
0.001927689
0.001236854
0.0005481566
5.445119e-05
3.606842e-05
0.0003172306
0.0007339393
0.001126439
0.001478198
0.001808459
0.002127694
0.002439591
0.002744829
0.003042768
0.003332108
0.003598884
0.003753088
0.003906738
0.004046823
0.004200617
0.00436544
0.004549829
0.004777882
0.005050891
0.005351835
0.005665658
0.006008111
0.006380673
0.006760256
0.006949424
0.007114456
0.007264468
0.007398081
0.007514149
0.00761158
0.007689355
0.007746555
0.007782331
0.007795935
0.007786745
0.007754262
0.007698115
0.007618061
0.007513984
0.007385881
0.007233819
0.007058136
0.006792904
0.006383572
0.005953199
0.005560264
0.005204826
0.004892736
0.004623866
0.004434504
0.004297096
0.004084574
0.003647403
0.003148693
0.002581607
0.001944932
0.001249406
0.0005552972
5.437072e-05
3.665073e-05
0.0003080864
0.0007197414
0.001116787
0.001474873
0.001807476
0.002126004
0.00243567
0.002738041
0.003032932
0.003319272
0.003572498
0.003738037
0.003855885
0.003973037
0.004103944
0.004268823
0.004467715
0.004679167
0.004923599
0.005219157
0.005532529
0.005846271
0.006160431
0.006471373
0.006789319
0.007104247
0.007377412
0.007516492
0.007637462
0.00773893
0.00781969
0.007878725
0.007915124
0.007928069
0.007916917
0.007881171
0.007820471
0.007734639
0.007623708
0.007487962
0.007236852
0.006912741
0.006568413
0.00620748
0.00583018
0.005442248
0.00507723
0.004770109
0.004537815
0.004368459
0.004228973
0.004063355
0.003665883
0.003166485
0.002597525
0.001957512
0.001257611
0.0005593369
5.429864e-05
3.72054e-05
0.0003002332
0.0007045358
0.001105372
0.0014674
0.001801652
0.002119253
0.0024263
0.002725291
0.003016782
0.003300318
0.003569751
0.003714954
0.003822175
0.003940392
0.004089926
0.004259751
0.004434903
0.004642328
0.004876394
0.005128607
0.005410184
0.005710523
0.006019726
0.006324663
0.006615205
0.006888413
0.007144585
0.007381413
0.007599047
0.007789369
0.007910264
0.007971223
0.008008408
0.008020953
0.008008266
0.007969917
0.007864437
0.007710873
0.007521416
0.00729862
0.007040211
0.006744372
0.006413911
0.006058932
0.005695972
0.005342293
0.005010676
0.004708216
0.004456928
0.004277211
0.004172353
0.00404668
0.003678045
0.00317831
0.002607817
0.001965623
0.001263012
0.0005616044
5.426011e-05
3.767791e-05
0.0002933748
0.0006895336
0.001090636
0.001455499
0.001791705
0.002108917
0.002413759
0.00270958
0.002997666
0.003278075
0.003549925
0.003710067
0.003836427
0.003961093
0.004091971
0.004244576
0.004435794
0.004646205
0.004879088
0.005125932
0.005395313
0.00567176
0.005950228
0.006226292
0.006496079
0.006754427
0.006993678
0.007209223
0.007403914
0.007585608
0.007768549
0.007971228
0.007997513
0.007889611
0.007835357
0.007777663
0.007687918
0.007555901
0.007380511
0.007161912
0.006901163
0.006603903
0.006279872
0.00593906
0.005591658
0.005249649
0.004927658
0.004642097
0.004408648
0.004239456
0.004125246
0.004003845
0.003686547
0.003187563
0.002616339
0.001972274
0.001267862
0.0005637472
5.418209e-05
3.80426e-05
0.0002875591
0.0006752163
0.001074934
0.001442042
0.001779129
0.002095775
0.002398613
0.002691528
0.002976398
0.003253775
0.003523339
0.003711653
0.003847148
0.003976578
0.004117625
0.004276901
0.004454379
0.004661722
0.004894849
0.005150813
0.005406766
0.005669073
0.005932512
0.00619163
0.006442271
0.006681378
0.006905761
0.007112633
0.007302339
0.007481187
0.007667612
0.007890204
0.007935744
0.007820724
0.007754783
0.007689466
0.007597526
0.007465096
0.007288145
0.007067585
0.006806869
0.006512016
0.006191788
0.005856825
0.005518385
0.005187362
0.004874469
0.004592069
0.00435661
0.004186112
0.004079988
0.003976175
0.003689987
0.003190911
0.002618815
0.001974015
0.001268408
0.0005638903
5.414333e-05
3.835333e-05
0.0002828906
0.000662189
0.00105877
0.001426333
0.001764362
0.002080595
0.002381807
0.002672292
0.002954475
0.00322949
0.003497703
0.003734675
0.003886655
0.004024082
0.004167779
0.004328592
0.00451308
0.004725224
0.004955566
0.005199823
0.00544906
0.005702134
0.005952541
0.006197047
0.006433565
0.006660051
0.006873657
0.0070718
0.007255142
0.007431957
0.00762436
0.007872684
0.007946976
0.007830069
0.0077449
0.007664698
0.007565497
0.00742989
0.007249327
0.007023047
0.006755884
0.00645639
0.00613511
0.005802895
0.005469862
0.005145411
0.004839286
0.004563026
0.004332311
0.00416347
0.00405704
0.003958176
0.003693293
0.0031944
0.002621918
0.00197627
0.001270061
0.0005648699
5.409764e-05
3.857869e-05
0.0002794661
0.0006507084
0.00104324
0.001410093
0.001748261
0.002064119
0.002364056
0.002652657
0.002932818
0.003206217
0.003473798
0.003735861
0.003943071
0.004095529
0.004249136
0.004417002
0.004604492
0.00481264
0.005040638
0.005281402
0.005529767
0.005774758
0.006013422
0.006244359
0.006467246
0.00668174
0.00688638
0.007078681
0.00725754
0.007429754
0.007620673
0.007879164
0.00797938
0.007871238
0.007772772
0.007676583
0.007563718
0.007417192
0.007227152
0.00699223
0.006717754
0.006413198
0.006089803
0.005758583
0.00542913
0.005109662
0.004808446
0.004535776
0.004307145
0.004139867
0.004036523
0.003945105
0.003694056
0.003195098
0.002622217
0.001976113
0.001269761
0.000564444
5.403833e-05
3.881309e-05
0.0002770147
0.0006405416
0.001028063
0.001393427
0.001731396
0.002046826
0.002345807
0.002633033
0.00291173
0.003183972
0.003451064
0.003714349
0.003974983
0.004190897
0.004354516
0.004527365
0.00472073
0.004933005
0.005159832
0.005395798
0.005635368
0.005871505
0.006099863
0.006318383
0.006527616
0.006728919
0.006922935
0.007109374
0.007286537
0.007450857
0.007614465
0.007852669
0.00803591
0.007958924
0.00780388
0.00769098
0.007567848
0.007412274
0.007213515
0.006970269
0.006688709
0.006379315
0.006053934
0.005723522
0.00539701
0.005081657
0.004784799
0.00451589
0.004289849
0.004123791
0.004021201
0.003933311
0.003694337
0.003195246
0.002621851
0.001975718
0.001269425
0.0005643473
5.401123e-05
3.898893e-05
0.0002758168
0.0006324884
0.001014865
0.001377631
0.001714596
0.002029434
0.002327627
0.002613855
0.002891571
0.003163184
0.003430382
0.003694454
0.003956345
0.004218046
0.004480106
0.004670285
0.004858453
0.005067122
0.005295733
0.005531826
0.005767545
0.005993308
0.006209811
0.006414767
0.006609277
0.006795762
0.006976244
0.007151498
0.007321961
0.007489111
0.007657059
0.007834462
0.008022586
0.008018716
0.007854247
0.007719951
0.007579942
0.007411366
0.007202381
0.006951056
0.006663356
0.006350004
0.006023099
0.005693479
0.005369523
0.005057692
0.004764534
0.004498843
0.004275275
0.004111089
0.004010479
0.003926157
0.003693999
0.003194782
0.002621106
0.001974567
0.001268241
0.0005635489
5.394684e-05
3.922588e-05
0.0002754184
0.0006256818
0.001002093
0.001362179
0.001697929
0.002012108
0.002309694
0.002595269
0.002872421
0.003143803
0.003411369
0.00367662
0.003940763
0.004204877
0.004469525
0.004735533
0.005003533
0.005246924
0.005459999
0.005678664
0.005904144
0.006130593
0.006342163
0.006535346
0.006712773
0.00688066
0.007043909
0.007204749
0.007363026
0.007518573
0.007675904
0.007847415
0.008038358
0.008049197
0.007890534
0.007747176
0.007594211
0.007413608
0.007194717
0.00693563
0.006642266
0.006325446
0.005997307
0.005668455
0.005346744
0.005037978
0.004748108
0.004485413
0.00426423
0.004101704
0.004002348
0.003920123
0.003693202
0.003193534
0.002619565
0.001972911
0.001266927
0.0005630287
5.393237e-05
3.940964e-05
0.0002757779
0.0006205603
0.0009914033
0.001348092
0.001682158
0.001995468
0.002292489
0.002577636
0.002854549
0.003126042
0.003394256
0.003660837
0.003927063
0.004193908
0.004462008
0.004731705
0.005002899
0.00527481
0.005546014
0.005815964
0.006067697
0.006277898
0.006471694
0.006652261
0.006817197
0.00696896
0.007114142
0.007258618
0.007404083
0.007549887
0.007697358
0.007853761
0.00803556
0.008063705
0.007921892
0.007773775
0.007609364
0.007417436
0.00718917
0.006922823
0.006624267
0.006304354
0.005975181
0.005647067
0.005327366
0.005021307
0.004734355
0.004474425
0.004255665
0.004095165
0.003997574
0.003917247
0.003692718
0.003192714
0.002618229
0.001971283
0.001265382
0.0005620424
5.387502e-05
3.977049e-05
0.000276939
0.0006167497
0.0009819464
0.001334994
0.001667175
0.001979579
0.002276177
0.002561187
0.002838248
0.003110278
0.00337955
0.003647813
0.003916383
0.004186189
0.004457767
0.004731248
0.005006318
0.005282158
0.005557484
0.005830659
0.006099477
0.006361364
0.006612138
0.006781973
0.006926404
0.007059088
0.007185972
0.007313289
0.007444369
0.007578256
0.007714163
0.007858752
0.008032977
0.008075061
0.007946723
0.007795664
0.007623723
0.00742299
0.007186427
0.006913222
0.006609689
0.006286841
0.005956686
0.005629212
0.005311276
0.005007595
0.004723226
0.004465823
0.004249367
0.004090793
0.003994657
0.003915429
0.003692128
0.003191551
0.002616507
0.001969364
0.001263829
0.0005614129
5.387075e-05
3.959697e-05
0.0002785116
0.0006138957
0.000973862
0.001323482
0.001653625
0.001965036
0.002261285
0.0025464
0.00282399
0.003097031
0.00336788
0.003638352
0.003909781
0.004183045
0.004458574
0.00473634
0.005015849
0.005296118
0.005575698
0.005852717
0.006124935
0.006389848
0.006644825
0.00688713
0.007068737
0.007182294
0.00728165
0.007385012
0.007498298
0.00762084
0.007748303
0.007874919
0.007991934
0.008078446
0.008006189
0.007818305
0.007635312
0.007429037
0.007186618
0.006907403
0.006598966
0.006273058
0.005941759
0.00561471
0.005298256
0.004996621
0.004714512
0.004459415
0.004245209
0.004088706
0.003994255
0.003915934
0.003692077
0.003190771
0.002615148
0.001967744
0.001262301
0.0005604173
5.382362e-05
4.073727e-05
0.0002793044
0.000604708
0.0009672544
0.00131311
0.001641248
0.00195178
0.002247928
0.002533538
0.002812174
0.003086843
0.003359953
0.003633349
0.003908347
0.004185754
0.004465867
0.00474849
0.005032929
0.005318003
0.005602074
0.005883111
0.006158765
0.006426452
0.006683459
0.006927036
0.007154487
0.007315885
0.007401224
0.007477627
0.00756626
0.007670257
0.007783961
0.007898097
0.008000882
0.008080397
0.008021679
0.007844268
0.00765655
0.007441703
0.007191057
0.006905036
0.006591578
0.0062626
0.005930081
0.005603288
0.005288061
0.004988167
0.004708011
0.004454977
0.004242866
0.00408833
0.003995369
0.003917411
0.003692184
0.00319023
0.00261405
0.001966102
0.001260804
0.0005596679
5.382655e-05
4.107366e-05
0.0002819134
0.000594048
0.0009627605
0.001304602
0.001630628
0.001940355
0.002236653
0.002523188
0.002803463
0.003080478
0.00335665
0.003633809
0.003913209
0.004195541
0.004480941
0.00476901
0.005058837
0.005349022
0.005637728
0.005922753
0.006201611
0.006471653
0.006730137
0.006974322
0.007201579
0.007409924
0.007531271
0.007592593
0.007655086
0.007735221
0.007830174
0.00792846
0.00801675
0.008089396
0.008039242
0.007869445
0.007678865
0.007457262
0.007199059
0.006906259
0.006587645
0.006255454
0.005921547
0.005594785
0.005280512
0.004982074
0.004703605
0.004452428
0.004242301
0.004089759
0.003998422
0.003920745
0.003692557
0.003189754
0.002613066
0.001964844
0.001259557
0.0005588631
5.379134e-05
4.147963e-05
0.0002842919
0.0005834312
0.0009591998
0.001297275
0.001621391
0.001930643
0.002227566
0.002515649
0.002798314
0.003078529
0.003358678
0.003640526
0.003925216
0.00421328
0.004504647
0.004798693
0.005094265
0.005389727
0.005683033
0.005971823
0.00625352
0.006525287
0.006784544
0.007028591
0.007255028
0.007461264
0.007645287
0.00772175
0.007762793
0.007816284
0.007888238
0.007968154
0.008044099
0.008104879
0.008054274
0.007893039
0.0077024
0.007475481
0.007210078
0.00691046
0.006586586
0.006251112
0.005915787
0.005589008
0.005275555
0.004978344
0.004701287
0.004451717
0.004243376
0.004092635
0.004002658
0.003924933
0.003693991
0.003190149
0.002612569
0.0019639
0.001258371
0.0005581718
5.379827e-05
4.179373e-05
0.0002871397
0.0005756913
0.0009516925
0.001291979
0.001614222
0.001923232
0.00222123
0.002511507
0.002797368
0.003081698
0.003366784
0.003654264
0.003945111
0.004239641
0.004537541
0.004837927
0.005139392
0.005440071
0.005737726
0.006029878
0.006313559
0.006586555
0.006845895
0.007088984
0.007313648
0.007517217
0.007697998
0.007839555
0.007878466
0.007909517
0.007957776
0.008018919
0.008078264
0.008122771
0.008070786
0.007917951
0.007727729
0.007496251
0.007224249
0.006918162
0.006589181
0.006250356
0.005913282
0.00558588
0.005272639
0.004976275
0.004700458
0.004452395
0.004245774
0.004096837
0.004008374
0.003930588
0.003695917
0.003190991
0.002612383
0.001963109
0.001257503
0.0005575534
5.377125e-05
4.204842e-05
0.0002896816
0.0005678018
0.0009375833
0.001287987
0.001608688
0.001918003
0.00221778
0.002511099
0.002801116
0.003090581
0.003381632
0.003675717
0.003973579
0.00427527
0.004580193
0.004887184
0.005194571
0.005500261
0.005801739
0.006096291
0.006381788
0.006655143
0.006913725
0.007155093
0.007376903
0.007577133
0.007754045
0.007906189
0.007987984
0.008011151
0.008038057
0.008078173
0.008119873
0.00814677
0.008090912
0.00794478
0.007754896
0.007519297
0.007240988
0.006928322
0.006593728
0.006251065
0.005912479
0.005585139
0.005272799
0.004977282
0.004702324
0.00445537
0.004250215
0.004102811
0.004015451
0.003937081
0.003698488
0.003192395
0.002612821
0.001962874
0.001256776
0.0005570201
5.377873e-05
4.24008e-05
0.0002925973
0.000561831
0.0009255841
0.001286154
0.001605789
0.001915746
0.002217941
0.002515139
0.002810274
0.003105885
0.00340388
0.003705449
0.004011044
0.00432041
0.004632641
0.004946281
0.005259361
0.00556923
0.005873945
0.006170946
0.006457219
0.006730112
0.006987096
0.007225942
0.007444332
0.007640536
0.007813002
0.007960473
0.008081982
0.008115187
0.008126842
0.00814705
0.00816991
0.008177768
0.008116221
0.007975095
0.007784925
0.007545285
0.007261219
0.00694325
0.006604823
0.006260089
0.005919646
0.005590045
0.005275628
0.004980506
0.004706689
0.00446105
0.004256921
0.00411066
0.004024758
0.003946575
0.00370168
0.00319431
0.002613615
0.001962821
0.001256482
0.0005566419
5.376108e-05
4.246941e-05
0.0002954039
0.0005559103
0.0009119195
0.001285349
0.001604668
0.001916117
0.002221586
0.002523628
0.002824916
0.003127709
0.003433619
0.003743508
0.004057485
0.004374944
0.004694604
0.005014338
0.005332397
0.005646791
0.005954449
0.006252735
0.006538968
0.006810585
0.007065193
0.007300751
0.007515095
0.007706714
0.007874251
0.008016633
0.008133056
0.008207103
0.008216338
0.00822019
0.008224182
0.008212483
0.008143884
0.008006501
0.007816029
0.007573165
0.007284296
0.00696036
0.006614875
0.006263408
0.005919432
0.005591234
0.005280241
0.004986205
0.00471238
0.004466743
0.004263592
0.004119039
0.004033206
0.003952836
0.003705308
0.003196723
0.002614966
0.001963273
0.001256354
0.0005562738
5.376892e-05
4.267438e-05
0.0002982487
0.0005519507
0.0009039539
0.001286233
0.001605884
0.001920028
0.002229641
0.00253755
0.002846091
0.003157184
0.003472065
0.003791187
0.004113992
0.004439145
0.00476551
0.005091648
0.005414865
0.005732552
0.006042079
0.0063408
0.006626141
0.006895677
0.007147216
0.007378728
0.007588508
0.007775119
0.0079374
0.008074458
0.008185651
0.008270567
0.008300052
0.008296459
0.008285201
0.008255107
0.008177875
0.008040816
0.007847495
0.007599403
0.007303668
0.006972643
0.006623063
0.006270208
0.005925968
0.00559626
0.005284233
0.004990012
0.004717122
0.004472987
0.004270968
0.00412612
0.004040254
0.003959806
0.003709397
0.003199497
0.002616551
0.001963884
0.001256255
0.0005561151
5.377259e-05
4.291615e-05
0.000300792
0.0005479817
0.0008926109
0.001287935
0.001609008
0.001926635
0.002242134
0.002557197
0.002874194
0.003194529
0.003518673
0.003846135
0.004177277
0.004510933
0.004844888
0.005176771
0.005504173
0.005824524
0.006135205
0.006433646
0.006717403
0.006984215
0.007232063
0.007459142
0.007663952
0.007845252
0.008002065
0.008133666
0.008239559
0.00831945
0.008373223
0.008368201
0.008346773
0.008301253
0.008213276
0.008073982
0.007878224
0.007626603
0.007326574
0.006991832
0.006638777
0.006283091
0.005936129
0.005604548
0.005291101
0.004996782
0.004723824
0.004479652
0.004278274
0.004135996
0.004052653
0.003971246
0.003714177
0.003202861
0.002618682
0.001964989
0.001256625
0.0005561171
5.377372e-05
4.317382e-05
0.0003035705
0.0005457152
0.0008864582
0.001292016
0.001615679
0.001937705
0.002259296
0.002582435
0.002908263
0.003237951
0.003571915
0.003910103
0.004250647
0.004592068
0.004932337
0.005269118
0.005599898
0.005922087
0.006233116
0.006530524
0.006811987
0.007075483
0.00731915
0.007541412
0.007740963
0.007916754
0.008067984
0.008194082
0.008294679
0.00836959
0.008418776
0.008438703
0.008416831
0.008359494
0.00825829
0.008113299
0.007914106
0.007658575
0.007353641
0.007013452
0.006655199
0.00629562
0.005946506
0.005614343
0.005300752
0.005006219
0.004733233
0.004489192
0.0042879
0.004145277
0.00406169
0.003980256
0.003719156
0.003206428
0.00262099
0.001966239
0.001257069
0.0005561647
5.378468e-05
4.345449e-05
0.0003062496
0.0005444111
0.0008794984
0.001297163
0.001624083
0.001951634
0.002280773
0.002612801
0.00294882
0.00328914
0.003633559
0.003981179
0.004330412
0.004679299
0.005025583
0.005366805
0.005700404
0.006023817
0.006334575
0.00663036
0.006909019
0.007168751
0.007407891
0.007625073
0.00781919
0.007989379
0.008135005
0.008255633
0.008351009
0.008421031
0.008465722
0.008485208
0.00847969
0.008420977
0.008308625
0.008156608
0.007952579
0.007692357
0.007382274
0.007036954
0.006674537
0.006311719
0.005960313
0.005626351
0.005311506
0.005016141
0.004742608
0.00449835
0.004297378
0.004155626
0.004072736
0.003990023
0.00372473
0.003210516
0.002623724
0.001967805
0.001257748
0.0005563654
5.379595e-05
4.371797e-05
0.0003088482
0.0005431962
0.0008737883
0.001303469
0.001634664
0.001968759
0.002306351
0.002648259
0.002994931
0.003346184
0.003701206
0.004058595
0.004416458
0.004772556
0.005124443
0.005469561
0.005805348
0.006129327
0.00643917
0.006732744
0.007008122
0.007263677
0.007497983
0.007709887
0.00789847
0.008063035
0.008203089
0.008318318
0.008408563
0.008473795
0.008514088
0.008529596
0.008520531
0.008471515
0.008353885
0.008197074
0.007988927
0.007724419
0.007409594
0.007059502
0.006692946
0.006327031
0.005973609
0.005638426
0.005322769
0.005026763
0.004752697
0.004508068
0.004306994
0.004165504
0.004083096
0.004000003
0.003730609
0.003214911
0.002626741
0.001969588
0.001258521
0.0005565314
5.380615e-05
4.401054e-05
0.0003113404
0.0005427997
0.0008689834
0.001307862
0.001648024
0.001989646
0.002336715
0.002689392
0.003047442
0.003410045
0.003775816
0.004142883
0.004509013
0.004871737
0.005228497
0.005576725
0.005913934
0.006237779
0.006546106
0.006836841
0.007108546
0.007359643
0.007588939
0.007795472
0.007978498
0.008137476
0.00827204
0.008381984
0.008467232
0.008527818
0.008563856
0.008575522
0.008563032
0.008522947
0.008402293
0.008241446
0.008028662
0.007759004
0.007438867
0.007083866
0.006713272
0.006344349
0.005988809
0.005652125
0.005335314
0.005038341
0.004763451
0.004518234
0.004316958
0.00417568
0.004093553
0.004009745
0.003736751
0.003219533
0.002629955
0.001971539
0.001259429
0.000556757
5.381876e-05
4.432159e-05
0.0003137644
0.0005433064
0.0008653749
0.001304974
0.001664434
0.002014318
0.002371674
0.002735823
0.003105736
0.003479898
0.003856348
0.004232784
0.004606681
0.004975413
0.005336376
0.005687043
0.006025032
0.006348156
0.006654445
0.006942064
0.007209762
0.007456196
0.007680367
0.007881495
0.008058996
0.008212469
0.008341667
0.008446479
0.0085269
0.008583012
0.008614959
0.008622927
0.008607129
0.008567795
0.008451459
0.008288807
0.008071344
0.007795961
0.007470085
0.00710994
0.006735152
0.006363087
0.006005311
0.005667014
0.005348921
0.005050824
0.004774929
0.004528919
0.004327215
0.004185974
0.004104117
0.004019763
0.003743229
0.003224493
0.002633489
0.001973762
0.00126052
0.0005570625
5.382538e-05
4.464416e-05
0.0003161551
0.0005444741
0.0008626206
0.001302413
0.001683651
0.002042643
0.002411002
0.002787154
0.003169226
0.003554987
0.003941924
0.004327343
0.004708484
0.005082619
0.005447147
0.005799624
0.006137813