/*--------------------------------*- C++ -*----------------------------------*\
| =========                 |                                                 |
| \\      /  F ield         | OpenFOAM: The Open Source CFD Toolbox           |
|  \\    /   O peration     | Version:  2312                                  |
|   \\  /    A nd           | Website:  www.openfoam.com                      |
|    \\/     M anipulation  |                                                 |
\*---------------------------------------------------------------------------*/
FoamFile
{
    version     2.0;
    format      ascii;
    arch        "LSB;label=32;scalar=64";
    class       volScalarField;
    location    "3900";
    object      G;
}
// * * * * * * * * * * * * * * * * * * * * * * * * * * * * * * * * * * * * * //

dimensions      [1 0 -3 0 0 0 0];

internalField   nonuniform List<scalar> 
12000
(
19361.46
17594.75
16822.19
16279.12
15751.44
15243.61
14830.22
14547.19
14372.68
14261.2
14179.2
14118.4
14087.66
14092.44
14117.66
14128.36
14088.35
13982.32
13824.62
13649.81
13493.43
13375.78
13297.07
13243.31
13196.8
13144.71
13082.35
13011.63
12937.3
12863.49
12791.97
12722.09
12651.81
12578.97
12502.37
12422.28
12340.24
12258.62
12180.21
12108.14
12045.76
11996.51
11963.46
11948.56
11952.57
11974.41
12010.27
12053.57
12096.91
12133.52
12158.75
12169.97
12165.67
12146.61
12113.58
12063.31
11990.05
11886.63
11765.02
11554.66
21076.63
19918.64
18999.53
18187.28
17400.77
16726.57
16243.82
15924.95
15690.78
15481.36
15280.91
15106.64
14981.57
14908.01
14858.68
14791.96
14678.27
14516.75
14331.51
14153.53
14002.48
13879.47
13771.76
13663.35
13543.92
13411.94
13272.61
13133.23
12999.4
12873.37
12754.45
12640.67
12530.32
12423.05
12320.12
12224.04
12137.98
12065
12007.51
11966.84
11943.23
11936.08
11944.35
11966.7
12001.23
12044.84
12092.78
12138.8
12176.09
12198.28
12200.35
12179.43
12135.63
12072.43
11995.47
11909.18
11814.32
11704.17
11587.81
11422.1
21436.07
20676.3
19799.1
18993.43
18292.84
17708.84
17241.04
16854.93
16511.17
16193.88
15916.36
15705.99
15577.05
15510.71
15459.8
15375.45
15234.11
15045.33
14838.77
14643.23
14472.44
14323.6
14185.26
14046.93
13904.49
13760.17
13619.14
13485.79
13361.73
13245.96
13136.18
13030.47
12928.23
12830.48
12739.41
12657.72
12588.01
12532.23
12491.33
12464.94
12451.3
12447.63
12450.84
12458.18
12467.32
12475.97
12481.31
12479.78
12467.36
12440.26
12395.5
12331.53
12248.97
12151.37
12045.43
11938.63
11834.4
11725.15
11617.05
11468.54
21401.35
20893.29
20009.26
19186.19
18636.55
18244.94
17854.18
17415.37
16966.22
16568.23
16271.48
16095.86
16017.76
15974.97
15895.89
15735.76
15494.88
15209.36
14925.53
14676.6
14473.52
14309.85
14172.73
14051.98
13943.33
13846.83
13763.39
13692.21
13630.34
13573.67
13518.62
13463.32
13407.98
13354.51
13305.57
13263.74
13230.9
13207.97
13194.65
13189.33
13188.95
13189.47
13186.7
13177.22
13158.88
13130.61
13091.85
13041.84
12979.26
12902.56
12810.67
12703.75
12583.66
12454.26
12321.52
12191.32
12066.15
11938.96
11825.73
11663.07
21148.74
20831.68
20002.85
19168.63
18667.74
18376.19
18066.35
17658.4
17210.29
16819.1
16551.47
16413.23
16350.37
16279.62
16133.32
15891.06
15580.54
15253.04
14954.01
14706
14508.86
14350.32
14217.49
14102.92
14004.58
13922.7
13856.56
13803.38
13758.92
13719.15
13681.69
13646.41
13615.12
13590.53
13575.11
13570.21
13575.69
13589.98
13610.31
13632.82
13652.8
13665.08
13664.84
13648.49
13614.33
13562.68
13495.32
13414.41
13321.46
13217.35
13103.1
12980.76
12853.22
12723.36
12593.36
12464
12336.78
12210.96
12113.38
11968.16
20904.57
20669.46
19983.39
19184.56
18569.75
18174.85
17890.1
17611.07
17312.82
17033.13
16813.44
16653.94
16512.12
16336.24
16102.02
15825.29
15546.4
15303.07
15111.29
14963.39
14838.94
14718.4
14591.23
14456.64
14319.45
14185.27
14057.6
13937.6
13825.38
13721.55
13628.14
13548.52
13486.51
13445.15
13425.68
13426.97
13445.64
13476.6
13513.78
13550.71
13581.07
13599.02
13599.77
13580.12
13539.18
13478.75
13402.9
13316.63
13224.24
13128.7
13032.22
12937.01
12844.85
12755.44
12665.84
12572.74
12479.17
12393.55
12341.75
12265.09
20834.29
20520.37
19955.12
19184.04
18381.22
17788.78
17476.61
17332.55
17227.72
17108.33
16968.83
16800.81
16584.13
16311.24
16005.65
15713.89
15479.4
15320.03
15222.9
15155.91
15085.29
14988.52
14858.18
14698.47
14518.87
14329.09
14136.78
13947.74
13767
13599.79
13451.71
13328.1
13233.06
13168.49
13133.61
13124.92
13136.72
13161.89
13192.89
13222.54
13244.64
13254.24
13247.66
13222.82
13179.79
13121.37
13053.01
12981.4
12912.52
12850.21
12796.08
12750.2
12711
12674.26
12633.79
12586.41
12539.05
12506.39
12503.88
12502.38
21198.6
20391.82
19734.54
18937.75
18043.68
17334.04
16952.98
16831.88
16833.29
16857.26
16845.39
16754.48
16557.09
16260.38
15910.4
15570.74
15291.57
15090.7
14954.95
14855.14
14762.74
14659.57
14539.22
14403.24
14256.53
14104.26
13951
13801.02
13658.77
13528.96
13415.97
13323.15
13252.06
13202.25
13171.34
13155.43
13149.61
13148.54
13147.08
13140.92
13126.91
13103.12
13068.52
13022.94
12967.38
12904.7
12839.8
12778.87
12727.59
12689.26
12663.94
12648.85
12638.98
12627.74
12609.23
12583.71
12561.5
12557.06
12575.21
12602.57
20763.42
19550.95
18910.63
18308.87
17622.79
16963.18
16491.19
16284.26
16303.33
16438.29
16566.48
16592.35
16470.34
16211.47
15868.96
15508.82
15182.02
14912.29
14700.18
14535.06
14405.43
14303.38
14224.17
14164.08
14118.97
14084.32
14056.08
14031.42
14008.9
13987.92
13967.94
13947.81
13925.6
13898.87
13865.21
13822.61
13769.73
13705.88
13631.03
13546
13452.46
13352.78
13249.54
13145.12
13041.64
12941.39
12847.47
12763.94
12694.9
12642.77
12606.63
12581.89
12561.68
12539.48
12512.54
12484.86
12466.18
12464.46
12475.29
12490.93
12404.84
14173.29
15047.72
15498.44
15600.77
15390.52
15099.27
14984.08
15128.85
15434.91
15737.45
15914.51
15927.94
15806.55
15606.63
15378.48
15151.83
14938.4
14742.25
14568.27
14424.71
14320.6
14261.65
14247.77
14273.15
14328.2
14402.05
14484.39
14566.26
14640.06
14699.25
14738.08
14751.8
14737.09
14692.49
14618.52
14517.38
14392.46
14247.93
14088.48
13919.27
13745.75
13573.17
13405.99
13247.38
13099.32
12963.34
12841.51
12736.67
12651.04
12583.92
12530.57
12484.15
12440.31
12400.77
12372.06
12359.01
12359.72
12361.48
12369.46
12459.09
13766.55
14508.61
14939.6
15092.06
14963.93
14716.49
14583.61
14677.39
14928.47
15184.71
15337.09
15368
15319.65
15238.99
15145.98
15034.49
14890.6
14709.81
14503.6
14295.64
14112.96
13977.67
13902.13
13888.2
13929.25
14013.16
14125.27
14250.56
14374.93
14486.06
14573.94
14631.34
14654.06
14640.98
14593.61
14515.36
14410.73
14284.63
14142.08
13988.17
13828.13
13667.13
13509.75
13359.34
13217.67
13085.58
12964.25
12856.03
12763.48
12686.98
12623.19
12567.35
12518.64
12482.96
12467.8
12471.95
12484.95
12490.14
12512.27
18873.17
17156.83
16575.39
16247.26
15921.03
15571.05
15232.54
14991.39
14907.58
14944.28
15002.85
15011.78
14969.53
14916.86
14885.47
14871.55
14844.01
14769.11
14630.2
14433.64
14203.23
13969.93
13762.51
13601.88
13499.02
13455.51
13465.44
13517.78
13598.7
13693.58
13788.81
13873.04
13938.13
13979.46
13995.66
13987.97
13959.24
13913.01
13852.72
13781.41
13701.65
13615.92
13526.81
13436.89
13348.18
13261.65
13177.51
13096.12
13018.93
12948.09
12884.82
12828.38
12777.93
12736.46
12711.53
12708.85
12722.78
12739.56
12745.18
12771.58
12855.39
13454.78
13926.32
14249.02
14365.4
14341.1
14260.87
14188.09
14162.09
14182.21
14214.76
14231
14234.87
14253.7
14308.62
14395.44
14488.26
14556.27
14578.56
14549.51
14475.93
14371.27
14250.64
14128
14014.8
13919.42
13846.67
13797.55
13769.46
13757.04
13753.44
13751.85
13746.77
13734.76
13714.61
13687.03
13653.97
13617.85
13580.79
13544.12
13508.23
13472.91
13437.82
13402.79
13367.63
13331.76
13293.96
13252.76
13207.19
13157.27
13104.19
13050.31
12999.67
12958.06
12930.9
12918.61
12913.54
12904.52
12887.03
12869.35
12660.57
13034.96
13456.56
13890.6
14194.9
14319.47
14308.8
14214.88
14084.55
13967.44
13898.36
13881.89
13902.68
13945.77
14005.7
14082.58
14175.54
14280.45
14390.66
14497.79
14591.75
14661.44
14696.85
14691.93
14646.64
14567.07
14463.54
14347.85
14230.49
14118.98
14017.41
13927.01
13847.2
13776.69
13714.27
13659.37
13612.2
13573.48
13544
13524.02
13512.87
13509.03
13510.49
13515.23
13521.36
13526.82
13528.85
13523.7
13507.18
13476.38
13431.87
13378.9
13325.78
13279.42
13240.57
13203.04
13159.59
13104.37
13049.14
12950.34
12705.89
12826.14
13061.34
13429.66
13848.5
14173.79
14306.24
14217.24
13962.79
13670.16
13468.2
13413.58
13477.87
13592.87
13703.35
13790.21
13863.72
13944.86
14049.73
14181.83
14331.11
14477.74
14598.4
14673
14689.73
14647.12
14553.06
14421.76
14269.95
14113.65
13965.89
13835.76
13728.3
13645.1
13585.21
13546.31
13525.66
13520.83
13529.81
13550.83
13581.95
13620.85
13664.92
13711.65
13758.81
13804.16
13844.6
13875.3
13890.17
13884.45
13858.46
13819.35
13777.65
13739.55
13701.4
13652.43
13587.1
13503.5
13429.59
13274.52
12743.04
12772.7
12899.69
13176.73
13624.23
14101.99
14395.02
14364.29
14037.08
13586.47
13220.99
13066.59
13122.86
13304.55
13515.35
13697.55
13839.5
13956.76
14069.62
14189.4
14314.8
14434.42
14531.83
14590.79
14599.56
14553.43
14455.41
14315.31
14147.66
13969.23
13796.53
13643.72
13521.05
13434.13
13384.06
13368.3
13381.92
13419.06
13473.86
13541.09
13616.14
13695
13774.22
13851.12
13923.92
13991.34
14051.39
14100.26
14132.66
14144.64
14137.55
14119.35
14100.29
14084.8
14067.06
14035.53
13985.86
13916.99
13861.9
13720.93
12722.43
12717.76
12804.9
13044.26
13488.82
14027.37
14416.98
14463.7
14154.6
13649.07
13171.65
12891.75
12859.84
13021.64
13279.75
13551.97
13795.71
14000.97
14172.03
14313.83
14427.5
14511.31
14562.65
14579.03
14558.4
14499.64
14403.49
14273.63
14117.43
13945.86
13772.42
13611.35
13475.47
13374.32
13313.02
13292.11
13308.2
13355.18
13425.63
13511.86
13606.65
13703.59
13797.38
13884.09
13961.33
14027.87
14082.62
14123.67
14148.72
14157.2
14152.85
14143.73
14138.08
14138.53
14140.07
14134.01
14116.88
14086.65
14067.78
13986.65
12681.4
12667.5
12748.49
13001.25
13448.89
13975.48
14368.88
14461.39
14229.11
13786.77
13315.55
12977.1
12852.63
12930.83
13141.87
13407.13
13671.9
13910.26
14113.43
14278.02
14401.63
14483.89
14527.9
14539.49
14524.64
14487.29
14428.73
14348.67
14247.33
14127.22
13994.1
13856.65
13725.22
13610.13
13520
13460.52
13433.97
13439.33
13472.92
13529.22
13601.61
13683.03
13766.54
13845.92
13916.06
13973.18
14014.63
14039.06
14046.95
14041.53
14028.75
14015.48
14006.69
14003.54
14004.04
14005.18
14005.81
14002.8
14006.34
13973.56
12645.77
12640.61
12740.26
13027.55
13469.92
13932.72
14266.26
14375.83
14248.18
13944.72
13576.45
13263.95
13091.67
13080.13
13193.33
13372.24
13567.84
13754.16
13922.72
14071.07
14196.41
14295.71
14368.49
14417.93
14449.31
14467.32
14473.94
14468.02
14446.35
14405.4
14343.15
14260.19
14160.17
14049.46
13936.25
13829.31
13736.75
13664.99
13618.12
13597.6
13602.29
13628.66
13671.15
13722.7
13775.44
13821.72
13855.48
13873.82
13878
13872.75
13863.63
13853.94
13843.91
13833.05
13823.1
13817.8
13819.95
13825.75
13832.79
13817.26
12628.97
12652.16
12799.98
13116.66
13512.85
13869.24
14125.91
14264.87
14272.8
14146.16
13917.24
13657.87
13449.9
13345.37
13347.55
13423.28
13531.52
13645.24
13755.9
13865.12
13975.01
14083.97
14187.93
14283.35
14368.8
14444.58
14511.18
14567.81
14611.74
14638.55
14643.05
14620.52
14568.09
14485.76
14376.94
14248.21
14108.58
13968.29
13837.47
13724.99
13637.44
13578.38
13547.81
13541.92
13553.59
13573.93
13594.91
13612.16
13626.06
13639.77
13655.06
13669.34
13677.2
13676.01
13670.15
13668.6
13677.25
13691.94
13701.58
13697.17
12662.27
12728.41
12943.08
13259.89
13558.15
13788.45
13988.95
14190.07
14355.38
14411.42
14315.48
14095.06
13833.93
13622.9
13513.55
13504.02
13558.09
13636.33
13716.52
13795.7
13880.31
13975.89
14082.31
14194.76
14306.93
14413.65
14511.73
14599.46
14675.36
14737.16
14781.11
14802.25
14795.2
14755.43
14680.64
14571.63
14432.73
14271.54
14098.2
13924.23
13761.27
13619.47
13505.92
13423.3
13369.66
13339.72
13327.84
13330.77
13348.35
13380.78
13424.61
13471.22
13510.48
13537.66
13557.38
13579.89
13611.11
13647.09
13672
13697.44
12781.65
12898.43
13169.07
13442.25
13620.58
13750.06
13931.58
14203.32
14501.94
14707.61
14724.92
14542.66
14238.5
13931.66
13718.61
13633.1
13649.32
13715.23
13787.73
13849.25
13903.97
13964.29
14039.38
14130.63
14233.24
14339.92
14444.16
14541.56
14629.71
14707.06
14771.75
14820.76
14849.7
14853.32
14826.49
14765.37
14668.54
14537.8
14378.45
14199.13
14011
13826.21
13655.97
13508.58
13388.55
13297.31
13235.26
13203.32
13202.5
13231.14
13282.3
13344.24
13405.13
13458.95
13508.02
13559.19
13615.49
13674.63
13720.63
13787.03
12963.72
13149.68
13445.32
13651.49
13744.74
13831.81
14016.66
14324.71
14690.49
14989.96
15104.82
14987.39
14687.18
14322.16
14014.92
13835.8
13785.06
13815.6
13872.11
13920.08
13952.71
13981.12
14020.07
14078.58
14157.53
14252.04
14355.07
14460
14561.8
14656.96
14742.78
14816.68
14875.56
14915.54
14932.12
14920.72
14877.5
14800.3
14689.52
14548.67
14384.35
14205.59
14022.4
13844.42
13680.1
13536.86
13421.64
13340.58
13297.26
13290.41
13313.21
13355.38
13407.27
13463.02
13520.99
13581.61
13643.88
13708.66
13764.34
13855.67
13228.32
13494.11
13787.48
13946.82
14015.9
14097.53
14269.71
14557.68
14920.75
15258.14
15449.19
15414.59
15160.96
14778.57
14393.78
14107.76
13958.86
13924.88
13953.89
13998.55
14034.89
14061.99
14091.02
14133.72
14196.33
14278.82
14376.98
14484.88
14596.4
14706.01
14809.02
14901.53
14980.3
15042.47
15085.27
15105.86
15101.36
15069.16
15007.47
14915.92
14795.96
14651
14486.23
14308.57
14126.73
13951.09
13792.83
13661.77
13563.8
13499.56
13465.48
13456.47
13467.97
13495.74
13534.36
13577.71
13621.47
13669.66
13716.42
13804.12
13454.18
13941.32
14272.19
14432.78
14507.97
14576.93
14706.79
14935.57
15249.12
15574.74
15804.67
15844.54
15662.46
15308.48
14891.1
14525.28
14283.82
14178.11
14172.4
14215.16
14266.25
14308
14341.33
14375.54
14419.68
14478.5
14552.36
14638.61
14733.04
14830.73
14926.69
15016.33
15095.81
15162.2
15213.43
15247.9
15264.12
15260.4
15234.73
15184.81
15108.44
15004
14871.54
14714
14538.18
14354.56
14175.2
14010.58
13867.18
13747.43
13652.04
13582.28
13539.49
13522.02
13522.79
13532.09
13544.04
13564.08
13589.96
13655.63
14012.94
14698.38
14987.34
15079.05
15096.14
15115.16
15188.7
15344.07
15576.37
15842.25
16064.14
16154.63
16056.01
15773.08
15376.62
14972.35
14653.35
14464.41
14396.02
14404.94
14443.5
14480.05
14503.9
14518.92
14534.15
14557.23
14592.06
14639.3
14697.55
14764.3
14836.35
14910.18
14982.31
15049.65
15109.7
15160.52
15200.5
15227.91
15240.36
15234.47
15205.83
15149.78
15062.99
14945.53
14802.12
14641.57
14474
14307.7
14147.61
13996.82
13859.41
13741.68
13649.62
13584.5
13540.69
13509.52
13485.96
13474.53
13474.24
13510.1
18980.33
18020.61
17448.17
17016.95
16678.98
16447.54
16321.42
16287.56
16333.74
16440.55
16564.43
16634.97
16577.81
16353.14
15983.19
15546.74
15142.15
14842.54
14670.17
14600.91
14588.95
14593.12
14590.8
14577.76
14560.08
14545.84
14540.68
14547.03
14565.3
14594.97
14635.17
14684.61
14741.57
14803.82
14868.88
14934.18
14997.15
15055.01
15104.3
15140.49
15157.83
15150.3
15113.33
15045.79
14950.85
14834.69
14703.76
14562.32
14412.51
14256.87
14100.97
13953.42
13822.48
13711.92
13620.06
13542.97
13478.45
13428.87
13394.29
13387.45
18489.55
18129.77
17705.68
17345.23
17054.78
16831.24
16672.1
16574.67
16542.87
16582.05
16678.16
16780.21
16808.5
16691.41
16407.78
16003.95
15572.39
15206.3
14959.5
14833.34
14791.57
14787.66
14786.9
14774.24
14750.08
14721.5
14695.39
14675.73
14664.12
14661.24
14667.86
14684.93
14713.15
14752.46
14801.86
14859.44
14922.54
14987.77
15050.85
15106.39
15148.12
15170.01
15167.77
15140.22
15089.2
15017.75
14927.86
14819.43
14691.64
14545.77
14386.96
14223.21
14062.38
13909.79
13768.3
13639.76
13525.54
13426.03
13344.83
13272.27
19278.23
18814.19
18300.98
17911.1
17631.83
17397.51
17182.85
16998.58
16870.93
16826.88
16873.36
16975.66
17056.25
17025.09
16826.48
16471.6
16034.87
15616.63
15296.6
15105.04
15023.43
15006.94
15011.22
15008.8
14991.43
14963.09
14931.26
14901.56
14876.58
14857.15
14844.02
14838.61
14842.84
14858.45
14886.32
14926.12
14976.22
15033.65
15094.14
15152.31
15202.4
15239.44
15260.38
15264.46
15252.09
15223.05
15175.15
15104.76
15008.94
14887.53
14743.67
14582.4
14409.11
14229.29
14049.16
13875.05
13711.51
13557.83
13425.72
13270.5
19261.33
18890.97
18397.54
18001.98
17750.36
17564.24
17375.71
17175.38
16998.45
16894.16
16894.14
16986.14
17106.4
17160.76
17067.87
16800.76
16401.65
15960.84
15573.32
15298.93
15146.5
15084.9
15068.49
15060.18
15041.81
15011.89
14977.15
14944.77
14918.62
14899.45
14886.77
14880.53
14881.76
14892.24
14913.69
14947.04
14991.84
15046.04
15106.05
15167.38
15225.68
15277.88
15322.66
15359.69
15388.03
15404.62
15404.38
15381.79
15332.96
15256.42
15152.4
15021.7
14866.03
14689.54
14499.65
14304.62
14111.23
13918.38
13749.77
13519.58
19093.87
18786.24
18350.65
17944.78
17679.42
17526.07
17394.97
17234.07
17058.64
16922.99
16878.04
16938.55
17067.87
17185.84
17200.48
17050.68
16736.96
16321.5
15897.55
15546.73
15308.59
15175.91
15112.17
15076.47
15041.44
14997.98
14949.89
14905.18
14869.79
14845.58
14831.51
14825.87
14827.83
14837.9
14857.43
14887.63
14928.74
14979.47
15037.17
15098.74
15161.74
15225.29
15289.69
15354.87
15418.74
15476.48
15521.86
15549.26
15554.97
15536.52
15491.17
15415.56
15307.62
15169.05
15005.82
14825.34
14635.14
14434.24
14258.01
13984.82
18802.86
18507.45
18167.79
17798.57
17515.52
17355.52
17259.17
17157.06
17031.95
16915.51
16854.92
16881.25
16988.3
17125.36
17211.05
17167.49
16958.72
16610.34
16197.62
15809.42
15509.92
15318.54
15214.85
15159.83
15118.21
15070.97
15015.52
14958.54
14908
14868.49
14840.58
14822.63
14812.88
14810.73
14816.79
14832.09
14857.12
14891.23
14932.94
14980.79
15034.49
15095.09
15163.93
15240.83
15322.8
15404.43
15479.89
15544.8
15596.28
15631.36
15645.26
15631.93
15586.5
15507.68
15397.96
15261.49
15105.24
14928.49
14773.76
14496.19
17362.6
17510.79
17480.9
17307.82
17101.98
16954.27
16880.28
16842.76
16807.11
16769.38
16751.53
16782.41
16875.72
17011.46
17132.27
17163.14
17047.57
16779.03
16407.47
16016.34
15684.72
15456.37
15330.81
15276.09
15251.5
15226.42
15187.72
15136.76
15081.43
15029.24
14984.09
14946.47
14915.39
14890.08
14870.71
14858.03
14852.69
14854.85
14864.53
14882.42
14910.41
14951.13
15006.35
15075.39
15154.68
15239.09
15324.06
15406.76
15485.24
15556.47
15615.13
15654.45
15668.33
15652.7
15605.83
15527.8
15424.29
15294.34
15181.3
14931.9
17046.68
17151.71
17209.48
17133.41
16953.62
16765.62
16647.8
16611.93
16623.97
16649.3
16678.86
16727.61
16815.35
16942.34
17074
17146.9
17096.77
16893.47
16561.02
16169.8
15805.39
15532.71
15374.52
15312.66
15306.38
15314.69
15311.1
15286.95
15246.06
15196.74
15146.02
15097.43
15051.76
15008.63
14967.78
14929.37
14893.92
14862.38
14836.49
14819.29
14814.85
14827.04
14857.8
14906.08
14968.4
15040.61
15119.68
15203.98
15292.07
15381.12
15466.44
15542.2
15602.35
15641
15653.18
15635.98
15593.61
15523.68
15463.76
15269.94
16672.47
16792.74
16928.17
16944.38
16808.43
16602.23
16441.46
16383.52
16410.57
16473.9
16541.36
16613.26
16708.92
16840.38
16990.24
17107.25
17124.9
16994.35
16713.21
16332.08
15934.61
15602.34
15383.86
15283
15268.35
15294.68
15323.34
15332.9
15318.91
15287.07
15245.7
15201
15155.68
15109.9
15062.7
15013.09
14960.91
14907.39
14855.6
14810.42
14777.44
14761.28
14763.98
14784.78
14821.2
14870.86
14932.33
15004.79
15086.87
15176.09
15269.04
15361.6
15448.7
15524.13
15581.89
15618.2
15635.58
15629.07
15624.6
15507.57
16450.38
16564.8
16737.65
16822.7
16741.44
16544
16351.11
16251.96
16256.29
16320.35
16399.74
16480.92
16578.64
16712.3
16879.66
17043.33
17138.81
17102.13
16902.95
16564.13
16155.8
15766.79
15469.34
15295.18
15232.85
15243.1
15281.05
15313.44
15324.95
15315.11
15290.79
15259.41
15225.32
15189.25
15149.55
15104
15051.42
14992.83
14931.8
14873.82
14824.68
14788.65
14767.57
14761.26
14768.95
14790.33
14825.56
14874.34
14935.43
15006.93
15086.96
15173.36
15262.76
15350.32
15431.49
15503.37
15566.42
15612.82
15653.84
15618.97
16340.06
16434.79
16605.99
16732.08
16716.81
16563.7
16363.56
16216.9
16168.06
16198.5
16265.55
16342.59
16433.09
16557.45
16727.08
16922.44
17088.96
17155.32
17066.06
16811.04
16434.54
16018.66
15650.02
15387.73
15247.6
15207.23
15224.87
15260.16
15287.11
15296.51
15290.75
15276.34
15258.34
15238.03
15213.56
15182.01
15141.59
15093.11
15040.03
14987.33
14939.57
14899.58
14868.26
14845.72
14832.5
14829.83
14838.84
14859.58
14891.14
14932.53
14983.43
15043.65
15112.06
15186.64
15265.76
15348.1
15431.84
15507.35
15572.61
15603.04
16205.45
16329.79
16491.33
16638.05
16692.93
16615.85
16443.28
16261.82
16145.58
16115.93
16149.23
16212.54
16293.07
16402.82
16560.32
16764.47
16978.36
17134.78
17162.66
17020.77
16720
16321.54
15912.23
15570.52
15340.38
15223.93
15192.36
15205.75
15230.72
15248.86
15255.79
15254.89
15250.59
15244.52
15235.12
15219.54
15196.04
15165.45
15130.88
15096.2
15064.18
15035.69
15010.4
14988.12
14969.68
14956.57
14949.83
14949.47
14954.94
14966.22
14984.28
15010.58
15046.43
15093.14
15152.14
15223.17
15302.39
15380.02
15445.93
15510.5
16361.6
16428.39
16524.39
16640.88
16730.09
16723.53
16597.66
16401.41
16219.02
16110.88
16085.91
16118.07
16181.51
16273.17
16408.99
16600.78
16831.86
17049.19
17178.88
17157.57
16962.76
16625.35
16217.91
15825.37
15513.78
15311.7
15210.37
15178.33
15180.2
15190.31
15196.88
15198.65
15198.46
15198.18
15197.08
15193.03
15184.62
15172.49
15158.94
15146.29
15135.56
15126.16
15116.94
15107.34
15097.74
15088.81
15080.68
15072.86
15064.98
15057.59
15052.35
15051.85
15059.5
15079.4
15114.85
15165.64
15226.34
15288.53
15339.99
15409.95
16603.41
16603.09
16624.33
16689.92
16781.88
16826.52
16757.2
16576.29
16353.92
16173.18
16077.76
16061.91
16097.46
16166.95
16276.31
16441.68
16663.69
16908.96
17112.46
17200.98
17125.23
16883.26
16522.68
16121.27
15756.55
15479.59
15304.29
15213.61
15175.98
15161.74
15152.54
15142.02
15131.1
15122.38
15117.03
15114.54
15114.05
15115.45
15119.18
15125.38
15133.29
15141.48
15148.72
15154.5
15158.73
15161.06
15160.59
15156.28
15147.72
15135.52
15121.46
15108.73
15102.17
15107.32
15127.7
15162.03
15203.95
15247.33
15281.95
15342.74
16877.95
16806.16
16758.22
16770.12
16841.52
16909.61
16891.21
16749.52
16523.22
16294.6
16132.38
16057.95
16053.52
16094.02
16172.67
16301.99
16493.82
16735.08
16977.83
17151.11
17189.17
17060.63
16783.16
16416.42
16037.61
15712.6
15476.24
15328.93
15247.46
15201.62
15167.67
15133.89
15098.98
15066.82
15041.86
15026.77
15022.17
15027.14
15039.71
15057.17
15076.69
15096.1
15114.32
15131.09
15146.09
15158.36
15166.47
15169.19
15166.04
15157.52
15145.33
15133.01
15125.95
15129.59
15146.19
15172.95
15203.48
15234.46
15258.78
15310.63
17063.75
16949.37
16858.27
16830.98
16875.4
16946.85
16968.38
16880.51
16684.97
16443
16231.97
16099.21
16047.19
16053.07
16099.26
16189
16337.64
16549.08
16796.31
17020.56
17151.05
17134.64
16959.54
16660.72
16304.94
15963.91
15689
15498.56
15381
15308.61
15253.4
15197.61
15136.26
15073.82
15018.54
14977.73
14955.08
14950.17
14959.34
14977.42
14999.58
15022.66
15045.27
15066.95
15087.08
15104.43
15117.53
15125.35
15127.57
15124.74
15118.72
15113.23
15113.32
15123.03
15142.55
15168.13
15194.52
15221.54
15243.92
15294.35
17103.14
16989.69
16889.57
16843.27
16864.61
16929.45
16980.12
16950.97
16811.4
16589.8
16355.34
16173.31
16071.27
16038.87
16053.69
16107.34
16210.87
16378.2
16602.32
16842.83
17034.45
17112.24
17039.79
16825.37
16518.12
16187.18
15894.79
15676.14
15533.71
15445.68
15381.62
15316.98
15240.71
15155.15
15070.73
14999.23
14948.66
14921.05
14913.23
14919.34
14933.58
14951.93
14972.2
14993.08
15013.2
15031.02
15045.16
15054.89
15060.18
15061.89
15062.24
15064.86
15073.58
15090.15
15112.94
15138.45
15163.78
15191.76
15217.03
15272.34
17021.05
16939.41
16857.56
16808.3
16812.01
16865.57
16934.99
16960.43
16889.29
16714.76
16484.15
16268.15
16117.79
16043.46
16027.25
16051.43
16117.05
16239.17
16425.19
16654.51
16875.16
17020.57
17037.42
16909.12
16663.12
16358.77
16062.9
15825.1
15663.75
15566.97
15505.38
15448.47
15377.03
15287.43
15188.38
15093.67
15015.1
14958.53
14923.66
14906.44
14901.97
14906.24
14916.39
14930.07
14945.01
14959.18
14971.16
14980.3
14986.76
14991.74
14997.61
15007.28
15022.55
15042.73
15065.22
15088.09
15111.41
15140.4
15168.29
15228.66
16858.12
16826.82
16781.41
16741.06
16732.38
16771.99
16849.04
16917.06
16914.13
16803.79
16603.48
16374.71
16183.49
16064.29
16013.72
16011.99
16049.11
16133.52
16278.69
16480.62
16704.49
16890.8
16978.07
16929.58
16749.75
16482.3
16191.79
15938.11
15755.97
15647.71
15590.26
15550.63
15501.45
15429.97
15338.44
15238.33
15142.74
15061.01
14997.07
14950.7
14919.69
14901.34
14892.92
14891.63
14894.76
14900.05
14905.99
14911.88
14917.9
14925.25
14935.78
14950.78
14969.51
14989.28
15007.47
15024.49
15043.08
15069.71
15096.25
15155.41
16684.13
16700.51
16695.05
16669.71
16652.71
16675.41
16746.95
16838.57
16891.5
16850.59
16702.3
16486.08
16269.33
16106.75
16016.32
15986.09
15999.44
16054.51
16162.75
16330.55
16540.14
16744.97
16883.89
16906.4
16795.07
16573.68
16297.41
16030.4
15821.88
15691.4
15628.24
15602.79
15582.54
15544.77
15481.61
15397.52
15303.13
15209.26
15123.71
15050.7
14991.67
14946.19
14912.64
14888.81
14872.48
14861.9
14855.97
14854.21
14856.83
14864.62
14878.1
14896.18
14915.55
14932.17
14944.15
14953.88
14965.68
14985.84
15006.23
15054.77
16558.51
16603.34
16628.18
16618.64
16597.04
16600.69
16653.55
16746.37
16833.77
16855.1
16771.33
16592.46
16372.58
16176.29
16043.49
15978.58
15966.41
15996.21
16072.26
16204.44
16388.82
16594.55
16767.88
16851.73
16810.2
16644.95
16395.16
16121.73
15883.83
15718.67
15632.86
15606.99
15608.94
15608.31
15585.8
15535.5
15461.71
15373.73
15281.4
15192.5
15111.8
15041.34
14981.17
14930.49
14888.53
14854.99
14830.01
14814.08
14807.83
14811.52
14823.89
14841.34
14858.5
14870.78
14877.08
14880.65
14885.73
14897.14
14908.46
14938.81
16510.3
16558.5
16596.77
16599.86
16577.57
16562.81
16587.57
16661.13
16757.94
16824.01
16805.16
16681.75
16483.52
16271.38
16101.05
15997.13
15954.33
15958.42
16005.22
16102.47
16255.08
16447.71
16638.9
16772.27
16798.89
16698.74
16490.21
16223.26
15960.06
15752.65
15627.17
15580.35
15587.15
15614.32
15632.88
15625.41
15587.18
15522.87
15441.69
15352.97
15263.62
15177.48
15096.15
15020.46
14951.49
14890.99
14841.16
14804.24
14781.87
14774.05
14778.13
14788.73
14799.56
14806.25
14808.19
14807.99
14808.27
14811.49
14813.97
14824.31
16536.35
16566.79
16601.24
16611.41
16592.11
16563.36
16557.47
16598.23
16681.67
16769.41
16804.15
16743.26
16587.49
16381.71
16186.72
16045.3
15967.91
15943.85
15962.93
16027.3
16145.22
16314.01
16506.9
16674.62
16762.04
16731.02
16577.34
16333.6
16057.09
15808.75
15632.9
15545.59
15534.99
15571.18
15619.81
15653.5
15657.55
15629.69
15575.74
15504.24
15422.49
15335.1
15244.58
15152.91
15062.74
14977.75
14902.31
14840.75
14796.06
14768.58
14755.24
14750.49
14748.7
14746.53
14743.47
14740.42
14737.53
14734.61
14730.58
14725.21
16607.93
16610.56
16629.4
16640.61
16626.96
16591.75
16560.46
16564.6
16619.06
16705.45
16774.48
16771.36
16670.28
16492.04
16290.61
16119.99
16007.93
15953.83
15946.24
15981.08
16065.08
16203.55
16383.8
16568.21
16702.74
16737.23
16646.61
16442.59
16170.27
15891.81
15664.75
15524.18
15475.29
15497.64
15557.29
15620.6
15664.01
15677.18
15660.42
15619.33
15560.04
15486.93
15402.69
15309.69
15211.23
15112.04
15017.91
14934.63
14866.32
14814.06
14775.67
14747.24
14725.4
14708.56
14696.27
14687.55
14680.17
14671.89
14663.17
14648.81
16688.07
16665.1
16664.52
16671.68
16664.46
16631.25
16585.7
16558.88
16578.16
16645.13
16726.43
16767.18
16722.85
16587.97
16399.63
16213.25
16071
15986.49
15952.92
15962.06
16016.01
16122.58
16280.01
16464
16627.81
16716.75
16689.91
16538.04
16288.97
15998.19
15729.21
15532.35
15430.7
15417.8
15466.13
15540.83
15612.1
15661.87
15683.73
15678.86
15651.17
15604.24
15540.55
15462.26
15372.34
15275.23
15176.61
15082.25
14996.46
14921.05
14855.63
14799.29
14751.94
14714.21
14685.99
14665.12
14648.09
14631.82
14617.37
14597.78
16747.23
16709.44
16692.69
16692.62
16690.39
16665.8
16619.09
16573.48
16560.53
16597.86
16671.79
16737.81
16743.29
16659.9
16501.79
16315.6
16151.4
16037.8
15978.04
15964.11
15992.9
16070.12
16200
16370.36
16545.52
16673.42
16704.22
16610.94
16402.07
16119.94
15825.99
15579.55
15419.49
15355.63
15371.81
15437.18
15519.43
15594.09
15647.83
15676.62
15681.62
15665.59
15630.96
15579.65
15513.71
15436.07
15350.55
15261.15
15170.97
15081.97
14995.72
14914.6
14841.84
14780.27
14730.46
14690.32
14656.6
14626.71
14602.38
14575.06
16773.83
16733.9
16707.94
16699.41
16698.9
16685.5
16648.39
16598.23
16562.67
16568.7
16621.63
16694.12
16736.3
16704.42
16588.57
16418.34
16243.09
16103.57
16016.51
15979.42
15986.34
16038.38
16140.72
16289.8
16461.89
16612.87
16691.07
16657.17
16501.18
16248.16
15950.22
15668.48
15453.26
15330.45
15298.52
15335.35
15410.03
15493.96
15567.42
15620.83
15652.34
15664.04
15658.91
15639.17
15606.11
15560.61
15503.44
15435.34
15356.95
15269.55
15175.97
15081
14990.29
14908.14
14836.09
14773.1
14717.59
14668.44
14629.16
14586.27
16773.93
16740.57
16712.22
16695.69
16692.78
16688.64
16666.47
16623.74
16578.2
16558.52
16584.4
16647.97
16710.84
16723.42
16655.28
16514.3
16340.43
16180.6
16065.31
16002.36
15987.28
16016.94
16093.93
16218.94
16378.59
16539.37
16653.67
16675.87
16580.6
16374.21
16094.02
15795.97
15536.21
15354.4
15264.96
15258.03
15308.05
15385.08
15464.19
15530.27
15578.03
15608.82
15626.55
15634.59
15634.25
15624.72
15603.6
15567.87
15515.16
15445.22
15360.97
15268.05
15172.76
15079.91
14991.76
14908.86
14831.94
14761.56
14704.59
14637.54
16762.54
16738.15
16711.71
16688.85
16680.13
16680.1
16672.12
16643.66
16600.05
16564.69
16564.67
16609.44
16677.24
16722.1
16700.24
16597.6
16437.84
16266.29
16124.03
16031.73
15991.25
15998.12
16051.23
16151.84
16293.87
16454.65
16594.48
16666.94
16635.66
16489.13
16246.82
15953.64
15665.49
15431.89
15282.46
15221.77
15233.2
15288.76
15360.28
15427.5
15481.06