/*--------------------------------*- C++ -*----------------------------------*\
| =========                 |                                                 |
| \\      /  F ield         | OpenFOAM: The Open Source CFD Toolbox           |
|  \\    /   O peration     | Version:  2312                                  |
|   \\  /    A nd           | Website:  www.openfoam.com                      |
|    \\/     M anipulation  |                                                 |
\*---------------------------------------------------------------------------*/
FoamFile
{
    version     2.0;
    format      ascii;
    arch        "LSB;label=32;scalar=64";
    class       volScalarField;
    location    "3900";
    object      ILambda_5_0;
}
// * * * * * * * * * * * * * * * * * * * * * * * * * * * * * * * * * * * * * //

dimensions      [1 0 -3 0 0 0 0];

internalField   nonuniform List<scalar> 
12000
(
2644.059
2651.564
2659.412
2667.259
2674.694
2681.282
2686.567
2690.116
2691.61
2690.943
2688.288
2684.119
2679.177
2674.378
2670.684
2668.946
2669.756
2673.32
2679.38
2687.193
2695.574
2702.994
2707.716
2707.964
2702.085
2688.708
2666.86
2636.051
2596.304
2548.143
2492.537
2430.81
2364.536
2295.414
2225.155
2155.373
2087.496
2022.705
1961.89
1905.642
1854.257
1807.767
1765.977
1728.522
1694.915
1664.604
1637.021
1611.621
1587.915
1565.498
1544.054
1523.368
1503.318
1483.865
1465.046
1446.921
1429.732
1413.071
1399.541
1378.076
2703.253
2710.819
2716.343
2719.442
2719.79
2717.173
2711.625
2703.586
2693.977
2684.12
2675.551
2669.751
2667.863
2670.441
2677.275
2687.334
2698.822
2709.353
2716.198
2716.589
2708.019
2688.51
2656.817
2612.541
2556.158
2488.954
2412.89
2330.412
2244.238
2157.136
2071.717
1990.272
1914.64
1846.139
1785.538
1733.076
1688.526
1651.272
1620.416
1594.882
1573.522
1555.204
1538.891
1523.698
1508.926
1494.081
1478.868
1463.181
1447.072
1430.718
1414.386
1398.394
1383.074
1368.744
1355.686
1344.112
1334.187
1325.927
1319.668
1313.07
2729.281
2726.347
2720.869
2712.713
2702.176
2690.149
2678.137
2668.055
2661.808
2660.814
2665.612
2675.636
2689.189
2703.605
2715.574
2721.554
2718.221
2702.864
2673.702
2630.063
2572.43
2502.361
2422.29
2335.264
2244.639
2153.779
2065.784
1983.27
1908.226
1841.938
1784.981
1737.278
1698.198
1666.692
1641.435
1620.971
1603.847
1588.72
1574.444
1560.118
1545.117
1529.085
1511.918
1493.726
1474.783
1455.477
1436.259
1417.594
1399.922
1383.624
1369.002
1356.264
1345.521
1336.783
1329.978
1324.958
1321.489
1319.397
1318.138
1318.015
2713.929
2702.158
2688.788
2675.024
2663.133
2655.741
2654.98
2661.727
2675.161
2692.749
2710.616
2724.15
2728.698
2720.234
2695.889
2654.284
2595.646
2521.709
2435.447
2340.694
2241.706
2142.733
2047.641
1959.62
1880.996
1813.151
1756.543
1710.802
1674.891
1647.295
1626.225
1609.805
1596.244
1583.961
1571.678
1558.465
1543.756
1527.323
1509.233
1489.787
1469.453
1448.791
1428.395
1408.835
1390.611
1374.127
1359.671
1347.408
1337.387
1329.549
1323.745
1319.753
1317.305
1316.099
1315.821
1316.155
1316.829
1317.468
1318.177
1317.726
2671.768
2658.352
2648.365
2646.01
2653.676
2670.788
2693.773
2716.834
2733.181
2736.35
2721.301
2685.117
2627.298
2549.65
2455.893
2351.062
2240.829
2130.845
2026.18
1930.909
1847.861
1778.542
1723.202
1681.006
1650.292
1628.851
1614.214
1603.915
1595.695
1587.661
1578.376
1566.899
1552.766
1535.939
1516.727
1495.696
1473.564
1451.119
1429.133
1408.299
1389.192
1372.236
1357.696
1345.684
1336.175
1329.025
1324
1320.805
1319.107
1318.56
1318.826
1319.582
1320.54
1321.444
1322.085
1322.264
1321.933
1320.651
1319.573
1314.391
2638.644
2640.944
2659.206
2689.174
2721.276
2744.141
2747.617
2724.779
2672.853
2593.195
2490.559
2371.995
2245.629
2119.537
2000.833
1895.035
1805.745
1734.589
1681.4
1644.544
1621.339
1608.502
1602.564
1600.222
1598.612
1595.478
1589.254
1579.072
1564.694
1546.413
1524.917
1501.152
1476.187
1451.099
1426.874
1404.343
1384.139
1366.679
1352.17
1340.631
1331.917
1325.766
1321.828
1319.71
1319.003
1319.309
1320.26
1321.531
1322.846
1323.977
1324.743
1325.004
1324.659
1323.636
1321.895
1319.401
1316.24
1312.115
1308.434
1299.801
2659.675
2711.522
2754.342
2767.135
2737.964
2664.848
2553.764
2415.769
2264.145
2111.984
1970.446
1847.739
1748.736
1675.091
1625.711
1597.435
1585.782
1585.688
1592.129
1600.602
1607.459
1610.065
1606.842
1597.184
1581.315
1560.09
1534.784
1506.894
1477.953
1449.392
1422.432
1398.021
1376.805
1359.135
1345.092
1334.529
1327.132
1322.465
1320.033
1319.322
1319.835
1321.125
1322.805
1324.559
1326.141
1327.368
1328.108
1328.275
1327.814
1326.69
1324.889
1322.407
1319.255
1315.462
1311.075
1306.181
1300.884
1295.293
1290.152
1282.223
2798.097
2786.881
2686.102
2521.532
2323.982
2121.433
1935.61
1780.828
1664.201
1586.721
1544.766
1531.729
1539.518
1559.816
1585.025
1608.887
1626.805
1635.916
1634.963
1624.049
1604.311
1577.579
1546.048
1511.994
1477.548
1444.541
1414.401
1388.12
1366.255
1348.974
1336.12
1327.291
1321.919
1319.347
1318.897
1319.921
1321.842
1324.175
1326.538
1328.649
1330.32
1331.437
1331.943
1331.82
1331.072
1329.711
1327.752
1325.207
1322.087
1318.409
1314.202
1309.519
1304.45
1299.129
1293.728
1288.532
1283.69
1280.016
1276.579
1277.033
2613.341
2231.975
1912.989
1673.122
1515.21
1431.536
1407.964
1427.586
1473.493
1530.672
1587.094
1634.136
1666.53
1681.975
1680.577
1664.201
1635.833
1599.007
1557.336
1514.156
1472.287
1433.903
1400.493
1372.888
1351.34
1335.633
1325.2
1319.248
1316.87
1317.136
1319.171
1322.207
1325.611
1328.902
1331.746
1333.941
1335.392
1336.089
1336.071
1335.409
1334.175
1332.433
1330.227
1327.578
1324.493
1320.966
1316.997
1312.605
1307.842
1302.81
1297.665
1292.633
1288.002
1284.133
1281.413
1280.384
1281.196
1285.555
1289.459
1309.379
1020.336
1011.382
1090.058
1219.614
1366.391
1505.419
1620.683
1703.85
1752.601
1768.947
1757.675
1725.049
1677.775
1622.253
1564.072
1507.726
1456.512
1412.552
1376.919
1349.815
1330.769
1318.844
1312.827
1311.386
1313.207
1317.082
1321.98
1327.076
1331.764
1335.647
1338.512
1340.297
1341.052
1340.902
1340.006
1338.529
1336.618
1334.38
1331.881
1329.142
1326.147
1322.86
1319.238
1315.253
1310.914
1306.279
1301.474
1296.702
1292.244
1288.456
1285.764
1284.646
1285.611
1289.188
1295.854
1306.206
1320.13
1340.04
1357.772
1406.426
1343.968
1640.693
1835.603
1940.642
1973.415
1952.262
1894.273
1814.321
1724.612
1634.552
1550.858
1477.841
1417.774
1371.308
1337.885
1316.123
1304.156
1299.906
1301.301
1306.427
1313.629
1321.56
1329.203
1335.854
1341.094
1344.742
1346.81
1347.446
1346.888
1345.413
1343.301
1340.804
1338.121
1335.385
1332.66
1329.946
1327.192
1324.311
1321.205
1317.792
1314.024
1309.915
1305.553
1301.117
1296.875
1293.19
1290.5
1289.312
1290.171
1293.64
1300.269
1310.57
1324.98
1343.856
1367.396
1395.854
1428.549
1468.042
1502.528
1579.068
2505.895
2274.507
2058.958
1866.634
1702.138
1567.346
1461.882
1383.689
1329.587
1295.77
1278.212
1272.987
1276.495
1285.602
1297.716
1310.803
1323.365
1334.39
1343.281
1349.778
1353.886
1355.799
1355.84
1354.4
1351.893
1348.718
1345.228
1341.709
1338.365
1335.313
1332.582
1330.128
1327.844
1325.584
1323.19
1320.516
1317.461
1313.99
1310.152
1306.101
1302.096
1298.502
1295.777
1294.457
1295.13
1298.404
1304.88
1315.115
1329.59
1348.687
1372.661
1401.624
1435.535
1474.204
1517.253
1564.337
1614.209
1668.939
1715.67
1805.439
1238.231
1197.376
1176.908
1173.561
1183.123
1201.484
1225.011
1250.691
1276.176
1299.756
1320.308
1337.204
1350.219
1359.437
1365.163
1367.842
1367.998
1366.183
1362.936
1358.763
1354.112
1349.363
1344.82
1340.703
1337.15
1334.208
1331.847
1329.963
1328.395
1326.945
1325.403
1323.575
1321.308
1318.525
1315.241
1311.584
1307.801
1304.262
1301.443
1299.914
1300.305
1303.278
1309.489
1319.551
1333.994
1353.238
1377.567
1407.102
1441.8
1481.446
1525.659
1573.908
1625.529
1679.759
1735.728
1792.645
1849.137
1906.41
1954.093
2034.258
1329.736
1342.337
1355.006
1366.594
1376.239
1383.451
1388.066
1390.167
1390.01
1387.947
1384.374
1379.691
1374.271
1368.448
1362.51
1356.701
1351.22
1346.228
1341.845
1338.152
1335.185
1332.927
1331.311
1330.212
1329.459
1328.841
1328.132
1327.112
1325.6
1323.48
1320.733
1317.458
1313.883
1310.373
1307.418
1305.615
1305.642
1308.216
1314.056
1323.837
1338.149
1357.46
1382.085
1412.165
1447.652
1488.311
1533.723
1583.308
1636.343
1691.994
1749.35
1807.456
1865.35
1922.092
1976.793
2028.681
2076.859
2121.702
2157.848
2209.104
1361.707
1364.796
1366.577
1367.132
1366.627
1365.261
1363.233
1360.723
1357.879
1354.82
1351.649
1348.453
1345.319
1342.337
1339.6
1337.199
1335.212
1333.69
1332.642
1332.024
1331.73
1331.601
1331.434
1331.007
1330.115
1328.599
1326.39
1323.534
1320.219
1316.784
1313.715
1311.63
1311.248
1313.347
1318.715
1328.105
1342.177
1361.462
1386.317
1416.908
1453.187
1494.897
1541.579
1592.595
1647.151
1704.339
1763.173
1822.628
1881.678
1939.337
1994.686
2046.899
2095.266
2139.203
2178.268
2212.122
2240.652
2263.66
2281.066
2296.734
1371.458
1370.613
1369.17
1367.226
1364.878
1362.204
1359.267
1356.126
1352.847
1349.516
1346.245
1343.164
1340.412
1338.116
1336.364
1335.192
1334.558
1334.341
1334.348
1334.335
1334.038
1333.223
1331.726
1329.502
1326.659
1323.479
1320.422
1318.113
1317.31
1318.858
1323.634
1332.483
1346.162
1365.281
1390.261
1421.3
1458.359
1501.159
1549.194
1601.754
1657.968
1716.836
1777.283
1838.202
1898.498
1957.129
2013.14
2065.688
2114.062
2157.696
2196.17
2229.211
2256.682
2278.57
2294.994
2306.088
2312.36
2313.267
2312.431
2298.523
1366.871
1364.086
1361.043
1357.803
1354.424
1350.969
1347.519
1344.187
1341.121
1338.485
1336.435
1335.08
1334.455
1334.498
1335.044
1335.837
1336.561
1336.894
1336.559
1335.393
1333.392
1330.755
1327.895
1325.435
1324.177
1325.048
1329.034
1337.107
1350.148
1368.88
1393.808
1425.184
1462.984
1506.906
1556.386
1610.635
1668.679
1729.409
1791.643
1854.175
1915.827
1975.495
2032.186
2085.04
2133.354
2176.584
2214.351
2246.431
2272.742
2293.333
2308.361
2318.073
2322.789
2322.876
2318.758
2310.792
2299.704
2284.735
2271.207
2239.442
1356.475
1353.202
1349.862
1346.559
1343.413
1340.571
1338.213
1336.525
1335.656
1335.66
1336.466
1337.86
1339.512
1341.02
1341.98
1342.071
1341.132
1339.225
1336.673
1334.071
1332.25
1332.227
1335.125
1342.077
1354.129
1372.154
1396.78
1428.333
1466.813
1511.896
1562.95
1619.08
1679.187
1742.025
1806.278
1870.619
1933.771
1994.56
2051.949
2105.068
2153.227
2195.92
2232.82
2263.766
2288.747
2307.878
2321.379
2329.555
2332.77
2331.429
2325.967
2316.827
2304.453
2289.278
2271.74
2252.175
2231.245
2208.08
2188.296
2149.546
1345.842
1342.977
1340.419
1338.379
1337.067
1336.676
1337.317
1338.943
1341.309
1343.993
1346.467
1348.208
1348.818
1348.13
1346.292
1343.798
1341.481
1340.446
1341.979
1347.424
1358.059
1374.971
1398.961
1430.472
1469.55
1515.848
1568.65
1626.929
1689.421
1754.705
1821.294
1887.709
1952.554
2014.572
2072.683
2126.01
2173.892
2215.877
2251.709
2281.312
2304.759
2322.247
2334.07
2340.592
2342.226
2339.412
2332.603
2322.255
2308.812
2292.705
2274.347
2254.131
2232.426
2209.577
2185.921
2161.704
2137.453
2112.32
2091.389
2053.647
1338.882
1338.192
1338.389
1339.71
1342.209
1345.679
1349.633
1353.374
1356.176
1357.486
1357.099
1355.263
1352.712
1350.61
1350.436
1353.824
1362.382
1377.521
1400.314
1431.386
1470.872
1518.404
1573.159
1633.935
1699.245
1767.436
1836.791
1905.639
1972.432
2035.815
2094.664
2148.111
2195.542
2236.585
2271.086
2299.078
2320.741
2336.372
2346.348
2351.1
2351.087
2346.779
2338.643
2327.133
2312.688
2295.723
2276.636
2255.801
2233.574
2210.289
2186.263
2161.792
2137.154
2112.602
2088.378
2064.652
2041.798
2019.12
2000.577
1969.28
1342.998
1346.438
1350.983
1356.362
1361.745
1366.075
1368.463
1368.523
1366.584
1363.709
1361.562
1362.174
1367.664
1379.97
1400.615
1430.549
1470.066
1518.797
1575.776
1639.549
1708.315
1780.088
1852.839
1924.633
1993.728
2058.652
2118.243
2171.663
2218.38
2258.147
2290.951
2316.972
2336.528
2350.037
2357.972
2360.833
2359.122
2353.328
2343.919
2331.334
2315.988
2298.273
2278.556
2257.19
2234.511
2210.841
2186.488
2161.746
2136.892
2112.184
2087.859
2064.131
2041.186
2019.187
1998.272
1978.525
1960.144
1942.653
1928.557
1906.498
1363.981
1370.945
1377.587
1382.045
1383.178
1381.158
1377.48
1374.627
1375.567
1383.204
1399.935
1427.349
1466.081
1515.807
1575.351
1642.872
1716.085
1792.495
1869.612
1945.124
2017.032
2083.728
2144.027
2197.165
2242.76
2280.75
2311.332
2334.887
2351.915
2362.979
2368.658
2369.521
2366.099
2358.883
2348.317
2334.805
2318.719
2300.404
2280.192
2258.402
2235.348
2211.339
2186.679
2161.664
2136.578
2111.687
2087.238
2063.451
2040.519
2018.602
1997.834
1978.315
1960.12
1943.299
1927.879
1913.864
1901.29
1889.922
1880.887
1868.301
1395.467
1401.424
1400.978
1396.007
1390.809
1390.468
1399.534
1421.225
1457.091
1507.023
1569.505
1641.999
1721.358
1804.222
1887.345
1967.844
2043.36
2112.137
2173.021
2225.42
2269.212
2304.646
2332.228
2352.624
2366.568
2374.797
2378.004
2376.808
2371.745
2363.271
2351.771
2337.579
2320.993
2302.295
2281.762
2259.675
2236.326
2212.015
2187.049
2161.736
2136.376
2111.254
2086.633
2062.746
2039.792
2017.938
1997.31
1978.004
1960.081
1943.577
1928.504
1914.859
1902.623
1891.774
1882.281
1874.117
1867.234
1861.627
1857.34
1853.176
1429.191
1416.628
1408.361
1414.461
1440.383
1487.133
1552.463
1632.152
1721.081
1814.059
1906.394
1994.233
2074.716
2145.981
2207.078
2257.816
2298.579
2330.141
2353.495
2369.71
2379.823
2384.765
2385.321
2382.118
2375.638
2366.239
2354.189
2339.7
2322.961
2304.161
2283.512
2261.255
2237.665
2213.047
2187.727
2162.041
2136.32
2110.881
2086.011
2061.964
2038.951
2017.138
1996.65
1977.569
1959.941
1943.784
1929.091
1915.84
1903.999
1893.529
1884.393
1876.555
1869.982
1864.647
1860.519
1857.584
1855.759
1855.214
1855.145
1858.187
1426.605
1443.57
1504.788
1596.379
1704.422
1817.522
1927.225
2027.819
2115.936
2190.082
2250.167
2297.076
2332.276
2357.509
2374.547
2385.022
2390.316
2391.518
2389.419
2384.539
2377.183
2367.5
2355.547
2341.343
2324.923
2306.363
2285.806
2263.463
2239.618
2214.604
2188.794
2162.579
2136.342
2110.448
2085.221
2060.939
2037.826
2016.046
1995.715
1976.895
1959.61
1943.852
1929.59
1916.779
1905.366
1895.301
1886.537
1879.034
1872.758
1867.685
1863.793
1861.064
1859.477
1859.007
1859.614
1861.267
1863.833
1867.538
1870.988
1879.409
1573.198
1779.52
1948.532
2082.103
2184.255
2259.705
2313.274
2349.558
2372.706
2386.274
2393.141
2395.501
2394.898
2392.294
2388.179
2382.679
2375.679
2366.93
2356.148
2343.085
2327.588
2309.624
2289.295
2266.828
2242.561
2216.91
2190.337
2163.324
2136.336
2109.8
2084.088
2059.502
2036.271
2014.551
1994.435
1975.956
1959.103
1943.833
1930.081
1917.774
1906.839
1897.209
1888.83
1881.658
1875.665
1870.831
1867.146
1864.6
1863.185
1862.882
1863.664
1865.49
1868.299
1872.016
1876.539
1881.769
1887.508
1893.909
1899.469
1909.923
2468.388
2459.637
2447.623
2434.105
2420.68
2408.537
2398.409
2390.572
2384.886
2380.866
2377.778
2374.747
2370.87
2365.304
2357.351
2346.51
2332.504
2315.289
2295.031
2272.079
2246.918
2220.123
2192.31
2164.09
2136.034
2108.643
2082.33
2057.412
2034.107
2012.544
1992.771
1974.774
1958.493
1943.837
1930.7
1918.978
1908.573
1899.405
1891.413
1884.558
1878.816
1874.182
1870.659
1868.251
1866.963
1866.79
1867.713
1869.696
1872.682
1876.592
1881.328
1886.769
1892.778
1899.202
1905.878
1912.644
1919.298
1925.836
1931.287
1939.443
2262.295
2282.305
2300.361
2316.63
2331.216
2344.002
2354.626
2362.547
2367.141
2367.818
2364.129
2355.827
2342.906
2325.603
2304.374
2279.847
2252.771
2223.951
2194.194
2164.256
2134.808
2106.405
2079.476
2054.317
2031.103
2009.903
1990.696
1973.397
1957.878
1943.993
1931.588
1920.525
1910.686
1901.983
1894.354
1887.771
1882.225
1877.729
1874.305
1871.977
1870.766
1870.68
1871.71
1873.826
1876.973
1881.071
1886.016
1891.681
1897.92
1904.572
1911.466
1918.425
1925.272
1931.838
1937.961
1943.491
1948.317
1952.276
1955.365
1957.807
2405.052
2407.544
2408.624
2408.31
2406.071
2401.098
2392.596
2379.992
2363.042
2341.857
2316.868
2288.753
2258.351
2226.571
2194.313
2162.401
2131.535
2102.265
2074.98
2049.91
2027.147
2006.664
1988.346
1972.021
1957.483
1944.523
1932.945
1922.583
1913.305
1905.024
1897.693
1891.301
1885.864
1881.421
1878.018
1875.704
1874.517
1874.48
1875.593
1877.83
1881.136
1885.427
1890.592
1896.495
1902.98
1909.875
1916.999
1924.166
1931.191
1937.898
1944.121
1949.711
1954.541
1958.504
1961.52
1963.518
1964.531
1964.301
1963.789
1959.563
2386.006
2382.91
2378.555
2370.533
2357.416
2338.786
2315.02
2287.016
2255.963
2223.139
2189.77
2156.927
2125.47
2096.024
2068.984
2044.534
2022.685
2003.313
1986.204
1971.093
1957.698
1945.754
1935.028
1925.335
1916.548
1908.592
1901.446
1895.127
1889.688
1885.198
1881.735
1879.371
1878.165
1878.152
1879.34
1881.704
1885.184
1889.69
1895.101
1901.269
1908.024
1915.184
1922.554
1929.94
1937.148
1943.997
1950.316
1955.957
1960.789
1964.708
1967.637
1969.524
1970.344
1970.097
1968.812
1966.517
1963.362
1959.078
1955.209
1945.926
2365.131
2355.402
2334.181
2304.457
2269.424
2231.859
2193.969
2157.389
2123.232
2092.158
2064.458
2040.135
2018.989
2000.686
1984.824
1970.984
1958.771
1947.842
1937.922
1928.815
1920.403
1912.639
1905.538
1899.161
1893.602
1888.968
1885.371
1882.908
1881.657
1881.663
1882.937
1885.45
1889.137
1893.895
1899.588
1906.055
1913.111
1920.559
1928.194
1935.808
1943.203
1950.19
1956.596
1962.271
1967.087
1970.942
1973.764
1975.505
1976.148
1975.7
1974.192
1971.679
1968.236
1963.951
1958.932
1953.275
1947.177
1940.416
1934.616
1923.389
2308.309
2248.943
2196.35
2150.779
2111.944
2079.28
2052.062
2029.489
2010.748
1995.062
1981.722
1970.119
1959.754
1950.246
1941.333
1932.861
1924.771
1917.088
1909.896
1903.324
1897.522
1892.649
1888.851
1886.252
1884.945
1884.981
1886.368
1889.069
1893.007
1898.061
1904.081
1910.885
1918.273
1926.033
1933.946
1941.796
1949.376
1956.493
1962.972
1968.663
1973.441
1977.208
1979.897
1981.468
1981.909
1981.235
1979.486
1976.724
1973.029
1968.497
1963.239
1957.373
1951.024
1944.318
1937.387
1930.34
1923.353
1916.274
1910.384
1900.394
2052.551
2036.357
2022.482
2010.521
1999.992
1990.46
1981.558
1972.997
1964.568
1956.145
1947.683
1939.213
1930.828
1922.673
1914.932
1907.807
1901.502
1896.215
1892.114
1889.335
1887.969
1888.063
1889.61
1892.556
1896.803
1902.21
1908.604
1915.786
1923.536
1931.628
1939.83
1947.918
1955.677
1962.912
1969.448
1975.134
1979.852
1983.507
1986.039
1987.415
1987.632
1986.712
1984.703
1981.674
1977.713
1972.922
1967.419
1961.325
1954.77
1947.886
1940.802
1933.643
1926.53
1919.572
1912.872
1906.51
1900.588
1895.027
1890.546
1883.899
2030.211
2016.56
2003.57
1991.256
1979.539
1968.321
1957.533
1947.154
1937.223
1927.834
1919.126
1911.268
1904.438
1898.809
1894.53
1891.72
1890.451
1890.749
1892.588
1895.893
1900.544
1906.379
1913.205
1920.805
1928.943
1937.38
1945.875
1954.194
1962.12
1969.456
1976.027
1981.688
1986.321
1989.842
1992.195
1993.356
1993.33
1992.147
1989.863
1986.554
1982.316
1977.257
1971.5
1965.173
1958.409
1951.343
1944.107
1936.828
1929.627
1922.614
1915.889
1909.539
1903.636
1898.239
1893.391
1889.12
1885.442
1882.329
1879.951
1877.174
1972.216
1962.02
1952.552
1943.574
1934.948
1926.675
1918.865
1911.702
1905.404
1900.195
1896.271
1893.789
1892.853
1893.504
1895.725
1899.44
1904.52
1910.793
1918.051
1926.061
1934.575
1943.341
1952.109
1960.639
1968.71
1976.123
1982.706
1988.316
1992.843
1996.207
1998.362
1999.29
1999.005
1997.545
1994.974
1991.376
1986.853
1981.522
1975.507
1968.943
1961.968
1954.718
1947.329
1939.929
1932.639
1925.572
1918.824
1912.483
1906.618
1901.286
1896.527
1892.367
1888.816
1885.873
1883.52
1881.733
1880.464
1879.703
1879.264
1879.484
1939.58
1932.921
1925.664
1918.37
1911.574
1905.73
1901.192
1898.21
1896.934
1897.422
1899.645
1903.504
1908.837
1915.436
1923.061
1931.448
1940.323
1949.411
1958.448
1967.185
1975.393
1982.873
1989.454
1994.999
1999.402
2002.593
2004.532
2005.212
2004.654
2002.905
2000.038
1996.144
1991.331
1985.721
1979.447
1972.646
1965.459
1958.026
1950.485
1942.965
1935.589
1928.467
1921.698
1915.366
1909.539
1904.273
1899.603
1895.554
1892.132
1889.331
1887.132
1885.503
1884.405
1883.789
1883.599
1883.778
1884.251
1885.004
1885.747
1887.359
1919.652
1911.016
1904.567
1900.454
1898.67
1899.115
1901.622
1905.976
1911.925
1919.19
1927.474
1936.474
1945.891
1955.433
1964.827
1973.821
1982.191
1989.742
1996.313
2001.774
2006.031
2009.024
2010.725
2011.135
2010.286
2008.234
2005.058
2000.859
1995.75
1989.859
1983.324
1976.285
1968.888
1961.275
1953.585
1945.949
1938.489
1931.317
1924.53
1918.21
1912.425
1907.225
1902.646
1898.708
1895.414
1892.755
1890.707
1889.237
1888.3
1887.845
1887.812
1888.14
1888.764
1889.619
1890.64
1891.765
1892.932
1894.111
1895.117
1896.562
1893.665
1896.794
1901.448
1907.562
1914.953
1923.388
1932.606
1942.335
1952.302
1962.24
1971.897
1981.038
1989.457
1996.973
2003.437
2008.733
2012.777
2015.519
2016.938
2017.048
2015.885
2013.513
2010.02
2005.509
2000.102
1993.93
1987.135
1979.861
1972.258
1964.468
1956.634
1948.887
1941.35
1934.133
1927.333
1921.03
1915.29
1910.162
1905.677
1901.852
1898.688
1896.172
1894.275
1892.962
1892.184
1891.886
1892.007
1892.481
1893.242
1894.223
1895.356
1896.58
1897.836
1899.071
1900.237
1901.293
1902.21
1902.943
1903.512
1903.844
1923.318
1931.675
1940.728
1950.299
1960.132
1969.955
1979.504
1988.533
1996.825
2004.192
2010.481
2015.574
2019.388
2021.875
2023.02
2022.837
2021.371
2018.691
2014.89
2010.077
2004.379
1997.933
1990.884
1983.381
1975.575
1967.614
1959.64
1951.787
1944.177
1936.92
1930.113
1923.833
1918.144
1913.093
1908.708
1905.001
1901.971
1899.6
1897.857
1896.701
1896.081
1895.938
1896.209
1896.825
1897.717
1898.817
1900.056
1901.372
1902.705
1904.001
1905.214
1906.304
1907.239
1907.995
1908.555
1908.905
1909.055
1908.953
1908.803
1907.855
1964.594
1975.097
1985.162
1994.579
2003.142
2010.671
2017.021
2022.085
2025.793
2028.11
2029.034
2028.592
2026.841
2023.861
2019.753
2014.635
2008.641
2001.915
1994.607
1986.871
1978.861
1970.727
1962.614
1954.656
1946.976
1939.683
1932.873
1926.622
1920.991
1916.022
1911.743
1908.161
1905.27
1903.048
1901.462
1900.466
1900.006
1900.019
1900.438
1901.193
1902.212
1903.425
1904.763
1906.162
1907.563
1908.912
1910.162
1911.276
1912.222
1912.978
1913.527
1913.861
1913.98
1913.887
1913.593
1913.109
1912.465
1911.614
1910.854
1909.034
2010.819
2018.402
2024.659
2029.514
2032.935
2034.913
2035.469
2034.646
2032.51
2029.151
2024.676
2019.209
2012.889
2005.862
1998.282
1990.306
1982.09
1973.785
1965.536
1957.479
1949.736
1942.415
1935.61
1929.396
1923.83
1918.953
1914.786
1911.336
1908.59
1906.524
1905.1
1904.267
1903.968
1904.138
1904.705
1905.598
1906.741
1908.064
1909.496
1910.972
1912.433
1913.825
1915.104
1916.232
1917.179
1917.924
1918.453
1918.761
1918.846
1918.717
1918.384
1917.863
1917.174
1916.338
1915.378
1914.313
1913.182
1911.936
1910.881
1908.786
2039.725
2041.283
2041.458
2040.269
2037.782
2034.087
2029.293
2023.524
2016.921
2009.632
2001.814
1993.626
1985.226
1976.768
1968.4
1960.257
1952.462
1945.124
1938.334
1932.165
1926.673
1921.895
1917.848
1914.536
1911.941
1910.036
1908.778
1908.112
1907.977
1908.305
1909.021
1910.049
1911.315
1912.745
1914.266
1915.814
1917.329
1918.758
1920.058
1921.191
1922.13
1922.855
1923.355
1923.625
1923.668
1923.493
1923.113
1922.546
1921.814
1920.937
1919.942
1918.85
1917.688
1916.476
1915.236
1913.981
1912.741
1911.467
1910.419
1908.48
2042.656
2038.785
2033.799
2027.812
2020.973
2013.445
2005.397
1996.994
1988.403
1979.784
1971.287
1963.05
1955.199
1947.84
1941.064
1934.942
1929.528
1924.853
1920.932
1917.763
1915.326
1913.587
1912.499
1912.004
1912.037
1912.524
1913.389
1914.554
1915.941
1917.474
1919.082
1920.698
1922.262
1923.723
1925.037
1926.168
1927.092
1927.789
1928.251
1928.476
1928.468
1928.239
1927.804
1927.183
1926.398
1925.475
1924.437
1923.312
1922.122
1920.89
1919.637
1918.381
1917.137
1915.917
1914.729
1913.576
1912.472
1911.36
1910.462
1908.783
2025.135
2017.343
2009.035
2000.387
1991.576
1982.773
1974.133
1965.796
1957.886
1950.51
1943.756
1937.691
1932.365
1927.805
1924.022
1921.007
1918.737
1917.173
1916.262
1915.944
1916.148
1916.798
1917.814
1919.116
1920.623
1922.258
1923.949
1925.629
1927.238
1928.725
1930.047
1931.172
1932.074
1932.737
1933.156
1933.328
1933.263
1932.973
1932.477
1931.795
1930.952
1929.975
1928.89
1927.723
1926.5
1925.243
1923.974
1922.709
1921.465
1920.252
1919.077
1917.946
1916.859
1915.816
1914.812
1913.839
1912.9
1911.928
1911.143
1909.55
1994.317
1985.469
1976.771
1968.39
1960.465
1953.106
1946.402
1940.418
1935.198
1930.769
1927.136
1924.286
1922.191
1920.808
1920.08
1919.942
1920.319
1921.132
1922.299
1923.736
1925.361
1927.096
1928.867
1930.606
1932.256
1933.765
1935.091
1936.203
1937.078
1937.703
1938.072
1938.188
1938.061
1937.706
1937.143
1936.397
1935.492
1934.458
1933.321
1932.109
1930.848
1929.562
1928.271
1926.994
1925.744
1924.533
1923.368
1922.252
1921.186
1920.167
1919.191
1918.25
1917.335
1916.437
1915.545
1914.643
1913.736
1912.745
1911.928
1910.144
1962.776
1955.607
1949.029
1943.161
1938.068
1933.781
1930.303
1927.622
1925.704
1924.502
1923.957
1923.998
1924.548
1925.524
1926.841
1928.411
1930.152
1931.984
1933.831
1935.627
1937.313
1938.839
1940.164
1941.259
1942.103
1942.684
1942.999
1943.055
1942.862
1942.438
1941.807
1940.993
1940.024
1938.93
1937.74
1936.482
1935.182
1933.865
1932.551
1931.258
1930.001
1928.789
1927.628
1926.523
1925.473
1924.474
1923.521
1922.606
1921.718
1920.847
1919.981
1919.108
1918.218
1917.298
1916.34
1915.328
1914.276
1913.093
1912.105
1909.929
1940.645
1936.685
1933.441
1930.963
1929.241
1928.233
1927.878
1928.105
1928.831
1929.972
1931.438
1933.142
1934.997
1936.923
1938.844
1940.692
1942.409
1943.947
1945.266
1946.339
1947.145
1947.677
1947.934
1947.924
1947.662
1947.166
1946.463
1945.58
1944.546
1943.392
1942.148
1940.844
1939.505
1938.158
1936.821
1935.513
1934.248
1933.034
1931.879
1930.783
1929.746
1928.763
1927.829
1926.933
1926.067
1925.217
1924.373
1923.521
1922.65
1921.748
1920.806
1919.813
1918.762
1917.648
1916.467
1915.211
1913.9
1912.442
1911.218
1908.624
1932.486
1931.869
1931.788
1932.238
1933.161
1934.477
1936.099
1937.938
1939.907
1941.924
1943.914
1945.81
1947.553
1949.096
1950.403
1951.445
1952.208
1952.685
1952.878
1952.797
1952.46
1951.889
1951.111
1950.156
1949.056
1947.841
1946.544
1945.193
1943.818
1942.441
1941.083
1939.762
1938.49
1937.276
1936.126
1935.039
1934.015
1933.048
1932.131
1931.253
1930.405
1929.572
1928.744
1927.907
1927.049
1926.159
1925.226
1924.242
1923.198
1922.089
1920.911
1919.663
1918.342
1916.951
1915.494
1913.967
1912.4
1910.698
1909.275
1906.395
1937.264
1938.921
1940.767
1942.771
1944.866
1946.98
1949.04
1950.98
1952.745
1954.289
1955.576
1956.583
1957.296
1957.711
1957.834
1957.677
1957.261
1956.61
1955.755
1954.726
1953.556
1952.28
1950.929
1949.533
1948.12
1946.715
1945.338
1944.005
1942.729
1941.516
1940.373
1939.297
1938.287
1937.336
1936.436
1935.575
1934.743
1933.926
1933.111
1932.285
1931.436
1930.552
1929.623
1928.64
1927.596
1926.486
1925.306
1924.055
1922.731
1921.338
1919.877
1918.353
1916.773
1915.141
1913.466
1911.75
1910.022
1908.193
1906.674
1903.717
1949.612
1951.961
1954.153
1956.167
1957.965
1959.512
1960.78
1961.748
1962.406
1962.755
1962.803
1962.566
1962.067
1961.333
1960.397
1959.292
1958.053
1956.714
1955.309
1953.869
1952.42
1950.988
1949.593
1948.25
1946.97
1945.761
1944.625
1943.562
1942.567
1941.632
1940.749
1939.906
1939.089
1938.286
1937.482
1936.665
1935.822
1934.941
1934.012
1933.027
1931.978
1930.861
1929.672
1928.411
1927.078
1925.675
1924.206
1922.675
1921.089
1919.454
1917.778
1916.067
1914.331
1912.577
1910.812
1909.04
1907.286
1905.465
1903.964
1901.118
1962.997
1964.656
1965.955
1966.906
1967.518
1967.802
1967.774
1967.454
1966.87
1966.052
1965.034
1963.853
1962.544
1961.144
1959.686
1958.202
1956.72
1955.264
1953.853
1952.502
1951.221
1950.017
1948.891
1947.841
1946.862
1945.944
1945.079
1944.252
1943.45
1942.66
1941.867
1941.057
1940.218
1939.338
1938.406
1937.414
1936.357
1935.228
1934.027
1932.751
1931.403
1929.985
1928.501
1926.957
1925.359
1923.715
1922.032
1920.318
1918.582
1916.831
1915.072
1913.312
1911.559
1909.818
1908.094
1906.387
1904.719
1903.006
1901.602
1898.968
1972.419
1972.736
1972.681
1972.302
1971.643
1970.746
1969.649
1968.394
1967.018
1965.559
1964.052
1962.528
1961.016
1959.539
1958.115
1956.76
1955.482
1954.286
1953.173
1952.139
1951.177
1950.278
1949.431
1948.621
1947.834
1947.057
1946.273
1945.469
1944.632
1943.75
1942.813
1941.813
1940.744
1939.601
1938.383
1937.09
1935.723
1934.286
1932.783
1931.221
1929.607
1927.948
1926.252
1924.529
1922.786
1921.032
1919.274
1917.52
1915.775
1914.045
1912.335
1910.649
1908.99
1907.359
1905.759
1904.185
1902.654
1901.086
1899.805
1897.386
1976.176
1975.305
1974.185
1972.882
1971.453
1969.944
1968.393
1966.834
1965.297
1963.803
1962.372
1961.017
1959.745
1958.562
1957.465
1956.45
1955.509
1954.631
1953.803
1953.012
1952.241
1951.476
1950.702
1949.903
1949.067
1948.182
1947.238
1946.228
1945.145
1943.987
1942.751
1941.437
1940.049
1938.59
1937.066
1935.483
1933.849
1932.172
1930.46
1928.723
1926.969
1925.207
1923.444
1921.689
1919.946
1918.222
1916.522
1914.849
1913.205
1911.593
1910.013
1908.465
1906.948
1905.461
1904.003
1902.567
1901.166
1899.722
1898.54
1896.271
1975.627
1974.189
1972.654
1971.091
1969.544
1968.044
1966.612
1965.263
1964.003
1962.835
1961.758
1960.766
1959.848
1958.994
1958.189
1957.418
1956.665
1955.913
1955.148
1954.355
1953.52
1952.632
1951.681
1950.659
1949.562
1948.386
1947.131
1945.796
1944.385
1942.903
1941.356
1939.751
1938.095
1936.398
1934.668
1932.915
1931.148
1929.375
1927.605
1925.844
1924.1
1922.377
1920.68
1919.014
1917.38
1915.781
1914.216
1912.685
1911.188
1909.722
1908.285
1906.875
1905.489
1904.122
1902.773
1901.434
1900.116
1898.743
1897.615
1895.407
1973.523
1972.152
1970.784
1969.473
1968.242
1967.101
1966.05
1965.084
1964.193
1963.365
1962.584
1961.834
1961.099
1960.361
1959.606
1958.818
1957.984
1957.093
1956.134
1955.101
1953.989
1952.795
1951.519
1950.163
1948.729
1947.224
1945.653
1944.024