/*--------------------------------*- C++ -*----------------------------------*\
| =========                 |                                                 |
| \\      /  F ield         | OpenFOAM: The Open Source CFD Toolbox           |
|  \\    /   O peration     | Version:  2312                                  |
|   \\  /    A nd           | Website:  www.openfoam.com                      |
|    \\/     M anipulation  |                                                 |
\*---------------------------------------------------------------------------*/
FoamFile
{
    version     2.0;
    format      ascii;
    arch        "LSB;label=32;scalar=64";
    class       volScalarField;
    location    "3900";
    object      omega;
}
// * * * * * * * * * * * * * * * * * * * * * * * * * * * * * * * * * * * * * //

dimensions      [0 0 -1 0 0 0 0];

internalField   nonuniform List<scalar> 
12000
(
49.70363
19.53872
21.27315
22.91968
24.13738
25.16289
26.04217
26.85251
27.56592
28.16729
28.69075
29.18618
29.66865
30.07905
30.4096
30.70897
31.00419
31.28822
31.50647
31.68165
31.8442
31.99741
32.12715
32.21437
32.2847
32.33182
32.36438
32.3745
32.3742
32.35179
32.30101
32.2538
32.18635
32.14074
32.0735
31.96407
31.75759
31.46884
31.28233
31.22648
31.07887
30.68655
30.02497
29.46658
29.47468
29.36861
28.85912
27.68378
27.02591
26.85433
26.70886
25.5707
24.14331
23.57651
22.79897
21.64698
20.22321
18.9555
17.86524
40.79875
86.28393
22.565
21.76273
22.68757
22.92693
22.92495
22.39921
21.9214
21.45864
20.83269
20.25039
19.67774
19.07581
18.27891
17.64278
17.33438
16.95459
16.34196
15.6426
15.31837
15.13151
14.78415
14.32475
13.97494
13.75905
13.55417
13.34981
13.14724
12.9487
12.81408
12.77692
12.76789
12.75668
12.70658
12.67035
12.68896
12.83871
13.04157
13.17061
13.18391
13.21664
13.56688
14.15846
14.70533
14.7362
14.76199
15.52634
16.75762
17.75689
18.01777
18.15501
19.97581
22.1289
23.65889
25.18453
28.06866
33.11767
40.4568
53.93302
76.37975
90.26006
22.89511
20.88391
20.30199
19.69279
18.79334
17.81995
16.83251
15.90861
15.00147
14.19575
13.45922
12.78651
12.25505
11.81512
11.42538
11.03774
10.69081
10.41649
10.20532
10.00736
9.816545
9.657503
9.537553
9.442436
9.361718
9.29683
9.248606
9.218359
9.210078
9.210167
9.217929
9.235173
9.267643
9.309988
9.374436
9.456063
9.544991
9.634565
9.734789
9.864676
10.02949
10.20345
10.36905
10.54286
10.76898
11.02512
11.32223
11.67014
12.09031
12.60849
13.208
13.96999
15.00336
16.46106
18.54491
22.05684
29.24464
47.0893
84.76621
92.69923
22.00113
18.91743
18.07238
17.04732
15.89703
14.78529
13.76695
12.84206
12.06471
11.35599
10.71696
10.16937
9.726641
9.357931
9.032423
8.748285
8.508879
8.306792
8.136446
7.990914
7.868703
7.7697
7.691015
7.628936
7.581428
7.547746
7.527294
7.522131
7.524857
7.537238
7.556702
7.59275
7.644771
7.706165
7.781043
7.870325
7.973696
8.091532
8.225248
8.377512
8.550536
8.745789
8.968893
9.218823
9.499659
9.820039
10.19077
10.62172
11.11676
11.70997
12.41688
13.20803
14.13621
15.3256
17.17876
20.31537
26.28749
41.96876
90.37926
94.8086
21.18056
17.37941
16.35499
15.18798
13.98862
12.86451
11.86404
11.00622
10.2823
9.668094
9.151345
8.700841
8.297854
7.962587
7.678062
7.434711
7.228451
7.052906
6.904868
6.782059
6.680251
6.596652
6.529605
6.477531
6.439241
6.413886
6.402309
6.401058
6.406937
6.423893
6.455965
6.498681
6.553509
6.620129
6.699784
6.793098
6.900132
7.021442
7.157939
7.3111
7.481222
7.667214
7.871568
8.098235
8.348938
8.625967
8.930849
9.279985
9.679784
10.12109
10.59901
11.19686
12.04217
13.26679
15.0621
17.96217
23.6915
39.24088
94.35505
96.63945
20.68248
16.14056
14.95052
13.7612
12.60155
11.54689
10.62612
9.841802
9.173781
8.603049
8.115859
7.713702
7.367239
7.055278
6.78533
6.555498
6.36065
6.196984
6.059086
5.943004
5.846131
5.766782
5.703627
5.655498
5.621433
5.600672
5.594655
5.597719
5.613645
5.641851
5.682559
5.736074
5.80341
5.88242
5.974726
6.08363
6.207938
6.348076
6.504983
6.67975
6.873656
7.087798
7.320511
7.576202
7.85815
8.166696
8.512867
8.892834
9.297531
9.755736
10.30521
10.97909
11.8162
12.91109
14.48909
17.07639
22.17883
36.44412
97.30724
98.37811
20.46213
15.17676
13.83486
12.67927
11.59034
10.61162
9.759514
9.03
8.407121
7.874559
7.418415
7.026899
6.695485
6.4099
6.155872
5.933782
5.743466
5.58172
5.44499
5.330264
5.235316
5.1585
5.098518
5.05431
5.025028
5.010674
5.009489
5.021373
5.046818
5.085882
5.137712
5.201482
5.279491
5.372739
5.480403
5.603487
5.742674
5.898541
6.071729
6.262873
6.472581
6.70137
6.949778
7.218726
7.508188
7.823813
8.162666
8.52003
8.911027
9.348812
9.851473
10.4523
11.2126
12.24537
13.76855
16.28182
21.25902
35.12022
99.36228
100.9463
20.92012
14.52512
12.98195
11.85183
10.83201
9.925063
9.13535
8.454701
7.868911
7.363997
6.927905
6.549865
6.221163
5.940251
5.698193
5.484745
5.298755
5.139101
5.003801
4.890655
4.797757
4.723579
4.666885
4.626665
4.602103
4.594188
4.598736
4.617802
4.65109
4.698503
4.759847
4.835023
4.924581
5.029137
5.149219
5.285435
5.438445
5.608927
5.797583
6.005108
6.232167
6.479343
6.74719
7.035845
7.3482
7.682063
8.033365
8.406616
8.81025
9.255355
9.761099
10.36012
11.10199
12.08937
13.52342
15.87157
20.51302
33.60264
100.8736
103.0881
20.98039
14.01389
12.29667
11.19564
10.24487
9.403051
8.665968
8.025954
7.471553
6.990911
6.573292
6.209485
5.89174
5.614102
5.3751
5.170377
4.991368
4.835568
4.702623
4.591354
4.500451
4.428667
4.374895
4.338192
4.317765
4.313591
4.323659
4.348537
4.388014
4.442012
4.510967
4.594738
4.693228
4.807006
4.936687
5.082927
5.246432
5.427928
5.628146
5.847788
6.087487
6.347838
6.629111
6.932593
7.25611
7.598521
7.961764
8.347032
8.753831
9.187903
9.665462
10.22021
10.91599
11.85595
13.24108
15.53463
20.08621
32.84249
101.9161
90.87953
21.07121
13.73919
11.81257
10.70094
9.798069
9.012225
8.324999
7.725023
7.201007
6.74253
6.340763
5.988214
5.678751
5.407243
5.169908
4.964578
4.789266
4.63889
4.510058
4.40194
4.313638
4.244307
4.193077
4.159127
4.142061
4.140693
4.154555
4.183472
4.227229
4.285743
4.359689
4.449015
4.553347
4.673269
4.809428
4.96253
5.133338
5.322654
5.53129
5.760029
6.00957
6.280396
6.573613
6.889385
7.226293
7.581376
7.953351
8.342715
8.750788
9.183847
9.657957
10.20392
10.88162
11.79567
13.13469
15.34313
19.7149
32.00082
102.6517
92.87023
21.52356
13.56058
11.42963
10.3031
9.442502
8.706233
8.060597
7.493533
6.995887
6.559325
6.17544
5.837339
5.539316
5.276818
5.046135
4.844684
4.670855
4.522778
4.397822
4.293433
4.208518
4.142187
4.093666
4.062221
4.048134
4.049025
4.065378
4.096833
4.143177
4.204331
4.280929
4.37305
4.480482
4.603811
4.743704
4.900913
5.076264
5.270644
5.484972
5.720168
5.977086
6.256454
6.557974
6.880555
7.224602
7.590093
7.974796
8.375029
8.787939
9.215564
9.67304
10.19666
10.84664
11.72115
13.02414
15.19506
19.5085
31.57526
103.1499
105.7531
22.55704
13.59413
11.19408
10.01051
9.165886
8.464806
7.856808
7.323033
6.852459
6.436445
6.06819
5.742036
5.454207
5.201489
4.980606
4.787788
4.620222
4.476335
4.354527
4.253376
4.171534
4.107972
4.061733
4.032089
4.018821
4.020618
4.037614
4.069608
4.116516
4.178377
4.255777
4.34899
4.45784
4.582776
4.724407
4.883482
5.060839
5.257399
5.474125
5.71198
5.971869
6.254585
6.560738
6.890695
7.243856
7.618046
8.01242
8.42541
8.847888
9.273753
9.715925
10.2168
10.84496
11.70272
12.98291
15.11072
19.33059
31.12833
103.467
96.55045
23.11316
13.68355
11.04663
9.798507
8.960314
8.289177
7.714276
7.208774
6.761179
6.364378
6.014176
5.707914
5.439146
5.19852
4.981827
4.789788
4.622356
4.478584
4.357224
4.256899
4.176627
4.114875
4.070211
4.041777
4.029028
4.031321
4.048497
4.080408
4.127004
4.188346
4.264788
4.356662
4.46425
4.588066
4.728774
4.887178
5.064206
5.260884
5.478312
5.717624
5.979906
6.266076
6.576759
6.911826
7.272406
7.659477
8.068226
8.488378
8.909604
9.329944
9.762964
10.2475
10.8539
11.69084
12.94458
15.04698
19.23303
30.91186
103.6958
97.75112
23.78138
13.82797
10.9632
9.649283
8.806594
8.154453
7.604365
7.124875
6.701706
6.327889
5.99907
5.708114
5.445423
5.210815
5.002169
4.816942
4.653762
4.512316
4.392456
4.293306
4.213202
4.151097
4.106218
4.077856
4.065113
4.067223
4.083847
4.114809
4.160136
4.219986
4.294688
4.384757
4.490667
4.61294
4.752307
4.909617
5.085854
5.282098
5.499488
5.739194
6.00239
6.290043
6.603737
6.946907
7.320829
7.720235
8.136231
8.558476
8.978452
9.393029
9.815139
10.28391
10.87208
11.69057
12.92978
15.01061
19.15132
30.69002
103.8451
98.73747
24.4424
14.03065
10.96258
9.557659
8.694138
8.051215
7.521673
7.065024
6.663645
6.309186
5.996312
5.717641
5.4698
5.24692
5.046836
4.867893
4.709524
4.571331
4.45252
4.352737
4.271716
4.208692
4.16276
4.133091
4.118931
4.119615
4.134486
4.163739
4.207243
4.265076
4.337556
4.425444
4.529391
4.649831
4.787511
4.943335
5.118345
5.313697
5.530554
5.770006
6.034348
6.326728
6.648632
6.999854
7.378739
7.781556
8.200776
8.624756
9.041978
9.449999
9.86388
10.32102
10.89307
11.69531
12.91893
14.98518
19.1092
30.59385
103.9239
99.37765
25.05899
14.26151
10.98622
9.502095
8.613771
7.972959
7.457183
7.018031
6.634391
6.296499
5.999743
5.738011
5.503063
5.290637
5.098892
4.927157
4.774627
4.640343
4.524037
4.425415
4.344121
4.27987
4.232205
4.200572
4.184374
4.183066
4.195766
4.223077
4.264398
4.31974
4.389443
4.474585
4.576037
4.694211
4.829819
4.98363
5.156938
5.351508
5.569038
5.811251
6.079974
6.376924
6.703269
7.058948
7.44171
7.846279
8.264307
8.685689
9.100495
9.504561
9.909407
10.35438
10.91389
11.70415
12.91723
14.97102
19.07639
30.52866
103.9779
99.75984
25.65436
14.51546
11.0566
9.487769
8.56468
7.917679
7.409415
6.983406
6.6146
6.291467
6.008887
5.759889
5.536762
5.335379
5.153331
4.989
4.841688
4.711336
4.597694
4.500599
4.41981
4.355213
4.306481
4.273208
4.254967
4.251367
4.261635
4.286445
4.325275
4.37817
4.445304
4.526921
4.624583
4.740405
4.874919
5.028304
5.201645
5.396547
5.614865
5.85856
6.129576
6.429525
6.759163
7.1178
7.502666
7.908251
8.325919
8.744565
9.153732
9.55029
9.948042
10.38573
10.9352
11.71295
12.9155
14.96035
19.04611
30.44492
103.9608
99.96661
26.21236
14.77912
11.1495
9.493081
8.535504
7.878048
7.372482
6.955719
6.598984
6.288658
6.018202
5.78066
5.568567
5.377188
5.203863
5.047004
4.905701
4.779523
4.668553
4.573005
4.493014
4.428378
4.378905
4.344327
4.324344
4.318668
4.326671
4.348985
4.385202
4.435404
4.499769
4.57854
4.67351
4.787171
4.920222
5.072804
5.245886
5.441007
5.660044
5.904996
6.177754
6.479769
6.811561
7.172105
7.558157
7.963725
8.379981
8.79608
9.201769
9.593396
9.983981
10.41308
10.95366
11.72376
12.92083
14.9585
19.04197
30.43848
103.885
100.1125
26.73415
15.05377
11.26402
9.523354
8.524077
7.851031
7.343621
6.932419
6.584835
6.284799
6.023857
5.796037
5.593782
5.411528
5.246303
5.096268
4.960424
4.838497
4.730704
4.637294
4.55845
4.494167
4.444377
4.408917
4.38759
4.38021
4.386322
4.406483
4.440428
4.488284
4.550262
4.626596
4.719161
4.830728
4.962317
5.114133
5.287012
5.482377
5.702077
5.948144
6.22247
6.526382
6.860123
7.222252
7.609067
8.014172
8.428443
8.840898
9.241435
9.626978
10.01127
10.43416
10.9682
11.7317
12.92323
14.95544
19.02502
30.38737
103.8174
100.2127
27.21034
15.32438
11.38835
9.566665
8.525035
7.83253
7.319487
6.910449
6.569092
6.276825
6.023379
5.802768
5.608901
5.434807
5.27673
5.132879
5.002315
4.884724
4.780233
4.689171
4.611828
4.548381
4.498828
4.463083
4.441028
4.432565
4.437387
4.456009
4.488304
4.534474
4.594775
4.669441
4.760293
4.870236
5.000664
5.15198
5.324962
5.52094
5.741701
5.989238
6.265368
6.571267
6.906911
7.270492
7.657895
8.062369
8.474604
8.883652
9.27958
9.659509
10.03748
10.45391
10.98181
11.74008
12.92791
14.95702
19.0235
30.37297
103.6701
100.4196
27.66825
15.60083
11.52394
9.621122
8.534697
7.819984
7.298038
6.888067
6.550266
6.26371
6.016588
5.800761
5.610489
5.442727
5.291784
5.154137
5.028695
4.915374
4.814405
4.726132
4.650881
4.588881
4.540229
4.504925
4.482928
4.474207
4.478555
4.496494
4.528002
4.573388
4.633057
4.70724
4.797141
4.905778
5.035587
5.18708
5.360684
5.557657
5.779754
6.028921
6.306885
6.614644
6.951893
7.316465
7.703866
8.107038
8.516517
8.921413
9.312106
9.68625
10.05852
10.46983
10.99324
11.74785
12.93333
14.96036
19.02209
30.35617
103.5823
100.7289
28.08653
15.86645
11.66057
9.680321
8.549421
7.810376
7.276988
6.863479
6.52676
6.243653
6.00076
5.789584
5.604353
5.43913
5.290949
5.157508
5.037159
4.928664
4.831813
4.7469
4.674395
4.614612
4.567693
4.533718
4.512718
4.504727
4.509582
4.527884
4.559642
4.605201
4.66502
4.739689
4.830046
4.938546
5.068188
5.220064
5.39457
5.592842
5.816526
6.067464
6.347254
6.656709
6.995266
7.36044
7.74742
8.148904
8.555338
8.955937
9.34138
9.70979
10.07642
10.48274
11.00205
11.75353
12.93692
14.96212
19.02057
30.34344
103.4298
101.1898
28.51075
16.13797
11.80399
9.745427
8.568363
7.802893
7.255595
6.836037
6.498025
6.216252
5.975885
5.767557
5.584872
5.423061
5.278882
5.14934
5.032161
4.926836
4.832896
4.751511
4.682417
4.625667
4.581374
4.549687
4.530711
4.524526
4.530949
4.550723
4.583841
4.630682
4.691738
4.767602
4.859024
4.968352
5.098698
5.251417
5.427062
5.626758
5.852071
6.104728
6.386184
6.697061
7.036548
7.401872
7.787949
8.187289
8.590291
8.986322
9.36643
9.72931
10.09088
10.49314
11.00955
11.75938
12.94254
14.96856
19.02774
30.34187
103.3574
101.7329
28.94716
16.40327
11.94469
9.810404
8.587665
7.795017
7.232315
6.80489
6.463719
6.181555
5.942267
5.735681
5.554976
5.395345
5.253343
5.126426
5.012877
4.911817
4.822972
4.745212
4.679156
4.625058
4.583492
4.554717
4.538607
4.535121
4.544025
4.566225
4.601641
4.650658
4.713781
4.791631
4.884912
4.995789
5.127336
5.281183
5.458118
5.659291
5.886193
6.140438
6.423341
6.735339
7.075391
7.44047
7.825262
8.222136
8.621489
9.012859
9.387663
9.745148
10.10187
10.50033
11.01411
11.76235
12.94481
14.97041
19.02844
30.33602
103.2314
102.0481
29.37513
16.67183
12.09049
9.879132
8.608975
7.787335
7.207374
6.770251
6.424206
6.140155
5.900746
5.695036
5.515779
5.357979
5.218125
5.093747
4.983182
4.885397
4.799789
4.726063
4.664248
4.614583
4.577008
4.55152
4.538355
4.53804
4.550147
4.575523
4.613988
4.665911
4.731792
4.812247
4.907931
5.02082
5.153934
5.309166
5.487513
5.690144
5.918509
6.174139
6.458224
6.771028
7.111296
7.475773
7.858957
8.253117
8.648685
9.035402
9.405079
9.757547
10.11002
10.50545
11.01751
11.76542
12.94912
14.97704
19.03774
30.34025
103.1804
102.2277
29.80582
16.94804
12.23649
9.946487
8.628633
7.777483
7.179337
6.731334
6.379168
6.092072
5.851576
5.646026
5.467748
5.311525
5.173744
5.051907
4.944325
4.84991
4.768008
4.698256
4.640508
4.594755
4.561111
4.539748
4.530863
4.534208
4.550184
4.579223
4.621298
4.676667
4.745793
4.829327
4.928161
5.043582
5.178173
5.334789
5.514733
5.718852
5.948548
6.205339
6.490334
6.80365
7.143833
7.507423
7.888761
8.280052
8.671792
9.053934
9.418675
9.766404
10.11501
10.5075
11.01823
11.76607
12.95025
14.97872
19.03983
30.34024
103.0752
109.8379
30.44156
17.23822
12.38715
10.01703
8.649102
7.766485
7.148573
6.688346
6.328903
6.037803
5.795485
5.589593
5.412018
5.257289
5.12165
5.002517
4.898134
4.807334
4.72937
4.663739
4.610236
4.568794
4.539455
4.522299
4.517466
4.524884
4.545213
4.578229
4.624217
4.68342
4.756185
4.843113
4.94508
5.063261
5.200043
5.35831
5.539622
5.744995
5.975836
6.2336
6.519293
6.832883
7.172736
7.535221
7.914552
8.302905
8.690866
9.068617
9.428737
9.772087
10.11678
10.50769
11.01806
11.76613
12.95155
14.98419
19.05038
30.35576
103.035
108.7753
30.89891
17.50091
12.52488
10.08225
8.666519
7.752708
7.114533
6.641343
6.273876
5.978134
5.733522
5.527
5.350017
5.196813
5.063444
4.94719
4.846181
4.759149
4.685283
4.62406
4.575154
4.538365
4.513616
4.500934
4.500411
4.511901
4.536191
4.57329
4.623394
4.686608
4.763218
4.853741
4.958994
5.080065
5.219184
5.379214
5.561893
5.768403
6.000202
6.258721
6.54488
6.858512
7.197822
7.559024
7.936238
8.321636
8.705913
9.079494
9.435387
9.774839
10.1174
10.5069
11.01693
11.76574
12.95174
14.98524
19.05261
30.35663
102.9557
110.0058
31.39489
17.77802
12.66574
10.14801
8.682728
7.736539
7.077209
6.590333
6.214255
5.913418
5.666201
5.45888
5.282449
5.130845
4.999913
4.886783
4.789468
4.7066
4.637214
4.580655
4.536491
4.504501
4.48454
4.476558
4.480486
4.496576
4.524943
4.565914
4.61988
4.686988
4.767428
4.861562
4.970098
5.094073
5.235613
5.397461
5.581446
5.788941
6.021499
6.280558
6.566967
6.880436
7.219022
7.57881
7.953852
8.336338
8.717087
9.086737
9.438562
9.774805
10.1149
10.50304
11.0131
11.7632
12.95162
14.98788
19.06249
30.37673
102.9379
110.2216
31.8664
18.04314
12.79673
10.20672
8.694686
7.71691
7.036481
6.535739
6.150843
5.844771
5.594908
5.386853
5.211134
5.061359
4.933136
4.823411
4.730037
4.651547
4.586817
4.53512
4.495926
4.46893
4.453917
4.450774
4.459321
4.479902
4.512502
4.55735
4.614916
4.685626
4.769587
4.8671
4.978765
5.105559
5.249455
5.413031
5.598197
5.80651
6.039628
6.299008
6.585451
6.89856
7.236271
7.594566
7.967449
8.347139
8.724583
9.09067
9.438927
9.772236
10.11018
10.49748
11.0079
11.75931
12.94992
14.9885
19.06443
30.3809
102.8886
110.4191
32.35622
18.3348
12.93472
10.26413
8.704416
7.694679
6.992973
6.478278
6.084541
5.773268
5.520851
5.31221
5.137395
4.989675
4.864405
4.758329
4.669179
4.595282
4.535452
4.488789
4.454719
4.432807
4.422777
4.424435
4.437751
4.462734
4.499481
4.548173
4.609187
4.683069
4.770175
4.870752
4.985288
5.114687
5.260766
5.42592
5.612115
5.821075
6.054564
6.314078
6.600384
6.913001
7.249735
7.606465
7.977163
8.354117
8.728436
9.091091
9.436491
9.767209
10.10357
10.49041
11.00149
11.75443
12.9472
14.98869
19.07205
30.40213
102.8909
110.6511
32.82223
18.60946
13.05789
10.31135
8.708558
7.668668
6.946365
6.418017
6.015641
5.699373
5.444642
5.235693
5.062096
4.916769
4.794804
4.692744
4.608086
4.538969
4.484076
4.442477
4.413528
4.396718
4.391688
4.39814
4.416084
4.44543
4.486249
4.538705
4.603052
4.679842
4.769691
4.872914
4.989958
5.121667
5.269686
5.43622
5.623271
5.83271
6.0664
6.325864
6.611836
6.923754
7.259369
7.614545
7.983252
8.357708
8.729034
9.08893
9.431585
9.760194
10.09533
10.48192
10.99375
11.74822
12.943
14.9877
19.07295
30.40742
102.8753
109.2381
33.24683
18.90548
13.19382
10.35926
8.708682
7.639672
6.897803
6.356566
5.946112
5.625289
5.368616
5.159679
4.987573
4.844855
4.726373
4.62845
4.548348
4.484081
4.434212
4.397735
4.373864
4.362027
4.361817
4.372882
4.395214
4.428684
4.473336
4.529317
4.596868
4.676396
4.768565
4.873982
4.993121
5.126782
5.276451
5.444136
5.631855
5.841601
6.075326
6.334608
6.620219
6.931579
7.266317
7.620048
7.986502
8.358381
8.727273
9.084623
9.42499
9.751855
10.08619
10.473
10.98574
11.74165
12.93839
14.98578
19.07513
30.42551
102.9014
109.4596
33.67663
19.18255
13.31426
10.39863
8.705877
7.606948
6.845922
6.292466
5.874628
5.549901
5.291887
5.083531
4.91345
4.773834
4.659202
4.56558
4.490133
4.430772
4.385975
4.354573
4.335697
4.328715
4.333153
4.348727
4.375242
4.412615
4.46087
4.520134
4.590643
4.67274
4.767014
4.874212
4.995003
5.130205
5.281181
5.449766
5.63798
5.847915
6.081603
6.340671
6.625851
6.93635
7.26976
7.621871
7.986792
8.356825
8.723464
9.078465
9.416722
9.742118
10.07575
10.46263
10.97626
11.73371
12.93233
14.98229
19.07677
30.43144
102.9136
109.4864
34.10459
19.47561
13.44738
10.4441
8.704105
7.576044
6.796201
6.230847
5.805902
5.477525
5.218395
5.010776
4.842796
4.706295
4.595444
4.506053
4.435104
4.380443
4.340446
4.313858
4.299734
4.297368
4.30624
4.326007
4.356439
4.397433
4.449
4.511261
4.584443
4.668888
4.765065
4.87374
4.995789
5.132123
5.284062
5.453306
5.641824
5.851751
6.085159
6.343677
6.628013
6.937635
7.270058
7.620902
7.984089
8.35215
8.716751
9.069844
9.406478
9.730636
10.0637
10.45089
10.96571
11.72495
12.92552
14.978
19.07636
30.44042
102.937
109.6722
34.49109
19.7473
13.56609
10.47909
8.695876
7.54047
6.743231
6.167295
5.736483
5.405517
5.146113
4.939887
4.774472
4.641311
4.534351
4.449297
4.382974
4.333069
4.297811
4.275877
4.266283
4.26824
4.28122
4.304843
4.338866
4.383169
4.437739
4.502685
4.578229
4.664721
4.762639
4.87262
4.99555
5.132587
5.285109
5.454723
5.643334
5.853105
6.086174
6.344227
6.627998
6.936744
7.267972
7.617329
7.9788
8.345031
8.707825
9.059302
9.394729
9.718311
10.05144
10.43916
10.95488
11.71535
12.91742
14.9719
19.07339
30.44238
102.9463
109.9958
34.85813
20.01083
13.68483
10.51328
8.686165
7.503975
6.690304
6.104649
5.668653
5.335646
5.076395
4.871842
4.709141
4.579403
4.476382
4.395598
4.333792
4.288491
4.257821
4.240367
4.235099
4.241174
4.258029
4.285238
4.322533
4.369791
4.427015
4.494322
4.571937
4.66021
4.759622
4.870794
4.994513
5.131991
5.284802
5.454562
5.643111
5.852599
6.085184
6.342575
6.625508
6.933251
7.263295
7.611305
7.971309
8.336021
8.697346
9.047519
9.381928
9.704921
10.03806
10.42648
10.94354
11.70575
12.90968
14.96633
19.07105
30.44494
102.9611
110.2155
35.20139
20.26887
13.80312
10.54899
8.678913
7.470769
6.641551
6.04686
5.606108
5.271248
5.012151
4.809156
4.649023
4.522604
4.423446
4.346852
4.289358
4.248368
4.221941
4.208617
4.20728
4.217068
4.237364
4.267746
4.307943
4.35782
4.417374
4.486721
4.566098
4.655849
4.756455
4.868541
4.992898
5.130687
5.283529
5.453154
5.641392
5.850401
6.082363
6.339008
6.621076
6.927819
7.256711
7.603417
7.962016
8.32531
8.685322
9.034419
9.368113
9.690846
10.0242
10.41323
10.93123
11.6947
12.90008
14.95864
19.06595
30.44569
102.9639
110.8467
35.52942
20.5179
13.91887
10.58489
8.673757
7.440765
6.596482
5.993164
5.548051
5.211692
4.953047
4.751857
4.594467
4.471415
4.37598
4.303293
4.249767
4.212726
4.190164
4.180627
4.182793
4.19586
4.219195
4.252362
4.295089
4.34724
4.408799
4.479875
4.560694
4.651612
4.753118
4.865844
4.990594
5.128472
5.28112
5.450377
5.638099
5.84647
6.077691
6.333506
6.614645
6.920351
7.248088
7.593547
7.95086
8.31292
8.671854
9.020128
9.353345
9.676026
10.00979
10.39965
10.91885
11.68378
12.89081
14.95168
19.06304
30.45063
102.9759
111.5719
35.83575
20.75534
14.03538
10.6194
8.667325
7.412304
6.554483
5.943442
5.494542
5.157058
4.899093
4.699804
4.545128
4.425309
4.333414
4.264415
4.21461
4.181242
4.16222
4.156028
4.161333
4.177319
4.203348
4.238959
4.283863
4.337916
4.401108
4.473554
4.555491
4.647279
4.749416
4.862541
4.987464
5.125283
5.277602
5.446295
5.633322
5.840918
6.071303
6.326223
6.606402
6.911068
7.237687
7.581972
7.938116
8.2991
8.657148
9.004815
9.337769
9.660565
9.994814
10.38544
10.90563
11.67168
12.87982
14.94196
19.05543
30.44925
102.9789
112.3478
36.11792
20.98071
14.15168
10.65408
8.661583
7.386328
6.516294
5.898398
5.446249
5.107941
4.850785
4.653391
4.501316
4.384533
4.295915
4.230297
4.183871
4.153793
4.137914
4.134663
4.142734
4.161271
4.189605
4.227273
4.273985
4.329597
4.394103
4.467621
4.550396
4.642796
4.745324
4.85863
4.983531
5.121141
5.273006
5.441001
5.627211
5.833932
6.063408
6.317385
6.596578
6.900207
7.225742
7.568928
7.924021
8.284086
8.641436
8.9887
9.321591
9.644681
9.979562
10.37109
10.89239
11.65974
12.86939
14.93362
19.05066
30.45006
102.991
113.0193
36.37157
21.19258
14.26656
10.68887
8.656874
7.363309
6.482491
5.858652
5.403769
5.064875
4.808564
4.61296
4.463277
4.349246
4.26357
4.200956
4.157505
4.130297
4.117231
4.11651
4.126956
4.147647
4.177906
4.217266
4.265433
4.322268
4.38777
4.462064
4.545403
4.638165
4.740862
4.854153
4.978861
5.116115
5.267411
5.434618
5.619932
5.825711
6.054225
6.307224
6.585415
6.888012
7.212492
7.554638
7.908769
8.268036
8.624831
8.971841
9.304803
9.628275
9.963793
10.35611
10.87831
11.64659
12.85707
14.92225
19.04135
30.44987
103.0072
113.5182
36.5986
21.39258
14.38066
10.72563
8.656196
7.344851
6.453998
5.824804
5.367532
5.028174
4.772658
4.578664
4.431104
4.319494
4.236384
4.176369
4.135476
4.110741
4.100089
4.101524
4.113937
4.136385
4.168184
4.208865
4.258137
4.315867
4.382058
4.456848
4.540497
4.633393
4.736059
4.84916
4.973528
5.110301
5.260932
5.427287
5.611654
5.816448
6.043965
6.295961
6.57314
6.874711
7.198168
7.539334
7.892598
8.251191
8.60758
8.954501
9.2877
9.61171
9.948009
10.34126
10.86454
11.63403
12.84585
14.91264
19.03344
30.44325
103.0153
113.8774
36.80118
21.58078
14.49403
10.76417
8.657461
7.331089
6.431307
5.797259
5.337784
4.997944
4.743065
4.550426
4.404668
4.29512
4.214196
4.156397
4.117671
4.095003
4.08626
4.089456
4.103445
4.127273
4.160253
4.201913
4.251968
4.31029
4.376893
4.451925
4.535655
4.628484
4.730942
4.843705
4.967609
5.1038
5.253694
5.419153
5.602541
5.806321
6.032818
6.283793
6.559948
6.860496
7.182949
7.523179
7.875643
8.233651
8.589737
8.93667
9.270189
9.594778
9.931837
10.32594
10.8501
11.62053
12.83334
14.90161
19.02542
30.44141
103.0313
114.1387
36.98444
21.75968
14.60676
10.80457
8.663079
7.322067
6.414341
5.776018
5.314554
4.974205
4.719782
4.528221
4.383927
4.276064
4.196927
4.140931
4.10396
4.082946
4.075699
4.080253
4.095427
4.120259
4.15406
4.196361
4.246882
4.305505
4.372256
4.44729
4.530892
4.623471
4.725567
4.837862
4.9612
5.096728
5.24583
5.410363
5.592753
5.795507
6.020969
6.27091
6.546032
6.845556
7.167023
7.506353
7.858077
8.215581
8.571458
8.918501
9.252429
9.577668
9.915532
10.31049
10.83553
11.60686
12.8206
14.89008
19.0161
30.4391
103.0412
114.3828
37.15089
21.92938
14.71996
10.84959
8.675022
7.32107
6.404505
5.761734
5.298174
4.957125
4.702878
4.512055
4.368847
4.262267
4.184502
4.129886
4.094247
4.074473
4.06833
4.073848
4.089822
4.115286
4.149552
4.192159
4.242837
4.30148
4.368125
4.442941
4.526223
4.618389
4.719989
4.83171
4.954399
5.089205
5.237477
5.401066
5.582451
5.784171
6.00859
6.257484
6.531561
6.830054
7.150539
7.488992
7.840018
8.197074
8.552806
8.900021
9.234406
9.560314
9.89896
10.29471
10.82053
11.59264
12.80718
14.87777
19.00602
30.43542
103.0605
114.6827
37.30446
22.09165
14.83278
10.89616
8.691062
7.324035
6.401664
5.754194
5.288235
4.946234
4.69191
4.501533
4.359082
4.25343
4.176667
4.123053
4.08836
4.069435
4.064002
4.070096
4.08649
4.112219
4.146603
4.189195
4.239739
4.298141
4.364452
4.438855
4.521652
4.613272
4.714268
4.825332
4.947313
5.081355
5.228772
5.391412
5.571794
5.77248
5.995848
6.243681
6.516698
6.81415
7.133652
7.471245
7.821608
8.178267
8.533912
8.881357
9.216246
9.542852
9.882293
10.27884
10.80542
11.57827
12.79354
14.86495
18.99434
30.42601
103.07
115.0756
37.44953
22.2473
14.94681
10.95115
8.71203
7.332314
6.403921
5.754448
5.286367
4.942905
4.687843
4.497299
4.355067
4.249865
4.173664
4.120633
4.08647
4.06797
4.062819
4.069047
4.085426
4.111005
4.145135
4.187386
4.237512
4.295434
4.361212
4.435035
4.517215
4.608182
4.70849
4.818833
4.940062
5.073314
5.219869
5.381563
5.560947
5.760597
5.982901
6.229655
6.501587
6.797977
7.116488
7.453226
7.802945
8.159237
8.514829
8.86253
9.197933
9.525227
9.865429
10.26272
10.79
11.56355
12.7796
14.8522
18.98414
30.42397
103.0831
115.5599
37.58831
22.39718
15.06276
11.01383
8.738457
7.344915
6.411773
5.757931
5.288083
4.943827
4.688425
4.497769
4.355512
4.250349
4.174266
4.121384
4.087354
4.068932
4.063771
4.069877
4.08601
4.111229
4.144895
4.18655
4.236035
4.293288
4.35838
4.431504
4.512971
4.60321
4.702772
4.812342
4.93279
5.065238
5.210923
5.371675
5.550057
5.748658
5.969879
6.215526
6.486344
6.781646
7.099147
7.435027
7.784112
8.140055
8.495615
8.843589
9.179513
9.507481
9.848412
10.2464
10.77432
11.54848
12.76516
14.83856
18.97174
30.41524
103.0942
116.1011
37.72075
22.54168
15.18103
11.0835
8.771048
7.363179
6.42571
5.769087
5.29699
4.951118
4.694575
4.503183
4.360582
4.255316
4.17917
4.126207
4.092033
4.073347
4.067769
4.073286
4.088684
4.113058
4.145817
4.186651
4.23531
4.291743
4.356031
4.428363
4.509044
4.598496
4.697259
4.806002
4.925639
5.057273
5.202075
5.361881
5.539244
5.736775
5.956885
6.201392
6.471062
6.765244
7.081715
7.416726
7.765177
8.12078
8.476318
8.824568
9.161
9.489616
9.83123
10.22985
10.75833
11.53303
12.7503
14.82461
18.9595
30.40794
103.1036
116.6553
37.84677
22.68153
15.30181
11.15994
8.810347
7.387651
6.4456
5.785895
5.311515
4.963934
4.706145
4.513842
4.37053
4.264688
4.188073
4.134664
4.099987
4.080702
4.074376
4.078968
4.093298
4.116511
4.148107
4.18781
4.235441
4.290922
4.354298
4.425748
4.505568
4.594171
4.692094
4.800005
4.918834
5.0496
5.193424
5.352213
5.528541
5.724995
5.943981
6.187323
6.455809
6.748838
7.064251
7.398376
7.746187
8.101448
8.45696
8.805476
9.142397
9.471628
9.813886
10.2131
10.7421
11.51725
12.73497
14.80992
18.94657
30.39928
103.1101
117.187
37.96754
22.81755
15.42541
11.2429
8.856178
7.418681
6.471817
5.808614
5.331621
4.982036
4.72269
4.529159
4.384855
4.278186
4.200846
4.146771
4.111313
4.090974
4.083411
4.086622
4.099522
4.121324
4.151566
4.190009
4.236491
4.290904
4.35326
4.423744
4.502635
4.590333
4.687363
4.794389
4.912323
5.042167
5.185032
5.342821
5.518093
5.713432
5.931247
6.173372
6.440627
6.732462
7.046785
7.380004
7.727163
8.082073
8.437549
8.786312
9.123691
9.453497
9.796353
10.19611
10.7256
11.50121
12.71938
14.79487
18.93264
30.38733
103.1139
117.6817
38.08393
22.95074
15.55193
11.33248
8.910256
7.455902
6.50314
5.836661
5.356929
5.005097
4.743924
4.548909
4.4034
4.295745
4.217619
4.162515
4.125633
4.103688
4.094458
4.095943
4.107144
4.127326
4.156057
4.193114
4.23833
4.291566
4.352863
4.42233
4.500243
4.586991
4.683088
4.789186
4.906185
5.03507
5.176949
5.333714
5.507902
5.702093
5.918696
6.159561
6.425543
6.716144
7.02935
7.361643
7.708137
8.062685
8.41811
8.767097
9.104903
9.435244
9.778654
10.17891
10.70883
11.48487
12.7035
14.77954
18.91822
30.37459
103.1144
118.1465
38.19789
23.08199
15.68121
11.42938
8.973904
7.499213
6.538728
5.869218
5.386793
5.032635
4.769515
4.57293
4.426216
4.317639
4.238159
4.181239
4.142428
4.11849
4.107183
4.106677
4.115972
4.134387
4.161505
4.197103
4.240992
4.293009
4.353145
4.421536
4.498418
4.584169
4.67929
4.784419
4.900443
5.028334
5.169198
5.324911
5.497987
5.690995
5.906345
6.145906
6.41057
6.6999
7.011956
7.3433
7.689109
8.043275
8.398623
8.747798
9.085986
9.416815
9.760735
10.16145
10.69177
11.46818
12.68726
14.76399
18.90374
30.36297
103.1064
118.598
38.31
23.21124
15.81275
11.53297
9.045657
7.548982
6.579376
5.906271
5.420932
5.064375
4.79935
4.60138
4.453558
4.343293
4.261634
4.202465
4.16135
4.135069
4.121349
4.118659
4.125895
4.142436
4.167868
4.201942
4.244442
4.29518
4.354124
4.421381
4.497178
4.581885
4.675987
4.78011
4.895123
5.021987