/*--------------------------------*- C++ -*----------------------------------*\
| =========                 |                                                 |
| \\      /  F ield         | OpenFOAM: The Open Source CFD Toolbox           |
|  \\    /   O peration     | Version:  2312                                  |
|   \\  /    A nd           | Website:  www.openfoam.com                      |
|    \\/     M anipulation  |                                                 |
\*---------------------------------------------------------------------------*/
FoamFile
{
    version     2.0;
    format      ascii;
    arch        "LSB;label=32;scalar=64";
    class       surfaceScalarField;
    location    "3900";
    object      phi;
}
// * * * * * * * * * * * * * * * * * * * * * * * * * * * * * * * * * * * * * //

dimensions      [1 0 -1 0 0 0 0];

oriented        oriented;

internalField   nonuniform List<scalar> 
23740
(
-0.000123238
0.0001235244
-0.0002452446
0.0001220061
-0.0003787751
0.0001335299
-0.0005210109
0.0001422351
-0.0006541299
0.0001331184
-0.0007696632
0.0001155325
-0.0008803894
0.0001107254
-0.001003634
0.0001232442
-0.001128057
0.0001244221
-0.00122386
9.580168e-05
-0.001292612
6.875189e-05
-0.001376176
8.356328e-05
-0.001483641
0.0001074638
-0.00157641
9.276807e-05
-0.001628626
5.221566e-05
-0.001670377
4.175072e-05
-0.001737261
6.688346e-05
-0.001814186
7.692371e-05
-0.001865361
5.117479e-05
-0.001893965
2.860355e-05
-0.001928562
3.459658e-05
-0.001973907
4.534463e-05
-0.002012995
3.908817e-05
-0.002039849
2.68531e-05
-0.002061577
2.172726e-05
-0.002082029
2.045241e-05
-0.002101186
1.915648e-05
-0.002118877
1.769026e-05
-0.002131973
1.309605e-05
-0.002137676
5.702416e-06
-0.0021393
1.62363e-06
-0.002139867
5.666383e-07
-0.002142648
2.78088e-06
-0.002145842
3.193506e-06
-0.002142516
-3.327186e-06
-0.002126405
-1.611151e-05
-0.002100114
-2.629166e-05
-0.002079216
-2.089838e-05
-0.002074875
-4.341654e-06
-0.00206909
-5.786312e-06
-0.002037071
-3.201943e-05
-0.001974797
-6.227521e-05
-0.001915203
-5.959437e-05
-0.001895305
-1.989834e-05
-0.001889109
-6.195904e-06
-0.001835944
-5.316565e-05
-0.001731927
-0.0001040176
-0.00164303
-8.889664e-05
-0.00160673
-3.629998e-05
-0.001574615
-3.211596e-05
-0.001467947
-0.0001066681
-0.001319731
-0.000148216
-0.001216072
-0.0001036584
-0.001126888
-8.918394e-05
-0.0009899105
-0.0001369773
-0.0008143369
-0.0001755732
-0.0006396673
-0.0001746691
-0.0004462993
-0.000193367
-0.0002263105
-0.0002199866
-0.0002263101
-0.0001350315
0.0002585556
-0.0002643401
0.0002513142
-0.0003815049
0.0002506941
-0.0004899831
0.0002507126
-0.0006001098
0.0002432443
-0.0007137106
0.0002291324
-0.0008179249
0.0002149388
-0.0009010868
0.0002064051
-0.0009736081
0.0001969425
-0.001056661
0.0001788539
-0.00114966
0.0001617502
-0.001219561
0.0001534626
-0.001260243
0.000148145
-0.001304539
0.0001370639
-0.001373067
0.0001207427
-0.001440886
0.0001095687
-0.001478126
0.0001041224
-0.00149908
9.787768e-05
-0.001534993
8.708618e-05
-0.001582872
7.648251e-05
-0.001617974
6.969764e-05
-0.001636937
6.430742e-05
-0.001655453
5.760303e-05
-0.001678658
5.005802e-05
-0.00170015
4.321913e-05
-0.001716872
3.717349e-05
-0.001729287
3.157048e-05
-0.001737677
2.608054e-05
-0.001744767
2.018511e-05
-0.001752956
1.389102e-05
-0.001759424
8.09132e-06
-0.001762795
3.937097e-06
-0.001759158
-8.570769e-07
-0.001749597
-6.36763e-06
-0.001739804
-1.312147e-05
-0.001735148
-2.076893e-05
-0.001733476
-2.796393e-05
-0.001720838
-3.353795e-05
-0.001686681
-3.850004e-05
-0.001646816
-4.565277e-05
-0.001623227
-5.560856e-05
-0.001621418
-6.408564e-05
-0.00160992
-7.109298e-05
-0.001551482
-7.833642e-05
-0.001470675
-8.700353e-05
-0.001425114
-9.872653e-05
-0.001417127
-0.0001120053
-0.001382355
-0.0001236687
-0.001283993
-0.0001346624
-0.001168289
-0.0001478198
-0.001111188
-0.0001637692
-0.001081021
-0.0001783831
-0.00099069
-0.0001939888
-0.0008684779
-0.0002113957
-0.0007649359
-0.0002405188
-0.0006685402
-0.0002719683
-0.0005382418
-0.0003049664
-0.0003770069
-0.0003546004
-0.0001973135
-0.000399678
-0.0004236233
-0.0001080819
0.0003666368
-0.0002132228
0.0003564544
-0.0003115484
0.0003490188
-0.0004006351
0.0003397985
-0.0004842219
0.0003268303
-0.0005654707
0.0003103803
-0.0006449274
0.0002943946
-0.0007191745
0.0002806513
-0.0007884302
0.0002661973
-0.0008570983
0.0002475211
-0.0009233157
0.0002279667
-0.0009825371
0.0002126832
-0.001030265
0.0001958721
-0.001074315
0.0001811129
-0.001119978
0.0001664051
-0.001163819
0.0001534091
-0.001201556
0.0001418579
-0.001234168
0.0001304894
-0.001265861
0.0001187783
-0.001296958
0.0001075787
-0.001324816
9.7556e-05
-0.001348655
8.814573e-05
-0.001369844
7.879107e-05
-0.001389332
6.954537e-05
-0.001406752
6.063925e-05
-0.001421646
5.206716e-05
-0.001433807
4.373084e-05
-0.001443248
3.552063e-05
-0.001450341
2.727792e-05
-0.00145543
1.897976e-05
-0.001458803
1.146331e-05
-0.001459794
4.927856e-06
-0.001456105
-4.546514e-06
-0.00144958
-1.289336e-05
-0.0014412
-2.15024e-05
-0.001431395
-3.057477e-05
-0.001419483
-3.987786e-05
-0.00140385
-4.917159e-05
-0.001383763
-5.858859e-05
-0.001360682
-6.873472e-05
-0.001336484
-7.980713e-05
-0.00130913
-9.144048e-05
-0.001277131
-0.0001030925
-0.001240267
-0.0001152019
-0.001198686
-0.0001285848
-0.001154256
-0.0001431564
-0.001107293
-0.000158969
-0.001055633
-0.000175329
-0.0009980693
-0.0001922257
-0.0009362212
-0.0002096679
-0.0008753329
-0.0002246575
-0.0008080475
-0.0002456684
-0.0007330016
-0.0002690344
-0.0006487622
-0.0002956347
-0.0005557612
-0.0003335192
-0.0004577272
-0.0003700014
-0.0003527618
-0.0004099308
-0.0002491448
-0.0004582159
-0.0001310553
-0.0005177659
-0.0005546784
-8.454785e-05
0.000451184
-0.0001657113
0.0004376171
-0.0002431003
0.0004264072
-0.0003152238
0.0004119213
-0.0003827946
0.0003944004
-0.0004468241
0.0003744092
-0.0005068015
0.0003543714
-0.0005618401
0.0003356893
-0.0006114307
0.0003157873
-0.0006627589
0.0002988487
-0.0007139608
0.0002791682
-0.0007641949
0.0002629167
-0.0008095616
0.0002412383
-0.0008512597
0.0002228105
-0.0008907905
0.0002059352
-0.0009277967
0.0001904148
-0.0009616797
0.0001757404
-0.0009937793
0.0001625885
-0.001023497
0.0001484959
-0.001050716
0.0001347971
-0.001075049
0.0001218887
-0.001096577
0.0001096728
-0.001115721
9.793466e-05
-0.001132721
8.654491e-05
-0.001147536
7.545462e-05
-0.001160087
6.461733e-05
-0.001170333
5.397727e-05
-0.001178282
4.346922e-05
-0.001184032
3.302745e-05
-0.001188701
2.364793e-05
-0.001190813
1.357544e-05
-0.001189552
3.666226e-06
-0.001186421
-7.677691e-06
-0.001180884
-1.843141e-05
-0.001173162
-2.922493e-05
-0.001163287
-4.045142e-05
-0.001151145
-5.201999e-05
-0.001136385
-6.393329e-05
-0.001118716
-7.625772e-05
-0.001098333
-8.91196e-05
-0.001075539
-0.0001026015
-0.001050166
-0.0001168146
-0.001023215
-0.0001300433
-0.0009922174
-0.0001462003
-0.000957787
-0.0001630156
-0.0009203461
-0.0001805976
-0.0008801232
-0.0001991921
-0.0008365473
-0.000218905
-0.0007908271
-0.0002379459
-0.0007426085
-0.0002578866
-0.0006876303
-0.0002796355
-0.0006230556
-0.0003102428
-0.0005488383
-0.0003432515
-0.000469239
-0.0003752335
-0.0003942999
-0.0004084579
-0.0003200963
-0.0004442044
-0.0002443419
-0.0004856843
-0.0001665706
-0.0005359861
-8.720108e-05
-0.0005971341
-0.0006418793
-6.577384e-05
0.0005169571
-0.0001298757
0.0005017183
-0.0001905984
0.0004871293
-0.0002482924
0.0004696147
-0.0003033626
0.0004494701
-0.0003563486
0.0004273947
-0.000406477
0.0004044995
-0.0004526066
0.0003818185
-0.0004960331
0.0003592135
-0.0005341042
0.0003369195
-0.0005715364
0.0003166001
-0.000607598
0.0002989779
-0.000645729
0.000279369
-0.0006812936
0.0002583747
-0.0007139191
0.0002385603
-0.0007441274
0.0002206228
-0.0007720226
0.0002036353
-0.000797859
0.0001884246
-0.0008218987
0.0001725353
-0.0008439291
0.0001568272
-0.0008638027
0.000141762
-0.0008815454
0.0001274152
-0.0008972271
0.0001136161
-0.0009109168
0.0001002343
-0.0009226529
8.71905e-05
-0.0009324594
7.442356e-05
-0.0009403602
6.187781e-05
-0.0009463941
4.950288e-05
-0.0009505979
3.723096e-05
-0.0009531532
2.620295e-05
-0.0009532122
1.363411e-05
-0.0009508951
1.348669e-06
-0.0009474507
-1.112257e-05
-0.0009420504
-2.383232e-05
-0.0009356299
-3.564621e-05
-0.0009269114
-4.917062e-05
-0.0009160743
-6.285798e-05
-0.0009031695
-7.683894e-05
-0.000888176
-9.125207e-05
-0.0008710826
-0.0001062138
-0.0008518478
-0.0001218369
-0.0008305477
-0.0001381153
-0.0008067756
-0.0001538159
-0.0007803869
-0.0001725894
-0.0007515621
-0.0001918407
-0.0007201707
-0.0002119893
-0.0006861411
-0.0002332217
-0.0006508467
-0.0002541995
-0.0006118819
-0.0002769108
-0.0005662662
-0.0003035022
-0.0005124223
-0.0003334793
-0.0004586563
-0.0003640086
-0.0004071926
-0.000394715
-0.0003554025
-0.0004270232
-0.0003016336
-0.0004622263
-0.0002446544
-0.0005011831
-0.000185306
-0.000545032
-0.0001253958
-0.0005958954
-6.483048e-05
-0.0006576982
-0.0007067097
-5.078598e-05
0.0005677423
-0.0001000451
0.0005509766
-0.0001461054
0.000533189
-0.0001896954
0.0005132041
-0.0002312139
0.0004909881
-0.000271127
0.0004673074
-0.0003095979
0.0004429701
-0.0003464038
0.000418624
-0.0003817457
0.0003945551
-0.0004158089
0.0003709825
-0.0004473767
0.0003481676
-0.0004745415
0.0003261424
-0.000501649
0.0003064762
-0.0005299104
0.0002866359
-0.0005572641
0.0002659138
-0.0005823824
0.0002457408
-0.0006055329
0.0002267855
-0.000625812
0.0002087035
-0.0006444869
0.0001912099
-0.0006618501
0.0001741902
-0.0006777722
0.0001576838
-0.0006920744
0.0001417172
-0.0007046992
0.0001262407
-0.0007156556
0.0001111906
-0.0007249716
9.650632e-05
-0.0007326787
8.213045e-05
-0.0007388087
6.800756e-05
-0.0007433895
5.408351e-05
-0.0007464539
4.029507e-05
-0.0007468974
2.664615e-05
-0.0007461274
1.286374e-05
-0.000744627
-1.521638e-07
-0.0007422749
-1.347511e-05
-0.0007380929
-2.801481e-05
-0.0007321946
-4.154506e-05
-0.000724651
-5.671486e-05
-0.0007155364
-7.197327e-05
-0.0007048357
-8.754042e-05
-0.0006925271
-0.0001035613
-0.0006785904
-0.0001201511
-0.000663019
-0.0001374089
-0.000645723
-0.0001554118
-0.0006252371
-0.0001743022
-0.0006034588
-0.0001943681
-0.000579847
-0.0002154528
-0.0005541169
-0.0002377197
-0.0005270962
-0.0002602425
-0.0004968744
-0.0002844213
-0.0004618306
-0.0003119545
-0.0004246566
-0.0003406762
-0.0003875045
-0.0003706312
-0.0003497988
-0.0004017141
-0.0003101394
-0.0004343741
-0.0002680835
-0.0004690789
-0.0002241337
-0.0005061757
-0.0001791137
-0.0005462027
-0.000133837
-0.0005903082
-8.898501e-05
-0.0006407466
-4.544393e-05
-0.0007012384
-0.0007521535
-3.895572e-05
0.000606697
-7.652641e-05
0.0005885465
-0.0001112408
0.0005679027
-0.0001439993
0.0005459621
-0.000175285
0.0005222734
-0.0002054344
0.0004974564
-0.0002346181
0.0004721535
-0.0002628196
0.0004468252
-0.0002900452
0.0004217804
-0.0003162853
0.0003972224
-0.0003413995
0.0003732816
-0.0003652063
0.000349949
-0.0003859643
0.000327234
-0.0004056677
0.000306339
-0.0004259488
0.0002861946
-0.0004455739
0.0002653657
-0.0004637283
0.0002449398
-0.0004802594
0.0002252344
-0.0004952965
0.0002062468
-0.0005089652
0.0001878587
-0.0005213132
0.0001700317
-0.0005323308
0.0001527347
-0.0005420131
0.0001359227
-0.0005503679
0.0001195452
-0.0005574105
0.0001035488
-0.0005631586
8.787833e-05
-0.0005676279
7.247661e-05
-0.0005708285
5.728392e-05
-0.0005727693
4.223558e-05
-0.000573398
2.72746e-05
-0.0005728218
1.228731e-05
-0.000571797
-1.177294e-06
-0.0005695643
-1.570821e-05
-0.0005661941
-3.138553e-05
-0.0005607092
-4.703044e-05
-0.0005544244
-6.300016e-05
-0.0005471015
-7.929673e-05
-0.0005386117
-9.603082e-05
-0.0005288733
-0.0001133003
-0.0005178183
-0.0001312066
-0.0005053779
-0.0001498498
-0.0004914627
-0.0001693275
-0.0004760299
-0.0001897354
-0.0004591664
-0.0002112318
-0.0004407132
-0.0002339063
-0.0004212893
-0.0002571438
-0.0003996884
-0.0002818435
-0.000374873
-0.0003092367
-0.0003490581
-0.0003377695
-0.0003221868
-0.0003675474
-0.0002940912
-0.0003987267
-0.0002644694
-0.0004313358
-0.000233384
-0.0004654593
-0.0002011677
-0.0005012949
-0.0001681434
-0.0005391997
-0.0001345627
-0.000579783
-0.0001007476
-0.0006241229
-6.716582e-05
-0.0006743278
-3.420332e-05
-0.0007342001
-0.0007863568
-2.898383e-05
0.00063568
-5.691813e-05
0.0006164801
-8.240801e-05
0.0005933919
-0.0001063466
0.0005699002
-0.0001292319
0.0005451582
-0.0001513522
0.0005195763
-0.0001728569
0.0004936578
-0.0001937942
0.0004677622
-0.00021415
0.0004421359
-0.0002338558
0.000416928
-0.0002528026
0.0003922282
-0.0002709262
0.0003680725
-0.0002881466
0.0003444541
-0.0003032909
0.0003214832
-0.0003172108
0.0003001143
-0.0003313103
0.0002794651
-0.0003448441
0.0002584733
-0.0003573108
0.0002377009
-0.0003687166
0.0002176524
-0.0003790874
0.0001982292
-0.0003884354
0.0001793795
-0.0003967621
0.0001610612
-0.0004040721
0.0001432326
-0.0004103769
0.0001258498
-0.0004156941
0.0001088658
-0.000420046
9.223004e-05
-0.0004234576
7.588796e-05
-0.0004259565
5.978262e-05
-0.0004275757
4.385453e-05
-0.0004283453
2.804402e-05
-0.0004283467
1.22884e-05
-0.0004273876
-2.136651e-06
-0.0004249319
-1.816423e-05
-0.0004219362
-3.438159e-05
-0.00041818
-5.07871e-05
-0.0004136627
-6.751781e-05
-0.0004083251
-8.463479e-05
-0.0004021246
-0.0001022317
-0.0003950215
-0.0001204039
-0.0003869767
-0.0001392518
-0.0003779494
-0.0001588775
-0.0003678937
-0.0001793835
-0.0003567656
-0.0002008637
-0.0003445105
-0.0002234872
-0.0003314607
-0.0002469562
-0.0003167891
-0.0002718155
-0.0002997244
-0.0002989084
-0.0002817008
-0.0003272603
-0.0002625539
-0.0003569164
-0.000242182
-0.0003879193
-0.0002206362
-0.0004202725
-0.0001979944
-0.0004539775
-0.000174362
-0.0004890916
-0.0001498892
-0.0005257675
-0.0001247833
-0.0005643054
-9.931184e-05
-0.0006052542
-7.380545e-05
-0.0006496289
-4.869749e-05
-0.0006994352
-2.459019e-05
-0.0007583068
-0.0008109469
-2.137594e-05
0.0006570551
-4.156894e-05
0.0006366724
-5.948336e-05
0.0006113058
-7.607276e-05
0.0005864891
-9.191585e-05
0.0005610009
-0.000107309
0.0005349691
-0.0001223705
0.000508719
-0.0001371116
0.0004825031
-0.0001514832
0.0004565073
-0.0001654205
0.0004308651
-0.0001788632
0.0004056707
-0.0001917748
0.0003809839
-0.0002041646
0.0003568438
-0.000215944
0.0003332624
-0.0002260838
0.0003102539
-0.0002352452
0.0002886263
-0.0002446255
0.0002678535
-0.0002539488
0.0002470241
-0.0002626036
0.000226307
-0.00027054
0.0002061654
-0.0002776971
0.0001865365
-0.000284064
0.0001674279
-0.0002896469
0.0001488153
-0.000294463
0.0001306658
-0.000298536
0.0001129386
-0.0003018917
9.55856e-05
-0.0003045561
7.855216e-05
-0.0003065539
6.178025e-05
-0.0003079079
4.520832e-05
-0.0003086358
2.877175e-05
-0.0003087517
1.240406e-05
-0.0003079161
-2.972473e-06
-0.0003065268
-1.95538e-05
-0.0003046125
-3.629614e-05
-0.0003021358
-5.326403e-05
-0.0002991051
-7.054887e-05
-0.0002955028
-8.823738e-05
-0.0002913098
-0.000106425
-0.0002865029
-0.0001252112
-0.0002810551
-0.0001446998
-0.0002749348
-0.0001649981
-0.0002681048
-0.0001862138
-0.0002605003
-0.0002084685
-0.0002522417
-0.0002317461
-0.0002428198
-0.0002563782
-0.0002317253
-0.0002829102
-0.000219873
-0.0003107608
-0.0002071423
-0.0003399911
-0.0001933906
-0.0003706681
-0.000178547
-0.0004027628
-0.0001626282
-0.0004361912
-0.0001457459
-0.0004708596
-0.0001280825
-0.0005067549
-0.0001098499
-0.000544
-9.126783e-05
-0.0005828874
-7.255694e-05
-0.0006239649
-5.394444e-05
-0.0006682411
-3.568199e-05
-0.0007176973
-1.805115e-05
-0.0007759371
-0.000828998
-1.478429e-05
0.0006718387
-2.836579e-05
0.0006502533
-4.009854e-05
0.0006230381
-5.088551e-05
0.0005972757
-6.116092e-05
0.000571276
-7.111138e-05
0.0005449193
-8.081078e-05
0.0005184182
-9.030099e-05
0.0004919931
-9.966968e-05
0.0004658758
-0.0001089713
0.0004401666
-0.0001181705
0.0004148697
-0.0001272118
0.000390025
-0.0001360346
0.0003656664
-0.0001445942
0.0003418219
-0.0001528429
0.0003185024
-0.0001599106
0.000295694
-0.0001658812
0.0002738239
-0.0001717265
0.0002528692
-0.0001775338
0.0002321143
-0.0001829106
0.0002115421
-0.0001878051
0.0001914309
-0.0001921844
0.0001718071
-0.0001960511
0.0001526819
-0.0001994251
0.0001340396
-0.000202339
0.0001158524
-0.0002048192
9.806567e-05
-0.0002068795
8.061228e-05
-0.0002085292
6.342982e-05
-0.0002097748
4.645374e-05
-0.0002106204
2.961722e-05
-0.0002110672
1.285072e-05
-0.0002107956
-3.244312e-06
-0.0002101799
-2.016968e-05
-0.0002092209
-3.725528e-05
-0.0002079038
-5.458135e-05
-0.0002062177
-7.223516e-05
-0.0002041474
-9.030792e-05
-0.0002016763
-0.0001088963
-0.0001987856
-0.000128102
-0.0001954538
-0.0001480319
-0.0001916544
-0.0001687977
-0.0001873521
-0.0001905163
-0.0001825183
-0.0002133024
-0.000176952
-0.0002373126
-0.0001704807
-0.0002628496
-0.0001635979
-0.0002897932
-0.0001561579
-0.0003182008
-0.0001479018
-0.0003482472
-0.0001386445
-0.0003799255
-0.0001282921
-0.0004131153
-0.0001168899
-0.0004475934
-0.0001046311
-0.0004831185
-9.176603e-05
-0.0005196199
-7.850751e-05
-0.0005572584
-6.503667e-05
-0.0005963581
-5.151757e-05
-0.0006374838
-3.810959e-05
-0.0006816489
-2.501322e-05
-0.0007307933
-1.254491e-05
-0.000788405
-0.0008415429
-1.078401e-05
0.0006826222
-2.025546e-05
0.0006597243
-2.787996e-05
0.0006306622
-3.422464e-05
0.0006036201
-3.995462e-05
0.0005770057
-4.542312e-05
0.0005503876
-5.083374e-05
0.0005238286
-5.627225e-05
0.0004974314
-6.176406e-05
0.0004713674
-6.729901e-05
0.0004457013
-7.283418e-05
0.0004204047
-7.833972e-05
0.0003955304
-8.377415e-05
0.0003711007
-8.910904e-05
0.0003471566
-9.429958e-05
0.0003236928
-9.927857e-05
0.0003006728
-0.0001035656
0.0002781108
-0.0001069375
0.000256241
-0.000109887
0.0002350636
-0.0001126884
0.0002143433
-0.0001153626
0.000194105
-0.0001179211
0.0001743654
-0.0001203521
0.0001551128
-0.0001226296
0.0001363171
-0.0001247252
0.0001179479
-0.0001266093
9.994964e-05
-0.000128272
8.227491e-05
-0.0001297116
6.486926e-05
-0.0001309285
4.767056e-05
-0.0001319244
3.0613e-05
-0.0001327003
1.362647e-05
-0.0001329845
-2.960258e-06
-0.0001330832
-2.007108e-05
-0.0001329816
-3.735698e-05
-0.0001326658
-5.489736e-05
-0.0001321233
-7.277777e-05
-0.0001313383
-9.109312e-05
-0.0001302925
-0.0001099422
-0.0001289656
-0.0001294291
-0.0001273345
-0.0001496632
-0.0001253734
-0.0001707589
-0.0001230536
-0.0001928362
-0.0001203387
-0.0002160175
-0.0001171976
-0.0002404538
-0.0001138794
-0.0002661679
-0.0001103947
-0.000293278
-0.0001064369
-0.0003221587
-0.0001017366
-0.0003529477
-9.601071e-05
-0.0003856514
-8.90323e-05
-0.0004200937
-8.092193e-05
-0.0004557038
-7.211324e-05
-0.0004919272
-6.298731e-05
-0.0005287458
-5.370725e-05
-0.0005665384
-4.438553e-05
-0.0006056798
-3.511638e-05
-0.0006467529
-2.598866e-05
-0.0006907765
-1.710769e-05
-0.0007396741
-8.623428e-06
-0.000796889
-0.0008501663
-5.901637e-06
0.0006885235
-9.966425e-06
0.0006637888
-1.184e-05
0.0006325355
-1.310646e-05
0.0006048862
-1.439988e-05
0.0005782989
-1.599667e-05
0.0005519842
-1.801635e-05
0.0005258481
-2.051914e-05
0.000499934
-2.324145e-05
0.0004740895
-2.597733e-05
0.0004484371
-2.880851e-05
0.0004232357
-3.176222e-05
0.000398484
-3.483278e-05
0.0003741711
-3.790612e-05
0.0003502298
-4.078895e-05
0.0003265756
-4.335348e-05
0.0003032372
-4.558232e-05
0.0002803395
-4.737656e-05
0.0002580351
-4.887357e-05
0.0002365605
-5.039508e-05
0.0002158647
-5.202361e-05
0.0001957334
-5.379914e-05
0.0001761408
-5.573086e-05
0.0001570444
-5.773638e-05
0.0001383225
-5.970779e-05
0.0001199192
-6.161515e-05
0.0001018569
-6.343724e-05
8.409691e-05
-6.516007e-05
6.6592e-05
-6.67768e-05
4.928719e-05
-6.828335e-05
3.211945e-05
-6.967853e-05
1.502156e-05
-7.074861e-05
-1.890273e-06
-7.173668e-05
-1.908311e-05
-7.263617e-05
-3.645759e-05
-7.343845e-05
-5.409518e-05
-7.413898e-05
-7.207736e-05
-7.473165e-05
-9.050056e-05
-7.521009e-05
-0.0001094639
-7.556631e-05
-0.000129073
-7.578966e-05
-0.00014944
-7.586524e-05
-0.0001706835
-7.577097e-05
-0.0001929306
-7.5475e-05
-0.0002163136
-7.496809e-05
-0.0002409608
-7.411899e-05
-0.0002670171
-7.265774e-05
-0.0002947393
-7.059383e-05
-0.0003242227
-6.788971e-05
-0.0003556519
-6.42428e-05
-0.0003892984
-5.958788e-05
-0.0004247487
-5.406211e-05
-0.0004612296
-4.796824e-05
-0.0004980211
-4.169694e-05
-0.0005350171
-3.544628e-05
-0.0005727891
-2.92266e-05
-0.0006118994
-2.305657e-05
-0.0006529228
-1.698017e-05
-0.0006968528
-1.107541e-05
-0.0007455787
-5.503489e-06
-0.0008024607
-0.0008556697
-3.392604e-06
0.0006919158
-4.456238e-06
0.0006648522
-3.861521e-06
0.0006319406
-2.523023e-06
0.0006035476
-6.925538e-07
0.0005764683
1.332243e-06
0.0005499592
3.388618e-06
0.0005237916
5.347531e-06
0.000497975
6.824524e-06
0.0004726124
7.530712e-06
0.0004477307
7.485623e-06
0.0004232807
6.66978e-06
0.0003992997
5.184084e-06
0.0003756567
3.27255e-06
0.0003521412
1.202245e-06
0.0003286457
-9.40668e-07
0.00030538
-3.074793e-06
0.0002824735
-5.137015e-06
0.0002600972
-6.917347e-06
0.0002383407
-8.316375e-06
0.0002172637
-9.421335e-06
0.0001968383
-1.029727e-05
0.0001770167
-1.100272e-05
0.0001577497
-1.1724e-05
0.0001390437
-1.265125e-05
0.0001208464
-1.378837e-05
0.0001029939
-1.508609e-05
8.539455e-05
-1.650849e-05
6.801434e-05
-1.802211e-05
5.080074e-05
-1.959793e-05
3.369521e-05
-2.121391e-05
1.663747e-05
-2.271428e-05
-3.89971e-07
-2.426206e-05
-1.753541e-05
-2.583541e-05
-3.488432e-05
-2.742438e-05
-5.250629e-05
-2.901033e-05
-7.049148e-05
-3.058704e-05
-8.892394e-05
-3.214746e-05
-0.0001079035
-3.368397e-05
-0.0001275366
-3.518779e-05
-0.0001479362
-3.664886e-05
-0.0001692225
-3.805234e-05
-0.0001915272
-3.938304e-05
-0.000214983
-4.059479e-05
-0.0002397491
-4.153144e-05
-0.0002660805
-4.200703e-05
-0.0002942638
-4.172094e-05
-0.0003245089
-4.051878e-05
-0.0003568541
-3.864046e-05
-0.0003911768
-3.61835e-05
-0.0004272057
-3.305562e-05
-0.0004643576
-2.933052e-05
-0.0005017462
-2.540169e-05
-0.000538946
-2.151411e-05
-0.0005766767
-1.7667e-05
-0.0006157465
-1.388274e-05
-0.0006567071
-1.019959e-05
-0.0007005359
-6.665341e-06
-0.0007491128
-3.352056e-06
-0.0008057739
-0.0008590218
-1.760639e-06
0.0006936763
-8.831481e-07
0.0006639745
1.569305e-06
0.000629488
5.204302e-06
0.0005999125
9.241626e-06
0.0005724308
1.331148e-05
0.0005458892
1.716715e-05
0.0005199357
2.068507e-05
0.0004944569
2.385234e-05
0.000469445
2.670981e-05
0.0004448731
2.9194e-05
0.0004207964
3.124888e-05
0.0003972447
3.28104e-05
0.000374095
3.376442e-05
0.000351187
3.399148e-05
0.0003284185
3.356982e-05
0.0003058015
3.261815e-05
0.000283425
3.134752e-05
0.0002613677
2.999392e-05
0.0002396942
2.870891e-05
0.0002185486
2.752537e-05
0.0001980217
2.641887e-05
0.0001781231
2.535037e-05
0.0001588182
2.432743e-05
0.0001400666
2.332602e-05
0.0001218477
2.227005e-05
0.0001040499
2.110799e-05
8.655655e-05
1.97986e-05
6.932367e-05
1.834008e-05
5.22592e-05
1.675355e-05
3.528167e-05
1.504665e-05
1.834432e-05
1.326706e-05
1.38956e-06
1.130352e-05
-1.557192e-05
9.242482e-06
-3.282334e-05
7.093518e-06
-5.035738e-05
4.860661e-06
-6.825869e-05
2.557321e-06
-8.662066e-05
1.94898e-07
-0.0001055412
-2.215952e-06
-0.0001251258
-4.670848e-06
-0.0001454814
-7.180285e-06
-0.0001667131
-9.732568e-06
-0.000188975
-1.225814e-05
-0.0002124575
-1.465727e-05
-0.0002373501
-1.681503e-05
-0.0002639228
-1.860583e-05
-0.0002924731
-1.990958e-05
-0.0003232052
-2.056957e-05
-0.0003561942
-2.044754e-05
-0.0003912989
-1.959654e-05
-0.0004280568
-1.817386e-05
-0.0004657803
-1.628655e-05
-0.0005036336
-1.405526e-05
-0.0005411773
-1.176551e-05
-0.0005789665
-9.550538e-06
-0.0006179615
-7.423929e-06
-0.0006588337
-5.3916e-06
-0.0007025682
-3.466654e-06
-0.0007510377
-1.697332e-06
-0.0008075431
-0.0008607191
-5.87204e-07
0.0006942634
1.617159e-06
0.0006617701
6.172831e-06
0.0006249322
1.168903e-05
0.0005943962
1.747773e-05
0.000566642
2.31797e-05
0.0005401871
2.860489e-05
0.0005145104
3.365724e-05
0.0004894044
3.829811e-05
0.0004648039
4.245752e-05
0.0004407135
4.606657e-05
0.0004171872
4.904181e-05
0.0003942693
5.139599e-05
0.0003717407
5.333722e-05
0.0003492457
5.496062e-05
0.000326795
5.629522e-05
0.0003044668
5.727714e-05
0.000282443
5.779681e-05
0.0002608479
5.788754e-05
0.0002396034
5.763788e-05
0.0002187982
5.711119e-05
0.0001985483
5.635763e-05
0.0001788766
5.540267e-05
0.0001597731
5.428324e-05
0.0001411859
5.30704e-05
0.0001230605
5.178204e-05
0.0001053382
5.038122e-05
8.795733e-05
4.8846e-05
7.085883e-05
4.716341e-05
5.394175e-05
4.532355e-05
3.712148e-05
4.331307e-05
2.035476e-05
4.11288e-05
3.573788e-06
3.86917e-05
-1.313487e-05
3.607166e-05
-3.020335e-05
3.330485e-05
-4.759061e-05
3.04113e-05
-6.536519e-05
2.739181e-05
-8.360122e-05
2.424824e-05
-0.0001023977
2.099582e-05
-0.0001218734
1.765811e-05
-0.0001421437
1.426712e-05
-0.0001633222
1.087122e-05
-0.0001855791
7.560708e-06
-0.000209147
4.459314e-06
-0.0002342488
1.645254e-06
-0.0002611089
-8.679041e-07
-0.0002899601
-3.07023e-06
-0.000321003
-4.911738e-06
-0.0003543528
-6.306312e-06
-0.0003899045
-7.104458e-06
-0.0004272588
-7.199625e-06
-0.0004656852
-6.571504e-06
-0.0005042618
-5.492106e-06
-0.0005422568
-4.384702e-06
-0.0005800739
-3.385585e-06
-0.0006189607
-2.4904e-06
-0.0006597289
-1.694924e-06
-0.0007033637
-1.010371e-06
-0.0007517222
-4.700217e-07
-0.0008080834
-0.0008611891
2.074225e-07
0.000694056
3.91054e-06
0.0006580669
9.780662e-06
0.0006190621
1.664594e-05
0.0005875309
2.384458e-05
0.0005594433
3.099529e-05
0.0005330363
3.78718e-05
0.0005076338
4.432173e-05
0.0004829543
5.023613e-05
0.0004588894
5.553775e-05
0.0004354117
6.018966e-05
0.0004125351
6.418346e-05
0.0003902753
6.758724e-05
0.0003683367
7.044301e-05
0.0003463897
7.279596e-05
0.0003244419
7.465583e-05
0.0003026068
7.609401e-05
0.0002810047
7.723879e-05
0.0002597031
7.797782e-05
0.0002388642
7.825665e-05
0.0002185192
7.816638e-05
0.0001986385
7.775117e-05
0.0001792917
7.704986e-05
0.0001604743
7.608184e-05
0.0001421539
7.486273e-05
0.0001242796
7.341385e-05
0.000106787
7.176279e-05
8.960834e-05
6.99441e-05
7.267747e-05
6.796344e-05
5.592237e-05
6.580771e-05
3.927717e-05
6.347094e-05
2.269149e-05
6.093422e-05
6.110465e-06
5.820509e-05
-1.040578e-05
5.507742e-05
-2.707572e-05
5.172674e-05
-4.423998e-05
4.822228e-05
-6.186077e-05
4.458025e-05
-7.995923e-05
4.080306e-05
-9.862052e-05
3.690172e-05
-0.0001179721
3.290993e-05
-0.000138152
2.889863e-05
-0.0001593109
2.494718e-05
-0.0001816277
2.111447e-05
-0.0002053144
1.746744e-05
-0.0002306018
1.408622e-05
-0.0002577277
1.103884e-05
-0.0002869128
8.356141e-06
-0.0003183204
6.014079e-06
-0.0003520109
3.995159e-06
-0.0003878857
2.354942e-06
-0.0004256187
1.19005e-06
-0.0004645204
4.977624e-07
-0.0005035696
1.590018e-07
-0.0005419181
1.70088e-08
-0.000579932
-9.301329e-08
-0.0006188507
-1.613219e-07
-0.0006596606
-1.911821e-07
-0.0007033338
-1.893986e-07
-0.000751724
-1.463592e-07
-0.0008081264
-0.0008613355
6.664054e-07
0.0006933896
5.139557e-06
0.0006535938
1.187867e-05
0.000612323
1.966189e-05
0.0005797476
2.781317e-05
0.000551292
3.593289e-05
0.0005249165
4.377954e-05
0.000499787
5.119612e-05
0.0004755376
5.808015e-05
0.0004520052
6.437122e-05
0.0004291205
7.004821e-05
0.0004068579
7.511927e-05
0.0003852041
7.955329e-05
0.0003639025
8.329202e-05
0.0003426509
8.63374e-05
0.0003213964
8.874218e-05
0.0003002019
9.059397e-05
0.0002791528
9.192656e-05
0.0002583704
9.280798e-05
0.0002379827
9.328683e-05
0.0002180403
9.330641e-05
0.0001986189
9.289561e-05
0.0001797024
9.209903e-05
0.0001612708
9.096299e-05
0.0001432899
8.95309e-05
0.0001257116
8.783694e-05
0.0001084809
8.590564e-05
9.153959e-05
8.375757e-05
7.48255e-05
8.140909e-05
5.827081e-05
7.887518e-05
4.181104e-05
7.61703e-05
2.539633e-05
7.328002e-05
9.000708e-06
7.022714e-05
-7.352938e-06
6.673348e-05
-2.358209e-05
6.29724e-05
-4.047894e-05
5.902599e-05
-5.79144e-05
5.494013e-05
-7.587341e-05
5.074301e-05
-9.442344e-05
4.645484e-05
-0.000113684
4.210763e-05
-0.0001338048
3.775487e-05
-0.0001549582
3.346859e-05
-0.0001773415
2.93285e-05
-0.0002011744
2.541216e-05
-0.0002266855
2.178277e-05
-0.0002540984
1.848319e-05
-0.0002836133
1.554164e-05
-0.000315379
1.297945e-05
-0.0003494488
1.080712e-05
-0.0003857134
9.005633e-06
-0.0004238173
7.548482e-06
-0.0004630634
6.441069e-06
-0.0005024623
5.666266e-06
-0.0005411434
5.025688e-06
-0.0005792915
4.34206e-06
-0.0006181671
3.611668e-06
-0.0006589302
2.823555e-06
-0.0007025457
1.958781e-06
-0.0007508592
9.975629e-07
-0.0008071652
-0.0008603379
8.729398e-07
0.0006925168
5.798591e-06
0.0006486683
1.306131e-05
0.0006050603
2.142506e-05
0.0005713838
3.019334e-05
0.0005425236
3.895097e-05
0.0005161588
4.744129e-05
0.0004912966
5.549924e-05
0.0004674795
6.302181e-05
0.0004444825
6.995429e-05
0.0004221878
7.628356e-05
0.0004005285
8.203164e-05
0.0003794558
8.714454e-05
0.0003587895
9.153876e-05
0.0003382565
9.520586e-05
0.0003177291
9.816226e-05
0.0002972453
0.0001004245
0.0002768904
0.0001020297
0.000256765
0.0001030458
0.0002369665
0.0001034861
0.0002175999
0.0001033874
0.0001987175
0.0001028035
0.0001802863
0.0001017817
0.0001622925
0.0001003705
0.000144701
9.861684e-05
0.0001274652
9.656464e-05
0.000110533
9.425352e-05
9.385067e-05
9.171623e-05
7.736274e-05
8.897589e-05
6.101112e-05
8.604828e-05
4.473862e-05
8.294523e-05
2.849935e-05
7.966815e-05
1.227775e-05
7.619515e-05
-3.879969e-06
7.245282e-05
-1.983979e-05
6.845956e-05
-3.648571e-05
6.426763e-05
-5.37225e-05
5.993509e-05
-7.154091e-05
5.550981e-05
-8.999821e-05
5.103176e-05
-0.000109206
4.654365e-05
-0.0001293168
4.2098e-05
-0.0001505126
3.775499e-05
-0.0001729986
3.3576e-05
-0.0001969954
2.96193e-05
-0.0002227289
2.593515e-05
-0.0002504144
2.255907e-05
-0.0002802373
1.950754e-05
-0.0003123275
1.678092e-05
-0.0003467223
1.437658e-05
-0.0003833092
1.230157e-05
-0.0004217424
1.056933e-05
-0.0004613312
9.168512e-06
-0.0005010615
8.017316e-06
-0.0005399922
6.93893e-06
-0.0005782131
5.816757e-06
-0.000617045
4.660947e-06
-0.0006577744
3.483114e-06
-0.0007013679
2.29594e-06
-0.000749672
1.112872e-06
-0.0008059821
-0.000859225
8.523415e-07
0.0006916646
5.941061e-06
0.0006435797
1.341308e-05
0.0005975883
2.203546e-05
0.0005627615
3.110308e-05
0.000533456
4.018999e-05
0.0005070718
4.90283e-05
0.0004824581
5.744773e-05
0.0004590599
6.534477e-05
0.0004365852
7.266646e-05
0.000414866
7.940135e-05