/*--------------------------------*- C++ -*----------------------------------*\
| =========                 |                                                 |
| \\      /  F ield         | OpenFOAM: The Open Source CFD Toolbox           |
|  \\    /   O peration     | Version:  2312                                  |
|   \\  /    A nd           | Website:  www.openfoam.com                      |
|    \\/     M anipulation  |                                                 |
\*---------------------------------------------------------------------------*/
FoamFile
{
    version     2.0;
    format      ascii;
    arch        "LSB;label=32;scalar=64";
    class       volScalarField;
    location    "3900";
    object      qin;
}
// * * * * * * * * * * * * * * * * * * * * * * * * * * * * * * * * * * * * * //

dimensions      [1 0 -3 0 0 0 0];

internalField   uniform 0;

boundaryField
{
    plate
    {
        type            calculated;
        value           nonuniform List<scalar> 
200
(
2171.631
2143.8
2126.716
2101.333
2066.731
2038.948
2028.938
2034.575
2047.026
2059.598
2068.361
2069.292
2059.955
2043.325
2026.836
2017.448
2018.533
2029.858
2047.967
2066.736
2079.812
2084.162
2081.787
2078.196
2078.878
2086.051
2097.774
2109.878
2118.675
2122.106
2119.65
2112.634
2104.574
2099.883
2101.337
2108.632
2119.15
2129.669
2137.554
2141.376
2141.374
2139.504
2138.59
2140.9
2147.074
2156.053
2165.797
2174.232
2179.966
2182.622
2182.765
2181.493
2179.895
2178.656
2177.961
2177.669
2177.584
2177.626
2177.869
2178.455
2179.503
2181.037
2182.979
2185.179
2187.454
2189.631
2191.567
2193.167
2194.398
2195.291
2195.942
2196.476
2197.002
2197.555
2198.062
2198.344
2198.181
2197.391
2195.916
2193.872
2191.532
2189.261
2187.414
2186.249
2185.865
2186.21
2187.121
2188.396
2189.858
2191.39
2192.948
2194.54
2196.195
2197.939
2199.771
2201.663
2203.559
2205.384
2207.06
2208.512
2209.68
2210.531
2211.058
2211.29
2211.281
2211.105
2210.847
2210.59
2210.406
2210.349
2210.455
2210.737
2211.194
2211.81
2212.562
2213.425
2214.369
2215.365
2216.374
2217.352
2218.246
2219.003
2219.59
2220.007
2220.301
2220.563
2220.905
2221.425
2222.16
2223.068
2224.022
2224.857
2225.424
2225.651
2225.575
2225.32
2225.039
2224.833
2224.699
2224.534
2224.203
2223.643
2222.961
2222.458
2222.555
2223.62
2225.776
2228.754
2231.879
2234.228
2234.899
2233.334
2229.55
2224.207
2218.445
2213.54
2210.452
2209.412
2209.737
2209.996
2208.59
2204.57
2198.381
2192.083
2188.811
2191.551
2201.71
2218.182
2237.433
2254.687
2265.725
2268.55
2264.176
2256.239
2249.555
2248.097
2253.067
2261.842
2268.554
2266.733
2253.343
2232.119
2213.464
2209.65
2227.622
2264.382
2308.641
2347.397
2372.02
2379.71
2371.507
2351.624
2330.714
2328.456
2365.56
2444.125
2537.85
2614.808
2685.33
2808.354
)
;
    }
    riser
    {
        type            calculated;
        value           nonuniform List<scalar> 
200
(
4191.072
4155.508
4185.482
4288.298
4444.056
4594.563
4720.7
4773.121
4694.979
4606.925
4679.66
4815.715
4834.242
4827.434
4969.005
5194.44
5321.811
5295.52
5200.027
5138.418
5153.427
5223.068
5280.525
5264.951
5190.221
5116.82
5052.52
4980.717
4960.814
5074.373
5298.72
5532.078
5710.176
5834.818
5916.766
5946.246
5923.534
5876.45
5839.723
5829.604
5840.291
5857.522
5868.886
5865.926
5843.925
5803.051
5749.122
5691.287
5638.071
5595.084
5565.607
5552.318
5557.784
5583.164
5626.452
5681.991
5741.779
5797.764
5843.814
5876.544
5895.017
5899.931
5892.917
5876.298
5853.159
5827.376
5803.237
5784.632
5774.061
5771.938
5776.533
5784.634
5792.653
5797.744
5798.523
5795.202
5789.211
5782.54
5777.072
5774.114
5774.188
5777.063
5781.942
5787.71
5793.176
5797.288
5799.272
5798.72
5795.607
5790.244
5783.183
5775.094
5766.656
5758.471
5751.03
5744.721
5739.862
5736.735
5735.597
5736.673
5740.108
5745.926
5753.987
5763.962
5775.35
5787.509
5799.711
5811.206
5821.281
5829.322
5834.851
5837.57
5837.372
5834.356
5828.804
5821.161
5811.996
5801.958
5791.735
5782.018
5773.458
5766.63
5761.984
5759.79
5760.101
5762.731
5767.283
5773.218
5779.969
5787.045
5794.112
5801.006
5807.679
5814.104
5820.181
5825.696
5830.355
5833.883
5836.133
5837.141
5837.085
5836.163
5834.436
5831.758
5827.836
5822.462
5815.809
5808.647
5802.329
5798.463
5798.337
5802.276
5809.235
5816.863
5822.155
5822.591
5817.411
5808.485
5800.277
5798.638
5808.609
5831.976
5865.592
5901.381
5928.295
5935.615
5916.351
5869.519
5800.588
5720.131
5641.09
5575.337
5530.341
5506.964
5499.308
5497.184
5491.051
5478.217
5467.337
5476.949
5525.303
5613.923
5714.604
5773.687
5739.443
5598.343
5391.445
5191.752
5056.63
4996.738
4993.533
5044.084
5170.479
5342.156
5417.509
5218.745
4777.173
4426.897
4323.32
4378.832
)
;
    }
    topAndBottom
    {
        type            calculated;
        value           nonuniform List<scalar> 
120
(
6549.111
5870.373
5406.144
5118.771
4922.877
4780.585
4673.431
4587.458
4514.502
4452.476
4402.104
4363.342
4333.975
4310.465
4289.621
4269.657
4250.222
4231.818
4215.145
4200.649
4188.32
4177.709
4168.118
4158.867
4149.495
4139.808
4129.782
4119.43
4108.729
4097.64
4086.183
4074.513
4062.936
4051.866
4041.722
4032.788
4025.102
4018.395
4012.153
4005.779
3998.802
3991.023
3982.563
3973.814
3965.368
3957.897
3951.896
3947.246
3942.767
3936.227
3925.201
3908.665
3888.372
3868.569
3853.27
3842.366
3830.456
3811.08
3787.271
3767.202
5219.314
5247.234
5250.705
5178.915
5011.757
4797.36
4611.238
4494.145
4439.142
4417.886
4408.957
4409.542
4429.214
4473.581
4531.526
4576.849
4582.982
4538.952
4455.1
4355.966
4266.733
4202.172
4163.331
4141.452
4124.971
4105.289
4079.135
4047.738
4014.41
3982.197
3952.54
3925.112
3898.434
3870.771
3840.888
3808.455
3774.093
3739.163
3705.458
3674.957
3649.692
3631.694
3622.884
3624.781
3638.025
3661.899
3694.123
3731.103
3768.585
3802.49
3829.745
3848.922
3860.401
3865.577
3865.196
3857.759
3840.711
3811.615
3781.43
3730.224
)
;
    }
    frontAndBack
    {
        type            empty;
    }
}


// ************************************************************************* //
