/*--------------------------------*- C++ -*----------------------------------*\
| =========                 |                                                 |
| \\      /  F ield         | OpenFOAM: The Open Source CFD Toolbox           |
|  \\    /   O peration     | Version:  2312                                  |
|   \\  /    A nd           | Website:  www.openfoam.com                      |
|    \\/     M anipulation  |                                                 |
\*---------------------------------------------------------------------------*/
FoamFile
{
    version     2.0;
    format      ascii;
    arch        "LSB;label=32;scalar=64";
    class       volVectorField;
    location    "3900";
    object      U;
}
// * * * * * * * * * * * * * * * * * * * * * * * * * * * * * * * * * * * * * //

dimensions      [0 1 -1 0 0 0 0];

internalField   nonuniform List<vector> 
12000
(
(-0.02735966 0.05981925 0)
(-0.06706222 0.06662355 0)
(-0.1119284 0.08469717 0)
(-0.1650502 0.09480429 0)
(-0.2163409 0.08024407 0)
(-0.2620188 0.05815581 0)
(-0.3000333 0.0635075 0)
(-0.3428015 0.09598248 0)
(-0.3899141 0.1026158 0)
(-0.4337397 0.05181435 0)
(-0.460331 0.01545291 0)
(-0.483401 0.05100326 0)
(-0.5210514 0.09896333 0)
(-0.562118 0.07555997 0)
(-0.5886944 0.009001914 0)
(-0.6002443 -0.001243341 0)
(-0.6187518 0.0532734 0)
(-0.6490471 0.07612439 0)
(-0.6747813 0.0320739 0)
(-0.6863055 -0.003913836 0)
(-0.6954531 0.01450159 0)
(-0.7113205 0.04000392 0)
(-0.7283838 0.03167382 0)
(-0.7396464 0.01283003 0)
(-0.747752 0.008306652 0)
(-0.7552707 0.01062772 0)
(-0.762421 0.01214737 0)
(-0.7690589 0.0131906 0)
(-0.7749126 0.008311601 0)
(-0.7782566 -0.001659206 0)
(-0.7791059 -0.004946232 0)
(-0.7792685 -0.003450333 0)
(-0.7793969 0.002246059 0)
(-0.7803351 0.007353588 0)
(-0.781682 -0.001087384 0)
(-0.7781995 -0.01998021 0)
(-0.7688303 -0.0350347 0)
(-0.7587773 -0.01979752 0)
(-0.7544911 0.01839393 0)
(-0.7537141 0.0211187 0)
(-0.7484081 -0.02385102 0)
(-0.7303121 -0.08048993 0)
(-0.7016194 -0.07029524 0)
(-0.6898562 0.01877925 0)
(-0.6871237 0.0536586 0)
(-0.6800462 -0.0355366 0)
(-0.6490012 -0.129843 0)
(-0.6048708 -0.08686856 0)
(-0.5839702 0.03209614 0)
(-0.578808 0.05025671 0)
(-0.5571726 -0.09106189 0)
(-0.5007972 -0.1627095 0)
(-0.4509701 -0.04658974 0)
(-0.4257194 0.00372579 0)
(-0.3835849 -0.08084991 0)
(-0.3218188 -0.1389956 0)
(-0.2620731 -0.1092796 0)
(-0.1952888 -0.09338425 0)
(-0.1157666 -0.1194176 0)
(-0.04312534 -0.1258976 0)
(-0.03480324 0.2008645 0)
(-0.06935257 0.1893999 0)
(-0.122168 0.1948406 0)
(-0.158761 0.2021084 0)
(-0.1999126 0.1978108 0)
(-0.2401264 0.1834904 0)
(-0.2829146 0.1683304 0)
(-0.3168246 0.1620534 0)
(-0.3453623 0.1572212 0)
(-0.3707017 0.1480207 0)
(-0.4055422 0.1284994 0)
(-0.4387107 0.1242539 0)
(-0.4584622 0.1259471 0)
(-0.4703964 0.1181112 0)
(-0.4907507 0.09987116 0)
(-0.5194744 0.08872718 0)
(-0.5410055 0.08693656 0)
(-0.5491585 0.0846851 0)
(-0.5574396 0.07449273 0)
(-0.5743511 0.06342536 0)
(-0.5919913 0.05786884 0)
(-0.6015944 0.05479404 0)
(-0.6071517 0.04978308 0)
(-0.6148772 0.04295891 0)
(-0.6238168 0.03683721 0)
(-0.631093 0.0318808 0)
(-0.6365074 0.02762291 0)
(-0.6403171 0.02347447 0)
(-0.6428805 0.01863594 0)
(-0.6456448 0.0130357 0)
(-0.648522 0.008053852 0)
(-0.6506589 0.004307419 0)
(-0.6508749 0.002955259 0)
(-0.6483048 -0.00118857 0)
(-0.6436836 -0.007190428 0)
(-0.6407454 -0.01448007 0)
(-0.6399325 -0.02072491 0)
(-0.638442 -0.02439487 0)
(-0.6299873 -0.02731638 0)
(-0.6145905 -0.03311962 0)
(-0.6003366 -0.04333202 0)
(-0.5967828 -0.04982766 0)
(-0.597815 -0.0543905 0)
(-0.58811 -0.06058324 0)
(-0.5563763 -0.06663131 0)
(-0.5279943 -0.07622924 0)
(-0.5210428 -0.08791875 0)
(-0.5176131 -0.09873751 0)
(-0.4958859 -0.1083431 0)
(-0.4486282 -0.1181059 0)
(-0.4103918 -0.1318515 0)
(-0.4029315 -0.1461382 0)
(-0.383284 -0.1691582 0)
(-0.3399558 -0.1886106 0)
(-0.2993132 -0.2033468 0)
(-0.2562804 -0.2260039 0)
(-0.2254417 -0.2533272 0)
(-0.1661439 -0.3077372 0)
(-0.0996464 -0.3360927 0)
(-0.04295553 -0.3484607 0)
(-0.02848904 0.3468699 0)
(-0.05517904 0.3297417 0)
(-0.09941625 0.3226443 0)
(-0.1302905 0.3166703 0)
(-0.1633164 0.3063862 0)
(-0.1928298 0.2919103 0)
(-0.2229742 0.277772 0)
(-0.2528752 0.2662905 0)
(-0.2762862 0.2529184 0)
(-0.3051305 0.2255141 0)
(-0.3284026 0.2090277 0)
(-0.3535237 0.1956382 0)
(-0.3729532 0.1830151 0)
(-0.3894834 0.1687255 0)
(-0.4061409 0.1535206 0)
(-0.4234723 0.1410599 0)
(-0.4390966 0.131018 0)
(-0.4520123 0.1205842 0)
(-0.4637941 0.1089677 0)
(-0.4757422 0.09797817 0)
(-0.4871104 0.08887413 0)
(-0.4968345 0.08050646 0)
(-0.5051711 0.07176541 0)
(-0.5128057 0.06295041 0)
(-0.5198252 0.05463546 0)
(-0.5259643 0.04679743 0)
(-0.5310888 0.03924476 0)
(-0.5351651 0.03182859 0)
(-0.5382463 0.02433081 0)
(-0.540425 0.01680335 0)
(-0.5421817 0.009344573 0)
(-0.5430225 0.004272881 0)
(-0.5426919 -0.004338763 0)
(-0.5405412 -0.01165889 0)
(-0.5376308 -0.01961147 0)
(-0.5342035 -0.02818406 0)
(-0.5302085 -0.0369303 0)
(-0.5251654 -0.04527516 0)
(-0.5184639 -0.05340014 0)
(-0.5101959 -0.0626022 0)
(-0.5012209 -0.07315223 0)
(-0.4917405 -0.08431059 0)
(-0.4808788 -0.09489558 0)
(-0.4678829 -0.1049156 0)
(-0.4528055 -0.1169813 0)
(-0.4365493 -0.130867 0)
(-0.4193897 -0.1461492 0)
(-0.4010642 -0.1608321 0)
(-0.3804221 -0.1754311 0)
(-0.3578751 -0.1929526 0)
(-0.3346844 -0.2110299 0)
(-0.3112525 -0.2260143 0)
(-0.2834423 -0.2367148 0)
(-0.2575187 -0.2548476 0)
(-0.2184747 -0.298776 0)
(-0.1871564 -0.3392002 0)
(-0.1475629 -0.3798812 0)
(-0.1120049 -0.425392 0)
(-0.06559947 -0.4836441 0)
(-0.02914242 -0.5073943 0)
(-0.02044809 0.4431747 0)
(-0.04462904 0.4183417 0)
(-0.07651922 0.4074817 0)
(-0.1026042 0.3944928 0)
(-0.1291333 0.3783691 0)
(-0.1529386 0.359322 0)
(-0.1763611 0.3409603 0)
(-0.1969851 0.3248068 0)
(-0.219365 0.3072842 0)
(-0.2337048 0.295318 0)
(-0.2562944 0.2718402 0)
(-0.2733716 0.2535268 0)
(-0.2932621 0.2312951 0)
(-0.3085528 0.2143362 0)
(-0.3240589 0.1984045 0)
(-0.3384858 0.1834704 0)
(-0.3519963 0.1693597 0)
(-0.3644124 0.1557424 0)
(-0.3760632 0.1424389 0)
(-0.3869448 0.1296293 0)
(-0.3967394 0.1176022 0)
(-0.4054363 0.1061329 0)
(-0.4131259 0.09501575 0)
(-0.4199833 0.0841709 0)
(-0.4260475 0.07359982 0)
(-0.4312701 0.06327931 0)
(-0.4356254 0.05315965 0)
(-0.4391078 0.04316875 0)
(-0.4415952 0.03319588 0)
(-0.4437224 0.02302423 0)
(-0.4450498 0.01466492 0)
(-0.4452665 0.005916333 0)
(-0.4443666 -0.005764401 0)
(-0.442785 -0.01615741 0)
(-0.4402491 -0.0265416 0)
(-0.4369307 -0.03733155 0)
(-0.4327861 -0.04844947 0)
(-0.4277391 -0.05987803 0)
(-0.4216248 -0.07167544 0)
(-0.4143929 -0.0840008 0)
(-0.4062061 -0.096945 0)
(-0.39698 -0.1105215 0)
(-0.3872258 -0.1244502 0)
(-0.3763651 -0.139454 0)
(-0.3639106 -0.1555507 0)
(-0.350248 -0.1725785 0)
(-0.3355261 -0.1908187 0)
(-0.3199533 -0.2104922 0)
(-0.3030025 -0.2308609 0)
(-0.283546 -0.2487572 0)
(-0.2680346 -0.2620868 0)
(-0.2436115 -0.2922646 0)
(-0.2173048 -0.3298973 0)
(-0.1881722 -0.3652568 0)
(-0.158722 -0.3993653 0)
(-0.1312656 -0.4334967 0)
(-0.1035787 -0.4731388 0)
(-0.07525479 -0.5227006 0)
(-0.0454018 -0.5789202 0)
(-0.01708234 -0.6096093 0)
(-0.01501616 0.5274897 0)
(-0.03555873 0.498142 0)
(-0.05971055 0.4828049 0)
(-0.08082391 0.4659448 0)
(-0.102033 0.4465481 0)
(-0.1218585 0.4248725 0)
(-0.1414139 0.4022024 0)
(-0.1593398 0.3799009 0)
(-0.1759042 0.3572252 0)
(-0.1913912 0.3346749 0)
(-0.206338 0.3164611 0)
(-0.21784 0.3012764 0)
(-0.2339719 0.2781905 0)
(-0.2473278 0.2566438 0)
(-0.2603181 0.2373529 0)
(-0.2721224 0.2198444 0)
(-0.2837568 0.2030306 0)
(-0.2930818 0.1890812 0)
(-0.3030568 0.1728391 0)
(-0.3118947 0.1567053 0)
(-0.3197695 0.1414454 0)
(-0.3269776 0.1270912 0)
(-0.3333649 0.113365 0)
(-0.3389809 0.1000706 0)
(-0.3438523 0.08710965 0)
(-0.3479869 0.07441346 0)
(-0.3513941 0.06191771 0)
(-0.3540471 0.04955984 0)
(-0.3560919 0.03727427 0)
(-0.357345 0.02749421 0)
(-0.3579986 0.0144089 0)
(-0.357467 0.002020366 0)
(-0.3564166 -0.01043172 0)
(-0.3547184 -0.02296122 0)
(-0.3525143 -0.03561978 0)
(-0.3497048 -0.04873829 0)
(-0.3459626 -0.0622636 0)
(-0.3414586 -0.07619208 0)
(-0.3361581 -0.09060851 0)
(-0.3300437 -0.1056263 0)
(-0.3233061 -0.1213559 0)
(-0.3150849 -0.1378807 0)
(-0.3073157 -0.1519675 0)
(-0.2971819 -0.1712977 0)
(-0.2869193 -0.1907194 0)
(-0.2754147 -0.2107828 0)
(-0.263311 -0.2318193 0)
(-0.2489708 -0.2533717 0)
(-0.2365935 -0.2729375 0)
(-0.2206234 -0.2979727 0)
(-0.2009129 -0.330082 0)
(-0.1802067 -0.3627707 0)
(-0.1605734 -0.3935459 0)
(-0.1414363 -0.4248236 0)
(-0.1216721 -0.4591349 0)
(-0.1009726 -0.4977471 0)
(-0.07902776 -0.5415251 0)
(-0.05718643 -0.5917277 0)
(-0.03388918 -0.6516134 0)
(-0.01300884 -0.6865189 0)
(-0.01119565 0.5896994 0)
(-0.02778235 0.5564752 0)
(-0.04584671 0.5374534 0)
(-0.06196121 0.5179609 0)
(-0.07790208 0.4963994 0)
(-0.09292016 0.4731375 0)
(-0.1076222 0.4489954 0)
(-0.1217141 0.4247611 0)
(-0.1352694 0.4006679 0)
(-0.1484741 0.3769408 0)
(-0.160529 0.3536951 0)
(-0.1729806 0.3319734 0)
(-0.1811118 0.3139852 0)
(-0.1925435 0.2919531 0)
(-0.2034071 0.2695541 0)
(-0.2133903 0.2492008 0)
(-0.2225624 0.230268 0)
(-0.2308049 0.2121662 0)
(-0.2382369 0.1946433 0)
(-0.245084 0.1775026 0)
(-0.2514832 0.1608146 0)
(-0.2572983 0.1446863 0)
(-0.2624699 0.1290606 0)
(-0.2670018 0.1138612 0)
(-0.2709031 0.09902329 0)
(-0.2741847 0.08448941 0)
(-0.2768577 0.07020781 0)
(-0.278924 0.05613356 0)
(-0.2804866 0.04221132 0)
(-0.2811726 0.02844783 0)
(-0.2810255 0.01459746 0)
(-0.280602 0.0006899681 0)
(-0.2799895 -0.01354936 0)
(-0.2786936 -0.02817484 0)
(-0.2769029 -0.04075563 0)
(-0.2742383 -0.05658268 0)
(-0.271102 -0.07230374 0)
(-0.2673198 -0.08823859 0)
(-0.2629366 -0.1045879 0)
(-0.2579295 -0.1214845 0)
(-0.2522975 -0.1390349 0)
(-0.2461179 -0.1572512 0)
(-0.2388931 -0.1764987 0)
(-0.2307388 -0.1969804 0)
(-0.2221393 -0.2184066 0)
(-0.2130038 -0.2410814 0)
(-0.2019823 -0.2647116 0)
(-0.192871 -0.2875627 0)
(-0.1791825 -0.3159255 0)
(-0.1657144 -0.3459696 0)
(-0.1514887 -0.37664 0)
(-0.1374673 -0.4079687 0)
(-0.1229383 -0.4409054 0)
(-0.1075295 -0.4761677 0)
(-0.09128839 -0.5139566 0)
(-0.07452884 -0.5545365 0)
(-0.05756416 -0.5988702 0)
(-0.04083746 -0.6487823 0)
(-0.02416138 -0.7057236 0)
(-0.008636054 -0.7408609 0)
(-0.008406514 0.6398444 0)
(-0.02150261 0.603194 0)
(-0.0350014 0.580382 0)
(-0.04716101 0.558233 0)
(-0.05913175 0.5346055 0)
(-0.07050972 0.5097437 0)
(-0.08162558 0.4842362 0)
(-0.09239426 0.4585902 0)
(-0.1028248 0.4331586 0)
(-0.1129218 0.4081942 0)
(-0.1226568 0.3838831 0)
(-0.1316931 0.3600309 0)
(-0.1410134 0.3370873 0)
(-0.1479033 0.3171349 0)
(-0.1555689 0.2960564 0)
(-0.1634566 0.2739966 0)
(-0.1705963 0.2529745 0)
(-0.1772523 0.2328503 0)
(-0.1832883 0.2133975 0)
(-0.1887898 0.1944888 0)
(-0.1937914 0.1761281 0)
(-0.1982909 0.1583056 0)
(-0.20228 0.1409783 0)
(-0.2057596 0.1240924 0)
(-0.2087342 0.1075906 0)
(-0.2112097 0.09141291 0)
(-0.2131928 0.07549784 0)
(-0.2146859 0.0597802 0)
(-0.2157003 0.04418523 0)
(-0.2162253 0.02866982 0)
(-0.2161887 0.01302243 0)
(-0.215904 -0.0009558531 0)
(-0.2153578 -0.01525341 0)
(-0.2143217 -0.03183301 0)
(-0.2126289 -0.04822254 0)
(-0.2103151 -0.06488314 0)
(-0.2077559 -0.08184409 0)
(-0.2047411 -0.09923127 0)
(-0.2012655 -0.1171526 0)
(-0.1972967 -0.1357156 0)
(-0.1928123 -0.155023 0)
(-0.1877829 -0.1751715 0)
(-0.1821667 -0.1962252 0)
(-0.1759768 -0.2184382 0)
(-0.1694444 -0.241853 0)
(-0.1614603 -0.2662377 0)
(-0.1549458 -0.2904235 0)
(-0.1451047 -0.3186528 0)
(-0.1357166 -0.3481515 0)
(-0.1256608 -0.3786746 0)
(-0.1152627 -0.4106663 0)
(-0.1043362 -0.4440619 0)
(-0.09283242 -0.4788702 0)
(-0.08085356 -0.5152515 0)
(-0.0685449 -0.5535535 0)
(-0.05601851 -0.5943402 0)
(-0.04334752 -0.638546 0)
(-0.03083776 -0.6878662 0)
(-0.01828989 -0.7446535 0)
(-0.006522129 -0.7811358 0)
(-0.006148244 0.6776283 0)
(-0.01617351 0.6377894 0)
(-0.02600552 0.6118849 0)
(-0.03492191 0.5879938 0)
(-0.04365623 0.5632587 0)
(-0.05200821 0.5376157 0)
(-0.06018001 0.5114777 0)
(-0.06815313 0.485206 0)
(-0.07594218 0.4590764 0)
(-0.08352298 0.4332745 0)
(-0.09086136 0.4079272 0)
(-0.09792438 0.3830856 0)
(-0.1045105 0.3586321 0)
(-0.1112287 0.3350212 0)
(-0.1159642 0.3138299 0)
(-0.1218416 0.2920794 0)
(-0.1270723 0.2699091 0)
(-0.1319501 0.2483199 0)
(-0.1365777 0.2275468 0)
(-0.140772 0.2074004 0)
(-0.1445752 0.1878326 0)
(-0.147985 0.1687977 0)
(-0.1510035 0.1502519 0)
(-0.153634 0.1321487 0)
(-0.155882 0.1144387 0)
(-0.1577548 0.09706968 0)
(-0.1592615 0.07998617 0)
(-0.1604114 0.06313019 0)
(-0.1612162 0.04644052 0)
(-0.1616863 0.02985856 0)
(-0.1618411 0.01332099 0)
(-0.1617291 -0.001604676 0)
(-0.1610549 -0.01849981 0)
(-0.1599771 -0.03557392 0)
(-0.1587137 -0.05281074 0)
(-0.1571317 -0.07041858 0)
(-0.1552545 -0.08841965 0)
(-0.1530493 -0.1069137 0)
(-0.1505053 -0.125997 0)
(-0.1476068 -0.1457719 0)
(-0.1443396 -0.1663423 0)
(-0.1406873 -0.1878122 0)
(-0.1366119 -0.2102839 0)
(-0.1323038 -0.2339165 0)
(-0.1268905 -0.2586012 0)
(-0.1225613 -0.2836599 0)
(-0.1157694 -0.3118063 0)
(-0.1092654 -0.3413632 0)
(-0.1021563 -0.3720595 0)
(-0.09463957 -0.4040542 0)
(-0.08666199 -0.437335 0)
(-0.07826867 -0.4719218 0)
(-0.06949411 -0.507894 0)
(-0.06038941 -0.5454028 0)
(-0.05102522 -0.5847037 0)
(-0.04149519 -0.6262482 0)
(-0.031909 -0.6708369 0)
(-0.02246007 -0.7199206 0)
(-0.01323413 -0.7751483 0)
(-0.004605396 -0.8106687 0)
(-0.004527902 0.7062384 0)
(-0.01197315 0.6641807 0)
(-0.01890316 0.6354055 0)
(-0.02510653 0.6096721 0)
(-0.03114477 0.5837129 0)
(-0.0369439 0.5572302 0)
(-0.04265456 0.5304639 0)
(-0.0482637 0.5036758 0)
(-0.05376498 0.4770753 0)
(-0.05912988 0.4507918 0)
(-0.06433202 0.4249055 0)
(-0.06935038 0.3994737 0)
(-0.07418861 0.3745415 0)
(-0.07870611 0.3500473 0)
(-0.0834526 0.326254 0)
(-0.08624835 0.3044728 0)
(-0.08997664 0.2825939 0)
(-0.09399979 0.2602134 0)
(-0.09727412 0.2383506 0)
(-0.1004912 0.2171877 0)
(-0.1033905 0.1966025 0)
(-0.1059953 0.1765632 0)
(-0.108299 0.1570286 0)
(-0.1103059 0.137958 0)
(-0.1120233 0.1193071 0)
(-0.1134602 0.1010261 0)
(-0.1146265 0.08305936 0)
(-0.1155316 0.06534831 0)
(-0.1161845 0.04783121 0)
(-0.1165909 0.03044366 0)
(-0.1167784 0.01311893 0)
(-0.1166527 -0.002964203 0)
(-0.1162025 -0.02055051 0)
(-0.1155793 -0.03833169 0)
(-0.1147427 -0.0563433 0)
(-0.1136886 -0.07468668 0)
(-0.1124195 -0.09344823 0)
(-0.110926 -0.1127271 0)
(-0.1092008 -0.1326251 0)
(-0.1072344 -0.1532478 0)
(-0.1050163 -0.1747017 0)
(-0.1025206 -0.1970914 0)
(-0.09986076 -0.2205201 0)
(-0.09644316 -0.2450439 0)
(-0.09371117 -0.2704351 0)
(-0.08927878 -0.2982132 0)
(-0.08502707 -0.3274337 0)
(-0.08031421 -0.3578989 0)
(-0.07527001 -0.3897332 0)
(-0.06981774 -0.4229032 0)
(-0.06395522 -0.4573577 0)
(-0.05770914 -0.4930229 0)
(-0.05114287 -0.52987 0)
(-0.04433654 -0.5679712 0)
(-0.03737419 -0.6075466 0)
(-0.03034257 -0.6490319 0)
(-0.02332293 -0.6932334 0)
(-0.0164386 -0.7416529 0)
(-0.009737026 -0.7962134 0)
(-0.003384297 -0.8324007 0)
(-0.002922791 0.7278547 0)
(-0.008196906 0.6825477 0)
(-0.01281584 0.6510659 0)
(-0.0168805 0.6240354 0)
(-0.02078992 0.5975584 0)
(-0.02455095 0.5709035 0)
(-0.0282364 0.5440531 0)
(-0.03184266 0.5171158 0)
(-0.03539782 0.4902209 0)
(-0.03893284 0.4635155 0)
(-0.04244799 0.437133 0)
(-0.04591771 0.4111625 0)
(-0.04931817 0.3856715 0)
(-0.05263928 0.3607209 0)
(-0.05575663 0.3362776 0)
(-0.05906633 0.3124816 0)
(-0.06138296 0.2901755 0)
(-0.06329055 0.2684816 0)
(-0.06593656 0.2464911 0)
(-0.06795844 0.2247988 0)
(-0.06996586 0.2035598 0)
(-0.07175142 0.1828102 0)
(-0.07334259 0.1625542 0)
(-0.07473918 0.1427718 0)
(-0.07595204 0.1234289 0)
(-0.07699384 0.1044801 0)
(-0.07787225 0.08587133 0)
(-0.07859041 0.06754302 0)
(-0.07915181 0.04943051 0)
(-0.07955434 0.03146476 0)
(-0.07982698 0.01357354 0)
(-0.0798614 -0.003434385 0)
(-0.07966962 -0.0215195 0)
(-0.07937375 -0.03976641 0)
(-0.07893802 -0.05825779 0)
(-0.07836207 -0.07708696 0)
(-0.07764082 -0.09634833 0)
(-0.07676809 -0.1161425 0)
(-0.07573727 -0.1365746 0)
(-0.07454087 -0.1577545 0)
(-0.07316934 -0.1797962 0)
(-0.07162397 -0.2028154 0)
(-0.06978495 -0.2269316 0)
(-0.068026 -0.2521943 0)
(-0.06547207 -0.2792759 0)
(-0.06297592 -0.3078804 0)
(-0.06024096 -0.3377993 0)
(-0.05725047 -0.3691723 0)
(-0.05391169 -0.4020535 0)
(-0.05016734 -0.4363529 0)
(-0.04600813 -0.4718893 0)
(-0.04148649 -0.5084736 0)
(-0.03669866 -0.546036 0)
(-0.03174008 -0.5846674 0)
(-0.02668277 -0.6246106 0)
(-0.02159188 -0.6663182 0)
(-0.0165297 -0.710581 0)
(-0.01156765 -0.7587959 0)
(-0.006802757 -0.8125498 0)
(-0.002320917 -0.8479447 0)
(-0.00217787 0.7433012 0)
(-0.005933862 0.6953651 0)
(-0.009087395 0.6617263 0)
(-0.01157435 0.6335243 0)
(-0.01378814 0.6061897 0)
(-0.01585559 0.5788384 0)
(-0.01788422 0.5514362 0)
(-0.01993257 0.524139 0)
(-0.02198867 0.4972757 0)
(-0.02408788 0.4708937 0)
(-0.02618969 0.4448316 0)
(-0.02829267 0.4191039 0)
(-0.03037774 0.3937258 0)
(-0.03243601 0.3687103 0)
(-0.03446626 0.3440788 0)
(-0.03637258 0.3198127 0)
(-0.03829586 0.2960124 0)
(-0.03980141 0.2731939 0)
(-0.04078364 0.250992 0)
(-0.04200093 0.2289249 0)
(-0.0430409 0.2072755 0)
(-0.0440555 0.186109 0)
(-0.04502142 0.1654528 0)
(-0.0459349 0.1453084 0)
(-0.04678139 0.1256595 0)
(-0.04754986 0.1064369 0)
(-0.04823442 0.08755615 0)
(-0.04883167 0.06895014 0)
(-0.04934302 0.05055041 0)
(-0.04976431 0.03228754 0)
(-0.0501234 0.01408897 0)
(-0.05032237 -0.003554526 0)
(-0.05037693 -0.02191029 0)
(-0.05037904 -0.0404472 0)
(-0.05029693 -0.05925043 0)
(-0.05012999 -0.07841044 0)
(-0.04987248 -0.09802381 0)
(-0.04951788 -0.1181924 0)
(-0.04905889 -0.1390233 0)
(-0.04848726 -0.1606286 0)
(-0.04779353 -0.1831254 0)
(-0.04696911 -0.2066374 0)
(-0.04598859 -0.2312918 0)
(-0.04490884 -0.2572784 0)
(-0.04355301 -0.2846115 0)
(-0.04224847 -0.3132942 0)
(-0.04094298 -0.3436647 0)
(-0.03923054 -0.3759446 0)
(-0.03726199 -0.409925 0)
(-0.0348332 -0.4454079 0)
(-0.03192754 -0.4820634 0)
(-0.02867675 -0.5195211 0)
(-0.02524048 -0.5576241 0)
(-0.02174958 -0.5965192 0)
(-0.01823145 -0.6365012 0)
(-0.01472586 -0.6780434 0)
(-0.0112686 -0.7219656 0)
(-0.00789774 -0.7696927 0)
(-0.004673228 -0.8229101 0)
(-0.001608503 -0.858735 0)
(-0.001378165 0.7554472 0)
(-0.003341429 0.7043507 0)
(-0.004133422 0.6680829 0)
(-0.004623531 0.6381467 0)
(-0.005093332 0.6103131 0)
(-0.005606574 0.5831031 0)
(-0.006314082 0.5561713 0)
(-0.006997543 0.5293964 0)
(-0.008288478 0.5025926 0)
(-0.009152727 0.4758364 0)
(-0.0102375 0.4493661 0)
(-0.01132362 0.4232501 0)
(-0.01247811 0.3975292 0)
(-0.01365722 0.3723166 0)
(-0.01480934 0.3476046 0)
(-0.01585563 0.3232942 0)
(-0.01676698 0.2993661 0)
(-0.0176131 0.2759038 0)
(-0.01808979 0.2531932 0)
(-0.01873297 0.2311714 0)
(-0.01931743 0.2096732 0)
(-0.01997156 0.188678 0)
(-0.02066527 0.1681494 0)
(-0.0214965 0.1479976 0)
(-0.02221797 0.1281944 0)
(-0.02295169 0.1087415 0)
(-0.02367203 0.08961606 0)
(-0.02434859 0.07076971 0)
(-0.0249862 0.05214431 0)
(-0.02557781 0.03367302 0)
(-0.02614604 0.01528184 0)
(-0.02660947 -0.002805922 0)
(-0.02698566 -0.02131004 0)
(-0.02734473 -0.04000832 0)
(-0.02766544 -0.05897898 0)
(-0.027947 -0.07831108 0)
(-0.02818801 -0.09810857 0)
(-0.02838569 -0.1184762 0)
(-0.02853749 -0.1395241 0)
(-0.02863982 -0.1613671 0)
(-0.0286881 -0.1841245 0)
(-0.0286744 -0.2079179 0)
(-0.02859963 -0.2328667 0)
(-0.02837821 -0.2590891 0)
(-0.02820475 -0.2866511 0)
(-0.02782762 -0.3158062 0)
(-0.0269226 -0.3467802 0)
(-0.02614853 -0.3796309 0)
(-0.02495097 -0.4146857 0)
(-0.02332356 -0.4516482 0)
(-0.02136264 -0.489554 0)
(-0.01912418 -0.5275653 0)
(-0.01675576 -0.5657543 0)
(-0.01436836 -0.6046731 0)
(-0.01202001 -0.6446609 0)
(-0.009685472 -0.6862131 0)
(-0.007385365 -0.730135 0)
(-0.005139557 -0.7777969 0)
(-0.003006451 -0.8307161 0)
(-0.001009721 -0.866143 0)
(-0.000607659 0.7617263 0)
(-0.001866053 0.7070381 0)
(-0.001469293 0.6680981 0)
(-0.001358316 0.6378781 0)
(-0.0005852214 0.6099753 0)
(9.538571e-05 0.5828191 0)
(0.0009034007 0.5559509 0)
(0.001519484 0.5293113 0)
(0.002470505 0.5028606 0)
(0.002721419 0.4767444 0)
(0.002884717 0.4510254 0)
(0.002695634 0.4256932 0)
(0.002352595 0.4007077 0)
(0.001535471 0.3757554 0)
(0.0008652685 0.3506902 0)
(4.914999e-05 0.3257652 0)
(-0.0007721327 0.301247 0)
(-0.001504391 0.2774104 0)
(-0.00237026 0.2544335 0)
(-0.002894418 0.2322978 0)
(-0.00337579 0.2107879 0)
(-0.003741994 0.1898575 0)
(-0.00408134 0.1694527 0)
(-0.004213831 0.1494868 0)
(-0.004597334 0.1298523 0)
(-0.004993316 0.1105177 0)
(-0.005453384 0.0914658 0)
(-0.005973093 0.07265642 0)
(-0.006532787 0.05403339 0)
(-0.007118863 0.03553295 0)
(-0.007734931 0.01708993 0)
(-0.00832836 -0.001265204 0)
(-0.008892779 -0.01981 0)
(-0.009479718 -0.03854299 0)
(-0.01009106 -0.05756585 0)
(-0.01068579 -0.07696181 0)
(-0.01128456 -0.09682437 0)
(-0.01187667 -0.1172577 0)
(-0.01246062 -0.1383726 0)
(-0.01303296 -0.1602872 0)
(-0.0135904 -0.1831283 0)
(-0.01412735 -0.2070359 0)
(-0.01464067 -0.2321614 0)
(-0.01512252 -0.2586546 0)
(-0.01554453 -0.2866846 0)
(-0.01575155 -0.3164787 0)
(-0.01595671 -0.3481706 0)
(-0.01551415 -0.3819812 0)
(-0.01490916 -0.417939 0)
(-0.0141096 -0.4555144 0)
(-0.01305874 -0.4940163 0)
(-0.01169683 -0.5326808 0)
(-0.01024211 -0.571151 0)
(-0.008734926 -0.6099912 0)
(-0.00728125 -0.6498962 0)
(-0.005841999 -0.6913221 0)
(-0.004439067 -0.7350387 0)
(-0.003086101 -0.7824086 0)
(-0.001820032 -0.8349739 0)
(-0.0006349847 -0.8706617 0)
(-0.000653773 0.767304 0)
(-0.0004996545 0.7082337 0)
(-0.0001096553 0.6676959 0)
(0.001243024 0.6359025 0)
(0.002653346 0.6070503 0)
(0.004201774 0.5794583 0)
(0.005707716 0.5525514 0)
(0.007077329 0.5261577 0)
(0.008327626 0.5002889 0)
(0.009474596 0.474809 0)
(0.0105048 0.4497009 0)
(0.01133262 0.4250019 0)
(0.0120267 0.4004925 0)
(0.01263104 0.3761575 0)
(0.01278389 0.3518982 0)
(0.0127564 0.3278001 0)
(0.01254938 0.3039169 0)
(0.01203029 0.2802877 0)
(0.01157721 0.2570248 0)
(0.01107367 0.2343263 0)
(0.01061339 0.2122796 0)
(0.01018709 0.1908636 0)
(0.009811922 0.1700524 0)
(0.009367687 0.1498895 0)
(0.009025572 0.1303981 0)
(0.008639413 0.1113405 0)
(0.008225531 0.09251866 0)
(0.007760071 0.07390152 0)
(0.007237198 0.05544138 0)
(0.006660006 0.03708283 0)
(0.006031221 0.01876527 0)
(0.005380054 0.0004256836 0)
(0.004669917 -0.01797959 0)
(0.003893214 -0.03664032 0)
(0.00310784 -0.05558849 0)
(0.002270374 -0.07492762 0)
(0.001410974 -0.09474882 0)
(0.0005261993 -0.1151558 0)
(-0.0003783054 -0.136261 0)
(-0.001298075 -0.1581821 0)
(-0.002237953 -0.1810424 0)
(-0.003197455 -0.2049724 0)
(-0.00416359 -0.2300872 0)
(-0.00510208 -0.2565565 0)
(-0.005965455 -0.284747 0)
(-0.006728055 -0.3150323 0)
(-0.007270803 -0.3475905 0)
(-0.007719271 -0.3823034 0)
(-0.007826011 -0.4189184 0)
(-0.00754502 -0.4571739 0)
(-0.007125044 -0.4964362 0)
(-0.006455626 -0.5356207 0)
(-0.005723523 -0.5741937 0)
(-0.004805858 -0.6130215 0)
(-0.003954938 -0.6529143 0)
(-0.003139907 -0.6943238 0)
(-0.002359922 -0.7380241 0)
(-0.001620196 -0.7853727 0)
(-0.0009370146 -0.8378683 0)
(-0.0003139376 -0.8735025 0)
(-0.0003103927 0.7708363 0)
(-8.288754e-05 0.707962 0)
(0.001341056 0.6644945 0)
(0.003275853 0.6314275 0)
(0.005407716 0.6022333 0)
(0.007576658 0.5746838 0)
(0.009667332 0.5480018 0)
(0.0116369 0.5218618 0)
(0.01346494 0.4961466 0)
(0.01513666 0.4708509 0)
(0.01660754 0.4460455 0)
(0.01791867 0.4217777 0)
(0.01884423 0.3979718 0)
(0.01970307 0.3742557 0)
(0.02039052 0.3505644 0)
(0.02094077 0.3269057 0)
(0.02141403 0.3034171 0)
(0.02180584 0.2803081 0)
(0.02182101 0.2575259 0)
(0.02184802 0.2351398 0)
(0.02170263 0.2133482 0)
(0.02146978 0.1921876 0)
(0.0211563 0.1716211 0)
(0.02076545 0.1515631 0)
(0.0203307 0.1319553 0)
(0.01986057 0.1127697 0)
(0.01935933 0.09396658 0)
(0.01880844 0.07549254 0)
(0.01820278 0.05720209 0)
(0.01753791 0.03897945 0)
(0.01680954 0.02078954 0)
(0.0160185 0.002575814 0)
(0.0151446 -0.01558741 0)
(0.01418228 -0.03410524 0)
(0.01315352 -0.05294147 0)
(0.0120811 -0.0721725 0)
(0.01095844 -0.09189668 0)
(0.009788944 -0.1122168 0)
(0.008574193 -0.1332404 0)
(0.00732134 -0.155072 0)
(0.006042392 -0.1778043 0)
(0.004750848 -0.2016262 0)
(0.003470918 -0.2268187 0)
(0.002249142 -0.2536004 0)
(0.001124338 -0.282162 0)
(0.0001173948 -0.3127289 0)
(-0.0007717808 -0.3455336 0)
(-0.001547859 -0.380752 0)
(-0.002119856 -0.4182309 0)
(-0.002619372 -0.4573086 0)
(-0.002728951 -0.4971162 0)
(-0.00269162 -0.5368741 0)
(-0.002214252 -0.5760869 0)
(-0.001854065 -0.6150043 0)
(-0.00142978 -0.6547385 0)
(-0.001082641 -0.6959705 0)
(-0.000764724 -0.7394917 0)
(-0.0004894716 -0.7866571 0)
(-0.0002596641 -0.838966 0)
(-0.0001032138 -0.8747556 0)
(-0.0002409969 0.7732967 0)
(0.0005056291 0.7056459 0)
(0.002462258 0.6595538 0)
(0.004854702 0.6252795 0)
(0.007517638 0.595627 0)
(0.01021513 0.5680451 0)
(0.01285346 0.5415931 0)
(0.01536471 0.5158748 0)
(0.01770103 0.4907314 0)
(0.01982577 0.4661176 0)
(0.02171864 0.4420503 0)
(0.02336158 0.4185552 0)
(0.02476719 0.3952959 0)
(0.02597146 0.3719132 0)
(0.0269686 0.3484552 0)
(0.02782805 0.3250854 0)
(0.02840747 0.3020248 0)
(0.02889138 0.2792893 0)
(0.02940918 0.2568975 0)
(0.02950915 0.2349901 0)
(0.02959705 0.2135493 0)
(0.02950816 0.1926405 0)
(0.02930915 0.1722858 0)
(0.0290037 0.1524643 0)
(0.02859794 0.1331265 0)
(0.02809877 0.1141955 0)
(0.02751501 0.09559024 0)
(0.02686194 0.07724259 0)
(0.0261444 0.05908489 0)
(0.02536379 0.04105513 0)
(0.02451641 0.023101 0)
(0.02358948 0.005136653 0)
(0.02260567 -0.01271984 0)
(0.02149332 -0.03100414 0)
(0.02025312 -0.04964485 0)
(0.01894698 -0.06870973 0)
(0.01758983 -0.08825972 0)
(0.01618124 -0.1083998 0)
(0.01472169 -0.1292727 0)
(0.01321806 -0.1510146 0)
(0.01169372 -0.1737673 0)
(0.01017584 -0.1976981 0)
(0.008693224 -0.2230128 0)
(0.007268562 -0.2499503 0)
(0.005929713 -0.2787684 0)
(0.004707601 -0.3097023 0)
(0.003622403 -0.342905 0)
(0.002674906 -0.3784069 0)
(0.001849712 -0.4160847 0)
(0.001153906 -0.4556224 0)
(0.0006136143 -0.4962711 0)
(0.0003011573 -0.5368484 0)
(7.184187e-05 -0.576358 0)
(2.363013e-05 -0.6153163 0)
(-1.546963e-05 -0.6550208 0)
(-5.24328e-05 -0.6962515 0)
(-6.962972e-05 -0.7397831 0)
(-7.552926e-05 -0.7869564 0)
(-7.611961e-05 -0.8392644 0)
(-6.252637e-05 -0.8750734 0)
(-0.000205069 0.7749735 0)
(0.0008279394 0.7023714 0)
(0.003084604 0.6535288 0)
(0.005805909 0.6179779 0)
(0.008821255 0.5878116 0)
(0.01187718 0.5601623 0)
(0.01487988 0.5339122 0)
(0.01775447 0.508573 0)
(0.02045419 0.4839297 0)
(0.02294651 0.4598958 0)
(0.025218 0.4364468 0)
(0.02726338 0.413579 0)
(0.02907897 0.3909947 0)
(0.03065354 0.368363 0)
(0.03195858 0.3456638 0)
(0.03301353 0.3229694 0)
(0.0338341 0.3003524 0)
(0.03449291 0.2779698 0)
(0.03486185 0.2560548 0)
(0.03521472 0.2345796 0)
(0.03530254 0.2135772 0)
(0.03524979 0.1930986 0)
(0.03503363 0.1731335 0)
(0.03467819 0.1536459 0)
(0.03420025 0.1345875 0)
(0.03361508 0.1159039 0)
(0.03293363 0.09753644 0)
(0.03216466 0.07941837 0)
(0.0313152 0.06147151 0)
(0.03039075 0.0436231 0)
(0.02940083 0.02582062 0)
(0.02833802 0.008035444 0)
(0.02722051 -0.009719083 0)
(0.02598959 -0.02737365 0)
(0.02459812 -0.04572774 0)
(0.02312686 -0.06463082 0)
(0.02159935 -0.08406257 0)
(0.02002383 -0.1040969 0)
(0.0184101 -0.1248603 0)
(0.01676635 -0.1465064 0)
(0.01510861 -0.1692094 0)
(0.0134615 -0.1931727 0)
(0.01185478 -0.2186269 0)
(0.01031925 -0.2458079 0)
(0.008882616 -0.2749431 0)
(0.00756508 -0.3062364 0)
(0.006379376 -0.3398374 0)
(0.005334719 -0.3757867 0)
(0.004437459 -0.4139312 0)
(0.003687127 -0.4538377 0)
(0.003070776 -0.494728 0)
(0.00258359 -0.5355708 0)
(0.002242382 -0.5755175 0)
(0.001983586 -0.614784 0)
(0.00174915 -0.6545605 0)
(0.00147791 -0.6958548 0)
(0.001193704 -0.7394304 0)
(0.0008856795 -0.7866257 0)
(0.0005434122 -0.8389654 0)
(0.0001656407 -0.8750342 0)
(-0.0001967368 0.776159 0)
(0.0009980331 0.6983584 0)
(0.003427719 0.6467231 0)
(0.006357497 0.6098647 0)
(0.009597039 0.5791783 0)
(0.0128883 0.5514678 0)
(0.01613206 0.5254397 0)
(0.01924798 0.5005111 0)
(0.02218807 0.4764017 0)
(0.02492152 0.4529728 0)
(0.0274348 0.4301546 0)
(0.02973623 0.407904 0)
(0.03180842 0.3859755 0)
(0.03363908 0.3640649 0)
(0.03519079 0.3420816 0)
(0.03647231 0.320086 0)
(0.03748662 0.2981816 0)
(0.03824844 0.2764747 0)
(0.03875483 0.2550591 0)
(0.03908377 0.2340629 0)
(0.03914231 0.2135957 0)
(0.03904157 0.1936057 0)
(0.03874975 0.1740758 0)
(0.03830058 0.1549779 0)
(0.03770989 0.136268 0)
(0.03699547 0.1178921 0)
(0.03617348 0.09979248 0)
(0.03525813 0.08190956 0)
(0.03426033 0.06418076 0)
(0.03318738 0.04654465 0)
(0.03204507 0.02895122 0)
(0.03083711 0.01137901 0)
(0.02955587 -0.006133415 0)
(0.0281993 -0.02346569 0)
(0.0267215 -0.04153625 0)
(0.02516222 -0.06020917 0)
(0.02353834 -0.07946618 0)
(0.02187086 -0.09937361 0)
(0.02017599 -0.1200557 0)
(0.01846857 -0.1416739 0)
(0.01676651 -0.1644152 0)
(0.0150917 -0.1884888 0)
(0.01346775 -0.2141212 0)
(0.01191782 -0.2415459 0)
(0.01046306 -0.2709861 0)
(0.009120276 -0.3026308 0)
(0.007899459 -0.336604 0)
(0.006803062 -0.3729241 0)
(0.005829502 -0.411445 0)
(0.004978594 -0.4517686 0)
(0.004255939 -0.4931275 0)
(0.003664319 -0.5344159 0)
(0.003195802 -0.5746366 0)
(0.002783876 -0.6139167 0)
(0.00237743 -0.6535642 0)
(0.001943797 -0.6947357 0)
(0.00150455 -0.7381949 0)
(0.001060665 -0.7852802 0)
(0.0006141339 -0.8375144 0)
(0.0001688039 -0.8735143 0)
(-0.0002264347 0.7771768 0)
(0.001031998 0.6940625 0)
(0.003520425 0.6395645 0)
(0.006540412 0.6013292 0)
(0.009884946 0.5700702 0)
(0.01329479 0.5422634 0)
(0.01666616 0.5164373 0)
(0.01991538 0.491903 0)
(0.02299361 0.4683087 0)
(0.02587116 0.4454607 0)
(0.02853312 0.423242 0)
(0.03099235 0.4015705 0)
(0.03323151 0.3803036 0)
(0.03522692 0.3591677 0)
(0.03694029 0.3379857 0)
(0.03835452 0.3167806 0)
(0.03947773 0.2956339 0)
(0.04031401 0.2746599 0)
(0.04088351 0.2539776 0)
(0.04115765 0.2336903 0)
(0.04123648 0.213828 0)
(0.04107017 0.1943877 0)
(0.04071216 0.1753574 0)
(0.04017227 0.1567032 0)
(0.03947442 0.1383793 0)
(0.03864065 0.1203362 0)
(0.0376911 0.1025239 0)
(0.03664314 0.0848899 0)
(0.0355109 0.06737812 0)
(0.03430557 0.04993247 0)
(0.03303655 0.03250889 0)
(0.03171299 0.01509858 0)
(0.03033118 -0.002233103 0)