/*--------------------------------*- C++ -*----------------------------------*\
| =========                 |                                                 |
| \\      /  F ield         | OpenFOAM: The Open Source CFD Toolbox           |
|  \\    /   O peration     | Version:  2312                                  |
|   \\  /    A nd           | Website:  www.openfoam.com                      |
|    \\/     M anipulation  |                                                 |
\*---------------------------------------------------------------------------*/
FoamFile
{
    version     2.0;
    format      ascii;
    arch        "LSB;label=32;scalar=64";
    class       volScalarField;
    location    "5100";
    object      ILambda_7_0;
}
// * * * * * * * * * * * * * * * * * * * * * * * * * * * * * * * * * * * * * //

dimensions      [1 0 -3 0 0 0 0];

internalField   nonuniform List<scalar> 
12000
(
3950.247
3991.573
3980.891
3714.429
3108.16
2320.979
1595.182
1069.415
748.6512
575.2322
505.3801
556.2534
799.8633
1295.791
2008.765
2783.58
3410.221
3737.581
3750.424
3554.162
3287.36
3033.127
2790.226
2511.506
2168.529
1791.53
1461.571
1268.464
1266.441
1452.623
1773.277
2146.908
2489.625
2734.054
2840.312
2800.74
2639.098
2403.532
2153.422
1943.232
1808.818
1761.143
1788.936
1867.719
1970.201
2073.61
2162.17
2225.936
2258.674
2257.018
2221.323
2157.057
2075.039
1989.623
1915.236
1862.726
1836.598
1836.612
1850.082
1898.539
3981.402
4015.969
3844.954
3264.438
2411.316
1608.541
1050.005
731.3579
566.512
493.5706
520.8322
724.9627
1189.053
1905.737
2728.269
3425.894
3810.576
3840.081
3621.263
3318.586
3044.097
2807.964
2551.82
2224.768
1840.438
1479.473
1245.732
1211.85
1387.182
1719.27
2118.94
2491.334
2760.089
2880.784
2845.335
2679.546
2434.511
2172.59
1950.816
1806.902
1752.78
1777.341
1855.79
1960.407
2068.034
2162.447
2232.952
2272.149
2275.255
2241.418
2175.642
2089.31
1998.221
1918.564
1862.532
1835.456
1835.237
1855.71
1882.434
1933.612
3997.253
3981.279
3606.296
2827.303
1965.917
1307.463
901.1777
669.8324
543.131
506.0598
608.3183
937.7698
1538.801
2329.987
3107.781
3649.549
3839.407
3721.921
3448.542
3165.161
2927.549
2698.299
2411.465
2046.337
1657.304
1347.301
1211.706
1291.486
1559.111
1936.15
2325.68
2641.857
2827.843
2862.132
2756.97
2551.587
2301.234
2063.198
1882.888
1784.382
1768.571
1818.669
1909.556
2016.325
2119.006
2203.26
2259.056
2279.729
2262.569
2210.363
2132.268
2042.656
1957.794
1891.561
1851.984
1839.969
1850.32
1875.564
1903.03
1949.056
4006.394
3868.283
3222.543
2305.857
1529.163
1032.799
746.1707
582.1353
504.5875
535.9414
754.7519
1241.239
1979.085
2807.245
3486.255
3834.086
3825.554
3584.03
3280.335
3020.247
2800.404
2550.898
2218.181
1822.74
1456.248
1230.383
1217.543
1418.951
1770.726
2175.064
2535.452
2781.116
2877.195
2824.423
2653.026
2413.093
2162.152
1951.573
1815.22
1764.109
1788.624
1866.339
1971.239
2080.352
2176.275
2246.674
2283.152
2281.222
2241.534
2171.075
2082.796
1993.007
1917.235
1866.196
1843.547
1846.157
1866.405
1896.099
1924.541
1966.381
3999.933
3613.687
2703.3
1802.449
1207.04
860.2702
651.6901
533.7537
507.3056
627.8858
988.765
1631.58
2457.064
3239.055
3747.108
3880.009
3708.638
3405.006
3118.938
2894.191
2675.672
2386.504
2008.161
1607.338
1300.197
1187.375
1303.934
1608.829
2009.831
2402.461
2702.094
2859.936
2864.897
2737.637
2521.35
2270.709
2039.512
1869.001
1780.134
1772.381
1828.882
1924.938
2035.78
2140.945
2225.2
2277.823
2292.292
2267.118
2207.082
2123.39
2031.754
1948.627
1886.946
1853.109
1846.318
1860.307
1886.42
1917.056
1944.193
1980.905
3938.23
3163.402
2122.127
1402.23
994.5081
737.8031
577.2585
506.2829
549.5277
790.5365
1313.777
2090.245
2934.406
3591.301
3886.685
3820.834
3541.881
3230.106
2983.051
2779.543
2534.759
2192.238
1782.034
1410.4
1198.642
1217.687
1457.156
1838.07
2251.866
2600.231
2819.102
2884.547
2807.262
2622.964
2381.967
2138.215
1938.176
1811.774
1768.219
1798.043
1879.85
1988.345
2100.328
2197.353
2265.949
2297.325
2287.835
2240.051
2163.247
2072.105
1983.455
1912.023
1866.84
1849.696
1856.083
1877.918
1906.796
1936.523
1961.754
1994.007
3720.228
2522.559
1612.162
1149.097
851.493
638.7791
526.7853
514.1084
650.6514
1041.698
1727.459
2584.553
3362.423
3827.877
3900.626
3680.102
3355.68
3075.576
2867.945
2659.856
2365.671
1971.754
1558.938
1256.849
1170.021
1325.336
1666.323
2086.611
2475.755
2753.081
2880.252
2857.406
2712.578
2490.801
2244.126
2021.747
1860.728
1779.723
1777.922
1839.33
1940.014
2055.04
2162.831
2246.761
2295.361
2302.616
2268.814
2201.157
2112.981
2021.014
1941.302
1885.24
1857.255
1854.911
1871.142
1897.421
1926.607
1954.306
1977.535
2005.998
3185.646
1833.706
1304.411
1001.123
724.2573
559.7223
509.1678
566.4024
826.3997
1389.363
2209.082
3067.634
3695.522
3932.374
3808.095
3495.404
3180.65
2949.587
2761.95
2518.991
2163.395
1736.824
1361.213
1167.077
1222.05
1501.843
1910.975
2330.554
2662.48
2851.744
2886.617
2787.301
2593.286
2353.329
2116.971
1926.168
1807.985
1770.861
1805.981
1892.846
2006.263
2122.051
2220.21
2286.118
2311.039
2292.8
2236.4
2153.566
2060.526
1974.207
1908.063
1869.103
1857.178
1866.593
1889.118
1916.986
1944.934
1970.316
1991.932
2017.24
2200.648
1407.427
1200.517
853.3578
601.8151
520.307
530.15
674.9046
1094.683
1829.552
2720.08
3487.016
3900.916
3909.513
3642.356
3303.236
3034.462
2845.863
2646.683
2344.358
1932.455
1507.687
1213.431
1156.704
1353.812
1730.899
2167.175
2547.846
2798.675
2893.674
2844.542
2685.449
2461.341
2220.201
2006.355
1853.489
1779.084
1782.803
1849.6
1955.868
2075.856
2186.356
2269.215
2312.507
2311.293
2268.169
2193.016
2101.201
2010.118
1934.962
1885.218
1863.162
1864.773
1882.426
1908.068
1935.542
1961.607
1984.949
2005.479
2027.876
1044.533
1504.763
1076.709
654.9144
531.489
528.4668
587.9741
859.0369
1467.959
2337.381
3206.772
3795.589
3966.823
3784.501
3443.706
3132.233
2920.529
2748.268
2504.081
2132.113
1687.816
1309.921
1137.438
1232.392
1554.051
1989.326
2410.025
2720.727
2877.804
2882.642
2764.183
2563.899
2327.244
2098.566
1915.737
1804.15
1772.565
1813.224
1906.157
2025.538
2145.545
2244.364
2306.418
2323.553
2295.659
2230.517
2142.299
2048.459
1965.585
1905.492
1872.977
1865.968
1877.769
1900.243
1926.582
1952.623
1976.869
1998.711
2018.547
2037.767
1848.279
1381.779
689.1895
522.3875
546.3685
559.7205
692.9314
1146.144
1940.458
2865.106
3611.76
3963.999
3905.677
3596.488
3249.609
2997.017
2828.445
2635.88
2321.825
1889.419
1453.042
1170.045
1148.095
1390.015
1802.525
2250.656
2617.554
2838.186
2900.452
2827.279
2657.349
2433.69
2199.105
1993.044
1846.734
1777.689
1786.797
1859.875
1972.918
2098.557
2211.517
2292.221
2328.799
2318.009
2265.205
2183.037
2088.628
1999.576
1929.811
1886.696
1870.37
1875.405
1893.858
1918.335
1943.901
1968.307
1991.222
2012.055
2031.251
2046.539
2182.381
667.9726
479.8446
575.6796
578.3529
598.2257
883.5047
1553.313
2477.419
3350.68
3888.97
3988.184
3750.169
3388.332
3086.246
2896.368
2738.315
2489.515
2097.778
1634.603
1256.674
1110.555
1249.821
1614.402
2072.737
2489.099
2773.805
2896.918
2873.224
2738.927
2535.5
2303.74
2082.53
1906.323
1799.925
1773.346
1820.131
1920.342
2046.653
2170.949
2269.512
2326.261
2334.303
2296.145
2222.551
2129.936
2036.517
1958.05
1904.414
1878.181
1875.556
1889.119
1911.069
1935.632
1959.887
1983.033
2005.189
2025.214
2043.388
2053.653
404.9204
522.1946
652.8934
629.0014
565.5637
693.7851
1201.93
2064.473
3019.005
3734.3
4015.508
3889.102
3543.894
3196.375
2963.943
2815.614
2627.06
2297.518
1842.077
1394.815
1127.187
1145.196
1434.773
1881.172
2336.067
2683.548
2870.815
2900.82
2806.659
2629.355
2408.261
2180.462
1981.088
1839.941
1775.492
1790.267
1870.701
1991.653
2123.348
2238.116
2315.246
2343.607
2322.336
2259.892
2171.589
2075.874
1990
1926.218
1889.655
1878.495
1886.236
1904.93
1928.018
1951.732
1974.864
1997.367
2019.126
2038.105
2054.47
2058.533
669.7001
694.3837
652.2276
570.8242
584.1018
912.0135
1652.006
2629.322
3497.204
3973.83
3996.001
3705.88
3330.486
3043.39
2877.116
2731.838
2474.906
2059.796
1576.73
1201.715
1087.411
1275.41
1683.225
2160.48
2566.439
2820.632
2908.906
2859.132
2712.708
2508.887
2282.761
2068.117
1897.105
1794.989
1773.505
1827.356
1936.024
2069.929
2198.17
2295.198
2345.015
2342.749
2294.041
2212.687
2116.976
2025.31
1952.101
1905.046
1884.574
1885.505
1900.096
1921.153
1944.007
1966.796
1989.398
2011.776
2033.081
2050.33
2063.821
2060.689
643.2255
648.2304
606.9301
555.0137
704.3265
1268.449
2200.563
3180.405
3852.657
4053.954
3859.79
3485.436
3144.325
2935.594
2807.441
2620.097
2270.915
1789.696
1332.839
1085.71
1149.338
1488.824
1966.365
2422.049
2744.519
2896.083
2895.286
2783.755
2602.44
2385.376
2163.804
1969.602
1832.447
1772.491
1793.818
1882.865
2012.587
2150.268
2265.765
2337.672
2356.339
2323.935
2252.255
2159.034
2063.477
1981.904
1924.516
1894.157
1887.318
1896.85
1915.184
1936.777
1958.982
1981.343
2004.05
2026.456
2046.754
2061.243
2070.718
2059.836
655.0958
649.0459
580.648
586.7256
943.7161
1758.427
2793.042
3645.765
4047.587
3988.987
3652.342
3271.324
3004.485
2863.284
2728.996
2459.81
2017.191
1513.516
1145.55
1069.519
1310.446
1760.489
2251.23
2640.442
2860.395
2914.084
2841.374
2686.526
2484.552
2264.132
2054.644
1887.322
1788.996
1773.354
1835.661
1953.924
2095.638
2226.95
2320.83
2362.051
2348.472
2289.264
2201.172
2103.867
2015.309
1948.083
1907.528
1892.088
1895.578
1910.365
1930.169
1951.487
1973.361
1995.993
2019.165
2041.239
2059.534
2070.081
2074.546
2055.96
659.0503
624.3736
556.2796
708.0127
1335.852
2350.76
3351.644
3964.316
4076.275
3817.853
3422.892
3094.804
2912.772
2804.341
2614.642
2240.847
1731.105
1267.111
1047.069
1162.312
1552.783
2057.054
2506.76
2799.19
2914.006
2884.846
2759.68
2577.184
2364.958
2148.623
1957.958
1823.817
1768.702
1797.963
1897.089
2036.214
2179.293
2293.977
2358.847
2366.496
2322.632
2242.46
2145.755
2051.865
1975.608
1924.84
1900.165
1896.694
1907.052
1924.416
1944.443
1965.545
1987.785
2011.231
2034.729
2055.596
2070.619
2076.118
2074.925
2049.344
657.5831
591.0475
580.9479
971.0504
1877.161
2973.469
3795.057
4105.847
3965.681
3591.531
3212.895
2970.434
2855.328
2729.663
2443.054
1968.401
1444.413
1089.357
1058.959
1356.201
1845.65
2343.148
2709.406
2892.642
2913.285
2821.221
2661.172
2462.487
2247.336
2041.546
1876.636
1781.922
1773.188
1845.572
1974.549
2123.958
2257.005
2345.819
2376.805
2351.199
2281.905
2188.354
2091.026
2006.828
1946.112
1911.792
1900.561
1905.622
1919.835
1938.077
1958.056
1979.557
2002.851
2027.214
2050.335
2068.728
2079.169
2078.818
2071.797
2040.538
645.7215
561.2699
704.5641
1407.209
2520.534
3533.466
4064.636
4079.001
3764.419
3359.043
3049.111
2895.737
2806.369
2609.897
2205.626
1665.206
1198.364
1013.383
1185.9
1626.674
2151.609
2588.266
2846.656
2925.073
2870.755
2735.471
2553.799
2346.499
2134.25
1945.802
1814.116
1764.448
1803.104
1913.738
2062.717
2210.292
2322.306
2378.226
2373.719
2318.428
2230.818
2132.185
2041.385
1971.245
1927.095
1907.454
1906.408
1916.749
1932.677
1951.139
1971.524
1994.205
2018.895
2043.689
2065.232
2079.713
2084.473
2077.937
2065.448
2030.281
620.7311
571.2177
988.7598
2011.476
3175.358
3941.758
4142.967
3925.491
3526.613
3157.456
2941.489
2853.122
2733.511
2423.292
1911.911
1369.506
1035.051
1057.844
1413.231
1937.386
2434.22
2772.108
2917.527
2907.584
2799.777
2637.098
2442.365
2231.664
2028.303
1865.043
1774.181
1773.514
1857.43
1997.989
2154.736
2287.969
2369.694
2388.901
2350.846
2272.215
2174.676
2078.863
2000.061
1946.112
1917.563
1909.675
1915.439
1928.517
1945.074
1963.968
1985.562
2009.984
2035.841
2060.002
2078.464
2087.691
2086.09
2073.586
2056.478
2019.398
587.0059
683.0028
1479.24
2719.841
3727.084
4145.677
4058.587
3702.684
3297.446
3007.955
2883.936
2813.229
2605.113
2163.761
1591.366
1127.983
986.9218
1221.181
1709.563
2248.034
2665.104
2886.819
2930.201
2854.054
2711.651
2532.147
2329.431
2120.1
1932.93
1803.654
1760.335
1809.755
1932.965
2091.885
2242.836
2350.281
2395.44
2377.885
2311.51
2217.759
2118.795
2032.329
1968.811
1931.012
1915.629
1916.128
1925.82
1940.104
1957.186
1977.259
2000.804
2027.015
2053.176
2075.207
2089.045
2092.016
2083.937
2066.219
2045.708
2008.698
566.4759
980.7712
2171.195
3409.589
4077.929
4150.16
3870.518
3462.952
3106.561
2916.649
2855.979
2740.221
2399.513
1846.685
1289.392
984.7363
1067.767
1481.151
2033.856
2522.784
2828.185
2935.843
2898.002
2777.553
2614.21
2423.762
2216.649
2014.634
1852.625
1766.247
1774.957
1871.627
2024.167
2187.501
2319.248
2392
2398.168
2347.56
2260.603
2160.648
2067.773
1995.123
1947.881
1924.434
1919
1924.756
1936.407
1951.416
1969.627
1991.742
2017.566
2044.962
2070.017
2088.238
2096.144
2092.388
2078.305
2056.563
2034.066
1998.869
617.461
1543.495
2973.151
3932.424
4191.646
4012.673
3640.2
3241.577
2969.81
2876.019
2824.927
2599.971
2114.238
1509.415
1057.511
969.5832
1268.476
1799.997
2344.568
2736.593
2920.25
2930.388
2835.309
2688.136
2511.834
2313.413
2105.992
1919.326
1792.649
1756.844
1818.449
1954.996
2123.434
2276.277
2377.253
2410.15
2379.059
2302.271
2203.825
2106.068
2024.942
1968.223
1936.234
1924.223
1925.466
1934.103
1946.812
1962.921
1983.174
2007.916
2035.712
2063.051
2085.262
2098.1
2099.237
2088.901
2069.819
2045.516
2022.464
1990.413
858.265
2382.654
3699.704
4182.617
4114.568
3809.294
3408.196
3058.794
2893.181
2864.112
2750.472
2370.974
1771.845
1204.758
940.2404
1089.738
1559.15
2133.392
2607.859
2877.865
2948.42
2885.132
2754.558
2592.162
2406.387
2202.22
2000.584
1839.472
1758.338
1777.924
1888.569
2053.148
2221.812
2350.112
2412.138
2404.446
2341.643
2247.632
2146.842
2058.126
1992.066
1951.163
1931.961
1928.093
1933.292
1943.468
1957.306
1975.391
1998.481
2025.863
2054.63
2080.203
2097.789
2104.049
2098.195
2082.03
2059.344
2034.017
2011.684
1983.616
1478.284
3347.811
4133.523
4169.262
3946.391
3591.521
3192.34
2929.756
2871.373
2843.441
2594.468
2055.437
1418.88
988.3532
962.918
1327.792
1896.653
2440.025
2802.578
2947.48
2926.101
2814.583
2664.732
2492.695
2298.446
2092.027
1905.066
1781.165
1754.154
1829.519
1980.11
2157.275
2310.072
2402.5
2421.894
2377.295
2291.199
2189.652
2094.503
2019.415
1969.345
1942.391
1932.794
1934.078
1941.454
1952.876
1968.59
1989.592
2015.843
2045.163
2073.314
2095.214
2106.654
2105.719
2093.306
2072.557
2047.852
2022.929
2002.301
1978.544
2664.829
4061.763
4177.491
4026.49
3766.447
3369.272
3006.987
2867.78
2880.253
2765.838
2335.737
1685.465
1116.218
903.5124
1124.694
1646.499
2234.764
2688.918
2921.341
2955.503
2868.942
2730.696
2571.029
2390.435
2188.519
1986.171
1825.545
1750.494
1782.613
1908.538
2085.065
2257.43
2379.971
2429.49
2407.478
2333.348
2233.894
2133.854
2050.26
1990.887
1955.685
1939.749
1936.595
1940.845
1949.694
1962.894
1981.49
2006.015
2035.063
2064.939
2090.532
2106.967
2111.247
2103.177
2085.226
2061.448
2036.296
2012.936
1994.647
1975.087
4207.812
4103.798
4016.419
3901.694
3575.391
3140.452
2879.987
2872.097
2872.451
2587.557
1984.172
1319.124
922.5957
968.8478
1399.188
1998.433
2533.563
2862.901
2968.526
2917.139
2791.71
2641.67
2475.236
2284.869
2078.164
1889.923
1769.102
1752.411
1843.245
2008.505
2193.345
2343.842
2425.473
2430.253
2372.568
2278.693
2175.826
2084.555
2015.889
1972.012
1949.148
1941.005
1941.747
1947.828
1958.393
1974.354
1996.669
2024.7
2055.44
2083.992
2105.039
2114.618
2111.39
2096.909
2074.869
2049.715
2025.489
2004.492
1988.812
1973.009
3979.958
3989.504
3999.73
3785.266
3332.244
2936.777
2840.77
2910.035
2787.469
2290.338
1585.296
1025.356
877.3063
1173.609
1742.372
2336.899
2765.464
2958.394
2956.726
2849.117
2706.176
2551.54
2376.566
2175.617
1970.978
1810.477
1742.769
1789.391
1931.849
2119.921
2294.048
2408.369
2443.658
2407.113
2322.871
2219.843
2122.153
2044.424
1991.531
1961.177
1947.487
1944.297
1947.366
1955.171
1968.325
1988.044
2014.394
2045.157
2075.864
2100.998
2115.779
2117.731
2107.357
2087.729
2063.272
2038.285
2016.027
1997.801
1984.687
1972.016
4011.917
4039.57
3947.028
3561.871
3063.26
2819.394
2885.405
2915.826
2576.75
1896.681
1210.261
863.2449
989.3412
1482.302
2104.13
2624.408
2917.128
2982.852
2903.032
2766.808
2619.761
2460.38
2272.985
2063.944
1873.24
1756.265
1752.013
1860.166
2040.354
2231.338
2377.066
2445.763
2435.092
2365.026
2265.095
2162.738
2076.487
2014.379
1976.017
1956.221
1948.651
1948.429
1953.325
1963.532
1980.352
2004.444
2034.416
2066.423
2094.996
2114.729
2122.057
2116.335
2099.815
2076.655
2051.45
2027.895
2008.247
1992.845
1982.028
1971.815
4012.949
4025.496
3794.737
3272.666
2849.021
2819.741
2959.583
2814.843
2230.099
1469.191
934.4686
864.5486
1236.988
1845.632
2438.795
2836.915
2988.35
2951.437
2825.671
2681.87
2534.813
2365.292
2163.108
1954.164
1793.793
1735.442
1798.976
1958.976
2157.549
2331.034
2434.71
2454.441
2403.553
2310.6
2205.843
2111.956
2040.627
1993.818
1967.372
1954.964
1951.148
1952.972
1960.107
1973.789
1995.135
2023.553
2055.965
2087.205
2111.482
2124.245
2123.634
2110.9
2089.712
2064.758
2040.273
2019.031
2002.241
1989.437
1980.526
1972.158
4023.67
3974.793
3548.014
2969.18
2751.021
2917.445
2976.406
2557.604
1788.197
1092.882
813.925
1026.333
1576.507
2212.529
2711.782
2964.499
2989.633
2883.622
2740.802
2600.369
2448.849
2262.421
2048.382
1854.317
1742.786
1753.738
1881.029
2075.768
2270.66
2408.927
2462.914
2436.545
2355.175
2250.909
2150.643
2070.271
2014.666
1981.068
1963.37
1955.651
1954.233
1958.187
1968.546
1986.741
2012.915
2044.831
2077.855
2106.085
2124.169
2129.031
2120.747
2102.256
2078.133
2053.021
2030.379
2011.914
1997.895
1987.294
1979.874
1972.868
4033.297
3831.86
3207.038
2734.542
2805.927
3037.096
2846.444
2147.585
1334.959
847.3989
869.0243
1315.324
1954.931
2539.242
2902.341
3010.269
2939.276
2799.468
2659.387
2521.895
2356.317
2149.805
1934.76
1775.481
1729.338
1812.31
1990.289
2197.518
2367.491
2458.255
2461.715
2397.278
2297.222
2192.353
2103.312
2038.605
1997.371
1973.956
1962.038
1957.217
1957.901
1964.804
1979.528
2002.852
2033.405
2067.255
2098.666
2121.739
2132.274
2129.058
2114.051
2091.451
2066.145
2042.229
2022.134
2006.531
1994.961
1986.107
1979.82
1973.844
4020.03
3554.688
2837.758
2664.948
2981.521
3060.116
2521.247
1652.066
970.0727
780.4835
1081.954
1680.505
2321.733
2794.342
3003.981
2988.372
2859.616
2715.393
2584.891
2440.597
2251.859
2030.141
1832.887
1729.52
1758.748
1906.433
2114.467
2310.437
2438.533
2476.525
2434.881
2343.721
2236.811
2139.822
2065.732
2016.315
1986.737
1970.352
1961.997
1959.356
1962.723
1973.739
1993.706
2022.093
2055.791
2089.47
2116.965
2133.14
2135.484
2124.764
2104.504
2079.595
2054.665
2032.904
2015.647
2002.693
1993.131
1985.598
1980.188
1975.046
3931.735
3129.704
2565.726
2809.858
3160.406
2876.204
2030.1
1182.612
771.9499
895.1058
1407.56
2067.545
2636.295
2960.61
3023.63
2920.781
2772.128
2640.342
2513.087
2348.424
2134.092
1912.122
1756.278
1725.824
1830.29
2025.671
2238.965
2402.449
2478.446
2465.536
2388.842
2283.456
2179.872
2096.273
2038.013
2001.701
1980.556
1968.583
1962.616
1962.426
1969.582
1985.793
2011.304
2043.892
2078.839
2109.989
2131.512
2139.69
2133.982
2116.963
2093.216
2067.715
2044.374
2025.295
2010.813
2000.112
1992.106
1985.561
1980.883
1976.474
3676.822
2628.71
2547.225
3109.268
3172.519
2449.116
1481.373
850.4003
770.5285
1155.935
1790.634
2429.144
2870.995
3035.195
2979.464
2832.411
2692.24
2573.942
2434.687
2239.648
2008.263
1809.418
1717.869
1768.228
1936.523
2155.631
2349.593
2465.214
2486.549
2430.522
2331.28
2223.339
2130.517
2062.736
2018.925
1992.587
1976.902
1967.677
1963.989
1967.219
1979.381
2001.42
2032.009
2067.191
2101.079
2127.417
2141.443
2141.292
2128.388
2106.706
2081.284
2056.637
2035.671
2019.405
2007.389
1998.482
1991.643
1985.869
1981.876
1978.138
3132.702
2268.135
2869.954
3363.484
2883.602
1858.551
1018.592
720.0448
944.74
1509.204
2180.026
2729.107
3011.784
3028.731
2896.928
2745.143
2625.601
2507.819
2340.109
2114.86
1886.444
1737.455
1726.212
1853.327
2064.462
2280.755
2435.087
2495.15
2466.291
2378.791
2269.753
2168.654
2090.858
2038.641
2006.462
1986.855
1974.456
1967.417
1966.756
1974.685
1992.776
2020.577
2054.983
2090.598
2121.016
2140.647
2146.366
2138.327
2119.643
2095.123
2069.665
2046.923
2028.691
2015.059
2005.076
1997.529
1991.578
1986.468
1983.176
1980.039
2237.349
2404.854
3400.217
3304.75
2302.444
1275.269
750.9236
790.4955
1243.669
1902.118
2533.955
2942.498
3058.465
2963.235
2802.992
2672.335
2567.418
2429.897
2224.61
1982.705
1785.008
1709.149
1782.741
1970.823
2198.189
2387.209
2488.701
2493.334
2424.03
2318.26
2210.656
2122.73
2061.192
2022.324
1998.401
1982.845
1972.647
1968.231
1971.856
1985.644
2009.986
2042.675
2078.969
2112.579
2137.343
2149.003
2146.395
2131.574
2108.853
2083.266
2059.073
2038.851
2023.352
2011.987
2003.582
1997.054
1991.827
1987.355
1984.8
1982.153
1371.914
3264.807
3695.135
2795.742
1615.224
866.1434
705.4288
1014.414
1613.646
2290.751
2818.975
3056.404
3025.19
2867.89
2719.405
2615.602
2505.361
2330.204
2091.772
1858.602
1720.325
1731.187
1881.072
2105.677
2321.971
2465.046
2508.621
2464.536
2367.571
2256.249
2158.608
2086.939
2040.406
2011.587
1992.773
1979.594
1971.625
1970.981
1980.231
2000.564
2030.692
2066.641
2102.459
2131.682
2149.116
2152.306
2142.095
2122.06
2097.129
2071.992
2049.946
2032.457
2019.435
2009.894
2002.676
1996.939
1992.367
1988.546
1986.751
1984.427
2732.625
3944.068
3278.005
2024.526
1067.178
696.7649
838.9137
1336.321
2011.491
2637.401
3009.832
3073.018
2939.02
2771.982
2656.641
2565.296
2425.262
2206.073
1953.961
1760.904
1704.235
1802.119
2008.402
2241.218
2422.904
2509.192
2497.375
2415.853
2304.839
2198.66
2116.251
2060.966
2026.502
2004.216
1988.201
1976.91
1972.107
1976.685
1992.576
2019.407
2054.047
2091.054
2123.912
2146.728
2155.865
2150.871
2134.363
2110.909
2085.446
2061.897
2042.453
2027.599
2016.663
2008.527
2002.206
1997.135
1993.207
1990.05
1989.003
1986.785
4164.914
3662.266
2484.594
1359.328
767.1195
728.0815
1092.478
1715.068
2400.351
2907.51
3093.984
3011.811
2833.908
2696.269
2611.076
2505.142
2317.785
2064.788
1829.579
1705.92
1740.89
1912.739
2148.347
2362.162
2492.507
2519.328
2460.67
2355.353
2242.887
2149.545
2084.325
2043.232
2017.128
1998.412
1984.077
1975.284
1975.125
1986.232
2009.134
2041.582
2078.771
2114.345
2141.96
2156.964
2157.622
2145.413
2124.279
2099.178
2074.55
2053.301
2036.553
2024.037
2014.771
2007.7
2002.092
1997.634
1994.357
1991.856
1991.5
1989.137
3896.333
3041.159
1773.78
917.6083
683.4792
901.1653
1426.14
2118.528
2741.801
3073.473
3077.582
2906.45
2740.737
2646.506
2567.476
2419.746
2183.467
1922.562
1738.117
1703.58
1825.881
2048.343
2284.142
2456.762
2527.148
2499.056
2406.113
2290.958
2187.233
2110.951
2061.946
2031.418
2010.093
1993.092
1980.582
1975.69
1981.727
2000.144
2029.598
2065.999
2103.326
2135.009
2155.59
2162.131
2154.879
2136.914
2112.941
2087.744
2064.915
2046.282
2032.068
2021.511
2013.547
2007.302
2002.306
1998.444
1995.811
1993.923
1994.159
1991.39
3698.524
2324.692
1139.507
695.5297
774.9091
1172.426
1811.596
2511.323
2996.575
3123.574
2987.319
2795.66
2677.407
2612.534
2506.219
2301.874
2033.97
1800.212
1694.875
1755.165
1947.623
2191.869
2401.26
2517.831
2527.641
2454.796
2342.04
2229.576
2141.445
2082.998
2047.049
2023.016
2003.795
1988.028
1978.546
1979.29
1992.702
2018.413
2053.105
2091.208
2126.127
2151.81
2164.254
2162.46
2148.47
2126.465
2101.328
2077.232
2056.757
2040.745
2028.764
2019.797
2012.852
2007.282
2002.845
1999.562
1997.538
1996.185
1996.89
1993.459
3133.649
1458.591
751.5954
717.1159
980.3856
1507.119
2223.591
2850.713
3133.428
3069.875
2864.918
2710.84
2643.285
2573.555
2412.155
2156.386
1889.12
1717.371
1707.268
1853.537
2090.145
2326.837
2489.004
2542.833
2498.439
2394.683
2276.513
2176.427
2106.96
2064.166
2036.955
2015.889
1997.501
1983.807
1979.178
1987.114
2008.35
2040.439
2078.346
2115.6
2145.759
2163.926
2167.904
2158.591
2139.419
2115.104
2090.201
2068.004
2050.086
2036.506
2026.415
2018.732
2012.61
2007.62
2003.701
2000.958
1999.48
1998.564
1999.597
1995.273
2073.166
830.1399
718.6011
871.3023
1238.201
1896.826
2629.162
3088.631
3142.31
2949.471
2754.246
2665.06
2620.609
2507.527
2281.521
1999.534
1771.262
1687.499
1773.684
1985.293
2236.156
2439.446
2541.155
2533.49
2446.714
2327.509
2216.407
2134.556
2083.148
2051.819
2029.028
2008.717
1991.439
1981.602
1983.718
1999.778
2028.367
2065.099
2103.742
2137.63
2161.153
2171.023
2166.948
2151.436
2128.787
2103.708
2080.068
2060.192
2044.786
2033.357
2024.847
2018.216
2012.783
2008.3
2004.844
2002.58
2001.564
2000.984
2002.197
1996.771
703.2219
800.0546
870.7243
1039.206
1559.929
2334.694
2971.223
3187.346
3045.784
2814.501
2685.153
2648.794
2582.949
2401.042
2124.374
1854.256
1699.245
1715.208
1884.693
2133.697
2369.519
2519.759
2556.045
2495.16
2381.367
2261.628
2166.592
2104.601
2067.714
2042.926
2021.295
2001.236
1986.638
1982.815
1993.097
2017.298
2051.853
2090.895
2127.67
2156.02
2171.7
2173.253
2162.138
2142.023
2117.53
2092.92
2071.191
2053.766
2040.687
2031.122
2023.945
2018.196
2013.341
2009.283
2006.217
2004.36
2003.721
2003.377
2004.615
1997.901
923.5172
905.6608
909.4469
1247.962
1983.995
2767.758
3183.022
3144.198
2896.448
2712.532
2662.132
2635.429
2507.376
2255.526
1961.707
1743.526
1684.085
1796.203
2025.574
2281.379
2476.914
2562.279
2536.356
2436.053
2311.848
2203.827
2129.34
2084.974
2057.419
2034.849
2012.882
1994.209
1984.589
1988.673
2007.671
2039.042
2077.444
2116.178
2148.682
2169.899
2177.278
2171.168
2154.423
2131.35
2106.407
2083.136
2063.646
2048.611
2037.626
2029.679
2023.638
2018.628
2014.237
2010.506
2007.749
2006.228
2005.892
2005.692
2006.787
1998.612
905.4375
864.9548
1015.181
1612.763
2473.396
3104.192
3227.797
3000.958
2757.066
2667.534
2664.263
2594.099
2384.633
2087.139
1818.788
1684.423
1727.442
1919.186
2179.072
2412.363
2548.892
2566.238
2488.679
2366.108
2246.774
2158.329
2104.2
2072.515
2049.016
2025.992
2004.131
1989.11
1986.785
1999.894
2027.115
2063.819
2103.511
2139.375
2165.678
2178.877
2178.212
2165.593
2144.8
2120.27
2095.946
2074.546
2057.386
2044.594
2035.483
2028.953
2023.879
2019.457
2015.395
2011.884
2009.363
2008.132
2008.039
2007.889
2008.645
1998.853
907.7841
897.5256
1265.517
2096.282
2926.404
3272.149
3122.89
2828.057
2674.788
2671.57
2656.174
2503.545
2222.97
1921.122
1717.919
1684.964
1822.649
2068.485
2327.656
2513.524
2580.671
2535.629
2422.615
2295.46
2192.522
2126.264
2088.47
2063.513
2040.123
2016.122
1996.368
1987.641
1994.308
2016.493
2050.463
2090.076
2128.403
2159.185
2178.002
2183.028
2175.161
2157.477
2134.179
2109.425
2086.452
2067.187
2052.322
2041.61
2034.187
2028.891
2024.605
2020.593
2016.711
2013.327
2011.005
2010.047
2010.142
2009.93
2010.112
1998.567
897.3657
1001.86
1669.596
2633.531
3245.874
3248.5
2932.241
2696.026
2662.807
2690.496
2604.551
2361.04
2044.856
1783.75
1673.486
1744.001
1957.026
2226.391
2455.237
2575.831
2572.732
2478.716
2349.252
2232.664
2152.215
2105.844
2078.227
2054.8
2029.777
2006.253
1991.408
1991.231
2007.55
2037.781
2076.284
2116.129
2150.658
2174.71
2185.471
2182.812
2168.983
2147.754
2123.301
2099.24
2078.06
2061.026
2048.373
2039.595
2033.692
2029.435
2025.716
2021.912
2018.071
2014.762
2012.65
2011.972
2012.19
2011.768
2011.094
1997.701
896.3135
1255.603
2223.481
3112.843
3353.011
3071.027
2744.957
2647.107
2696.512
2680.829
2492.928
2183.107
1878.868
1695.402
1690.329
1853.003
2114.168
2374.963
2548.719
2595.521
2530.899
2406.717
2279.115
2183.156
2125.482
2093.3
2069.608
2044.568
2018.5
1998.182
1990.986
2000.672
2026.148
2062.506
2102.915
2140.395
2169.156
2185.506
2188.322
2178.958
2160.596
2137.235
2112.701
2089.949
2070.801
2056.014
2045.493
2038.519
2033.948
2030.485
2027.073
2023.271
2019.377
2016.158
2014.314
2013.928
2014.166
2013.331
2011.476
1996.211
950.736
1716.816
2838.079
3400.774
3236.864
2835.032
2637.744
2676.839
2726.859
2610.353
2328.179
1998.407
1750.679
1666.994
1764.831
1998.271
2275.729
2497.721
2599.693
2574.891
2465.468
2331.641
2220.106
2148.484
2109.179
2084.283
2059.907
2032.662
2007.903
1993.866
1996.296
2015.976
2049.09
2089.081
2128.695
2161.56
2183.199
2191.568
2187.115
2172.323
2150.85
2126.552
2102.714
2081.657
2064.67
2052.131
2043.673
2038.353
2034.867
2031.888
2028.5
2024.533
2020.569
2017.53
2016.042
2015.933
2016.025
2014.516
2011.136
1994.087
1154.381
2388.128
3347.569
3410.175
2975.599
2652.053
2638.487
2738.716
2705.365
2472.075
2136.086
1836.928
1677.131
1700.172
1887.132
2162.674
2423.026
2581.67
2605.998
2522.11
2389.164
2263.791
2176.131
2126.666
2098.803
2075.226
2048.133
2020.308
2000.037
1994.869
2007.76
2036.435
2074.927
2115.818
2152.151
2178.688
2192.531
2193.261
2182.613
2163.769
2140.456
2116.138
2093.527
2074.409
2059.676
2049.394
2042.911
2039.029
2036.298
2033.445
2029.817
2025.599
2021.651
2018.941
2017.896
2017.986
2017.689
2015.192
2009.955
1991.36
1655.422
3137.336
3559.744
3166.309
2709.279
2594.556
2715.061
2770.08
2606.8
2284.943
1949.66
1721.313
1665.185
1789.607
2042.873
2326.926
2539.087
2619.559
2572.413
2449.573
2314.338
2209.723
2146.937
2113.502
2090.081
2064.2
2034.918
2009.48
1996.766
2002.048
2025.043
2060.812
2102.004
2141.122
2172.124
2191.264
2197.296
2191.214
2175.649
2154.058
2129.939
2106.265
2085.239
2068.248
2055.863
2047.835
2043.177
2040.415
2038.024
2034.931
2030.873
2026.439
2022.688
2020.489
2019.921
2020.04
2019.031
2015.209
2007.844
1988.125
2597.566
3645.788
3386.802
2824.223
2565.38
2659.362
2796.681
2723.939
2438.085
2083.067
1797.418
1663.82
1714.178
1924.887
2213.982
2471.266
2611.401
2611.607
2509.733
2371.006
2250.272
2171.435
2129.17
2104.3
2080.128
2051.046
2021.95
2002.222
1999.365
2015.491
2047.196
2087.552
2128.653
2163.634
2187.843
2199.194
2197.962
2186.203
2167.017
2143.797
2119.651
2097.09
2077.928
2063.247
2053.304
2047.47
2044.37
2042.294
2039.785
2036.136
2031.587
2027.103
2023.801
2022.271
2022.126
2021.997
2019.891
2014.417
2004.773
1984.549
3806.982
3554.481
2988.082
2579.143
2583.146
2778.178
2813.891
2588.779
2231.142
1901.048
1697.155
1668.057
1818.127
2090.897
2379.629
2578.354
2634.705
2565.594
2432.065
2298.218
2201.631
2147.021
2118.141
2095.322
2067.852
2036.936
2011.275
2000.166
2008.389
2034.628