/*--------------------------------*- C++ -*----------------------------------*\
| =========                 |                                                 |
| \\      /  F ield         | OpenFOAM: The Open Source CFD Toolbox           |
|  \\    /   O peration     | Version:  2312                                  |
|   \\  /    A nd           | Website:  www.openfoam.com                      |
|    \\/     M anipulation  |                                                 |
\*---------------------------------------------------------------------------*/
FoamFile
{
    version     2.0;
    format      ascii;
    arch        "LSB;label=32;scalar=64";
    class       volScalarField;
    location    "5100";
    object      k;
}
// * * * * * * * * * * * * * * * * * * * * * * * * * * * * * * * * * * * * * //

dimensions      [0 2 -2 0 0 0 0];

internalField   nonuniform List<scalar> 
12000
(
0.001757905
0.003913225
0.004686074
0.005520036
0.006203301
0.006849517
0.007436145
0.007973396
0.008439539
0.008863917
0.009269221
0.009663106
0.01000293
0.01029386
0.01056249
0.0108367
0.01108916
0.01127962
0.0114398
0.01160649
0.0117761
0.01190011
0.0119805
0.01206465
0.01214926
0.01221451
0.01224008
0.01225505
0.01226421
0.01226416
0.01224203
0.01221566
0.01216755
0.0120905
0.0119423
0.0118254
0.01175673
0.01167502
0.01144321
0.0110872
0.01076258
0.01063726
0.0105961
0.01022067
0.009554856
0.009093383
0.008982179
0.008979336
0.008440105
0.007503378
0.00722152
0.007038562
0.006567437
0.005752847
0.005272405
0.004735034
0.004134332
0.00356647
0.003039171
0.002871272
0.00189865
0.00476594
0.005585089
0.006473228
0.007334009
0.008156813
0.009171137
0.01042365
0.01180624
0.0128083
0.01343838
0.01454439
0.01592344
0.01711196
0.01754787
0.01802085
0.01922176
0.02043093
0.02096273
0.02107063
0.02180724
0.02282872
0.02347058
0.02360483
0.02399889
0.02469724
0.02526048
0.02559115
0.02591464
0.02631016
0.02664888
0.02696555
0.02729999
0.02756563
0.02775189
0.02792072
0.0280805
0.02819886
0.02829905
0.02831066
0.02828542
0.02816872
0.02776154
0.02745382
0.02718169
0.02687773
0.02609184
0.02492435
0.02404586
0.02328829
0.02238201
0.02052278
0.01881279
0.01741488
0.01594664
0.01319683
0.01036596
0.007785249
0.005424095
0.005326183
0.002835457
0.005948695
0.007400897
0.008918324
0.01072993
0.01251038
0.01430825
0.01609046
0.0177746
0.01923012
0.02033233
0.02135072
0.02244291
0.02344908
0.02423482
0.02491039
0.02563454
0.02637505
0.02699265
0.02747599
0.02794753
0.02847853
0.02900096
0.02944206
0.0298379
0.0302594
0.03070888
0.0311449
0.03155088
0.03194619
0.03233972
0.0327115
0.03310951
0.03352624
0.03390483
0.03424097
0.03454153
0.03484195
0.03516005
0.0354567
0.03566674
0.035768
0.03581397
0.03588156
0.03589895
0.03577557
0.03544634
0.03494345
0.03436416
0.03358758
0.03256081
0.03138624
0.02985895
0.02792167
0.02538592
0.02230723
0.01858579
0.01353486
0.007849472
0.007134409
0.003567603
0.006409556
0.008414133
0.01054752
0.01293881
0.01525488
0.01746524
0.01944488
0.02123457
0.02271971
0.02402835
0.02517855
0.02611322
0.02688706
0.02754317
0.02811992
0.02864878
0.02914909
0.02959193
0.02999389
0.03038815
0.03079485
0.03120267
0.0315985
0.03199137
0.03239654
0.03281544
0.03324048
0.03366822
0.0340985
0.03450181
0.03491442
0.03535985
0.0357979
0.03621921
0.03662033
0.03700232
0.03736613
0.03770796
0.03801887
0.0382841
0.0384878
0.03861993
0.03866042
0.03863574
0.03853163
0.03829094
0.03788761
0.03732893
0.03658852
0.03567442
0.0343594
0.03256151
0.03045605
0.02793303
0.02495815
0.02122016
0.01653112
0.01061092
0.008675783
0.004298162
0.006904579
0.009427854
0.01207894
0.01484607
0.01741245
0.01969451
0.0216353
0.02327237
0.02465063
0.02580164
0.02681537
0.02769525
0.0283797
0.02886475
0.02929561
0.02967348
0.03002535
0.03036918
0.03070072
0.03103577
0.03138263
0.03174381
0.03211881
0.03250917
0.03291731
0.03334364
0.03378675
0.03424445
0.03469211
0.03514537
0.03562787
0.03611945
0.03661385
0.0371037
0.0375832
0.03805734
0.03851916
0.03896015
0.03937246
0.03974703
0.04007361
0.04034496
0.04054009
0.04064287
0.04065108
0.0405308
0.04028832
0.03992823
0.03936532
0.03840508
0.03704952
0.03544699
0.03352639
0.03115074
0.02812914
0.02420619
0.01903796
0.01227547
0.009764259
0.004961771
0.007293297
0.01015762
0.013085
0.0159967
0.01862803
0.02090173
0.02280154
0.02436065
0.02562486
0.02662804
0.02742624
0.02806024
0.02861997
0.02908351
0.02942784
0.02974273
0.03004409
0.03035265
0.03065887
0.03096861
0.0312936
0.03163989
0.03201044
0.03240699
0.03283025
0.03327973
0.03375381
0.03424957
0.03476422
0.03529813
0.03584834
0.03641384
0.036992
0.03757731
0.03815208
0.03871845
0.0392806
0.03982593
0.04034415
0.04082609
0.04126133
0.04163836
0.04194588
0.04216905
0.0422475
0.04223815
0.04212412
0.04178414
0.04110386
0.04009727
0.03879873
0.03718928
0.03518237
0.03267139
0.02953653
0.02559682
0.02052564
0.01382558
0.01066188
0.005601155
0.007624928
0.01070078
0.01374581
0.01667295
0.01926356
0.02145175
0.02324268
0.02468008
0.02582646
0.02673494
0.02745917
0.0280485
0.02852096
0.02893418
0.02928702
0.0295699
0.02983167
0.03008799
0.03035916
0.03065735
0.03098613
0.0313486
0.03174671
0.03218141
0.03265281
0.03315953
0.03369891
0.03426817
0.03486669
0.03549271
0.03613674
0.03679823
0.03747761
0.03816743
0.03886105
0.03954772
0.04022363
0.04088263
0.04151528
0.04211077
0.04265644
0.04313771
0.04353947
0.04383811
0.04403682
0.04409989
0.04394544
0.04351831
0.04283394
0.04188046
0.04062208
0.0390073
0.03697151
0.03442992
0.03125506
0.02723408
0.02198386
0.01492197
0.01132611
0.006149379
0.007922361
0.01108641
0.01412213
0.01696239
0.01943822
0.02152053
0.02324268
0.02465862
0.02577219
0.02664241
0.02731934
0.02784245
0.02825679
0.02859906
0.02892378
0.02923364
0.02951486
0.0297986
0.03010088
0.03043357
0.03080362
0.03121365
0.03166471
0.03215638
0.03268686
0.03326324
0.03388262
0.03454176
0.03523506
0.03595796
0.03670822
0.03748163
0.03827024
0.03906916
0.0398724
0.04067257
0.0414616
0.04223063
0.04296909
0.04366468
0.04430296
0.04486875
0.04533967
0.04571035
0.04594149
0.04596472
0.04576582
0.04532584
0.044623
0.04362283
0.04228761
0.04057208
0.03841804
0.0357459
0.03243757
0.028298
0.02296881
0.01587771
0.01186366
0.006853758
0.008166862
0.01132486
0.0142849
0.01701267
0.01942287
0.0214536
0.0231167
0.0244409
0.02550406
0.02634644
0.0270116
0.02754082
0.02797223
0.02833844
0.02866676
0.02899996
0.02934468
0.02969039
0.0300522
0.03043853
0.03085659
0.03132432
0.03184308
0.03241372
0.03303674
0.03370324
0.03441187
0.03516019
0.03594467
0.0367612
0.03761204
0.03849091
0.03938347
0.04028513
0.04118977
0.04208978
0.04297623
0.04383879
0.04466543
0.04544216
0.04615314
0.04677796
0.04730151
0.04768747
0.04788576
0.0478936
0.04767473
0.04719933
0.04643741
0.04535674
0.04392223
0.04209291
0.03981663
0.03702006
0.03358899
0.02932653
0.02385976
0.01657546
0.01224637
0.006934755
0.008369951
0.01149304
0.01434901
0.01698035
0.01927106
0.02121243
0.02281604
0.02411938
0.02517356
0.02602454
0.02671543
0.02728552
0.0277696
0.02819772
0.02859446
0.02897466
0.02936164
0.02977234
0.03020827
0.03068154
0.03120065
0.03176054
0.03236632
0.03302014
0.03372194
0.03446962
0.03526077
0.03609229
0.03696054
0.03786127
0.03879868
0.03976609
0.04074665
0.04173497
0.04272432
0.04370649
0.04467166
0.04560826
0.04650272
0.04733902
0.04809857
0.04875798
0.04929286
0.04967638
0.04986053
0.04983958
0.04956819
0.04901612
0.04815424
0.04695412
0.04538581
0.0434138
0.04099162
0.03805114
0.03448291
0.03009576
0.02452624
0.01717335
0.01255251
0.007012904
0.008480999
0.01157417
0.01432898
0.01682126
0.01901606
0.0208947
0.02247097
0.02377849
0.02485893
0.02575365
0.02650161
0.02713826
0.02769511
0.02819905
0.02866408
0.02912247
0.02959682
0.03009988
0.03063644
0.03120456
0.03181028
0.03245681
0.03314692
0.03388201
0.03466212
0.03548604
0.03635172
0.03725635
0.03819645
0.03916786
0.04017461
0.04121038
0.04225875
0.0433134
0.04436675
0.04540979
0.0464318
0.04742007
0.04835955
0.04923271
0.05001919
0.05069922
0.05124305
0.0516165
0.05177547
0.05170182
0.05135555
0.05070621
0.04972734
0.04839537
0.04668666
0.04457288
0.0420124
0.03894012
0.03524823
0.03074488
0.02506174
0.01758617
0.01274562
0.008127744
0.008617356
0.01163982
0.01429359
0.01667705
0.01878403
0.02060599
0.02215634
0.02346432
0.02456617
0.02550255
0.02631139
0.02702645
0.02767455
0.02827306
0.02885402
0.02942673
0.03000425
0.03059986
0.03122359
0.03188341
0.03257773
0.03330949
0.03408095
0.03489342
0.03574721
0.03664114
0.03757336
0.03854128
0.03954163
0.04057054
0.04163036
0.04271547
0.04381189
0.0449126
0.04600942
0.04709276
0.04815131
0.04917174
0.05013832
0.05103252
0.05183256
0.05251348
0.05304346
0.05338789
0.0535106
0.05337896
0.05294977
0.05219448
0.05109255
0.04962795
0.04778427
0.04553755
0.04285022
0.03965929
0.0358578
0.031255
0.02548528
0.01794147
0.01290061
0.008143225
0.008692206
0.01163977
0.01419075
0.01646255
0.0184808
0.0202494
0.02178407
0.02311158
0.0242639
0.02527135
0.02616355
0.02696879
0.02771192
0.02841782
0.02910019
0.02977496
0.03045972
0.03116418
0.0318909
0.03264298
0.03342662
0.03424724
0.03510346
0.0359943
0.03691859
0.03787528
0.03886283
0.03988027
0.04092561
0.04199591
0.04309168
0.04420804
0.04533397
0.04646181
0.04758289
0.04868718
0.04976301
0.05079679
0.0517725
0.05267098
0.05346938
0.05413876
0.05464902
0.05496408
0.05504107
0.05483972
0.05432323
0.05346331
0.05224201
0.05065259
0.04868647
0.04632373
0.04352724
0.04023439
0.03633772
0.03164481
0.02578776
0.01815794
0.0129769
0.008221906
0.008727253
0.0116344
0.01409274
0.01627204
0.01822458
0.01996124
0.02149541
0.02284736
0.02404306
0.02510859
0.02607153
0.0269542
0.02777751
0.02856677
0.02934771
0.03013485
0.03093255
0.03174226
0.03256692
0.03341216
0.03428743
0.03519742
0.03614062
0.03711272
0.0381066
0.03911646
0.04014643
0.04120282
0.04228239
0.04338142
0.04449839
0.04563046
0.04677039
0.04791002
0.04904001
0.05014978
0.05122728
0.05225854
0.05322728
0.05411417
0.05489637
0.05554621
0.0560301
0.05630854
0.05633671
0.0560661
0.05545211
0.05447488
0.05314554
0.05145967
0.04939903
0.04694552
0.04406298
0.04068871
0.03671538
0.03195161
0.02603119
0.01834746
0.01304054
0.008406394
0.00875591
0.01161443
0.01400044
0.0161165
0.01801923
0.01972988
0.02126338
0.02263768
0.02387428
0.02499434
0.02601625
0.02695991
0.027854
0.02873004
0.02960239
0.03047868
0.03136494
0.03226775
0.03319076
0.03413512
0.03510003
0.03608441
0.03708899
0.0381138
0.03915919
0.04022449
0.04130817
0.04240695
0.04351599
0.04463224
0.04575892
0.04689879
0.04804541
0.04918979
0.05032188
0.05143007
0.05250141
0.05352116
0.05447283
0.05533981
0.05610258
0.05673307
0.0571971
0.05745156
0.05744389
0.0571154
0.05642172
0.05534401
0.05389425
0.05210197
0.04995666
0.04742477
0.04446916
0.04102639
0.03698802
0.03216216
0.02618192
0.01843962
0.01304989
0.008581317
0.008766628
0.01158672
0.01392499
0.01597938
0.01783598
0.01952335
0.02105724
0.02245249
0.02372396
0.02488728
0.0259586
0.02695833
0.02791805
0.02886631
0.02981674
0.03077675
0.03175032
0.03273947
0.03374303
0.03475968
0.03579061
0.03683739
0.03789981
0.03897677
0.04006686
0.04116939
0.04228434
0.04341058
0.04454505
0.04568311
0.04681885
0.04795587
0.04910212
0.05024979
0.05138334
0.05249004
0.05355737
0.05457168
0.0555176
0.05637723
0.05712824
0.05774248
0.05818444
0.05840954
0.05836394
0.05798789
0.05722685
0.05605552
0.05449834
0.05260916
0.0503867
0.04778947
0.04477419
0.04127601
0.03718817
0.03231906
0.0263022
0.01852655
0.01305642
0.008727206
0.008781872
0.01156795
0.01385794
0.01586289
0.01768134
0.0193469
0.0208761
0.02228144
0.02357517
0.02477085
0.02588405
0.02693299
0.02794677
0.02896039
0.02998521
0.03102315
0.03207293
0.0331318
0.03420014
0.03527929
0.03636916
0.03746911
0.03857803
0.03969537
0.04082114
0.04195555
0.04309842
0.04424843
0.04540244
0.04655505
0.04769773
0.04883553
0.04998175
0.05113088
0.05226636
0.05337369
0.05443926
0.05544928
0.05638854
0.05723902
0.05797817
0.05857711
0.05899895
0.05919718
0.05911606
0.05869374
0.05787767
0.05664207
0.05500616
0.05302777
0.05073181
0.04807942
0.04501443
0.0414715
0.0373424
0.03243488
0.0263809
0.01856428
0.01304488
0.008842449
0.008800701
0.01154789
0.01380438
0.01577037
0.01755567
0.01920012
0.02072157
0.02213147
0.02344055
0.02466091
0.02580689
0.02689674
0.02796064
0.02902965
0.03011229
0.03120942
0.03231905
0.03343901
0.03456636
0.03569894
0.03683586
0.03797794
0.03912545
0.04027774
0.04143456
0.04259603
0.04376218
0.04493201
0.04610248
0.04726735
0.04841562
0.0495523
0.05069516
0.05184254
0.05297795
0.05408519
0.05514968
0.05615727
0.0570925
0.05793704
0.05866789
0.05925561
0.05966246
0.05984088
0.05973427
0.05927778
0.05841539
0.05711843
0.05540914
0.05335532
0.05100062
0.048305
0.04520171
0.04162305
0.03745902
0.03251835
0.0264349
0.01858656
0.01301726
0.008933002
0.008829294
0.01154899
0.01376909
0.01569889
0.01745327
0.01907585
0.02058556
0.02199437
0.02331289
0.02455276
0.02572755
0.02685309
0.02795767
0.02907085
0.03020113
0.0313478
0.03250701
0.03367444
0.03484643
0.03602132
0.03719834
0.03837631
0.0395548
0.0407342
0.04191512
0.04309806
0.04428297
0.04546854
0.04665152
0.04782647
0.04898659
0.05012714
0.05126138
0.05240364
0.05354092
0.05465092
0.0557175
0.05672621
0.05766143
0.0585044
0.05923144
0.05981215
0.06020758
0.06036892
0.06023891
0.05975132
0.05885019
0.05750552
0.05573764
0.05361755
0.05120928
0.04847158
0.0453285
0.04171315
0.03751707
0.03254972
0.02644664
0.01858572
0.01298206
0.00900697
0.008873061
0.01156442
0.013751
0.01564747
0.01737141
0.01896993
0.02046454
0.02186803
0.0231914
0.02444623
0.02564535
0.02680262
0.02794102
0.02908749
0.03025269
0.03143537
0.0326312
0.03383524
0.03504363
0.03625313
0.03746154
0.03866758
0.03987143
0.04107395
0.04227589
0.04347784
0.04467983
0.04588064
0.04707708
0.04826373
0.04943364
0.05057992
0.05171509
0.05285719
0.05399657
0.05511122
0.05618364
0.05719804
0.05813783
0.05898339
0.05971016
0.06028669
0.06067293
0.06081895
0.06066701
0.06014946
0.05921022
0.05781933
0.05599868
0.0538244
0.05137128
0.04859786
0.04542425
0.04178329
0.03756564
0.03257928
0.026455
0.01858578
0.01294594
0.009066938
0.008930177
0.01159963
0.01375306
0.01561459
0.01730678
0.01887933
0.02035581
0.02175058
0.02307538
0.02434179
0.02556191
0.026748
0.02791497
0.02908491
0.03027382
0.03148177
0.03270378
0.03393442
0.03516901
0.03640406
0.03763712
0.03886684
0.04009303
0.04131632
0.04253758
0.04375756
0.04497637
0.04619298
0.04740447
0.04860558
0.04978873
0.05094491
0.05208568
0.05323169
0.05437658
0.05549903
0.05658045
0.05760371
0.05855104
0.05940181
0.06013041
0.0607043
0.06108232
0.06121361
0.0610402
0.06049379
0.0595191
0.05808681
0.05621968
0.05399671
0.05150221
0.04869604
0.04549443
0.04182886
0.03758971
0.03258546
0.02645176
0.01856488
0.01289951
0.009126589
0.009016979
0.01166078
0.01377396
0.01559808
0.01725686
0.01880141
0.02025744
0.02164079
0.02296397
0.02423853
0.02547574
0.02668624
0.02787935
0.02906897
0.03027234
0.03149497
0.03273362
0.03398216
0.03523563
0.03649006
0.03774271
0.0389921
0.04023785
0.04148036
0.04272037
0.0439585
0.0451949
0.04642864
0.04765704
0.04887499
0.05007452
0.05124525
0.05239685
0.05355072
0.05470375
0.05583616
0.05692859
0.05796254
0.05891894
0.05977598
0.06050692
0.06107812
0.0614474
0.06156309
0.06136714
0.06079095
0.05978045
0.05830795
0.05639863
0.05413454
0.05160321
0.04876801
0.04554398
0.04185951
0.03760452
0.03258544
0.02643984
0.01854593
0.01286007
0.009178628
0.009120846
0.01174426
0.01381624
0.01559981
0.01722173
0.01873566
0.02016868
0.02153778
0.02285597
0.02413463
0.02538419
0.02661403
0.02783191
0.02904349
0.03025818
0.03148805
0.03273425
0.03399317
0.03525915
0.03652765
0.03779572
0.03906167
0.04032492
0.04158555
0.04284396
0.04410051
0.04535516
0.04660699
0.04785362
0.0490905
0.05031009
0.05150052
0.05266591
0.05382841
0.05499197
0.05613732
0.05724253
0.05828813
0.05925414
0.06011769
0.06085089
0.06141898
0.06177881
0.06187808
0.0616588
0.06105256
0.06000684
0.05849606
0.05654793
0.05424723
0.051684
0.04882369
0.04557976
0.04187792
0.03760693
0.03257748
0.02642025
0.01851693
0.01281368
0.009251887
0.009259267
0.01185868
0.01388078
0.01561755
0.0171994
0.01868025
0.02008792
0.02144001
0.02274976
0.02402823
0.02528505
0.02652842
0.02776499
0.02899946
0.03023459
0.03147267
0.03272129
0.03398462
0.03525735
0.0365348
0.03781451
0.03909427
0.04037317
0.04165078
0.04292701
0.04420193
0.04547531
0.04674602
0.04801141
0.04926685
0.05050578
0.051721
0.05290858
0.05408212
0.05525498
0.05641315
0.05753191
0.05858995
0.05956598
0.06043596
0.0611709
0.06173502
0.06208431
0.06216596
0.06192221
0.06128515
0.06020413
0.05865613
0.05667188
0.05433883
0.05174858
0.04886703
0.04560626
0.04189041
0.03760816
0.03256719
0.02640121
0.01849268
0.01277726
0.009262175
0.009423932
0.01199797
0.01396755
0.01565528
0.01719418
0.01863792
0.02001664
0.0213482
0.02264559
0.02391928
0.02517801
0.02642894
0.02767762
0.02892795
0.03018202
0.03144024
0.03270182
0.03396766
0.03524237
0.03652694
0.03781596
0.03910715
0.04039935
0.04169231
0.04298554
0.04427841
0.04557036
0.04686011
0.04814503
0.04942061
0.05068055
0.05191795
0.05312702
0.05431808
0.05550476
0.05667575
0.05780732
0.05887722
0.05986275
0.06073848
0.06147422
0.06203317
0.06237058
0.06243331
0.0621639
0.06149538
0.06037913
0.058795
0.0567769
0.05441484
0.05180136
0.04890158
0.04562602
0.04189767
0.03760464
0.03255364
0.02637865
0.01846322
0.01273704
0.00929417
0.00961066
0.01216341
0.01407615
0.01570961
0.01720025
0.01860608
0.01995401
0.02126232
0.02254392
0.02380874
0.0250647
0.02631805
0.02757348
0.0288341
0.03010152
0.03137602
0.03265676
0.03394224
0.03523055
0.03652001
0.03781384
0.03911459
0.04041994
0.04172718
0.04303538
0.04434453
0.04565399
0.0469622
0.04826641
0.04956236
0.05084416
0.05210441
0.0533354
0.0545452
0.05574718
0.05693171
0.05807595
0.05915705
0.06015106
0.06103126
0.06176629
0.06231842
0.06264227
0.06268453
0.06238816
0.06168747
0.06053602
0.05891676
0.05686693
0.05447899
0.05184585
0.04893069
0.04564239
0.0419033
0.0376009
0.03254206
0.02636006
0.01843999
0.01270651
0.009708069
0.009832388
0.0123605
0.01420969
0.01578366
0.01722365
0.0185866
0.01990073
0.02118324
0.02244632
0.02369924
0.02494917
0.02620159
0.02746039
0.02872804
0.03000565
0.0312931
0.03258938
0.03389281
0.03520125
0.03651246
0.03782437
0.03913557
0.04044875
0.04176763
0.04309025
0.04441515
0.04574122
0.04706686
0.04838936
0.04970459
0.05100683
0.05228881
0.05354211
0.05477193
0.0559898
0.05718753
0.05834355
0.05943455
0.06043545
0.06131832
0.06205072
0.06259407
0.06290252
0.06292272
0.06259817
0.06186476
0.06067838
0.05902515
0.05694571
0.05453478
0.05188512
0.04895709
0.04565787
0.04190944
0.03759841
0.03253179
0.02634227
0.01841592
0.01267514
0.01017786
0.01010757
0.01258395
0.01436872
0.01587922
0.01726572
0.01858431
0.01986118
0.02111493
0.02235706
0.02359595
0.02483796
0.02608773
0.02734847
0.02862198
0.02990881
0.03120842
0.03251942
0.03383984
0.03516732
0.03649939
0.03783356
0.03916787
0.04050032
0.04183124
0.04316433
0.04450206
0.04584257
0.0471836
0.04852234
0.04985486
0.05117588
0.05247842
0.05375342
0.05500238
0.05623496
0.05744532
0.05861248
0.05971198
0.06071788
0.06160132
0.06232896
0.06286154
0.06315284
0.06314965
0.06279576
0.06202948
0.06080875
0.05912297
0.05701611
0.05458496
0.05192163
0.04898302
0.04567459
0.04191844
0.03760081
0.03252667
0.02633034
0.01839841
0.0126535
0.01044834
0.01038317
0.01281341
0.01454581
0.01599068
0.01732091
0.01859166
0.01983237
0.02105753
0.02227835
0.02350269
0.02473625
0.02598297
0.02724534
0.02852454
0.02982053
0.0311323
0.03245809
0.0337956
0.03514225
0.03649536
0.03785149
0.03920889
0.04056511
0.04191794
0.04326583
0.04461232
0.04596286
0.04731605
0.04866842
0.05001563
0.05135237
0.05267241
0.05396953
0.05523922
0.0564847
0.05770538
0.05888236
0.05998895
0.0609981
0.06188016
0.06260107
0.06312106
0.06339376
0.06336639
0.06298185
0.06218313
0.06092916
0.0592126
0.05708069
0.05463194
0.05195748
0.04901008
0.04569352
0.04193026
0.03760589
0.0325246
0.02632133
0.01838297
0.01263214
0.01052618
0.01066633
0.01306538
0.01474532
0.0161208
0.01739419
0.01861836
0.01982077
0.02101624
0.02221545
0.02342548
0.02465113
0.02589552
0.02716038
0.02844614
0.02975213
0.03107679
0.03241786
0.03377268
0.03513796
0.03650959
0.03788683
0.03926577
0.04064391
0.0420188
0.04338853
0.04475142
0.04611054
0.04747137
0.04883321
0.05019178
0.05154167
0.05287682
0.05419104
0.05547829
0.05673854
0.05796982
0.0591542
0.06026539
0.06127559
0.06215424
0.06286656
0.06337237
0.06362531
0.0635731
0.06315876
0.0623282
0.06104221
0.0592967
0.05714197
0.05467816
0.05199494
0.04904039
0.0457168
0.04194748
0.03761765
0.03253133
0.02631989
0.01837441
0.01261805
0.01055893
0.01094763
0.01332424
0.01495444
0.01626893
0.01748345
0.01866032
0.01982476
0.02099238
0.02217183
0.02336934
0.02458891
0.02583279
0.02710184
0.02839571
0.02971301
0.03105159
0.03240798
0.03377803
0.03516027
0.03655222
0.03794917
0.03934815
0.04074623
0.04214119
0.04353073
0.04491295
0.04628618
0.04765345
0.04902017
0.05038546
0.05174455
0.05309153
0.05441976
0.05572186
0.05699529
0.05823612
0.05942654
0.06054054
0.06154986
0.06242323
0.06312529
0.0636155
0.06384754
0.06376976
0.0633263
0.06246487
0.06114873
0.05937679
0.05720216
0.05472591
0.05203577
0.04907507
0.04574476
0.04196939
0.03763379
0.03254166
0.02632506
0.01837153
0.0126054
0.01070911
0.0112501
0.01360031
0.01517974
0.01643403
0.0175904
0.01872195
0.01985187
0.02099422
0.02215654
0.02334345
0.02455906
0.02580466
0.02707989
0.028383
0.0297111
0.03106022
0.03243018
0.03381799
0.03521834
0.03662788
0.03804272
0.03945967
0.04087564
0.04228819
0.04369499
0.045094
0.04648338
0.04786147
0.04923165
0.05059942
0.05196317
0.05331755
0.05465587
0.0559702
0.05725537
0.05850449
0.05969936
0.06081437
0.0618209
0.06268706
0.06337707
0.06385052
0.06406162
0.06395913
0.06348784
0.06259713
0.06125269
0.05945629
0.05726386
0.05477743
0.05208166
0.04911517
0.04577856
0.0419977
0.03765679
0.03255875
0.02633478
0.01837368
0.01260052
0.01081491
0.01154721
0.01388315
0.01541676
0.01661301
0.01771293
0.01880171
0.0198993
0.02101787
0.02216561
0.02334674
0.02456152
0.02580887
0.02708919
0.02840086
0.02974136
0.03110814
0.03249523
0.03389908
0.03531572
0.03674112
0.0381717
0.03960399
0.04103526
0.0424627
0.04388394
0.04529687
0.04669961
0.04809038
0.04946753
0.05083531
0.05219962
0.05355732
0.05490205
0.05622556
0.05752035
0.05877641
0.05997467
0.06108953
0.0620921
0.06295037
0.06362843
0.06408542
0.06427487
0.06414634
0.06364706
0.06272839
0.06135801
0.05954016
0.05733268
0.05483713
0.05213389
0.04916061
0.04581852
0.04203259
0.03768642
0.03258243
0.02635113
0.01838094
0.01259883
0.01101308
0.01186419
0.0141834
0.01567111
0.0168109
0.01785595
0.0189037
0.01997195
0.02107145
0.02220788
0.02338355
0.02459906
0.02585425
0.0271457
0.02847025
0.02982439
0.03120429
0.03260557
0.03402395
0.03545506
0.03689445
0.03833836
0.03978345
0.04122695
0.0426662
0.04409882
0.04552264
0.04693569
0.04833612
0.04972214
0.05109368
0.05245583
0.05381277
0.05516007
0.05648959
0.05779161
0.05905288
0.06025319
0.06136694
0.06236488
0.06321422
0.06387831
0.06431645
0.06448357
0.06433005
0.06380399
0.06285793
0.06146218
0.05962385
0.05740237
0.05489902
0.05219014
0.04921182
0.0458649
0.04207381
0.03772215
0.03261196
0.02637289
0.01839311
0.01260111
0.01111095
0.0121662
0.01448753
0.01593465
0.01702143
0.01801627
0.01902955
0.02007467
0.0211598
0.02228937
0.02346463
0.02468472
0.02594738
0.02724911
0.02858583
0.02995308
0.03134622
0.03276048
0.03419104
0.0356333
0.0370833
0.03853754
0.03999295
0.04144644
0.04289534
0.04433722
0.04576986
0.04719123
0.04859941
0.04999256
0.05136886
0.05273062
0.05408417
0.05543023
0.05676192
0.05806808
0.05933251
0.06053336
0.06164407
0.06263458
0.06347198
0.06412027
0.06453953
0.06468503
0.06450777
0.06395632
0.06298437
0.06156417
0.05970588
0.05747241
0.05496445
0.05225159
0.04926829
0.04591696
0.04212147
0.0377647
0.03264796
0.02640071
0.01841054
0.01260385
0.01127767
0.0124768
0.01480434
0.01621575
0.01725553
0.01820446
0.01918502
0.02020952
0.02128444
0.02241145
0.02358966
0.02481651
0.02608836
0.02740087
0.02874922
0.03012843
0.03153304
0.03295779
0.03439775
0.03584871
0.0373071
0.03876956
0.04023294
0.04169422
0.04315066
0.04459977
0.04603926
0.04746701
0.04888098
0.0502792
0.05165973
0.05302171
0.05437087
0.05571309
0.05704334
0.05835037
0.05961549
0.0608144
0.06191949
0.06290065
0.06372527
0.0643576
0.0647579
0.06488162
0.0646807
0.06410483
0.06310923
0.06166808
0.05979361
0.05754975
0.05503639
0.05231862
0.04932972
0.04597307
0.04217274
0.03781129
0.03268955
0.02643412
0.0184317
0.0126099
0.01167123
0.01279941
0.01513362
0.01651328
0.01750758
0.01841632
0.0193712
0.02038134
0.02144993
0.02257679
0.02375937
0.02499364
0.02627472
0.02759726
0.0289557
0.03034447
0.03175808
0.03319124
0.0346393
0.03609825
0.03756445
0.03903427
0.04050435
0.04197175
0.04343378
0.04488797
0.04633202
0.04776381
0.04918124
0.0505823
0.0519649
0.05332688
0.05467239
0.05600861
0.05733408
0.05863861
0.05990159
0.06109642
0.06219445
0.06316522
0.06397614
0.06459176
0.06497284
0.06507548
0.06485226
0.06425352
0.06323555
0.06177436
0.05988462
0.05763213
0.05511571
0.05239466
0.04940118
0.04603954
0.04223322
0.03786405
0.03273237
0.02646758
0.01845616
0.01261855
0.01140881
0.01311044
0.01546479
0.01681533
0.01777039
0.0186478
0.01958039
0.0205793
0.02164466
0.02277409
0.02396314
0.02520627
0.02649742
0.02783037
0.02919892
0.03059708
0.03201938
0.03346075
0.03491663
0.03638272
0.03785511
0.03933027
0.04080499
0.04227639
0.04374192
0.04519919
0.04664595
0.04807992
0.04949889
0.0509007
0.05228326
0.05364448
0.05498611
0.0563146
0.05763318
0.05893296
0.06019178
0.06138087
0.06247036
0.0634295
0.06422595
0.06482471
0.06518702
0.06526939
0.06502493
0.06440465
0.06336591
0.06188628
0.05998232
0.05772123
0.05520104
0.05247567
0.04947654
0.04610968
0.04229862
0.0379251
0.03278864
0.02651404
0.01848303
0.01263029
0.01128728
0.01338846
0.01580048
0.01713244
0.0180572
0.01891049
0.01982631
0.02081962
0.02188661
0.02302214
0.02421987
0.02547287
0.02677411
0.02811673
0.02949417
0.03090035
0.03232973
0.03377728
0.03523832
0.03670861
0.03818431
0.03966206
0.04113883
0.04261191
0.04407869
0.04553672
0.04698363
0.04841727
0.04983549
0.05123612
0.05261692
0.05397563
0.05531222
0.05663271
0.05794359
0.05923703
0.06048965
0.06167097
0.0627502
0.0636964
0.06447746
0.06505884
0.06540225
0.06546469
0.06519967
0.0645588
0.06350038
0.06200339
0.0600862
0.05781714
0.05529315
0.05256366
0.04955908
0.04618622
0.04236817
0.03798626
0.03283994
0.02655586
0.01851788
0.01264789
0.01163483
0.01366572
0.01613678
0.01746252
0.01836665
0.0192035
0.02010821
0.02110026
0.02217185
0.02331529
0.0245225
0.02578534
0.02709602
0.0284472
0.02983212
0.03124461
0.03267913
0.03413069
0.03559479
0.03706735
0.03854471
0.04002358
0.04150104
0.0429743
0.04444077
0.04589799
0.04734365
0.04877555
0.05019146
0.05158921
0.05296648
0.05432084
0.05565153
0.05696414
0.05826657
0.05955199
0.06079627
0.06196763
0.06303461
0.06396623
0.06473072
0.06529399
0.06561822
0.06566088
0.06537573
0.06471494
0.0636376
0.06212399
0.06019404
0.05791716
0.05538931
0.05265554
0.04964547
0.04626703
0.04244321
0.03805507
0.03290122
0.02660587
0.01854922
0.01266137
0.0122447
0.01399875
0.01649115
0.01781291
0.01870204
0.01952761
0.02042525
0.02141916
0.02249748
0.02365003
0.0248671
0.02613956
0.02745902
0.02881782
0.03020909
0.03162668
0.0330651
0.03451947
0.03598541
0.03745899
0.03893668
0.0404153
0.04189186
0.04336364
0.04482811
0.0462829
0.04772579
0.04915447
0.05056661
0.05195984
0.05333174
0.05467987
0.05600336
0.05730758
0.05860073
0.05987653
0.06111035
0.06226956
0.06332238
0.06423795
0.0649849
0.06552961
0.06583433
0.06585757
0.06555293
0.06487305
0.0637777
0.06224829
0.06030614
0.0580216
0.05548965
0.05275121
0.04973505
0.0463501
0.04251914
0.03812299
0.03296
0.02665465
0.01858709
0.01268348
0.01255869
0.01431421
0.01684413
0.01817554
0.0190606
0.01988269
0.02077849
0.02177762
0.02286466
0.0240272
0.02525421
0.02653576
0.02786302
0.0292282
0.03062437
0.03204547
0.03348615
0.03494166
0.03640778
0.03788073
0.03935714
0.04083382
0.0423079
0.04377671
0.04523778
0.04668879
0.04812735
0.04955111
0.0509577
0.05234473
0.05370977
0.05505034
0.05636567
0.05766091
0.05894403
0.06020889
0.06143044
0.06257561
0.06361261
0.0645109
0.06523957
0.06576546
0.06605038
0.06605467
0.06573119
0.06503297
0.06392039
0.06237584
0.06042194
0.05812986
0.0555937
0.05285049
0.04982831
0.04643704
0.04259934
0.03819574
0.03302402
0.02670725
0.01862317
0.0126987
0.01268599
0.01461221
0.01720853
0.01855997
0.01944774
0.02027123
0.0211686
0.02217528
0.02327225
0.02444512
0.02568172
0.02697153
0.02830549
0.02967571
0.03107538
0.03249854
0.03394002
0.03539523
0.03686013
0.03833107
0.03980472
0.04127801
0.04274818
0.04421262
0.04566892
0.04711461
0.04854732
0.04996465
0.0513642
0.05274355
0.05410024
0.05543177
0.05673792
0.05802371
0.05929606
0.06054867
0.06175622
0.06288554
0.06390516
0.064785
0.06549466
0.06600139
0.06626709
0.06625262
0.06591076
0.06519479
0.06406556
0.06250634
0.06054092
0.05824122
0.0557005
0.05295212
0.04992341
0.04652523
0.0426801
0.03826835
0.03308746
0.02676004
0.01866252
0.01271875
0.01311043
0.01490611
0.01757554
0.01896013
0.01986111
0.02069309
0.02159575
0.02261187
0.02371955
0.02490273
0.02614833
0.02744546
0.02878493
0.03015891
0.0315607
0.03298454
0.03442543
0.03587896
0.03734125
0.03880881
0.04027838
0.04174706
0.04321207
0.04467089
0.04612098
0.04755992
0.04898528
0.05039465
0.05178563
0.05315576
0.05450258
0.05582364
0.05711952
0.05839523
0.05965602
0.06089511
0.06208703
0.06319887
0.0641997
0.0650601
0.06575018
0.06623754
0.06648432
0.06645136
0.06609156
0.06535833
0.06421294
0.06263945
0.0606627
0.0583553
0.05580976
0.053056
0.05002069
0.04661556
0.04276304
0.03834321
0.03315302
0.02681411
0.01870133
0.01273333
0.01286465
0.01520729
0.0179584
0.01938524
0.02030627
0.02115002
0.02205982
0.02308662
0.02420534
0.02539841
0.02665219
0.02795554
0.02929929
0.03067572
0.03207834
0.03350157
0.03494059
0.03639118
0.03784962
0.03931254