/*--------------------------------*- C++ -*----------------------------------*\
| =========                 |                                                 |
| \\      /  F ield         | OpenFOAM: The Open Source CFD Toolbox           |
|  \\    /   O peration     | Version:  2312                                  |
|   \\  /    A nd           | Website:  www.openfoam.com                      |
|    \\/     M anipulation  |                                                 |
\*---------------------------------------------------------------------------*/
FoamFile
{
    version     2.0;
    format      ascii;
    arch        "LSB;label=32;scalar=64";
    class       volScalarField;
    location    "5100";
    object      nut;
}
// * * * * * * * * * * * * * * * * * * * * * * * * * * * * * * * * * * * * * //

dimensions      [0 2 -1 0 0 0 0];

internalField   nonuniform List<scalar> 
12000
(
3.360409e-05
0.0001814531
0.0001937944
0.0002071532
0.000228106
0.0002488513
0.0002376997
0.0002071201
0.0002000334
0.0002405362
0.0002789864
0.0002284089
0.0001825423
0.0001932972
0.0002677392
0.0002684216
0.0001889512
0.0001693676
0.0002206032
0.0002749966
0.0002077892
0.0001704719
0.0001940329
0.0002384204
0.000216737
0.0001844113
0.0001877136
0.0002056335
0.0002047681
0.0001971986
0.0001953079
0.0001921945
0.0001882337
0.0001912579
0.0002027548
0.000206029
0.0001868138
0.0001696523
0.0001753867
0.0002072624
0.0002300488
0.0001840085
0.0001463873
0.0001563514
0.000227385
0.0002653441
0.0001608958
0.0001214216
0.0001549183
0.0002785341
0.0001981041
0.0001179903
0.000130961
0.0001782167
0.0001592046
0.0001135981
0.0001010708
8.969751e-05
7.912861e-05
6.332162e-05
2.062009e-05
0.0002299228
0.0002641911
0.0003152521
0.0003546544
0.0003946848
0.0004485494
0.0005161083
0.0005959409
0.0006655446
0.0007190474
0.0008013951
0.0009117904
0.001014593
0.001064085
0.001122286
0.001250987
0.001397875
0.001457437
0.001479889
0.001584049
0.001746466
0.001828831
0.001847566
0.001908366
0.002039118
0.002135657
0.002171124
0.002214279
0.002276745
0.002329268
0.002378455
0.002415453
0.002436761
0.002434937
0.002438503
0.002450553
0.002462264
0.002438799
0.002371001
0.002304473
0.002102502
0.002242814
0.002165994
0.002021411
0.001852521
0.001349192
0.001736793
0.001585485
0.001400417
0.001092815
0.001139115
0.0009773599
0.0008144291
0.000681834
0.0005186939
0.0003523855
0.0002138591
0.0001101007
5.927372e-05
2.990208e-05
0.0002821982
0.0003939412
0.0004815981
0.0006002657
0.0007313108
0.0008785528
0.001037614
0.001209502
0.001384236
0.001538774
0.001729713
0.001910273
0.002085436
0.002245914
0.002406316
0.002572164
0.002729205
0.002863295
0.002989733
0.003119071
0.003242482
0.003346505
0.003440024
0.003531344
0.003618924
0.00369379
0.003757965
0.003816608
0.003867048
0.003912343
0.003948859
0.003979173
0.004000996
0.004014936
0.004021224
0.004019939
0.004010553
0.00399211
0.003964701
0.003927959
0.003880623
0.003819972
0.003750616
0.003668814
0.003526904
0.003341246
0.003238792
0.002996648
0.002706341
0.002643687
0.002299366
0.002034501
0.001665556
0.001414913
0.001298762
0.0008998277
0.0004991631
0.0001812499
5.866064e-05
3.415845e-05
0.0003160071
0.0004956633
0.0006418181
0.0008329323
0.00104744
0.001281829
0.001529586
0.001786575
0.002045429
0.002303134
0.002555764
0.002796942
0.003022129
0.003232487
0.003430947
0.003616976
0.003788722
0.003946387
0.004091931
0.004226593
0.004350322
0.00446342
0.004567066
0.004661727
0.004747585
0.004824758
0.004891753
0.00495475
0.005007633
0.00505153
0.005087248
0.005115628
0.00513516
0.005144892
0.005144311
0.005133166
0.005111019
0.005077172
0.005030708
0.004970519
0.004895381
0.00480404
0.004693431
0.004566274
0.004419598
0.004250955
0.004057307
0.003838821
0.003594848
0.003072247
0.002518655
0.002356249
0.002108093
0.001976924
0.001563813
0.00112149
0.0006713397
0.0002698552
6.011734e-05
3.461781e-05
0.0003543671
0.0006035372
0.0008134396
0.001072395
0.001358547
0.001662444
0.001975962
0.002290724
0.00260238
0.002903493
0.003193021
0.00346885
0.00372678
0.003962656
0.004178518
0.004378091
0.004561656
0.00473141
0.004887882
0.005032094
0.005165188
0.00528817
0.005401613
0.005505743
0.005600791
0.005686999
0.005764066
0.005833571
0.005892713
0.005942557
0.00598374
0.006015666
0.00603755
0.006048786
0.006048762
0.006037627
0.006014704
0.005979266
0.005930539
0.005867702
0.005789844
0.005696059
0.005585011
0.005454526
0.005305394
0.005134074
0.00493852
0.004718276
0.00414915
0.003595907
0.003531859
0.003324595
0.002964086
0.002538604
0.002022843
0.001452602
0.0008616849
0.0003340767
6.00237e-05
3.555353e-05
0.000373824
0.0006990049
0.0009653118
0.001276002
0.001614985
0.001969794
0.002330081
0.002686134
0.003031359
0.003359992
0.003669221
0.003958556
0.004229853
0.004484047
0.004718265
0.004933971
0.005133824
0.005320349
0.005492912
0.005651763
0.005798561
0.005934388
0.006059895
0.006175461
0.00628131
0.006375015
0.006462981
0.0065399
0.006606175
0.00666215
0.006707205
0.006741235
0.006763627
0.006773854
0.006770969
0.006754903
0.006724874
0.006680225
0.006620086
0.00654354
0.006449592
0.006337126
0.006204918
0.006051652
0.005873048
0.005672421
0.005446817
0.005192348
0.004888619
0.004567257
0.00418853
0.003767807
0.003303811
0.002792474
0.002231125
0.001624182
0.0009907678
0.0004019255
6.048621e-05
3.68174e-05
0.0003911973
0.0007808009
0.0010971
0.00144653
0.001821224
0.002207389
0.002593868
0.002971946
0.00333675
0.003684658
0.004013976
0.00432493
0.004615776
0.004886055
0.00513757
0.005370489
0.005585588
0.005784292
0.0059695
0.006143
0.006305073
0.006456098
0.006596347
0.006725958
0.006844415
0.00695245
0.007050111
0.00713585
0.007209862
0.007271995
0.007321538
0.007358599
0.007382388
0.007392343
0.007387926
0.007368772
0.007334073
0.007283294
0.007215855
0.007131073
0.007028129
0.006906033
0.006763633
0.006599383
0.00641224
0.006199599
0.005959948
0.005685593
0.005372571
0.005018612
0.004620909
0.00417475
0.003674651
0.003116092
0.002497234
0.001822142
0.001112567
0.0004507501
6.063044e-05
3.789227e-05
0.0004029225
0.0008466597
0.001205716
0.001580538
0.00197432
0.002377683
0.002782557
0.003182741
0.00356691
0.003932247
0.004276794
0.004599158
0.00490075
0.005183455
0.005449051
0.005699113
0.005933527
0.00615297
0.00635871
0.006551808
0.00673292
0.006902078
0.007059165
0.007203891
0.007333498
0.007454887
0.007564092
0.007660766
0.007744023
0.007813248
0.00786808
0.007908779
0.0079344
0.007944284
0.007937907
0.007914775
0.007874349
0.007816104
0.00773948
0.007643849
0.007528456
0.007392383
0.007234321
0.00705309
0.006847171
0.006613049
0.00634761
0.00604716
0.005708805
0.005329013
0.004903736
0.004428305
0.003898276
0.003309792
0.002660769
0.001954179
0.001208452
0.0005009386
6.085146e-05
4.027824e-05
0.0004138518
0.0008931431
0.001288319
0.001682605
0.002093737
0.002512208
0.00292841
0.003333344
0.003725718
0.00410128
0.004457983
0.004795255
0.005113668
0.005414227
0.005697938
0.005966758
0.006222079
0.006463705
0.006690967
0.006903457
0.007101243
0.007287456
0.007461811
0.007624129
0.007773912
0.00791045
0.008032576
0.008139907
0.008231947
0.008308178
0.008368258
0.008412235
0.008439206
0.008448484
0.008439523
0.008411834
0.008364931
0.008298292
0.008211416
0.008103909
0.007975387
0.007825411
0.007652854
0.007454837
0.007228795
0.006975996
0.006692522
0.006375348
0.006020345
0.005622595
0.005178544
0.00468164
0.004126503
0.003508076
0.002823504
0.002075987
0.001286037
0.0005358352
6.093228e-05
3.931423e-05
0.0004343214
0.0009311819
0.001355175
0.001767179
0.002184546
0.002606881
0.003026968
0.003438724
0.003838554
0.004223646
0.004592435
0.004944437
0.005279917
0.005599531
0.005904023
0.00619256
0.006464845
0.006723629
0.006970459
0.007205503
0.007428775
0.007637671
0.007832429
0.008010528
0.00817654
0.008326981
0.008461345
0.008579103
0.008679701
0.00876258
0.008827379
0.008873931
0.008901412
0.008909175
0.008896711
0.008863618
0.0088096
0.00873368
0.008634712
0.00851268
0.008367194
0.008197539
0.008003668
0.007786632
0.00754183
0.007270522
0.006968193
0.006632112
0.006259331
0.005845832
0.005383299
0.004864647
0.004287529
0.003646668
0.002939301
0.002168224
0.001352151
0.000570721
6.102867e-05
3.873572e-05
0.0004310934
0.0009468019
0.001397185
0.001821359
0.002244617
0.002669823
0.0030929
0.003509265
0.003915491
0.004309296
0.004689404
0.005055265
0.005406742
0.005743871
0.006064954
0.006373046
0.006669511
0.006953104
0.007223226
0.007479819
0.007722435
0.007950338
0.008162943
0.008358463
0.008539075
0.008702621
0.008848444
0.008975901
0.009084359
0.009173204
0.009242004
0.009290365
0.00931741
0.00932246
0.009304925
0.009264277
0.009200015
0.00911249
0.009002239
0.008868379
0.008710245
0.008527303
0.00831887
0.008084065
0.007820927
0.007530465
0.007209634
0.006855605
0.006464362
0.006030816
0.005550557
0.00501982
0.00442626
0.003766371
0.003037196
0.002241684
0.001399802
0.0005937056
6.10072e-05
4.408396e-05
0.0004076793
0.0009472405
0.001428137
0.001867725
0.002296022
0.002721867
0.003144873
0.003562455
0.003972194
0.00437235
0.004761807
0.005139904
0.005506211
0.005859252
0.006201335
0.006530732
0.006847221
0.007150423
0.00743994
0.007715322
0.007975742
0.00822066
0.008449415
0.008660752
0.00885506
0.009030892
0.009187421
0.009323862
0.009439462
0.009533492
0.009605333
0.009654497
0.009680492
0.009682848
0.009661097
0.00961479
0.009543506
0.009446851
0.009324466
0.009176139
0.009001675
0.008800917
0.008573626
0.008319495
0.00803767
0.007728718
0.007390806
0.007021689
0.006617597
0.00617299
0.005680947
0.005134118
0.004528157
0.003854074
0.003110368
0.002299617
0.00144108
0.0006158303
6.103369e-05
4.352905e-05
0.000407454
0.0009416996
0.001437641
0.001888293
0.002320466
0.002746652
0.003169777
0.003589152
0.004003171
0.004410193
0.004808905
0.005198243
0.005577133
0.005945156
0.006299973
0.006631101
0.00684436
0.007161272
0.007517887
0.007900575
0.008180665
0.008445059
0.008691457
0.008918838
0.009126673
0.009313792
0.009479349
0.009622808
0.009743607
0.009841171
0.009915021
0.009964658
0.009989402
0.009988686
0.009962004
0.009908919
0.009829064
0.009722146
0.009587941
0.009426295
0.00923712
0.00902033
0.008775812
0.00850353
0.008203523
0.007876539
0.007522378
0.007140007
0.006725949
0.006273595
0.005774721
0.005221044
0.004604687
0.003921148
0.003165501
0.002340929
0.001467809
0.0006290102
6.096866e-05
4.367042e-05
0.000398544
0.0009307645
0.001440037
0.001900687
0.002337439
0.002764468
0.003187097
0.003606286
0.004021384
0.004431185
0.004834114
0.005227947
0.005609255
0.005836629
0.00595058
0.006093836
0.006313518
0.006626048
0.007003056
0.00739857
0.007729887
0.008048732
0.008373163
0.008722005
0.009120897
0.009514373
0.009710864
0.009860555
0.00998656
0.01008793
0.01016391
0.01021393
0.01023739
0.01023372
0.01020246
0.01014323
0.01005573
0.009939776
0.009795201
0.009621897
0.009419943
0.009189657
0.008860469
0.008428787
0.008005722
0.007596786
0.007259276
0.007030524
0.006792003
0.006339044
0.00583866
0.005282028
0.004661475
0.00397058
0.003206746
0.002373283
0.001490484
0.0006410715
6.097667e-05
4.43987e-05
0.000387776
0.0009134645
0.001430588
0.001902902
0.00234616
0.002775596
0.003198646
0.00361785
0.004033209
0.004443336
0.004845833
0.005237341
0.005451364
0.005590845
0.005764219
0.005959856
0.006181268
0.006396192
0.00664617
0.006936594
0.007293226
0.007685853
0.008077634
0.008459308
0.008800078
0.009126101
0.009439157
0.009745151
0.01004136
0.01027235
0.01035026
0.01040083
0.01042334
0.01041727
0.01038218
0.01031774
0.01022377
0.01010024
0.009936369
0.009657814
0.009328934
0.008964546
0.008562017
0.00811943
0.007689015
0.007329394
0.007040386
0.006805444
0.006619243
0.006379373
0.005880866
0.005323408
0.004699832
0.004004575
0.003234792
0.002394083
0.001503509
0.0006471112
6.089895e-05
4.520939e-05
0.0003775998
0.0008952755
0.001419125
0.001899772
0.002348693
0.002780616
0.00320407
0.003622555
0.00403654
0.004444766
0.004844869
0.005206914
0.005406255
0.005572813
0.00571887
0.005879877
0.006061999
0.00627913
0.006550736
0.006863073
0.007184837
0.007511438
0.007850919
0.008198017
0.008550469
0.008882263
0.009180828
0.009450165
0.009704711
0.009958963
0.01022539
0.01030823
0.01022919
0.01018316
0.01013019
0.0100479
0.00992899
0.009770107
0.009568229
0.009320123
0.009025866
0.008688165
0.008312524
0.007911793
0.007506315
0.007120312
0.006808058
0.006612777
0.006506357
0.006365547
0.005909166
0.005352077
0.004727155
0.004029128
0.00325554
0.002410147
0.001514418
0.0006523314
6.086498e-05
4.591719e-05
0.0003689661
0.0008768379
0.001402265
0.001888686
0.002343485
0.00277861
0.003202721
0.003620077
0.004031896
0.004437528
0.004835126
0.005222314
0.005418708
0.005541403
0.005661857
0.005814063
0.006009965
0.006259622
0.00652168
0.006799808
0.007098672
0.007416118
0.007748367
0.008080142
0.00839956
0.008696972
0.008967837
0.009214471
0.009447372
0.009687849
0.009978726
0.01008372
0.009985036
0.009914444
0.009848291
0.00976911
0.00966283
0.009519618
0.009331687
0.009094889
0.008810296
0.008482562
0.008118467
0.007731772
0.007346805
0.006994472
0.006704899
0.006498157
0.006379742
0.006268739
0.005927747
0.005372626
0.004747355
0.004047241
0.003270499
0.002421944
0.001522052
0.0006554115
6.08065e-05
4.653096e-05
0.0003617829
0.0008585052
0.001383727
0.001876209
0.002335756
0.002773254
0.003197593
0.00361347
0.004022688
0.004425097
0.0048192
0.005182382
0.005379163
0.005522688
0.00566581
0.005830826
0.006023403
0.006241937
0.006502145
0.006790351
0.007098709
0.007402776
0.007712381
0.00802209
0.008322529
0.008602697
0.008855633
0.009082656
0.009297551
0.009534685
0.009861375
0.0100054
0.009892255
0.009794359
0.009711725
0.009624542
0.009514412
0.009368989
0.009180947
0.008946748
0.008666396
0.008343402
0.007985195
0.007604783
0.007222642
0.006867454
0.006575135
0.006378321
0.006281096
0.006209293
0.005938741
0.00538527
0.004760103
0.004059067
0.003280716
0.002429332
0.001527189
0.0006576049
6.074945e-05
4.704458e-05
0.0003556415
0.0008419851
0.001364327
0.001859316
0.002322068
0.00276294
0.003188264
0.003603156
0.004010078
0.004409496
0.004800433
0.005176301
0.005380917
0.005530731
0.005677921
0.005846749
0.006047508
0.006281649
0.006545741
0.006824263
0.00711741
0.007428105
0.007741059
0.008046823
0.008337002
0.008604498
0.008846016
0.009064819
0.009272346
0.009487063
0.00972777
0.009989638
0.009978773
0.009773702
0.009655205
0.009555659
0.009439032
0.009287845
0.009094029
0.008854704
0.00857076
0.008246476
0.007889946
0.007514345
0.007139211
0.006790153
0.006498423
0.006294339
0.006189434
0.006133313
0.005944258
0.005392182
0.004766803
0.00406451
0.003284417
0.002431785
0.001528312
0.0006580082
6.06995e-05
4.749232e-05
0.0003508306
0.0008271217
0.001345374
0.00184189
0.002308743
0.002750831
0.003176553
0.003590583
0.003995608
0.004392585
0.004781139
0.005159993
0.005412377
0.005586301
0.005750448
0.005930421
0.006136285
0.006369111
0.006624359
0.006905387
0.007203044
0.007513084
0.007818568
0.008114402
0.008393249
0.008648564
0.008877124
0.009082414
0.009276706
0.009479437
0.009710074
0.009984125
0.0100011
0.009790376
0.009646045
0.009521551
0.009387071
0.00922391
0.009021937
0.008777259
0.008490549
0.008166176
0.007812204
0.007441191
0.007071435
0.006727164
0.00643925
0.006238848
0.006140448
0.006100815
0.005948089
0.005396761
0.004771273
0.004068385
0.003287533
0.002434115
0.001529682
0.0006589724
6.064629e-05
4.786495e-05
0.000347243
0.0008142599
0.001327576
0.001824018
0.002292641
0.002737012
0.003163345
0.003576919
0.003980748
0.004376287
0.004763806
0.00514224
0.00547146
0.005670998
0.005849709
0.006040103
0.006252902
0.006490656
0.00675068
0.007028963
0.007321487
0.007621478
0.007919565
0.008206686
0.008475126
0.008718704
0.008934344
0.009124649
0.009300513
0.00948245
0.009699348
0.009987038
0.01002908
0.009814366
0.009646187
0.009497736
0.009344972
0.009168901
0.008957944
0.008707306
0.008417419
0.008092702
0.007741175
0.007374946
0.007011271
0.006672661
0.006388305
0.006188621
0.006090359
0.006059512
0.005942136
0.005397798
0.004772365
0.00406896
0.003287392
0.002433483
0.001529518
0.0006586284
6.057881e-05
4.823189e-05
0.000345241
0.0008039792
0.001311538
0.001806689
0.002276289
0.002722125
0.003149525
0.003563142
0.003966516
0.004361476
0.004748774
0.005128912
0.00550051
0.005780573
0.00598296
0.006186148
0.006405879
0.00664518
0.006904416
0.007180115
0.007467264
0.007758558
0.008046168
0.008321472
0.008577447
0.00880808
0.009010014
0.009184938
0.009342603
0.009503871
0.009702271
0.009983395
0.01004395
0.009838491
0.00965379
0.009484147
0.009312938
0.009123101
0.008902729
0.008646284
0.008353704
0.008029146
0.007680326
0.007318796
0.006960953
0.00662823
0.006349042
0.006153573
0.006059233
0.006033992
0.005926137
0.005397841
0.004772396
0.004068548
0.003286506
0.002432263
0.001528409
0.0006582709
6.053262e-05
4.853768e-05
0.0003442022
0.0007956987
0.001297393
0.001790509
0.002260351
0.00270725
0.003135583
0.003549848
0.003953481
0.004348664
0.004736566
0.005117642
0.005492692
0.005861683
0.006142989
0.006359514
0.006585698
0.006829698
0.007088316
0.007359482
0.007639068
0.007920329
0.008195144
0.008456954
0.008699235
0.008916403
0.009104964
0.009265289
0.009403827
0.009537362
0.009701946
0.009967267
0.01008603
0.009892542
0.009658525
0.009469853
0.009286349
0.009085737
0.008856479
0.008593892
0.008298214
0.007973486
0.007627075
0.007269955
0.006917726
0.006590804
0.006316755
0.006125335
0.006034396
0.006013571
0.005912998
0.005396837
0.004771195
0.00406681
0.003284241
0.002430188
0.001526812
0.0006573915
6.047029e-05
4.893745e-05
0.000344267
0.0007896673
0.001285601
0.001775952
0.002245414
0.002693066
0.003122447
0.003537699
0.003942214
0.00433839
0.004727729
0.005111088
0.005488947
0.005861362
0.006228521
0.006567712
0.006800005
0.007036398
0.007293459
0.007562123
0.007833432
0.008101376
0.008362025
0.008609968
0.008838413
0.009041316
0.009215743
0.009363221
0.009491158
0.009613234
0.009746961
0.009904452
0.01006613
0.009971461
0.009691673
0.009472516
0.009269413
0.009055635
0.008817252
0.008548764
0.008250166
0.007925299
0.007581176
0.007228231
0.006881382
0.006560264
0.006291795
0.006105295
0.006018531
0.006001561
0.005905575
0.005395934
0.004769799
0.004064746
0.003281723
0.002427507
0.001524732
0.0006564942
6.043942e-05
4.897297e-05
0.0003454463
0.0007861193
0.001276224
0.001763559
0.002232326
0.002680405
0.00311086
0.003527284
0.003933154
0.00433091
0.004722246
0.005108231
0.005489479
0.005866276
0.006238722
0.006606718
0.00696969
0.007282889
0.007526117
0.00777671
0.008042078
0.008303569
0.008552936
0.008782262
0.008994477
0.009182369
0.009342177
0.009474511
0.009585953
0.009689303
0.009799916
0.009925754
0.01006775
0.009988619
0.009716633
0.009483781
0.009262574
0.00903367
0.008784687
0.008509706
0.008208048
0.007882994
0.007541045
0.007192072
0.00685037
0.006534919
0.006272069
0.006090716
0.006008406
0.005995154
0.005902247
0.005395162
0.004768294
0.004062441
0.003278886
0.002424642
0.00152251
0.0006554041
6.039527e-05
4.909856e-05
0.0003489063
0.0007835519
0.001268275
0.001752664
0.002220474
0.002669293
0.003101083
0.003519133
0.003926813
0.004326674
0.004720531
0.005109583
0.005494536
0.005875706
0.006253084
0.006626335
0.006994771
0.007357368
0.007712667
0.008044958
0.008284923
0.008514954
0.008746102
0.00897356
0.00917507
0.009346967
0.009489692
0.009604975
0.009697515
0.009776357
0.009855213
0.00995276
0.01008129
0.01000842
0.009740642
0.009495739
0.009258668
0.009015892
0.008756828
0.008475608
0.00817108
0.007845969
0.007506209
0.007161099
0.006824373
0.006514497
0.006257362
0.006081467
0.006003983
0.005994425
0.00590326
0.005395017
0.004767115
0.004060221
0.003275927
0.002421562
0.001520061
0.0006542567
6.037881e-05
5.121939e-05
0.0003441969
0.0007811348
0.001262458
0.001744286
0.002211238
0.002660395
0.003093447
0.003513494
0.003923548
0.004326139
0.004723147
0.00511584
0.005504957
0.00589079
0.006273221
0.006651745
0.007025481
0.007393177
0.007753204
0.008103604
0.008442142
0.008758239
0.008974324
0.009171174
0.009352126
0.009509774
0.009637788
0.009737159
0.009812338
0.009871113
0.009925322
0.009990583
0.01008789
0.01001518
0.00975868
0.009506035
0.009255575
0.009000368
0.008732118
0.008445266
0.008138306
0.00781343
0.007475992
0.007134715
0.00680282
0.006498399
0.006246976
0.006076696
0.006004271
0.005998363
0.005907896
0.005395737
0.004766579
0.004058493
0.003273354
0.002418782
0.001517812
0.0006531477
6.035543e-05
5.359034e-05
0.0003472958
0.0007769584
0.001259459
0.001738261
0.002204362
0.002654233
0.003088828
0.003511159
0.003924093
0.00433007
0.004730947
0.00512799
0.005521915
0.005912942
0.00630083
0.006684909
0.007064108
0.007436975
0.007801704
0.008156183
0.008498033
0.008824667
0.009133332
0.009382482
0.009544248
0.009678092
0.009789136
0.009873437
0.009932049
0.009970176
0.009996985
0.01002895
0.01009476
0.01003083
0.009781562
0.009510868
0.009249497
0.008985519
0.008710267
0.00841882
0.008109918
0.007785487
0.007450367
0.007112749
0.006785409
0.006486269
0.006240539
0.00607602
0.006008863
0.006006567
0.005915942
0.00539772
0.004766866
0.004057342
0.00327121
0.002416149
0.001515518
0.0006519772
6.035822e-05
5.486398e-05
0.0003528057
0.0007651131
0.001259358
0.001734879
0.002199923
0.002650334
0.003087114
0.003512434
0.003929005
0.004339188
0.004744787
0.005147017
0.00554652
0.005943407
0.006337287
0.006727312
0.007112218
0.00749036
0.007859752
0.00821814
0.008562853
0.008891419
0.009201081
0.009489595
0.009753242
0.009889613
0.009975088
0.01003566
0.01007408
0.01009344
0.01009883
0.0100943
0.01007691
0.01002921
0.009826901
0.009523208
0.009246003
0.008973022
0.008691686
0.008396403
0.008086002
0.0077623
0.007429687
0.007095761
0.006772704
0.00647865
0.006238467
0.006079647
0.006017753
0.006018889
0.005927184
0.005400679
0.004768049
0.004056961
0.003269688
0.002414043
0.001513597
0.000650943
6.035505e-05
5.508596e-05
0.000357496
0.0007551016
0.001260671
0.001733138
0.002197733
0.00264961
0.003089044
0.00351799
0.003938993
0.00435428
0.004765542
0.005173879
0.005579804
0.00598327
0.006383701
0.006780047
0.007170836
0.007554227
0.007927983
0.008289458
0.008636545
0.008966363
0.009276298
0.00956344
0.009825198
0.01005913
0.01017164
0.0102137
0.01022799
0.01022303
0.01020233
0.01016711
0.0101134
0.01003615
0.009833465
0.009534352
0.009249146
0.008966615
0.008678237
0.008379095
0.00806752
0.007744524
0.007413717
0.007082533
0.006763194
0.006473946
0.006239351
0.006086519
0.006030311
0.006035028
0.005941609
0.005404786
0.004770399
0.004057503
0.003268882
0.002412507
0.001511876
0.0006499484
6.036586e-05
5.504192e-05
0.0003618766
0.0007463632
0.001245235
0.00173487
0.002198743
0.002652182
0.003094737
0.003528194
0.003954639
0.00437609
0.00479408
0.005209536
0.005622783
0.006033568
0.006441092
0.006844089
0.007240711
0.007628683
0.008006094
0.008370622
0.00871932
0.009049483
0.009358654
0.00964376
0.009902536
0.0101327
0.01033222
0.01040604
0.01040483
0.01037381
0.01032199
0.01025116
0.01016293
0.01005716
0.009845551
0.009547058
0.009255005
0.008964603
0.008669931
0.008366694
0.008053192
0.007731085
0.00740317
0.007076195
0.006761051
0.00647637
0.00624683
0.006099054
0.006047604
0.006054689
0.00595875
0.005410437
0.004773677
0.004058972
0.003268898
0.002411603
0.001510787
0.000649238
6.037515e-05
5.557052e-05
0.0003664207
0.0007389256
0.001230935
0.001738958
0.002202696
0.002658407
0.003105162
0.003544217
0.003977266
0.004405939
0.004831724
0.005255328
0.005676774
0.006095443
0.006510123
0.006919039
0.007320971
0.007713832
0.008094809
0.008461334
0.008810705
0.009140227
0.009447573
0.009729666
0.009984477
0.01020992
0.01040419
0.01056576
0.01058874
0.01054043
0.01046065
0.01035749
0.01023227
0.01008766
0.009860369
0.009563682
0.009267248
0.008970517
0.008670902
0.008366412
0.008054691
0.007734256
0.007405828
0.007077325
0.006764619
0.006484024
0.006259143
0.006117721
0.006072523
0.006082849
0.005978814
0.00541752
0.004778333
0.004061557
0.003269725
0.002411227
0.001509849
0.0006485627
6.040214e-05
5.583465e-05
0.0003711482
0.00073291
0.001218057
0.001746015
0.002210375
0.002668951
0.003120436
0.003565633
0.004006149
0.004443403
0.004878043
0.005310172
0.005739845
0.006166376
0.00658854
0.007004805
0.007412581
0.007809588
0.00819328
0.008561018
0.008910141
0.009238112
0.009542319
0.009820445
0.01007038
0.01029027
0.01047854
0.01063391
0.01075541
0.01071374
0.0106107
0.01047481
0.01031279
0.01012744
0.009879519
0.00958052
0.009279288
0.008978453
0.00867628
0.008367643
0.008050115
0.007725085
0.007401378
0.00708257
0.006775454
0.00649804
0.006276635
0.006139029
0.006096271
0.00610465
0.00598931
0.005425484
0.004783911
0.004065041
0.003271457
0.002411661
0.001509534
0.0006481488
6.04381e-05
5.653751e-05
0.0003758898
0.0007280159
0.001207049
0.001754823
0.002220894
0.002683678
0.003140847
0.003593484
0.004042512
0.004488802
0.004932914
0.005375029
0.005814334
0.006249695
0.006679572
0.007102006
0.007514669
0.007915053
0.008300547
0.008668517
0.009016374
0.009341723
0.009642044
0.009915284
0.01015954
0.01037319
0.01055488
0.01070357
0.0108185
0.01086587
0.01076408
0.01060008
0.01040036
0.01017222
0.009900552
0.00959703
0.009289435
0.008980451
0.008670048
0.008357852
0.008044179
0.007727318
0.007406101
0.007087676
0.006782383
0.00650928
0.006293112
0.006158446
0.006118067
0.006126119
0.006001335
0.005434897
0.004790776
0.004069539
0.003274077
0.002412638
0.001509493
0.0006478539
6.047511e-05
5.670135e-05
0.0003809712
0.0007251452
0.00119879
0.001766096
0.002235089
0.002702639
0.003167262
0.003628656
0.004087466
0.004544192
0.004998932
0.005451263
0.005900183
0.006344216
0.006781479
0.007209758
0.007626612
0.008029474
0.008415758
0.008782921
0.009128504
0.009450238
0.009745852
0.01001348
0.01025145
0.01045838
0.01063315
0.01077495
0.01088322
0.01095768
0.01090697
0.0107324
0.01050095
0.0102312
0.009930892
0.009615275
0.009297815
0.008985269
0.008676743
0.008369184
0.008056988
0.007739104
0.007416785
0.007096804
0.006792143
0.006521536
0.006310207
0.006184763
0.006152073
0.006157503
0.006015133
0.005445772
0.004798929
0.004075234
0.003277674
0.002414474
0.001510123
0.0006479146
6.050848e-05
5.717358e-05
0.0003855941
0.0007226143
0.001190505
0.0017792
0.002252067
0.002725879
0.003198674
0.003669959
0.004139722
0.004607866
0.005073931
0.005536992
0.005995662
0.006448139
0.006892292
0.007325755
0.007746027
0.008150562
0.008536848
0.008902434
0.009245025
0.009562456
0.009852779
0.01011431
0.01034561
0.01054555
0.01071324
0.01084808
0.01094972
0.01101802
0.0110297
0.01085452
0.01060368
0.01029965
0.009966185
0.009636402
0.009315364
0.009002796
0.008694277
0.008384557
0.008070711
0.007752207
0.007431363
0.007113764
0.006811333
0.006543209
0.006334834
0.006211711
0.006180565
0.006185261
0.006029941
0.005457543
0.004807839
0.004081546
0.003281675
0.002416732
0.001511014
0.0006480813
6.054172e-05
5.876933e-05
0.0003898014
0.0007231606
0.001186631
0.001790067
0.002274067
0.002755722
0.003238296
0.003720666
0.004202209
0.004682237
0.005159755
0.00563338
0.006101358
0.006561618
0.00701186
0.007449644
0.007872466
0.008277822
0.008663281
0.009026478
0.009365344
0.009677882
0.009962388
0.01021741
0.01044178
0.01063458
0.01079515
0.01092309
0.01101823
0.01108055
0.01111025
0.01096292
0.01070851
0.01037784
0.01001308
0.009667587
0.009339818
0.009023888
0.008714011
0.008404519
0.008091874
0.007774104
0.007452976
0.007135121
0.006833252
0.006567188
0.006362735
0.006244781
0.00621727
0.006218126
0.006046572
0.005470945
0.004818207
0.00408911
0.003286706
0.002419579
0.001512241
0.0006484738
6.058896e-05
5.700964e-05
0.0004019865
0.000724039
0.001183489
0.001791626
0.002298527
0.002788505
0.003281552
0.003775769
0.004269796
0.004762276
0.005251638
0.005736034
0.006213357
0.006681289
0.007137383
0.007579135
0.008004041
0.008409661
0.008793679
0.00915392
0.009488508
0.009795705
0.01007406
0.01032237
0.0105397
0.01072537
0.01087893
0.01100016
0.01108902
0.01114563
0.01117026
0.01107248
0.01081917
0.01046373
0.01006795
0.009705001
0.009369605
0.009051664
0.008741551
0.008431956
0.008118459
0.007799707
0.007477854
0.007159771
0.006858392
0.006593849
0.00639216
0.006277955
0.00625369
0.00625267
0.006064301
0.005485409
0.004829609
0.00409768
0.003292734
0.002423488
0.001513915
0.0006487007
6.063552e-05
5.598582e-05
0.0004078676
0.0007253959
0.001179934
0.001789339
0.002326883
0.002826346
0.003330934
0.00383792
0.004345134
0.004850508
0.005351886
0.005846966
0.006333317
0.006808414
0.007269706
0.007714665
0.008140847
0.008545937
0.008927567
0.009284254
0.009614067
0.009915555
0.01018752
0.01042901
0.01063931
0.01081796
0.0109647
0.01107945
0.01116229
0.01121349
0.01123331
0.01116785
0.01091534
0.01053979
0.01011951
0.00974287
0.009401445
0.00908159
0.008771157
0.008461524
0.008147696
0.007828176
0.007505305
0.007186379
0.006884859
0.006621344
0.006422015
0.006310939
0.006288639
0.006284519
0.006082928
0.005500711
0.004841752
0.004106855
0.003299145
0.002427368
0.001516055
0.0006495106
6.070023e-05
5.726939e-05
0.0004048485
0.0007281545
0.001177989
0.001789882
0.002358959
0.002869207
0.003386333
0.003906808
0.004427656
0.004946099
0.005459406
0.005964854
0.006459726
0.006941338
0.007407084
0.007854472
0.008281165
0.008685015
0.009063868
0.009416494
0.009741201
0.01003679
0.01030229
0.010537
0.01074043
0.01091228
0.01105247
0.01116104
0.0112382
0.01128421
0.01129943
0.01124287
0.01099357
0.01060641
0.01016754
0.009780575
0.009435035
0.009114436
0.00880434
0.008494803
0.008180386
0.007859706
0.007535484
0.007215442
0.006913495
0.006650648
0.006453271
0.006345032
0.00632476
0.006317821
0.006102555
0.005516917
0.004854693
0.004116711
0.003306147
0.002431848
0.00151828
0.0006502182
6.074863e-05
5.979589e-05
0.000409177
0.0007325796
0.001177492
0.001791768
0.00239472
0.002916635
0.003447057
0.003981551
0.004516305
0.005047833
0.005572861
0.006088281
0.00659114
0.007078646
0.00754819
0.007997363
0.008423977
0.008826082
0.009201787
0.009550047
0.009869457
0.01015906
0.01041814
0.01064619
0.01084293
0.01100823
0.01114214
0.01124482
0.01131657
0.0113577
0.01136858
0.01130961
0.01106179
0.01066701
0.01021554
0.009821776