/*--------------------------------*- C++ -*----------------------------------*\
| =========                 |                                                 |
| \\      /  F ield         | OpenFOAM: The Open Source CFD Toolbox           |
|  \\    /   O peration     | Version:  2312                                  |
|   \\  /    A nd           | Website:  www.openfoam.com                      |
|    \\/     M anipulation  |                                                 |
\*---------------------------------------------------------------------------*/
FoamFile
{
    version     2.0;
    format      ascii;
    arch        "LSB;label=32;scalar=64";
    class       surfaceScalarField;
    location    "5100";
    object      phi;
}
// * * * * * * * * * * * * * * * * * * * * * * * * * * * * * * * * * * * * * //

dimensions      [1 0 -1 0 0 0 0];

oriented        oriented;

internalField   nonuniform List<scalar> 
23740
(
-0.0001156619
0.000115765
-0.0002224794
0.0001068186
-0.0003331157
0.0001106374
-0.0004439692
0.0001108545
-0.0005494579
0.0001054896
-0.0006550101
0.000105553
-0.0007670367
0.0001120273
-0.0008792428
0.0001122067
-0.0009723548
9.311235e-05
-0.00104379
7.143535e-05
-0.001126616
8.282581e-05
-0.001225119
9.850334e-05
-0.001311843
8.672393e-05
-0.001364042
5.219817e-05
-0.001410011
4.59692e-05
-0.001484145
7.413301e-05
-0.001565605
8.145951e-05
-0.001610076
4.447047e-05
-0.001629326
1.924942e-05
-0.00167081
4.148417e-05
-0.0017335
6.268863e-05
-0.001772693
3.919269e-05
-0.001783328
1.063426e-05
-0.001801422
1.809338e-05
-0.0018374
3.597698e-05
-0.001866314
2.891266e-05
-0.001876992
1.067747e-05
-0.001884445
7.451466e-06
-0.001895867
1.142114e-05
-0.001905464
9.595634e-06
-0.001912627
7.162377e-06
-0.001916811
4.183099e-06
-0.001913854
-2.959514e-06
-0.001903116
-1.073842e-05
-0.001891211
-1.190655e-05
-0.001886939
-4.273456e-06
-0.001885549
-1.39139e-06
-0.001868986
-1.656421e-05
-0.001831714
-3.727267e-05
-0.001790908
-4.080732e-05
-0.001770302
-2.060648e-05
-0.001765709
-4.5938e-06
-0.001737107
-2.860224e-05
-0.001667625
-6.948206e-05
-0.001598411
-6.921402e-05
-0.001569045
-2.936639e-05
-0.001557327
-1.171704e-05
-0.001500218
-5.710906e-05
-0.001390576
-0.0001096408
-0.00130807
-8.250546e-05
-0.001265703
-4.236626e-05
-0.001192157
-7.354504e-05
-0.001070603
-0.0001215531
-0.0009557469
-0.0001148546
-0.0008533749
-0.0001023708
-0.0007234133
-0.0001299603
-0.0005666836
-0.0001567283
-0.0003858201
-0.0001808612
-0.0001929283
-0.0001928871
-0.0001929274
-0.0001108904
0.000226657
-0.0002193453
0.000215275
-0.0003235317
0.0002148253
-0.0004269906
0.0002143146
-0.0005293763
0.0002078764
-0.0006236601
0.0001998378
-0.0007045398
0.0001929077
-0.0007781568
0.0001858243
-0.0008585966
0.0001735525
-0.0009472708
0.0001601097
-0.001014936
0.0001504912
-0.001062101
0.0001456682
-0.001111788
0.0001364104
-0.001181944
0.0001223539
-0.001248808
0.0001128319
-0.001283304
0.0001086284
-0.001304271
0.0001024258
-0.001349772
8.997039e-05
-0.00140974
7.921703e-05
-0.001442639
7.438206e-05
-0.001450402
7.045049e-05
-0.001472935
6.172527e-05
-0.001514378
5.207565e-05
-0.001542785
4.649935e-05
-0.001549564
4.275466e-05
-0.001557529
3.687605e-05
-0.001576385
2.953239e-05
-0.001592284
2.33485e-05
-0.001598971
1.810674e-05
-0.001602116
1.273875e-05
-0.001603064
8.109214e-06
-0.001602593
3.710907e-06
-0.001601158
-4.396512e-06
-0.00160119
-1.070881e-05
-0.001596802
-1.62962e-05
-0.001580119
-2.095773e-05
-0.001555053
-2.645961e-05
-0.001537493
-3.41255e-05
-0.001532281
-4.248562e-05
-0.001523849
-4.924085e-05
-0.001490239
-5.42177e-05
-0.001435112
-5.972151e-05
-0.001395175
-6.853965e-05
-0.001385775
-7.888196e-05
-0.001367726
-8.726278e-05
-0.001303368
-9.37248e-05
-0.001213868
-0.0001012163
-0.00115871
-0.0001122661
-0.001144031
-0.0001243191
-0.001091941
-0.0001345934
-0.0009902438
-0.0001440623
-0.0009082882
-0.0001554992
-0.00085887
-0.0001709698
-0.0007896166
-0.0001841064
-0.0006810472
-0.0002109385
-0.000568694
-0.0002423116
-0.0004599599
-0.0002654599
-0.0003298244
-0.0003109939
-0.0001749161
-0.0003477915
-0.000367843
-9.401471e-05
0.0003206736
-0.0001849127
0.0003061749
-0.0002710864
0.0003010006
-0.0003523335
0.0002955631
-0.0004310596
0.0002866038
-0.0005066357
0.000275415
-0.0005772017
0.0002634746
-0.0006418233
0.0002504464
-0.0007059679
0.0002376973
-0.0007724126
0.0002265546
-0.0008344828
0.0002125613
-0.0008871252
0.0001983104
-0.0009339104
0.0001831951
-0.0009812052
0.0001696481
-0.001026189
0.0001578149
-0.001064721
0.0001471594
-0.001098472
0.0001361764
-0.001133141
0.000124638
-0.001167684
0.00011376
-0.00119756
0.0001042566
-0.001222238
9.512712e-05
-0.001245965
8.545149e-05
-0.001269708
7.581768e-05
-0.001290329
6.711908e-05
-0.001306506
5.893042e-05
-0.001320144
5.051292e-05
-0.001332526
4.191261e-05
-0.001342762
3.358323e-05
-0.001350145
2.548837e-05
-0.001354778
1.737019e-05
-0.001357054
1.038371e-05
-0.001355766
2.421774e-06
-0.001353117
-7.047004e-06
-0.00134806
-1.576735e-05
-0.001340044
-2.431331e-05
-0.001328259
-3.27444e-05
-0.001313267
-4.14527e-05
-0.001296631
-5.076306e-05
-0.001278596
-6.052204e-05
-0.001257552
-7.028547e-05
-0.001231863
-7.990807e-05
-0.001201729
-8.985539e-05
-0.001169548
-0.0001007214
-0.001136013
-0.0001124173
-0.001099187
-0.0001240885
-0.001056783
-0.0001361279
-0.001008887
-0.0001491122
-0.0009583967
-0.0001627556
-0.000905388
-0.0001773269
-0.0008489997
-0.0001909807
-0.0007912741
-0.0002017868
-0.0007263869
-0.0002203852
-0.0006537952
-0.0002435604
-0.0005719381
-0.0002659621
-0.0004848087
-0.0002980662
-0.0004021817
-0.0003249366
-0.0003086797
-0.0003589596
-0.0002187354
-0.0004009352
-0.0001145397
-0.0004519838
-0.0004823823
-7.643752e-05
0.000397113
-0.0001486649
0.000378404
-0.0002176788
0.000370016
-0.0002827264
0.0003606121
-0.0003446777
0.0003485562
-0.0004036895
0.0003344278
-0.0004596044
0.0003193902
-0.0005126757
0.000303518
-0.0005646697
0.0002896916
-0.0006112545
0.0002731394
-0.0006585323
0.0002598391
-0.000704971
0.0002447488
-0.0007506081
0.0002288319
-0.0007929209
0.0002119605
-0.0008320476
0.000196941
-0.0008686648
0.0001837761
-0.0009023348
0.0001698458
-0.0009347656
0.0001570681
-0.0009646605
0.0001436543
-0.000991653
0.0001312485
-0.001015825
0.0001192984
-0.001037962
0.0001075876
-0.001058245
9.609954e-05
-0.001076047
8.49207e-05
-0.001091108
7.399043e-05
-0.001103779
6.318302e-05
-0.001114317
5.244898e-05
-0.001122538
4.180307e-05
-0.001128296
3.124567e-05
-0.001132741
2.181488e-05
-0.00113426
1.190111e-05
-0.00113242
5.809913e-07
-0.001129028
-1.04408e-05
-0.00112348
-2.131642e-05
-0.001115552
-3.224261e-05
-0.001105096
-4.320083e-05
-0.001092022
-5.452754e-05
-0.001076607
-6.617928e-05
-0.001058982
-7.814788e-05
-0.001038853
-9.041508e-05
-0.00101575
-0.0001030118
-0.0009895644
-0.0001160417
-0.0009606653
-0.0001296208
-0.0009291613
-0.0001439214
-0.000896037
-0.0001572128
-0.0008589866
-0.0001731782
-0.0008182953
-0.0001898032
-0.0007749381
-0.0002061123
-0.0007303431
-0.0002219214
-0.0006825382
-0.0002387851
-0.0006261184
-0.0002582059
-0.0005613083
-0.0002851944
-0.0004948012
-0.0003100664
-0.0004251105
-0.0003356516
-0.0003603887
-0.0003627868
-0.000292279
-0.0003930448
-0.0002225007
-0.0004287362
-0.000151522
-0.0004719115
-7.888893e-05
-0.000524614
-0.0005612709
-6.135508e-05
0.0004584698
-0.0001210719
0.0004381222
-0.0001776978
0.0004266432
-0.0002316267
0.0004145421
-0.0002833406
0.000400271
-0.0003330831
0.000384171
-0.000380688
0.0003669956
-0.0004262936
0.000349124
-0.0004680496
0.0003314479
-0.0005081247
0.0003132146
-0.0005439704
0.0002956848
-0.0005786188
0.0002793971
-0.0006141377
0.0002643506
-0.0006500479
0.0002478704
-0.0006831711
0.0002300639
-0.0007140401
0.0002146447
-0.0007428601
0.0001986655
-0.000769711
0.0001839185
-0.0007946955
0.0001686383
-0.0008175746
0.0001541271
-0.0008383348
0.000140058
-0.0008570655
0.0001263177
-0.0008738197
0.000112853
-0.0008885393
9.963958e-05
-0.0009011869
8.663728e-05
-0.0009117985
7.379383e-05
-0.0009204216
6.107124e-05
-0.0009270663
4.844697e-05
-0.0009316947
3.587326e-05
-0.0009343932
2.451258e-05
-0.0009341035
1.161054e-05
-0.0009324012
-1.122258e-06
-0.0009288444
-1.399843e-05
-0.0009232012
-2.696053e-05
-0.0009153502
-4.009451e-05
-0.0009063001
-5.22517e-05
-0.0008947402
-6.608831e-05
-0.0008808718
-8.004842e-05
-0.0008647971
-9.422317e-05
-0.0008465005
-0.0001087123
-0.0008259271
-0.0001235858
-0.0008030492
-0.00013892
-0.0007778641
-0.0001548062
-0.0007505806
-0.000171205
-0.0007208232
-0.0001869703
-0.000688519
-0.0002054824
-0.0006549466
-0.0002233754
-0.0006200833
-0.0002409754
-0.0005815345
-0.0002604699
-0.000537055
-0.0002832641
-0.0004865036
-0.0003087567
-0.000437737
-0.0003339603
-0.000388483
-0.0003593198
-0.0003378435
-0.0003862903
-0.000284913
-0.0004157164
-0.0002295887
-0.0004483681
-0.0001729721
-0.0004853515
-0.0001163017
-0.0005285801
-5.965884e-05
-0.0005812547
-0.0006209295
-4.872892e-05
0.0005072001
-9.637984e-05
0.0004857744
-0.0001411732
0.0004714376
-0.0001837295
0.0004570993
-0.0002244833
0.0004410255
-0.0002637419
0.0004234302
-0.0003016154
0.0004048696
-0.0003382396
0.0003857485
-0.0003733169
0.0003665255
-0.0004073981
0.0003472959
-0.0004400435
0.0003283302
-0.0004703926
0.0003097461
-0.0004974472
0.0002914051
-0.00052445
0.000274873
-0.0005521042
0.0002577179
-0.0005771731
0.0002397132
-0.000600946
0.000222438
-0.0006226699
0.0002056419
-0.0006432068
0.0001891748
-0.0006621632
0.000173083
-0.0006794467
0.000157341
-0.0006950353
0.0001419057
-0.000708923
0.0001267402
-0.000721096
0.000111812
-0.0007315476
9.708824e-05
-0.0007402895
8.253506e-05
-0.0007473404
6.812145e-05
-0.0007527116
5.381745e-05
-0.0007564245
3.958543e-05
-0.0007573697
2.545708e-05
-0.0007569422
1.118231e-05
-0.0007558882
-2.177034e-06
-0.0007529505
-1.693681e-05
-0.0007481822
-3.17295e-05
-0.0007416712
-4.660619e-05
-0.0007333495
-6.057406e-05
-0.0007232012
-7.623721e-05
-0.0007112954
-9.195479e-05
-0.0006976139
-0.0001079053
-0.0006821398
-0.0001241869
-0.0006648529
-0.000140873
-0.0006457512
-0.000158022
-0.0006248762
-0.0001756815
-0.0006022027
-0.0001938787
-0.0005764547
-0.0002127184
-0.0005503941
-0.000231543
-0.0005228742
-0.0002508953
-0.0004913226
-0.0002725269
-0.0004553241
-0.0002964681
-0.0004175064
-0.0003210816
-0.0003799332
-0.0003463296
-0.0003416221
-0.000372271
-0.000301546
-0.0003993955
-0.0002596887
-0.0004281471
-0.0002165044
-0.0004589001
-0.0001726025
-0.0004922693
-0.0001286512
-0.0005293017
-8.527781e-05
-0.0005719521
-4.321186e-05
-0.0006233188
-0.0006641412
-3.872785e-05
0.0005459293
-7.66955e-05
0.0005237432
-0.0001120493
0.0005067923
-0.000145433
0.0004904838
-0.0001772968
0.0004728899
-0.0002079548
0.0004540888
-0.0002375833
0.0004344985
-0.0002663024
0.000414468
-0.0002940817
0.000394305
-0.0003209733
0.0003741876
-0.0003469117
0.0003542687
-0.0003717824
0.0003346168
-0.0003955768
0.0003151994
-0.0004167462
0.0002960421
-0.0004374658
0.0002784374
-0.000458305
0.0002605521
-0.0004777588
0.0002418916
-0.0004958331
0.0002237159
-0.0005125784
0.0002059197
-0.0005279731
0.0001884773
-0.000541987
0.0001713544
-0.000554602
0.0001545202
-0.0005658071
0.0001379448
-0.0005755949
0.0001215993
-0.0005839608
0.0001054535
-0.0005909026
8.947633e-05
-0.0005964171
7.363532e-05
-0.0006004962
5.789598e-05
-0.0006031313
4.221991e-05
-0.0006042505
2.657566e-05
-0.0006039402
1.08715e-05
-0.0006030362
-3.081584e-06
-0.0006006486
-1.932502e-05
-0.0005968755
-3.550316e-05
-0.0005917649
-5.171739e-05
-0.0005842979
-6.804155e-05
-0.0005758065
-8.472919e-05
-0.0005660566
-0.0001017052
-0.0005549319
-0.0001190304
-0.0005423659
-0.0001367532
-0.0005283125
-0.0001549269
-0.0005127352
-0.0001735996
-0.000495611
-0.000192806
-0.0004768322
-0.0002126578
-0.0004569997
-0.000232551
-0.0004352561
-0.0002532867
-0.000410259
-0.0002758924
-0.0003827664
-0.0003000195
-0.0003546601
-0.0003245743
-0.0003259506
-0.0003497909
-0.0002963888
-0.0003758912
-0.0002656784
-0.0004029811
-0.0002338436
-0.0004312299
-0.0002011016
-0.0004608887
-0.0001676796
-0.0004923216
-0.0001338481
-0.0005261001
-9.994498e-05
-0.0005632041
-6.639526e-05
-0.0006055007
-3.358717e-05
-0.0006561255
-0.0006977282
-3.047267e-05
0.0005764031
-6.007861e-05
0.0005533501
-8.720737e-05
0.000533922
-0.0001126458
0.000515923
-0.0001369343
0.000497179
-0.0001604035
0.0004775585
-0.0001832294
0.0004573248
-0.0002054946
0.0004367334
-0.0002271915
0.0004160022
-0.0002482846
0.0003952809
-0.0002686919
0.000374676
-0.000288324
0.0003542489
-0.000307152
0.0003340274
-0.0003251448
0.0003140348
-0.0003410186
0.000294311
-0.0003562804
0.0002758137
-0.0003715754
0.0002571863
-0.0003858693
0.0002380095
-0.000399144
0.0002191941
-0.0004113584
0.0002006913
-0.0004224865
0.0001824821
-0.0004325077
0.000164541
-0.0004414092
0.0001468459
-0.0004491842
0.0001293738
-0.0004558308
0.0001120997
-0.0004613511
9.499619e-05
-0.0004657498
7.803354e-05
-0.0004690337
6.117941e-05
-0.0004712125
4.439822e-05
-0.0004722903
2.765298e-05
-0.0004723204
1.090109e-05
-0.0004710445
-4.357973e-06
-0.0004688396
-2.153038e-05
-0.0004656088
-3.873438e-05
-0.0004612853
-5.604132e-05
-0.0004558115
-7.351585e-05
-0.0004492688
-9.127234e-05
-0.0004416302
-0.0001093442
-0.0004328714
-0.0001277895
-0.000422962
-0.000146663
-0.000411869
-0.0001660201
-0.00039956
-0.0001859089
-0.0003859543
-0.0002064118
-0.0003712865
-0.0002273258
-0.0003548632
-0.0002489744
-0.0003359903
-0.0002721597
-0.0003158071
-0.0002960756
-0.0002951089
-0.0003207178
-0.0002736318
-0.0003460513
-0.0002512448
-0.0003721779
-0.000227974
-0.0003991619
-0.0002038637
-0.0004270912
-0.0001789925
-0.0004561009
-0.0001534847
-0.0004863962
-0.0001275134
-0.0005182924
-0.0001013042
-0.0005523088
-7.514953e-05
-0.0005893582
-4.94599e-05
-0.0006311894
-2.480089e-05
-0.0006807833
-0.000722529
-2.365829e-05
0.0006000625
-4.626748e-05
0.0005759603
-6.666627e-05
0.0005543216
-8.564664e-05
0.000534904
-0.0001037118
0.0005152446
-0.0001211595
0.0004950067
-0.0001381525
0.0004743181
-0.0001547689
0.0004533501
-0.0001710208
0.0004322543
-0.000186886
0.0004111462
-0.0002023205
0.0003901105
-0.0002172722
0.0003692006
-0.0002316944
0.0003484496
-0.0002455431
0.0003278833
-0.0002587533
0.0003075211
-0.0002703319
0.0002873921
-0.0002813512
0.0002682054
-0.0002923387
0.0002489968
-0.0003025732
0.0002294284
-0.0003120185
0.0002101363
-0.0003206344
0.0001910978
-0.0003283987
0.0001723049
-0.0003352982
0.0001537451
-0.000341328
0.0001354032
-0.000346489
0.0001172603
-0.0003507867
9.929344e-05
-0.0003542298
8.147624e-05
-0.0003568287
6.37779e-05
-0.000358595
4.616411e-05
-0.0003595398
2.859745e-05
-0.0003596769
1.103776e-05
-0.000358694
-5.341252e-06
-0.0003570208
-2.3204e-05
-0.0003546009
-4.115459e-05
-0.0003513918
-5.925078e-05
-0.0003473554
-7.755264e-05
-0.0003425007
-9.612733e-05
-0.0003368114
-0.0001150339
-0.0003302662
-0.000134335
-0.0003228354
-0.0001540941
-0.0003144784
-0.0001743774
-0.0003051404
-0.0001952471
-0.000294743
-0.0002168095
-0.0002831043
-0.0002389647
-0.0002698712
-0.0002622076
-0.0002558806
-0.0002861504
-0.0002411517
-0.0003108046
-0.0002256507
-0.0003362188
-0.0002093132
-0.0003623888
-0.0001921559
-0.0003893351
-0.0001742297
-0.000417088
-0.0001556166
-0.0004457042
-0.0001364288
-0.0004752886
-0.0001168072
-0.0005060176
-9.691675e-05
-0.0005381826
-7.694538e-05
-0.0005722798
-5.71076e-05
-0.0006091955
-3.766036e-05
-0.0006506359
-1.890574e-05
-0.000699537
-0.0007414346
-1.806941e-05
0.000618133
-3.490713e-05
0.000592799
-4.964159e-05
0.0005690568
-6.307595e-05
0.000548339
-7.578442e-05
0.0005279536
-8.809742e-05
0.0005073201
-0.0001001827
0.0004864037
-0.0001121076
0.0004652752
-0.0001238728
0.0004440197
-0.00013544
0.0004227134
-0.0001467521
0.0004014227
-0.0001577539
0.0003802024
-0.0001683982
0.0003590938
-0.0001786421
0.0003381272
-0.0001884461
0.000317325
-0.0001977561
0.0002967019
-0.0002058347
0.0002762838
-0.0002134191
0.000256581
-0.0002209303
0.0002369394
-0.0002279112
0.0002171169
-0.0002343365
0.0001975228
-0.0002401485
0.0001781166
-0.0002453248
0.000158921
-0.0002498573
0.0001399354
-0.0002537477
0.0001211504
-0.0002570031
0.0001025485
-0.000259634
8.410685e-05
-0.0002616518
6.579543e-05
-0.0002630674
4.757931e-05
-0.0002638896
2.941941e-05
-0.0002641258
1.127362e-05
-0.0002634636
-6.003695e-06
-0.0002622989
-2.436904e-05
-0.0002606018
-4.285202e-05
-0.0002583449
-6.150797e-05
-0.0002555031
-8.039465e-05
-0.0002520566
-9.957408e-05
-0.0002479822
-0.0001191085
-0.0002432555
-0.0001390619
-0.0002378514
-0.0001594985
-0.0002317475
-0.0001804815
-0.0002249081
-0.0002020867
-0.0002174081
-0.0002243096
-0.0002090869
-0.000247286
-0.0002000748
-0.0002712198
-0.000190314
-0.0002959113
-0.0001797456
-0.000321373
-0.0001683717
-0.0003475928
-0.0001562133
-0.0003745473
-0.0001433275
-0.0004022209
-0.0001298005
-0.000430615
-0.000115736
-0.0004597687
-0.0001012524
-0.0004897721
-8.647871e-05
-0.000520791
-7.154831e-05
-0.0005531127
-5.66029e-05
-0.0005872249
-4.180425e-05
-0.0006239938
-2.73687e-05
-0.0006650708
-1.362296e-05
-0.0007132819
-0.0007550575
-1.29612e-05
0.0006310954
-2.474378e-05
0.0006045825
-3.478602e-05
0.0005790998
-4.38396e-05
0.0005573933
-5.236914e-05
0.0005364837
-6.061434e-05
0.0005155657
-6.868433e-05
0.000494474
-7.661604e-05
0.0004732071
-8.441756e-05
0.0004518214
-9.209495e-05
0.0004303909
-9.969492e-05
0.0004090227
-0.0001072439
0.0003877514
-0.0001147069
0.0003665567
-0.0001220298
0.00034545
-0.0001291457
0.0003244407
-0.0001359831
0.0003035391
-0.0001424571
0.0002827577
-0.000148002
0.0002621256
-0.000153074
0.0002420113
-0.0001579593
0.000222002
-0.0001624057
0.0002019689
-0.0001664065
0.0001821172
-0.00016995
0.0001624643
-0.0001730559
0.0001430411
-0.0001757499
0.0001238442
-0.0001780476
0.0001048459
-0.0001799627
8.602171e-05
-0.0001815055
6.733797e-05
-0.0001826822
4.87558e-05
-0.0001834973
3.023428e-05
-0.0001839527
1.172874e-05
-0.0001837627
-6.193898e-06
-0.000183261
-2.487101e-05
-0.0001824278
-4.368547e-05
-0.0001812426
-6.269334e-05
-0.0001796844
-8.195302e-05
-0.0001777323
-0.0001015264
-0.0001753637
-0.0001214774
-0.000172555
-0.0001418707
-0.0001692829
-0.0001627708
-0.0001655265
-0.000184238
-0.0001612801
-0.0002063332
-0.0001565377
-0.0002290522
-0.0001511183
-0.0002527055
-0.0001450973
-0.0002772409
-0.00013843
-0.0003025786
-0.0001310222
-0.000328781
-0.000122856
-0.000355759
-0.0001139765
-0.0003834268
-0.0001044722
-0.0004117252
-9.445582e-05
-0.0004406313
-8.404421e-05
-0.0004701802
-7.335506e-05
-0.0005004611
-6.250361e-05
-0.0005316424
-5.160127e-05
-0.0005640149
-4.075722e-05
-0.0005980688
-3.008546e-05
-0.0006346652
-1.971962e-05
-0.0006754362
-9.842162e-06
-0.0007231588
-0.0007648996
-1.009905e-05
0.0006411956
-1.869317e-05
0.0006131777
-2.537384e-05
0.0005857813
-3.094893e-05
0.000562969
-3.586152e-05
0.0005413967
-4.045304e-05
0.0005201575
-4.491874e-05
0.0004989399
-4.937654e-05
0.000477665
-5.388921e-05
0.0004563341
-5.845287e-05
0.0004349546
-6.303954e-05
0.0004136093
-6.763176e-05
0.0003923435
-7.219056e-05
0.0003711154
-7.668292e-05
0.0003499423
-8.106714e-05
0.0003288248
-8.532232e-05
0.0003077942
-8.942776e-05
0.000286863
-9.328036e-05
0.0002659781
-9.64762e-05
0.000245207
-9.925242e-05
0.0002247781
-0.0001018473
0.0002045636
-0.0001042809
0.0001845507
-0.0001065343
0.0001647175
-0.0001085724
0.000145079
-0.0001103823
0.0001256539
-0.0001119686
0.000106432
-0.0001133483
8.740119e-05
-0.0001145365
6.852602e-05
-0.0001155447
4.976378e-05
-0.0001163836
3.107303e-05
-0.0001170619
1.240685e-05
-0.0001173337
-5.92227e-06
-0.0001174696
-2.473525e-05
-0.000117451
-4.370422e-05
-0.0001172596
-6.288491e-05
-0.0001168765
-8.233627e-05
-0.0001162809
-0.0001021222
-0.0001154498
-0.0001223087
-0.0001143558
-0.0001429649
-0.0001129635
-0.0001641631
-0.0001112221
-0.0001859795
-0.000109075
-0.0002084804
-0.0001063456
-0.0002317818
-0.0001031332
-0.000255918
-9.958167e-05
-0.0002807925
-9.546751e-05
-0.0003066929
-9.067124e-05
-0.0003335773
-8.520258e-05
-0.0003612277
-7.905816e-05
-0.0003895712
-7.235751e-05
-0.0004184259
-6.52618e-05
-0.000447727
-5.790449e-05
-0.0004775375
-5.039118e-05
-0.0005079744
-4.280792e-05
-0.0005392255
-3.523039e-05
-0.0005715923
-2.772869e-05
-0.0006055703
-2.03743e-05
-0.0006420194
-1.326148e-05
-0.0006825487
-6.552859e-06
-0.0007298669
-0.0007714524
-5.87873e-06
0.0006470755
-1.001603e-05
0.000617316
-1.218618e-05
0.0005879523
-1.32875e-05
0.000564071
-1.420308e-05
0.0005423128
-1.520043e-05
0.0005211552
-1.645137e-05
0.000500191
-1.802189e-05
0.0004792356
-1.993474e-05
0.0004582469
-2.219254e-05
0.0004372123
-2.464429e-05
0.000416061
-2.711199e-05
0.0003948111
-2.964998e-05
0.0003736532
-3.22942e-05
0.0003525864
-3.499627e-05
0.0003315268
-3.760006e-05
0.0003103978
-3.995402e-05
0.0002892168
-4.199606e-05
0.00026802
-4.371733e-05
0.0002469281
-4.519471e-05
0.0002262553
-4.66859e-05
0.0002060547
-4.824568e-05
0.0001861103
-4.987382e-05
0.0001663455
-5.148268e-05
0.0001466877
-5.298492e-05
0.000127156
-5.440232e-05
0.0001078492
-5.577672e-05
8.877545e-05
-5.712114e-05
6.987029e-05
-5.84166e-05
5.10591e-05
-5.965819e-05
3.231448e-05
-6.085143e-05
1.359996e-05
-6.180055e-05
-4.973284e-06
-6.272752e-05
-2.380841e-05
-6.361093e-05
-4.282093e-05
-6.442982e-05
-6.206614e-05
-6.516566e-05
-8.160055e-05
-6.580067e-05
-0.0001014873
-6.631745e-05
-0.000121792
-6.669675e-05
-0.0001425857
-6.691396e-05
-0.000163946
-6.693333e-05
-0.0001859603
-6.669835e-05
-0.0002087155
-6.618501e-05
-0.0002322952
-6.532758e-05
-0.0002567755
-6.382306e-05
-0.0002822971
-6.167559e-05
-0.0003088404
-5.897035e-05
-0.0003362826
-5.551225e-05
-0.0003646859
-5.135874e-05
-0.0003937247
-4.6819e-05
-0.0004229656
-4.207785e-05
-0.0004524681
-3.721687e-05
-0.0004823985
-3.229746e-05
-0.0005128937
-2.7371e-05
-0.0005441519
-2.248153e-05
-0.0005764817
-1.766975e-05
-0.0006103819
-1.297716e-05
-0.0006467118
-8.45721e-06
-0.0006870683
-4.199514e-06
-0.0007341241
-0.0007756519
-4.017096e-06
0.0006510938
-5.839718e-06
0.0006191399
-5.742093e-06
0.0005878556
-5.04054e-06
0.0005633699
-3.824047e-06
0.0005410966
-2.340639e-06
0.000519672
-6.959564e-07
0.0004985465
1.004633e-06
0.0004775351
2.664799e-06
0.0004565867
4.140351e-06
0.0004357367
5.199576e-06
0.0004150016
5.6403e-06
0.0003943703
5.428037e-06
0.0003738654
4.589475e-06
0.0003534248
3.281853e-06
0.0003328342
1.758359e-06
0.0003119212
2.098797e-07
0.0002907651
-1.360803e-06
0.0002695905
-2.949461e-06
0.0002485166
-4.349361e-06
0.0002276551
-5.395052e-06
0.0002071002
-6.145844e-06
0.000186861
-6.706624e-06
0.0001669062
-7.285182e-06
0.0001472662
-8.029141e-06
0.0001278999
-8.930095e-06
0.0001087501
-9.970691e-06
8.981593e-05
-1.112831e-05
7.10278e-05
-1.238635e-05
5.231704e-05
-1.374487e-05
3.36729e-05
-1.521536e-05
1.507034e-05
-1.666086e-05
-3.527882e-06
-1.822256e-05
-2.22468e-05
-1.984371e-05
-4.119987e-05
-2.148963e-05
-6.042031e-05
-2.312997e-05
-7.99603e-05
-2.474708e-05
-9.987027e-05
-2.632907e-05
-0.0001202101
-2.787211e-05
-0.0001410427
-2.938017e-05
-0.000162438
-3.083668e-05
-0.0001845038
-3.219233e-05
-0.0002073599
-3.338821e-05
-0.0002310994
-3.431048e-05
-0.0002558533
-3.483604e-05
-0.0002817716
-3.476561e-05
-0.0003089109
-3.382315e-05
-0.0003372251
-3.208521e-05
-0.0003664238
-2.978986e-05
-0.0003960201
-2.701585e-05
-0.0004257396
-2.405227e-05
-0.0004554317
-2.111943e-05
-0.0004853313
-1.823184e-05
-0.0005157813
-1.539442e-05
-0.0005469893
-1.260688e-05
-0.0005792691
-9.872648e-06
-0.000613116
-7.208991e-06
-0.0006493752
-4.652024e-06
-0.0006896249
-2.276266e-06
-0.0007364995
-0.0007779281
-2.399176e-06
0.0006534946
-2.325212e-06
0.0006190673
-8.815232e-07
0.0005864127
1.640702e-06
0.0005608483
4.695481e-06
0.0005380422
7.983144e-06
0.0005163846
1.13036e-05
0.0004952261
1.450912e-05
0.0004743295
1.75112e-05
0.0004535846
2.028628e-05
0.0004329615
2.285423e-05
0.0004124335
2.513783e-05
0.0003920865
2.706103e-05
0.000371942
2.867102e-05
0.0003518146
3.000605e-05
0.0003314991
3.089871e-05
0.0003110284
3.122163e-05
0.0002904421
3.104266e-05
0.0002697694
3.046737e-05
0.0002490918
2.971382e-05
0.0002284085
2.896164e-05
0.0002078523
2.823432e-05
0.0001875882
2.750471e-05
0.0001676357
2.677569e-05
0.0001479951
2.602118e-05
0.0001286543
2.519765e-05
0.0001095735
2.430801e-05
9.070549e-05
2.33387e-05
7.199703e-05
2.225506e-05
5.340059e-05
2.103386e-05
3.489402e-05
1.964609e-05
1.645804e-05
1.807e-05
-1.951862e-06
1.616515e-05
-2.034203e-05
1.407313e-05
-3.910792e-05
1.185293e-05
-5.820018e-05
9.53222e-06
-7.763965e-05
7.131319e-06
-9.746943e-05
4.666638e-06
-0.0001177455
2.15545e-06
-0.0001385316
-3.8174e-07
-0.0001599009
-2.917029e-06
-0.0001819686
-5.40467e-06
-0.0002048723
-7.770303e-06
-0.0002287338
-9.937136e-06
-0.0002536865
-1.182951e-05
-0.0002798792
-1.331558e-05
-0.0003074249
-1.427158e-05
-0.0003362691
-1.455761e-05
-0.0003661378
-1.398563e-05
-0.0003965921
-1.271358e-05
-0.0004270117
-1.120397e-05
-0.0004569413
-9.730903e-06
-0.0004868043
-8.328842e-06
-0.0005171833
-6.966486e-06
-0.0005483516
-5.635246e-06
-0.0005806003
-4.341779e-06
-0.0006144094
-3.107891e-06
-0.000650609
-1.968409e-06
-0.0006907642
-9.703472e-07
-0.0007374973
-0.0007788984
-1.180718e-06
0.0006546766
1.287233e-08
0.0006178747
3.042297e-06
0.000583384
7.294364e-06
0.0005565968
1.204003e-05
0.0005332969
1.693435e-05
0.0005114904
2.176725e-05
0.0004903932
2.642626e-05
0.0004696705
3.083787e-05
0.0004491729
3.496003e-05
0.0004288392
3.871565e-05
0.0004086777
4.205654e-05
0.0003887454
4.492989e-05
0.0003690685
4.732053e-05
0.0003494238
4.926821e-05
0.0003295512
5.089939e-05
0.000309397
5.232088e-05
0.0002890204
5.356515e-05
0.000268525
5.462893e-05
0.0002480278
5.535303e-05
0.0002276843
5.565244e-05
0.0002075528
5.562229e-05
0.0001876182
5.534088e-05
0.000167917
5.485818e-05
0.0001484777
5.420677e-05
0.0001293056
5.338599e-05
0.0001103942
5.23839e-05
9.170751e-05
5.119205e-05
7.318881e-05
4.981004e-05
5.478254e-05
4.825084e-05
3.645316e-05
4.651711e-05
1.819171e-05
4.453969e-05
2.550896e-08
4.215077e-05
-1.795317e-05
3.945846e-05
-3.641565e-05
3.654321e-05
-5.528499e-05
3.345263e-05
-7.454912e-05
3.021803e-05
-9.423487e-05
2.686742e-05
-0.0001143949
2.343689e-05
-0.0001351011
1.997953e-05
-0.0001564436
1.654559e-05
-0.0001785347
1.317858e-05
-0.0002015054
9.939615e-06
-0.0002254948
6.902129e-06
-0.0002506491
4.128984e-06
-0.0002771061
1.658556e-06
-0.0003049545
-4.385135e-07
-0.0003341721
-2.025164e-06
-0.0003645512
-3.023529e-06
-0.0003955938
-3.442256e-06
-0.000426593
-3.366147e-06
-0.0004570174
-3.056936e-06
-0.0004871135
-2.653795e-06
-0.0005175864
-2.194413e-06
-0.0005488109
-1.735588e-06
-0.000581059
-1.295273e-06
-0.0006148496
-8.89494e-07
-0.0006510146
-5.355638e-07
-0.0006911179
-2.519861e-07
-0.0007377806
-0.0007791503
-4.65219e-07
0.000655143
1.743929e-06
0.0006156665
6.179158e-06
0.0005789496
1.16399e-05
0.0005511366
1.762509e-05
0.000527312
2.380447e-05
0.0005053112
2.996194e-05
0.0004842358
3.594931e-05
0.000463683
4.165067e-05
0.0004434714
4.696262e-05
0.000423527
5.18024e-05
0.0004038377
5.612329e-05
0.0003844243
5.989776e-05
0.0003652938
6.314008e-05
0.0003461813
6.592506e-05
0.000326766
6.832236e-05
0.0003069995
7.037086e-05
0.0002869717
7.208e-05
0.0002668157
7.343795e-05
0.0002466698
7.447822e-05
0.0002266439
7.523006e-05
0.0002068008
7.564044e-05
0.0001872078
7.569585e-05
0.0001678615
7.539913e-05
0.0001487743
7.475737e-05
0.0001299473
7.379026e-05
0.0001113612
7.252117e-05
9.297653e-05
7.096988e-05
7.474005e-05
6.915407e-05
5.659829e-05
6.709407e-05
3.851311e-05
6.480414e-05
2.04816e-05
6.22589e-05
2.570705e-06
5.934849e-05
-1.50428e-05
5.609799e-05
-3.316519e-05
5.257937e-05
-5.176641e-05
4.886419e-05
-7.083398e-05
4.500706e-05
-9.037779e-05
4.105265e-05
-0.0001104405
3.704503e-05
-0.0001310935
3.303367e-05
-0.0001524323
2.907335e-05
-0.0001745744
2.522276e-05
-0.0001976548
2.154568e-05
-0.0002218178
1.810733e-05
-0.0002472107
1.496875e-05
-0.0002739676
1.218373e-05
-0.0003021695
9.791292e-06
-0.0003317797
7.806202e-06
-0.0003625661
6.257689e-06
-0.0003940453
5.190357e-06
-0.0004255257
4.542122e-06
-0.0004563692
4.044506e-06
-0.0004866159
3.486379e-06
-0.0005170282
2.906529e-06
-0.000548231
2.358224e-06
-0.0005805107
1.83828e-06
-0.0006143296
1.341007e-06
-0.0006505172
8.551011e-07
-0.0006906317
3.816986e-07
-0.0007373067
-0.0007787686
-1.992712e-09
0.0006551463
3.104226e-06
0.0006125614
8.280823e-06
0.0005737738
1.456477e-05
0.0005448532
2.140926e-05
0.0005204679
2.846688e-05
0.0004982537
3.550743e-05
0.0004771952
4.236714e-05
0.0004568232
4.892439e-05
0.0004369139
5.508667e-05
0.0004173645
6.07892e-05
0.000398135
6.599763e-05
0.0003792156
7.070559e-05
0.0003605856
7.491501e-05
0.0003419716
7.861132e-05
0.0003230695
8.17745e-05
0.0003038362
8.440105e-05
0.000284345
8.650579e-05
0.0002647108
8.812527e-05
0.0002450501
8.930068e-05
0.0002254683
9.002922e-05
0.0002060721
9.033621e-05
0.0001869007
9.022402e-05
0.0001679736
8.96982e-05
0.0001493001
8.877412e-05
0.0001308713
8.747271e-05
0.0001126626
8.581756e-05
9.463162e-05
8.38332e-05
7.672436e-05
8.154457e-05
5.888687e-05
7.897658e-05
4.108107e-05
7.615312e-05
2.330502e-05
7.310465e-05
5.619138e-06
6.990243e-05
-1.184061e-05
6.623372e-05
-2.949652e-05
6.228527e-05
-4.781799e-05
5.816058e-05
-6.670933e-05
5.392286e-05
-8.614009e-05
4.962256e-05
-0.0001061403
4.530913e-05
-0.0001267801
4.103431e-05
-0.0001481575
3.685048e-05
-0.0001703906
3.280926e-05
-0.0001936136
2.896193e-05
-0.0002179705
2.535719e-05
-0.000243606
2.203741e-05
-0.0002706479
1.903907e-05
-0.0002991712
1.639981e-05
-0.0003291404
1.416168e-05
-0.000360328
1.235672e-05
-0.0003922403
1.097408e-05
-0.000424143
9.930131e-06
-0.0004553252
8.997902e-06
-0.0004856837
8.017129e-06
-0.0005160474
6.997542e-06
-0.0005472114
5.946031e-06
-0.0005794591
4.861668e-06
-0.0006132451
3.731673e-06
-0.0006493871
2.53729e-06
-0.0006894371
1.263524e-06
-0.0007360326
-0.000777505
2.212518e-07
0.0006549263
3.749873e-06
0.0006090338
9.426023e-06
0.0005680984
1.626079e-05
0.0005380189
2.36851e-05
0.0005130438
3.133698e-05
0.0004906019
3.897257e-05
0.0004695596
4.641936e-05
0.0004493763
5.355284e-05
0.0004297803
6.028559e-05