/*--------------------------------*- C++ -*----------------------------------*\
| =========                 |                                                 |
| \\      /  F ield         | OpenFOAM: The Open Source CFD Toolbox           |
|  \\    /   O peration     | Version:  2312                                  |
|   \\  /    A nd           | Website:  www.openfoam.com                      |
|    \\/     M anipulation  |                                                 |
\*---------------------------------------------------------------------------*/
FoamFile
{
    version     2.0;
    format      ascii;
    arch        "LSB;label=32;scalar=64";
    class       volScalarField;
    location    "5100";
    object      qin;
}
// * * * * * * * * * * * * * * * * * * * * * * * * * * * * * * * * * * * * * //

dimensions      [1 0 -3 0 0 0 0];

internalField   uniform 0;

boundaryField
{
    plate
    {
        type            calculated;
        value           nonuniform List<scalar> 
200
(
2393.498
2337.894
2306.05
2282.536
2259.214
2240.595
2235.076
2243.264
2257.594
2271.242
2280.503
2281.65
2272.841
2258.351
2245.809
2239.952
2242.094
2253.3
2273.767
2299.53
2322.75
2336.291
2338.349
2334.084
2332.737
2340.701
2356.436
2373.57
2388.358
2401.117
2411.207
2415.595
2414.024
2411.29
2411.443
2413.098
2414.173
2418.038
2429.461
2446.068
2459.429
2464.105
2461.287
2454.787
2447.926
2443.692
2444.152
2449.071
2456.169
2462.54
2466.318
2468.662
2473.558
2483.166
2493.697
2498.63
2495.707
2488.041
2479.439
2472.383
2469.661
2473.389
2481.904
2490.693
2496.189
2496.877
2492.807
2486.481
2481.912
2480.65
2481.01
2482.15
2485.43
2490.473
2493.599
2492.121
2487.556
2482.802
2478.418
2473.728
2469.703
2468.035
2468.048
2466.961
2463.456
2459.411
2457.624
2458.833
2461.423
2463.263
2463.248
2461.552
2459.281
2458.01
2459.118
2463.028
2468.887
2475.032
2479.898
2482.775
2483.995
2484.512
2485.163
2486.052
2486.472
2485.424
2482.382
2477.792
2472.985
2469.567
2468.627
2470.182
2473.184
2476.08
2477.613
2477.398
2475.987
2474.451
2473.779
2474.446
2476.317
2478.88
2481.612
2484.238
2486.778
2489.38
2492.086
2494.7
2496.828
2498.061
2498.186
2497.306
2495.811
2494.209
2492.935
2492.202
2491.971
2492.017
2492.047
2491.824
2491.248
2490.4
2489.535
2489.035
2489.317
2490.685
2493.163
2496.38
2499.559
2501.665
2501.704
2499.062
2493.783
2486.646
2478.99
2472.306
2467.704
2465.44
2464.711
2463.878
2461.156
2455.571
2447.75
2440.083
2435.998
2438.499
2448.617
2464.545
2482.038
2495.987
2502.503
2500.558
2492.437
2482.821
2476.836
2477.802
2485.517
2495.757
2501.475
2495.798
2476.196
2447.833
2423.15
2416.138
2433.95
2472.015
2516.924
2554.484
2575.846
2578.094
2562.654
2536.089
2512.65
2513.237
2555.702
2638.761
2736.069
2817.269
2894.911
3030.366
)
;
    }
    riser
    {
        type            calculated;
        value           nonuniform List<scalar> 
200
(
5347.492
5176.115
5137.078
5171.908
5271.314
5389.119
5515.998
5532.077
5311.145
5114.739
5285.515
5572.001
5556.025
5424.049
5550.692
5829.915
5943.449
5831.271
5664.003
5612.549
5752.748
6063.467
6401.85
6588.261
6627.03
6664.048
6665.211
6491.604
6299.684
6405.567
6758.096
6954.171
6800.69
6608.956
6815.179
7371.894
7808.069
7922.386
7888.255
7682.672
7174.605
6688.922
6669.672
7015.541
7327.273
7413.482
7263.714
6945.704
6660.523
6588.993
6658.362
6655.033
6556.583
6513.111
6490.495
6338.583
6219.538
6485.231
7079.733
7534.801
7612.498
7466.323
7200.726
6842.393
6635.864
6763.567
7015.886
7190.002
7372.991
7542.214
7477.05
7242.819
7166.763
7283.664
7296.978
7051.467
6724.591
6542.077
6489.233
6418.379
6330.367
6357.049
6529.976
6734.179
6852.718
6861.302
6810.001
6762.845
6758.565
6801.099
6866.149
6918.41
6937.6
6931.199
6920.812
6921.739
6935.078
6950.855
6952.937
6923.582
6852.243
6745.27
6626.581
6527.49
6473.473
6475.457
6527.949
6612.993
6708.107
6795.243
6866.112
6920.457
6959.452
6980.656
6978.545
6949.086
6894.325
6824.005
6753.25
6697.297
6665.886
6660.192
6673.756
6696.456
6719.116
6736.551
6748.091
6755.945
6762.757
6769.9
6777.354
6784.874
6793.335
6805.033
6822.639
6847.459
6878.033
6909.954
6937.176
6954.285
6958.487
6950.313
6932.86
6910.213
6885.901
6862.055
6839.526
6818.721
6800.452
6786.053
6776.635
6772.046
6770.2
6767.294
6759.121
6743.175
6720.621
6697.118
6681.829
6684.603
6712.16
6764.717
6834.483
6906.932
6964.77
6993.182
6983.972
6936.953
6858.773
6760.281
6653.128
6546.576
6446.318
6356.087
6279.998
6222.885
6189.016
6182.048
6206.692
6268.626
6369.577
6497.939
6618.969
6674.241
6602.413
6381.389
6067.275
5785.506
5653.072
5678.515
5761.272
5828.296
5955.153
6168.647
6231.769
5879.259
5256.572
4865.31
4828.212
4959.775
)
;
    }
    topAndBottom
    {
        type            calculated;
        value           nonuniform List<scalar> 
120
(
8219.733
7273.09
6575.46
6096.486
5768.394
5573.888
5473.169
5403.823
5321.415
5217.163
5106.354
5008.12
4932.448
4878.323
4839.161
4809.287
4787.029
4773.676
4770.383
4775.69
4785.169
4793.018
4794.402
4787.11
4771.808
4751.024
4727.66
4703.844
4680.545
4657.814
4635.267
4612.51
4589.419
4566.373
4544.414
4525.208
4510.665
4502.267
4500.433
4504.278
4511.919
4521.159
4530.182
4537.953
4544.238
4549.288
4553.207
4555.119
4552.523
4541.468
4518.063
4480.946
4433.26
4382.29
4336.108
4299.006
4271.025
4251.855
4244.943
4308.792
7371.536
7395.756
7390.664
7228.896
6860.94
6384.652
5949.454
5642.505
5465.071
5370.508
5315.997
5300.631
5365.242
5549.722
5839.879
6151.395
6370.793
6422.815
6310.044
6096.921
5856.845
5625.933
5394.649
5135.195
4837.484
4526.526
4252.931
4067.866
4000.359
4048.014
4181.105
4353.538
4514.565
4618.914
4635.415
4553.771
4387.405
4170.095
3946.326
3758.528
3636.16
3590.649
3617.09
3700.458
3822.674
3967.596
4122.845
4279.092
4428.261
4562.322
4673.879
4758.584
4817.545
4856.993
4884.235
4902.311
4909.644
4899.93
4888.533
4831.495
)
;
    }
    frontAndBack
    {
        type            empty;
    }
}


// ************************************************************************* //
