# Region type : patch plate
# Faces        : 200
# Area         : 6.7000000e-01
# Scale factor : 1.0000000e+00
# Time         	areaAverage(T)
3400           	5.9001280e+02
3500           	5.8984870e+02
3600           	5.9094825e+02
