/*--------------------------------*- C++ -*----------------------------------*\
| =========                 |                                                 |
| \\      /  F ield         | OpenFOAM: The Open Source CFD Toolbox           |
|  \\    /   O peration     | Version:  2312                                  |
|   \\  /    A nd           | Website:  www.openfoam.com                      |
|    \\/     M anipulation  |                                                 |
\*---------------------------------------------------------------------------*/
FoamFile
{
    version     2.0;
    format      ascii;
    arch        "LSB;label=32;scalar=64";
    class       volScalarField;
    location    "3750";
    object      ILambda_12_0;
}
// * * * * * * * * * * * * * * * * * * * * * * * * * * * * * * * * * * * * * //

dimensions      [1 0 -3 0 0 0 0];

internalField   nonuniform List<scalar> 
12000
(
732.2648
719.5329
718.869
716.1383
714.1245
712.4542
711.3382
710.5996
710.0171
709.421
708.7346
707.9292
706.9832
705.8749
704.6025
703.2049
701.7624
700.3715
699.1074
697.9949
697.0021
696.0582
695.0838
694.0176
692.8292
691.517
690.096
688.5845
686.9949
685.33
683.5852
681.7508
679.816
677.7711
675.6075
673.3201
670.9035
668.3482
665.6379
662.7515
659.6701
656.3786
652.8541
649.0595
644.9383
640.451
635.5781
630.3023
624.5829
618.3863
611.7188
604.6231
597.1361
589.2518
580.9989
572.4607
563.7628
555.0918
546.7308
539.1805
701.3097
701.5242
700.5632
699.6156
698.7052
697.6685
696.4542
695.0548
693.5152
691.8771
690.1638
688.3872
686.5592
684.6941
682.8011
680.8743
678.8888
676.8059
674.5856
672.1986
669.6335
666.8951
663.998
660.9573
657.7826
654.4758
651.0331
647.4475
643.7129
639.8255
635.7846
631.5919
627.2509
622.7661
618.1433
613.3879
608.5069
603.5097
598.4102
593.2264
587.979
582.6903
577.3884
572.1107
566.9066
561.8274
556.9231
552.2472
547.8662
543.851
540.2638
537.1566
534.5823
532.6086
531.2949
530.6805
530.7829
531.5866
533.0193
534.8866
680.3915
677.5184
675.563
673.2723
670.8743
668.3211
665.6355
662.8327
659.9261
656.9216
653.8201
650.6205
647.3203
643.9154
640.4007
636.771
633.0234
629.1594
625.1861
621.1152
616.9613
612.7394
608.4634
604.1456
599.797
595.4286
591.0524
586.6821
582.3331
578.0226
573.7691
569.5918
565.5109
561.5471
557.7215
554.0558
550.5722
547.2932
544.241
541.4373
538.9026
536.6558
534.7142
533.0922
531.8001
530.8428
530.2199
529.9257
529.9482
530.2674
530.8555
531.6782
532.6952
533.8592
535.1149
536.4004
537.6511
538.8031
539.8015
540.6164
639.9024
634.3214
631.2774
627.5639
623.9191
620.1862
616.4111
612.5924
608.7385
604.8562
600.9534
597.039
593.123
589.2165
585.3321
581.4836
577.6857
573.9537
570.3026
566.7468
563.3
559.9753
556.7853
553.7423
550.8584
548.1457
545.6156
543.2786
541.1447
539.2222
537.5186
536.0394
534.7887
533.769
532.9808
532.4225
532.0905
531.9787
532.0788
532.3802
532.8697
533.532
534.3497
535.3032
536.3716
537.5329
538.7645
540.0439
541.3491
542.6596
543.9574
545.2274
546.458
547.6425
548.7795
549.8741
550.9386
551.9924
553.0627
554.1807
589.154
583.3509
580.4287
576.9019
573.6028
570.3443
567.1818
564.1139
561.1531
558.3087
555.5906
553.0086
550.5719
548.2891
546.1681
544.2161
542.4389
540.8412
539.4268
538.1981
537.1566
536.3027
535.6358
535.1543
534.8553
534.7349
534.7877
535.0072
535.3859
535.9147
536.584
537.383
538.3001
539.3231
540.4393
541.6355
542.8984
544.2149
545.5719
546.957
548.3586
549.7658
551.1693
552.561
553.9346
555.2855
556.6109
557.91
559.1838
560.4349
561.6676
562.8875
564.1008
565.3145
566.5351
567.769
569.0213
570.2959
571.5964
572.927
551.1657
547.8701
546.4527
544.7702
543.3464
542.0541
540.9269
539.9587
539.1522
538.507
538.0224
537.6965
537.5269
537.5098
537.6409
537.9149
538.3258
538.8668
539.5308
540.3098
541.1955
542.1792
543.2517
544.4037
545.6257
546.9079
548.2409
549.615
551.0212
552.4505
553.8946
555.3457
556.7967
558.241
559.6731
561.0882
562.4825
563.853
565.1976
566.5152
567.8055
569.0688
570.3064
571.5198
572.7111
573.8826
575.0366
576.1754
577.301
578.4148
579.518
580.6109
581.6932
582.7638
583.8211
584.8632
585.888
586.8945
587.8841
588.8642
540.026
540.0088
540.3052
540.6755
541.1843
541.8014
542.5274
543.3537
544.2741
545.2813
546.368
547.5266
548.7494
550.0287
551.3565
552.7254
554.1277
555.5561
557.0035
558.4632
559.9287
561.3941
562.8539
564.3028
565.7366
567.1512
568.5431
569.9097
571.2487
572.5583
573.8374
575.0853
576.3018
577.4871
578.6417
579.7664
580.8622
581.9302
582.9717
583.9877
584.9795
585.9479
586.8938
587.8177
588.7199
589.6004
590.459
591.2952
592.1084
592.8977
593.6623
594.4014
595.1142
595.8003
596.4594
597.092
597.6993
598.2837
598.8505
599.4111
551.2768
553.2327
554.4247
555.8484
557.2625
558.7101
560.1733
561.6484
563.1291
564.6102
566.0865
567.5534
569.0066
570.4422
571.8567
573.247
574.6104
575.9446
577.2479
578.5187
579.7559
580.9588
582.1269
583.2603
584.3589
585.4231
586.4535
587.4509
588.4158
589.3493
590.2522
591.1253
591.9694
592.7853
593.5737
594.335
595.0695
595.7777
596.4595
597.115
597.744
598.3462
598.9216
599.4696
599.9899
600.4824
600.9467
601.3827
601.7903
602.1698
602.5213
602.8452
603.1421
603.4127
603.658
603.8792
604.0777
604.2564
604.4205
604.5805
571.4262
573.6792
574.9102
576.3678
577.7431
579.1028
580.4273
581.7187
582.9744
584.1935
585.3751
586.5187
587.6239
588.6907
589.7191
590.7094
591.662
592.5775
593.4565
594.2996
595.1077
595.8814
596.6214
597.3286
598.0034
598.6466
599.2586
599.8399
600.3907
600.9114
601.402
601.8628
602.2936
602.6945
603.0652
603.4057
603.7158
603.9954
604.2441
604.462
604.649
604.805
604.9302
605.0246
605.0885
605.1222
605.1263
605.1011
605.0474
604.9658
604.8573
604.7226
604.5627
604.3786
604.1717
603.9432
603.6953
603.4311
603.1562
602.8815
589.9759
591.6214
592.4941
593.5177
594.458
595.3685
596.2355
597.0623
597.8487
598.5953
599.3028
599.9719
600.6033
601.1976
601.7557
602.2781
602.7654
603.2184
603.6374
604.023
604.3756
604.6956
604.9833
605.2391
605.4632
605.6558
605.8171
605.9475
606.0471
606.1161
606.155
606.164
606.1434
606.0939
606.0159
605.91
605.7771
605.6178
605.4332
605.2244
604.9924
604.7386
604.4643
604.1712
603.8609
603.5352
603.1959
602.8453
602.4854
602.1186
601.7474
601.3744
601.0022
600.6339
600.2724
599.9213
599.5845
599.267
598.9761
598.7231
602.4462
603.2609
603.7009
604.2023
604.6458
605.0587
605.4335
605.7725
606.0758
606.3442
606.5783
606.7788
606.9465
607.082
607.1861
607.2594
607.3028
607.3169
607.3025
607.2604
607.1915
607.0966
606.9768
606.833
606.6664
606.478
606.2692
606.0412
605.7955
605.5336
605.257
604.9675
604.6667
604.3566
604.0391
603.7163
603.3901
603.0628
602.7367
602.4139
602.0968
601.7877
601.4892
601.2036
600.9334
600.6811
600.4491
600.2398
600.0558
599.8994
599.773
599.6789
599.6191
599.5956
599.6105
599.6657
599.7633
599.9063
600.0992
600.3501
608.0532
608.119
608.1837
608.234
608.257
608.2549
608.2265
608.1729
608.0949
607.9935
607.8701
607.7258
607.5621
607.3801
607.1815
606.9676
606.7402
606.5006
606.2507
605.9921
605.7267
605.4561
605.1823
604.907
604.6323
604.36
604.092
603.8302
603.5765
603.3328
603.1008
602.8824
602.6793
602.493
602.3253
602.1774
602.0509
601.9468
601.8664
601.8106
601.7801
601.7757
601.7978
601.8467
601.9225
602.0251
602.1542
602.3094
602.4901
602.6953
602.9239
603.1747
603.4459
603.7357
604.042
604.363
604.6969
605.0428
605.4018
605.7803
608.4245
608.0455
607.9088
607.7212
607.5381
607.3452
607.1459
606.9406
606.7306
606.5174
606.3025
606.0874
605.8738
605.6631
605.457
605.2569
605.0642
604.8803
604.7067
604.5447
604.3955
604.2602
604.14
604.0357
603.9481
603.8779
603.8256
603.7917
603.7763
603.7796
603.8014
603.8415
603.8995
603.9747
604.0666
604.1741
604.2961
604.4316
604.579
604.7369
604.9037
605.0776
605.2569
605.4396
605.6238
605.8076
605.9889
606.1659
606.3368
606.4998
606.6532
606.7955
606.925
607.0405
607.141
607.2259
607.2956
607.3514
607.3977
607.4444
607.0433
606.6454
606.536
606.3843
606.2573
606.1361
606.0246
605.922
605.829
605.7462
605.6741
605.6132
605.5639
605.5266
605.5014
605.4884
605.4878
605.4993
605.5227
605.5579
605.6043
605.6615
605.7288
605.8055
605.8907
605.9836
606.083
606.1879
606.2972
606.4096
606.5238
606.6386
606.7528
606.8651
606.9742
607.0791
607.1785
607.2717
607.3576
607.4356
607.5052
607.5658
607.6175
607.6602
607.6943
607.7205
607.7395
607.7528
607.7619
607.7687
607.7754
607.7845
607.7987
607.8211
607.8551
607.9048
607.9749
608.071
608.2012
608.3768
606.884
606.7054
606.728
606.7319
606.7586
606.7929
606.8363
606.8872
606.9448
607.0086
607.078
607.1523
607.231
607.3134
607.3988
607.4866
607.576
607.6663
607.7571
607.8475
607.9372
608.0255
608.112
608.1964
608.2782
608.3573
608.4336
608.507
608.5777
608.6459
608.7121
608.7768
608.8407
608.9048
608.9702
609.038
609.1099
609.1875
609.2726
609.3672
609.4736
609.5942
609.7314
609.888
610.0669
610.2709
610.5033
610.7671
611.0656
611.402
611.7795
612.2012
612.67
613.1886
613.7597
614.3861
615.0704
615.816
616.6276
617.5123
608.3093
608.2845
608.383
608.4747
608.5783
608.6839
608.7915
608.8998
609.0082
609.1165
609.2243
609.3317
609.4389
609.5459
609.653
609.7606
609.8692
609.9796
610.0924
610.2085
610.329
610.4551
610.5879
610.7288
610.8794
611.0412
611.2158
611.405
611.6106
611.8345
612.0786
612.3448
612.6352
612.9516
613.2961
613.6706
614.077
614.517
614.9925
615.5049
616.0558
616.6465
617.278
617.9513
618.6673
619.4262
620.2285
621.0741
621.9628
622.8939
623.8665
624.8795
625.931
627.0191
628.1412
629.2952
630.4786
631.6899
632.9291
634.2006
610.5379
610.6111
610.7634
610.9245
611.0976
611.2784
611.4664
611.6619
611.8653
612.0775
612.2995
612.5323
612.7772
613.0355
613.3085
613.5977
613.9044
614.2301
614.5763
614.9445
615.3361
615.7526
616.1954
616.6656
617.1646
617.6933
618.2529
618.8439
619.4673
620.1233
620.8124
621.5345
622.2897
623.0775
623.8974
624.7487
625.6302
626.5406
627.4785
628.4421
629.4294
630.438
631.4656
632.5095
633.5668
634.6345
635.7094
636.7883
637.8677
638.9443
640.0143
641.0742
642.1203
643.1489
644.1562
645.1392
646.0951
647.0226
647.9231
648.8044
614.5565
614.9363
615.2707
615.6602
616.0679
616.4987
616.9505
617.4237
617.9187
618.436
618.9762
619.54
620.1279
620.7404
621.3778
622.0404
622.7283
623.4414
624.1797
624.9429
625.7305
626.5417
627.3759
628.2319
629.1086
630.0045
630.918
631.8474
632.7905
633.7453
634.7094
635.6803
636.6554
637.6318
638.6067
639.5771
640.5399
641.492
642.4302
643.3515
644.2527
645.1308
645.9827
646.8056
647.5968
648.3537
649.0741
649.7557
650.3967
650.9956
651.551
652.0618
652.5271
652.9465
653.3197
653.647
653.9299
654.1708
654.3754
654.5561
622.6274
623.5299
624.1512
624.8871
625.6306
626.4004
627.1894
627.9971
628.822
629.6627
630.5181
631.3867
632.2672
633.158
634.0574
634.9637
635.875
636.7893
637.7046
638.6186
639.5292
640.434
641.3306
642.2166
643.0894
643.9467
644.7858
645.6044
646.3998
647.1698
647.9119
648.6239
649.3036
649.949
650.5582
651.1295
651.6614
652.1524
652.6016
653.008
653.3709
653.69
653.9651
654.1965
654.3845
654.5299
654.6338
654.6973
654.7222
654.7102
654.6635
654.5843
654.4752
654.3385
654.1771
653.9943
653.7937
653.5803
653.3613
653.1489
634.709
635.9377
636.709
637.614
638.497
639.3861
640.2702
641.1481
642.0168
642.874
643.7174
644.5448
645.3541
646.1431
646.9098
647.6523
648.3685
649.0568
649.7153
650.3424
650.9367
651.4966
652.021
652.5087
652.9587
653.3703
653.7427
654.0755
654.3684
654.6213
654.8342
655.0076
655.1418
655.2374
655.2955
655.317
655.3032
655.2555
655.1756
655.0652
654.9262
654.7607
654.5711
654.3595
654.1286
653.8808
653.6188
653.3454
653.0634
652.7755
652.4846
652.1933
651.9043
651.6201
651.3431
651.076
650.8218
650.5841
650.3684
650.1839
646.9937
647.9889
648.5978
649.2939
649.9463
650.5784
651.1805
651.752
652.2906
652.7951
653.2643
653.6974
654.0936
654.4524
654.7736
655.0569
655.3024
655.5104
655.6811
655.8151
655.9132
655.9762
656.0051
656.001
655.9653
655.8993
655.8047
655.683
655.5361
655.3656
655.1737
654.9622
654.7332
654.4887
654.2309
653.9619
653.6838
653.3988
653.1088
652.816
652.5224
652.2299
651.9405
651.6559
651.3779
651.1082
650.8484
650.5998
650.364
650.1421
649.9353
649.7446
649.5707
649.4142
649.2755
649.1552
649.0544
648.9747
648.9195
648.8961
654.9198
655.2521
655.492
655.7417
655.9558
656.1408
656.2928
656.4119
656.4982
656.5523
656.5747
656.5666
656.529
656.4632
656.3708
656.2532
656.1122
655.9494
655.7667
655.566
655.3491
655.1179
654.8743
654.6203
654.3578
654.0886
653.8145
653.5374
653.2588
652.9805
652.704
652.4307
652.162
651.8991
651.6431
651.3951
651.1559
650.9264
650.7071
650.4987
650.3015
650.1159
649.942
649.78
649.6298
649.4915
649.3648
649.2496
649.1456
649.0525
648.9698
648.8972
648.834
648.7796
648.7332
648.6945
648.6635
648.6413
648.631
648.6403
657.0599
656.7734
656.701
656.5834
656.4602
656.3195
656.1629
655.9906
655.8036
655.6033
655.3908
655.1678
654.9358
654.6963
654.4509
654.2012
653.9486
653.6947
653.4409
653.1884
652.9385
652.6923
652.4509
652.2152
651.986
651.7639
651.5495
651.3433
651.1456
650.9567
650.7765
650.605
650.4423
650.2879
650.1417
650.0031
649.8717
649.747
649.6282
649.5148
649.406
649.3012
649.1994
649.1001
649.0024
648.9056
648.8092
648.7124
648.6147
648.5156
648.4146
648.3113
648.2051
648.0958
647.9829
647.8664
647.7471
647.6264
647.5086
647.4027
655.5834
655.0395
654.8613
654.624
654.4073
654.1887
653.9719
653.7558
653.541
653.3279
653.1171
652.9092
652.7047
652.5042
652.308
652.1167
651.9306
651.7499
651.5748
651.4053
651.2415
651.0832
650.9302
650.7822
650.639
650.4999
650.3646
650.2324
650.1027
649.975
649.8484
649.7222
649.5958
649.4683
649.339
649.2072
649.0721
648.9331
648.7895
648.6407
648.486
648.3251
648.1575
647.9829
647.801
647.6117
647.4149
647.2106
646.9991
646.7806
646.5555
646.324
646.0867
645.844
645.5963
645.3447
645.0907
644.8366
644.5874
644.3529
653.4712
652.9618
652.822
652.6299
652.4661
652.3054
652.1509
652.0004
651.8534
651.7091
651.5673
651.4273
651.2888
651.1514
651.0148
650.8784
650.7419
650.6048
650.4667
650.327
650.1852
650.0409
649.8936
649.7425
649.5874
649.4275
649.2624
649.0917
648.9149
648.7315
648.5411
648.3435
648.1383
647.9253
647.7043
647.4751
647.2377
646.9922
646.7385
646.4768
646.2073
645.9303
645.6463
645.3555
645.0586
644.7562
644.449
644.1377
643.8233
643.5067
643.1888
642.8706
642.5531
642.2372
641.924
641.6146
641.311
641.0159
640.7341
640.4752
651.9643
651.5215
651.4192
651.2656
651.1354
651.0031
650.8714
650.7375
650.6005
650.4594
650.3135
650.1623
650.0052
649.8418
649.6717
649.4947
649.3105
649.1189
648.9197
648.7129
648.4981
648.2756
648.0451
647.8067
647.5604
647.3064
647.0447
646.7754
646.4989
646.2153
645.925
645.6282
645.3253
645.0167
644.7029
644.3843
644.0614
643.7348
643.4051
643.0729
642.7389
642.4036
642.0678
641.7323
641.3979
641.0653
640.7354
640.409
640.0871
639.7706
639.4604
639.1574
638.8623
638.5758
638.2988
638.0323
637.7776
637.5373
637.3155
637.1211
650.4938
650.0018
649.8672
649.6711
649.4938
649.3088
649.1193
648.9226
648.7183
648.5057
648.2847
648.055
647.8168
647.57
647.3148
647.0516
646.7807
646.5023
646.217
645.9251
645.627
645.3233
645.0144
644.7008
644.383
644.0616
643.737
643.4098
643.0805
642.7497
642.4179
642.0857
641.7536
641.4221
641.0917
640.7631
640.4366
640.1129
639.7924
639.4756
639.1631
638.8553
638.5527
638.2558
637.9652
637.6814
637.4048
637.1361
636.8759
636.6247
636.383
636.1515
635.9306
635.7206
635.5221
635.3358
635.1629
635.0055
634.8678
634.758
648.2203
647.6086
647.4078
647.134
646.8812
646.6208
646.3567
646.0868
645.8108
645.5288
645.2409
644.9473
644.6484
644.3449
644.037
643.7255
643.411
643.094
642.7751
642.455
642.1342
641.8134
641.493
641.1736
640.8557
640.5399
640.2265
639.9161
639.6091
639.3058
639.0068
638.7123
638.4228
638.1385
637.8599
637.5872
637.3207
637.0608
636.8078
636.562
636.3237
636.0932
635.8709
635.6572
635.4525
635.2572
635.0719
634.8971
634.7333
634.5813
634.4417
634.3151
634.2023
634.1037
634.0202
633.9527
633.9028
633.873
633.8677
633.8952
645.1117
644.4202
644.1809
643.8655
643.577
643.2852
642.9944
642.7026
642.4097
642.1158
641.8211
641.526
641.2309
640.9363
640.6428
640.3509
640.0611
639.7741
639.4902
639.2102
638.9343
638.6632
638.3971
638.1367
637.8822
637.634
637.3926
637.1583
636.9313
636.7122
636.5012
636.2987
636.1051
635.9206
635.7456
635.5806
635.4259
635.282
635.1492
635.0281
634.9191
634.8228
634.7397
634.6705
634.6158
634.5765
634.5532
634.5469
634.5583
634.5886
634.6385
634.7093
634.8016
634.9165
635.055
635.2182
635.408
635.627
635.8797
636.174
641.8302
641.1556
640.9334
640.6417
640.3822
640.1246
639.8731
639.6256
639.3821
639.1426
638.9073
638.6765
638.4506
638.2301
638.0156
637.8074
637.6062
637.4125
637.2268
637.0496
636.8815
636.7229
636.5744
636.4363
636.3092
636.1935
636.0898
635.9985
635.92
635.855
635.8038
635.7669
635.745
635.7384
635.7478
635.7736
635.8165
635.8769
635.9556
636.053
636.1697
636.3065
636.4638
636.6424
636.843
637.0663
637.3129
637.5836
637.8791
638.2003
638.5477
638.922
639.3238
639.7537
640.212
640.6995
641.2174
641.7676
642.354
642.984
639.2582
638.7092
638.564
638.3668
638.2049
638.0507
637.9079
637.7744
637.6503
637.5356
637.4305
637.3355
637.251
637.1776
637.1157
637.0661
637.0293
637.006
636.9967
637.002
637.0224
637.0586
637.1111
637.1803
637.2669
637.3712
637.4938
637.6352
637.7958
637.976
638.1762
638.3969
638.6384
638.9011
639.1853
639.4914
639.8196
640.1701
640.5433
640.9394
641.3584
641.8007
642.2663
642.7553
643.268
643.8043
644.3644
644.9483
645.5561
646.1879
646.8434
647.5228
648.2258
648.9522
649.7015
650.4739
651.2697
652.0902
652.9386
653.8225
638.4012
638.1021
638.1015
638.0801
638.0947
638.124
638.1705
638.2322
638.3093
638.4016
638.5095
638.6333
638.7733
638.9302
639.1044
639.2964
639.5066
639.7356
639.9837
640.2514
640.539
640.8468
641.1751
641.524
641.8939
642.2848
642.6968
643.1301
643.5845
644.0602
644.557
645.0748
645.6135
646.1729
646.7528
647.3529
647.9729
648.6125
649.2712
649.9487
650.6445
651.3582
652.0894
652.8375
653.602
654.3826
655.1786
655.9898
656.8155
657.6555
658.5091
659.376
660.2555
661.1472
662.0503
662.9648
663.8908
664.8295
665.7842
666.7629
640.3793
640.4565
640.6647
640.8972
641.1611
641.4462
641.7521
642.0773
642.4213
642.784
643.1651
643.5649
643.9834
644.4207
644.8769
645.3521
645.8464
646.3598
646.8922
647.4436
648.0137
648.6024
649.2095
649.8347
650.4775
651.1377
651.8148
652.5083
653.2177
653.9425
654.6821
655.4358
656.2031
656.9833
657.7757
658.5797
659.3944
660.2192
661.0534
661.8961
662.7468
663.6046
664.469
665.3391
666.2144
667.0943
667.9783
668.8658
669.7563
670.6494
671.5447
672.4419
673.3403
674.2396
675.1393
676.0394
676.9403
677.8434
678.7521
679.6749
646.0164
646.5313
646.9723
647.4869
648.0211
648.5787
649.1552
649.7495
650.3605
650.9876
651.6304
652.2882
652.9609
653.648
654.3492
655.0642
655.7924
656.5335
657.2869
658.0521
658.8286
659.6158
660.413
661.2195
662.0347
662.8578
663.6882
664.525
665.3675
666.215
667.0666
667.9217
668.7793
669.6388
670.4994
671.3603
672.2207
673.08
673.9374
674.7923
675.6439
676.4916
677.3349
678.1731
679.0058
679.8325
680.6528
681.4663
682.2728
683.0719
683.8634
684.6471
685.4226
686.1897
686.9481
687.6979
688.4397
689.175
689.9074
690.6454
655.2485
656.139
656.7689
657.5108
658.2556
659.0198
659.7951
660.5811
661.376
662.1789
662.989
663.8055
664.6278
665.4553
666.2873
667.1232
667.9625
668.8043
669.6481
670.4932
671.3389
672.1844
673.0291
673.8722
674.713
675.5507
676.3847
677.2142
678.0384
678.8568
679.6685
680.4729
681.2694
682.0572
682.8357
683.6044
684.3626
685.1097
685.8452
686.5685
687.2793
687.9769
688.661
689.3312
689.9873
690.6288
691.2557
691.8677
692.4647
693.0466
693.6134
694.1651
694.7016
695.2227
695.7285
696.2193
696.6959
697.1602
697.6161
698.0724
666.9417
668.0296
668.7466
669.5914
670.4229
671.2652
672.1082
672.9514
673.7931
674.6322
675.4679
676.2993
677.1259
677.947
678.7618
679.57
680.3707
681.1636
681.9478
682.723
683.4883
684.2433
684.9874
685.7199
686.4402
687.1479
687.8423
688.5229
689.1892
689.8407
690.4768
691.0971
691.7011
692.2884
692.8587
693.4115
693.9464
694.4632
694.9615
695.4412
695.902
696.3436
696.7661
697.1693
697.5533
697.9181
698.2639
698.5908
698.8991
699.1891
699.4613
699.716
699.9536
700.1744
700.379
700.5682
700.7433
700.9067
701.063
701.2216
679.2441
680.2957
680.9743
681.77
682.5422
683.315
684.0781
684.8315
685.5733
686.3028
687.0191
687.7217
688.41
689.0837
689.7422
690.3852
691.0122
691.6229
692.2169
692.7938
693.3533
693.895
694.4186
694.9239
695.4104
695.8779
696.3263
696.7552
697.1644
697.5538
697.9232
698.2726
698.6019
698.9109
699.1997
699.4684
699.717
699.9456
700.1544
700.3436
700.5135
700.6643
700.7964
700.9104
701.0066
701.0858
701.1485
701.1956
701.2278
701.2459
701.251
701.2439
701.2256
701.197
701.159
701.1131
701.0611
701.0059
700.9524
700.9103
690.1484
690.9422
691.4692
692.0793
692.6641
693.2403
693.7997
694.3421
694.8662
695.3712
695.8569
696.3229
696.7689
697.195
697.601
697.9868
698.3524
698.6978
699.0229
699.3279
699.6126
699.8773
700.1219
700.3467
700.5517
700.7371
700.9032
701.05
701.178
701.2875
701.3786
701.4519
701.5078
701.5466
701.5688
701.5751
701.5658
701.5417
701.5033
701.4514
701.3866
701.3096
701.2214
701.1227
701.0144
700.8976
700.7733
700.6424
700.5061
700.3655
700.2219
700.0762
699.9296
699.7831
699.6378
699.4952
699.357
699.2259
699.107
699.0094
698.0373
698.424
698.7291
699.0697
699.3921
699.7008
699.9908
700.2616
700.5124
700.7431
700.9536
701.1441
701.3148
701.466
701.5981
701.7114
701.8064
701.8834
701.9429
701.9854
702.0113
702.0212
702.0155
701.9948
701.9597
701.9108
701.8486
701.7737
701.6869
701.5887
701.4799
701.3611
701.2331
701.0965
700.9522
700.8007
700.6431
700.4798
700.3119
700.1399
699.9648
699.7873
699.6082
699.4284
699.2488
699.0701
698.8933
698.7192
698.5489
698.383
698.2227
698.0685
697.9214
697.782
697.651
697.5292
697.4183
697.3204
697.2398
697.1851
702.1679
702.1193
702.1988
702.2669
702.3315
702.3827
702.4194
702.4408
702.4467
702.4372
702.4128
702.3739
702.3212
702.2553
702.1768
702.0865
701.985
701.8731
701.7514
701.6206
701.4816
701.3349
701.1812
701.0213
700.8558
700.6855
700.5109
700.3329
700.1519
699.9687
699.7839
699.5981
699.412
699.226
699.0409
698.8571
698.6751
698.4955
698.3189
698.1455
697.976
697.8108
697.6503
697.495
697.3453
697.2016
697.0645
696.9343
696.8115
696.6965
696.5898
696.4917
696.4025
696.3224
696.2517
696.1909
696.141
696.1038
696.0833
696.0874
702.9288
702.5466
702.4629
702.3358
702.2222
702.1005
701.9728
701.8377
701.6952
701.5458
701.3898
701.228
701.0609
700.8893
700.7138
700.5351
700.3539
700.1707
699.9863
699.8011
699.6157
699.4307
699.2466
699.0639
698.883
698.7043
698.5283
698.3552
698.1855
698.0194
697.8572
697.6992
697.5456
697.3966
697.2523
697.113
696.9787
696.8495
696.7256
696.6069
696.4936
696.3857
696.2832
696.1863
696.095
696.0093
695.9294
695.8555
695.7876
695.7259
695.6706
695.6218
695.5796
695.5439
695.515
695.4932
695.4793
695.4752
695.4846
695.5155
701.6008
701.0611
700.9091
700.702
700.5216
700.34
700.1606
699.9814
699.8026
699.6242
699.4465
699.27
699.0949
698.9218
698.751
698.5829
698.4177
698.2559
698.0976
697.9431
697.7927
697.6464
697.5044
697.3668
697.2338
697.1053
696.9813
696.8619
696.747
696.6366
696.5306
696.4289
696.3315
696.2382
696.1489
696.0634
695.9816
695.9035
695.8287
695.7573
695.689
695.6238
695.5616
695.5023
695.4459
695.3924
695.3418
695.2943
695.25
695.2091
695.1716
695.1379
695.108
695.082
695.0601
695.0429
695.0313
695.0271
695.0344
695.0612
699.6655
699.1268
698.9846
698.7917
698.6308
698.4734
698.3225
698.1759
698.0334
697.8947
697.7597
697.6286
697.5012
697.3778
697.2582
697.1426
697.031
696.9233
696.8194
696.7194
696.623
696.5303
696.441
696.3551
696.2723
696.1925
696.1156
696.0413
695.9695
695.8999
695.8323
695.7667
695.7027
695.6402
695.579
695.519
695.46
695.4019
695.3445
695.2878
695.2316
695.1759
695.1207
695.066
695.0118
694.9584
694.9058
694.8542
694.804
694.7552
694.7083
694.6636
694.6213
694.5816
694.5448
694.5115
694.4829
694.4608
694.4494
694.4571
698.1189
697.6578
697.5576
697.4169
697.3068
697.2013
697.1023
697.0075
696.9165
696.8286
696.7437
696.6615
696.5819
696.5046
696.4296
696.3567
696.2857
696.2166
696.149
696.083
696.0182
695.9545
695.8918
695.8298
695.7684
695.7074
695.6466
695.5859
695.5251
695.4641
695.4027
695.3408
695.2783
695.2151
695.151
695.0862
695.0203
694.9535
694.8857
694.8169
694.7471
694.6764
694.6047
694.5324
694.4594
694.3861
694.3126
694.2392
694.1663
694.0941
694.023
693.9534
693.8856
693.8198
693.7564
693.6959
693.6395
693.5893
693.5493
693.5282
697.2313
696.8416
696.7748
696.675
696.6018
696.5317
696.4659
696.4022
696.3399
696.2784
696.2175
696.1569
696.0964
696.0358
695.975
695.9139
695.8523
695.7901
695.7271
695.6633
695.5985
695.5327
695.4657
695.3973
695.3277
695.2565
695.1838
695.1095
695.0335
694.9557
694.8761
694.7947
694.7114
694.6263
694.5392
694.4502
694.3594
694.2667
694.1721
694.0758
693.9777
693.8781
693.7769
693.6745
693.5709
693.4664
693.3612
693.2557
693.1502
693.0451
692.9406
692.8373
692.7355
692.6353
692.5371
692.4416
692.35
692.2643
692.1888
692.1321
696.7649
696.3989
696.34
696.2494
696.1823
696.1163
696.0523
695.9882
695.9233
695.8573
695.7897
695.7205
695.6495
695.5766
695.5017
695.4248
695.3458
695.2647
695.1814
695.0959
695.0082
694.9181
694.8258
694.7311
694.634
694.5346
694.4327
694.3284
694.2217
694.1126
694.001
693.8871
693.7707
693.652
693.531
693.4077
693.2822
693.1545
693.0247
692.8929
692.7592
692.6237
692.4867
692.3483
692.2087
692.0682
691.9272
691.7859
691.6448
691.5043
691.3648
691.2268
691.0907
690.9567
690.8254
690.6974
690.574
690.4573
690.3517
690.2659
696.3247
695.9334
695.859
695.7487
695.6611
695.5731
695.4857
695.3969
695.3062
695.2131
695.1175
695.0192
694.9183
694.8145
694.708
694.5988
694.4868
694.372
694.2546
694.1345
694.0117
693.8862
693.7581
693.6275
693.4942
693.3584
693.2202
693.0794
692.9363
692.7908
692.643
692.493
692.3408
692.1865
692.0303
691.8722
691.7124
691.5509
691.3879
691.2236
691.0582
690.8918
690.7248
690.5573
690.3898
690.2225
690.0559
689.8903
689.7264
689.5645
689.4053
689.2492
689.0967
688.9483
688.8044
688.6659
688.5341
688.4112
688.3015
688.2136
695.5809
695.1325
695.0289
694.8816
694.7585
694.634
694.5101
694.3843
694.2564
694.126
693.993
693.8573
693.7189
693.5778
693.434
693.2878
693.139
692.9878
692.8343
692.6785
692.5206
692.3605
692.1985
692.0345
691.8688
691.7013
691.5322
691.3616
691.1896
691.0164
690.8421
690.6668
690.4907
690.3139
690.1366
689.959
689.7812
689.6036
689.4262
689.2494
689.0733
688.8983
688.7246
688.5527
688.3828
688.2154
688.0509
687.8899
687.7328
687.5802
687.4326
687.2906
687.1547
687.0254
686.903
686.7885
686.6832
686.5891
686.5105
686.4556
694.3566
693.8429
693.7073
693.5202
693.3602
693.1988
693.0388
692.8778
692.7154
692.5514
692.3857
692.2182
692.0492
691.8786
691.7065
691.5332
691.3586
691.183
691.0065
690.8293
690.6514
690.4731
690.2944
690.1156
689.9368
689.7581
689.5797
689.4018
689.2245
689.048
688.8726
688.6983
688.5254
688.354
688.1844
688.0168
687.8513
687.6882
687.5277
687.3701
687.2155
687.0643
686.9167
686.7731
686.6338
686.4991
686.3695
686.2454
686.1272
686.0155
685.9107
685.8133
685.7237
685.6422
685.5693
685.5056
685.4523
685.4115
685.3871
685.3872
692.6779
692.1171
691.9596
691.7464
691.5633
691.3803
691.2004
691.0212
690.8425
690.664
690.4857
690.3076
690.1299
689.9526
689.776
689.6001
689.4251
689.2513
689.0787
688.9075
688.7379
688.57
688.404
688.2401
688.0783
687.919
687.7621
687.6078
687.4564
687.3079
687.1624
687.0202
686.8814
686.7461
686.6144
686.4865
686.3626
686.2427
686.127
686.0156
685.9088
685.8066
685.7093
685.6171
685.5302
685.4489
685.3735
685.3042
685.2415
685.1856
685.137
685.096
685.0629
685.0379
685.0214
685.0138
685.0164
685.0309
685.0614
685.1156
690.7937
690.2269
690.0688
689.8567
689.6771
689.4998
689.3279
689.1588
688.9925
688.8287
688.6672
688.5081
688.3516
688.1976
688.0464
687.8979
687.7524
687.61
687.4708
687.3348
687.2023
687.0732
686.9476
686.8257
686.7075
686.5931
686.4826
686.3759
686.2732
686.1746
686.08
685.9894
685.9031
685.8209
685.7429
685.6692
685.5998
685.5346
685.4738
685.4174
685.3654
685.318
685.2751
685.2369
685.2036
685.1753
685.1522
685.1346
685.1226
685.1167
685.1171
685.1241
685.1379
685.1588
685.1869
685.2228
685.2676
685.3231
685.3933
685.4863
689.097
688.5722
688.4378
688.2565
688.1085
687.9651
687.8288
687.6971
687.5698
687.4465
687.3271
687.2116
687.0999
686.992
686.8881
686.788
686.6918
686.5995
686.5112
686.4269
686.3465
686.2701
686.1976
686.1289
686.0642
686.0033
685.9462
685.8929
685.8434
685.7976
685.7554
685.7168
685.6819
685.6504
685.6225
685.598
685.577
685.5593
685.5451
685.5342
685.5267
685.5226
685.522
685.5249
685.5315
685.542
685.5565
685.5752
685.5985
685.6266
685.6598
685.6985
685.743
685.7934
685.85
685.9134
685.9847
686.0658
686.1609
686.2782
687.9483
687.4982
687.4037
687.2719
687.1722
687.0783
686.9922
686.9112
686.835
686.7632
686.6956
686.632
686.5722
686.5162
686.464
686.4154
686.3704
686.329
686.2911
686.2565
686.2253
686.1974
686.1726
686.1508
686.1321
686.1164
686.1034
686.0933
686.0859
686.0811
686.0789
686.0792
686.082
686.0872
686.0949
686.1048
686.1171
686.1317
686.1486
686.1679
686.1895
686.2136
686.2402
686.2694
686.3015
686.3366
686.3749
686.4168
686.4626
686.5126
686.5672
686.6269
686.6918
686.7623
686.8387
686.9217
687.0124
687.1128
687.2271
687.3637
687.5144
687.1442
687.0912
687.0099
686.9582
686.9125
686.874
686.8401
686.8104
686.7844
686.7618
686.7424
686.726
686.7126
686.702
686.6941
686.6888
686.6861
686.6859
686.688
686.6924
686.6991
686.7078
686.7186
686.7315
686.7462
686.7628
686.7813
686.8016
686.8237
686.8475
686.873
686.9002
686.9291
686.9598
686.9922
687.0264
687.0623
687.1001
687.1399
687.1816
687.2255
687.2717
687.3203
687.3716
687.4258
687.4832
687.5442
687.609
687.6782
687.7521
687.8312
687.9158
688.0061
688.1026
688.2059
688.3172
688.4385
688.5739
688.7319
687.738
687.4311
687.4106
687.3679
687.3525
687.3427
687.339
687.3392
687.3426
687.3487
687.3574
687.3684
687.3816
687.3968
687.414
687.4331
687.4541
687.4769
687.5014
687.5275
687.5553
687.5847
687.6157
687.6482
687.6822
687.7178
687.7548
687.7933
687.8334
687.875
687.9181
687.9628