/*--------------------------------*- C++ -*----------------------------------*\
| =========                 |                                                 |
| \\      /  F ield         | OpenFOAM: The Open Source CFD Toolbox           |
|  \\    /   O peration     | Version:  2312                                  |
|   \\  /    A nd           | Website:  www.openfoam.com                      |
|    \\/     M anipulation  |                                                 |
\*---------------------------------------------------------------------------*/
FoamFile
{
    version     2.0;
    format      ascii;
    arch        "LSB;label=32;scalar=64";
    class       volScalarField;
    location    "3750";
    object      ILambda_11_0;
}
// * * * * * * * * * * * * * * * * * * * * * * * * * * * * * * * * * * * * * //

dimensions      [1 0 -3 0 0 0 0];

internalField   nonuniform List<scalar> 
12000
(
573.5688
571.6336
570.6589
569.4603
568.3121
567.1513
565.9945
564.8397
563.6896
562.5454
561.4088
560.2816
559.1652
558.0614
556.9716
555.8974
554.8403
553.8019
552.7836
551.7867
550.8127
549.8629
548.9384
548.0405
547.1703
546.3289
545.5171
544.736
543.9863
543.2686
542.5838
541.9322
541.3142
540.7303
540.1806
539.6652
539.1843
538.7376
538.325
537.9461
537.6004
537.2875
537.0066
536.7569
536.5374
536.3471
536.1848
536.0496
535.94
535.8542
535.791
535.7488
535.7265
535.722
535.734
535.7612
535.8024
535.8571
535.925
536.0075
596.677
595.1797
594.3862
593.3964
592.4129
591.389
590.3365
589.2539
588.1429
587.0046
585.8403
584.6514
583.4395
582.206
580.9526
579.681
578.393
577.0904
575.7749
574.4486
573.1134
571.7713
570.4245
569.0748
567.7245
566.3758
565.0308
563.6916
562.3605
561.0396
559.7313
558.4378
557.1612
555.9038
554.6677
553.4552
552.2684
551.1095
549.9804
548.8832
547.8199
546.7924
545.8024
544.8517
543.942
543.0747
542.2513
541.473
540.7411
540.0564
539.4198
538.832
538.2936
537.8049
537.3662
536.9777
536.6399
536.3536
536.1205
535.942
603.5464
602.8156
602.4331
601.9394
601.4314
600.8853
600.3059
599.6915
599.0424
598.3584
597.6396
596.886
596.0979
595.2756
594.4194
593.53
592.6077
591.6532
590.6674
589.6508
588.6045
587.5295
586.4266
585.297
584.1419
582.9625
581.7601
580.5361
579.2919
578.0289
576.7488
575.4532
574.1436
572.8219
571.4898
570.1492
568.8019
567.45
566.0954
564.7402
563.3865
562.0366
560.6927
559.3571
558.0323
556.7207
555.4248
554.1472
552.8907
551.6579
550.4517
549.2749
548.1304
547.0213
545.9509
544.9225
543.94
543.0081
542.1328
541.3213
606.8
606.5904
606.5103
606.3852
606.2456
606.0818
605.8941
605.6812
605.4419
605.1754
604.8806
604.5566
604.2026
603.8178
603.4015
602.953
602.4717
601.9572
601.4089
600.8266
600.21
599.5589
598.8732
598.1529
597.3982
596.6091
595.786
594.9292
594.0392
593.1165
592.1617
591.1755
590.1586
589.1119
588.0362
586.9325
585.8017
584.645
583.4633
582.2578
581.0297
579.7802
578.5105
577.2219
575.9159
574.5937
573.2568
571.9067
570.545
569.1734
567.7936
566.4075
565.0171
563.6248
562.233
560.8445
559.4629
558.0928
556.7408
555.417
606.2927
606.2705
606.3185
606.3552
606.3912
606.4209
606.444
606.4592
606.4656
606.4621
606.4474
606.4206
606.3802
606.325
606.2538
606.1651
606.0578
605.9304
605.7815
605.6099
605.4143
605.1933
604.9458
604.6706
604.3665
604.0326
603.668
603.2716
602.8429
602.3812
601.8858
601.3565
600.7929
600.1947
599.5621
598.8949
598.1933
597.4578
596.6885
595.886
595.0509
594.1839
593.2856
592.357
591.3988
590.412
589.3976
588.3565
587.2899
586.1986
585.0838
583.9465
582.788
581.6093
580.4116
579.1965
577.9659
576.7228
575.4725
574.2248
605.4713
605.3336
605.3321
605.3141
605.3079
605.3045
605.3055
605.3105
605.3195
605.3325
605.3494
605.3698
605.3934
605.4198
605.4484
605.4785
605.5093
605.5399
605.5693
605.5964
605.62
605.6386
605.651
605.6556
605.6509
605.6352
605.6069
605.5642
605.5054
605.4288
605.3327
605.2153
605.0749
604.9101
604.7191
604.5005
604.2531
603.9754
603.6665
603.3252
602.9509
602.5428
602.1004
601.6235
601.1119
600.5656
599.985
599.3705
598.7227
598.0425
597.3307
596.5887
595.8177
595.0193
594.1952
593.3475
592.4788
591.5927
590.6954
589.798
606.11
605.8002
605.7051
605.572
605.4523
605.3315
605.2131
605.0967
604.9831
604.873
604.7671
604.6662
604.571
604.4822
604.4004
604.3263
604.2606
604.2036
604.1559
604.1178
604.0895
604.0712
604.063
604.0646
604.0759
604.0965
604.1259
604.1632
604.2078
604.2586
604.3143
604.3738
604.4356
604.4979
604.5592
604.6175
604.6708
604.7171
604.7542
604.7798
604.7917
604.7875
604.7651
604.7221
604.6564
604.5657
604.4481
604.3017
604.1247
603.9157
603.6732
603.3962
603.0839
602.7358
602.3519
601.9326
601.4791
600.994
600.4829
599.9573
608.1611
607.7367
607.5898
607.3901
607.2069
607.02
606.8328
606.6437
606.4528
606.2599
606.065
605.8684
605.6702
605.4707
605.2705
605.0701
604.8702
604.6714
604.4746
604.2806
604.0906
603.9054
603.7262
603.554
603.39
603.2354
603.0912
602.9585
602.8384
602.7319
602.64
602.5633
602.5027
602.4587
602.4317
602.4221
602.43
602.4552
602.4974
602.5562
602.6308
602.7204
602.8236
602.9392
603.0655
603.2007
603.3428
603.4894
603.6381
603.7865
603.9316
604.0707
604.2008
604.3189
604.4221
604.5077
604.5734
604.6182
604.6435
604.6573
611.5163
610.8517
610.6061
610.2888
610.0086
609.7346
609.4716
609.2168
608.9693
608.7279
608.4913
608.2586
608.0287
607.8004
607.5728
607.3449
607.116
606.8852
606.6519
606.4155
606.1755
605.9316
605.6838
605.4319
605.176
604.9164
604.6536
604.3882
604.1208
603.8523
603.5839
603.3167
603.0519
602.7912
602.536
602.2879
602.0488
601.8204
601.6046
601.4032
601.2181
601.0513
600.9044
600.7793
600.6776
600.6009
600.5505
600.5277
600.5335
600.5687
600.6339
600.7294
600.8552
601.0111
601.1964
601.4107
601.6532
601.9241
602.2251
602.5622
617.7332
616.5706
616.0757
615.4627
614.911
614.3746
613.8634
613.3744
612.9079
612.4635
612.0406
611.6388
611.2572
610.8951
610.5513
610.2248
609.9143
609.6186
609.3361
609.0655
608.8052
608.5535
608.3088
608.0695
607.834
607.6005
607.3676
607.1336
606.8972
606.6569
606.4116
606.16
605.9013
605.6347
605.3595
605.0754
604.782
604.4796
604.1683
603.8486
603.5213
603.1874
602.8481
602.505
602.1599
601.8147
601.4717
601.1335
600.8026
600.4821
600.175
599.8843
599.6135
599.3659
599.145
598.9546
598.7987
598.6822
598.6118
598.5971
628.2279
626.6099
625.8456
624.9066
624.0267
623.1499
622.2902
621.4463
620.6205
619.8142
619.0291
618.2666
617.5283
616.8152
616.1285
615.4692
614.8379
614.2353
613.6617
613.1174
612.6023
612.1162
611.6587
611.2293
610.827
610.451
610.1
609.7726
609.4674
609.1826
608.9164
608.6667
608.4315
608.2087
607.9958
607.7907
607.5909
607.3941
607.1978
606.9999
606.7981
606.5902
606.3741
606.1481
605.9105
605.6597
605.3946
605.1141
604.8178
604.505
604.176
603.8309
603.4704
603.0954
602.7074
602.3084
601.9014
601.4906
601.0826
600.6894
641.0049
639.4346
638.6491
637.6748
636.7274
635.7557
634.7727
633.7772
632.7721
631.7594
630.7415
629.7209
628.7001
627.6818
626.6685
625.6628
624.6673
623.6845
622.717
621.7672
620.8374
619.9301
619.0472
618.191
617.3632
616.5656
615.7997
615.0671
614.3687
613.7057
613.0788
612.4884
611.935
611.4185
610.9387
610.4952
610.0874
609.7142
609.3745
609.0669
608.7897
608.5411
608.319
608.1211
607.9449
607.788
607.6476
607.5208
607.4049
607.2969
607.1939
607.0928
606.9907
606.8844
606.7713
606.6488
606.5151
606.3695
606.214
606.0566
651.2604
650.2676
649.7706
649.1353
648.4944
647.8139
647.1003
646.352
645.5698
644.7544
643.9067
643.0278
642.1192
641.1822
640.2184
639.2297
638.2179
637.1851
636.1335
635.0655
633.9834
632.89
631.7879
630.6798
629.5685
628.4569
627.348
626.2447
625.15
624.0669
622.9983
621.9473
620.9166
619.9092
618.9278
617.975
617.0535
616.1655
615.3134
614.4992
613.7249
612.9922
612.3025
611.6571
611.057
610.503
609.9957
609.5354
609.1221
608.7555
608.4352
608.1603
607.9295
607.7413
607.5939
607.4856
607.4149
607.3805
607.3835
607.4288
655.791
655.451
655.3246
655.1355
654.933
654.7
654.4374
654.1428
653.815
653.4531
653.056
652.6231
652.1536
651.6471
651.103
650.521
649.9009
649.2427
648.5464
647.8124
647.0409
646.2326
645.3882
644.5085
643.5946
642.6477
641.6692
640.6605
639.6233
638.5596
637.4714
636.3609
635.2305
634.0826
632.92
631.7455
630.562
629.3727
628.1807
626.9894
625.8022
624.6224
623.4538
622.2997
621.164
620.0501
618.9618
617.9027
616.8765
615.8866
614.9364
614.0293
613.1682
612.356
611.5953
610.889
610.24
609.6517
609.1289
608.679
655.5677
655.551
655.632
655.6989
655.7642
655.8191
655.8625
655.8923
655.907
655.9052
655.8856
655.8468
655.7876
655.7066
655.6025
655.4738
655.3192
655.1374
654.9271
654.687
654.4158
654.1123
653.7755
653.4041
652.9971
652.5535
652.0724
651.5531
650.9949
650.397
649.7592
649.081
648.3623
647.6032
646.8037
645.9642
645.0854
644.1678
643.2125
642.2207
641.1937
640.1331
639.0407
637.9187
636.7694
635.5953
634.3993
633.1843
631.9538
630.7111
629.4599
628.2041
626.9476
625.6943
624.4484
623.2147
621.9982
620.8051
619.6435
618.5251
653.7605
653.74
653.8356
653.9258
654.0257
654.1271
654.2296
654.332
654.4337
654.5341
654.6328
654.7291
654.8226
654.9126
654.9983
655.0791
655.154
655.2221
655.2826
655.3343
655.3761
655.407
655.4256
655.4306
655.4206
655.3942
655.35
655.2862
655.2014
655.0939
654.9621
654.8043
654.6188
654.4039
654.1581
653.8798
653.5674
653.2193
652.8344
652.4111
651.9484
651.4451
650.9004
650.3134
649.6837
649.0108
648.2946
647.5351
646.7327
645.8879
645.0014
644.0743
643.1076
642.1029
641.0616
639.9861
638.8793
637.7455
636.5917
635.431
652.3909
652.2949
652.3461
652.3845
652.4325
652.4811
652.5308
652.581
652.6316
652.683
652.7354
652.7891
652.8446
652.902
652.9617
653.024
653.089
653.1569
653.2279
653.302
653.3792
653.4594
653.5425
653.6283
653.7163
653.8063
653.8976
653.9896
654.0816
654.1727
654.262
654.3486
654.4311
654.5084
654.5792
654.6421
654.6955
654.7379
654.7677
654.7832
654.7827
654.7643
654.7263
654.6669
654.5843
654.4768
654.3425
654.1798
653.9871
653.7628
653.5055
653.2136
652.8859
652.5208
652.1172
651.6744
651.1921
650.6714
650.1159
649.5358
651.3065
651.2411
651.3013
651.3487
651.3993
651.4451
651.4863
651.5222
651.5527
651.5782
651.5989
651.6154
651.6282
651.6378
651.6449
651.65
651.6539
651.6571
651.6604
651.6644
651.6698
651.6773
651.6875
651.701
651.7185
651.7405
651.7674
651.7998
651.838
651.8824
651.9333
651.9908
652.0551
652.1263
652.2042
652.2889
652.3801
652.4775
652.5807
652.6894
652.803
652.9208
653.0421
653.1661
653.292
653.4188
653.5454
653.6709
653.7941
653.9137
654.0284
654.137
654.2379
654.3293
654.4097
654.4776
654.532
654.5729
654.602
654.6266
649.496
649.5487
649.6739
649.7974
649.9198
650.0359
650.1447
650.2452
650.3369
650.4197
650.4936
650.5586
650.6149
650.6628
650.7024
650.7341
650.7583
650.7754
650.7858
650.7899
650.7884
650.7818
650.7706
650.7555
650.7371
650.7159
650.6928
650.6682
650.6431
650.6179
650.5935
650.5705
650.5496
650.5315
650.5169
650.5066
650.5011
650.5012
650.5075
650.5207
650.5413
650.57
650.6072
650.6536
650.7096
650.7757
650.8524
650.94
651.0389
651.1494
651.2716
651.4058
651.5517
651.7093
651.8783
652.0585
652.2503
652.4548
652.6749
652.9175
646.559
646.7096
646.8968
647.0943
647.2921
647.4866
647.6761
647.8594
648.0358
648.2049
648.3663
648.5198
648.6651
648.8022
648.931
649.0513
649.1632
649.2667
649.3617
649.4483
649.5266
649.5966
649.6585
649.7124
649.7583
649.7966
649.8273
649.8507
649.867
649.8766
649.8796
649.8765
649.8676
649.8534
649.8342
649.8105
649.783
649.7521
649.7186
649.683
649.6462
649.6088
649.5717
649.5358
649.5021
649.4714
649.4449
649.4236
649.4087
649.4013
649.4026
649.4138
649.4358
649.4696
649.5163
649.5772
649.6538
649.7491
649.8676
650.0184
643.0023
643.1608
643.3636
643.5806
643.8029
644.0263
644.2491
644.4701
644.6886
644.9039
645.1157
645.3237
645.5276
645.7273
645.9225
646.1131
646.299
646.48
646.656
646.8268
646.9923
647.1525
647.307
647.4558
647.5986
647.7353
647.8658
647.9898
648.1073
648.2179
648.3215
648.418
648.5072
648.589
648.6633
648.7299
648.7889
648.8403
648.884
648.9202
648.949
648.9706
648.9853
648.9933
648.9953
648.9916
648.9828
648.9698
648.9532
648.9339
648.913
648.8914
648.87
648.85
648.8324
648.8185
648.8105
648.8114
648.8266
648.8667
639.7487
639.8097
639.9717
640.1412
640.3235
640.511
640.7027
640.897
641.0931
641.2905
641.4887
641.6874
641.8863
642.0853
642.2842
642.4828
642.681
642.8788
643.0761
643.2728
643.4688
643.6639
643.8581
644.0512
644.2431
644.4336
644.6225
644.8097
644.9949
645.1779
645.3585
645.5364
645.7113
645.8829
646.051
646.2152
646.3752
646.5308
646.6815
646.8273
646.9676
647.1024
647.2314
647.3544
647.4712
647.5819
647.6863
647.7845
647.8766
647.9628
648.0433
648.1184
648.1883
648.2532
648.3136
648.3701
648.424
648.4776
648.5355
648.6076
637.7895
637.6361
637.6971
637.7464
637.8205
637.9041
637.9976
638.0991
638.2076
638.3225
638.4431
638.569
638.6998
638.8352
638.9749
639.1188
639.2665
639.418
639.573
639.7314
639.8932
640.0581
640.2259
640.3967
640.5702
640.7463
640.9249
641.1057
641.2888
641.4739
641.661
641.8497
642.0401
642.2319
642.425
642.6192
642.8142
643.0101
643.2065
643.4032
643.6002
643.7972
643.994
644.1905
644.3866
644.582
644.7768
644.9707
645.1638
645.356
645.5472
645.7374
645.9264
646.1141
646.3002
646.485
646.6691
646.8541
647.0435
647.2457
638.1989
637.6992
637.5898
637.4346
637.3204
637.2195
637.1355
637.0656
637.0092
636.9653
636.9336
636.9134
636.9042
636.9058
636.9178
636.9397
636.9713
637.0123
637.0624
637.1213
637.1886
637.2641
637.3474
637.4382
637.5362
637.6411
637.7526
637.8703
637.9941
638.1235
638.2584
638.3984
638.5434
638.6931
638.8473
639.0058
639.1685
639.3351
639.5057
639.68
639.858
640.0397
640.2251
640.4142
640.607
640.8037
641.0043
641.2091
641.4183
641.632
641.8505
642.074
642.3025
642.5362
642.7751
643.0196
643.2705
643.5295
643.8001
644.0901
642.0035
641.0622
640.7252
640.2955
639.9221
639.5627
639.2247
638.9048
638.6029
638.3183
638.0509
637.8003
637.5665
637.3492
637.1482
636.9635
636.7949
636.6422
636.5051
636.3836
636.2772
636.1858
636.1089
636.0463
635.9976
635.9623
635.94
635.9304
635.9328
635.9469
635.9722
636.0083
636.0546
636.1106
636.176
636.2503
636.3329
636.4237
636.522
636.6277
636.7404
636.8598
636.9857
637.1179
637.2564
637.401
637.5519
637.709
637.8726
638.0429
638.22
638.4044
638.5961
638.7955
639.0027
639.2185
639.4439
639.681
639.9339
640.2107
649.6379
648.2712
647.7042
646.9953
646.3507
645.7152
645.0997
644.5006
643.9182
643.3526
642.8038
642.2721
641.7578
641.2612
640.7826
640.3224
639.8807
639.458
639.0544
638.6701
638.3053
637.9601
637.6344
637.3284
637.0419
636.7749
636.5273
636.2987
636.0891
635.8981
635.7254
635.5708
635.4337
635.3139
635.2109
635.1242
635.0533
634.9979
634.9574
634.9312
634.919
634.9202
634.9344
634.9611
634.9998
635.0504
635.1123
635.1854
635.2694
635.3641
635.4694
635.5852
635.7112
635.8473
635.9933
636.1496
636.317
636.4971
636.6941
636.9162
660.4428
658.7999
658.0726
657.1673
656.3246
655.4816
654.6512
653.8295
653.0175
652.2154
651.4236
650.6427
649.8735
649.1165
648.3725
647.6423
646.9266
646.226
645.5414
644.8733
644.2223
643.5891
642.9741
642.3779
641.801
641.2437
640.7064
640.1895
639.6933
639.2179
638.7637
638.3308
637.9192
637.5292
637.1608
636.814
636.4887
636.1849
635.9026
635.6415
635.4016
635.1828
634.9847
634.8072
634.6502
634.5134
634.3966
634.2996
634.2222
634.1643
634.1255
634.1057
634.1045
634.1215
634.1564
634.2091
634.2799
634.3704
634.4838
634.6285
672.76
671.07
670.3004
669.3407
668.4334
667.5155
666.5996
665.6822
664.7641
663.8456
662.9274
662.0101
661.0945
660.1815
659.272
658.3669
657.4671
656.5736
655.6872
654.8089
653.9395
653.0798
652.2308
651.3931
650.5676
649.7551
648.9561
648.1716
647.4021
646.6484
645.911
645.1906
644.4878
643.8033
643.1374
642.4909
641.8642
641.2577
640.6721
640.1078
639.5652
639.0447
638.5468
638.0718
637.6203
637.1926
636.7891
636.4102
636.0564
635.7279
635.4252
635.1484
634.8979
634.6736
634.4757
634.3045
634.1609
634.0463
633.9645
633.9233
684.5255
683.0228
682.3366
681.4753
680.6507
679.8071
678.9552
678.0916
677.2171
676.3319
675.4363
674.5312
673.6173
672.6954
671.7663
670.8309
669.8903
668.9453
667.9967
667.0456
666.0929
665.1393
664.1859
663.2334
662.2827
661.3348
660.3903
659.4501
658.515
657.5859
656.6636
655.7487
654.8422
653.9449
653.0574
652.1805
651.3152
650.462
649.6219
648.7955
647.9837
647.1873
646.407
645.6438
644.8984
644.1717
643.4646
642.778
642.1129
641.4701
640.8507
640.2554
639.6851
639.1405
638.6224
638.1318
637.6702
637.2399
636.845
636.4938
693.8994
692.7617
692.2589
691.6181
690.9974
690.3537
689.6939
689.0152
688.3178
687.6017
686.8671
686.1144
685.3441
684.5568
683.7533
682.9342
682.1002
681.2522
680.3908
679.5169
678.6312
677.7345
676.8277
675.9114
674.9864
674.0536
673.1137
672.1675
671.2158
670.2593
669.2989
668.3354
667.3695
666.402
665.4338
664.4656
663.4983
662.5326
661.5694
660.6096
659.654
658.7034
657.7587
656.8209
655.8909
654.9698
654.0584
653.1579
652.2694
651.3939
650.5326
649.6866
648.8569
648.0446
647.2506
646.4764
645.7237
644.9953
644.2957
643.6332
699.7507
699.0474
698.7744
698.4122
698.058
697.6821
697.2879
696.8728
696.4363
695.9779
695.4974
694.995
694.4705
693.9244
693.3567
692.7678
692.1581
691.528
690.8779
690.2081
689.5192
688.8116
688.0859
687.3424
686.5818
685.8045
685.0112
684.2024
683.3787
682.5408
681.6892
680.8247
679.9479
679.0595
678.1602
677.2507
676.3319
675.4043
674.4689
673.5265
672.5778
671.6237
670.665
669.7028
668.7378
667.7712
666.8038
665.8369
664.8713
663.9084
662.9491
661.9946
661.0459
660.1041
659.1701
658.2454
657.3319
656.4322
655.5511
654.6969
701.9959
701.6637
701.5966
701.486
701.3795
701.2583
701.1226
700.9701
700.7998
700.6108
700.4026
700.1746
699.9265
699.6582
699.3692
699.0596
698.7291
698.3777
698.0053
697.6118
697.1971
696.7613
696.3044
695.8263
695.3271
694.807
694.2659
693.7042
693.1219
692.5192
691.8965
691.2541
690.5921
689.9112
689.2115
688.4936
687.7579
687.005
686.2354
685.4497
684.6486
683.8327
683.0028
682.1597
681.3041
680.437
679.5594
678.6721
677.7763
676.873
675.9633
675.0483
674.1291
673.2066
672.2818
671.3562
670.4316
669.5109
668.5986
667.7038
701.5947
701.4728
701.5313
701.5758
701.6281
701.6749
701.7151
701.7465
701.7678
701.7783
701.777
701.7634
701.7368
701.6969
701.6431
701.575
701.4922
701.3941
701.2804
701.1506
701.0042
700.8409
700.66
700.4614
700.2444
700.0088
699.7541
699.4799
699.186
698.8721
698.5379
698.1831
697.8075
697.411
696.9936
696.555
696.0952
695.6144
695.1125
694.5897
694.0462
693.4822
692.8979
692.2939
691.6705
691.0283
690.3679
689.6899
688.9951
688.2844
687.5585
686.8184
686.0649
685.2988
684.521
683.7329
682.9362
682.1337
681.3302
680.5354
700.0248
699.9433
700.0353
700.1225
700.2244
700.3279
700.4321
700.5351
700.6357
700.7334
700.8274
700.9173
701.0026
701.083
701.1581
701.2275
701.2908
701.3475
701.3971
701.4393
701.4734
701.499
701.5154
701.5221
701.5185
701.5041
701.4781
701.44
701.3892
701.3251
701.247
701.1545
701.0467
700.9234
700.7837
700.6274
700.4537
700.2623
700.0528
699.8246
699.5775
699.3112
699.0253
698.7197
698.3943
698.0491
697.684
697.2992
696.8948
696.4712
696.0285
695.5671
695.0874
694.5897
694.0745
693.5424
692.9949
692.4343
691.8653
691.2979
698.5138
698.372
698.4382
698.4946
698.571
698.6518
698.7371
698.8251
698.9149
699.0062
699.0987
699.1922
699.2865
699.3816
699.4774
699.5737
699.6705
699.7674
699.8645
699.9612
700.0576
700.1531
700.2475
700.3403
700.4313
700.5199
700.6057
700.6883
700.767
700.8414
700.911
700.9752
701.0333
701.0849
701.1294
701.166
701.1942
701.2135
701.2231
701.2225
701.211
701.1882
701.1534
701.1062
701.046
700.9724
700.8851
700.7837
700.6678
700.5373
700.392
700.2316
700.0558
699.8645
699.6574
699.4348
699.1974
698.9469
698.6873
698.4282
697.5756
697.359
697.3863
697.3948
697.4253
697.4595
697.4984
697.5401
697.5841
697.6302
697.6783
697.7284
697.7808
697.8354
697.8924
697.9521
698.0144
698.0795
698.1476
698.2185
698.2924
698.3692
698.449
698.5315
698.6168
698.7048
698.7952
698.888
698.9829
699.0798
699.1784
699.2785
699.3798
699.4819
699.5847
699.6877
699.7906
699.893
699.9946
700.0949
700.1935
700.2901
700.3841
700.4753
700.5632
700.6474
700.7276
700.8035
700.8747
700.9408
701.0017
701.0569
701.106
701.1485
701.1842
701.2127
701.2347
701.2513
701.2662
701.2878
697.0933
696.8384
696.8427
696.8232
696.8248
696.8282
696.8348
696.8424
696.8509
696.86
696.8697
696.8801
696.8914
696.9039
696.9177
696.9332
696.9506
696.97
696.9918
697.016
697.0429
697.0726
697.1053
697.1411
697.1801
697.2225
697.2682
697.3175
697.3703
697.4268
697.487
697.5509
697.6186
697.69
697.7652
697.8441
697.9268
698.0132
698.1033
698.197
698.2943
698.3951
698.4993
698.607
698.7181
698.8325
698.9503
699.0714
699.1959
699.3236
699.4547
699.589
699.7264
699.8667
700.0098
700.1556
700.3048
700.4588
700.6211
700.7994
696.6937
696.4457
696.4499
696.4307
696.4305
696.4307
696.4321
696.4329
696.4328
696.4315
696.429
696.4254
696.4209
696.4158
696.4103
696.4045
696.3988
696.3934
696.3885
696.3842
696.3808
696.3786
696.3775
696.3779
696.3799
696.3837
696.3894
696.3972
696.4072
696.4197
696.4347
696.4523
696.4729
696.4965
696.5232
696.5533
696.5868
696.624
696.665
696.71
696.7591
696.8126
696.8706
696.9334
697.0013
697.0744
697.1532
697.2379
697.3288
697.4263
697.5308
697.6425
697.7617
697.8885
698.0232
698.1663
698.3186
698.4822
698.6605
698.8615
696.0434
695.8351
695.8565
695.8597
695.8792
695.8984
695.9175
695.9348
695.9498
695.9624
695.9724
695.9799
695.9851
695.9882
695.9893
695.9887
695.9865
695.983
695.9783
695.9726
695.9661
695.9589
695.9512
695.9432
695.935
695.9267
695.9185
695.9106
695.9031
695.8961
695.8898
695.8843
695.8799
695.8766
695.8746
695.8741
695.8753
695.8783
695.8834
695.8908
695.9006
695.9132
695.9288
695.9477
695.9702
695.9968
696.0278
696.0636
696.1048
696.1518
696.2051
696.2652
696.3325
696.4075
696.4905
696.5823
696.6841
696.798
696.9282
697.0825
694.9542
694.7993
694.8471
694.8835
694.9344
694.9851
695.0351
695.0829
695.1278
695.1696
695.2082
695.2436
695.2758
695.305
695.3313
695.3548
695.3758
695.3942
695.4103
695.4241
695.4359
695.4458
695.4538
695.4601
695.4648
695.468
695.47
695.4707
695.4703
695.4689
695.4667
695.4638
695.4603
695.4564
695.4522
695.4479
695.4436
695.4395
695.4358
695.4326
695.4302
695.4287
695.4286
695.4299
695.4331
695.4385
695.4464
695.4574
695.4718
695.4902
695.513
695.5408
695.574
695.6129
695.658
695.7101
695.7705
695.8414
695.9269
696.0356
693.4067
693.2954
693.3679
693.4347
693.5161
693.5982
693.6803
693.7607
693.8388
693.9142
693.9867
694.0562
694.1226
694.186
694.2464
694.3039
694.3585
694.4102
694.4591
694.5052
694.5487
694.5895
694.6277
694.6634
694.6966
694.7274
694.7559
694.7822
694.8063
694.8283
694.8484
694.8665
694.8829
694.8977
694.9109
694.9228
694.9334
694.9429
694.9514
694.9592
694.9665
694.9734
694.9802
694.9871
694.9945
695.0028
695.0122
695.0232
695.0363
695.0519
695.0704
695.0924
695.1183
695.1483
695.183
695.2232
695.2699
695.3255
695.3941
695.4844
691.569
691.4681
691.5507
691.6298
691.7256
691.824
691.9242
692.0245
692.1242
692.2228
692.3199
692.4155
692.5094
692.6015
692.6918
692.7801
692.8664
692.9507
693.0329
693.1129
693.1907
693.2662
693.3394
693.4102
693.4786
693.5446
693.6082
693.6693
693.7278
693.784
693.8376
693.8888
693.9376
693.984
694.0281
694.07
694.1098
694.1475
694.1833
694.2174
694.2498
694.2807
694.3105
694.3392
694.3674
694.3951
694.4229
694.4511
694.4801
694.5105
694.5426
694.577
694.6141
694.6543
694.6979
694.7457
694.799
694.8599
694.9327
695.0262
689.7695
689.6336
689.703
689.7661
689.8496
689.9375
690.0297
690.1242
690.2203
690.3176
690.4158
690.5147
690.6141
690.7138
690.8138
690.914
691.0142
691.1143
691.2142
691.3137
691.4128
691.5113
691.609
691.7058
691.8017
691.8964
691.9898
692.0819
692.1724
692.2614
692.3486
692.434
692.5176
692.5992
692.6788
692.7565
692.832
692.9055
692.977
693.0465
693.114
693.1797
693.2436
693.306
693.3671
693.4271
693.4863
693.545
693.6037
693.6627
693.7224
693.7834
693.846
693.9106
693.9775
694.0475
694.1218
694.2025
694.294
694.4049
688.371
688.1636
688.1986
688.2201
688.2656
688.3167
688.3737
688.4348
688.4994
688.5669
688.6373
688.7104
688.786
688.8642
688.9447
689.0276
689.1127
689.2
689.2893
689.3806
689.4737
689.5685
689.6649
689.7627
689.8618
689.9621
690.0632
690.1652
690.2679
690.371
690.4745
690.5781
690.6818
690.7853
690.8886
690.9915
691.094
691.1958
691.2969
691.3972
691.4967
691.5953
691.6931
691.7901
691.8864
691.9821
692.0774
692.1725
692.2677
692.3632
692.4595
692.5567
692.6552
692.7552
692.8571
692.9614
693.0693
693.1829
693.3062
693.4477
687.6077
687.3167
687.3079
687.2764
687.2715
687.272
687.279
687.2905
687.306
687.3252
687.348
687.3744
687.4042
687.4375
687.4744
687.5148
687.5588
687.6063
687.6574
687.712
687.7701
687.8317
687.8966
687.9649
688.0365
688.1112
688.1891
688.2699
688.3536
688.4402
688.5293
688.6211
688.7152
688.8117
688.9103
689.011
689.1136
689.2181
689.3242
689.432
689.5413
689.6519
689.764
689.8775
689.9924
690.1087
690.2265
690.346
690.4673
690.5906
690.7162
690.8441
690.9747
691.1079
691.244
691.3834
691.5273
691.6774
691.8376
692.016
687.5042
687.141
687.0921
687.0125
686.9606
686.9131
686.8717
686.8341
686.8
686.7692
686.7415
686.7169
686.6956
686.6775
686.6627
686.6514
686.6435
686.6393
686.6387
686.6419
686.6489
686.6597
686.6744
686.6931
686.7157
686.7424
686.773
686.8077
686.8464
686.8891
686.9359
686.9867
687.0414
687.1002
687.1629
687.2295
687.3
687.3744
687.4527
687.5347
687.6205
687.7101
687.8036
687.9008
688.002
688.1071
688.2163
688.3298
688.4477
688.5702
688.6975
688.8298
688.9672
689.1098
689.2578
689.4115
689.5719
689.7409
689.9221
690.1235
687.9327
687.5172
687.4388
687.3235
687.2367
687.1532
687.0749
686.9996
686.927
686.8567
686.7887
686.7229
686.6594
686.5983
686.5395
686.4833
686.4296
686.3787
686.3306
686.2854
686.2433
686.2042
686.1683
686.1358
686.1066
686.0809
686.0587
686.0402
686.0255
686.0146
686.0076
686.0045
686.0056
686.0108
686.0202
686.034
686.0522
686.0749
686.1021
686.134
686.1707
686.2123
686.2589
686.3106
686.3677
686.4304
686.4989
686.5734
686.6542
686.7417
686.836
686.9376
687.0466
687.1631
687.2875
687.4201
687.5621
687.7152
687.8834
688.0744
688.7441
688.29
688.1904
688.0497
687.9382
687.8295
687.7256
687.6242
687.525
687.4276
687.3318
687.2376
687.145
687.0539
686.9644
686.8767
686.7906
686.7064
686.624
686.5435
686.465
686.3886
686.3144
686.2424
686.1727
686.1053
686.0405
685.9782
685.9186
685.8618
685.8078
685.7568
685.7089
685.6643
685.6229
685.5851
685.5508
685.5203
685.4938
685.4713
685.453
685.4392
685.4301
685.4259
685.4269
685.4334
685.4458
685.4644
685.4896
685.5218
685.5615
685.6091
685.6649
685.7291
685.8023
685.8849
685.9781
686.084
686.2065
686.3539
689.8613
689.3716
689.2536
689.0907
688.9582
688.8283
688.7035
688.5812
688.4611
688.3427
688.226
688.1107
687.9968
687.8842
687.7731
687.6633
687.5549
687.4479
687.3423
687.2381
687.1354
687.0341
686.9344
686.8362
686.7396
686.6445
686.5511
686.4594
686.3694
686.2813
686.195
686.1106
686.0283
685.9481
685.8701
685.7945
685.7213
685.6506
685.5827
685.5177
685.4557
685.397
685.3418
685.2903
685.243
685.2
685.1617
685.1287
685.1013
685.08
685.0652
685.0575
685.0573
685.065
685.0809
685.1058
685.1409
685.1884
685.2525
685.3416
691.2792
690.7523
690.6152
690.4292
690.2749
690.1232
689.9769
689.8333
689.6922
689.553
689.4156
689.2798
689.1457
689.013
688.8819
688.7523
688.6242
688.4976
688.3725
688.2488
688.1265
688.0058
687.8864
687.7685
687.652
687.5369
687.4232
687.3109
687.2001
687.0907
686.9828
686.8764
686.7715
686.6682
686.5665
686.4665
686.3682
686.2717
686.1772
686.0846
685.9942
685.9062
685.8206
685.7377
685.6579
685.5813
685.5083
685.4393
685.3747
685.315
685.2606
685.212
685.1696
685.1337
685.1048
685.0836
685.0714
685.0703
685.0845
685.1226
692.9963
692.4353
692.2799
692.0719
691.8964
691.7233
691.5555
691.3904
691.2277
691.0669
690.908
690.7508
690.5952
690.4412
690.2888
690.1381
689.989
689.8415
689.6956
689.5513
689.4086
689.2676
689.1281
688.9902
688.8539
688.7192
688.586
688.4544
688.3244
688.1959
688.069
687.9436
687.8198
687.6976
687.577
687.458
687.3407
687.2251
687.1112
686.9992
686.8891
686.781
686.6751
686.5716
686.4706
686.3724
686.2772
686.1855
686.0975
686.0137
685.9345
685.8602
685.7913
685.728
685.6708
685.6202
685.5775
685.5448
685.5262
685.5302
694.9442
694.3628
694.1953
693.9727
693.7824
693.5939
693.4102
693.2286
693.0488
692.8706
692.6937
692.5181
692.3437
692.1706
691.9987
691.8282
691.659
691.4913
691.3249
691.16
690.9965
690.8345
690.6741
690.5151
690.3578
690.202
690.0477
689.8951
689.7442
689.5948
689.4472
689.3012
689.157
689.0144
688.8737
688.7348
688.5977
688.4625
688.3292
688.1979
688.0687
687.9416
687.8169
687.6947
687.5751
687.4583
687.3447
687.2346
687.1281
687.0258
686.928
686.8351
686.7474
686.6651
686.5886
686.5185
686.4559
686.4029
686.3634
686.3459
696.9651
696.3868
696.2185
695.9952
695.8028
695.6116
695.4241
695.2377
695.0523
694.8674
694.6829
694.4988
694.3151
694.1317
693.9488
693.7664
693.5846
693.4035
693.223
693.0432
692.8643
692.6863
692.5091
692.333
692.1578
691.9838
691.8109
691.6392
691.4688
691.2997
691.132
690.9658
690.801
690.6378
690.4763
690.3164
690.1583
690.002
689.8477
689.6954
689.5451
689.3972
689.2516
689.1086
688.9684
688.8312
688.6973
688.5671
688.4407
688.3186
688.2013
688.089
687.9821
687.8809
687.7856
687.6968
687.6158
687.5445
687.4868
687.4509
698.8418
698.2932
698.1381
697.931
697.7529
697.5751
697.3999
697.2248
697.0495
696.8737
696.6971
696.5198
696.3417
696.1628
695.9833
695.8031
695.6224
695.4412
695.2596
695.0777
694.8955
694.7131
694.5306
694.348
694.1654
693.983
693.8008
693.6189
693.4374
693.2564
693.0759
692.8961
692.717
692.5388
692.3616
692.1855
692.0105
691.8368
691.6645
691.4938
691.3247
691.1575
690.9924
690.8295
690.6691
690.5115
690.357
690.206
690.0587
689.9157
689.7773
689.644
689.516
689.3938
689.2776
689.168
689.0662
688.9743
688.8962
688.8401
700.3569
699.8604
699.7312
699.5555
699.4065
699.2575
699.1102
698.9622
698.8131
698.6624
698.51
698.3559
698.1999
698.0421
697.8826
697.7214
697.5584
697.3938
697.2277
697.06
696.8908
696.7202
696.5483
696.3752
696.2008
696.0254
695.849
695.6716
695.4935
695.3146
695.1352
694.9552
694.7749
694.5943
694.4135