/*--------------------------------*- C++ -*----------------------------------*\
| =========                 |                                                 |
| \\      /  F ield         | OpenFOAM: The Open Source CFD Toolbox           |
|  \\    /   O peration     | Version:  2312                                  |
|   \\  /    A nd           | Website:  www.openfoam.com                      |
|    \\/     M anipulation  |                                                 |
\*---------------------------------------------------------------------------*/
FoamFile
{
    version     2.0;
    format      ascii;
    arch        "LSB;label=32;scalar=64";
    class       volScalarField;
    location    "3750";
    object      ILambda_9_0;
}
// * * * * * * * * * * * * * * * * * * * * * * * * * * * * * * * * * * * * * //

dimensions      [1 0 -3 0 0 0 0];

internalField   nonuniform List<scalar> 
12000
(
673.1779
664.8855
660.4322
655.3995
650.982
647.1228
643.9942
641.6619
640.1506
639.4289
639.4191
640.0074
641.0587
642.4317
643.9938
645.6317
647.2575
648.8081
650.24
651.519
652.6083
653.4579
653.9974
654.1354
653.7648
652.7763
651.0761
648.605
645.3568
641.3903
636.8329
631.8743
626.7497
621.7146
617.0156
612.8619
609.4015
606.7082
604.7796
603.5456
602.8838
602.6337
602.6057
602.5822
602.3139
601.5213
599.9102
597.2073
593.2139
587.8624
581.2568
573.6819
565.5806
557.51
550.0833
543.8828
539.3395
536.6145
535.5453
535.686
687.8063
680.6946
676.0094
670.3962
664.7833
659.251
654.0608
649.4185
645.5005
642.4288
640.2635
638.9992
638.5694
638.8587
639.7194
640.9913
642.5219
644.1818
645.875
647.5405
649.1469
650.6787
652.1196
653.4355
654.5609
655.3927
655.7943
655.6089
654.6817
652.8865
650.1534
646.49
641.9937
636.8505
631.3188
625.7016
620.3088
615.419
611.2462
607.9199
605.4815
603.8965
603.0754
602.8932
603.1964
603.7943
604.4374
604.801
604.4912
603.0876
600.2174
595.64
589.3139
581.4319
572.4286
562.9673
553.8825
546.0483
540.1863
536.6515
693.1214
688.1138
684.3729
679.6595
674.549
669.1242
663.6107
658.2311
653.2126
648.7617
645.0466
642.1817
640.2178
639.14
638.8722
639.2897
640.2372
641.549
643.0695
644.6698
646.2574
647.7782
649.2094
650.5459
651.7821
652.8935
653.8228
654.4733
654.7123
654.3853
653.3388
651.448
648.6446
644.9396
640.4349
635.3216
629.8624
624.361
619.1221
614.4104
610.4171
607.2423
604.8965
603.3209
602.4159
602.0645
602.1383
602.4806
602.8763
603.0271
602.5572
601.0579
598.1613
593.6179
587.3585
579.542
570.5855
561.1516
552.0646
544.1385
697.5015
694.5197
691.898
688.3738
684.195
679.4046
674.1476
668.6058
662.9963
657.5535
652.5093
648.0728
644.4107
641.6324
639.7803
638.8287
638.6896
639.2269
640.2759
641.6647
643.2355
644.8614
646.4556
647.9717
649.3955
650.7291
651.971
653.097
654.0453
654.7109
654.9499
654.5965
653.4875
651.493
648.5465
644.6682
639.9775
634.6888
629.091
623.511
618.269
613.6318
609.7781
606.7825
604.6247
603.2187
602.4494
602.1992
602.3492
602.7521
603.1925
603.3604
602.8626
601.2746
598.2167
593.4361
586.8854
578.7698
569.5231
559.7051
699.3816
698.1232
696.6925
694.5552
691.7078
688.1262
683.8473
678.9623
673.6159
667.999
662.3363
656.8686
651.8321
647.4374
643.8489
641.1704
639.4354
638.607
638.5854
639.2232
640.3464
641.7775
643.3575
644.9626
646.5129
647.9717
649.3355
650.6164
651.8202
652.926
653.8707
654.5434
654.7906
654.4345
653.2999
651.2476
648.2071
644.2021
639.3642
633.9282
628.2082
622.5555
617.3067
612.7308
608.9916
606.1346
604.1055
602.7922
602.072
601.8413
602.0083
602.4516
602.9658
603.2268
602.8019
601.2093
598.0277
593.0338
586.2958
578.1424
699.7994
699.6375
699.1525
698.2101
696.6765
694.468
691.5269
687.8426
683.4563
678.4658
673.0233
667.3279
661.6119
656.1221
651.0986
646.7523
643.245
640.6737
639.0627
638.3639
638.4656
639.2097
640.4137
641.8953
643.4941
645.0892
646.6069
648.0191
649.3313
650.564
651.7293
652.8096
653.7413
654.409
654.6516
654.281
653.1112
650.9935
647.8524
643.7147
638.7243
633.1384
627.3002
621.5899
616.3633
611.8902
608.3125
605.6348
603.756
602.5293
601.8255
601.5669
601.7108
602.1867
602.8117
603.2258
602.8925
601.2164
597.779
592.5782
699.4254
699.7595
699.8593
699.7346
699.229
698.2319
696.6309
694.3388
691.3019
687.5128
683.0182
677.9227
672.3866
666.6169
660.8535
655.3487
650.3454
646.0541
642.6324
640.1703
638.6821
638.1084
638.3266
639.1687
640.4454
641.9704
643.5838
645.1681
646.6557
648.026
649.2924
650.4823
651.6131
652.6699
653.589
654.2516
654.4898
654.1059
652.9021
650.7187
647.4727
643.1916
638.0324
632.2784
626.3086
620.5403
615.3541
611.0202
607.6491
605.1881
603.4713
602.3063
601.5617
601.2128
601.3127
601.8846
602.7618
603.4625
603.242
601.4219
698.8178
699.2431
699.5863
699.8721
699.9853
699.8272
699.2794
698.2234
696.5491
694.169
691.032
687.1347
682.5297
677.3293
671.702
665.8632
660.0596
654.5488
649.5754
645.3483
642.0197
639.6713
638.307
637.8561
638.1855
639.1187
640.4609
642.0237
643.6486
645.222
646.6823
648.0154
649.2411
650.3924
651.4909
652.5245
653.4302
654.0876
654.3234
653.9305
652.6982
650.452
647.0977
642.6607
637.3117
631.3656
625.2478
619.4242
614.3082
610.1678
607.0666
604.8682
603.3127
602.1456
601.2504
600.7171
600.7822
601.6108
603.0149
604.3568
698.2143
698.5905
698.9597
699.359
699.7235
699.9961
700.0889
699.8973
699.3032
698.1858
696.4342
693.962
690.7206
686.7114
681.994
676.6886
670.9726
665.0699
659.2342
653.7269
648.7935
644.6399
641.4118
639.1813
637.9412
637.6098
638.044
639.0603
640.4598
642.054
643.6868
645.2493
646.6852
647.9857
649.1755
650.2916
651.3593
652.3695
653.2619
653.9162
654.1555
653.7631
652.5122
650.2088
646.7415
642.1299
636.5598
630.387
624.0981
618.225
613.2241
609.3566
606.6142
604.7333
603.3147
602.0266
600.816
599.9987
600.1063
601.5049
697.5843
697.9797
698.308
698.691
699.0841
699.4815
699.8408
700.0998
700.1705
699.9453
699.3033
698.1218
696.2893
693.7204
690.37
686.2452
681.413
676.0026
670.2009
664.2401
658.3804
652.8868
648.0044
643.9345
640.8147
638.7066
637.5913
637.3761
637.9088
639.0001
640.4492
642.0687
643.7062
645.2575
646.671
647.9422
649.0986
650.1801
651.2156
652.2005
653.0793
653.7349
653.9883
653.612
652.3591
650.0083
646.4226
641.6112
635.7776
629.3315
622.8429
616.9326
612.1136
608.6312
606.3649
604.8587
603.5187
601.9366
600.1832
598.8241
696.7677
697.3342
697.6668
698.0481
698.4107
698.7917
699.187
699.5818
699.9356
700.1828
700.2327
699.974
699.2829
698.0346
696.1174
693.4473
689.9834
685.7389
680.7896
675.2743
669.3896
663.3766
657.5014
652.0318
647.2111
643.2347
640.2309
638.2495
637.2595
637.1573
637.7827
638.9422
640.4343
642.0744
643.7145
645.2552
646.6485
647.8921
649.015
650.0592
651.0575
652.0122
652.8763
653.5392
653.8218
653.484
652.2519
649.8666
646.155
641.11
634.9578
628.1796
621.458
615.5331
610.99
608.0391
606.3884
605.3164
603.9878
601.8895
695.6253
696.4758
696.8997
697.3651
697.7534
698.1226
698.4879
698.8678
699.264
699.6587
700.0094
700.2473
700.2778
699.9859
699.2447
697.9272
695.9215
693.1458
689.5638
685.196
680.1275
674.5075
668.5429
662.4835
656.6013
651.1655
646.4166
642.5428
639.6617
637.8104
636.9456
636.9531
637.6659
638.8876
640.418
642.0763
643.7192
645.2513
646.6269
647.8439
648.9312
649.9322
650.8849
651.8021
652.6496
653.3281
653.6598
653.3891
652.206
649.8013
645.9526
640.6303
634.0904
626.9102
619.9207
614.0155
609.8604
607.6042
606.7533
606.3627
694.1376
695.2719
695.8514
696.4789
696.9847
697.4239
697.8102
698.1727
698.5362
698.9169
699.316
699.7136
700.0642
700.2952
700.3079
699.9833
699.1909
697.8018
695.7041
692.8185
689.1142
684.6198
679.4304
673.7065
667.6656
661.566
655.685
650.2925
645.6249
641.8615
639.1083
637.3891
636.6481
636.7614
637.5564
638.8355
640.4011
642.0771
643.725
645.2523
646.6134
647.8043
648.852
649.8013
650.6978
651.5686
652.3986
653.1042
653.5105
653.3416
652.2404
649.8312
645.8282
640.1748
633.1694
625.5154
618.2296
612.3814
608.7189
607.3469
692.4269
693.721
694.4607
695.2677
695.9498
696.54
697.0372
697.4614
697.8377
698.1944
698.5567
698.9404
699.3452
699.7487
700.1021
700.3285
700.3249
699.9677
699.123
697.6599
695.4667
692.4673
688.6369
684.0132
678.7021
672.8758
666.7627
660.6296
654.7583
649.4182
644.8402
641.1939
638.5722
636.9855
636.3657
636.5803
637.4524
638.7849
640.3841
642.079
643.7356
645.2625
646.6124
647.7767
648.7794
649.6668
650.4951
651.3112
652.1251
652.8741
653.3862
653.3584
652.3724
649.9693
645.7881
639.7473
632.2073
624.0222
616.3866
610.4369
690.7096
691.9594
692.8011
693.7318
694.5805
695.3481
696.0163
696.5845
697.063
697.4718
697.8375
698.1891
698.5518
698.9407
699.3537
699.7659
700.1247
700.3488
700.3302
699.9407
699.0426
697.503
695.2108
692.0937
688.1338
683.3785
677.9455
672.0191
665.8388
659.6794
653.8263
648.5474
644.0668
640.543
638.0552
636.6
636.0981
636.4091
637.3536
638.7364
640.3687
642.0849
643.7545
645.2859
646.6271
647.7635
648.7143
649.5285
650.2765
651.031
651.8339
652.6473
653.3003
653.453
652.6105
650.2159
645.8293
639.3551
631.218
622.3299
689.2286
690.2126
691.0555
691.9996
692.9381
693.8389
694.672
695.4157
696.0598
696.6052
697.0637
697.4567
697.812
698.1593
698.5237
698.9197
699.3435
699.7671
700.1341
700.3581
700.3259
699.9042
698.9512
697.3325
694.9377
691.699
687.6063
682.7176
677.1631
671.1396
664.8976
658.7195
652.8934
647.6841
643.3078
639.9107
637.558
636.233
635.8452
636.2482
637.2613
638.6925
640.3584
642.0992
643.7866
645.3269
646.6616
647.7672
648.6578
649.3867
650.0427
650.7314
651.5327
652.436
653.2661
653.6333
652.9508
650.5594
645.9624
639.1041
688.1926
688.7263
689.4567
690.2832
691.1935
692.1278
693.0534
693.9344
694.7437
695.4622
696.0812
696.6031
697.0413
697.4185
697.7637
698.1073
698.4747
698.8798
699.3168
699.7548
700.1327
700.359
700.3143
699.8601
698.8507
697.1497
694.6485
691.2843
687.0556
682.0322
676.357
670.2401
663.9425
657.7536
651.9628
646.8309
642.5647
639.2976
637.0806
635.8838
635.6069
636.0985
637.1778
638.6569
640.3584
642.1276
643.8377
645.3912
646.7204
647.7913
648.6122
649.2428
649.7965
650.4188
651.2335
652.2568
653.2996
653.9105
653.4295
651.2285
687.7391
687.7098
688.227
688.8171
689.5728
690.4156
691.3192
692.2426
693.1503
694.0097
694.7949
695.4882
696.0822
696.5807
696.9984
697.3597
697.6949
698.0354
698.4072
698.8234
699.2765
699.7317
700.1234
700.3538
700.2976
699.8104
698.7424
696.9558
694.3442
690.8506
686.4831
681.3239
675.5297
669.3236
662.9769
656.7849
651.0372
645.9896
641.8382
638.7035
636.6222
635.552
635.3838
635.962
637.1067
638.6345
640.3741
642.1759
643.9138
645.4843
646.8084
647.8393
648.5793
649.0987
649.5426
650.1058
650.9609
652.1461
653.4605
654.4709
687.9208
687.2998
687.5348
687.8046
688.2993
688.9319
689.6885
690.5317
691.4265
692.3363
693.226
694.0644
694.8264
695.4953
696.0648
696.5401
696.9374
697.2828
697.6083
697.9466
698.3243
698.7537
699.2253
699.7005
700.1084
700.3448
700.2776
699.7565
698.6275
696.7517
694.0255
690.3987
685.89
680.5947
674.6839
668.3933
662.0042
655.8165
650.1192
645.1614
641.1286
638.1278
636.1823
635.238
635.1778
635.8425
637.053
638.6308
640.4113
642.25
644.0205
645.6118
646.93
647.9135
648.5602
648.9584
649.2972
649.83
650.7777
652.1996
688.7056
687.5444
687.4696
687.3823
687.5483
687.8822
688.3847
689.0284
689.7862
690.6253
691.5111
692.4076
693.2806
694.0994
694.8396
695.4854
696.0315
696.4841
696.8614
697.1911
697.5073
697.8442
698.2291
698.6737
699.1661
699.6639
700.0901
700.3338
700.2557
699.6992
698.5064
696.5377
693.6927
689.9293
685.2776
679.8468
673.8224
667.4527
661.028
654.8517
649.2108
644.3473
640.4358
637.5704
635.7617
634.9444
634.9934
635.7456
637.0229
638.6519
640.4756
642.3552
644.1631
645.7777
647.0872
648.0144
648.5595
648.8413
649.1034
649.6402
689.988
688.4029
688.0342
687.6022
687.4196
687.41
687.5887
687.9418
688.454
689.1028
689.8603
690.6949
691.5721
692.4567
693.3148
694.1161
694.8367
695.4611
695.9849
696.4158
696.7736
697.0881
697.3954
697.7317
698.1249
698.5864
699.1018
699.6242
700.0704
700.3223
700.2329
699.6391
698.3791
696.3134
693.3458
689.4428
684.6472
679.0825
672.9485
666.5057
660.0519
653.8932
648.3137
643.5479
639.76
637.0323
635.3631
634.6761
634.8373
635.6788
637.0232
638.7034
640.5715
642.4951
644.3442
645.9833
647.2804
648.1473
648.5994
648.7996
691.6113
689.7581
689.1489
688.4287
687.9252
687.5757
687.4078
687.4219
687.6164
687.9816
688.5014
689.1534
689.9103
690.7407
691.6105
692.4851
693.3305
694.1168
694.8199
695.425
695.9282
696.3384
696.6773
696.9771
697.2761
697.6124
698.0152
698.4951
699.0352
699.5839
700.0513
700.3114
700.2094
699.5757
698.2451
696.0783
692.9844
688.9398
684.0004
678.3045
672.0658
665.556
659.0795
652.9436
647.4292
642.7639
639.1026
636.5164
634.9919
634.4407
634.7182
635.6503
637.0604
638.7896
640.7014
642.671
644.5647
646.2313
647.5262
648.3825
693.398
691.4413
690.6708
689.7495
688.9922
688.3508
687.861
687.5357
687.3865
687.4173
687.6251
688.0002
688.5261
689.1808
689.9372
690.7642
691.6284
692.4949
693.3302
694.1039
694.792
695.3798
695.8639
696.2546
696.5754
696.8609
697.1521
697.4894
697.9029
698.4027
698.9691
699.5453
700.0345
700.3022
700.1856
699.5089
698.1035
695.8315
692.6083
688.421
683.3391
677.5158
671.1782
664.6078
658.1141
652.0052
646.5589
641.9968
638.4661
636.0279
634.6562
634.2481
634.6461
635.6685
637.1407
638.915
640.8694
642.8888
644.8434
646.5996
695.184
693.2677
692.4239
691.4013
690.482
689.6293
688.8817
688.2609
687.7889
687.4817
687.3491
687.3945
687.6143
687.9981
688.5297
689.1871
689.9435
690.7685
691.6287
692.4894
693.3169
694.0804
694.7557
695.3279
695.7943
696.1665
696.4698
696.7417
697.026
697.3652
697.7908
698.3121
698.9062
699.5108
700.0216
700.2956
700.1618
699.4382
697.9537
695.5727
692.2177
687.8875
682.6657
676.72
670.2898
663.6648
657.1589
651.0803
645.7045
641.2493
637.8554
635.5741
634.3652
634.1088
634.6321
635.7458
637.2784
639.0951
641.0952
643.1942
696.8424
695.0708
694.2341
693.2044
692.2205
691.2526
690.3365
689.4973
688.7628
688.1575
687.7019
687.4113
687.2946
687.354
687.5852
687.9777
688.515
689.1755
689.933
690.7573
691.6153
692.4723
693.294
694.0493
694.7134
695.2713
695.7209
696.0751
696.3617
696.6207
696.8991
697.2418
697.6811
698.2255
698.8487
699.4824
700.0143
700.2928
700.1386
699.3639
697.7959
695.3022
691.8138
687.3416
681.9837
675.9214
669.4049
662.7312
656.2169
650.171
644.8683
640.5244
637.275
635.161
634.1269
634.035
634.6965
635.9116
637.5081
639.3631
698.2941
696.7263
695.9581
694.9956
694.0337
693.044
692.0556
691.0919
690.1808
689.3506
688.6283
688.0379
687.5988
687.325
687.2242
687.2977
687.5406
687.9419
688.4855
689.15
689.9098
690.7349
691.5924
692.4473
693.2648
694.0132
694.667
695.2113
695.6445
695.9812
696.2514
696.4985
696.7723
697.1201
697.5753
698.1449
698.7987
699.4621
700.0144
700.2951
700.1169
699.2868
697.6311
695.0219
691.3993
686.7871
681.2976
675.1248
668.5284
661.8107
655.2912
649.2803
644.0531
639.8245
636.7259
634.7904
633.9504
634.0515
634.8839
636.2251
699.4988
698.1581
697.4978
696.6516
695.7757
694.8407
693.8668
692.8715
691.8786
690.9147
690.008
689.1868
688.4774
687.9027
687.481
687.2247
687.1404
687.2285
687.4834
687.8942
688.4448
689.1144
689.8777
690.7052
691.5637
692.418
693.2325
693.9747
694.6186
695.1491
695.5658
695.8848
696.1391
696.3751
696.6459
697.0011
697.4746
698.0716
698.7577
699.4513
700.0232
700.3038
700.0981
699.2087
697.462
694.7352
690.9788
686.2296
680.6134
674.336
667.6651
660.9079
654.3863
648.412
643.2607
639.1477
636.2055
634.4674
633.8606
634.2094
700.438
699.3282
698.7967
698.0935
697.3438
696.5164
695.6231
694.6741
693.6864
692.681
691.6827
690.7187
689.8175
689.0067
688.3117
687.7542
687.3511
687.1133
687.0462
687.1494
687.4169
687.8377
688.3962
689.0721
689.8403
690.6716
691.5326
692.3875
693.1998
693.936
694.5696
695.0858
695.4852
695.7862
696.0247
696.2507
696.5203
696.8853
697.3797
698.0067
698.7267
699.451
700.0416
700.32
700.084
699.1324
697.2924
694.4475
690.5585
685.6753
679.937
673.5601
666.8202
660.0287
653.5089
647.572
642.4936
638.4935
635.7124
634.1746
701.0995
700.2183
699.8258
699.278
698.6759
697.9871
697.2176
696.3708
695.4566
694.4888
693.4858
692.4702
691.4675
690.5052
689.6115
688.8132
688.1347
687.596
687.2125
686.994
686.9445
687.063
687.3433
687.7747
688.342
689.0252
689.8
690.6368
691.5019
692.3584
693.1689
693.8989
694.5216
695.0224
695.4035
695.6858
695.9089
696.126
696.3965
696.774
697.2922
697.9514
698.7067
699.462
700.0705
700.3452
700.0772
699.0619
697.1281
694.1654
690.1452
685.1304
679.2729
672.8013
665.9994
659.1823
652.6706
646.7691
641.7475
637.8009
701.4716
700.8163
700.5672
700.1806
699.7365
699.203
698.5819
697.8721
697.0778
696.2064
695.2692
694.2821
693.2647
692.2405
691.2356
690.2776
689.394
688.6106
687.9504
687.4319
687.0689
686.8697
686.8378
686.9714
687.2645
687.7068
688.2837
688.9757
689.7586
690.6026
691.4733
692.3325
693.1415
693.8649
694.4755
694.9596
695.3213
695.5846
695.7927
696.0026
696.2765
696.6692
697.2138
697.9072
698.699
699.4854
700.1114
700.3818
700.0815
699.0029
696.976
693.8961
689.7446
684.5978
678.6234
672.0644
665.2136
658.3825
651.8748
645.9516
701.5503
701.1125
701.0067
700.7833
700.5025
700.133
699.6739
699.1214
698.4756
697.7391
696.9176
696.0204
695.0606
694.0554
693.0256
691.9954
690.9912
690.0404
689.1694
688.4031
687.7627
687.2652
686.9228
686.7428
686.7278
686.876
687.1817
687.6351
688.2224
688.9246
689.7174
690.5705
691.4482
692.311
693.1185
693.8345
694.4318
694.8979
695.2393
695.4837
695.6781
695.883
696.1632
696.5741
697.1475
697.8766
698.7053
699.5229
700.1665
700.4334
700.1026
698.9626
696.8434
693.6448
689.3588
684.079
677.9939
671.3619
664.4745
657.6134
701.3532
701.1092
701.1387
701.0739
700.9562
700.7543
700.4645
700.0808
699.6005
699.023
698.3499
697.5854
696.7366
695.8144
694.8334
693.8122
692.7725
691.7392
690.7386
689.7976
688.9417
688.1942
687.5747
687.0985
686.7765
686.6149
686.6159
686.7779
687.0957
687.5606
688.1592
688.8731
689.6777
690.5417
691.4278
692.2946
693.1005
693.8081
694.3907
694.8376
695.1584
695.3847
695.5674
695.7704
696.0604
696.4927
697.097
697.8626
698.7284
699.5772
700.2395
700.5057
700.1477
698.9485
696.7358
693.4144
688.9918
683.585
677.4057
670.7232
700.9317
700.8341
700.9783
701.0553
701.0907
701.052
700.9322
700.7222
700.4171
700.0133
699.5093
698.9056
698.2048
697.4125
696.5374
695.5917
694.5915
693.5565
692.5096
691.4758
690.4815
689.5527
688.7138
687.9864
687.3885
686.9337
686.6313
686.4871
686.503
686.6779
687.0075
687.4841
688.0952
688.8225
689.6408
690.5174
691.413
692.2843
693.0877
693.7856
694.3521
694.7789
695.0795
695.2896
695.464
695.6693
695.9731
696.4298
697.0664
697.8686
698.771
699.6517
700.3353
700.605
700.2239
698.9671
696.6601
693.2181
688.675
683.1958
700.3728
700.3503
700.5737
700.7588
700.9225
701.0295
701.0688
701.0283
700.8996
700.6761
700.3532
699.9283
699.4003
698.7707
698.043
697.224
696.3239
695.3563
694.3388
693.2922
692.2402
691.2084
690.2226
689.3081
688.4878
687.7816
687.2055
686.7715
686.488
686.3599
686.3894
686.5764
686.9178
687.4068
688.0318
688.7744
689.6084
690.4992
691.4052
692.2806
693.0805
693.7671
694.3161
694.7226
695.0044
695.2015
695.3723
695.5852
695.9072
696.3908
697.0601
697.8979
698.8362
699.7499
700.4591
700.7385
700.3411
699.0356
696.6594
693.1874
699.7874
699.7543
700.0094
700.2528
700.5028
700.7209
700.8929
701.003
701.0393
700.9916
700.8518
700.6138
700.2732
699.8276
699.2765
698.6217
697.8682
697.0236
696.0997
695.1116
694.0784
693.0221
691.9672
690.9394
689.9642
689.0656
688.2651
687.5806
687.0263
686.6125
686.3466
686.2333
686.2755
686.4741
686.8274
687.33
687.9707
688.7308
689.5826
690.4891
691.4058
692.2847
693.0795
693.753
694.2836
694.6704
694.9361
695.1251
695.2984
695.5246
695.8689
696.3808
697.0816
697.9528
698.9263
699.8769
700.6205
700.9256
700.5489
699.3152
699.2882
699.1611
699.3958
699.6383
699.9197
700.1983
700.4591
700.6836
700.8566
700.9646
700.9956
700.9399
700.7892
700.5374
700.18
699.7146
699.1412
698.4623
697.6837
696.8145
695.8677
694.8604
693.8128
692.7485
691.6925
690.6706
689.7077
688.8265
688.0467
687.3842
686.8512
686.4566
686.2071
686.1074
686.1613
686.3713
686.7372
687.255
687.9137
688.6939
689.5656
690.4891
691.4167
692.2979
693.0858
693.7446
694.2563
694.6252
694.8791
695.0664
695.2492
695.4945
695.8641
696.4036
697.1332
698.0365
699.0497
700.0509
700.8644
701.3041
698.965
698.6812
698.8492
699.0334
699.287
699.5667
699.8592
700.1458
700.41
700.6355
700.8075
700.9124
700.9384
700.8753
700.7147
700.4501
700.0768
699.5926
698.9976
698.2952
697.492
696.5987
695.63
694.6044
693.5439
692.4731
691.4177
690.4035
689.4544
688.5918
687.8333
687.1927
686.6803
686.3038
686.0692
685.9819
686.047
686.2686
686.6484
687.1835
687.8631
688.6662
689.5603
690.5019
691.4401
692.3221
693.1011
693.7438
694.2371
694.5912
694.8393
695.0324
695.232
695.5013
695.897
696.463
697.222
698.1656
699.2428
700.3631
698.8639
698.3956
698.4664
698.5489
698.7232
698.9463
699.2101
699.4981
699.7948
700.0841
700.3495
700.5752
700.7462
700.8488
700.8707
700.8012
700.6316
700.355
699.9665
699.4639
698.8477
698.122
697.2947
696.3779
695.3879
694.345
693.2729
692.1972
691.1442
690.1393
689.2055
688.3624
687.6255
687.0065
686.5137
686.1539
685.9329
685.857
685.9329
686.1668
686.5625
687.1179
687.8217
688.651
689.5697
690.5305
691.4787
692.3598
693.1279
693.7537
694.2301
694.5741
694.8235
695.0303
695.2532
695.5503
695.975
696.5724
697.3741
698.3869
698.9789
698.3384
698.3036
698.2642
698.3265
698.4496
698.6323
698.8631
699.1308
699.4217
699.7207
700.0118
700.2786
700.5051
700.6759
700.777
700.7956
700.7205
700.5426
700.2544
699.851
699.3302
698.6929
697.9441
697.0929
696.1529
695.1424
694.0834
693.0011
691.9221
690.8732
689.8792
688.962
688.1391
687.4239
686.8257
686.3515
686.0069
685.7981
685.7328
685.8197
686.0674
686.4817
687.0609
687.7931
688.6522
689.598
690.5786
691.5357
692.4139
693.1693
693.778
694.2402
694.5796
694.838
695.0671
695.3215
695.6546
696.1188
696.7615
699.2566
698.4908
698.3652
698.2108
698.1539
698.1566
698.2251
698.3546
698.5402
698.7734
699.0432
699.3364
699.6378
699.9312
700.2002
700.4282
700.5996
700.6999
700.7157
700.6355
700.4495
700.1499
699.7316
699.1925
698.534
697.762
696.887
695.9244
694.8942
693.8202
692.7292
691.6488
690.6058
689.6244
688.7249
687.9228
687.229
686.6509
686.1938
685.8629
685.6652
685.61
685.7087
685.9726
686.409
687.0166
687.7817
688.6744
689.6497
690.6503
691.615
692.4877
693.2285
693.8203
694.2718
694.6141
694.8923
695.1568
695.4584
695.8488
699.6132
698.7895
698.6055
698.3667
698.2095
698.0983
698.0456
698.0533
698.1232
698.254
698.4408
698.6758
698.9481
699.2441
699.5487
699.8453
700.117
700.3472
700.5197
700.6195
700.6329
700.5477
700.3536
700.0425
699.6091
699.0514
698.3715
697.5762
696.6776
695.6928
694.6438
693.5563
692.4584
691.3784
690.3431
689.3759
688.4952
687.7142
687.0415
686.4824
686.041
685.7224
685.5349
685.4901
685.6024
685.8857
686.3487
686.99
687.7929
688.7232
689.7297
690.75
691.7198
692.5841
693.3084
693.8852
694.3337
694.6928
695.0116
695.3451
699.9581
699.1456
698.9442
698.6661
698.4467
698.2519
698.0976
697.9902
697.9375
697.9449
698.0148
698.1463
698.3349
698.5724
698.8479
699.1476
699.456
699.7563
700.0313
700.264
700.4379
700.5375
700.5485
700.4582
700.2558
699.9329
699.4839
698.9072
698.2055
697.3869
696.4649
695.4585
694.3919
693.2923
692.1894
691.1119
690.0864
689.1349
688.2738
687.5142
686.862
686.3208
685.8937
685.5865
685.409
685.3758
685.5043
685.8111
686.3062
686.9869
687.8331
688.8043
689.843
690.8811
691.8524
692.7058
693.4159
693.9878
694.4545
694.8713
700.2183
699.4698
699.2891
699.0184
698.7837
698.5503
698.3337
698.142
697.9866
697.8776
697.8234
697.8301
697.9005
698.0335
698.2245
698.4655
698.7449
699.0489
699.3616
699.666
699.9446
700.18
700.3554
700.4548
700.4633
700.3677
700.1567
699.8214
699.3563
698.7601
698.0363
697.1942
696.2491
695.2221
694.1391
693.0294
691.9234
690.8506
689.8368
688.9025
688.062
687.3238
686.6916
686.1673
685.7536
685.4571
685.2902
685.2705
685.4189
685.7545
686.2878
687.0142
687.9082
688.9226
689.9927
691.0464
692.0187
692.8663
693.5798
694.1892
700.3543
699.695
699.5608
699.3341
699.1266
698.9013
698.6704
698.4402
698.2223
698.0282
697.8701
697.759
697.7037
697.7104
697.782
697.9174
698.1118
698.3568
698.6408
698.9495
699.2669
699.5756
699.858
700.0963
700.2732
700.3722
700.378
700.2768
700.0566
699.7084
699.2267
698.6104
697.8641
696.9986
696.0309
694.9842
693.8864
692.7684
691.6618
690.5959
689.5958
688.6802
687.8612
687.1445
686.5319
686.0237
685.6228
685.3374
685.1824
685.1792
685.3522
685.7225
686.3004
687.0777
688.0231
689.0823
690.1849
691.2579
692.245
693.127
700.3668
699.7913
699.7118
699.5471
699.3946
699.2141
699.0122
698.7914
698.5597
698.3272
698.1061
697.909
697.7484
697.6356
697.58
697.5876
697.6612
697.7997
697.9982
698.2478
698.5367
698.8505
699.1727
699.486
699.7722
700.0133
700.1917
700.2902
700.293
700.1857
699.9558
699.5941
699.095
698.4582
697.6892
696.8003
695.8107
694.7456
693.6348
692.5109
691.4061
690.3496
689.3653
688.4701
687.6734
686.9785
686.3851
685.8927
685.5047
685.2312
685.0905
685.1078
685.3106
685.7215
686.3497
687.1833
688.1852
689.2954
690.4438
691.5729
700.2905
699.769
699.7349
699.6293
699.5394
699.4219
699.2774
699.103
698.9018
698.6796
698.4452
698.2095
697.9851
697.7852
697.6227
697.5092
697.4538
697.4631
697.5395
697.6817
697.8847
698.1393
698.4335
698.7526
699.0799
699.3978
699.6879
699.9318
700.1114
700.2093
700.2087
700.0948
699.8547
699.4787
698.9616
698.3037
697.5119
696.6
695.5894
694.5074
693.3858
692.2585
691.1583
690.1139
689.1479
688.2747
687.5014
686.8287
686.2546
685.7781
685.4036
685.1437
685.0203
685.0621
685.3
685.7582
686.4449
687.3447
688.4178
689.6098
700.1805
699.6698
699.6594
699.593
699.554
699.4966
699.4169
699.3073
699.1654
698.9914
698.7888
698.5641
698.3267
698.0879
697.8606
697.6585
697.4946
697.3808
697.3265
697.338
697.4177
697.5642
697.7721
698.0321
698.3318
698.6563
698.9887
699.3113
699.6053
699.852
700.0329
700.1298
700.1256
700.0045
699.7534
699.3625
698.8268
698.1475
697.3327
696.3985
695.3681
694.2712
693.1414
692.0138
690.9213
689.8921
688.9468
688.0975
687.3487
686.6988
686.1443
685.6843
685.3243
685.0798
684.9767
685.0486
685.3303
685.848
686.6099
687.6011
700.0942
699.5521
699.5384
699.4818
699.4684
699.4511
699.424
699.3761
699.301
699.1937
699.0521
698.8772
698.6727
698.4455
698.2051
697.9634
697.7337
697.5298
697.3651
697.2517
697.1989
697.2131
697.2966
697.4478
697.6609
697.9264
698.2318
698.5619
698.8997
699.227
699.525
699.7745
699.9565
700.0523
700.0439
699.9152
699.6525
699.246
698.6911
697.99
697.1526
696.1969
695.1485
694.0392
692.9044
691.7799
690.6988
689.688
688.7661
687.9427
687.2196
686.5931
686.0586
685.6151
685.2706
685.0447
684.9689
685.0828
685.4259
686.0257
700.0759
699.4722
699.4312
699.3551
699.3369
699.3303
699.3296
699.323
699.3018
699.2579
699.185
699.0787
698.9369
698.7608
698.5544
698.3247
698.0816
697.8373
697.6054
697.4
697.235
697.1223
697.0716
697.0889
697.1766
697.3327
697.5513
697.8227
698.1339
698.4698
698.813
699.1453
699.4474
699.6998
699.8828
699.9772
699.9643
699.8274
699.5524
699.1296
698.555
697.8322
696.9729
695.9972
694.9331
693.8146
692.6784
691.5611
690.4953
689.5064
688.6106
687.815
687.1185
686.5154
686.0006
685.5748
685.2501
685.0524
685.0209
685.2006
700.1466
699.47
699.3864
699.2691
699.22
699.1945
699.1892
699.1938
699.1997
699.1982
699.1807
699.1395
699.0682
698.9625
698.8204
698.6431
698.4347
698.2026
697.9569
697.7101
697.4763
697.2699
697.1048
696.9933
696.9449
696.9658
697.0579
697.2193
697.4436
697.721
698.0384
698.3802
698.7291
699.0666
699.373
699.6283
699.8125
699.9053
699.8875
699.7418
699.4538
699.0142
698.4199
697.6758
696.7957
695.8021
694.7254
693.6014
692.4682
691.3626
690.3163
689.3527
688.4854
687.7185
687.0486
686.4692
685.9765
685.5756
685.2859
685.1428
700.3009
699.5604
699.4306
699.2632
699.1671
699.1009
699.0643
699.0499
699.0514
699.0615
699.0719
699.0742
699.0597
699.0208
698.951
698.8457
698.7033
698.5247
698.3143
698.0798
697.8316
697.5826
697.347
697.1397
696.9749
696.8648
696.8192
696.8439
696.9409
697.1077
697.3381
697.6218
697.9455
698.2936
698.6485
698.9914
699.3024
699.561
699.7462
699.8372
699.8143
699.6593
699.358
698.9014
698.2876
697.5232
696.6241
695.6155
694.5298
693.4049
692.2796
691.1903
690.1674
689.2318
688.3944
687.6571
687.0159
686.4658
686.0084
685.6593
700.5105
699.732
699.5641
699.351
699.2054
699.0891
699.0051
698.9494
698.9193
698.9102
698.9164
698.9307
698.945
698.9507
698.9392
698.9025
698.8339
698.7291
698.5862
698.4062
698.1938
697.9568
697.7061
697.4548
697.2177
697.0097
696.8454
696.7372
696.6946
696.7235
696.8256
696.9983
697.2349
697.5252
697.8556
698.2104
698.5718
698.9206
699.2365
699.4985
699.685
699.7743
699.746
699.5816
699.2669
698.7935
698.1609
697.3777
696.4623
695.4421
694.352
693.2311
692.1185
691.0498
690.0534
689.1485
688.3444
687.6427
687.0423
686.5468
700.7323
699.9521
699.7629
699.5201
699.3351
699.1729
699.0389
698.9326
698.8544
698.8036
698.7778
698.7728
698.7829
698.8012
698.8192
698.8283
698.8196
698.785
698.7177
698.6132
698.4695
698.288
698.0734
697.8338
697.5805
697.3271
697.0885
696.8802
696.7167
696.6106
696.5714
696.6048
696.7123
696.8912
697.1345
697.4318
697.7694
698.1313
698.4996
698.8549
699.1764
699.4424
699.6305
699.7183
699.6847
699.511
699.1831
698.6937
698.0437
697.2439
696.3153
695.2878
694.198
693.0857
691.9902
690.9466
689.9822
689.1157
688.3575
687.7149
700.9169
700.1747
699.986
699.737
699.5323
699.3396
699.166
699.0131
698.8843
698.7822
698.7077
698.6605
698.6383
698.637
698.6511
698.6732
698.6949
698.7073
698.7014
698.6688
698.6025
698.498
698.3534
698.1701
697.9531
697.7109
697.455
697.1995
696.9596
696.7512
696.5889
696.4853
696.4498
696.4882
696.6016
696.787
697.0374
697.3421
697.6873
698.0571
698.4332
698.7958
699.1236
699.3944
699.5847
699.6717
699.6333
699.4507
699.1105
698.6061
697.9406
697.1271
696.1889
695.158
694.0728
692.9745
691.9033
690.8946
689.9769
689.1723
701.0185
700.35
700.1846
699.9555
699.7558
699.5556
699.3622
699.1783
699.0093
698.8599
698.7341
698.6348
698.5634
698.5194
698.5007
698.5032
698.5212
698.5472
698.5726
698.5883
698.5849
698.554
698.4885
698.3837
698.2379
698.0525
697.833
697.588
697.3297