/*--------------------------------*- C++ -*----------------------------------*\
| =========                 |                                                 |
| \\      /  F ield         | OpenFOAM: The Open Source CFD Toolbox           |
|  \\    /   O peration     | Version:  2312                                  |
|   \\  /    A nd           | Website:  www.openfoam.com                      |
|    \\/     M anipulation  |                                                 |
\*---------------------------------------------------------------------------*/
FoamFile
{
    version     2.0;
    format      ascii;
    arch        "LSB;label=32;scalar=64";
    class       volScalarField;
    location    "3750";
    object      k;
}
// * * * * * * * * * * * * * * * * * * * * * * * * * * * * * * * * * * * * * //

dimensions      [0 2 -2 0 0 0 0];

internalField   nonuniform List<scalar> 
12000
(
0.002415115
0.005056629
0.006014042
0.00701786
0.007824049
0.008580708
0.009236253
0.009809723
0.01031632
0.01080203
0.01126408
0.01167144
0.01202161
0.01234172
0.01265754
0.01295198
0.01319371
0.01339575
0.0135919
0.01378164
0.01394488
0.01406217
0.01416635
0.01425428
0.01433244
0.0143793
0.01440519
0.01441219
0.01441352
0.01440501
0.01437262
0.01432473
0.01426791
0.01416807
0.01403393
0.01398423
0.01391601
0.01377905
0.01351882
0.01314851
0.01292383
0.01287849
0.01279954
0.01236429
0.01155089
0.01121265
0.0111127
0.01113359
0.01057495
0.009561805
0.009015885
0.008881825
0.008612754
0.007534808
0.006821423
0.006169494
0.005489068
0.004762665
0.004014669
0.003820585
0.002547841
0.006216976
0.007160932
0.008244333
0.00911606
0.01018019
0.01159112
0.01319519
0.01439605
0.01511396
0.01633586
0.01781942
0.01922266
0.01994689
0.02054807
0.02172523
0.02305133
0.02393619
0.02431843
0.02499299
0.02599878
0.02685558
0.02739811
0.02785277
0.02846348
0.02909668
0.02961643
0.02998123
0.03031316
0.03069384
0.03107187
0.03139233
0.03166893
0.03189206
0.03202473
0.03220313
0.03241921
0.03262185
0.0326945
0.0326976
0.03274502
0.03269262
0.03237338
0.03217107
0.03181137
0.03167426
0.03086352
0.02958499
0.02874205
0.02802756
0.02735889
0.02534702
0.02307747
0.02150734
0.02009882
0.01704791
0.01345485
0.01002083
0.007405834
0.006993756
0.003725431
0.007786261
0.009447695
0.01126206
0.01328136
0.01530077
0.0174499
0.01944339
0.02123584
0.02256316
0.02378968
0.02511946
0.02631789
0.02733153
0.02818598
0.02904668
0.02991838
0.03068439
0.03129855
0.03185067
0.03242085
0.03299752
0.03351931
0.03397485
0.03440553
0.03484152
0.03527517
0.03568032
0.03604805
0.03639422
0.03674838
0.03708124
0.03744513
0.03783161
0.03815728
0.03844234
0.03872855
0.03904283
0.03937663
0.03966991
0.03985601
0.0399883
0.04015584
0.04041829
0.04055665
0.04054184
0.0403251
0.03999307
0.03956497
0.03889486
0.03793751
0.03682246
0.03531361
0.03328077
0.03053576
0.02717077
0.0229208
0.01710138
0.01017849
0.009375141
0.004564699
0.008221656
0.01053383
0.01302549
0.01572864
0.01829283
0.02068645
0.02278929
0.02453698
0.02620586
0.0276206
0.02879808
0.02976784
0.03055989
0.03126387
0.0319029
0.03250815
0.03303688
0.03349331
0.03391805
0.03433601
0.03475063
0.03515003
0.0355325
0.03590631
0.0362778
0.03664669
0.03700998
0.03736643
0.03771457
0.03801434
0.03831607
0.03866215
0.03900572
0.03933797
0.03966544
0.03999984
0.04034438
0.040686
0.04099939
0.04128909
0.04154586
0.04176211
0.04196362
0.04211567
0.04216706
0.04212442
0.04193971
0.04161506
0.04109757
0.04044333
0.03944932
0.03779801
0.03561221
0.03295927
0.02971082
0.02556238
0.02021381
0.01331823
0.01110897
0.005361455
0.008625132
0.01147662
0.01446052
0.017508
0.02027192
0.02268408
0.02470972
0.02636442
0.02773736
0.0289182
0.02994394
0.0307707
0.03134098
0.03182149
0.03224876
0.03266025
0.03304888
0.03342712
0.03378089
0.03411565
0.03444406
0.03476906
0.03509312
0.03542018
0.03575346
0.03609456
0.03644411
0.0368024
0.03713744
0.03747327
0.03784929
0.03824119
0.03864608
0.03905954
0.03948896
0.03993476
0.04039344
0.04086741
0.04135004
0.0418338
0.04230955
0.04275248
0.04316832
0.04354794
0.04386614
0.04409426
0.04417514
0.04416305
0.04401988
0.04347045
0.04233164
0.04079656
0.03889021
0.03645436
0.03323605
0.02892287
0.02307865
0.01520938
0.01233991
0.006073828
0.008870312
0.01206577
0.01530749
0.01846823
0.02125442
0.02359547
0.02549678
0.02700909
0.02819877
0.02914635
0.02992385
0.03063118
0.03118246
0.03155767
0.03185348
0.03209201
0.03230282
0.03249569
0.03270857
0.03294717
0.03320252
0.03347464
0.03376517
0.03407577
0.03440757
0.03476097
0.0351358
0.03553128
0.03594583
0.03638318
0.03684615
0.03733736
0.03786142
0.03839713
0.03895901
0.03956295
0.04019253
0.04083722
0.04149818
0.04216978
0.042844
0.04350843
0.04412838
0.04469683
0.04519815
0.04558838
0.04587359
0.0459778
0.04574578
0.04507885
0.04403238
0.04258071
0.04062084
0.03801529
0.03462446
0.03024415
0.02449264
0.01677798
0.01327564
0.006663725
0.009065865
0.01244555
0.01575928
0.01887752
0.02155565
0.0237649
0.02555154
0.02698833
0.02810147
0.02893582
0.0295458
0.02998865
0.03036723
0.03067122
0.03086628
0.03100553
0.03112807
0.03125833
0.03141187
0.03159537
0.03181151
0.03206228
0.03234925
0.0326735
0.03303564
0.03343593
0.03387448
0.03435151
0.03486697
0.03542283
0.03601478
0.0366354
0.03729771
0.03800688
0.03874883
0.03952561
0.04033715
0.04117857
0.04204328
0.0429224
0.04380398
0.04467183
0.04550544
0.04628245
0.04696511
0.04754643
0.04795271
0.04804238
0.04781902
0.04724044
0.04625994
0.04480218
0.0427879
0.04012069
0.03665584
0.03215066
0.02616456
0.01800766
0.01396964
0.007272934
0.009187312
0.01263306
0.01591163
0.01891834
0.02154124
0.02369956
0.02541002
0.02671206
0.0276885
0.0284069
0.02891802
0.02927122
0.02951131
0.0297046
0.02986766
0.0299819
0.03007511
0.03017795
0.03030885
0.03047799
0.0306913
0.03095245
0.03126372
0.03162639
0.03204104
0.03250782
0.03302664
0.03359698
0.03421855
0.03489121
0.03561205
0.03638124
0.03719878
0.03806363
0.0389742
0.03992746
0.04091933
0.04194386
0.04299294
0.04405563
0.04511749
0.04615953
0.04715837
0.04807901
0.04890021
0.04955991
0.04997655
0.05009445
0.04988672
0.0492736
0.04819317
0.04658357
0.04437711
0.04148856
0.03779419
0.03308652
0.02697365
0.01882212
0.01446367
0.007963073
0.0093118
0.01272786
0.01590996
0.01886046
0.02135608
0.02339747
0.02500797
0.0262384
0.02715536
0.02782158
0.02829157
0.02861299
0.02882571
0.0289671
0.02908773
0.02921291
0.02933051
0.02945216
0.02960017
0.02978903
0.03002797
0.03032275
0.03067687
0.03109236
0.03157042
0.03211106
0.03271339
0.03337617
0.0340984
0.03487927
0.03572123
0.03662366
0.03758053
0.03858967
0.03964829
0.04075246
0.04189683
0.04307412
0.04427455
0.04548523
0.04668937
0.04786533
0.04898572
0.05001834
0.05091627
0.05162579
0.05208189
0.0522135
0.05197089
0.05127697
0.05007417
0.04831335
0.04594521
0.04290121
0.03906706
0.03423251
0.02798185
0.01961601
0.01484651
0.008236349
0.009363364
0.0127449
0.01584481
0.01862666
0.02101832
0.02298703
0.02455472
0.02576825
0.02668341
0.02735542
0.02783537
0.02816961
0.02839894
0.02855707
0.02867708
0.0287964
0.02894259
0.02911467
0.02931514
0.02955602
0.02984659
0.03019393
0.03060228
0.03107347
0.03160712
0.03221269
0.0328902
0.03363759
0.03445288
0.03533382
0.0362829
0.03729641
0.03836612
0.03948973
0.04066385
0.04188372
0.04314294
0.04443295
0.04574251
0.04705701
0.04835781
0.04962151
0.05081893
0.05191662
0.05286462
0.05360105
0.05405741
0.05415616
0.05383069
0.05300716
0.05163541
0.04968185
0.04711367
0.04387302
0.03985129
0.03484401
0.02845078
0.02001768
0.01507986
0.008518545
0.009410542
0.01274369
0.01574454
0.01841829
0.02071613
0.02261686
0.02414076
0.02533038
0.02624214
0.02693147
0.02744883
0.02783508
0.02812645
0.0283545
0.02854565
0.028723
0.028908
0.02911689
0.02935466
0.02964238
0.02998678
0.03039413
0.03086952
0.03141678
0.03203909
0.03272918
0.03348701
0.03431296
0.03520607
0.03616473
0.03719187
0.03828486
0.03943511
0.04063929
0.04189313
0.04319112
0.04452609
0.0458887
0.04726686
0.04864505
0.05000342
0.05131691
0.05255412
0.05367708
0.05463484
0.05536378
0.05579143
0.05583362
0.05540936
0.05444846
0.05291814
0.05080596
0.04809184
0.04472667
0.04060199
0.03550829
0.02903506
0.02050047
0.01527567
0.009086612
0.009438374
0.01269899
0.01557397
0.0181178
0.0203146
0.02215598
0.02366364
0.02487775
0.02584041
0.02659433
0.02718079
0.02763943
0.02800627
0.02831164
0.02857155
0.02881789
0.02907249
0.02935789
0.02969155
0.03006831
0.03049698
0.03098379
0.03153357
0.03214971
0.03283373
0.03358491
0.03440257
0.03528635
0.03623563
0.03724921
0.03832875
0.03947201
0.04067202
0.04192468
0.04322504
0.04456699
0.0459427
0.04734229
0.04875312
0.05015907
0.05153959
0.05286855
0.05411301
0.05523143
0.05617223
0.05687009
0.05724333
0.05722003
0.05668765
0.05557655
0.05388928
0.05164523
0.04881681
0.04533828
0.04109706
0.03588401
0.02929488
0.02067328
0.0153585
0.009375838
0.009448928
0.01265086
0.01541626
0.01785611
0.01997911
0.02178636
0.02329459
0.02453291
0.02553445
0.026342
0.02699571
0.02753313
0.02798563
0.0283819
0.02875147
0.02910389
0.02946062
0.02984063
0.03025698
0.03071731
0.03122501
0.03178355
0.03239937
0.03307539
0.03381299
0.03461392
0.03547863
0.03640646
0.03739681
0.03844857
0.03956149
0.04073365
0.04196045
0.04323713
0.04455812
0.04591673
0.04730476
0.048712
0.0501256
0.05152938
0.05290283
0.05421973
0.05544672
0.05654014
0.05745072
0.05812037
0.05845766
0.05836453
0.05773583
0.05651309
0.05469564
0.05233293
0.04940425
0.04583423
0.04151476
0.03623854
0.0295998
0.02093308
0.01544842
0.009629712
0.009448863
0.0125871
0.01527513
0.01763033
0.01969051
0.02146356
0.0229643
0.024219
0.02526243
0.02612693
0.02684651
0.02745757
0.02799422
0.02848105
0.02893989
0.02938999
0.02984732
0.03032346
0.03082909
0.03137315
0.0319618
0.03259868
0.03328418
0.03401755
0.03480423
0.03565109
0.03655709
0.0375218
0.03854463
0.03962445
0.04075984
0.04194971
0.04319058
0.0444769
0.04580297
0.04716173
0.04854481
0.04994187
0.0513399
0.05272241
0.05406862
0.05535276
0.0565457
0.05761668
0.05851991
0.05917388
0.05947497
0.05932144
0.05861468
0.057289
0.05534882
0.05286387
0.04983614
0.04618667
0.0417935
0.03644473
0.02973303
0.02100006
0.0154585
0.009827925
0.009450985
0.01253486
0.01514659
0.01742307
0.01942324
0.02116461
0.02266314
0.02394014
0.02502101
0.02593322
0.02670909
0.02738502
0.02799646
0.02856955
0.02912171
0.02966529
0.03021215
0.03077483
0.03136396
0.03198645
0.03264837
0.03335447
0.03410736
0.03490838
0.03575771
0.03665339
0.03759559
0.03858906
0.03963587
0.04073344
0.04187988
0.04307627
0.04432039
0.04560533
0.04692489
0.04827199
0.04963806
0.05101277
0.05238341
0.05373386
0.05504723
0.05630805
0.05749135
0.05855347
0.05943492
0.06005771
0.06032452
0.0601231
0.05934646
0.05793285
0.05589259
0.05329697
0.05017769
0.04646386
0.04201757
0.03662544
0.02987906
0.02111426
0.01547038
0.009985056
0.00946044
0.01247829
0.01502532
0.01723236
0.01917756
0.02088608
0.02237439
0.02366115
0.02476864
0.02572251
0.02655232
0.02729433
0.02798467
0.02864013
0.02927327
0.02989699
0.03052483
0.03116782
0.03183437
0.03253121
0.03326318
0.0340339
0.03484617
0.0357018
0.03660155
0.03754525
0.03853231
0.03956182
0.04063202
0.04174138
0.04289093
0.04408469
0.04532281
0.0465986
0.04790368
0.04923067
0.05057054
0.05191503
0.05325757
0.05458791
0.05588969
0.05714101
0.05831118
0.05935609
0.06021372
0.06080208
0.06102222
0.06076725
0.05993307
0.05844833
0.0563153
0.05362227
0.05042906
0.04665984
0.04216355
0.03672409
0.02993431
0.02112686
0.01546231
0.01012362
0.009481624
0.01243888
0.01492308
0.01706548
0.01895791
0.02063199
0.02210578
0.02339673
0.02452505
0.0255144
0.02639165
0.02718954
0.02794133
0.02866443
0.02937229
0.03007377
0.03077728
0.03149208
0.03222655
0.0329879
0.03378106
0.03460955
0.03547587
0.03638126
0.03732581
0.03830891
0.03932991
0.04038818
0.04148287
0.04261237
0.04377307
0.04495755
0.0461714
0.0474278
0.04872013
0.05003315
0.05135788
0.05268756
0.0540149
0.05532979
0.05661738
0.05785548
0.05901107
0.06003678
0.06086824
0.0614229
0.06160159
0.0612972
0.06040307
0.05885346
0.05665306
0.05388757
0.05063737
0.04682554
0.04229223
0.03682038
0.02999434
0.02115294
0.01544211
0.01021425
0.009500938
0.01240511
0.01483205
0.01691426
0.01875451
0.02039157
0.02184589
0.02313518
0.02427881
0.02529879
0.02621929
0.02706756
0.02787285
0.02865561
0.02942538
0.03019108
0.03096045
0.03174012
0.03253669
0.0333562
0.03420416
0.03508464
0.0359998
0.03695033
0.03793569
0.03895466
0.04000594
0.04108842
0.04220109
0.04334204
0.04450677
0.04568684
0.04688991
0.04813355
0.04941334
0.05071394
0.05202579
0.05334201
0.05465577
0.05595752
0.05723226
0.05845684
0.0595968
0.06060309
0.0614096
0.06193251
0.06207262
0.06172467
0.0607806
0.0591727
0.05690402
0.05406798
0.05076321
0.04691108
0.04234298
0.03684449
0.03000275
0.02115342
0.01540366
0.01028994
0.009545234
0.01240066
0.01476192
0.01678096
0.01856706
0.02016387
0.0215945
0.02287744
0.02403153
0.02507713
0.02603546
0.02692716
0.02777584
0.02860509
0.02942538
0.03024852
0.03107554
0.03191195
0.03276343
0.03363562
0.03453375
0.0354617
0.03642157
0.03741364
0.03843674
0.03948892
0.04056826
0.04167332
0.04280284
0.04395464
0.04512396
0.046302
0.04749663
0.04872791
0.04999521
0.05128454
0.05258554
0.05389066
0.05519301
0.05648334
0.05774679
0.05895968
0.06008614
0.06107529
0.06185928
0.06235322
0.06245758
0.06206831
0.06107749
0.05942009
0.05710041
0.05421362
0.05086935
0.04698774
0.04239393
0.03686672
0.03000992
0.02115005
0.01537722
0.01035638
0.00959941
0.01240381
0.01470262
0.01665883
0.01838994
0.01994428
0.0213475
0.02261923
0.02377814
0.02484322
0.02583345
0.02676654
0.02765806
0.02852671
0.02939133
0.0302546
0.03112832
0.03201285
0.03291249
0.03383173
0.03477512
0.03574636
0.03674746
0.03777839
0.03883736
0.03992157
0.04102823
0.04215526
0.0433013
0.04446458
0.04564086
0.04682088
0.04801051
0.04923118
0.05048745
0.05176753
0.05306019
0.05435727
0.05565175
0.05693438
0.05819011
0.0593945
0.06051039
0.06148527
0.06224972
0.06271776
0.06278965
0.06236244
0.06132826
0.05962361
0.05725433
0.05431947
0.05093719
0.04702652
0.04241037
0.03686941
0.02999632
0.02112103
0.01532759
0.01039173
0.009683478
0.01243758
0.01466447
0.01655221
0.01822387
0.01973121
0.02110227
0.02235742
0.02351493
0.02459249
0.02560709
0.02657442
0.02750793
0.0284186
0.02931816
0.03021972
0.03112815
0.03205316
0.03299428
0.03395476
0.03493855
0.03594918
0.03698851
0.03805623
0.03914998
0.04026611
0.0414008
0.04255107
0.04371485
0.04489023
0.04607446
0.04726387
0.04845687
0.04966787
0.05091366
0.05218778
0.05347525
0.05476719
0.05605652
0.05733387
0.05858383
0.05978115
0.06088742
0.06184855
0.06259373
0.06303608
0.0630758
0.06261115
0.06153541
0.05978771
0.05737593
0.05440128
0.05098842
0.04705446
0.04241749
0.03686459
0.0299835
0.02110562
0.01530038
0.01046809
0.009794439
0.01248773
0.01463547
0.01645257
0.01806313
0.0195213
0.02085679
0.02209065
0.02324076
0.02432361
0.0253545
0.02634733
0.02731418
0.02826497
0.0292075
0.0301478
0.03109261
0.03204835
0.03302352
0.03402053
0.035041
0.03608747
0.03716184
0.03826402
0.0393914
0.04053945
0.04170318
0.04287851
0.04406273
0.04525404
0.04645036
0.04764881
0.04884675
0.05005712
0.05129835
0.05256729
0.05385053
0.05513891
0.05642475
0.05769821
0.05894332
0.06013398
0.06123061
0.06217777
0.06290343
0.06332009
0.06332801
0.06282646
0.06171035
0.05992122
0.0574696
0.05445948
0.05101912
0.04706463
0.04241232
0.03684418
0.02995172
0.02106714
0.01525099
0.01050054
0.009933143
0.01256791
0.01463356
0.0163698
0.0179129
0.01931715
0.02061257
0.02182004
0.02295669
0.02403775
0.02507704
0.02608688
0.02707792
0.02805899
0.02903713
0.03001778
0.03100547
0.03200383
0.03301573
0.03404484
0.03509785
0.03617784
0.03728549
0.03842051
0.03958042
0.04076031
0.04195407
0.04315625
0.04436324
0.04557304
0.04678415
0.04799442
0.0492005
0.05041375
0.05165339
0.05291911
0.0541992
0.0554846
0.05676723
0.05803678
0.05927668
0.06046002
0.06154613
0.06247841
0.06318388
0.06357458
0.06355132
0.06301226
0.06185783
0.06003036
0.05754321
0.05450281
0.0510385
0.04706626
0.04240271
0.03682737
0.02993137
0.02104744
0.01522664
0.0105849
0.01010465
0.01266697
0.01463759
0.01629522
0.01776963
0.01911768
0.02036988
0.02154688
0.02266511
0.02373877
0.02478044
0.02580117
0.02681043
0.02781603
0.02882419
0.02983972
0.03086652
0.03190741
0.03296437
0.03403882
0.03513153
0.03624352
0.03737966
0.03854446
0.03973527
0.04094633
0.04217038
0.04340048
0.0446318
0.04586189
0.04708947
0.04831289
0.04952894
0.05074764
0.05198769
0.05325108
0.05452822
0.05581038
0.05708927
0.0583542
0.05958803
0.06076309
0.06183772
0.0627543
0.06343905
0.06380377
0.06374992
0.06317421
0.06198315
0.06011947
0.05759953
0.05453241
0.05104861
0.04706174
0.04238585
0.03680058
0.02989673
0.02100859
0.01518268
0.01066747
0.01030286
0.01279582
0.01466797
0.01623699
0.01763737
0.01892523
0.02013052
0.02127325
0.02236907
0.02343125
0.02447135
0.02549937
0.02652376
0.02755139
0.02858759
0.02963636
0.03070069
0.0317825
0.03288285
0.03400198
0.03513933
0.03629426
0.03746511
0.03865587
0.03987264
0.04111167
0.04236444
0.04362206
0.04487794
0.04612875
0.04737349
0.04861136
0.04983935
0.05106402
0.0523036
0.05356499
0.05483992
0.05611867
0.05739304
0.05865235
0.05987913
0.06104499
0.06210735
0.06300763
0.06367135
0.06401015
0.06392615
0.06331659
0.06209068
0.06019337
0.05764386
0.05455331
0.05105225
0.04705455
0.04237105
0.03678098
0.02987529
0.02098911
0.01516258
0.01073764
0.01052694
0.01294155
0.01471108
0.01618972
0.01751392
0.01873943
0.01989561
0.02100182
0.02207301
0.02312161
0.02415829
0.02519212
0.02623055
0.02727948
0.02834328
0.02942494
0.0305264
0.0316485
0.03279144
0.03395427
0.03513552
0.03633307
0.03754466
0.03876801
0.04000736
0.04126865
0.04254598
0.04382885
0.0451083
0.0463792
0.04763984
0.0488903
0.05013147
0.05136602
0.05260613
0.05386379
0.05513504
0.05640961
0.05767898
0.05893221
0.06015142
0.06130756
0.06235719
0.0632409
0.06388364
0.06419698
0.06408373
0.06344214
0.06218338
0.06025486
0.05767847
0.05456747
0.05105256
0.0470441
0.04235188
0.03675483
0.02984345
0.02095414
0.01512607
0.0109003
0.01077752
0.01311576
0.01477975
0.01616038
0.01740346
0.01856322
0.01966796
0.02073606
0.02178152
0.02281587
0.02384883
0.02488849
0.02594128
0.02701202
0.02810398
0.02921905
0.03035805
0.03152073
0.03270573
0.03391093
0.03513377
0.03637146
0.03762182
0.03888181
0.04014864
0.04142745
0.04272342
0.04402713
0.04532754
0.04661731
0.04789363
0.04915668
0.0504081
0.05165025
0.05289346
0.05414954
0.05541656
0.05668585
0.05794926
0.05919566
0.06040672
0.06155267
0.06258925
0.06345627
0.06407827
0.06436684
0.06422547
0.06355358
0.06226416
0.060307
0.05770658
0.0545779
0.05105152
0.04703501
0.04233736
0.03673734
0.02982512
0.02093797
0.01511157
0.01098732
0.01103541
0.01329207
0.01485978
0.01614244
0.01730346
0.01839729
0.01945059
0.02048091
0.0215014
0.02252267
0.02355343
0.02460065
0.02566954
0.02676366
0.02788494
0.02903398
0.03021023
0.03141239
0.03263752
0.03388275
0.03514466
0.03642099
0.03770734
0.03900051
0.0402974
0.04159802
0.04290766
0.04422617
0.04554297
0.04684867
0.04813889
0.04941341
0.05067393
0.05192255
0.05316851
0.05442306
0.05568555
0.05694889
0.05820554
0.05944437
0.06064661
0.06178186
0.06280506
0.06365536
0.06425694
0.06452153
0.0643533
0.06365285
0.0623349
0.0603514
0.05772922
0.05458513
0.05104841
0.04702437
0.04232075
0.03671592
0.02979967
0.02090996
0.01508351
0.01112306
0.01130854
0.0134858
0.01495908
0.01614149
0.01721808
0.0182448
0.01924695
0.02024081
0.02123835
0.02224901
0.02328025
0.02433769
0.02542515
0.02654471
0.02769687
0.02888081
0.03009469
0.0313355
0.03259975
0.03388352
0.03518227
0.03649292
0.03781147
0.03913429
0.04045813
0.0417801
0.04310315
0.04443184
0.04576015
0.04707805
0.04837945
0.0496631
0.05093065
0.05218446
0.05343272
0.05468542
0.0559428
0.05719936
0.05844835
0.05967878
0.06087157
0.06199569
0.06300535
0.06383912
0.0644209
0.06466266
0.06446913
0.06374212
0.06239791
0.06039056
0.05774933
0.05459253
0.05104733
0.04701756
0.0423105
0.03670407
0.02978738
0.02089905
0.01507483
0.0112558
0.01159455
0.01368845
0.01506571
0.01614508
0.01714259
0.01810569
0.0190598
0.02002047
0.02099858
0.02200229
0.02303759
0.02410852
0.02521726
0.02636425
0.0275484
0.02876736
0.03001818
0.03129644
0.03259773
0.03391495
0.03524774
0.03658982
0.03793715
0.039286
0.04063306
0.04197546
0.04331216
0.04464746
0.04598245
0.04730816
0.04861737
0.04990768
0.0511802
0.05243742
0.05368663
0.05493655
0.05618804
0.05743706
0.05867765
0.05989905
0.06108195
0.06219474
0.063191
0.06400868
0.06457139
0.0647913
0.06457374
0.06382192
0.06245361
0.06042484
0.05776714
0.05459982
0.05104714
0.04701167
0.0423002
0.03668979
0.02976977
0.02087954
0.01505489
0.01136985
0.01187211
0.01389636
0.01518463
0.01616779
0.01708376
0.01798469
0.01889404
0.01982573
0.02078902
0.02179031
0.02283383
0.02392176
0.02505447
0.02623063
0.02744743
0.02870129
0.02998749
0.03129957
0.03263267
0.03398465
0.03534768
0.03671724
0.03808917
0.03945974
0.0408257
0.04218434
0.04353336
0.04487497
0.04621254
0.0475415
0.04885464
0.05014852
0.05142359
0.05268228
0.05393096
0.05517698
0.05642176
0.05766254
0.05889416
0.0601061
0.06127883
0.06238021
0.06336312
0.06416502
0.06470955
0.06490936
0.06467014
0.06389585
0.06250561
0.06045743
0.0577852
0.05460958
0.05105121
0.0470111
0.04229679
0.03668475
0.02976461
0.02087463
0.01505129
0.01150054
0.01216435
0.01411413
0.01530763
0.01620147
0.01704161
0.01788538
0.01875462
0.01966192
0.02061491
0.02161811
0.02267368
0.02378181
0.0249409
0.02614781
0.02739816
0.02868632
0.03000327
0.03134745
0.0327123
0.0340917
0.03548014
0.03687268
0.03826499
0.0396533
0.04103447
0.04240591
0.04376558
0.04511246
0.0464496
0.04777802
0.04909161
0.05038624
0.05166161
0.05291994
0.05416663
0.05540775
0.05664513
0.05787719
0.05909947
0.06030171
0.06146423
0.06255451
0.06352502
0.06431289
0.06484109
0.06502144
0.06476039
0.06396432
0.06255393
0.06048926
0.05780528
0.05462192
0.0510578
0.04701341
0.04229561
0.03668108
0.02975699
0.02086378
0.01503967
0.01158998
0.01242731
0.01432979
0.01544256
0.01624991
0.01701457
0.01780644
0.01864237
0.01953235
0.02048167
0.02149255
0.02256486
0.02369652
0.02488405
0.0261223
0.02740251
0.02871978
0.03007054
0.03144472
0.03283651
0.03423992
0.03564949
0.03706037
0.03846831
0.03986972
0.04126158
0.0426415
0.04400757
0.04535836
0.04669514
0.04802007
0.0493307
0.0506231
0.05189631
0.05315219
0.05439519
0.05563017
0.05685932
0.05808217
0.05929491
0.06048754
0.06164019
0.06271992
0.06367844
0.06445197
0.06496328
0.06512508
0.06484447
0.06402911
0.06260068
0.06052023
0.05782429
0.0546341
0.051066
0.04701842
0.04229815
0.03668094
0.02975628
0.02086271
0.01503699
0.01171282
0.01271376
0.01455575
0.01557981
0.01630878
0.01701279
0.01775516
0.01856272
0.01944112
0.02039272
0.02141709
0.02251148
0.02367049
0.02488571
0.02614955
0.02746078
0.02880921
0.03018656
0.03158581
0.03300017
0.03442338
0.03584998
0.03727519
0.0386949
0.04010564
0.04150463
0.04288965
0.04425904
0.04561165
0.04694676
0.04826627
0.04957142
0.0508591
0.05212797
0.05337953
0.05461738
0.05584538
0.05706596
0.05827938
0.05948226
0.06066476
0.06180699
0.06287561
0.06382176
0.06458132
0.06507714
0.06522236
0.06492433
0.06409107
0.06264502
0.06054947
0.05784358
0.05464858
0.05107686
0.04702597
0.04230328
0.03668442
0.02975687
0.02086091
0.0150317
0.01185121
0.01297692
0.01477863
0.01573077
0.01638676
0.01702359
0.01773562
0.01852387
0.01939859
0.02035917
0.02140038
0.02251374
0.02369285
0.02493583
0.02623356
0.02757306
0.0289469
0.03034755
0.03176772
0.03320042
0.03463936
0.03607899
0.03751455
0.0389421
0.04035842
0.04176095
0.04314771
0.0445173
0.04586878
0.04720157
0.04851625
0.04981415
0.05109484
0.05235714
0.05360228
0.05483345
0.05605364
0.05726507
0.05846851
0.05966115
0.06083339
0.06196517
0.06302271
0.06395678
0.06470296
0.06518398
0.06531307
0.06499847
0.06414929
0.06268892
0.06058121
0.057866
0.05466542
0.05108963
0.04703558
0.04231071
0.03669066
0.02976186
0.02086432
0.01503182
0.01200106
0.01324346
0.01500986
0.01588738
0.01647623
0.01706653
0.01774569
0.01852677
0.01940176
0.02036783
0.02142433
0.02256358
0.02377584
0.02504782
0.02637055
0.02773455
0.02913136
0.03055246
0.03199001
0.03343704
0.03488736
0.03633571
0.03777761
0.03920922
0.0406274
0.04202978
0.04341478
0.04478137
0.04612898
0.04745739
0.04876662
0.05005687
0.05132894
0.05258319
0.0538205
0.05504366
0.05625498
0.0574565
0.0586495
0.05983164
0.06099347
0.06211477
0.06316138
0.06408361
0.06481681
0.06528382
0.06539825
0.06506888
0.06420528
0.06273163
0.06061304
0.05789064
0.05468633
0.05110769
0.04705036
0.04232162
0.03669687
0.02976507
0.0208669
0.01503039
0.01216863
0.01349294
0.01523665
0.01605507
0.01658535
0.01712862
0.01778319
0.018552
0.01943469
0.02042349
0.02150531
0.02267049
0.02390768
0.02520533
0.02655265
0.02793957
0.02935655
0.03079483
0.03224655
0.0337048
0.03516364
0.03661774
0.03806272
0.03949495
0.04091184
0.04231138
0.04369222
0.04505354
0.04639494
0.0477164
0.04901814
0.05030055
0.05156407
0.05280932
0.05403782
0.05525162
0.05645284
0.05764366
0.0588257
0.05999694
0.0611481
0.06225881
0.06329457
0.06420534
0.06492623
0.06538009
0.06548083
0.06513775
0.06426102
0.0627754
0.06064672
0.05791695
0.05470832
0.05112652
0.04706674
0.04233655
0.03671074
0.02977597
0.02087483
0.01503193
0.01232632
0.01373455
0.0154664
0.01623292
0.0167144
0.01722266
0.01786303
0.01863468
0.01953014
0.02053776
0.02164396
0.02283522
0.02409834
0.02542077
0.02679069
0.02819733
0.02963083
0.03108249
0.03254452
0.03401013
0.03547334
0.03692917
0.03837344
0.03980301
0.04121555
0.04260943
0.0439835
0.0453371
0.04667003
0.04798239
0.04927455
0.05054702
0.05180045
0.05303558
0.05425405
0.05545745
0.05664742
0.05782672
0.05899732
0.06015742
0.06129778
0.06239787
0.06342284
0.06432227
0.06503111
0.06547232
0.06556012
0.0652043
0.06431545
0.06281884
0.06068099
0.05794455
0.05473182
0.05114674
0.04708372
0.04235028
0.03672138
0.02978394
0.02088079
0.01503254
0.01249595
0.01397343
0.01569872
0.01642307
0.01686694
0.01735005
0.01798415
0.01876366
0.01967625
0.0207064
0.02183781
0.02305466
0.02434216
0.0256867
0.02707593
0.02849877
0.02994533
0.03140687
0.03287577
0.03434523
0.0358095
0.03726385
0.0387046
0.04012895
0.04153468
0.04292028
0.04428489
0.04562817
0.04695017
0.04825126
0.04953201
0.05079311
0.05203533
0.0532594
0.05446707
0.0556593
0.05683727
0.05800454
0.05916336
0.06031213
0.06144162
0.06253108
0.06354535
0.06443369
0.06513092
0.06556009
0.06563575
0.06526809
0.06436809
0.06286145
0.06071521
0.05797272
0.05475644
0.05116871
0.04710343
0.04236836
0.03673844
0.02979988
0.02089213
0.0150383
0.01266308
0.01419369
0.01593111
0.0166278
0.01704566
0.0175123
0.01814696
0.01893916
0.01987203
0.02092644
0.02208334
0.02332498
0.02463523
0.02599971
0.02740564
0.02884179
0.03029826
0.03176639
0.03323861
0.03470845
0.03617058
0.03762055
0.03905494
0.04047105
0.041867
0.04324164
0.04459441
0.04592524
0.04723445
0.04852263
0.04979052
0.05103894
0.05226874
0.05348067
0.05467656
0.05585714
0.05702301
0.0581778
0.05932452
0.06046182
0.06158039
0.06265927
0.06366294
0.06454042
0.06522641
0.0656441
0.06570838
0.06532978
0.06441962
0.06290389
0.06075006
0.05800197
0.05478223
0.0511916
0.04712338
0.04238539
0.0367525
0.02981117
0.02090103
0.01503979
0.01283388
0.01440785
0.01616699
0.01684728
0.01724829
0.01770985
0.01835202
0.01916192
0.02011799
0.02119773
0.0223797
0.02364453
0.02497516
0.02635667
0.02777608
0.02922216
0.03068512
0.0321565
0.03362895
0.03509627
0.03655328
0.03799597
0.03942108
0.04082629
0.04221005
0.04357151
0.0449104
0.04622695
0.04752171
0.04879548
0.0500492
0.05128381
0.0525002
0.05369917
0.05488259
0.05605112
0.05720472
0.05834681
0.05948128
0.060607
0.06171463
0.06278294
0.06377613
0.06464295
0.06531804
0.06572479
0.06577839
0.06538967
0.06447023
0.06294624
0.06078546
0.05803221
0.05480928
0.05121615
0.04714571
0.04240586
0.03677126
0.02982747
0.02091194
0.01504388
0.01300878
0.01461138
0.01640628
0.01708293
0.01747702
0.01794408
0.01859992
0.01943172
0.02041309
0.02151845
0.02272442
0.02401047
0.02535888
0.0267545
0.02818433
0.02963721
0.03110353
0.032575
0.03404461
0.03550645
0.03695569
0.03838841
0.03980172
0.04119364
0.04256293
0.0439091
0.0452322
0.04653273
0.04781152
0.04906957
0.05030797
0.05152779
0.05272997
0.05391533
0.05508578
0.05624187
0.05738303
0.05851241
0.0596346
0.06074872
0.06184538
0.06290316
0.06388594
0.06474225
0.06540673
0.06580295
0.06584643
0.06544823
0.06452014
0.06298844
0.06082105
0.05806268
0.05483626
0.05124022
0.04716692
0.04242417
0.03678643
0.02983903
0.02092018
0.01504626
0.01317925
0.01480801
0.01664798
0.01733391
0.01773232
0.01821382
0.01888898
0.01974619
0.02075435
0.02188518
0.02311378
0.02441886
0.02578243
0.0271893
0.02862662
0.03008345
0.03155041
0.03301937
0.03448353
0.03593724
0.03737601
0.03879623
0.04019534
0.04157167
0.04292437
0.04425329
0.04555884
0.04684181
0.0481033
0.0493445
0.05056665
0.05177089
0.05295823
0.05412947
0.05528653
0.05642989
0.05755859
0.05867546
0.05978537
0.06088785
0.06197356
0.06302079
0.06399314
0.06483898
0.065493
0.06587888
0.06591263
0.06550541
0.06456915
0.06303014
0.06085643
0.05809303
0.05486308
0.05126417
0.04718828
0.04244321
0.03680346
0.02985446
0.02093385
0.01505235
0.01335627
0.01500593
0.01689897
0.01760589
0.0180187
0.01852175
0.0192202
0.02010501
0.02114049
0.02229601
0.02354558
0.02486748
0.02624369
0.02765917
0.02910131
0.03055943
0.03202438
0.03348837
0.03494478
0.03638813
0.03781412
0.03921949
0.04060201
0.04196043
0.04329435
0.04460405
0.04589031
0.04715427
0.04839724
0.04962062
0.05082574
0.05201381
0.05318582
0.05434255
0.05548586
0.05661615
0.05773236
0.05883691
0.05993455
0.06102538
0.06210004
0.06313658
0.06409836
0.06493366
0.06557724
0.06595281
0.06597707
0.06556116
0.06461707
0.06307109
0.06089131
0.05812301
0.05488958
0.05128778
0.04720921
0.04246166
0.03681953
0.02986792
0.02094384
0.01505377
0.01352733
0.01519017
0.01715272
0.01789641
0.01833534
0.01886713
0.01959262
0.02050649
0.02156915
0.02274815
0.02401681
0.02535331
0.02673982
0.02816156
0.02960624
0.03106343
0.0325242
0.033981
0.03542738
0.03685807
0.03826893
0.03965698