/*--------------------------------*- C++ -*----------------------------------*\
| =========                 |                                                 |
| \\      /  F ield         | OpenFOAM: The Open Source CFD Toolbox           |
|  \\    /   O peration     | Version:  2312                                  |
|   \\  /    A nd           | Website:  www.openfoam.com                      |
|    \\/     M anipulation  |                                                 |
\*---------------------------------------------------------------------------*/
FoamFile
{
    version     2.0;
    format      ascii;
    arch        "LSB;label=32;scalar=64";
    class       volScalarField;
    location    "3750";
    object      nut;
}
// * * * * * * * * * * * * * * * * * * * * * * * * * * * * * * * * * * * * * //

dimensions      [0 2 -1 0 0 0 0];

internalField   nonuniform List<scalar> 
12000
(
4.817384e-05
0.0001915745
0.000202844
0.0002286104
0.0002524523
0.000246956
0.0002208601
0.0002127076
0.0002481121
0.0002863984
0.0002486326
0.0002038233
0.0002054646
0.0002577521
0.00027559
0.0002185039
0.0001913408
0.0002164429
0.0002572641
0.0002356869
0.0002013734
0.0002011547
0.0002215678
0.0002269128
0.0002120342
0.0002013792
0.0002043509
0.0002139071
0.000215139
0.0002069188
0.0002014942
0.0001997323
0.0001986228
0.000206002
0.0002139237
0.0002069159
0.0001922237
0.0001819978
0.000193833
0.0002279852
0.0002253378
0.0001846015
0.0001541724
0.0001707595
0.0002632634
0.0002878828
0.0001716434
0.0001292987
0.0001526199
0.0002781883
0.0002990205
0.0001342366
0.0001236076
0.000180653
0.0002100768
0.0001359089
0.00010768
9.862216e-05
8.969237e-05
7.261314e-05
2.939679e-05
0.0002491245
0.0002881356
0.000334914
0.0003971678
0.000446698
0.0005136296
0.0005934833
0.0006666443
0.0007227818
0.0008034741
0.0009074262
0.00101247
0.00107692
0.001137733
0.001245533
0.001377703
0.001464952
0.001508946
0.001589098
0.00171526
0.001825403
0.001888242
0.001948078
0.00203582
0.002131557
0.002202791
0.00224414
0.002283413
0.002339404
0.00239779
0.0024377
0.002460957
0.00247265
0.002468218
0.002479841
0.002495725
0.002500418
0.002466021
0.002406631
0.002363625
0.002225455
0.002322749
0.002240673
0.002087755
0.001856044
0.001358008
0.001849049
0.001697837
0.00151276
0.001220076
0.00101165
0.001092907
0.0009076833
0.0007666803
0.0005927345
0.0004091489
0.0002478221
0.000135676
6.639375e-05
3.815399e-05
0.0003348365
0.0004432823
0.0005441823
0.0006723704
0.0008155993
0.0009768329
0.001148398
0.001325026
0.001500581
0.001675443
0.001859064
0.002038485
0.002203095
0.002364758
0.002528256
0.002686697
0.002827537
0.002956611
0.003083782
0.003206807
0.003317846
0.003416079
0.003507246
0.003592466
0.003669485
0.003736588
0.003795059
0.00384729
0.003893935
0.003933562
0.003967959
0.003996325
0.004019333
0.004035469
0.004045947
0.00404978
0.004046279
0.00403551
0.004019126
0.00399444
0.003959874
0.003913724
0.003863039
0.003790027
0.003569873
0.003544627
0.003415664
0.003117642
0.002852336
0.002833641
0.00260027
0.00226364
0.001832415
0.001550163
0.001362951
0.001027839
0.0005794139
0.0002141756
6.632723e-05
3.738838e-05
0.0003710913
0.0005488206
0.0007110928
0.0009165681
0.001144145
0.001388614
0.001644294
0.001901729
0.002163676
0.002420401
0.002665553
0.002897248
0.003110081
0.003310482
0.003498218
0.003672624
0.0038332
0.003980709
0.004116545
0.004241512
0.004355891
0.004460465
0.004555802
0.004642098
0.004719608
0.004788644
0.004849459
0.004901635
0.00494727
0.00498297
0.005010431
0.00503129
0.005044554
0.00504932
0.005045581
0.00503346
0.005012923
0.004982475
0.004939445
0.004884542
0.004816809
0.004735125
0.004639808
0.004528592
0.00439761
0.00424879
0.00407744
0.003882945
0.00366327
0.003420476
0.002808028
0.002446768
0.002223668
0.002082448
0.001701755
0.001243009
0.0007611513
0.0003139189
6.630156e-05
3.728755e-05
0.0004042604
0.0006530406
0.0008753623
0.001145558
0.001440638
0.001750183
0.002065698
0.002377321
0.002678194
0.002967564
0.003242557
0.003502583
0.003741077
0.003958601
0.004159645
0.004346525
0.004522179
0.004687636
0.004837818
0.004973817
0.005098063
0.005211695
0.005315301
0.005409331
0.005494192
0.00557018
0.005637437
0.005695235
0.005745024
0.005784884
0.005816735
0.005840452
0.005855248
0.005860559
0.005856661
0.00584314
0.005819603
0.005786382
0.005742615
0.005687175
0.005619713
0.005538989
0.005445112
0.005336104
0.005210399
0.005065969
0.00489778
0.004709496
0.004496017
0.00381813
0.003659321
0.003586057
0.003188474
0.002725551
0.002198065
0.001606436
0.0009728602
0.0003871955
6.593712e-05
3.797828e-05
0.0004255903
0.000739905
0.001014252
0.001332355
0.001674808
0.002027302
0.002379253
0.00272177
0.00304944
0.003360935
0.003657031
0.003938109
0.004198746
0.004437451
0.004654878
0.004852924
0.005033686
0.005197946
0.005352062
0.005497563
0.005633433
0.005759623
0.005876285
0.005983551
0.00608147
0.006169981
0.006246213
0.006316697
0.00637598
0.00642482
0.006462976
0.006490471
0.006507293
0.006512359
0.0065065
0.006489042
0.00645932
0.006416067
0.006359634
0.006289461
0.006204825
0.006104914
0.005988545
0.005853821
0.005699512
0.005523627
0.005325012
0.005099452
0.004844849
0.004549053
0.004207138
0.003820404
0.003386543
0.002898925
0.002352254
0.001745644
0.001091388
0.0004564849
6.587311e-05
3.856081e-05
0.0004402802
0.0008121118
0.001128636
0.001477057
0.00184536
0.002221103
0.002595869
0.002963662
0.00331533
0.003645193
0.003950915
0.004233861
0.004499233
0.004747352
0.004976579
0.005187415
0.005382218
0.005563624
0.00573408
0.005894834
0.006046283
0.006188534
0.006321543
0.006445141
0.006559051
0.0066629
0.006755138
0.006838572
0.006910276
0.006970096
0.007017577
0.0070525
0.007074955
0.007084446
0.007079887
0.007061087
0.00702817
0.006980786
0.006918525
0.00684094
0.006747493
0.006637501
0.006510079
0.00636424
0.006198569
0.00601202
0.00580249
0.005562982
0.005290929
0.004980128
0.004626621
0.004223443
0.003763267
0.003236898
0.002636565
0.001960625
0.001225151
0.0005114737
6.583896e-05
3.989768e-05
0.0004356497
0.0008613394
0.001214087
0.001582263
0.001971496
0.002366723
0.002756657
0.00313173
0.003488866
0.003825821
0.004140744
0.004434185
0.004707648
0.004963774
0.00520492
0.005431447
0.005643922
0.005843946
0.006033168
0.006212713
0.006383134
0.006544555
0.006696807
0.006839516
0.00697217
0.007090716
0.007202156
0.00730102
0.007386815
0.007459035
0.007517088
0.007561
0.007590016
0.007603483
0.007601028
0.007582172
0.007546523
0.007493689
0.007423246
0.007334723
0.007227568
0.007101117
0.006954581
0.006786883
0.006597088
0.006383731
0.006143875
0.005873709
0.005571543
0.005231607
0.004848769
0.004415627
0.00392488
0.003371036
0.002748242
0.002053972
0.001299759
0.0005562244
6.570502e-05
4.200715e-05
0.0004395626
0.0008992674
0.001281183
0.001668638
0.002064749
0.002464153
0.002857515
0.003237641
0.00360052
0.003943902
0.004266945
0.004570173
0.004854852
0.005122629
0.005376113
0.005617757
0.005848501
0.006068724
0.006279023
0.006479953
0.006671779
0.006854426
0.007027532
0.007190527
0.007342735
0.007481359
0.007609825
0.00772447
0.007824407
0.007908889
0.007977397
0.008029923
0.008065444
0.008083162
0.008082458
0.008062808
0.008023757
0.007964888
0.007885801
0.007786083
0.007665284
0.007522882
0.007358242
0.007170571
0.006959027
0.006722508
0.006456829
0.006159769
0.00583421
0.005475827
0.005078674
0.004634324
0.004133211
0.003560957
0.002910281
0.00217962
0.001382325
0.0005947604
6.575114e-05
4.230937e-05
0.0004390622
0.0009177637
0.00132728
0.001722279
0.002122307
0.002523402
0.002918338
0.003301154
0.003668175
0.004017557
0.004348846
0.004662584
0.004959943
0.005242383
0.005511532
0.005769457
0.006018126
0.006258388
0.006490421
0.006713844
0.006928143
0.007132654
0.007326502
0.007508565
0.007677427
0.007833366
0.007977437
0.008107152
0.008221238
0.008318501
0.008397866
0.008458485
0.008499489
0.008520121
0.008519731
0.008497754
0.008453705
0.008387154
0.008297715
0.008185034
0.008048785
0.007888681
0.007704483
0.007494716
0.007258547
0.006995874
0.006708487
0.006392181
0.006045185
0.005663178
0.005241157
0.004772189
0.004246218
0.003650887
0.002981966
0.002236715
0.00142587
0.0006209681
6.556609e-05
4.295233e-05
0.0004328202
0.0009296166
0.001362459
0.001767933
0.0021695
0.002568581
0.002960951
0.003342512
0.003710592
0.004063829
0.004401957
0.004725543
0.005035761
0.005333988
0.005621511
0.005898892
0.006166014
0.006422823
0.006668899
0.006908089
0.007139558
0.00736243
0.007575778
0.00777867
0.007970278
0.008147006
0.008308275
0.00845273
0.008579253
0.008686745
0.008774271
0.008841062
0.008885959
0.008908076
0.008906692
0.008881211
0.008831138
0.008756048
0.008655571
0.008529378
0.008377166
0.008198652
0.007993564
0.00776309
0.007507009
0.007223491
0.006910871
0.006568925
0.006164816
0.005759863
0.005359775
0.004881459
0.004346203
0.003746582
0.003068056
0.002306079
0.001473621
0.0006454563
6.562403e-05
4.521468e-05
0.0004155618
0.0009243603
0.001375201
0.001788036
0.002188992
0.002584928
0.002974951
0.003356431
0.00372697
0.004085282
0.004431198
0.004765212
0.005087547
0.005398278
0.005695892
0.005984258
0.006265102
0.006539906
0.006809803
0.007071113
0.007323679
0.007566735
0.007799256
0.008019931
0.008227175
0.008419096
0.008594256
0.008751027
0.008887982
0.009003786
0.009097233
0.009167226
0.009213079
0.009234142
0.009229809
0.009199546
0.009142899
0.009059494
0.008949028
0.008811256
0.008645977
0.008452993
0.008232069
0.00798284
0.007705114
0.007399378
0.006890307
0.006342245
0.005894531
0.005584266
0.005332509
0.004947824
0.004410119
0.003800558
0.003110126
0.002338286
0.00149693
0.0006591078
6.543552e-05
4.64203e-05
0.0004039656
0.0009135838
0.001378358
0.001799195
0.00220117
0.002594526
0.002980962
0.003359416
0.003728653
0.00408783
0.004435885
0.004770538
0.004928068
0.005061226
0.005271624
0.005538824
0.005869463
0.006237852
0.006639332
0.007029934
0.007439194
0.007747859
0.007995556
0.008230295
0.008450149
0.008653521
0.008838813
0.00900441
0.009148852
0.009270798
0.009369064
0.009442612
0.00949039
0.009511508
0.009505217
0.009470897
0.00940805
0.009316293
0.009195358
0.009045083
0.008865408
0.008656366
0.00841805
0.00815072
0.007679078
0.007137527
0.006610942
0.006148837
0.00578184
0.005487521
0.005251747
0.004998248
0.004458832
0.003845953
0.003152658
0.002373473
0.001521529
0.0006721054
6.549274e-05
4.749374e-05
0.0003923738
0.0008990388
0.001375453
0.001803471
0.002206518
0.002597208
0.002979737
0.003354702
0.003721408
0.004078303
0.004422939
0.004613129
0.004798368
0.005007845
0.00520785
0.005414567
0.005646994
0.00595643
0.006311684
0.006700872
0.007106466
0.007529696
0.007973386
0.008388901
0.008619193
0.008832767
0.009027832
0.009201855
0.0093536
0.009481564
0.009584374
0.009660807
0.009709752
0.009730239
0.00972147
0.009682808
0.009613777
0.009514057
0.009383484
0.009222036
0.009029807
0.008807128
0.008489247
0.007965823
0.007412128
0.006890308
0.006431083
0.006021384
0.005660308
0.005380881
0.005189133
0.004972956
0.004488505
0.003874284
0.003175625
0.002390774
0.001533648
0.0006790179
6.533957e-05
4.839615e-05
0.000382386
0.000882268
0.001363535
0.001798862
0.002204135
0.002593281
0.002972484
0.00334354
0.003706121
0.004058827
0.004359097
0.004590449
0.004773277
0.004934601
0.005087584
0.005296561
0.005551966
0.005835382
0.006150712
0.006519188
0.00690442
0.007297438
0.007693365
0.008087288
0.008483927
0.008870807
0.009167407
0.009348738
0.009506915
0.009640124
0.009746813
0.009825685
0.009875544
0.009895334
0.009884236
0.009841631
0.009767082
0.009660322
0.009521294
0.009350261
0.009077403
0.008661455
0.00820978
0.007738886
0.007253745
0.006768166
0.006296903
0.005877509
0.005545161
0.005297985
0.005109616
0.004913082
0.004509968
0.003895899
0.003195341
0.002407014
0.001544606
0.0006844718
6.530869e-05
4.921179e-05
0.0003733875
0.0008641367
0.001350064
0.001789435
0.002196244
0.002583827
0.002959452
0.003326063
0.003684291
0.004033649
0.004372741
0.004568442
0.004719406
0.004872634
0.005077819
0.005299604
0.005533819
0.005792137
0.006082978
0.006399513
0.006749848
0.007119916
0.007498212
0.007873634
0.00823978
0.008594614
0.008933973
0.009248806
0.009528995
0.009750818
0.009861235
0.009942557
0.00999342
0.01001273
0.009999703
0.009953806
0.009874732
0.009718419
0.009475102
0.009181668
0.008844482
0.008460264
0.008030177
0.007567739
0.007095477
0.006636547
0.006206693
0.005814961
0.005470806
0.00520497
0.005031538
0.004879617
0.004523409
0.003908985
0.003206542
0.002415239
0.001549873
0.0006865082
6.525585e-05
4.998365e-05
0.0003649329
0.0008459584
0.001332157
0.00177487
0.0021837
0.002570418
0.002943004
0.00330546
0.003659322
0.004004708
0.004340818
0.004563755
0.004739958
0.00490973
0.005086867
0.005290976
0.005536277
0.0058065
0.006101648
0.006408648
0.006735868
0.007072715
0.007414702
0.007758574
0.00810079
0.008434229
0.00874785
0.009032911
0.009287762
0.009518108
0.009746586
0.01000847
0.01005542
0.0099262
0.009860519
0.009792264
0.009685896
0.009526255
0.009307019
0.009027227
0.008689151
0.008300557
0.007875349
0.007429609
0.006978524
0.006536612
0.006117885
0.005737261
0.005412198
0.005160171
0.004982236
0.004833276
0.004533473
0.003919893
0.003216719
0.002423529
0.001555433
0.00068896
6.518707e-05
5.05663e-05
0.0003577823
0.0008283788
0.001312922
0.001758242
0.00216793
0.002553691
0.002923581
0.003282287
0.00363211
0.003973863
0.004307486
0.004578242
0.004767179
0.004944373
0.005134064
0.005345005
0.005578532
0.005844365
0.006133749
0.006442701
0.006753941
0.007068157
0.007384439
0.007702321
0.008020524
0.00833475
0.008636469
0.008915391
0.009165344
0.009392301
0.009625527
0.009910725
0.009978605
0.009841277
0.00976342
0.009688431
0.009582561
0.009423831
0.009202161
0.008917972
0.00857756
0.00819044
0.00776966
0.007330913
0.006890112
0.006460984
0.006054496
0.005681103
0.005355912
0.005101269
0.004929523
0.00479883
0.004536944
0.00392325
0.003218995
0.002425041
0.001556009
0.0006891502
6.513482e-05
5.108017e-05
0.0003524422
0.0008130945
0.001293742
0.001739433
0.00215001
0.002534978
0.002902589
0.003258159
0.003604739
0.003943933
0.004276565
0.004601976
0.004823053
0.005012457
0.005208008
0.005422347
0.00566172
0.005928735
0.006216429
0.006515482
0.006815207
0.007113194
0.007409061
0.0077056
0.008004435
0.00830265
0.00859193
0.008861914
0.009107328
0.009336823
0.009579836
0.009887969
0.009988143
0.009855004
0.009755347
0.009662356
0.009546947
0.009384007
0.009159093
0.008869392
0.008521388
0.008127774
0.00770457
0.007268257
0.006833444
0.006411865
0.006013129
0.005647142
0.005327871
0.00507585
0.004903669
0.004777646
0.004540609
0.003927104
0.003222301
0.002426972
0.001557693
0.000690113
6.50874e-05
5.15574e-05
0.0003481371
0.0007988939
0.001274675
0.001719413
0.002129783
0.002514291
0.002880308
0.00323351
0.003577557
0.003914645
0.004246038
0.004573671
0.004896356
0.005114188
0.005318066
0.005540986
0.005787208
0.006053168
0.006337091
0.006629737
0.006920725
0.007204388
0.007481822
0.007757951
0.008037675
0.008321233
0.008601876
0.008868048
0.009110667
0.009334699
0.009572712
0.009895038
0.01004106
0.00991898
0.009794211
0.009680887
0.009551111
0.009376815
0.009141106
0.008840491
0.008482383
0.008081071
0.007653802
0.007217413
0.006785926
0.006369751
0.005976886
0.005615873
0.005299886
0.005049972
0.004880594
0.004761785
0.00454111
0.003927549
0.003222369
0.002426854
0.001557081
0.0006894661
6.501924e-05
5.185894e-05
0.0003459948
0.0007874565
0.001257008
0.001699592
0.002109678
0.002493071
0.002857574
0.003208893
0.003551039
0.003886679
0.004217598
0.004545115
0.004871516
0.005197635
0.005469689
0.005696915
0.005940292
0.006208218
0.006493421
0.006782487
0.00706508
0.007334203
0.007592561
0.007846921
0.008105046
0.008370423
0.008639096
0.008901287
0.009147982
0.009378856
0.009604876
0.009838735
0.01006961
0.01004908
0.009850442
0.009710314
0.009566346
0.009380541
0.009133867
0.008822598
0.008454832
0.008046139
0.007614862
0.007178074
0.006749111
0.006337218
0.005949267
0.005592951
0.005280617
0.005032651
0.004863771
0.004747732
0.00454121
0.003927482
0.003221715
0.002426068
0.001556498
0.000689301
6.499405e-05
5.235071e-05
0.0003445431
0.0007776639
0.001240471
0.001680068
0.00208883
0.002471433
0.002834802
0.003184745
0.003525572
0.003860349
0.004191284
0.00452008
0.0048482
0.005176504
0.005507324
0.005840773
0.006140299
0.006400737
0.006670631
0.00695091
0.007227123
0.007488729
0.007731803
0.007963687
0.00819721
0.008440768
0.008693606
0.008946586
0.009188664
0.00941567
0.009634919
0.009860048
0.01009368
0.01009879
0.009908317
0.009752423
0.009589631
0.009388303
0.009129137
0.008807321
0.008430819
0.008015817
0.007581257
0.007144246
0.006717508
0.00630928
0.005925432
0.005572939
0.005263814
0.005018473
0.004851923
0.004739128
0.004540531
0.003926582
0.003220533
0.002424468
0.001554929
0.0006882598
6.492713e-05
5.259715e-05
0.0003448518
0.0007700316
0.001225992
0.001661559
0.00206842
0.002449978
0.002812413
0.003161402
0.00350142
0.003835818
0.004167106
0.004497213
0.004827654
0.005159589
0.005493939
0.005830824
0.00616987
0.006511441
0.006853317
0.007153303
0.007412132
0.007656143
0.007883696
0.008095901
0.008304015
0.008521996
0.008754658
0.008995164
0.009230694
0.009451971
0.009660966
0.009871732
0.01010781
0.01013704
0.009956643
0.009789916
0.009612068
0.009397191
0.009126734
0.008795458
0.008411308
0.007990919
0.007553634
0.007116497
0.00669166
0.006286541
0.005906224
0.005556949
0.00525081
0.005007899
0.004843248
0.004732247
0.004536057
0.003925024
0.003218634
0.002422458
0.001553346
0.0006876457
6.491776e-05
5.308052e-05
0.0003456082
0.0007641026
0.001212749
0.001644287
0.002048956
0.002429309
0.002790926
0.003139298
0.003478972
0.003813499
0.004145607
0.00447739
0.004810434
0.005145862
0.005484335
0.005825939
0.006170247
0.00651628
0.006862162
0.007205315
0.007544179
0.007850548
0.008060585
0.008242331
0.008420029
0.008608741
0.008817236
0.009041479
0.009267803
0.00948292
0.009684308
0.009885112
0.01011232
0.01015647
0.009993871
0.009823378
0.009634825
0.009408396
0.009127506
0.00878731
0.008396001
0.007970611
0.007530751
0.007093348
0.006670044
0.006267549
0.005890259
0.005543772
0.005240481
0.005000231
0.004838079
0.004729467
0.004535121
0.003923939
0.003216987
0.002420497
0.001551504
0.0006864838
6.48599e-05
5.351545e-05
0.0003473835
0.000759792
0.001201498
0.00162846
0.002030661
0.00240975
0.002770731
0.003118876
0.003458748
0.003794036
0.004127628
0.004461739
0.004797998
0.005137479
0.005480696
0.00582757
0.006177442
0.006529025
0.006880393
0.007229084
0.007572266
0.007906671
0.008228565
0.008421049
0.008565379
0.008716544
0.008893598
0.009096769
0.009311376
0.009518645
0.00970839
0.009890777
0.01010495
0.01019092
0.0100475
0.009850546
0.009653573
0.009421052
0.009132724
0.008784499
0.008386052
0.007955467
0.007512782
0.007074787
0.0066526
0.006252256
0.00587756
0.005533708
0.005233013
0.004995161
0.004835064
0.004727915
0.004534104
0.003922738
0.003215079
0.002418332
0.001549742
0.0006857656
6.485982e-05
5.386775e-05
0.0003497491
0.0007568219
0.001191905
0.001614342
0.002013939
0.002391733
0.002752269
0.003100607
0.003441293
0.003778095
0.004114011
0.004451327
0.004791677
0.005136063
0.005484847
0.005837746
0.006193856
0.006551632
0.006908929
0.007263082
0.00761102
0.007949381
0.008274628
0.008583256
0.008743642
0.00885921
0.008996489
0.009169831
0.009368049
0.00957022
0.009759221
0.009928092
0.01007463
0.01018431
0.01010936
0.009895586
0.009684486
0.009440755
0.009142781
0.008785947
0.008380283
0.007944471
0.007498865
0.007060098
0.006638763
0.00624024
0.005867788
0.005526274
0.005227896
0.004992294
0.004834347
0.004728984
0.004535677
0.003921931
0.00321355
0.002416477
0.001547982
0.0006846294
6.481381e-05
5.464013e-05
0.0003522125
0.0007488013
0.001184158
0.001601938
0.001998949
0.002375602
0.002736044
0.003085139
0.003427395
0.003766621
0.004105868
0.004447445
0.004792942
0.005143238
0.005498505
0.005858217
0.006221193
0.006585604
0.006949038
0.00730862
0.007661133
0.008003028
0.008330891
0.008641184
0.008930203
0.00904074
0.009137453
0.009271785
0.009443535
0.009630954
0.009811142
0.009970013
0.01010013
0.01019805
0.01013594
0.009934443
0.009719439
0.009466187
0.009157843
0.008791579
0.00837826
0.007937066
0.007488479
0.007048831
0.006628121
0.006231081
0.005860487
0.005520963
0.005224621
0.004991061
0.004835048
0.004731021
0.004537531
0.003921086
0.003212311
0.002414694
0.001546326
0.0006838157
6.482183e-05
5.501423e-05
0.0003555647
0.000737309
0.00117828
0.001591388
0.001985818
0.002361612
0.002722436
0.003072969
0.003417668
0.003760349
0.004104061
0.004451069
0.004802851
0.0051601
0.005522739
0.005889951
0.006260242
0.006631479
0.007000983
0.007365664
0.007722149
0.008067093
0.008396711
0.008707536
0.008996292
0.00921029
0.009298265
0.009395668
0.009534696
0.009700991
0.009866717
0.0100109
0.01012733
0.01021632
0.01016094
0.00997042
0.009753911
0.009493101
0.009175237
0.008799819
0.008378982
0.007932526
0.007481032
0.007040502
0.006620339
0.006224626
0.005855654
0.005517852
0.00522329
0.004991614
0.004837626
0.004735038
0.004538758
0.00392084
0.003211133
0.002413237
0.001544879
0.0006828534
6.478905e-05
5.556821e-05
0.0003587863
0.0007248365
0.00117425
0.001582923
0.001974927
0.002350155
0.002711961
0.0030648
0.003413017
0.003760368
0.004109834
0.004463557
0.004822829
0.005188091
0.005558959
0.005934288
0.006312253
0.006690416
0.007065865
0.007435344
0.007795177
0.008142017
0.008472278
0.008782556
0.009069894
0.009331079
0.009459813
0.009535179
0.009640812
0.009781234
0.00993051
0.01006292
0.01016506
0.01023697
0.01018236
0.010004
0.009788819
0.009522454
0.009195971
0.008811622
0.008383232
0.007931461
0.007477036
0.007035505
0.006615533
0.006220483
0.00585246
0.005515969
0.00522303
0.004993357
0.004841636
0.004740142
0.004540432
0.003921382
0.003210706
0.00241226
0.001543633
0.0006821355
6.480368e-05
5.610048e-05
0.0003624244
0.0007162975
0.001171647
0.001576083
0.001966342
0.002341664
0.002705198
0.003061266
0.003414106
0.003767355
0.004123844
0.00448551
0.004853374
0.005227555
0.005607316
0.005991156
0.006376911
0.006761851
0.007142826
0.007515932
0.007878448
0.0082264
0.008556333
0.008864989
0.009149691
0.009407203
0.009611839
0.009684161
0.009762317
0.009874592
0.01000302
0.01012032
0.01020916
0.01026462
0.01020859
0.01004054
0.009826658
0.009555399
0.009220798
0.008827618
0.008391456
0.007933886
0.007475826
0.007032558
0.006612731
0.006218815
0.005852407
0.005517368
0.00522587
0.00499793
0.004848009
0.004747051
0.004542709
0.003922395
0.003210642
0.002411454
0.001542652
0.0006814146
6.478285e-05
5.649356e-05
0.0003659293
0.0007080009
0.001162118
0.001570817
0.001959758
0.00233591
0.002702219
0.003062758
0.003421577
0.003782129
0.004147016
0.00451789
0.004895424
0.005279349
0.005668522
0.006061049
0.006454406
0.006845322
0.007230604
0.007607404
0.00797155
0.008319554
0.008648096
0.00895417
0.009234896
0.009487877
0.009711064
0.009825655
0.009891321
0.009978308
0.01008484
0.01018591
0.01026045
0.01029863
0.0102398
0.01008097
0.009868315
0.009592434
0.009249904
0.008847919
0.008403963
0.007940872
0.007480423
0.007037086
0.006617562
0.006222439
0.005854238
0.005519769
0.005229531
0.005003771
0.004857116
0.004756647
0.004545814
0.003924124
0.0032112
0.002411085
0.001541983
0.0006808418
6.480144e-05
5.694846e-05
0.000369852
0.0007015321
0.00114947
0.001568763
0.001956694
0.002334371
0.002704325
0.003070418
0.003436455
0.003805607
0.004180144
0.00456133
0.004949418
0.005343697
0.005742583
0.006143735
0.006543725
0.006940334
0.007329964
0.007708848
0.008073435
0.008420327
0.008746357
0.009048786
0.00932483
0.009572442
0.009789816
0.009964783
0.01002888
0.01009397
0.01017689
0.01025903
0.01031768
0.01033807
0.01027508
0.01012355
0.009911566
0.009631522
0.009281939
0.00887208
0.008421073
0.007952642
0.00748713
0.007038346
0.006614819
0.006222281
0.005858693
0.005526176
0.005237868
0.005013207
0.004865531
0.004763817
0.004549446
0.003926422
0.003212304
0.002411269
0.001541494
0.0006803927
6.479692e-05
5.715654e-05
0.000373486
0.0006949916
0.001133296
0.001567593
0.001955312
0.002335609
0.002710585
0.003083726
0.003458496
0.003837694
0.004223174
0.00461574
0.00501515
0.005420149
0.005828118
0.006236903
0.006644204
0.007045915
0.007438567
0.00781862
0.00818264
0.008527403
0.008849967
0.009147743
0.009418343
0.009659898
0.009870843
0.01004995
0.01015115
0.01020732
0.01027016
0.01033409
0.0103777
0.01038192
0.01031518
0.01017057
0.009959033
0.009673813
0.009315646
0.008895971
0.008435967
0.007959781
0.007489522
0.007040785
0.006620092
0.00622805
0.005864995
0.005532854
0.005244021
0.005019332
0.004873168
0.004772239
0.004553604
0.003929159
0.003213769
0.002411682
0.001541393
0.0006800071
6.480519e-05
5.74975e-05
0.0003776544
0.0006906455
0.001125351
0.001569841
0.001959104
0.00234246
0.002723357
0.003104759
0.003489664
0.003880375
0.004278185
0.004683122
0.005093806
0.005508382
0.005925821
0.006342728
0.00675564
0.007161094
0.007555567
0.00793561
0.008297945
0.008639552
0.008957741
0.00925009
0.009514592
0.009749576
0.009953711
0.01012599
0.01026534
0.01031999
0.01036609
0.01041179
0.01043961
0.01042786
0.01035555
0.01021399
0.01000056
0.009710906
0.009346802
0.008920478
0.008453532
0.007972008
0.007499024
0.007049001
0.006627515
0.006234125
0.005869227
0.005537065
0.00525049
0.005029321
0.004885394
0.004782666
0.004558569
0.003932613
0.003215891
0.002412689
0.001541453
0.0006799082
6.481096e-05
5.789327e-05
0.0003809507
0.0006864693
0.001111735
0.001572235
0.001963081
0.002352509
0.002741188
0.003132658
0.003529378
0.003932681
0.00434258
0.004758654
0.005180807
0.005606905
0.00603341
0.006457281
0.006875136
0.007283481
0.007678862
0.008057973
0.008417741
0.008755381
0.009068445
0.009354815
0.009612731
0.009840765
0.01003781
0.01020305
0.01033592
0.01041882
0.01045952
0.0104903
0.01050654
0.01048153
0.01039973
0.01025806
0.01004456
0.009751653
0.009380835
0.00894657
0.008472597
0.007986133
0.0075094
0.007057041
0.006634484
0.006241844
0.005877895
0.00554598
0.00525883
0.005037292
0.004894612
0.00479305
0.004563821
0.003936324
0.003218247
0.002413931
0.001541864
0.0006798191
6.481922e-05
5.832761e-05
0.0003846947
0.0006838771
0.001105787
0.001578151
0.001973018
0.00236859
0.002767145
0.003169557
0.003577604
0.003993215
0.004416511
0.004846434
0.005280469
0.005716246
0.006150715
0.006580555
0.007002284
0.007412433
0.007807667
0.008184867
0.00854114
0.008874059
0.009181387
0.009461285
0.009712248
0.009933087
0.0101229
0.01028106
0.01040715
0.01050097
0.01056076
0.01057797
0.01058182
0.01054543
0.01045469
0.01031187
0.01009697
0.00979889
0.009420305
0.008977345
0.008496023
0.008004006
0.007524107
0.007070091
0.006646655
0.00625301
0.005888159
0.005555815
0.005269028
0.005048483
0.004906158
0.004803176
0.004569862
0.003940741
0.003221159
0.002415515
0.001542446
0.0006799045
6.483069e-05
5.880144e-05
0.0003880672
0.0006826466
0.001096462
0.001585411
0.001984806
0.002387826
0.002795664
0.003210345
0.003632958
0.00406313
0.004500293
0.004942805
0.00538819
0.005833489
0.006275398
0.006710457
0.007135192
0.007546244
0.007940455
0.008314932
0.008667045
0.008994643
0.009295777
0.009568878
0.009812685
0.01002622
0.01020877
0.01035985
0.01047916
0.01056661
0.01062221
0.0106461
0.01063852
0.01059977
0.01050598
0.01036219
0.01014537
0.009843226
0.009458306
0.009008092
0.008519894
0.008022604
0.00753924
0.007083162
0.006658593
0.006264298
0.005898926
0.005566088
0.005279003
0.005058638
0.004916934
0.00481374
0.004576246
0.003945486
0.003224375
0.002417376
0.001543246
0.0006801378
6.483927e-05
5.922034e-05
0.0003916429
0.0006812436
0.001090288
0.001594706
0.002000096
0.002412244
0.002832006
0.003260274
0.003697223
0.004142082
0.004593283
0.005048499
0.005504811
0.005958922
0.006407362
0.006846644
0.007273378
0.007684367
0.008076677
0.008447541
0.008794906
0.009116699
0.00941129
0.009677357
0.009913866
0.01012004
0.01029532
0.01043938
0.01055202
0.01063323
0.01068308
0.01070175
0.01068948
0.01064658
0.01055741
0.01041327
0.01019389
0.00988686
0.009495232
0.009037754
0.008543123
0.008041087
0.007554754
0.007097011
0.006671423
0.006276277
0.005910058
0.005576485
0.005289008
0.005068699
0.004927244
0.004823579
0.004583002
0.003950589
0.003227921
0.002419498
0.001544162
0.000680323
6.485197e-05
5.966567e-05
0.0003950805
0.0006813125
0.001085408
0.001606219
0.002019072
0.002441782
0.002874606
0.00331751
0.003769706
0.004229565
0.004694727
0.005162252
0.005628811
0.006090873
0.006544895
0.006987431
0.007415228
0.007825295
0.008214947
0.008581672
0.008923779
0.009239427
0.009527248
0.009786157
0.01001533
0.01021418
0.0103823
0.01051948
0.01062564
0.01070082
0.01074513
0.01075879
0.01074202
0.01069513
0.01061466
0.01046975
0.01024677
0.00993399
0.009535063
0.009069986
0.008568746
0.008061795
0.007572239
0.007112511
0.006685612
0.006289398
0.005922162
0.005587685
0.005299636
0.005079286
0.004938168
0.00483416
0.004590096
0.003955968
0.003231692
0.002421828
0.001545314
0.0006806741
6.486931e-05
6.009147e-05
0.0003982525
0.0006819969
0.001081915
0.001620051
0.002041541
0.002476152
0.002923201
0.003381625
0.003849613
0.004324622
0.004803543
0.005282895
0.005759009
0.006228195
0.006686905
0.007131798
0.007559806
0.007968185
0.00835453
0.008716666
0.009053112
0.00936234
0.009643231
0.00989493
0.01011681
0.01030845
0.01046959
0.01060011
0.01070001
0.01076938
0.01080838
0.0108172
0.0107961
0.01074535
0.01066519
0.01052618
0.0103012
0.009982377
0.009575763
0.009103016
0.008595276
0.008083558
0.007590879
0.007129176
0.006700883
0.006303447
0.005935012
0.005599446
0.005310646
0.005090074
0.004949146
0.004844814
0.004597527
0.0039617
0.00323582
0.00242447
0.001546647
0.0006810274
6.487622e-05
6.050859e-05
0.000401516
0.0006834362
0.001079578
0.001625335
0.002068009
0.002515389
0.002977564
0.003452181
0.003936283
0.004426392
0.004918696
0.005409244
0.005894115
0.006369547
0.006832053
0.007278455
0.007705918
0.008111971
0.008494501
0.008851684
0.009182211
0.00948488
0.009758813
0.01000336
0.01021809
0.01040271
0.01055709
0.01068119
0.01077507
0.01083887
0.01087276
0.01087695
0.01085166
0.01079714
0.01071362
0.01058412