/*--------------------------------*- C++ -*----------------------------------*\
| =========                 |                                                 |
| \\      /  F ield         | OpenFOAM: The Open Source CFD Toolbox           |
|  \\    /   O peration     | Version:  2312                                  |
|   \\  /    A nd           | Website:  www.openfoam.com                      |
|    \\/     M anipulation  |                                                 |
\*---------------------------------------------------------------------------*/
FoamFile
{
    version     2.0;
    format      ascii;
    arch        "LSB;label=32;scalar=64";
    class       volScalarField;
    location    "3750";
    object      omega;
}
// * * * * * * * * * * * * * * * * * * * * * * * * * * * * * * * * * * * * * //

dimensions      [0 0 -1 0 0 0 0];

internalField   nonuniform List<scalar> 
12000
(
50.13333
19.94812
21.59144
23.17347
24.36807
25.43958
26.33857
27.10096
27.75175
28.35926
28.92733
29.42591
29.84519
30.21905
30.58159
30.92077
31.2006
31.42708
31.64368
31.85146
32.03536
32.1656
32.27884
32.37346
32.45859
32.51188
32.54034
32.54898
32.54942
32.53969
32.50706
32.45418
32.39056
32.28475
32.12698
32.05709
31.99427
31.85766
31.59043
31.17124
30.85568
30.77571
30.72477
30.31658
29.32832
28.81025
28.71653
28.69953
28.14353
26.81847
25.99119
25.74127
25.46809
24.00176
22.82318
21.79844
20.6525
19.40729
17.90351
40.96352
86.67071
22.99782
22.28869
22.86499
22.95266
22.78988
22.56708
22.23346
21.5948
20.91082
20.33153
19.63732
18.98591
18.52216
18.06054
17.44251
16.73171
16.33923
16.11617
15.72778
15.15734
14.71214
14.50985
14.29756
13.98133
13.65043
13.44496
13.35979
13.27538
13.12037
12.95855
12.87785
12.86854
12.89793
12.97484
12.98596
12.98989
13.04656
13.258
13.58646
13.85373
13.88358
13.93752
14.35777
15.23712
15.92976
15.99067
16.00011
16.92863
18.52743
19.91486
20.43172
21.11567
23.69476
26.21538
28.76146
32.88498
40.4356
54.58468
77.18557
90.53265
23.25392
21.31305
20.69538
19.75304
18.76016
17.86375
16.93087
16.02673
15.03628
14.19904
13.51189
12.91051
12.40597
11.91918
11.48882
11.13575
10.85199
10.58595
10.32844
10.11001
9.945466
9.812219
9.687046
9.577135
9.494935
9.440475
9.401785
9.369727
9.346384
9.342264
9.345166
9.369893
9.412412
9.455476
9.501443
9.563125
9.64907
9.757535
9.870282
9.977872
10.09838
10.26026
10.46282
10.67988
10.89315
11.1303
11.42791
11.75001
12.1204
12.59494
13.26414
14.08763
15.06324
16.43496
18.50783
22.29999
29.51496
47.52406
85.64658
92.91781
22.15535
19.19358
18.31756
17.16036
15.9882
14.89719
13.85962
12.90246
12.11173
11.41158
10.80379
10.27452
9.826073
9.443903
9.119756
8.851478
8.618618
8.413905
8.239446
8.095228
7.977847
7.880352
7.799397
7.734933
7.686614
7.652832
7.631775
7.623259
7.62331
7.628852
7.647262
7.684343
7.732244
7.790746
7.861421
7.946788
8.048076
8.16582
8.300405
8.453011
8.625183
8.819643
9.044257
9.299948
9.588631
9.914451
10.28579
10.71739
11.21882
11.82389
12.52792
13.29907
14.24113
15.52744
17.45893
20.56491
26.55689
42.42569
91.3305
94.89025
21.33559
17.57414
16.51947
15.28338
14.07149
12.96098
11.96192
11.08997
10.35674
9.744762
9.234668
8.785146
8.37753
8.038569
7.752769
7.514104
7.308176
7.130913
6.982671
6.859048
6.756303
6.671353
6.602283
6.547979
6.507501
6.479962
6.46466
6.461963
6.46428
6.477792
6.506965
6.547642
6.600247
6.664814
6.742572
6.834469
6.940927
7.062688
7.200561
7.355814
7.528774
7.718463
7.927904
8.160999
8.41896
8.704013
9.019421
9.377447
9.790861
10.2507
10.7403
11.34865
12.19712
13.37504
15.1206
18.00437
23.72247
39.28087
95.25362
96.33938
20.84237
16.30719
15.09238
13.86134
12.69066
11.63885
10.7163
9.923355
9.247197
8.672096
8.182553
7.778142
7.426612
7.111666
6.843031
6.612921
6.417329
6.251641
6.111396
5.99305
5.893833
5.81195
5.746005
5.694907
5.657772
5.633887
5.625137
5.624979
5.637695
5.66291
5.701112
5.752643
5.818306
5.89604
5.987706
6.096887
6.222409
6.364837
6.525247
6.704832
6.904949
7.126788
7.368798
7.635497
7.930179
8.253342
8.614738
9.016222
9.442149
9.909502
10.46611
11.1456
11.99478
13.11358
14.71969
17.3255
22.44173
36.75474
98.13349
97.53661
20.59113
15.32492
13.96312
12.7805
11.681
10.69959
9.843155
9.106415
8.47622
7.938074
7.478219
7.083051
6.749424
6.4607
6.202308
5.977067
5.783502
5.61834
5.478101
5.35984
5.261333
5.180917
5.117303
5.069477
5.036649
5.018224
5.014625
5.023199
5.04567
5.082114
5.132081
5.194669
5.271795
5.364835
5.473086
5.597666
5.739353
5.898845
6.076914
6.274343
6.491889
6.730218
6.989998
7.272266
7.576767
7.908562
8.26416
8.636084
9.037924
9.485788
9.998643
10.60797
11.36988
12.39479
13.90288
16.39817
21.35618
35.20741
100.1999
101.3931
21.08876
14.66677
13.10584
11.95651
10.92634
10.01366
9.217695
8.52949
7.936246
7.425047
6.983773
6.601264
6.268801
5.984277
5.738351
5.520058
5.328761
5.163968
5.023704
4.905746
4.808186
4.729497
4.668452
4.624069
4.595562
4.584562
4.585659
4.601683
4.632382
4.67771
4.737479
4.811698
4.901015
5.006077
5.127491
5.265967
5.422276
5.597225
5.791663
6.006447
6.242416
6.500319
6.780907
7.084108
7.412393
7.763472
8.134368
8.52859
8.953841
9.418444
9.939258
10.54971
11.30662
12.30736
13.75213
16.10856
20.75282
33.83907
101.5994
103.2484
21.18424
14.15358
12.41818
11.30291
10.34318
9.495136
8.751648
8.104171
7.542064
7.054328
6.630404
6.26081
5.937504
5.654734
5.410551
5.200103
5.015047
4.853105
4.714137
4.597105
4.500744
4.42382
4.365241
4.324073
4.299545
4.292143
4.298836
4.320836
4.357953
4.410136
4.477805
4.560898
4.65945
4.774081
4.905474
5.054375
5.221598
5.408
5.614464
5.841862
6.091017
6.362632
6.657259
6.975503
7.316579
7.679544
8.066172
8.476535
8.907957
9.364242
9.859693
10.42511
11.11611
12.04766
13.42381
15.70572
20.2426
32.98137
102.6634
91.67831
21.32582
13.88691
11.9378
10.81513
9.903525
9.109542
8.413943
7.805829
7.274301
6.80897
6.400634
6.041631
5.725659
5.447345
5.203106
4.991181
4.809235
4.652103
4.516677
4.402251
4.308022
4.233198
4.176929
4.138404
4.116889
4.112241
4.122903
4.149126
4.190717
4.247619
4.320491
4.409349
4.513933
4.634879
4.772903
4.928799
5.103436
5.297739
5.512663
5.749153
6.008087
6.290216
6.596021
6.927097
7.283086
7.661809
8.058063
8.472251
8.904721
9.359967
9.851911
10.4107
11.09544
12.01708
13.3641
15.57821
19.95327
32.23624
103.3005
94.03977
21.74238
13.70854
11.55597
10.41798
9.548806
8.805195
8.153042
7.578245
7.072226
6.627116
6.235597
5.890346
5.585343
5.315816
5.077932
4.86922
4.688281
4.533347
4.401725
4.290967
4.20009
4.128274
4.074765
4.038837
4.01982
4.017327
4.030561
4.059394
4.103629
4.163209
4.238742
4.330346
4.437913
4.562072
4.703557
4.863202
5.041942
5.2408
5.46086
5.703235
5.969014
6.259189
6.574554
6.914396
7.277844
7.664408
8.072995
8.499659
8.940897
9.395658
9.873202
10.40795
11.06525
11.93799
13.23379
15.39769
19.70321
31.76121
103.841
101.6883
22.71232
13.73813
11.32487
10.13279
9.280344
8.571217
7.954296
7.411963
6.933357
6.50979
6.13396
5.800251
5.504866
5.244569
5.016168
4.815616
4.640386
4.489038
4.360119
4.252274
4.164161
4.094737
4.043152
4.008727
3.990887
3.989134
4.002972
4.032252
4.076925
4.137061
4.213232
4.305775
4.414596
4.540182
4.6832
4.844477
5.02496
5.22571
5.447867
5.692612
5.961107
6.254417
6.573439
6.918769
7.290253
7.685793
8.105654
8.548195
9.002687
9.458958
9.924866
10.43797
11.06927
11.92937
13.21395
15.34629
19.56997
31.36555
104.0737
98.92564
23.39043
13.84751
11.18452
9.9245
9.076589
8.397047
7.814454
7.302732
6.84817
6.444005
6.085755
5.771494
5.494371
5.24462
5.018261
4.818115
4.642962
4.491688
4.363102
4.256125
4.169729
4.102236
4.052172
4.018737
4.001467
3.999981
4.013959
4.043181
4.087596
4.147278
4.222566
4.313811
4.421362
4.54577
4.687754
4.848192
5.028116
5.22869
5.451186
5.696949
5.967331
6.263568
6.586647
6.936828
7.316321
7.726751
8.162712
8.612996
9.065348
9.515251
9.972622
10.47025
11.08009
11.91752
13.16818
15.26815
19.45399
31.14553
104.354
99.6779
24.08128
14.00062
11.10553
9.775778
8.923794
8.264088
7.70682
7.21942
6.788407
6.406323
6.069834
5.771697
5.500838
5.257424
5.040934
4.847297
4.675712
4.526012
4.398424
4.292116
4.205616
4.137917
4.088036
4.055067
4.037992
4.036231
4.049377
4.077634
4.120834
4.179105
4.252739
4.342258
4.448165
4.570998
4.711527
4.870666
5.049505
5.249272
5.471305
5.717003
5.987793
6.284995
6.610416
6.968165
7.360586
7.783121
8.226392
8.679247
9.131622
9.577638
10.02515
10.50957
11.10306
11.92134
13.16072
15.2439
19.38713
30.92711
104.4437
99.79782
24.71582
14.20754
11.10833
9.685611
8.812182
8.161323
7.62431
7.160118
6.751267
6.389338
6.0684
5.780712
5.524083
5.293196
5.085366
4.898091
4.731199
4.584676
4.458228
4.351532
4.264243
4.195534
4.144504
4.110285
4.092094
4.089266
4.101006
4.127729
4.169162
4.225406
4.296777
4.384048
4.487894
4.608771
4.747447
4.904877
5.082179
5.280649
5.501711
5.746777
6.017973
6.31894
6.652515
7.019059
7.417135
7.842778
8.28885
8.744167
9.195424
9.635724
10.07505
10.54847
11.12595
11.92635
13.14964
15.21613
19.34412
30.84753
104.5446
100.1906
25.33679
14.44019
11.12934
9.630059
8.731983
8.08339
7.560315
7.113863
6.722769
6.376984
6.071687
5.801115
5.557477
5.336553
5.136212
4.956019
4.795213
4.65316
4.529537
4.424154
4.336747
4.267011
4.214429
4.17838
4.158227
4.153416
4.163161
4.187883
4.227083
4.280808
4.349448
4.43394
4.535265
4.653936
4.790511
4.945914
5.121206
5.317977
5.538573
5.785411
6.060679
6.366531
6.704716
7.075783
7.477971
7.906203
8.351909
8.804144
9.252102
9.688903
10.1213
10.5837
11.14846
11.93656
13.14923
15.20516
19.31405
30.77438
104.5824
100.7862
25.98183
14.70389
11.20219
9.615058
8.681555
8.026707
7.511298
7.078205
6.702074
6.371101
6.07988
5.821898
5.589901
5.379724
5.188911
5.01603
4.860565
4.722533
4.601836
4.498372
4.411864
4.342093
4.288682
4.251186
4.229159
4.222204
4.229678
4.252034
4.288883
4.340298
4.40645
4.487497
4.584913
4.700837
4.835889
4.990285
5.165134
5.36216
5.58351
5.831578
6.108823
6.417452
6.758864
7.132918
7.537197
7.966344
8.411748
8.862042
9.305373
9.735171
10.16016
10.61495
11.16966
11.94562
13.14763
15.19288
19.28359
30.70272
104.5681
100.8467
26.55508
14.97516
11.29698
9.61998
8.650885
7.985139
7.472305
7.048495
6.684492
6.366296
6.086912
5.840071
5.618953
5.418592
5.236387
5.070922
4.921513
4.787966
4.670451
4.569094
4.483894
4.4146
4.360902
4.322457
4.298938
4.290076
4.295412
4.315361
4.349675
4.39846
4.461878
4.540095
4.634806
4.7485
4.881949
5.035341
5.209689
5.406673
5.628479
5.877565
6.156378
6.466981
6.810524
7.18653
7.592124
8.021447
8.465563
8.913218
9.35296
9.778096
10.19648
10.64299
11.18886
11.9572
13.1541
15.19334
19.28187
30.69494
104.4835
101.236
27.08311
15.25119
11.41025
9.647373
8.635802
7.954256
7.439739
7.021586
6.666651
6.358406
6.087939
5.851217
5.640088
5.44887
5.274744
5.116224
4.972572
4.843651
4.729701
4.630958
4.547492
4.479154
4.425699
4.38685
4.362372
4.352096
4.355751
4.373702
4.405853
4.452361
4.513436
4.589285
4.681659
4.793243
4.925127
5.077597
5.251551
5.448557
5.670761
5.920652
6.200712
6.512942
6.858257
7.235781
7.642169
8.071135
8.513439
8.957658
9.392424
9.811549
10.22363
10.66389
11.2032
11.96498
13.15641
15.19042
19.26562
30.64722
104.4138
101.5756
27.57365
15.52623
11.53441
9.688677
8.634656
7.932368
7.411532
6.995256
6.646475
6.346226
6.084132
5.85231
5.648703
5.466359
5.30004
5.148069
5.009986
4.88578
4.775655
4.679893
4.59863
4.531803
4.479217
4.440646
4.415911
4.40492
4.407548
4.424158
4.454801
4.499728
4.559218
4.633468
4.724107
4.833961
4.964578
5.116424
5.290271
5.487592
5.710502
5.96149
6.243012
6.556964
6.904032
7.282986
7.690059
8.118575
8.559042
9.000008
9.430267
9.843884
10.24978
10.68367
11.2169
11.9735
13.16124
15.19226
19.26445
30.6339
104.2703
101.4906
27.98735
15.79463
11.66617
9.73893
8.638226
7.914419
7.38468
6.967329
6.621986
6.327377
6.071485
5.846809
5.646687
5.467602
5.307698
5.16285
5.03096
4.911809
4.805846
4.71351
4.635017
4.570368
4.519407
4.481945
4.457842
4.447053
4.449528
4.465683
4.495667
4.539828
4.598599
4.672538
4.762521
4.870966
5.000642
5.152393
5.326583
5.524579
5.748468
6.00072
6.28374
6.599295
6.947833
7.32778
7.734978
8.162407
8.600366
9.037398
9.462541
9.870378
10.27052
10.69923
11.22794
11.98082
13.16612
15.1952
19.26343
30.61888
104.1866
102.5014
28.42733
16.058
11.79832
9.7928
8.647488
7.898776
7.357407
6.936396
6.592055
6.300883
6.049339
5.828952
5.633881
5.460242
5.303392
5.161612
5.033755
4.919883
4.818985
4.730944
4.655968
4.594235
4.545721
4.510289
4.487816
4.478279
4.481628
4.498401
4.528786
4.57322
4.632219
4.706391
4.796517
4.904893
5.034448
5.186343
5.361084
5.559988
5.785055
6.038679
6.323182
6.640189
6.989923
7.370502
7.777434
8.203421
8.638624
9.071627
9.491699
9.893831
10.28822
10.7118
11.23638
11.98616
13.16935
15.19681
19.26244
30.60929
104.0478
102.1399
28.80409
16.32129
11.93609
9.85207
8.660184
7.884621
7.329142
6.902013
6.556394
6.266656
6.017855
5.800678
5.608918
5.438222
5.285303
5.148119
5.025304
4.915016
4.817482
4.732794
4.661761
4.603839
4.55874
4.526311
4.506495
4.499284
4.504559
4.523025
4.554849
4.600532
4.660667
4.735908
4.826968
4.936011
5.066044
5.218497
5.39404
5.593982
5.820256
6.075184
6.360994
6.679172
7.029725
7.410494
7.816697
8.240811
8.672903
9.101646
9.516587
9.913199
10.30233
10.72158
11.24318
11.99133
13.17413
15.20248
19.26897
30.60797
103.9848
103.6063
29.2373
16.57758
12.06976
9.910205
8.672527
7.869595
7.298608
6.863597
6.514887
6.224931
5.977517
5.762547
5.573392
5.405514
5.255731
5.121873
5.002478
4.896568
4.803788
4.724126
4.656773
4.602172
4.560277
4.531429
4.51516
4.511222
4.51938
4.54051
4.574702
4.622499
4.684545
4.761534
4.854174
4.964505
5.095493
5.248797
5.425286
5.626289
5.853703
6.109786
6.396684
6.715748
7.066786
7.447395
7.852541
8.27452
8.703343
9.127797
9.537704
9.928989
10.31311
10.72827
11.24701
11.99349
13.17564
15.20373
19.26951
30.60318
103.8718
104.0107
29.65847
16.84121
12.20807
9.970765
8.68553
7.853608
7.265417
6.820808
6.467389
6.17581
5.92867
5.715119
5.52809
5.362822
5.216051
5.085543
4.969806
4.867879
4.779212
4.703497
4.64053
4.590334
4.553056
4.528034
4.515255
4.515133
4.526953
4.551546
4.588877
4.639503
4.704122
4.783491
4.8783
4.99026
5.12234
5.276719
5.454365
5.656461
5.884901
6.141948
6.429697
6.74938
7.10062
7.480784
7.88462
8.304276
8.729745
9.149952
9.555027
9.941389
10.32111
10.73292
11.24942
11.99533
13.17885
15.20923
19.27759
30.60683
103.8238
104.8974
30.09856
17.09986
12.3425
10.02868
8.696351
7.835084
7.228801
6.773456
6.414161
6.119911
5.8722
5.659463
5.474189
5.311359
5.16756
5.040462
4.928497
4.830629
4.74624
4.674912
4.616402
4.570554
4.537324
4.516702
4.508614
4.512416
4.528439
4.556915
4.597882
4.651816
4.719408
4.801493
4.899046
5.013321
5.146756
5.302116
5.480804
5.683924
5.913321
6.171224
6.459667
6.779776
7.131001
7.510505
7.912847
8.330064
8.752163
9.168224
9.568695
9.950473
10.32628
10.73476
11.2497
11.99514
13.17916
15.21009
19.27894
30.60655
103.727
107.2112
30.59948
17.37228
12.48123
10.08802
8.706309
7.814109
7.188467
6.721273
6.355124
6.057383
5.808475
5.596132
5.412392
5.251948
5.111203
4.987704
4.87978
4.786309
4.706512
4.639854
4.585975
4.544712
4.515941
4.499593
4.495643
4.503781
4.524417
4.557071
4.602136
4.65984
4.730832
4.815969
4.91628
5.03297
5.168292
5.324994
5.5047
5.708699
5.93889
6.197482
6.486448
6.806795
7.157813
7.536476
7.937186
8.351905
8.770678
9.182758
9.578891
9.956368
10.32811
10.73493
11.24961
11.9954
13.17972
15.21408
19.28773
30.61932
103.6886
106.8804
31.03629
17.6271
12.61141
10.14362
8.713513
7.790139
7.144555
6.664862
6.291248
5.989516
5.739055
5.526907
5.344647
5.186655
5.049115
4.92941
4.825729
4.73686
4.661848
4.600095
4.55115
4.51476
4.490728
4.478938
4.479335
4.491727
4.516544
4.553607
4.602756
4.664387
4.738974
4.827351
4.930546
5.049734
5.187056
5.345197
5.525925
5.730713
5.961548
6.220653
6.509951
6.830341
7.180962
7.558622
7.957591
8.369784
8.785315
9.193623
9.585775
9.959553
10.32878
10.73363
11.24722
11.99344
13.17938
15.21439
19.28932
30.62145
103.6133
108.2957
31.51888
17.8881
12.73926
10.19727
8.718336
7.76323
7.097059
6.604284
6.222749
5.91671
5.664524
5.452532
5.271832
5.116469
4.982384
4.86677
4.767662
4.68364
4.613696
4.557088
4.513338
4.482049
4.462963
4.455911
4.460706
4.47752
4.506387
4.547461
4.600735
4.666221
4.744392
4.835994
4.942048
5.063747
5.203122
5.362719
5.544403
5.749843
5.981142
6.240561
6.529992
6.850241
7.200304
7.576842
7.974023
8.383747
8.796209
9.201014
9.589494
9.959673
10.32632
10.72949
11.24283
11.99005
13.17794
15.21564
19.29693
30.63769
103.5952
108.712
31.99164
18.14338
12.85857
10.2438
8.718012
7.731978
7.045623
6.53993
6.150537
5.840249
5.586436
5.374756
5.195821
5.043324
4.912939
4.801638
4.707322
4.628384
4.563702
4.512408
4.473944
4.447854
4.43381
4.431591
4.440922
4.462055
4.494908
4.539732
4.596726
4.665898
4.747515
4.842239
4.951049
5.075149
5.216473
5.377428
5.559955
5.765902
5.997494
6.257049
6.546441
6.866401
7.215803
7.591178
7.986582
8.393893
8.803401
9.204915
9.589864
9.957379
10.32168
10.72371
11.23716
11.98545
13.175
15.2148
19.29778
30.64146
103.552
108.6814
32.44373
18.40887
12.98533
10.2926
8.717281
7.699225
6.992044
6.473162
6.075859
5.761389
5.506085
5.294897
5.117937
4.968535
4.842079
4.735367
4.64605
4.572403
4.513132
4.467312
4.434229
4.413366
4.404341
4.406856
4.420808
4.446131
4.482862
4.531238
4.591588
4.664047
4.748803
4.846404
4.957763
5.084082
5.227194
5.389362
5.572588
5.778894
6.010628
6.270168
6.559387
6.878945
7.227587
7.601713
7.99533
8.400375
8.807284
9.205685
9.588019
9.952875
10.31528
10.71652
11.23038
11.98002
13.17165
15.21504
19.30281
30.66004
103.5598
108.6894
32.88977
18.66228
13.09342
10.32755
8.70939
7.661758
6.935044
6.403664
5.99889
5.680593
5.424139
5.213789
5.039158
4.893207
4.771052
4.669198
4.585044
4.516706
4.462819
4.422412
4.394676
4.379008
4.374963
4.382168
4.400559
4.429999
4.470521
4.522272
4.585649
4.661022
4.748575
4.84876
4.962418
5.090733
5.235438
5.398656
5.582445
5.788981
6.020729
6.28013
6.569063
6.88814
7.236062
7.609201
8.001506
8.404359
8.808326
9.204084
9.583637
9.946332
10.30755
10.70852
11.22286
11.9736
13.16675
15.21236
19.30399
30.66431
103.5601
107.7642
33.27384
18.92977
13.21472
10.36615
8.701718
7.623897
6.87762
6.334009
5.922133
5.600381
5.343105
5.133852
4.961776
4.81948
4.701777
4.604814
4.525831
4.46283
4.414359
4.379279
4.356722
4.346032
4.346718
4.358421
4.380981
4.41428
4.45834
4.513293
4.579481
4.657372
4.747314
4.849722
4.965368
5.095404
5.241459
5.405525
5.589711
5.796346
6.028008
6.287206
6.575831
6.894466
7.241716
7.6136
8.003909
8.404928
8.806998
9.200502
9.577967
9.938902
10.29887
10.69944
11.21441
11.96654
13.16154
15.20969
19.30479
30.68013
103.5791
107.9987
33.66506
19.17529
13.31312
10.38881
8.683966
7.579705
6.816118
6.261714
5.843749
5.519334
5.261924
5.054425
4.885484
4.747229
4.63409
4.542085
4.468349
4.410751
4.367663
4.337837
4.320344
4.314482
4.319716
4.335703
4.362208
4.39913
4.446487
4.504416
4.57317
4.653254
4.745218
4.849499
4.966811
5.098279
5.245445
5.410193
5.594672
5.801321
6.032808
6.291661
6.579782
6.897713
7.243942
7.614767
8.003927
8.403214
8.803351
9.194851
9.57028
9.929417
10.28831
10.68883
11.20458
11.95795
13.15445
15.20479
19.30443
30.68195
103.5951
108.3132
34.06456
19.44156
13.42995
10.42259
8.671872
7.539023
6.757605
6.192376
5.768487
5.441677
5.184416
4.978898
4.813117
4.678795
4.570063
4.482832
4.414102
4.361612
4.323613
4.298768
4.286066
4.284742
4.294243
4.314186
4.344338
4.384589
4.434961
4.495597
4.566752
4.648858
4.742502
4.848289
4.966919
5.099497
5.247522
5.41278
5.597393
5.803871
6.034963
6.293365
6.581024
6.898426
7.243994
7.613724
8.001358
8.398846
8.797031
9.186689
9.560671
9.918903
10.2774
10.67802
11.19449
11.94911
13.14713
15.19955
19.30252
30.69098
103.6161
108.871
34.42589
19.68347
13.52573
10.44021
8.649962
7.492089
6.695263
6.121285
5.693149
5.365184
5.108915
4.905842
4.743484
4.613264
4.509159
4.426885
4.363213
4.315724
4.282591
4.262423
4.254199
4.257083
4.270511
4.294068
4.327503
4.370724
4.423767
4.486792
4.560076
4.644013
4.739126
4.846123
4.965805
5.099223
5.247853
5.413413
5.598021
5.804279
6.03504
6.293001
6.580079
6.896728
7.24131
7.609815
7.996012
8.391948
8.788581
9.176787
9.549513
9.906855
10.26509
10.66617
11.18364
11.93947
13.13863
15.19216
19.29731
30.69093
103.6257
109.5357
34.76959
19.92139
13.62655
10.46123
8.62987
7.447441
6.635989
6.053769
5.621723
5.292795
5.037559
4.836865
4.677884
4.551761
4.452239
4.374747
4.315908
4.273193
4.244694
4.228975
4.22494
4.231709
4.248698
4.275511
4.311907
4.357795
4.413219
4.478343
4.553456
4.638967
4.735414
4.84347
4.963972
5.098017
5.24701
5.412653
5.597085
5.802959
6.033195
6.290542
6.576942
6.892823
7.236497
7.603917
7.98886
8.383429
8.7787
9.165691
9.537488
9.894288
10.25242
10.65386
11.17215
11.92926
13.13016
15.18619
19.29438
30.69207
103.6416
109.9093
35.06905
20.14723
13.72235
10.48118
8.610919
7.405153
6.580028
5.990337
5.554916
5.22538
4.971438
4.773368
4.617919
4.495896
4.40077
4.327789
4.27346
4.235159
4.210907
4.19925
4.198927
4.209138
4.229284
4.258968
4.297963
4.346179
4.40366
4.470577
4.547223
4.634016
4.731504
4.840374
4.961473
5.095913
5.245041
5.410531
5.594599
5.799958
6.029585
6.286269
6.57196
6.887052
7.229811
7.596159
7.979895
8.373205
8.767282
9.153263
9.524334
9.880785
10.23901
10.64097
11.16009
11.91815
13.11999
15.17727
19.28809
30.69247
103.6415
110.5098
35.36857
20.36705
13.81679
10.50102
8.593085
7.365172
6.527387
5.93103
5.492842
5.163133
4.910757
4.715414
4.563433
4.445328
4.354351
4.2856
4.235455
4.201218
4.180822
4.172788
4.175792
4.189069
4.212019
4.244227
4.285458
4.33563
4.394803
4.463163
4.54102
4.628805
4.727081
4.836543
4.958042
5.092698
5.241783
5.406947
5.590512
5.795251
6.024192
6.280156
6.565097
6.87938
7.22123
7.586554
7.969179
8.361371
8.754434
9.139616
9.51019
9.866499
10.22498
10.62756
11.14763
11.90693
13.11027
15.16972
19.28402
30.69329
103.6511
111.0312
35.63992
20.57683
13.90814
10.52168
8.57798
7.328694
6.478911
5.876474
5.435986
5.106422
4.855785
4.663206
4.514616
4.400254
4.313175
4.248334
4.202011
4.171416
4.154447
4.149588
4.155538
4.171494
4.196835
4.231157
4.274236
4.326005
4.386537
4.456034
4.534821
4.623341
4.722166
4.832001
4.953701
5.088395
5.237332
5.402096
5.585045
5.78907
6.017263
6.272471
6.55664
6.870106
7.211062
7.575403
7.956996
8.348194
8.740408
9.124986
9.495266
9.851621
10.21048
10.6137
11.13459
11.89474
13.09881
15.15899
19.27471
30.69043
103.6536
111.6058
35.88363
20.77186
13.99673
10.54125
8.563718
7.295899
6.435435
5.827619
5.385215
5.055969
4.807074
4.617126
4.471693
4.360762
4.277215
4.215884
4.172962
4.145595
4.131646
4.129528
4.137997
4.156202
4.18353
4.219585
4.264153
4.317182
4.37876
4.449104
4.528553
4.617565
4.716723
4.826739
4.948474
5.083065
5.23176
5.396055
5.578313
5.781566
6.008966
6.263383
6.546759
6.8594
7.19947
7.562867
7.943505
8.333826
8.725346
9.109503
9.479682
9.836262
10.19564
10.59964
11.12152
11.88283
13.08829
15.15039
19.26888
30.6878
103.6634
112.166
36.10692
20.95911
14.08868
10.5618
8.550547
7.266867
6.397268
5.784878
5.340915
5.012068
4.764819
4.577284
4.434706
4.326848
4.246433
4.188179
4.148199
4.123593
4.112347
4.112529
4.123081
4.143121
4.17204
4.209452
4.255156
4.309115
4.371436
4.442352
4.522217
4.611502
4.7108
4.820833
4.942465
5.07684
5.225204
5.388977
5.570516
5.772968
5.999547
6.253153
6.535722
6.847534
7.186728
7.549215
7.928965
8.31851
8.709466
9.093347
9.463563
9.820472
10.18042
10.58514
11.10781
11.86989
13.07609
15.13915
19.25995
30.68779
103.6703
112.6136
36.29285
21.12843
14.17761
10.58281
8.539729
7.242194
6.364747
5.74848
5.303249
4.974821
4.729058
4.543662
4.403593
4.298418
4.220724
4.165137
4.127692
4.105441
4.096325
4.098415
4.110637
4.132112
4.162239
4.200644
4.247146
4.301726
4.36451
4.435747
4.515806
4.605172
4.704446
4.814355
4.935769
5.069834
5.217796
5.381029
5.561855
5.763482
5.989219
6.242002
6.523753
6.834724
7.173042
7.53464
7.913551
8.302399
8.692897
9.076621
9.446997
9.804347
10.16495
10.57046
11.09398
11.85696
13.06413
15.1285
19.2515
30.68461
103.6899
113.0817
36.48073
21.29541
14.26948
10.6059
8.531439
7.221988
6.338051
5.71865
5.272436
4.94441
4.69993
4.516356
4.378412
4.275497
4.200081
4.146706
4.111354
4.09103
4.083612
4.087194
4.100675
4.123182
4.154129
4.193164
4.240129
4.29503
4.35801
4.429337
4.509393
4.598672
4.697781
4.80745
4.928548
5.062225
5.209717
5.372396
5.552522
5.753319
5.978207
6.230152
6.511062
6.821168
7.158594
7.519305
7.897406
8.285613
8.675727
9.05938
9.429999
9.787854
10.14914
10.55539
11.07965
11.8433
13.05107
15.11607
19.2399
30.67402
103.6973
113.479
36.6408
21.45063
14.362
10.63361
8.530226
7.208495
6.31827
5.695835
5.248593
4.920792
4.677317
4.495217
4.359007
4.257941
4.184381
4.132792
4.099099
4.080265
4.074122
4.078772
4.093092
4.116222
4.147601
4.18691
4.234021
4.288964
4.351905
4.423124
4.503012
4.592067
4.690899
4.800236
4.920946
5.054172
5.201149
5.363238
5.542653
5.742623
5.966659
6.217746
6.497784
6.806991
7.1435
7.503318
7.880629
8.268244
8.658048
9.041722
9.412688
9.771153
10.13321
10.5403
11.06536
11.82983
13.03852
15.10494
19.2316
30.67309
103.7115
113.8657
36.79256
21.60117
14.45564
10.66349
8.531324
7.200453
6.304813
5.679923
5.231779
4.904029
4.66122
4.480178
4.345255
4.245585
4.173438
4.123206
4.090755
4.073002
4.067727
4.07303
4.087769
4.111106
4.14253
4.181769
4.228735
4.28348
4.346183
4.417133
4.496722
4.585446
4.68391
4.792841
4.913101
5.045826
5.192244
5.35371
5.532396
5.731536
5.954705
6.204907
6.484034
6.7923
7.127859
7.486773
7.863308
8.25037
8.639922
9.023684
9.395055
9.754161
10.11697
10.5248
11.0505
11.81548
13.02462
15.09158
19.21938
30.66457
103.7208
114.2394
36.93009
21.74536
14.55254
10.69995
8.539927
7.200337
6.299498
5.671018
5.221387
4.893353
4.650931
4.470651
4.336693
4.238078
4.166994
4.117768
4.086209
4.069176
4.064383
4.069918
4.084642
4.107765
4.138847
4.17769
4.224246
4.278587
4.34089
4.411439
4.49062
4.578921
4.676941
4.785399
4.905152
5.037328
5.183145
5.343952
5.521887
5.720186
5.942472
6.191758
6.469935
6.777223
7.111805
7.469806
7.845581
8.232128
8.621483
9.005393
9.377227
9.737019
10.10062
10.50921
11.0356
11.80123
13.0111
15.07917
19.2092
30.66101
103.7303
114.6156
37.05295
21.88248
14.64926
10.73852
8.554512
7.206109
6.300755
5.67111
5.220019
4.891044
4.64826
4.468069
4.334493
4.236416
4.165915
4.117225
4.086065
4.069218
4.064399
4.069648
4.083843
4.106254
4.136554
4.174665
4.220588
4.274356
4.336125
4.406162
4.484838
4.572632
4.670133
4.778053
4.897244
5.028825
5.173997
5.334106
5.511265
5.70871
5.93009
6.178428
6.455615
6.761884
7.095457
7.452529
7.827547
8.213599
8.602786
8.986874
9.359187
9.719654
10.08399
10.49327
11.02022
11.7863
12.99662
15.06535
19.19698
30.65424
103.7395
115.034
37.18155
22.01922
14.75105
10.78838
8.574644
7.21639
6.307523
5.674245
5.221847
4.892328
4.649334
4.469125
4.335654
4.237759
4.16748
4.119018
4.088071
4.071286
4.066203
4.070917
4.084381
4.105949
4.135317
4.172571
4.217734
4.270813
4.331944
4.401375
4.479464
4.566678
4.663592
4.770906
4.889487
5.020437
5.164921
5.324286
5.500639
5.697209
5.917658
6.165011
6.441164
6.74637
7.0789
7.435025
7.809284
8.194853
8.583894
8.968181
9.340987
9.702134
10.06721
10.47715
11.00465
11.77119
12.98199
15.05139
19.18391
30.64436
103.7456
115.4749
37.29821
22.15149
14.85662
10.84728
8.60145
7.232208
6.320623
5.685473
5.231377
4.900642
4.656857
4.476176
4.342464
4.244488
4.174226
4.125839
4.094667
4.077196
4.071112
4.074564
4.086661
4.106894
4.135172
4.17142
4.215699
4.267983
4.328381
4.397125
4.474555
4.561122
4.657389
4.764034
4.881963
5.012251
5.156
5.314573
5.49008
5.685746
5.905231
6.151559
6.426631
6.730725
7.062169
7.417316
7.790801
8.175886
8.564786
8.949279
9.322581
9.684402
10.05018
10.46075
10.9887
11.75555
12.96668
15.03667
19.17075
30.63622
103.7505
115.944
37.41193
22.28124
14.96608
10.91401
8.635179
7.254187
6.339725
5.702436
5.246584
4.914461
4.669632
4.488212
4.354022
4.255788
4.185475
4.136672
4.104528
4.085728
4.078103
4.079883
4.090349
4.109102
4.136029
4.171196
4.214487
4.265882
4.325464
4.393443
4.470142
4.555998
4.651563
4.757512
4.874762
5.004312
5.14725
5.304996
5.47963
5.674364
5.89285
6.138105
6.412039
6.714967
7.045281
7.399423
7.772125
8.156731
8.545505
8.930219
9.304025
9.666514
10.03298
10.44413
10.9725
11.73964
12.95099
15.02132
19.15654
30.62469
103.7526
116.4203
37.52128
22.40939
15.08029
10.98914
8.676807
7.282935
6.364844
5.724975
5.267108
4.933385
4.687328
4.505033
4.37031
4.271904
4.200983
4.150902
4.117128
4.096461
4.086828
4.08663
4.095263
4.112401
4.137937
4.171852
4.21409
4.264514
4.323207
4.390354
4.466262
4.551353
4.646167
4.751369
4.867862
4.996628
5.138746
5.295632
5.469357
5.663118
5.880557
6.124686
6.397432
6.699148
7.028297
7.381414
7.753325
8.137456
8.526109
8.911043
9.285338
9.648462
10.01557
10.42725
10.95599
11.72337
12.93495
15.00552
19.14158
30.61107
103.7528
116.8923
37.62767
22.53376
15.197
11.07003
8.724533
7.318113
6.396102
5.75313
5.292844
4.95726
4.709849
4.526697
4.39165
4.29246
4.219984
4.167985
4.132056
4.109071
4.096987
4.094624
4.101288
4.116721
4.140798
4.173442
4.214504
4.263898
4.321635
4.387891
4.462953
4.547229
4.641244
4.745652
4.861343
4.989283
5.130542
5.286532
5.459311
5.652062
5.868413
6.111372
6.382882
6.683344
7.011295
7.363366
7.734481
8.118136
8.506666
8.89181
9.26657
9.63029
9.997987
10.41013
10.93918
11.70677
12.91858
14.98939
19.12623
30.59783
103.7476
117.3621
37.73986
22.66099
15.31904
11.15912
8.782322
7.35945
6.431576
5.785922
5.323309
4.985903
4.73727
4.553586
4.417606
4.316633
4.241968
4.187524
4.148938
4.123226
4.108514
4.103809
4.108402
4.122061
4.14462
4.175934
4.215797
4.264077
4.320802
4.386108
4.460271
4.54368
4.636849
4.740417
4.855259
4.982331
5.122693
5.277748
5.449543
5.641248
5.856467
6.098206
6.36843
6.667592
6.994309
7.345311
7.715612
8.098778
8.487166
8.872489
9.247668
9.61193
9.980163
10.39273
10.92203
11.68972
12.90167
14.97306
19.11062
30.58427
103.7387
117.8215
37.8425
22.78341
15.44212
11.25439
8.848294
7.406812
6.471603
5.823112
5.358276
5.019331
4.769991
4.585307
4.447356
4.343898
4.266511
4.209136
4.167502
4.138785
4.121278
4.11413
4.11659
4.128427
4.149417
4.179347
4.217955
4.265088
4.320745
4.38504
4.458248