/*--------------------------------*- C++ -*----------------------------------*\
| =========                 |                                                 |
| \\      /  F ield         | OpenFOAM: The Open Source CFD Toolbox           |
|  \\    /   O peration     | Version:  2312                                  |
|   \\  /    A nd           | Website:  www.openfoam.com                      |
|    \\/     M anipulation  |                                                 |
\*---------------------------------------------------------------------------*/
FoamFile
{
    version     2.0;
    format      ascii;
    arch        "LSB;label=32;scalar=64";
    class       surfaceScalarField;
    location    "3750";
    object      phi;
}
// * * * * * * * * * * * * * * * * * * * * * * * * * * * * * * * * * * * * * //

dimensions      [1 0 -1 0 0 0 0];

oriented        oriented;

internalField   nonuniform List<scalar> 
23740
(
-0.0001338292
0.0001334841
-0.0002647194
0.0001308906
-0.0003988269
0.000134108
-0.0005288541
0.0001300277
-0.000657089
0.0001282355
-0.000792337
0.0001352486
-0.0009268658
0.0001345294
-0.001041295
0.0001144301
-0.001128774
8.747943e-05
-0.001224379
9.5605e-05
-0.001333471
0.0001090923
-0.001435076
0.0001016062
-0.001504761
6.968505e-05
-0.001561412
5.665099e-05
-0.001636451
7.504e-05
-0.001722327
8.587555e-05
-0.001784016
6.168966e-05
-0.00181959
3.557421e-05
-0.001860975
4.138533e-05
-0.001919257
5.828207e-05
-0.001971376
5.211887e-05
-0.002003157
3.178197e-05
-0.002027585
2.442799e-05
-0.002057791
3.02056e-05
-0.002089783
3.199279e-05
-0.002113356
2.357225e-05
-0.002126192
1.283613e-05
-0.002135614
9.422177e-06
-0.002148092
1.24782e-05
-0.002161155
1.30622e-05
-0.002168958
7.802783e-06
-0.002171424
2.46527e-06
-0.0021669
-4.524909e-06
-0.002156321
-1.057946e-05
-0.002151141
-5.181435e-06
-0.00215079
-3.526499e-07
-0.00214543
-5.360749e-06
-0.002124244
-2.118753e-05
-0.002085914
-3.833138e-05
-0.002054204
-3.171094e-05
-0.0020444
-9.805583e-06
-0.002037783
-6.618472e-06
-0.002001908
-3.587572e-05
-0.00191799
-8.391812e-05
-0.001846298
-7.169229e-05
-0.001821434
-2.486282e-05
-0.001814783
-6.650485e-06
-0.001756535
-5.824766e-05
-0.001634653
-0.0001218814
-0.001522002
-0.0001126495
-0.001469982
-5.201869e-05
-0.001409487
-6.049361e-05
-0.001271951
-0.000137535
-0.00111806
-0.0001538897
-0.0009912211
-0.0001268383
-0.0008513259
-0.0001398943
-0.000672063
-0.000179262
-0.0004526074
-0.0002194542
-0.000224631
-0.0002279737
-0.0002246306
-0.0001311219
0.0002646061
-0.000259355
0.0002591239
-0.0003843441
0.0002590975
-0.0005076373
0.0002533212
-0.0006216706
0.0002422693
-0.0007195427
0.0002331212
-0.0008076223
0.0002226095
-0.0009004932
0.0002073015
-0.001003945
0.0001909313
-0.001085731
0.000177392
-0.001146214
0.0001695752
-0.001203591
0.0001589842
-0.001276868
0.0001429628
-0.001350575
0.0001303583
-0.001398835
0.0001233003
-0.001429133
0.0001161733
-0.001471786
0.0001043432
-0.001528542
9.233027e-05
-0.001572083
8.492728e-05
-0.001593445
7.964373e-05
-0.001613651
7.232555e-05
-0.001645068
6.319937e-05
-0.001676246
5.560621e-05
-0.001695915
4.987476e-05
-0.001708099
4.417666e-05
-0.001721976
3.744911e-05
-0.001739613
3.047312e-05
-0.001754697
2.450572e-05
-0.001761853
1.963342e-05
-0.001763879
1.508786e-05
-0.001765943
9.866723e-06
-0.001768622
5.142774e-06
-0.001771311
-1.836646e-06
-0.001774118
-7.773905e-06
-0.001767594
-1.170701e-05
-0.001750896
-1.705224e-05
-0.001732001
-2.42577e-05
-0.001720423
-3.276715e-05
-0.001719109
-3.964606e-05
-0.001705147
-4.567476e-05
-0.00166236
-5.259409e-05
-0.001608212
-6.076812e-05
-0.001572697
-7.139081e-05
-0.001575249
-8.136623e-05
-0.001557446
-8.949571e-05
-0.00148379
-9.851832e-05
-0.001382134
-0.0001083055
-0.001319589
-0.000120792
-0.001306509
-0.0001349595
-0.001269645
-0.0001495126
-0.001156952
-0.0001647092
-0.001036668
-0.0001807769
-0.00097706
-0.0001971412
-0.0009191234
-0.0002118251
-0.0008009894
-0.0002449711
-0.0006605092
-0.0002803732
-0.0005301071
-0.0003096626
-0.0003856075
-0.0003639524
-0.0002067217
-0.0004068572
-0.0004313519
-0.0001082835
0.0003728899
-0.0002137956
0.0003646364
-0.0003127804
0.0003580827
-0.0004066852
0.0003472265
-0.0004961801
0.0003317647
-0.0005781575
0.000315099
-0.0006534979
0.0002979504
-0.0007252136
0.0002790176
-0.0008008789
0.000266597
-0.0008716328
0.0002481463
-0.0009318827
0.0002298255
-0.0009864225
0.0002135244
-0.001038056
0.0001945963
-0.001087402
0.0001797049
-0.001130668
0.0001665668
-0.001168437
0.000153942
-0.001205268
0.0001411753
-0.001241854
0.0001289165
-0.001274861
0.0001179338
-0.001303006
0.0001077895
-0.001328291
9.761101e-05
-0.001352604
8.751242e-05
-0.00137502
7.802201e-05
-0.001394304
6.915836e-05
-0.001410641
6.051366e-05
-0.001425041
5.184931e-05
-0.001437844
4.327653e-05
-0.001448359
3.501948e-05
-0.001455842
2.711607e-05
-0.001460221
1.946702e-05
-0.001463059
1.270402e-05
-0.001463094
5.176898e-06
-0.001460948
-3.984238e-06
-0.001456369
-1.235391e-05
-0.00144766
-2.041784e-05
-0.001435895
-2.881834e-05
-0.001422275
-3.787975e-05
-0.001407508
-4.753596e-05
-0.001389637
-5.751831e-05
-0.001367677
-6.763629e-05
-0.001342218
-7.805417e-05
-0.001313629
-8.935744e-05
-0.001283494
-0.0001015268
-0.001250001
-0.0001148587
-0.00121106
-0.0001284364
-0.001167094
-0.0001424838
-0.001117405
-0.0001579934
-0.00106327
-0.0001749259
-0.001004873
-0.0001933558
-0.0009429221
-0.0002114617
-0.0008819116
-0.0002257185
-0.0008158519
-0.0002468355
-0.0007395562
-0.0002734359
-0.0006496872
-0.0003016929
-0.0005556607
-0.0003389964
-0.0004611195
-0.0003749131
-0.000355072
-0.0004157088
-0.0002529459
-0.0004660767
-0.0001330493
-0.0005267519
-0.0005644011
-8.542153e-05
0.0004583115
-0.000165684
0.000444899
-0.000241257
0.0004336558
-0.0003124913
0.0004184609
-0.0003806568
0.0003999304
-0.0004452352
0.0003796776
-0.0005061835
0.000358899
-0.0005646998
0.0003375341
-0.0006145003
0.0003163977
-0.0006654628
0.000299109
-0.0007152878
0.0002796506
-0.000764961
0.0002631977
-0.0008113619
0.0002409975
-0.0008540187
0.0002223617
-0.0008928816
0.0002054299
-0.0009282111
0.0001892717
-0.0009621248
0.0001750892
-0.000994085
0.0001608769
-0.001023323
0.0001471718
-0.001049473
0.0001339396
-0.001072941
0.0001210798
-0.001094318
0.0001088888
-0.00111349
9.719429e-05
-0.001130258
8.592602e-05
-0.001144721
7.497652e-05
-0.001157119
6.424797e-05
-0.001167522
5.367904e-05
-0.001175744
4.324072e-05
-0.001181587
3.295894e-05
-0.001186066
2.394583e-05
-0.001187965
1.460254e-05
-0.001186667
3.87808e-06
-0.001183939
-6.71262e-06
-0.001179024
-1.727055e-05
-0.001171592
-2.785102e-05
-0.001161573
-3.883837e-05
-0.001149213
-5.024016e-05
-0.001134658
-6.209209e-05
-0.001117761
-7.441678e-05
-0.001098127
-8.727079e-05
-0.001075431
-0.0001007513
-0.00104973
-0.0001150584
-0.001022782
-0.0001284754
-0.0009927295
-0.0001449112
-0.0009591845
-0.0001619811
-0.0009217855
-0.0001798823
-0.0008809458
-0.0001988325
-0.0008368864
-0.0002189845
-0.0007910388
-0.0002392026
-0.0007434562
-0.0002590436
-0.000688272
-0.0002809019
-0.0006229571
-0.0003121495
-0.0005503403
-0.0003460518
-0.0004735335
-0.0003784988
-0.0004004542
-0.0004120748
-0.0003259924
-0.000449374
-0.0002490204
-0.0004926797
-0.0001705557
-0.00054454
-8.978769e-05
-0.0006075183
-0.0006541886
-6.643717e-05
0.0005247487
-0.0001303966
0.0005088585
-0.0001902957
0.000493555
-0.000247007
0.0004751722
-0.00030118
0.0004541034
-0.000352831
0.0004313286
-0.0004017791
0.0004078471
-0.0004483345
0.0003840895
-0.0004923489
0.0003604121
-0.0005307527
0.0003375129
-0.0005680504
0.0003169483
-0.0006039222
0.0002990695
-0.0006420234
0.0002790987
-0.0006773965
0.0002577349
-0.0007099343
0.0002379677
-0.0007397505
0.0002190879
-0.0007672523
0.0002025911
-0.0007928658
0.0001864904
-0.0008164161
0.0001707221
-0.0008378462
0.0001553697
-0.0008572138
0.0001404474
-0.0008745536
0.0001262285
-0.0008899046
0.0001125452
-0.0009032801
9.93015e-05
-0.0009147213
8.641764e-05
-0.0009242971
7.382359e-05
-0.0009320795
6.146124e-05
-0.0009381226
4.928353e-05
-0.0009423952
3.723133e-05
-0.0009448892
2.643949e-05
-0.0009444512
1.4164e-05
-0.0009426139
2.040263e-06
-0.0009391608
-1.01663e-05
-0.0009337879
-2.264411e-05
-0.0009273858
-3.425384e-05
-0.000918662
-4.756295e-05
-0.0009078256
-6.10772e-05
-0.0008949753
-7.494308e-05
-0.0008800961
-8.92966e-05
-0.0008631257
-0.0001042417
-0.0008439876
-0.0001198897
-0.0008227988
-0.0001362474
-0.0007991956
-0.0001520786
-0.0007730235
-0.0001710832
-0.0007444228
-0.0001905817
-0.0007133145
-0.0002109902
-0.0006796626
-0.000232484
-0.000644841
-0.0002538056
-0.0006076462
-0.000276397
-0.0005638305
-0.0003028588
-0.0005111658
-0.000333566
-0.0004582784
-0.0003650364
-0.000407458
-0.0003968717
-0.0003556248
-0.0004303315
-0.0003009076
-0.0004667914
-0.0002433213
-0.0005069596
-0.0001839923
-0.000552008
-0.0001243416
-0.0006041895
-6.425143e-05
-0.0006676071
-0.0007184399
-5.048005e-05
0.0005752288
-9.953237e-05
0.0005579109
-0.0001452724
0.0005392951
-0.0001885072
0.0005184071
-0.0002296811
0.0004952773
-0.0002690769
0.0004707245
-0.0003068011
0.0004455713
-0.0003430734
0.0004203619
-0.0003782047
0.0003955434
-0.0004120907
0.0003713988
-0.0004433264
0.0003481841
-0.0004700612
0.0003258043
-0.000496784
0.0003058215
-0.0005245101
0.0002854611
-0.0005507665
0.0002642241
-0.000575529
0.0002438504
-0.0005976284
0.0002246905
-0.0006176935
0.0002065554
-0.0006360422
0.0001890709
-0.0006528375
0.0001721649
-0.0006682061
0.000155816
-0.0006819956
0.0001400179
-0.0006941743
0.0001247239
-0.0007047485
0.0001098756
-0.0007137442
9.54132e-05
-0.0007211988
8.127803e-05
-0.0007271516
6.74139e-05
-0.0007316358
5.376747e-05
-0.0007346824
4.027766e-05
-0.0007351903
2.694707e-05
-0.0007345127
1.348604e-05
-0.0007329481
4.753418e-07
-0.0007306214
-1.249338e-05
-0.0007265917
-2.667425e-05
-0.0007209321
-3.99138e-05
-0.0007136909
-5.480458e-05
-0.0007049406
-6.982796e-05
-0.0006946807
-8.520332e-05
-0.0006829007
-0.0001010769
-0.0006695787
-0.0001175641
-0.0006547033
-0.0001347652
-0.0006381924
-0.0001527584
-0.0006185888
-0.0001716821
-0.0005978545
-0.0001918174
-0.0005754422
-0.0002129938
-0.0005510255
-0.0002354068
-0.0005254008
-0.0002581085
-0.0004968139
-0.0002823922
-0.0004632466
-0.000309964
-0.0004259058
-0.0003401993
-0.0003882862
-0.0003711853
-0.0003500894
-0.0004032329
-0.0003100945
-0.0004368662
-0.0002678598
-0.0004725658
-0.0002239774
-0.0005106734
-0.0001791326
-0.0005518038
-0.0001339891
-0.0005971509
-8.91847e-05
-0.000648993
-4.562251e-05
-0.0007111681
-0.0007640622
-3.827544e-05
0.0006135045
-7.5151e-05
0.0005947867
-0.0001091443
0.0005732886
-0.000141154
0.0005504169
-0.0001716543
0.0005257777
-0.0002009692
0.0005000394
-0.000229272
0.0004738742
-0.0002566603
0.0004477502
-0.00028314
0.0004220231
-0.0003086521
0.0003969109
-0.0003330024
0.0003725344
-0.000356051
0.0003488529
-0.0003760565
0.000325827
-0.0003955511
0.0003049557
-0.0004156943
0.0002843673
-0.0004350222
0.0002631783
-0.0004528225
0.0002424908
-0.0004690199
0.0002227528
-0.0004837396
0.0002037905
-0.0004970768
0.0001855021
-0.0005090846
0.0001678237
-0.0005197754
0.0001507086
-0.0005291582
0.0001341066
-0.000537248
0.0001179652
-0.0005440647
0.0001022297
-0.0005496298
8.684303e-05
-0.0005539627
7.174657e-05
-0.0005570751
5.68797e-05
-0.0005589738
4.217612e-05
-0.0005596015
2.757453e-05
-0.0005590596
1.294397e-05
-0.0005580972
-4.873471e-07
-0.0005559753
-1.461548e-05
-0.0005527668
-2.988303e-05
-0.0005475172
-4.516366e-05
-0.0005415205
-6.080147e-05
-0.0005345508
-7.679784e-05
-0.000526491
-9.326333e-05
-0.0005172696
-0.0001102984
-0.0005068257
-0.000128008
-0.0004950943
-0.0001464967
-0.0004819851
-0.0001658677
-0.0004674438
-0.0001862233
-0.0004515392
-0.000207722
-0.0004340037
-0.0002305292
-0.0004152962
-0.0002541142
-0.0003942098
-0.0002791947
-0.0003695491
-0.0003070527
-0.0003432433
-0.0003362697
-0.0003165899
-0.0003668524
-0.000288985
-0.0003987901
-0.0002599773
-0.0004322404
-0.0002295529
-0.0004672903
-0.0001979804
-0.0005041381
-0.000165518
-0.0005431354
-0.0001324381
-0.0005848834
-9.911985e-05
-0.0006304686
-6.607051e-05
-0.0006820415
-3.368977e-05
-0.0007435478
-0.0007977519
-2.820551e-05
0.0006417102
-5.535477e-05
0.0006219361
-8.005254e-05
0.0005979866
-0.0001031947
0.0005735592
-0.0001252713
0.0005478544
-0.0001465734
0.0005213416
-0.0001672605
0.0004945614
-0.0001874051
0.0004678948
-0.0002069872
0.0004416052
-0.0002259285
0.0004158522
-0.0002441124
0.0003907183
-0.0002614818
0.0003662223
-0.000278013
0.0003423581
-0.0002922465
0.0003191893
-0.0003056013
0.000297722
-0.0003193741
0.0002769511
-0.0003327268
0.0002558435
-0.0003449833
0.0002350093
-0.0003561649
0.0002149721
-0.0003662983
0.0001956354
-0.0003754047
0.0001769301
-0.0003834982
0.0001588021
-0.0003905934
0.0001412016
-0.0003967076
0.0001240794
-0.000401862
0.000107384
-0.0004060802
9.106107e-05
-0.0004093871
7.505337e-05
-0.0004118077
5.930014e-05
-0.0004133686
4.37369e-05
-0.0004140918
2.829764e-05
-0.0004140606
1.291259e-05
-0.0004133339
-1.214219e-06
-0.000411104
-1.684546e-05
-0.0004083199
-3.266731e-05
-0.0004047946
-4.868908e-05
-0.0004005436
-6.505254e-05
-0.0003955181
-8.182344e-05
-0.000389682
-9.909951e-05
-0.0003829993
-0.0001169812
-0.0003754315
-0.0001355758
-0.000366933
-0.0001549953
-0.000357444
-0.0001753566
-0.0003468851
-0.0001967822
-0.0003352062
-0.0002194009
-0.0003224831
-0.0002432522
-0.0003082315
-0.0002683657
-0.0002917754
-0.0002956508
-0.0002744867
-0.0003243413
-0.0002562624
-0.0003544939
-0.0002369219
-0.0003861929
-0.0002163157
-0.0004193961
-0.0001944797
-0.0004540763
-0.000171518
-0.0004902518
-0.000147608
-0.0005280479
-0.0001229928
-0.0005677504
-9.796149e-05
-0.0006099143
-7.285133e-05
-0.0006555783
-4.809295e-05
-0.0007067993
-2.429736e-05
-0.0007673426
-0.0008220492
-2.068984e-05
0.0006624003
-4.002501e-05
0.0006412715
-5.701696e-05
0.0006149787
-7.26641e-05
0.0005892065
-8.756483e-05
0.0005627552
-0.0001020387
0.0005358155
-0.0001162348
0.0005087576
-0.0001301939
0.000481854
-0.0001438787
0.0004552902
-0.0001572093
0.0004291828
-0.0001701005
0.0004036095
-0.0001824936
0.0003786155
-0.0001943598
0.0003542243
-0.0002056188
0.0003304483
-0.0002152398
0.000307343
-0.0002239284
0.0002856397
-0.0002329201
0.0002648352
-0.0002419033
0.0002439925
-0.0002502751
0.0002233438
-0.0002579571
0.0002033173
-0.0002648798
0.0001838528
-0.0002710335
0.0001649557
-0.0002764284
0.0001465965
-0.0002810852
0.0001287361
-0.0002850288
0.0001113274
-0.0002882851
9.431728e-05
-0.0002908799
7.764807e-05
-0.0002928377
6.125789e-05
-0.0002941809
4.507997e-05
-0.0002949278
2.904444e-05
-0.0002950954
1.308007e-05
-0.0002943582
-1.95143e-06
-0.0002930831
-1.812066e-05
-0.0002912924
-3.445807e-05
-0.0002889479
-5.103372e-05
-0.0002860567
-6.794377e-05
-0.0002826009
-8.527929e-05
-0.0002785605
-0.0001031399
-0.0002739124
-0.0001216294
-0.0002686314
-0.0001408568
-0.000262691
-0.0001609357
-0.0002560637
-0.0001819839
-0.0002487261
-0.0002041198
-0.0002406547
-0.0002274722
-0.0002318176
-0.0002520893
-0.0002218014
-0.0002783818
-0.0002110799
-0.0003063722
-0.0001994641
-0.000335957
-0.000186741
-0.000367217
-0.0001728266
-0.0004001072
-0.0001577072
-0.0004345154
-0.0001414978
-0.0004702856
-0.0001244151
-0.0005073345
-0.0001067104
-0.0005457524
-8.863035e-05
-0.0005858303
-7.041411e-05
-0.0006281303
-5.230312e-05
-0.000673689
-3.456183e-05
-0.0007245401
-1.748368e-05
-0.0007844202
-0.0008395328
-1.394675e-05
0.0006763472
-2.666179e-05
0.0006539867
-3.750568e-05
0.0006258227
-4.740096e-05
0.0005991019
-5.683878e-05
0.0005721931
-6.603862e-05
0.0005450154
-7.508425e-05
0.0005178032
-8.399594e-05
0.0004907657
-9.277456e-05
0.0004640688
-0.0001014686
0.0004378769
-0.000110102
0.0004122429
-0.0001186252
0.0003871386
-0.0001269752
0.0003625743
-0.0001350865
0.0003385595
-0.0001428417
0.0003150982
-0.0001494369
0.0002922349
-0.0001550059
0.0002704041
-0.0001605275
0.0002495141
-0.0001660455
0.0002288618
-0.0001711775
0.0002084492
-0.0001758745
0.0001885497
-0.0001801044
0.0001691856
-0.0001838679
0.0001503599
-0.0001871756
0.0001320437
-0.0001900429
0.0001141946
-0.0001924871
9.676145e-05
-0.0001945317
7.969265e-05
-0.0001961965
6.292257e-05
-0.0001974889
4.637233e-05
-0.0001984128
2.996827e-05
-0.0001989685
1.363576e-05
-0.0001988455
-2.074535e-06
-0.0001983996
-1.856657e-05
-0.0001976292
-3.522844e-05
-0.0001965193
-5.214373e-05
-0.0001950597
-6.940333e-05
-0.0001932369
-8.710209e-05
-0.0001910363
-0.0001053405
-0.0001884414
-0.0001242242
-0.0001854344
-0.0001438638
-0.0001819959
-0.0001643742
-0.0001781061
-0.0001858736
-0.0001737442
-0.0002084817
-0.0001688956
-0.0002323208
-0.0001634767
-0.0002575081
-0.0001573949
-0.0002844637
-0.0001506557
-0.0003131114
-0.0001430417
-0.000343571
-0.0001344074
-0.0003758512
-0.0001246354
-0.0004098793
-0.0001137059
-0.0004454448
-0.0001018232
-0.0004821683
-8.930082e-05
-0.0005198569
-7.639023e-05
-0.0005586629
-6.328014e-05
-0.0005989403
-5.013425e-05
-0.000641276
-3.710542e-05
-0.0006867176
-2.437955e-05
-0.0007372656
-1.225501e-05
-0.0007965442
-0.0008517878
-1.014546e-05
0.0006864929
-1.881192e-05
0.0006626533
-2.552555e-05
0.0006325365
-3.095786e-05
0.0006045343
-3.581796e-05
0.0005770533
-4.048428e-05
0.0005496818
-4.51681e-05
0.0005224871
-4.997909e-05
0.0004955767
-5.492719e-05
0.0004690169
-5.997134e-05
0.000442921
-6.505406e-05
0.0004173256
-7.011349e-05
0.000392198
-7.511298e-05
0.0003675738
-8.003716e-05
0.0003434836
-8.486419e-05
0.0003199252
-8.949411e-05
0.0002968647
-9.342008e-05
0.0002743301
-9.647389e-05
0.0002525679
-9.916325e-05
0.0002315511
-0.0001017597
0.0002110457
-0.000104282
0.0001910719
-0.0001067376
0.0001716412
-0.0001091148
0.000152737
-0.000111394
0.0001343229
-0.0001135521
0.0001163527
-0.0001155547
9.876398e-05
-0.0001173641
8.150207e-05
-0.0001189668
6.452523e-05
-0.0001203552
4.776062e-05
-0.0001215292
3.11423e-05
-0.0001224913
1.459778e-05
-0.0001229812
-1.584678e-06
-0.0001232969
-1.825083e-05
-0.0001234287
-3.509665e-05
-0.0001233679
-5.220455e-05
-0.0001231083
-6.966299e-05
-0.0001226408
-8.756956e-05
-0.0001219549
-0.0001060265
-0.0001210371
-0.000125142
-0.0001198698
-0.0001450311
-0.0001184288
-0.0001658152
-0.0001166807
-0.0001876217
-0.00011458
-0.0002105824
-0.0001120665
-0.0002348343
-0.0001090836
-0.000260491
-0.0001057735
-0.0002877738
-0.0001020382
-0.0003168467
-9.764009e-05
-0.0003479691
-9.231646e-05
-0.0003811749
-8.57656e-05
-0.0004164301
-7.801858e-05
-0.0004531919
-6.945101e-05
-0.0004907358
-6.053008e-05
-0.0005287778
-5.1527e-05
-0.0005676659
-4.253178e-05
-0.0006079354
-3.361854e-05
-0.0006501892
-2.486028e-05
-0.0006954757
-1.634976e-05
-0.0007457759
-8.232666e-06
-0.000804661
-0.0008600204
-5.137998e-06
0.0006916311
-8.273529e-06
0.000665789
-9.227475e-06
0.0006334906
-9.549811e-06
0.0006048567
-9.866168e-06
0.0005773697
-1.054208e-05
0.0005503578
-1.174507e-05
0.0005236901
-1.348944e-05
0.0004973211
-1.574378e-05
0.0004712712
-1.823649e-05
0.0004454137
-2.077629e-05
0.0004198654
-2.343631e-05
0.000394858
-2.623336e-05
0.0003703708
-2.906295e-05
0.0003463132
-3.171577e-05
0.000322578
-3.409397e-05
0.0002992429
-3.621132e-05
0.0002764474
-3.794794e-05
0.0002543045
-3.940824e-05
0.0002330114
-4.089844e-05
0.0002125358
-4.250425e-05
0.0001926777
-4.426433e-05
0.0001734013
-4.617044e-05
0.0001546431
-4.817609e-05
0.0001363285
-5.023778e-05
0.0001184143
-5.232515e-05
0.0001008513
-5.437247e-05
8.354936e-05
-5.631524e-05
6.646798e-05
-5.814336e-05
4.958872e-05
-5.984972e-05
3.284863e-05
-6.14337e-05
1.618174e-05
-6.269387e-05
-3.245273e-07
-6.386272e-05
-1.7082e-05
-6.49362e-05
-3.402319e-05
-6.590811e-05
-5.123265e-05
-6.677655e-05
-6.879457e-05
-6.753827e-05
-8.680784e-05
-6.819003e-05
-0.0001053747
-6.872733e-05
-0.0001246047
-6.91433e-05
-0.0001446152
-6.942702e-05
-0.0001655315
-6.955993e-05
-0.0001874888
-6.950981e-05
-0.0002106325
-6.923784e-05
-0.0002351063
-6.863448e-05
-0.0002610944
-6.754527e-05
-0.000288863
-6.58957e-05
-0.0003184963
-6.369124e-05
-0.0003501736
-6.057843e-05
-0.0003842877
-5.644941e-05
-0.0004205592
-5.144823e-05
-0.000458193
-4.575068e-05
-0.0004964334
-3.97768e-05
-0.0005347516
-3.382968e-05
-0.000573613
-2.791299e-05
-0.000613852
-2.2035e-05
-0.0006560671
-1.623141e-05
-0.0007012791
-1.057451e-05
-0.0007514326
-5.231467e-06
-0.0008100038
-0.0008652519
-3.106487e-06
0.0006947378
-3.667149e-06
0.0006663499
-2.524275e-06
0.0006323478
-5.840706e-07
0.0006029166
1.667062e-06
0.0005751186
3.999446e-06
0.0005480254
6.319222e-06
0.0005213703
8.540709e-06
0.0004950996
1.055023e-05
0.0004692617
1.197148e-05
0.0004439924
1.25256e-05
0.0004193112
1.221758e-05
0.000395166
1.1112e-05
0.0003714763
9.550715e-06
0.0003478744
7.753612e-06
0.0003243751
5.781427e-06
0.0003012151
3.716617e-06
0.0002785121
1.665833e-06
0.0002563553
-1.620526e-07
0.0002348392
-1.687654e-06
0.0002140614
-2.99504e-06
0.0001939851
-4.14788e-06
0.0001745541
-5.203052e-06
0.0001556983
-6.219852e-06
0.0001373453
-7.259595e-06
0.0001194541
-8.364284e-06
0.000101956
-9.595512e-06
8.478056e-05
-1.097343e-05
6.784588e-05
-1.246695e-05
5.108221e-05
-1.404867e-05
3.443033e-05
-1.569207e-05
1.782512e-05
-1.725099e-05
1.234374e-06
-1.887115e-05
-1.546187e-05
-2.052228e-05
-3.237208e-05
-2.219228e-05
-4.956266e-05
-2.386204e-05
-6.712481e-05
-2.552535e-05
-8.514455e-05
-2.717735e-05
-0.0001037227
-2.88141e-05
-0.000122968
-3.043076e-05
-0.0001429985
-3.202169e-05
-0.0001639405
-3.35801e-05
-0.0001859304
-3.51008e-05
-0.0002091118
-3.655583e-05
-0.0002336512
-3.782838e-05
-0.0002598218
-3.872862e-05
-0.0002879628
-3.890927e-05
-0.0003183156
-3.806467e-05
-0.0003510182
-3.641641e-05
-0.000385936
-3.428101e-05
-0.0004226946
-3.152709e-05
-0.000460947
-2.813918e-05
-0.0004998213
-2.441806e-05
-0.0005384727
-2.064197e-05
-0.0005773891
-1.691985e-05
-0.0006175741
-1.327306e-05
-0.0006597138
-9.735323e-06
-0.0007048168
-6.354403e-06
-0.0007548133
-3.206528e-06
-0.0008131514
-0.0008684584
-1.489751e-06
0.0006962278
5.337842e-08
0.000664807
3.308908e-06
0.0006290925
7.488881e-06
0.0005987368
1.196465e-05
0.0005706429
1.64241e-05
0.000543566
2.067687e-05
0.0005171176
2.456006e-05
0.0004912164
2.797085e-05
0.0004658509
3.094042e-05
0.0004410228
3.351262e-05
0.000416739
3.564522e-05
0.0003930334
3.738655e-05
0.000369735
3.851095e-05
0.00034675
3.880834e-05
0.0003240776
3.838218e-05
0.0003016412
3.749825e-05
0.000279396
3.636022e-05
0.0002574933
3.508657e-05
0.0002361129
3.382426e-05
0.0002153237
3.261839e-05
0.0001951909
3.14671e-05
0.0001757053
3.034702e-05
0.0001568183
2.920924e-05
0.000138483
2.801006e-05
0.0001206532
2.674173e-05
0.0001032243
2.539448e-05
8.612781e-05
2.392892e-05
6.931141e-05
2.23388e-05
5.267232e-05
2.063573e-05
3.613338e-05
1.882525e-05
1.963559e-05
1.694666e-05
3.112957e-06
1.48965e-05
-1.341173e-05
1.275602e-05
-3.02316e-05
1.053483e-05
-4.734148e-05
8.237614e-06
-6.48276e-05
5.875786e-06
-8.278272e-05
3.456195e-06
-0.0001013031
9.844793e-07
-0.0001204963
-1.535754e-06
-0.0001404783
-4.110958e-06
-0.0001613653
-6.740749e-06
-0.0001833006
-9.367363e-06
-0.0002064852
-1.187806e-05
-0.0002311405
-1.414314e-05
-0.0002575568
-1.604684e-05
-0.0002860591
-1.748618e-05
-0.0003168763
-1.840719e-05
-0.0003500972
-1.871561e-05
-0.0003856276
-1.82087e-05
-0.0004232015
-1.702089e-05
-0.0004621348
-1.538912e-05
-0.0005014531
-1.33201e-05
-0.0005405418
-1.109023e-05
-0.000579619
-8.967361e-06
-0.0006196969
-6.94723e-06
-0.0006617339
-5.02423e-06
-0.0007067397
-3.208586e-06
-0.0007566288
-1.549706e-06
-0.0008148101
-0.000870008
-2.55439e-07
0.0006964835
2.501209e-06
0.0006620506
7.656886e-06
0.000623937
1.373013e-05
0.0005926637
2.002452e-05
0.0005643486
2.617064e-05
0.0005374199
3.195978e-05
0.0005113284
3.729486e-05
0.0004858813
4.214308e-05
0.0004610026
4.648706e-05
0.0004366788
5.027502e-05
0.000412951
5.346078e-05
0.0003898475
5.600451e-05
0.0003671912
5.799475e-05
0.0003447597
5.963157e-05
0.0003224407
6.098162e-05
0.0003002911
6.188471e-05
0.0002784929
6.220266e-05
0.0002571753
6.206335e-05
0.0002362521
6.157484e-05
0.0002158122
6.081785e-05
0.0001959479
5.985399e-05
0.0001766692
5.871442e-05
0.0001579579
5.742923e-05
0.0001397682
5.603813e-05
0.0001220443
5.454258e-05
0.0001047198
5.292986e-05
8.774051e-05
5.119715e-05
7.104411e-05
4.93325e-05
5.453696e-05
4.73236e-05
3.814227e-05
4.516371e-05
2.179547e-05
4.286929e-05
5.407363e-06
4.03783e-05
-1.092075e-05
3.766939e-05
-2.75227e-05
3.485246e-05
-4.452456e-05
3.193649e-05
-6.191164e-05
2.892265e-05
-7.976889e-05
2.580266e-05
-9.818314e-05
2.256895e-05
-0.0001172626
1.923594e-05
-0.0001371453
1.584024e-05
-0.0001579697
1.243506e-05
-0.0001798954
9.109797e-06
-0.00020316
5.994695e-06
-0.0002280255
3.177792e-06
-0.0002547399
6.736081e-07
-0.0002835549
-1.525316e-06
-0.0003146774
-3.397067e-06
-0.0003482255
-4.846063e-06
-0.0003841786
-5.80366e-06
-0.0004222439
-6.175209e-06
-0.0004617633
-5.815346e-06
-0.0005018129
-4.915884e-06
-0.0005414412
-3.910969e-06
-0.0005806239
-3.012812e-06
-0.000620595
-2.208185e-06
-0.0006625384
-1.493992e-06
-0.0007074538
-8.843617e-07
-0.0007572383
-4.118026e-07
-0.0008152825
-0.0008704198
5.581924e-07
0.0006959256
4.771156e-06
0.0006578379
1.109514e-05
0.0006176132
1.837289e-05
0.0005853861
2.593453e-05
0.0005567871
3.339538e-05
0.0005299591
4.052845e-05
0.0005041954
4.719608e-05
0.0004792136
5.330037e-05
0.0004548983
5.876824e-05
0.0004312109
6.356245e-05
0.0004081567
6.765513e-05
0.0003857548
7.107887e-05
0.0003637673
7.394473e-05
0.0003418938
7.629489e-05
0.0003200905
7.811549e-05
0.0002984704
7.944134e-05
0.000277167
8.038905e-05
0.0002562275
8.086593e-05
0.0002357752
8.085223e-05
0.0002158258
8.044789e-05
0.0001963522
7.971192e-05
0.0001774051
7.869651e-05
0.0001589733
7.744201e-05
0.0001410227
7.598061e-05
0.0001235057
7.433327e-05
0.0001063671
7.252177e-05
8.9552e-05
7.056444e-05
7.300143e-05
6.845541e-05
5.664599e-05
6.618386e-05
4.041381e-05
6.374721e-05
2.423211e-05
6.113275e-05
8.021821e-06
5.835812e-05
-8.146117e-06
5.521187e-05
-2.437645e-05
5.186512e-05
-4.117783e-05
4.838725e-05
-5.843377e-05
4.479225e-05
-7.617389e-05
4.107946e-05
-9.447036e-05
3.725119e-05
-0.0001134343
3.332769e-05
-0.0001332218
2.936609e-05
-0.0001540081
2.545203e-05
-0.0001759814
2.165631e-05
-0.0001993643
1.803937e-05
-0.0002244085
1.467431e-05
-0.0002513748
1.162419e-05
-0.0002805048
8.927073e-06
-0.0003119803
6.585845e-06
-0.0003458843
4.565445e-06
-0.0003821582
2.86791e-06
-0.0004205464
1.587212e-06
-0.0004604826
7.730007e-07
-0.0005009987
3.72424e-07
-0.0005410406
1.961436e-07
-0.0005804476
5.83684e-08
-0.0006204572
-3.35258e-08
-0.0006624465
-8.572584e-08
-0.0007074015
-1.058305e-07
-0.000757218
-8.614987e-08
-0.0008153018
-0.0008705059
1.138211e-06
0.0006947878
5.998411e-06
0.000652978
1.306422e-05
0.0006105476
2.114309e-05
0.0005773073
2.955211e-05
0.0005483782
3.788466e-05
0.0005216266
4.589445e-05
0.0004961856
5.342951e-05
0.0004716785
6.039451e-05
0.0004479332
6.673421e-05
0.0004248711
7.243096e-05
0.0004024599
7.75029e-05
0.0003806828
8.192334e-05
0.0003593468
8.562904e-05
0.000338188
8.860258e-05
0.0003171169
9.088982e-05
0.0002961831
9.258838e-05
0.0002754684
9.373844e-05
0.0002550774
9.440174e-05
0.0002351119
9.460415e-05
0.0002156234
9.431929e-05
0.0001966371
9.359439e-05
0.00017813
9.249022e-05
0.0001600774
9.106941e-05
0.0001424435
8.938553e-05
0.0001251896
8.747621e-05
0.0001082765
8.536632e-05
9.166189e-05
8.307426e-05
7.529348e-05
8.061487e-05
5.910537e-05
7.800331e-05
4.302537e-05
7.524879e-05
2.698662e-05
7.232201e-05
1.09486e-05
6.923855e-05
-5.062658e-06
6.580994e-05
-2.094784e-05
6.212469e-05
-3.749258e-05
5.82664e-05
-5.457548e-05
5.427446e-05
-7.218195e-05
5.017614e-05
-9.037204e-05
4.600014e-05
-0.0001092583
4.177361e-05
-0.0001289953
3.753493e-05
-0.0001497694
3.334707e-05
-0.0001717935
2.928857e-05
-0.0001953058
2.543785e-05
-0.0002205578
2.185892e-05
-0.0002477959
1.859335e-05
-0.0002772393
1.566537e-05
-0.0003090524
1.309179e-05
-0.0003433107
1.088694e-05
-0.0003799534
9.053947e-06
-0.0004187135
7.571483e-06
-0.0004590002
6.432466e-06
-0.0004998597
5.628191e-06
-0.0005402364
4.971411e-06
-0.0005797908
4.285373e-06
-0.0006197712
3.563729e-06
-0.0006617248
2.791968e-06
-0.0007066296
1.947205e-06
-0.0007563731
1.003759e-06
-0.0008143581
-0.0008695021
1.272464e-06
0.0006935157
6.488529e-06
0.0006477623
1.399912e-05
0.0006030373
2.258775e-05
0.0005687189
3.154719e-05
0.0005394188
4.045405e-05
0.0005127198
4.904854e-05
0.0004875911
5.716889e-05
0.0004635582
6.471711e-05
0.0004403849
7.164249e-05
0.0004179456
7.793545e-05
0.0003961668
8.36221e-05
0.000374996
8.865043e-05
0.0003543184
9.29345e-05
0.0003339039
9.645529e-05
0.000313596
9.922569e-05
0.0002934127
0.0001012659
0.0002734281
0.0001026172
0.000253726
0.0001033422
0.0002343868
0.0001034849
0.0002154806
0.0001030892
0.0001970328
0.000102203
0.0001790162
0.000100888
0.0001613924
9.920907e-05
0.0001441224
9.722743e-05
0.0001271712
9.499502e-05
0.0001105089
9.255191e-05
9.410499e-05
8.992559e-05
7.79198e-05
8.713273e-05
6.189823e-05
8.41845e-05
4.59736e-05
8.108798e-05
3.008315e-05
7.783873e-05
1.419785e-05
7.441495e-05
-1.638871e-06
7.075848e-05
-1.729138e-05
6.687621e-05
-3.36103e-05
6.281343e-05
-5.051271e-05
5.86214e-05
-6.798991e-05
5.434095e-05
-8.60916e-05
5.000691e-05
-0.0001049243
4.565664e-05
-0.000124645
4.133676e-05
-0.0001454495
3.710423e-05
-0.000167561
3.302013e-05
-0.0001912217
2.914315e-05
-0.0002166809
2.552453e-05
-0.0002441773
2.220189e-05
-0.0002739167
1.919528e-05
-0.0003060458
1.650791e-05
-0.0003406234
1.413387e-05
-0.0003775794
1.207221e-05
-0.0004166518
1.033474e-05
-0.0004572627
8.923253e-06
-0.0004984482
7.775945e-06
-0.000539089
6.719024e-06
-0.0005787338
5.632236e-06
-0.0006186843
4.521243e-06
-0.0006606137
3.391999e-06
-0.0007055003
2.250523e-06
-0.0007552314
1.101972e-06
-0.0008132094
-0.0008684001
1.226728e-06
0.0006922894
6.556591e-06
0.0006424328
1.422946e-05
0.0005953647
2.302505e-05
0.0005599235
3.222981e-05
0.0005302142
4.141209e-05
0.0005035376
5.030158e-05
0.0004787016
5.872843e-05
0.0004551313
6.659037e-05
0.0004325229
7.383489e-05
0.000410701
8.044987e-05
0.0003895517
8.645514e-05