/*--------------------------------*- C++ -*----------------------------------*\
| =========                 |                                                 |
| \\      /  F ield         | OpenFOAM: The Open Source CFD Toolbox           |
|  \\    /   O peration     | Version:  2312                                  |
|   \\  /    A nd           | Website:  www.openfoam.com                      |
|    \\/     M anipulation  |                                                 |
\*---------------------------------------------------------------------------*/
FoamFile
{
    version     2.0;
    format      ascii;
    arch        "LSB;label=32;scalar=64";
    class       volScalarField;
    location    "3750";
    object      qr;
}
// * * * * * * * * * * * * * * * * * * * * * * * * * * * * * * * * * * * * * //

dimensions      [1 0 -3 0 0 0 0];

internalField   uniform 0;

boundaryField
{
    plate
    {
        type            calculated;
        value           nonuniform List<scalar> 
200
(
-6015.074
-6340.807
-6431.295
-6392.237
-6235.053
-5951.824
-5688.703
-6680.268
-6727.599
-1447.583
-1802.664
-4149.219
-2667.837
-2685.134
-2518.42
-2494.25
-2571.211
-2489.473
-2540.838
-2593.404
-2500.315
-2819.378
-2632.121
-3138.23
-3229.31
-3517.611
-4423.337
-4154.403
-4682.472
-4732.342
-4565.664
-4408.814
-3835.903
-3779.459
-3744.379
-3810.54
-3915.601
-3891.492
-3965.723
-4008.948
-4077.14
-4138.165
-4147.308
-4157.232
-4136.716
-4102.934
-4065.083
-4025.762
-4005.967
-4000.607
-4007.873
-4020.133
-4029.492
-4036.342
-4040.594
-4045.463
-4052.691
-4060.915
-4067.77
-4069.338
-4063.249
-4049.419
-4030.279
-4009.645
-3991.277
-3977.639
-3969.252
-3965.037
-3963.076
-3961.531
-3959.365
-3956.563
-3953.7
-3951.682
-3951.162
-3952.557
-3955.805
-3960.415
-3965.744
-3970.903
-3975.074
-3977.596
-3977.885
-3975.785
-3971.536
-3965.845
-3959.585
-3953.659
-3948.831
-3945.49
-3943.661
-3943.011
-3943.104
-3943.509
-3943.881
-3944.096
-3944.074
-3943.867
-3943.53
-3943.086
-3942.543
-3941.919
-3941.269
-3940.615
-3940.041
-3939.646
-3939.534
-3939.749
-3940.256
-3940.999
-3941.89
-3942.838
-3943.738
-3944.562
-3945.316
-3946.061
-3946.862
-3947.842
-3949.045
-3950.533
-3952.23
-3954.093
-3955.943
-3957.678
-3959.056
-3960.014
-3960.352
-3960.2
-3959.377
-3958.326
-3956.961
-3955.389
-3953.625
-3951.583
-3949.231
-3946.696
-3944.329
-3942.771
-3942.679
-3944.587
-3948.512
-3953.83
-3959.312
-3963.438
-3964.899
-3963.001
-3957.966
-3950.775
-3942.852
-3935.652
-3930.259
-3927.343
-3927.132
-3929.641
-3934.566
-3941.191
-3948.222
-3953.83
-3956.102
-3953.807
-3947.217
-3938.293
-3930.13
-3925.481
-3925.418
-3928.544
-3931.498
-3930.409
-3923.171
-3911.406
-3900.718
-3898.101
-3907.625
-3926.657
-3947.088
-3958.012
-3950.753
-3924.222
-3886.987
-3855.142
-3843.589
-3857.77
-3887.816
-3918.612
-3936.307
-3936.511
-3920.466
-3892.612
-3856.366
-3821.737
-3811.763
-3833.178
-3878.571
-3906.817
-3845.378
-3534.189
-7028.354
67.15142
-8460.883
-8564.723
)
;
    }
    riser
    {
        type            calculated;
        value           nonuniform List<scalar> 
200
(
2433.818
2414.027
2447.564
2543.691
2664.211
2755.4
2832.104
2892.215
2879.029
2831.568
2859.473
2923.858
2907.06
2857.139
2912.193
3070.981
3210.547
3253.926
3229.701
3202.408
3198.115
3198.37
3176.675
3128.354
3071.979
3026.965
2996.891
2985.116
3010.317
3087.406
3206.381
3342.782
3474.421
3583.421
3653.686
3677.744
3666.156
3641.302
3621.222
3610.738
3605.104
3598.763
3588.917
3574.083
3552.931
3525.973
3497.418
3473.649
3459.429
3455.471
3459.341
3468.232
3480.951
3497.885
3519.655
3545.788
3574.229
3601.728
3624.733
3640.397
3647.335
3645.885
3637.84
3625.814
3612.558
3600.463
3591.293
3586.077
3585.06
3587.707
3592.811
3598.751
3603.887
3606.976
3607.466
3605.585
3602.166
3598.337
3595.162
3593.379
3593.274
3594.704
3597.215
3600.21
3603.086
3605.327
3606.545
3606.48
3605.003
3602.108
3597.909
3592.638
3586.634
3580.317
3574.155
3568.624
3564.162
3561.144
3559.846
3560.434
3562.945
3567.292
3573.262
3580.529
3588.671
3597.207
3605.624
3613.414
3620.114
3625.333
3628.784
3630.3
3629.845
3627.514
3623.523
3618.189
3611.902
3605.097
3598.226
3591.74
3586.057
3581.548
3578.493
3577.058
3577.256
3578.937
3581.81
3585.486
3589.565
3593.715
3597.727
3601.527
3605.137
3608.604
3611.92
3614.99
3617.654
3619.745
3621.167
3621.932
3622.139
3621.885
3621.175
3619.868
3617.746
3614.663
3610.755
3606.576
3603.054
3601.258
3601.978
3605.304
3610.377
3615.481
3618.547
3617.949
3613.394
3606.482
3600.638
3600.202
3608.845
3627.786
3654.544
3682.957
3704.608
3711.311
3697.696
3662.931
3611.103
3550.183
3489.979
3439.484
3404.334
3385.154
3377.69
3374.778
3370.044
3362.27
3358.302
3371.034
3411.786
3479.71
3553.909
3596.426
3570.553
3465.528
3309.299
3156.26
3054.892
3018.978
3030.852
3075.511
3162.862
3282.479
3344.544
3206.75
2874.469
2610.068
2549.612
2604.559
)
;
    }
    topAndBottom
    {
        type            calculated;
        value           nonuniform List<scalar> 
120
(
2679.153
2271.532
1964.664
1772.12
1638.583
1552.157
1494.37
1447.926
1405.764
1369.795
1339.624
1315.933
1300.255
1291.43
1285.762
1279.632
1272.655
1265.957
1260.46
1256.069
1252.316
1248.903
1245.779
1242.521
1238.67
1234.073
1228.808
1223.229
1217.409
1211.291
1204.886
1198.3
1191.782
1185.686
1180.369
1176.087
1172.897
1170.584
1168.688
1166.662
1164.079
1160.744
1156.734
1152.384
1148.263
1144.999
1143.014
1142.134
1141.246
1138.333
1131.26
1119.25
1104.074
1089.663
1079.483
1073.13
1065.729
1053.23
1051.406
1170.591
2608.383
2860.372
2879.903
2812.826
2663.169
2474.473
2316.321
2226.562
2195.821
2194.865
2202.887
2214.329
2230.075
2247.209
2255.886
2243.908
2204.413
2140.998
2066.826
1998.494
1948.658
1921.564
1913.136
1914.487
1916.41
1912.672
1901.098
1882.737
1860.131
1835.744
1811.105
1786.729
1762.499
1738.127
1713.621
1689.268
1665.499
1642.783
1621.572
1602.555
1586.704
1574.958
1568.29
1567.239
1572.939
1585.919
1604.967
1626.42
1646.505
1663.071
1675.804
1685.282
1691.541
1696.64
1702.24
1707.277
1710.073
1710.203
1722.062
1749.786
)
;
    }
    frontAndBack
    {
        type            empty;
    }
}


// ************************************************************************* //
