/*--------------------------------*- C++ -*----------------------------------*\
| =========                 |                                                 |
| \\      /  F ield         | OpenFOAM: The Open Source CFD Toolbox           |
|  \\    /   O peration     | Version:  2312                                  |
|   \\  /    A nd           | Website:  www.openfoam.com                      |
|    \\/     M anipulation  |                                                 |
\*---------------------------------------------------------------------------*/
FoamFile
{
    version     2.0;
    format      ascii;
    arch        "LSB;label=32;scalar=64";
    class       volScalarField;
    location    "3750";
    object      T;
}
// * * * * * * * * * * * * * * * * * * * * * * * * * * * * * * * * * * * * * //

dimensions      [0 0 0 1 0 0 0];

internalField   nonuniform List<scalar> 
12000
(
447.5831
434.9645
433.494
433.296
433.2602
433.2423
433.2258
433.2084
433.1897
433.1689
433.1458
433.1197
433.0909
433.0595
433.0253
432.9878
432.947
432.9035
432.857
432.8071
432.7539
432.6977
432.6385
432.576
432.5103
432.4416
432.3703
432.2965
432.2204
432.1421
432.0623
431.9812
431.898
431.8121
431.7159
431.604
431.4774
431.3423
431.2058
431.061
430.8902
430.6914
430.4746
430.2771
430.0728
429.8154
429.4886
429.1553
428.8488
428.5251
428.1085
427.5789
427.0321
426.4383
425.7033
424.775
423.5987
422.0989
419.7818
415.7519
447.5458
435.5551
434.3194
434.3584
434.5966
434.8646
435.1343
435.403
435.6727
435.9188
436.151
436.3618
436.567
436.765
436.9434
437.0958
437.2361
437.3738
437.4998
437.6037
437.692
437.775
437.8517
437.9156
437.9664
438.0084
438.0445
438.0735
438.0919
438.0994
438.0982
438.089
438.0722
438.0464
438.0077
437.9565
437.8938
437.8192
437.7321
437.6301
437.5115
437.3752
437.2186
437.0377
436.829
436.5899
436.3184
436.0046
435.6445
435.2327
434.7592
434.2116
433.5741
432.8262
431.9502
430.8395
429.3423
427.2512
423.9801
418.1669
448.1585
436.368
435.0903
435.2418
435.6648
436.1321
436.5965
437.0437
437.4701
437.872
438.2448
438.5889
438.9072
439.2008
439.47
439.7147
439.9372
440.1398
440.3234
440.4884
440.6358
440.7676
440.8849
440.9884
441.0786
441.1564
441.2227
441.2779
441.3221
441.3554
441.3779
441.3899
441.3926
441.3822
441.3589
441.3231
441.2745
441.2124
441.1361
441.0445
440.9362
440.8096
440.6624
440.4918
440.2953
440.0696
439.8117
439.5137
439.168
438.7694
438.3129
437.7915
437.1839
436.4588
435.5623
434.4315
432.9463
430.734
427.0045
419.4078
449.1328
437.1375
435.7645
435.9622
436.4973
437.0902
437.6748
438.232
438.7553
439.2524
439.7167
440.1461
440.5426
440.9052
441.237
441.5401
441.817
442.0698
442.2999
442.5086
442.6974
442.8676
443.0204
443.1569
443.2778
443.3839
443.4758
443.5538
443.6182
443.669
443.7063
443.7302
443.7413
443.7363
443.7161
443.6811
443.6307
443.5643
443.481
443.3796
443.2587
443.1165
442.9511
442.7616
442.5442
442.2961
442.0134
441.692
441.3261
440.9099
440.4375
439.8949
439.2466
438.4768
437.5604
436.4274
434.9121
432.6905
428.8509
420.2887
450.2261
437.8948
436.3943
436.589
437.1835
437.8546
438.5173
439.1483
439.7411
440.2957
440.8143
441.2965
441.7456
442.1586
442.5375
442.8846
443.2023
443.4928
443.7585
444.001
444.2215
444.421
444.6006
444.7615
444.9045
445.0303
445.1395
445.2324
445.3094
445.3703
445.4159
445.4458
445.4593
445.455
445.4333
445.3952
445.3397
445.2662
445.1737
445.0608
444.926
444.7676
444.5835
444.3719
444.1296
443.8533
443.5395
443.1844
442.7847
442.3367
441.8178
441.2129
440.531
439.7412
438.7937
437.6287
436.1091
433.9096
430.0722
420.9588
451.422
438.6426
436.986
437.1352
437.7446
438.456
439.167
439.8474
440.4886
441.0881
441.6465
442.1653
442.6482
443.0963
443.5094
443.8893
444.2377
444.5568
444.849
445.1159
445.3587
445.5783
445.776
445.9527
446.1095
446.247
446.366
446.4668
446.5499
446.6151
446.6633
446.6936
446.7057
446.6992
446.6746
446.632
446.5709
446.4905
446.3896
446.2669
446.1208
445.9494
445.7504
445.5212
445.2588
444.9599
444.6205
444.237
443.8049
443.3174
442.7652
442.1342
441.4126
440.5809
439.6023
438.412
436.8784
434.6884
430.882
421.4633
452.6541
439.378
437.5493
437.6234
438.2141
438.9374
439.6735
440.3837
441.0554
441.6848
442.2722
442.8192
443.3276
443.7999
444.2376
444.6415
445.0129
445.3535
445.665
445.9489
446.2065
446.4391
446.6478
446.8337
446.9979
447.1411
447.2643
447.3681
447.4528
447.5187
447.566
447.5946
447.604
447.5949
447.5673
447.521
447.4557
447.3704
447.2641
447.1353
446.9821
446.8026
446.5941
446.3539
446.0785
445.7643
445.4073
445.0029
444.5451
444.0272
443.4416
442.7789
442.0263
441.1637
440.1577
438.9466
437.404
435.2246
431.45
421.8281
453.7292
440.0891
438.0873
438.0689
438.6177
439.3315
440.074
440.798
441.4871
442.1359
442.7435
443.3106
443.8387
444.329
444.7836
445.2041
445.5916
445.947
446.2718
446.5672
446.8346
447.0753
447.2903
447.4811
447.6485
447.7938
447.9178
448.0214
448.105
448.1692
448.2143
448.2402
448.247
448.2351
448.2048
448.1558
448.0877
447.9995
447.8901
447.7579
447.6011
447.4172
447.2036
446.9571
446.674
446.3501
445.9806
445.56
445.0824
444.5415
443.9305
443.2413
442.4623
441.5749
440.5471
439.319
437.7678
435.595
431.8525
422.1027
454.8453
440.7892
438.607
438.4835
438.9727
439.6589
440.3931
441.1194
441.8165
442.4767
443.0974
443.6786
444.2209
444.7252
445.1927
445.625
446.0233
446.3888
446.7224
447.0253
447.2987
447.5439
447.7621
447.9547
448.1228
448.2677
448.3905
448.4921
448.5733
448.6347
448.6769
448.7
448.7042
448.6901
448.6578
448.607
448.5372
448.4476
448.3369
448.2036
448.0454
447.8601
447.6446
447.3954
447.1083
446.7786
446.4007
445.9687
445.4761
444.9166
444.2842
443.5724
442.7714
441.8645
440.8207
439.5816
438.0267
435.8627
432.1515
422.3283
456.0596
441.4893
439.1109
438.8747
439.2927
439.9393
440.6543
441.3737
442.0713
442.7365
443.3651
443.9556
444.5081
445.0228
445.5005
445.9418
446.3479
446.7199
447.0591
447.3663
447.6429
447.8901
448.1092
448.3016
448.4686
448.6116
448.7319
448.8306
448.9086
448.9668
449.0059
449.0261
449.028
449.0119
448.978
448.926
448.8554
448.7652
448.6543
448.5209
448.363
448.1779
447.9624
447.7128
447.4245
447.092
446.7093
446.2693
445.7649
445.1894
444.5377
443.8062
442.9878
442.0664
441.0114
439.7647
438.208
436.0527
432.3727
422.523
457.4786
442.1972
439.6058
439.2519
439.5916
440.1891
440.8759
441.5807
442.2725
442.9373
443.5689
444.1647
444.7237
445.2455
445.7303
446.1786
446.591
446.9681
447.3113
447.6215
447.8999
448.1479
448.3667
448.5578
448.7227
448.863
448.98
449.0751
449.1494
449.2041
449.2398
449.2572
449.2567
449.2388
449.2035
449.1506
449.0796
448.9895
448.8791
448.7466
448.5899
448.4062
448.1924
447.9442
447.6568
447.3242
446.9394
446.4941
445.9796
445.3875
444.714
443.9632
443.1318
442.2014
441.1404
439.8912
438.3362
436.1909
432.5401
422.7027
459.0934
442.921
440.0938
439.6146
439.8692
440.4105
441.0627
441.7476
442.4292
443.09
443.7216
444.3197
444.8825
445.409
445.8996
446.3541
446.7727
447.1556
447.5034
447.8168
448.0968
448.3448
448.5623
448.7511
448.913
449.0497
449.1628
449.2538
449.3241
449.3749
449.4071
449.4215
449.4186
449.3988
449.3622
449.3086
449.2373
449.1476
449.038
448.9068
448.7518
448.5704
448.359
448.1134
447.8285
447.4976
447.1137
446.6651
446.1376
445.5241
444.8282
444.0599
443.2204
442.2882
441.226
439.9768
438.4245
436.2885
432.6655
422.8676
460.5695
443.6412
440.5756
439.9728
440.1438
440.6271
441.2402
441.8997
442.5651
443.2161
443.8416
444.4353
444.9926
445.5173
446.014
446.479
446.9087
447.3017
447.6572
447.975
448.256
448.5019
448.7159
448.9012
449.0593
449.1919
449.3006
449.3872
449.4531
449.4998
449.5283
449.5395
449.5339
449.5121
449.4741
449.4197
449.3482
449.2588
449.1502
449.0205
448.8676
448.6887
448.4804
448.2383
447.9572
447.628
447.2387
446.7785
446.2388
445.6149
444.9079
444.1253
443.2761
442.3424
441.2805
440.033
438.4848
436.3579
432.7593
423.0229
462.011
444.3563
441.052
440.332
440.4213
440.8453
441.4167
442.0478
442.6942
443.332
443.9474
444.5315
445.0858
445.6138
446.1121
446.5781
447.0105
447.4079
447.7682
448.0901
448.3744
448.6229
448.8378
449.0211
449.1749
449.3026
449.4067
449.4887
449.5502
449.5927
449.6175
449.6254
449.6171
449.5932
449.5537
449.4983
449.4265
449.3374
449.2296
449.1013
448.9504
448.7741
448.5689
448.3301
448.0492
447.7157
447.32
446.853
446.307
445.6761
444.9601
444.1677
443.3102
442.3735
441.3139
440.0691
438.5249
436.406
432.8288
423.162
463.3857
445.059
441.5324
440.6953
440.7042
441.069
441.5975
442.1983
442.8233
443.4457
444.0495
444.6267
445.1771
445.7013
446.1975
446.6638
447.0975
447.4953
447.8559
448.179
448.4647
448.7141
448.9291
449.112
449.2651
449.3906
449.4908
449.5682
449.6252
449.6636
449.6846
449.6892
449.6781
449.6519
449.6107
449.5543
449.4819
449.3929
449.2857
449.1588
449.01
448.8362
448.6323
448.3917
448.1075
447.771
447.3728
446.903
446.3526
445.7159
444.9939
444.1944
443.3284
442.3888
441.3324
440.0905
438.5503
436.4384
432.878
423.2792
464.6976
445.7678
442.018
441.0642
440.9945
441.3012
441.7867
442.3561
442.9585
443.5649
444.1578
444.7259
445.2686
445.7885
446.2831
446.7478
447.1785
447.5736
447.9321
448.2536
448.5383
448.7872
449.0016
449.1835
449.335
449.4585
449.5563
449.6308
449.6843
449.7189
449.7362
449.7376
449.7239
449.6955
449.6525
449.5948
449.5218
449.4327
449.3262
449.2001
449.0516
448.8771
448.6717
448.4296
448.1433
447.8043
447.4034
446.9314
446.3796
445.7411
445.0145
444.2077
443.3353
442.3941
441.3402
440.1009
438.5641
436.4577
432.9096
423.3684
465.9666
446.4788
442.507
441.4389
441.2937
441.5445
441.988
442.526
443.1054
443.6953
444.2766
444.8367
445.373
445.8867
446.3751
446.8346
447.2617
447.6533
448.0079
448.3253
448.6062
448.852
449.0638
449.2435
449.3928
449.5139
449.609
449.6806
449.731
449.7624
449.7767
449.7752
449.759
449.7287
449.6843
449.6252
449.551
449.4611
449.3538
449.2271
449.078
448.9027
448.6962
448.4524
448.164
447.8228
447.4197
446.9456
446.3915
445.751
445.0225
444.2129
443.3358
442.3932
441.3422
440.1061
438.5732
436.4722
432.9342
423.4322
467.1792
447.1848
442.998
441.8195
441.6024
441.8002
442.2033
442.7109
443.2677
443.8412
444.4113
444.9643
445.494
446.0001
446.4813
446.9339
447.3541
447.7392
448.0876
448.3991
448.6745
448.9151
449.1225
449.2982
449.444
449.5618
449.6537
449.7221
449.7695
449.7979
449.8092
449.805
449.7864
449.7543
449.7081
449.6475
449.572
449.4809
449.3726
449.245
449.095
448.9186
448.7107
448.4653
448.175
447.8316
447.4265
446.9504
446.3948
445.7527
445.0222
444.2098
443.3298
442.3869
441.3385
440.1052
438.5758
436.4792
432.9481
423.4652
468.3587
447.8828
443.4905
442.2062
441.921
442.0689
442.4337
442.9118
443.4465
444.004
444.563
445.1093
445.6331
446.1315
446.604
447.0478
447.4592
447.8358
448.1759
448.4793
448.747
448.9805
449.1815
449.3515
449.4924
449.6057
449.6936
449.7583
449.8022
449.8274
449.8358
449.829
449.8081
449.774
449.7262
449.6642
449.5873
449.4949
449.3855
449.2567
449.1056
448.9281
448.7189
448.4718
448.1796
447.8343
447.4272
446.9493
446.392
445.7486
445.0171
444.2035
443.3221
442.3792
441.3328
440.1026
438.5769
436.485
432.9608
423.4884
469.503
448.57
443.9835
442.5985
442.2492
442.3502
442.679
443.1292
443.6425
444.1839
444.7312
445.2696
445.7886
446.2808
446.7441
447.1776
447.5787
447.9447
448.2743
448.5676
448.8257
449.0501
449.2429
449.4056
449.54
449.6477
449.7306
449.791
449.8309
449.8526
449.858
449.8485
449.8253
449.7892
449.74
449.6766
449.5985
449.5048
449.3942
449.2644
449.1122
448.9335
448.7229
448.4743
448.1804
447.8332
447.4242
446.9446
446.3858
445.7413
445.0089
444.1947
443.3128
442.3706
441.3265
440.0993
438.5773
436.4902
432.9727
423.5083
470.5929
449.2469
444.4774
442.9966
442.5866
442.6438
442.9388
443.3624
443.855
444.3804
444.9153
445.4442
445.956
446.443
446.8996
447.3225
447.7111
448.0649
448.3825
448.664
448.9107
449.1244
449.3073
449.4612
449.5879
449.6889
449.766
449.8213
449.8568
449.8748
449.8769
449.8647
449.8391
449.8009
449.7501
449.6857
449.6064
449.5117
449.4
449.2692
449.1159
448.936
448.7241
448.474
448.1784
447.8294
447.4187
446.9374
446.3773
445.7319
444.999
444.1846
443.3028
442.3615
441.3196
440.0955
438.5773
436.4951
432.9848
423.5323
471.6628
449.9133
444.9721
443.4001
442.9328
442.9489
443.2122
443.6109
444.0836
444.593
445.115
445.6329
446.1352
446.6136
447.062
447.4766
447.8548
448.1952
448.4989
448.7672
449.0012
449.203
449.3747
449.5185
449.6362
449.7296
449.8002
449.8499
449.8807
449.8946
449.8933
449.8782
449.8502
449.81
449.7576
449.6919
449.6116
449.5159
449.4034
449.2716
449.1174
448.9364
448.7233
448.4718
448.1747
447.8241
447.4117
446.929
446.3677
445.7214
444.9881
444.1739
443.2928
442.3529
441.3132
440.0923
438.578
436.5008
432.9982
423.5618
472.6559
450.5705
445.4679
443.8086
443.2868
443.2644
443.4983
443.8737
444.3274
444.8211
445.3296
445.8356
446.3267
446.7941
447.2315
447.6347
448.0012
448.33
448.6213
448.8761
449.0962
449.2846
449.444
449.5768
449.6849
449.7699
449.8334
449.8771
449.9029
449.9126
449.9077
449.8897
449.8592
449.817
449.763
449.6959
449.6146
449.5181
449.4047
449.2721
449.1171
448.9352
448.7211
448.4683
448.1698
447.8178
447.4039
446.9198
446.3574
445.7104
444.9769
444.1631
443.2829
442.3445
441.3071
440.0894
438.5788
436.5066
433.0121
423.5952
473.6209
451.2272
445.9654
444.2219
443.6481
443.5895
443.7959
444.1493
444.5849
445.0632
445.558
446.0513
446.5299
446.9847
447.409
447.7988
448.1515
448.4664
448.7439
448.9852
449.1925
449.3681
449.5147
449.6356
449.7332
449.8094
449.8655
449.903
449.9236
449.929
449.9206
449.8996
449.8666
449.8223
449.7666
449.6982
449.6159
449.5185
449.4043
449.271
449.1152
448.9326
448.7175
448.4637
448.1641
447.8107
447.3956
446.9103
446.347
445.6994
444.9659
444.1526
443.2737
442.3372
441.3023
440.0876
438.5808
436.5138
433.0276
423.6313
474.518
451.8807
446.465
444.6395
444.0159
443.923
444.1037
444.4366
444.855
445.3181
445.7989
446.2786
446.7435
447.1841
447.5937
447.9682
448.3054
448.6048
448.867
449.0937
449.2871
449.4498
449.5845
449.6939
449.7808
449.8478
449.8963
449.9275
449.9429
449.944
449.9321
449.9082
449.8728
449.8264
449.7689
449.6993
449.616
449.5176
449.4026
449.2686
449.1122
448.9288
448.713
448.4583
448.1577
447.8033
447.3871
446.9009
446.3369
445.689
444.9555
444.143
443.2655
442.3311
441.2987
440.0869
438.5837
436.5217
433.0441
423.6692
475.3664
452.5298
446.9659
445.0609
444.3894
444.264
444.4206
444.734
445.1358
445.5837
446.0501
446.5152
446.9652
447.3901
447.7834
448.1411
448.4612
448.7436
448.9894
449.2005
449.3794
449.5287
449.6512
449.7497
449.8267
449.8846
449.9254
449.9504
449.9607
449.9576
449.9424
449.9157
449.8781
449.8297
449.7704
449.6994
449.6151
449.5158
449.4
449.2653
449.1082
448.9242
448.7077
448.4522
448.1507
447.7955
447.3785
446.8916
446.3272
445.6791
444.946
444.1344
443.2586
442.3263
441.2964
440.0873
438.5877
436.5309
433.0622
423.7105
476.1703
453.1766
447.466
445.4845
444.7676
444.6114
444.745
445.0399
445.4254
445.8581
446.3093
446.7588
447.1925
447.6002
447.9756
448.3149
448.6166
448.881
449.1096
449.3044
449.4683
449.6041
449.7145
449.8022
449.8697
449.9192
449.9527
449.9716
449.977
449.97
449.9516
449.9223
449.8826
449.8324
449.7715
449.6991
449.6136
449.5134
449.3969
449.2615
449.1037
448.919
448.7019
448.4458
448.1436
447.7877
447.3701
446.8828
446.3181
445.6701
444.9376
444.1271
443.253
442.323
441.2954
440.0889
438.5927
436.5408
433.0814
423.7567
476.9226
453.8222
447.9632
445.9079
445.1489
444.9636
445.0755
445.3525
445.7219
446.1389
446.574
447.0067
447.4225
447.8116
448.1676
448.4873
448.7696
449.0152
449.2259
449.4042
449.5531
449.6754
449.7738
449.8511
449.9096
449.9512
449.9779
449.9912
449.992
449.9813
449.9599
449.9283
449.8866
449.8347
449.7723
449.6985
449.612
449.5109
449.3936
449.2575
449.0991
448.9138
448.696
448.4393
448.1364
447.7799
447.3618
446.8742
446.3094
445.6617
444.9299
444.1207
443.2484
442.3206
441.2955
440.0915
438.5985
436.5516
433.1021
423.8098
477.6381
454.4594
448.4607
446.3309
445.5321
445.3193
445.4103
445.6698
446.0228
446.4235
446.8415
447.256
447.6525
448.0214
448.3569
448.656
448.9182
449.1445
449.3372
449.499
449.633
449.7421
449.829
449.8963
449.9461
449.9805
450.001
450.009
450.0057
449.9916
449.9674
449.9336
449.8901
449.8366
449.7728
449.6979
449.6103
449.5083
449.3903
449.2535
449.0945
448.9086
448.6902
448.4329
448.1295
447.7724
447.354
446.8661
446.3014
445.6541
444.9232
444.1153
443.245
442.3195
441.2967
440.095
438.6052
436.5631
433.1236
423.8696
478.3143
455.0873
448.9583
446.7543
445.9168
445.6772
445.748
445.99
446.3263
446.7097
447.1094
447.5042
447.88
448.2276
448.5414
448.8192
449.0608
449.2677
449.4425
449.5882
449.7077
449.8041
449.8801
449.9379
449.9797
450.0072
450.022
450.0254
450.0181
450.001
449.9743
449.9384
449.8932
449.8384
449.7733
449.6972
449.6086
449.5059
449.3872
449.2499
449.0904
448.904
448.685
448.4271
448.1231
447.7656
447.3468
446.8588
446.2943
445.6476
444.9176
444.1112
443.2428
442.3196
441.2989
440.0995
438.6126
436.575
433.1453
423.9343
478.9618
455.7034
449.453
447.1775
446.3016
446.0363
446.087
446.3113
446.6301
446.9952
447.3752
447.749
448.1028
448.4278
448.7192
448.9752
449.1961
449.3839
449.5413
449.6713
449.7771
449.8614
449.927
449.976
450.0103
450.0316
450.0412
450.0402
450.0295
450.0095
449.9806
449.9429
449.8962
449.84
449.7738
449.6966
449.6071
449.5037
449.3845
449.2467
449.0867
448.8999
448.6804
448.422
448.1176
447.7597
447.3407
446.8526
446.2883
445.6421
444.913
444.108
443.2417
442.3207
441.302
440.1047
438.6204
436.5868
433.1661
423.9996
479.5763
456.3057
449.9436
447.5996
446.6852
446.3951
446.4258
446.6319
446.9323
447.2778
447.6367
447.9882
448.3187
448.6203
448.8888
449.1229
449.3235
449.4927
449.6333
449.7484
449.8411
449.9142
449.9701
450.0109
450.0384
450.0539
450.0587
450.0538
450.0399
450.0174
449.9865
449.947
449.8989
449.8415
449.7743
449.6961
449.6058
449.5018
449.3821
449.244
449.0837
448.8965
448.6768
448.418
448.1132
447.755
447.3356
446.8476
446.2837
445.6381
444.91
444.1065
443.2419
442.3227
441.3059
440.1105
438.6285
436.5984
433.1854
424.061
480.1564
456.8936
450.4295
448.0171
447.0677
446.7528
446.7632
446.9502
447.231
447.5556
447.892
448.2198
448.5262
448.8038
449.0492
449.2618
449.4425
449.5938
449.7185
449.8196
449.9002
449.9628
450.0097
450.043
450.064
450.0743
450.0748
450.0663
450.0496
450.0247
449.9919
449.951
449.9015
449.8431
449.7748
449.6958
449.6048
449.5003
449.3802
449.2418
449.0812
448.8938
448.6739
448.4148
448.1097
447.7512
447.3319
446.844
446.2804
445.6354
444.9082
444.1058
443.2428
442.3255
441.3103
440.1167
438.6367
436.6095
433.2026
424.1136
480.7103
457.4663
450.9083
448.4308
447.4479
447.1089
447.098
447.2647
447.5245
447.8266
448.1392
448.4424
448.724
448.9774
449.2
449.3914
449.5531
449.6873
449.7971
449.8852
449.9545
450.0074
450.0462
450.0724
450.0877
450.0931
450.0896
450.0779
450.0585
450.0316
449.9971
449.9547
449.9041
449.8446
449.7755
449.6957
449.6041
449.4991
449.3787
449.2401
449.0794
448.8918
448.6717
448.4124
448.1072
447.7487
447.3295
446.8418
446.2785
445.634
444.9076
444.1065
443.2452
442.3296
441.3159
440.1237
438.6456
436.6207
433.2182
424.1556
481.24
458.0229
451.3799
448.8386
447.8235
447.4616
447.4293
447.5744
447.8115
448.0896
448.3772
448.6549
448.9113
449.1408
449.3409
449.5119
449.6554
449.7737
449.8695
449.9456
450.0045
450.0486
450.0797
450.0996
450.1095
450.1105
450.1034
450.0887
450.0669
450.038
450.0019
449.9583
449.9066
449.8462
449.7763
449.6959
449.6037
449.4983
449.3777
449.2389
449.0781
448.8904
448.6702
448.4109
448.1057
447.7472
447.3281
446.8408
446.2781
445.6344
444.9089
444.1088
443.2489
442.3348
441.3224
440.1317
438.6551
436.6322
433.2328
424.1861
481.7442
458.5597
451.8401
449.2397
448.194
447.8096
447.7555
447.878
448.0911
448.3439
448.6054
448.857
449.0882
449.2939
449.4723
449.6237
449.75
449.8533
449.9362
450.0012
450.0506
450.0865
450.1108
450.1248
450.1297
450.1267
450.1162
450.0988
450.0748
450.0441
450.0066
449.9618
449.9091
449.8479
449.7773
449.6962
449.6036
449.4979
449.3771
449.2382
449.0774
448.8897
448.6695
448.4102
448.1051
447.7468
447.328
446.8411
446.279
445.6361
444.9114
444.1125
443.2541
442.3413
441.3301
440.1406
438.6654
436.6441
433.247
424.2078
482.2323
459.0808
452.2929
449.6343
448.5583
448.1511
448.0742
448.1729
448.3608
448.5873
448.8222
449.0477
449.254
449.4367
449.5942
449.7272
449.8374
449.9268
449.9978
450.0525
450.0932
450.1217
450.1396
450.1482
450.1486
450.1418
450.1283
450.1084
450.0823
450.0499
450.011
449.9651
449.9116
449.8496
449.7783
449.6968
449.6038
449.4979
449.3769
449.238
449.0772
448.8897
448.6695
448.4104
448.1054
447.7474
447.329
446.8427
446.2813
445.6391
444.9154
444.1176
443.2605
442.349
441.3389
440.1506
438.6767
436.6568
433.2613
424.224
482.7009
459.5863
452.7354
450.0208
448.915
448.4848
448.3844
448.4582
448.6199
448.8196
449.0276
449.2272
449.4093
449.5698
449.7075
449.8232
449.9182
449.9947
450.0547
450.1001
450.1328
450.1544
450.1664
450.1701
450.1663
450.156
450.1396
450.1174
450.0894
450.0555
450.0154
449.9684
449.9141
449.8514
449.7796
449.6976
449.6043
449.4982
449.3772
449.2383
449.0777
448.8902
448.6703
448.4113
448.1065
447.7489
447.331
446.8454
446.2847
445.6434
444.9206
444.1238
443.2678
442.3574
441.3484
440.1613
438.6887
436.6703
433.2763
424.2389
483.1533
460.0746
453.1668
450.3986
449.2632
448.8095
448.6847
448.7327
448.8676
449.04
449.2214
449.3956
449.5543
449.6937
449.8128
449.9122
449.9933
450.0578
450.1076
450.1443
450.1696
450.1849
450.1916
450.1906
450.183
450.1695
450.1504
450.126
450.0962
450.0609
450.0196
449.9717
449.9165
449.8533
449.7809
449.6985
449.605
449.4988
449.3778
449.2391
449.0786
448.8914
448.6716
448.4129
448.1085
447.7513
447.334
446.8491
446.2893
445.6488
444.9269
444.1311
443.2763
442.367
441.3589
440.1728
438.7016
436.6848
433.2925
424.2547
483.5863
460.546
453.5866
450.7666
449.6017
449.124
448.9741
448.9957
449.1033
449.2486
449.4037
449.5535
449.6898
449.8092
449.9108
449.995
450.0631
450.1165
450.1568
450.1854
450.2039
450.2134
450.2151
450.2099
450.1988
450.1822
450.1606
450.1342
450.1027
450.066
450.0236
449.9749
449.919
449.8552
449.7824
449.6997
449.606
449.4998
449.3789
449.2403
449.0801
448.8931
448.6736
448.4153
448.1113
447.7546
447.338
446.8539
446.295
445.6554
444.9343
444.1394
443.2857
442.3774
441.3703
440.1852
438.7152
436.7
433.3098
424.2731
484.0026
461.0009
453.9944
451.125
449.9293
449.4272
449.2518
449.2465
449.3269
449.4454
449.5751
449.7013
449.8165
449.9171
450.0023
450.0724
450.1282
450.1713
450.2027
450.2239
450.236
450.2401
450.2372
450.2281
450.2136
450.1943
450.1704
450.142
450.109
450.071
450.0275
449.9779
449.9214
449.8571
449.784
449.701
449.6072
449.501
449.3803
449.242
449.082
448.8954
448.6762
448.4183
448.1148
447.7587
447.3429
446.8597
446.3016
445.6629
444.9427
444.1486
443.2958
442.3884
441.3822
440.1982
438.7294
436.7158
433.3278
424.2944
484.4018
461.4396
454.3905
451.4738
450.2452
449.718
449.5172
449.4852
449.5387
449.631
449.7362
449.84
449.9351
450.0181
450.088
450.1448
450.1894
450.2227
450.2459
450.26
450.2661
450.2651
450.2579
450.2452
450.2276
450.2057
450.1796
450.1494
450.1149
450.0757
450.0313
449.9809
449.9238
449.8591
449.7857
449.7025
449.6086
449.5025
449.382
449.244
449.0844
448.8981
448.6794
448.422
448.119
447.7637
447.3487
446.8663
446.3092
445.6714
444.952
444.1588
443.3068
442.4003
441.3949
440.2118
438.7442
436.7322
433.3466
424.3174
484.7856
461.8628
454.7749
451.8123
450.5492
449.9966
449.7705
449.712
449.739
449.806
449.8878
449.9703
450.0466
450.1131
450.1685
450.213
450.2468
450.271
450.2864
450.2939
450.2943
450.2886
450.2773
450.2612
450.2409
450.2165
450.1884
450.1565
450.1206
450.0802
450.0349
449.9838
449.9262
449.8611
449.7874
449.7042
449.6103
449.5043
449.3841
449.2464
449.0872
448.9014
448.6832
448.4262
448.124
447.7694
447.3552
446.8738
446.3176
445.6807
444.9621
444.1696
443.3184
442.4125
441.4078
440.2256
438.7592
436.7488
433.3656
424.341
485.1555
462.2707
455.1475
452.1402
450.8414
450.2629
450.0117
449.9272
449.9286
449.9713
450.0307
450.0932
450.1516
450.2026
450.2445
450.2773
450.3011
450.3166
450.3246
450.3257
450.3208
450.3105
450.2955
450.2763
450.2533
450.2268
450.1968
450.1633
450.1261
450.0846
450.0384
449.9867
449.9286
449.8631
449.7893
449.706
449.6121
449.5063
449.3864
449.2491
449.0904
448.905
448.6873
448.431
448.1295
447.7757
447.3625
446.8821
446.3268
445.6908
444.9729
444.181
443.3305
442.4253
441.4213
440.24
438.7747
436.7659
433.385
424.3649
485.5121
462.6639
455.5083
452.457
451.1218
450.5172
450.2413
450.1315
450.1081
450.1277
450.1659
450.2094
450.251
450.2873
450.3165
450.3382
450.3525
450.3597
450.3606
450.3557
450.3457
450.3311
450.3125
450.2904
450.265
450.2364
450.2047
450.1698
450.1313
450.0888
450.0418
449.9894
449.9309
449.8652
449.7913
449.708
449.6142
449.5087
449.3891
449.2522
449.0939
448.9091
448.692
448.4363
448.1355
447.7827
447.3704
446.891
446.3368
445.7016
444.9844
444.1931
443.3431
442.4385
441.4352
440.2547
438.7905
436.7832
433.4047
424.3885
485.858
463.0433
455.8573
452.7629
451.3906
450.7599
450.4599
450.3255
450.2785
450.2759
450.294
450.3195
450.3454
450.3678
450.3849
450.396
450.4012
450.4005
450.3946
450.3839
450.3689
450.3502
450.3283
450.3034
450.2758
450.2454
450.2122
450.1759
450.1362
450.0928
450.045
449.9921
449.9332
449.8673
449.7933
449.7101
449.6165
449.5112
449.392
449.2556
449.0978
448.9135
448.697
448.442
448.142
447.7901
447.3788
446.9005
446.3472
445.7128
444.9963
444.2056
443.3561
442.452
441.4493
440.2696
438.8066
436.8009
433.4247
424.4122
486.193
463.4093
456.1949
453.0581
451.6483
450.9917
450.6682
450.5101
450.4404
450.4168
450.4158
450.4243
450.4352
450.4444
450.4499
450.451
450.4474
450.4392
450.4267
450.4104
450.3907
450.3681
450.343
450.3156
450.2859
450.2538
450.2191
450.1816
450.1409
450.0967
450.0482
449.9948
449.9356
449.8695
449.7955
449.7123
449.6189
449.514
449.3952
449.2592
449.1019
448.9182
448.7024
448.4482
448.1491
447.7981
447.3879
446.9106
446.3583
445.7248
445.0089
444.2186
443.3695
442.4659
441.4638
440.2849
438.8229
436.8188
433.4449
424.4361
486.5182
463.763
456.5213
453.3427
451.8954
451.2131
450.8669
450.6861
450.5947
450.551
450.5319
450.5243
450.5208
450.5174
450.512
450.5034
450.4913
450.4757
450.4569
450.4352
450.4109
450.3845
450.3565
450.3268
450.2953
450.2617
450.2256
450.187
450.1454
450.1003
450.0513
449.9974
449.9379
449.8717
449.7977
449.7147
449.6216
449.5169
449.3986
449.2631
449.1064
448.9233
448.7082
448.4548
448.1565
447.8065
447.3974
446.9211
446.3698
445.7371
445.0218
444.2319
443.3831
442.4799
441.4783
440.3001
438.8392
436.8367
433.4654
424.4607
486.8332
464.1042
456.8368
453.618
452.1343
451.4246
451.0561
450.854
450.742
450.6793
450.643
450.6199
450.6028
450.5873
450.5712
450.5532
450.533
450.5103
450.4853
450.4582
450.4296
450.3998
450.3691
450.3373
450.304
450.2689
450.2317
450.192
450.1496
450.1039
450.0543
450
449.9403
449.874
449.8
449.7172
449.6243
449.5201
449.4021
449.2672
449.1111
448.9286
448.7142
448.4616
448.1644
447.8154
447.4073
446.9321
446.3818
445.7498
445.035
444.2454
443.397
442.4942
441.493
440.3156
438.8558
436.8549
433.4863
424.4864
487.137
464.4338
457.1421
453.8847
452.3649
451.6271
451.2368
451.0144
450.8828
450.8021
450.7493
450.7115
450.6812
450.6541
450.6277
450.6007
450.5725
450.5428
450.5116
450.4795
450.4468
450.4139
450.3807
450.3469
450.312
450.2755
450.2372
450.1967
450.1535
450.1072
450.0572
450.0026
449.9427
449.8763
449.8024
449.7198
449.6272
449.5234
449.4059
449.2716
449.116
448.9342
448.7206
448.4689
448.1726
447.8247
447.4177
446.9436
446.3942
445.763
445.0486
444.2593
443.4111
442.5086
441.508
440.3313
438.8726
436.8735
433.5074
424.5123
487.4298
464.752
457.4376
454.1434
452.588
451.8217
451.4099
451.1681
451.018
450.9199
450.8514
450.7994
450.7565
450.7181
450.6817
450.6458
450.6097
450.5731
450.5361
450.4992
450.4628
450.427
450.3915
450.3558
450.3194
450.2817
450.2423
450.201
450.1572
450.1104
450.06
450.0052
449.9451
449.8787
449.8049
449.7225
449.6303
449.5269
449.4099
449.2761
449.1211
448.9401
448.7272
448.4764
448.1811
447.8343
447.4285
446.9554
446.4068
445.7763
445.0624
444.2734
443.4254
442.5232
441.5231
440.3472
438.8897
436.8923
433.5288
424.5384
487.7105
465.0592
457.7243
454.395
452.8042
452.0093
451.5762
451.3158
451.1478
451.0331
450.9495
450.8839
450.8287
450.7793
450.7331
450.6885
450.6445
450.6011
450.5587
450.5175
450.4776
450.4391
450.4014
450.364
450.3261
450.2872
450.247
450.205
450.1606
450.1134
450.0627
450.0077
449.9476
449.8812
449.8075
449.7254
449.6335
449.5305
449.414
449.2808
449.1265
448.9462
448.7341
448.4843
448.19
447.8443
447.4396
446.9676
446.4199
445.7901
445.0766
444.2878
443.4399
442.5381
441.5385
440.3633
438.907
436.9112
433.5502
424.5643
487.9794
465.3559
458.0025
454.6398
453.0141
452.1906
451.7367
451.4582
451.273
451.1423
451.044
450.9651
450.8979
450.8379
450.782
450.7285
450.6769
450.6272
450.5796
450.5344
450.4913
450.4503
450.4106
450.3715
450.3322
450.2923
450.2512
450.2086
450.1638
450.1163
450.0654
450.0103
449.9501
449.8838
449.8103
449.7284
449.6369
449.5343
449.4184
449.2857
449.1321
448.9525
448.7413
448.4924
448.1992
447.8546
447.451
446.98
446.4333
445.804
445.0909
444.3023
443.4545
442.5529
441.5538
440.3795
438.9243
436.9302
433.5715
424.5898
488.236
465.6424
458.273
454.8787
453.2191
452.3673
451.8918
451.5956
451.3938
451.2476
451.1351
451.0433
450.9645
450.8938
450.828
450.7659
450.707
450.6514
450.599
450.55
450.504
450.4606
450.419
450.3784
450.3378
450.2969
450.2551
450.2119
450.1667
450.119
450.068
450.0128
449.9527
449.8865
449.8132
449.7315
449.6403
449.5382
449.4228
449.2907
449.1378
448.959
448.7487
448.5008
448.2087
447.8652
447.4627
446.9927
446.4468
445.8182
445.1054
444.3169
443.4692
442.5678
441.5693
440.3958
438.9418
436.9493
433.593
424.6147
488.4812
465.9195
458.5365
455.1124
453.4197
452.5399
452.0423
451.7283
451.5106
451.3494
451.2231
451.1187
451.0282
450.9465
450.8711
450.8007
450.735
450.6738
450.617
450.5645
450.5157
450.4701
450.4268
450.3846
450.3429
450.301
450.2585
450.2149
450.1694
450.1216
450.0705
450.0154
449.9553
449.8893
449.8162
449.7348
449.644
449.5423
449.4274
449.296
449.1437