/*--------------------------------*- C++ -*----------------------------------*\
| =========                 |                                                 |
| \\      /  F ield         | OpenFOAM: The Open Source CFD Toolbox           |
|  \\    /   O peration     | Version:  2312                                  |
|   \\  /    A nd           | Website:  www.openfoam.com                      |
|    \\/     M anipulation  |                                                 |
\*---------------------------------------------------------------------------*/
FoamFile
{
    version     2.0;
    format      ascii;
    arch        "LSB;label=32;scalar=64";
    class       volScalarField;
    location    "1500";
    object      alphat;
}
// * * * * * * * * * * * * * * * * * * * * * * * * * * * * * * * * * * * * * //

dimensions      [1 -1 -1 0 0 0 0];

internalField   nonuniform List<scalar> 
12000
(
2.825388e-05
0.0001148843
0.0001245384
0.000134363
0.0001305958
0.000124997
0.0001319591
0.0001535972
0.0001571879
0.0001315457
0.0001169148
0.0001300316
0.0001581542
0.0001478871
0.0001203859
0.0001188436
0.000140495
0.0001456706
0.0001259766
0.0001210938
0.0001327812
0.0001357102
0.0001265209
0.0001260992
0.0001319377
0.000129628
0.0001255176
0.0001293543
0.0001326181
0.0001281738
0.0001255241
0.000128454
0.0001309623
0.0001296204
0.0001271732
0.000126221
0.0001262281
0.0001288316
0.0001334484
0.0001325735
0.0001260658
0.0001205909
0.0001255297
0.0001439102
0.0001495674
0.0001247226
0.0001095615
0.0001271938
0.0001680717
0.000142548
0.0001109178
0.0001212659
0.0001510682
0.0001362729
0.0001162973
0.0001138422
0.0001115321
8.342158e-05
7.159005e-05
5.481391e-05
1.786073e-05
0.0001431173
0.0001673776
0.0002058283
0.0002371298
0.000266179
0.0002987815
0.0003292283
0.0003609041
0.0004008436
0.0004515285
0.0004928453
0.0005228466
0.0005594936
0.0006136962
0.0006643782
0.0006945802
0.000724135
0.0007716933
0.0008188611
0.0008487407
0.0008768461
0.0009156602
0.0009503933
0.0009744909
0.001001398
0.001032048
0.001053593
0.001071051
0.00109475
0.001116735
0.001133301
0.001142702
0.001155145
0.001167212
0.001177258
0.001180074
0.001177212
0.001126969
0.001083086
0.001086272
0.001130054
0.001140281
0.001108881
0.0009864984
0.000916528
0.001016073
0.001003955
0.0009441092
0.0008443238
0.0008457173
0.0007746859
0.0006972801
0.0006260563
0.0005446803
0.000452062
0.000351637
0.0002316129
0.0001235949
5.022071e-05
2.307225e-05
0.0002122032
0.0002604489
0.0003151049
0.0003739412
0.0004452148
0.0005258481
0.0006055411
0.0006861535
0.0007737644
0.0008600573
0.0009436555
0.001020747
0.001096239
0.001173058
0.001244881
0.001309188
0.001370483
0.001430287
0.001486086
0.001536359
0.0015834
0.0016277
0.001668066
0.001704555
0.001738295
0.001768859
0.001795588
0.001820604
0.001842472
0.001861278
0.001876475
0.001888775
0.001898584
0.001905882
0.001910867
0.001913314
0.001913311
0.001910748
0.001905435
0.001897492
0.001887095
0.001874577
0.00185902
0.001839544
0.001815077
0.0017865
0.001755093
0.001717404
0.001669534
0.001609574
0.001534498
0.00144312
0.001319752
0.001028973
0.0008895794
0.0007757052
0.0005028843
0.0002293147
5.071646e-05
2.262134e-05
0.0002224284
0.0003110435
0.0003914753
0.0004902895
0.0006044682
0.0007263704
0.0008529122
0.000977373
0.001105947
0.001229526
0.001344827
0.001453416
0.001551381
0.001642635
0.001727881
0.001806267
0.001879824
0.001949127
0.002014125
0.002074783
0.002131347
0.002183618
0.002230125
0.002271391
0.002307576
0.002339092
0.002367669
0.002391373
0.002410481
0.002425187
0.002435647
0.002441976
0.002444186
0.002442339
0.002436537
0.002426868
0.002413384
0.002396037
0.00237468
0.002349148
0.002319306
0.002284958
0.002245776
0.00220103
0.002149694
0.00209079
0.002025151
0.001951392
0.001868744
0.001777201
0.001673128
0.00155184
0.00139574
0.001235606
0.001033268
0.0008026732
0.0005430474
0.0002540263
4.921719e-05
2.251949e-05
0.0002381014
0.000366803
0.0004807047
0.0006198989
0.0007740941
0.0009337943
0.001068055
0.00123706
0.001399325
0.001542328
0.001677588
0.001804921
0.001921846
0.002027952
0.002127053
0.002220603
0.002304797
0.002381992
0.002452905
0.002517783
0.002576729
0.002630055
0.002679303
0.002724145
0.002762964
0.002797613
0.00282641
0.002849521
0.002866964
0.002878796
0.002885134
0.002886115
0.002881904
0.002872714
0.002858794
0.002840408
0.002817789
0.002791211
0.002760877
0.002726852
0.002689054
0.002647216
0.002601571
0.00255141
0.002497
0.002438072
0.002371095
0.002295941
0.002210967
0.002110954
0.001987747
0.001841952
0.001669863
0.001470151
0.001239127
0.0009694335
0.0006550125
0.0003125186
4.947035e-05
2.297588e-05
0.0002487611
0.0004166625
0.000561838
0.0007334647
0.0009188229
0.001107358
0.001256543
0.001369947
0.001503797
0.001687105
0.001939706
0.002098948
0.002229538
0.002349437
0.002456355
0.002552265
0.002642405
0.002725903
0.002803319
0.002874871
0.002940689
0.003000849
0.003055324
0.003103837
0.003145501
0.003181356
0.003210398
0.003232571
0.003247823
0.003256187
0.003257792
0.003252812
0.003241478
0.003224088
0.00320099
0.003172548
0.003139072
0.003101203
0.003059281
0.003013529
0.002963981
0.00291046
0.00285282
0.002791277
0.002722475
0.002647063
0.002564079
0.002470372
0.002361861
0.002235529
0.00209035
0.001923876
0.001737348
0.001523642
0.001277094
0.000993792
0.0006720798
0.000323318
4.866128e-05
2.34122e-05
0.0002579386
0.0004637777
0.0006381236
0.0008356008
0.001044133
0.001248099
0.001369669
0.001498058
0.001646979
0.001821844
0.002008002
0.002275608
0.002482879
0.002609716
0.002727229
0.002834819
0.002934003
0.003026749
0.00311116
0.003189086
0.003260438
0.003325116
0.003382937
0.003433665
0.003475919
0.003511936
0.00353996
0.003559975
0.003571938
0.003575937
0.003572247
0.003561028
0.003542568
0.003517284
0.003485721
0.003448473
0.003406043
0.003359232
0.00330844
0.00325394
0.003195834
0.003135669
0.003071991
0.003002392
0.002927843
0.002847036
0.002757308
0.002655879
0.002540558
0.002409269
0.002259041
0.002084391
0.001883616
0.001650394
0.00138176
0.001074386
0.0007272839
0.0003509101
4.906278e-05
2.416106e-05
0.0002643964
0.0005045159
0.0007052433
0.0009221207
0.001147051
0.001360126
0.001471788
0.001585786
0.001715677
0.001863011
0.002023275
0.002272007
0.002446551
0.002648664
0.002969545
0.003087168
0.003197474
0.003299066
0.003391352
0.003475494
0.003550666
0.003617534
0.003676084
0.003726289
0.003766049
0.003799729
0.003824444
0.003840734
0.003848351
0.003847405
0.003838194
0.003820945
0.003796032
0.00376391
0.003725109
0.003680172
0.003629613
0.003575434
0.003518028
0.003457211
0.003392703
0.003322889
0.003248758
0.003170391
0.00308664
0.002995404
0.002894399
0.00278151
0.002654421
0.002510215
0.002345559
0.002156123
0.001940416
0.001693802
0.001410488
0.001092782
0.0007379892
0.0003593086
4.854691e-05
2.472469e-05
0.0002684121
0.0005385225
0.0007623729
0.0009935636
0.001229261
0.001432397
0.001527286
0.001618369
0.001721698
0.001836236
0.001964649
0.002106903
0.002312079
0.00250164
0.002622006
0.002896466
0.00323895
0.003547403
0.003646244
0.003735401
0.003812922
0.003879137
0.003934716
0.003980599
0.004017266
0.004044769
0.004064158
0.004074861
0.004077167
0.004071165
0.004057027
0.004034966
0.004005393
0.003968933
0.0039263
0.003878119
0.003824984
0.003765823
0.003701278
0.003632577
0.003560615
0.003485282
0.003406045
0.003322055
0.003232057
0.003134489
0.003027522
0.002908604
0.002775508
0.002624867
0.002452884
0.002255566
0.002029556
0.001770089
0.001473322
0.00113978
0.0007699938
0.0003748671
4.884558e-05
2.571657e-05
0.0002704926
0.0005648006
0.0008093581
0.001050893
0.001292155
0.001454183
0.001527104
0.001592633
0.001666679
0.001747293
0.001837335
0.001942253
0.002084696
0.002206516
0.002326096
0.002467827
0.002652315
0.002872385
0.003141703
0.003510217
0.003965509
0.00407989
0.004135066
0.004179196
0.004212713
0.004235345
0.004250959
0.004258563
0.004258418
0.004250548
0.004234798
0.004210891
0.004178366
0.00413826
0.004092219
0.004040303
0.003982783
0.003920245
0.003853038
0.003781567
0.003706148
0.003626905
0.003542562
0.003451861
0.00335439
0.003248906
0.003133614
0.003006616
0.002864576
0.002704203
0.002520279
0.002311731
0.002074144
0.001799824
0.001481727
0.001152797
0.0007782758
0.0003805495
4.854999e-05
2.680468e-05
0.0002682686
0.0005825093
0.0008447793
0.001094633
0.00133859
0.001445522
0.001499613
0.001551135
0.001609726
0.001672459
0.001740878
0.001807638
0.001889327
0.001991927
0.002098373
0.002207041
0.002339214
0.002492317
0.002671086
0.002888842
0.003168217
0.003561893
0.004095929
0.00431718
0.004345837
0.004364985
0.004374992
0.004377679
0.004373324
0.004362433
0.004345409
0.004322686
0.004294915
0.004261032
0.004219393
0.004170324
0.00411435
0.00405198
0.003983678
0.003909814
0.003830575
0.003745886
0.003656488
0.003562263
0.003461139
0.003351144
0.003230242
0.003096133
0.00294634
0.002778341
0.002589264
0.002374861
0.002129798
0.001840356
0.001524689
0.001183468
0.0007970997
0.0003896514
4.871423e-05
2.787011e-05
0.0002674721
0.0005943094
0.0008745173
0.001130854
0.001351981
0.001428272
0.001467482
0.001505683
0.001550978
0.001601827
0.001657294
0.001715032
0.00178369
0.001864362
0.001957165
0.002055128
0.002157763
0.002276961
0.002420908
0.002602545
0.002839716
0.003163012
0.003628241
0.004271762
0.004421027
0.004439027
0.004450012
0.004454573
0.00445359
0.004446969
0.004434562
0.004416009
0.00439082
0.004358629
0.00431925
0.004272684
0.00421909
0.004158739
0.004091946
0.00401898
0.003939975
0.003854839
0.003763158
0.003664213
0.00355704
0.003440293
0.003312254
0.003170811
0.003013387
0.002837246
0.002638467
0.002405276
0.002143404
0.001849025
0.001532006
0.001194808
0.0008040025
0.0003936769
4.858906e-05
2.90207e-05
0.0002613784
0.0005984719
0.0008904498
0.001151159
0.001322889
0.001389044
0.001425289
0.001460769
0.001501206
0.001543739
0.001586883
0.001646123
0.001720168
0.001797375
0.001872056
0.001953732
0.002049273
0.002159102
0.002289709
0.002455538
0.002685705
0.003025398
0.003516023
0.004129584
0.004432342
0.004456341
0.004473308
0.004484436
0.0044902
0.004490867
0.004485992
0.004474996
0.004457197
0.004431956
0.004398783
0.00435741
0.004307801
0.004250127
0.004184688
0.004111811
0.004031739
0.003944514
0.003849892
0.003747266
0.003635651
0.003513707
0.003379708
0.003231831
0.003004598
0.002796791
0.002614511
0.002414939
0.002169953
0.001881018
0.001562991
0.001212999
0.0008152786
0.0003991453
4.865343e-05
2.994269e-05
0.0002579213
0.0006014228
0.0009054026
0.001169936
0.001314654
0.001376715
0.001412587
0.001446239
0.001485314
0.001536349
0.001593089
0.001662698
0.001732168
0.0018043
0.001868414
0.001943798
0.002035266
0.00213826
0.002262524
0.002430408
0.002680319
0.003062328
0.003604938
0.004211744
0.004400827
0.004432963
0.004458574
0.004478809
0.004494137
0.004504461
0.004509229
0.004507595
0.004498614
0.004481405
0.004455288
0.004419859
0.004375015
0.004320915
0.004257886
0.004186307
0.004106475
0.004018482
0.003922112
0.003816781
0.003701512
0.003574935
0.003388146
0.003117302
0.002912637
0.00276377
0.002617858
0.002430312
0.002184734
0.001891312
0.001569705
0.001222219
0.0008212808
0.000401815
4.865383e-05
3.087288e-05
0.0002522621
0.0005976207
0.0009099102
0.001178984
0.001308908
0.001372253
0.001414723
0.001454564
0.001497729
0.00154418
0.001604171
0.001668681
0.001739005
0.001809816
0.001890143
0.001973224
0.002058691
0.002155034
0.002278886
0.002461103
0.00274755
0.003187972
0.003774638
0.004295191
0.004343422
0.004384382
0.004419721
0.004450345
0.004476467
0.004497699
0.004513134
0.004521804
0.004522393
0.00451383
0.0044953
0.004466328
0.004426788
0.00437685
0.004316876
0.004247282
0.004168394
0.004080318
0.003982853
0.003875434
0.003757129
0.003568941
0.003252675
0.003021151
0.002873018
0.002757932
0.002627964
0.002448257
0.00220735
0.001916768
0.00159418
0.001236039
0.0008295901
0.0004060417
4.865067e-05
3.16473e-05
0.0002469875
0.0005918891
0.0009113199
0.0011687
0.001285568
0.00134925
0.001395374
0.001439108
0.001488448
0.001542659
0.001610457
0.001680724
0.001752655
0.001818335
0.001896281
0.001979487
0.002066039
0.002165019
0.00230048
0.002512223
0.002856059
0.003368887
0.003967808
0.004218159
0.004273558
0.004323171
0.004368305
0.004409529
0.004446698
0.004479071
0.004505284
0.004524603
0.004534789
0.004534901
0.004524014
0.004501605
0.004467545
0.004422025
0.004365435
0.004298207
0.004220671
0.004132925
0.004034749
0.003925565
0.003799814
0.003437256
0.003150225
0.002970342
0.002858178
0.002763844
0.002643325
0.002466038
0.002223478
0.001929084
0.001602646
0.001243794
0.0008346047
0.0004080649
4.867917e-05
3.231539e-05
0.000242487
0.0005850243
0.0009086486
0.001162796
0.00128209
0.001350429
0.001404326
0.001457185
0.0015146
0.001579819
0.001645113
0.001711164
0.001779136
0.00186055
0.001943668
0.00202532
0.002109358
0.002212969
0.002369103
0.002629005
0.003046386
0.003603319
0.004071051
0.004138573
0.004200314
0.004257973
0.004312456
0.004363926
0.00441183
0.004455045
0.004491824
0.004521146
0.004540667
0.004549208
0.004545771
0.004529812
0.00450121
0.004460177
0.004407116
0.004342463
0.004266534
0.00417941
0.004080861
0.003970323
0.00367791
0.003331002
0.003092768
0.002953932
0.002865538
0.002781904
0.002664699
0.002488153
0.002245996
0.001951805
0.001622922
0.001255247
0.0008419265
0.0004117479
4.867829e-05
3.285872e-05
0.000237792
0.0005769542
0.0009036054
0.001157075
0.001281176
0.001357059
0.00141961
0.001480647
0.001542875
0.001608348
0.001676667
0.001751416
0.001831864
0.001914819
0.001994873
0.002073032
0.002157945
0.002275061
0.002467111
0.002791465
0.003270756
0.003820276
0.003991053
0.004062026
0.004129349
0.004194357
0.004257545
0.004318622
0.004376612
0.00443002
0.004476723
0.00451541
0.004543744
0.004560239
0.004563856
0.00455404
0.00453068
0.00449399
0.004444368
0.004382227
0.004307855
0.004221306
0.004122333
0.003971453
0.003577123
0.003259774
0.003064415
0.002954254
0.002879798
0.002800814
0.002684063
0.002506306
0.002261953
0.00196487
0.001633183
0.001261796
0.0008458787
0.0004133621
4.866553e-05
3.330701e-05
0.0002341008
0.0005691555
0.0008971865
0.001146312
0.001274294
0.001356209
0.001425628
0.001493617
0.001563147
0.001635076
0.001709708
0.00178808
0.001870501
0.001953912
0.002034298
0.002113723
0.002208446
0.002353611
0.002598195
0.002982582
0.003481996
0.003839199
0.003916698
0.00399086
0.004063371
0.004135211
0.004206478
0.004276466
0.004343793
0.004406607
0.004462433
0.004509679
0.004546606
0.004570388
0.004580533
0.004576452
0.004558014
0.004525417
0.004479028
0.004419229
0.004346278
0.004260214
0.004160809
0.003875044
0.003495455
0.003222701
0.003063949
0.002972428
0.002904408
0.002825879
0.002707874
0.002528705
0.002283269
0.001985692
0.001651422
0.001271539
0.0008524692
0.0004165941
4.866387e-05
3.365025e-05
0.0002307537
0.0005612684
0.0008895243
0.001134289
0.001266698
0.001355136
0.001431547
0.001506375
0.0015823
0.00166013
0.001740573
0.001824115
0.001909538
0.001993349
0.002073757
0.002158008
0.002270582
0.002452152
0.002751225
0.003187191
0.003673889
0.003770315
0.003848882
0.003926218
0.004003706
0.004081987
0.004160776
0.004239007
0.00431492
0.00438634
0.004450682
0.004505918
0.004550258
0.004580795
0.004596971
0.004598174
0.004584247
0.004555357
0.004511832
0.004454014
0.004382125
0.004296182
0.004195954
0.003796612
0.003438878
0.003206871
0.003074591
0.002993181
0.002926072
0.002845765
0.002725856
0.002544945
0.002297489
0.001996741
0.001658646
0.001277216
0.0008555421
0.0004174047
4.861259e-05
3.393627e-05
0.0002281911
0.0005542784
0.0008817954
0.001120662
0.001257102
0.001352414
0.001436021
0.001517933
0.00160087
0.001685585
0.001772318
0.001860461
0.001947837
0.002031747
0.002113857
0.002208614
0.002350191
0.002583937
0.002940039
0.003379796
0.00362702
0.00370808
0.003788035
0.003868647
0.003950993
0.004035349
0.00412118
0.004207039
0.004290829
0.004370022
0.004442217
0.004504672
0.004555713
0.00459234
0.004613951
0.004619893
0.004609975
0.004584322
0.004543228
0.004487
0.004415844
0.004329784
0.004125482
0.003726837
0.003405939
0.003204917
0.003089579
0.003015294
0.002948392
0.002866462
0.002745467
0.002564205
0.002314911
0.002009589
0.001667008
0.001285
0.0008603022
0.0004193069
4.863851e-05
3.417324e-05
0.0002254705
0.0005473848
0.0008736653
0.001105222
0.001245702
0.00134829
0.001439362
0.00152856
0.001618779
0.001710639
0.001803686
0.001896184
0.001985393
0.00207042
0.002158648
0.00227354
0.002455966
0.002740493
0.003127521
0.003488422
0.003570931
0.003652293
0.003734297
0.003818441
0.003905596
0.003995796
0.004088174
0.004181054
0.004272053
0.004358277
0.004437376
0.004506319
0.004563371
0.00460539
0.004631767
0.004641811
0.004635291
0.004612297
0.004573088
0.004517956
0.004447117
0.00436064
0.004058107
0.003679758
0.003397703
0.003222272
0.003117091
0.003039645
0.002967654
0.002882815
0.00275999
0.00257624
0.002324538
0.002017949
0.001674715
0.001290208
0.000863001
0.0004202525
4.861893e-05
3.43493e-05
0.0002234169
0.0005415213
0.0008661694
0.001088551
0.00123314
0.001343068
0.001441621
0.001538261
0.001636063
0.001735249
0.001834326
0.001930502
0.002021546
0.002110466
0.002212038
0.002357544
0.00258628
0.002921997
0.003308864
0.003441516
0.003522846
0.003604401
0.003688295
0.003775866
0.003867675
0.003963435
0.004061975
0.004161314
0.004258862
0.004351371
0.004436594
0.00451123
0.004573533
0.004620173
0.004650577
0.004664024
0.004660251
0.004639318
0.004601463
0.004546968
0.00447606
0.004388845
0.004013695
0.003650497
0.003402085
0.003246289
0.003143574
0.003063998
0.002989968
0.002902231
0.002776809
0.002591869
0.002340216
0.002033831
0.00168938
0.00129658
0.0008672494
0.0004220758
4.861124e-05
3.449756e-05
0.0002220142
0.0005366807
0.0008591532
0.001071845
0.001219833
0.001337007
0.001443293
0.001547777
0.001653501
0.001759984
0.001864551
0.001963911
0.002057864
0.002155269
0.002279621
0.002469878
0.002750562
0.003098435
0.003317519
0.003398628
0.003479576
0.003562476
0.003649056
0.003740445
0.003836997
0.003938178
0.004042559
0.004147901
0.004251373
0.004349586
0.004440172
0.004519682
0.004586396
0.004636817
0.004670442
0.004686531
0.004684806
0.004665314
0.004628285
0.00457401
0.004502733
0.004362008
0.003973388
0.003636129
0.003407386
0.003262286
0.003163456
0.003084766
0.003007675
0.00291588
0.002787054
0.002600454
0.002347824
0.002040363
0.001694487
0.001301134
0.0008695395
0.0004227017
4.859076e-05
3.460732e-05
0.0002212215
0.0005329042
0.0008454281
0.001054817
0.001206261
0.001330333
0.001444581
0.001557372
0.001671238
0.001784635
0.001893786
0.001996138
0.002096134
0.002211052
0.002372695
0.002610826
0.002920977
0.003200808
0.003281813
0.003361328
0.003442144
0.003526556
0.003616076
0.003711571
0.003813093
0.003919791
0.004029924
0.004140973
0.004249689
0.004353311
0.004448457
0.004532104
0.004601927
0.004655316
0.004691349
0.004709299
0.0047089
0.00469021
0.004653477
0.004599016
0.004527112
0.004315679
0.003940507
0.003630356
0.003421627
0.003284727
0.003185573
0.003101855
0.003019824
0.002924895
0.002795635
0.002610066
0.00235875
0.002051414
0.00170388
0.001306474
0.0008727791
0.0004239271
4.857704e-05
3.471359e-05
0.0002211791
0.0005299095
0.0008297509
0.00103782
0.001193035
0.001323754
0.001446058
0.001567482
0.001689441
0.001809018
0.001922292
0.002030033
0.002143789
0.002288446
0.002491281
0.002768399
0.0030767
0.003166836
0.003246077
0.003326314
0.003409352
0.003496862
0.003590314
0.003690431
0.003797062
0.003909122
0.004024636
0.004140902
0.004254293
0.004362306
0.004461247
0.004548242
0.004620316
0.004675762
0.004713328
0.004732326
0.004732522
0.004714006
0.004677059
0.004622038
0.004549278
0.004286007
0.003924036
0.003635472
0.003439075
0.003305101
0.003203952
0.00311676
0.00303151
0.002934389
0.002804189
0.002618556
0.002367252
0.002059289
0.001710232
0.001310658
0.000874931
0.0004244925
4.855741e-05
3.479848e-05
0.0002215987
0.0005280812
0.0008145405
0.001020964
0.001179931
0.0013173
0.001447913
0.001578061
0.001707598
0.001832713
0.001951127
0.002068983
0.002205877
0.002387121
0.002635331
0.002918914
0.003059007
0.003138511
0.003217582
0.003298575
0.003383576
0.003474294
0.003571903
0.003676835
0.003788646
0.003905965
0.004026551
0.004147366
0.004265285
0.004376785
0.004478554
0.004567911
0.004641588
0.004698128
0.004736334
0.004755573
0.004755661
0.004736731
0.004699112
0.004643209
0.004569412
0.004271111
0.003921263
0.003649209
0.003460804
0.003326937
0.003221931
0.003130118
0.003041242
0.00294228
0.002811969
0.002627293
0.002376958
0.002068709
0.001716576
0.001315168
0.000877443
0.0004252794
4.853442e-05
3.489967e-05
0.0002224407
0.0005268977
0.0007989019
0.001003287
0.001166524
0.00131111
0.001450372
0.001589068
0.001725534
0.001856084
0.00198251
0.002119387
0.002289133
0.002513447
0.002777309
0.002953323
0.003034055
0.003113132
0.00319297
0.003275863
0.003363833
0.003458463
0.00356071
0.00367074
0.003787818
0.003910294
0.004035686
0.004160521
0.004282017
0.004396299
0.004500079
0.004590933
0.004665349
0.004722127
0.004760168
0.00477892
0.004778267
0.004758406
0.004719719
0.004662665
0.004587687
0.004267635
0.003928137
0.003666975
0.003481965
0.003345773
0.003236367
0.003140521
0.003048973
0.002948925
0.002818839
0.002635024
0.002385281
0.002076567
0.001722391
0.001319052
0.0008793986
0.0004257553
4.851409e-05
3.498929e-05
0.0002235439
0.0005266385
0.000783862
0.0009860606
0.001153814
0.001305998
0.00145395
0.001600718
0.001743845
0.001882251
0.002024315
0.002188991
0.002397365
0.002645822
0.002848934
0.002931793
0.003011766
0.003091302
0.003172787
0.003258436
0.003350143
0.003449298
0.003556612
0.00367196
0.003794303
0.003921696
0.00405135
0.004180146
0.004304411
0.004420643
0.004525569
0.004617027
0.004691318
0.004747532
0.004784675
0.004802295
0.004800358
0.004779132
0.004739062
0.004680658
0.00460389
0.00427483
0.003944597
0.00368942
0.003504021
0.003363741
0.003249438
0.003149661
0.003055846
0.002955255
0.002826
0.002643594
0.002394822
0.002085665
0.00172848
0.001323159
0.0008814678
0.0004262865
4.847974e-05
3.509046e-05
0.0002252436
0.0005273172
0.0007691366
0.0009695785
0.001142508
0.001302635
0.001459097
0.001613528
0.001764318
0.001915252
0.002080855
0.002280142
0.002517302
0.002744088
0.00283029
0.00291224
0.002992438
0.003073358
0.003157354
0.003246543
0.003342653
0.003446855
0.003559581
0.003680405
0.003807982
0.003940101
0.004073503
0.004205418
0.004331875
0.004449364
0.004554741
0.004645697
0.004719135
0.004774094
0.004809715
0.004825657
0.004821985
0.004799048
0.004757354
0.004697468
0.004610156
0.004290201
0.003967378
0.003713878
0.003525456
0.003380045
0.00326074
0.003157426
0.003061955
0.002961396
0.00283324
0.002652001
0.002403637
0.002093632
0.001734176
0.001326834
0.0008831298
0.0004263084
4.845424e-05
3.519947e-05
0.000227205
0.0005236585
0.0007560255
0.0009542567
0.001132001
0.001300057
0.001464727
0.001627051
0.001788755
0.001959488
0.002155594
0.002387662
0.002627613
0.002727616
0.002812907
0.002894971
0.002976367
0.003059578
0.003146908
0.003240352
0.003341448
0.003451113
0.003569478
0.003695792
0.003828394
0.003964733
0.004101866
0.00423618
0.004364027
0.004481975
0.004587219
0.004676666
0.004748586
0.004801684
0.004835239
0.004849045
0.004843272
0.004818354
0.004774864
0.004713417
0.004623784
0.004312301
0.003994283
0.003739827
0.003546669
0.003395386
0.003270973
0.003164299
0.003067379
0.002966967
0.002840327
0.002660954
0.002413603
0.002102804
0.001740207
0.00133073
0.0008849536
0.000426655
4.841831e-05
3.53272e-05
0.0002292707
0.0005161986
0.0007437937
0.0009413559
0.001123531
0.001298865
0.001471656
0.001644056
0.001822255
0.002020037
0.002249485
0.002489325
0.002622416
0.00271239
0.002797572
0.002880595
0.002964034
0.00305034
0.003141736
0.003240061
0.003346631
0.003462081
0.003586227
0.003717991
0.00385542
0.00399549
0.004135554
0.004271656
0.004400215
0.004517884
0.004622203
0.004709869
0.004779589
0.004830236
0.004861241
0.004872524
0.00486436
0.00483726
0.004791859
0.004728809
0.004642099
0.004338496
0.004023442
0.00376619
0.003567224
0.003409705
0.003280253
0.003170531
0.003072941
0.002974115
0.002849906
0.002670851
0.002422932
0.002111252
0.001745981
0.001334321
0.0008865033
0.0004267225
4.838762e-05
3.543942e-05
0.0002316456
0.0005091789
0.0007332505
0.0009313881
0.001117775
0.001299879
0.001481416
0.001667547
0.001869488
0.002098737
0.002341681
0.002512005
0.002608532
0.002698458
0.002784518
0.002869418
0.00295575
0.003045926
0.003142063
0.003245813
0.003358245
0.003479685
0.003609611
0.003746613
0.003888347
0.004032106
0.004174375
0.004311601
0.004440168
0.004556866
0.004659549
0.004744856
0.004811853
0.004859598
0.004887683
0.004896158
0.0048854
0.004855994
0.004808623
0.004743967
0.004662624
0.004367863
0.004054471
0.003793314
0.003588079
0.003424409
0.003290438
0.003178837
0.003080524
0.002979479
0.002854021
0.002679826
0.00243547
0.002123857
0.001752096
0.001338107
0.0008882817
0.0004268436
4.834285e-05
3.561593e-05
0.0002340393
0.0005049311
0.0007232293
0.0009214534
0.001112104
0.001301256
0.001494121
0.001699708
0.001929237
0.002178248
0.002394849
0.002499934
0.002596114
0.00268668
0.002774385
0.002861947
0.002951931
0.00304667
0.00314814
0.00325778
0.003376379
0.003503941
0.003639608
0.003781658
0.003927293
0.004074021
0.004218
0.004355694
0.004483647
0.004598943
0.004698798
0.004781318
0.004845194
0.004889694
0.004914585
0.004920053
0.004906574
0.004874801
0.004825455
0.004759231
0.004676717
0.004396321
0.004085004
0.003819084
0.003606974
0.00343689
0.003298666
0.003183675
0.00308247
0.002984145
0.00286564
0.002691618
0.002445678
0.002132494
0.001757728
0.001341388
0.0008892254
0.0004267414
4.831381e-05
3.576379e-05
0.0002366246
0.0005007731
0.0007147481
0.0009135229
0.00110882
0.00130638
0.00151398
0.001742922
0.001997407
0.002249492
0.002384453
0.002488732
0.002585428
0.002677456
0.002767611
0.002858606
0.002952955
0.003052891
0.003160217
0.003276123
0.003401089
0.003534778
0.003675986
0.003822557
0.003972014
0.00412097
0.004265997
0.00440347
0.004530095
0.004643314
0.004740218
0.004819374
0.004879676
0.004920591
0.004942054
0.004944365
0.004928092
0.004893941
0.004842658
0.004774933
0.004691331
0.004423644
0.004113954
0.003843317
0.003624609
0.003448787
0.00330519
0.003185744
0.003086159
0.002993618
0.002877549
0.002705709
0.002458894
0.002140958
0.00176397
0.001345237
0.000890867
0.0004267551
4.826799e-05
3.595615e-05
0.000239563
0.000496691
0.0007079724
0.0009079501
0.001108076
0.001315808
0.001541976
0.001794942
0.002059927
0.002259938
0.002374569
0.002479138
0.002577063
0.002671295
0.002764642
0.002859792
0.002959186
0.003064908
0.003178556
0.003301039
0.003432512
0.003572297
0.003718862
0.003869624
0.004022223
0.004172878
0.004318221
0.004454782
0.004579429
0.004689928
0.004783401
0.00485878
0.004915186
0.004952279
0.004970155
0.004969233
0.004950155
0.004913668
0.004860523
0.004791389
0.004706787
0.004450273
0.004142083
0.003867382
0.003642449
0.003458867
0.003309089
0.003190788
0.003095951
0.003004923
0.002888941
0.00271831
0.00247188
0.002149403
0.001770058
0.001348787
0.0008921397
0.0004266604
4.823571e-05
3.614207e-05
0.0002423645
0.0004939741
0.0007026524
0.0009038348
0.001109753
0.001329842
0.001575173
0.001846992
0.002111138
0.002251206
0.00236584
0.002471531
0.002571485
0.002668699
0.002765988
0.002866003
0.002971077
0.003083114
0.003203463
0.00333273
0.003470723
0.003616409
0.003767797
0.003922583
0.004077438
0.004229262
0.004374345
0.004509407
0.004631612
0.004738424
0.004828099
0.004899383
0.00495165
0.004984762
0.00499897
0.004994803
0.004972965
0.004934225
0.004879322
0.004808886
0.004723378
0.004474471
0.004167236
0.003888066
0.00365496
0.003465198
0.003315832
0.003200215
0.003106029
0.003014451
0.002900452
0.002732009
0.002485834
0.002158191
0.001776487
0.001352797
0.0008937197
0.0004265963
4.818619e-05
3.635903e-05
0.000245526
0.0004919156
0.0006983454
0.0009013249
0.001114472
0.001349089
0.0016137
0.001893253
0.002116506
0.002243595
0.002359053
0.00246652
0.002569223
0.002670166
0.002772136
0.002877702
0.002989045
0.003107863
0.003235232
0.003371423
0.003515885
0.003667226
0.003823241
0.003981196
0.004138061
0.004290197
0.004434229
0.004567046
0.004686153
0.004789074
0.004874397
0.00494121
0.004989097
0.005018099
0.005028602
0.005021224
0.00499671
0.004955831
0.004899293
0.004827669
0.004741342
0.004497875
0.004189788
0.003903413
0.00366407
0.003474825
0.003327051
0.003210775
0.003114498
0.003023843
0.002911984
0.002745637
0.002499544
0.002167078
0.001782865
0.001356563
0.0008949934
0.0004264638
4.815414e-05
3.657221e-05
0.0002486589
0.0004910405
0.0006958126
0.0009012207
0.001122434
0.001371288
0.001651032
0.00193102
0.002109592
0.002237357
0.002354495
0.002464553
0.002570807
0.00267626
0.002783646
0.002895418
0.003013593
0.003139625
0.003274281
0.003417476
0.003568291
0.003724879
0.00388497
0.004045734
0.004203654
0.004355347
0.004497576
0.004627446
0.004742763
0.004841281
0.004921944
0.004984061
0.00502744
0.005052294
0.005059128
0.005048629
0.005021567
0.004978691
0.004920656
0.004847961
0.004760901
0.004517844
0.004205456
0.003916831
0.003678997
0.003488511
0.003338444
0.003219134
0.003122878
0.003033792
0.002924463
0.002760097
0.002513854
0.002176272
0.001789477
0.001360517
0.0008965213
0.0004263321
4.809889e-05
3.68106e-05
0.0002521346
0.0004907275
0.0006945017
0.0009034293
0.001133903
0.001396201
0.001684932
0.001958454
0.002104049
0.002233219
0.002352732
0.002466145
0.002576733
0.002687463
0.002800987
0.002919618
0.003045157
0.003178778
0.003320896
0.003471046
0.003627909
0.003789399
0.003953129
0.004115746
0.004273928
0.004424385
0.004564074
0.004690402
0.004801196
0.004894902
0.0049706
0.005027843
0.005066648
0.005087378
0.005090635
0.005077153
0.005047697
0.005002979
0.004943587
0.004869931
0.004782207
0.004532582
0.004220125
0.003934484
0.00369612
0.003502573
0.003348702
0.003228032
0.003131701
0.003044211
0.002937566
0.002775326
0.002528948
0.002185661
0.001796169
0.001364483
0.0008979399
0.0004261608
4.806265e-05
3.705076e-05
0.0002555515
0.000491459
0.0006946358
0.0009071138
0.001146536
0.00142034
0.001711828
0.001956523
0.002100433