/*--------------------------------*- C++ -*----------------------------------*\
| =========                 |                                                 |
| \\      /  F ield         | OpenFOAM: The Open Source CFD Toolbox           |
|  \\    /   O peration     | Version:  2312                                  |
|   \\  /    A nd           | Website:  www.openfoam.com                      |
|    \\/     M anipulation  |                                                 |
\*---------------------------------------------------------------------------*/
FoamFile
{
    version     2.0;
    format      ascii;
    arch        "LSB;label=32;scalar=64";
    class       volScalarField;
    location    "1500";
    object      G;
}
// * * * * * * * * * * * * * * * * * * * * * * * * * * * * * * * * * * * * * //

dimensions      [1 0 -3 0 0 0 0];

internalField   nonuniform List<scalar> 
12000
(
11291.84
10759.59
10525.4
10380.66
10282.4
10208.71
10147.75
10092.93
10042.67
9997.726
9958.59
9924.488
9893.715
9864.481
9835.527
9806.286
9776.654
9746.768
9716.942
9687.614
9659.149
9631.659
9605.022
9579.018
9553.442
9528.176
9503.215
9478.629
9454.495
9430.863
9407.78
9385.276
9363.37
9342.083
9321.447
9301.464
9282.029
9262.81
9243.063
9222.291
9200.908
9179.525
9158.148
9135.813
9111.932
9087.493
9063.986
9040.284
9012.969
8980.777
8945.209
8906.049
8861.507
8811.88
8757.967
8695.813
8618.827
8516.327
8379.869
8140.299
11518.59
11204.94
10975.67
10806.59
10672.71
10556.04
10454.9
10369.22
10297.61
10237.51
10185.83
10139.56
10096.38
10054.86
10014.3
9974.371
9934.915
9895.951
9857.628
9820.11
9783.434
9747.481
9712.064
9677.044
9642.401
9608.228
9574.658
9541.787
9509.642
9478.189
9447.356
9417.054
9387.197
9357.719
9328.58
9299.759
9271.205
9242.796
9214.335
9185.662
9156.647
9127.144
9097.079
9066.522
9035.728
9004.91
8973.866
8941.951
8908.484
8872.672
8833.12
8788.041
8736.372
8678.116
8613.754
8543.359
8465.936
8374.131
8263.718
8112.216
11469.5
11277.56
11092.24
10951.26
10839.73
10729.18
10619.23
10519.99
10437.2
10369.47
10311.88
10259.66
10209.77
10160.92
10112.98
10066.26
10021.25
9978.38
9937.914
9899.82
9863.742
9829.135
9795.454
9762.295
9729.432
9696.784
9664.324
9632.026
9599.845
9567.728
9535.63
9503.507
9471.325
9439.058
9406.699
9374.255
9341.71
9309.001
9276.03
9242.653
9208.584
9173.461
9137.125
9099.81
9062.005
9023.999
8985.633
8946.719
8907.302
8866.818
8823.354
8774.511
8718.907
8656.93
8591.232
8525.564
8460.136
8384.593
8297.155
8192.738
11337.67
11219.95
11063.57
10930.45
10841.59
10762.97
10674.79
10581.02
10493.18
10417.48
10353.34
10296.99
10244.53
10193.25
10141.82
10090.14
10038.99
9989.607
9943.178
9900.46
9861.661
9826.576
9794.796
9765.864
9739.327
9714.741
9691.649
9669.581
9648.087
9626.76
9605.24
9583.213
9560.399
9536.559
9511.492
9485.023
9456.986
9427.25
9395.766
9362.51
9327.312
9289.917
9250.375
9209.332
9167.757
9126.231
9084.629
9042.692
9000.354
8956.866
8910.252
8858.622
8802.027
8743.001
8685.487
8630.949
8573.856
8503.004
8429.183
8351.519
11163.85
11110.72
10992.07
10854.36
10762.21
10707.95
10658.77
10596.22
10522.32
10446.65
10376.61
10314.99
10261.17
10212.79
10167.07
10121.86
10076.06
10029.67
9983.372
9938.088
9894.685
9853.887
9816.242
9782.09
9751.522
9724.377
9700.271
9678.672
9658.978
9640.574
9622.862
9605.271
9587.277
9568.41
9548.259
9526.463
9502.746
9477.011
9449.403
9420.149
9389.298
9356.746
9322.633
9287.593
9252.366
9217.026
9180.847
9143.067
9103.393
9061.507
9016.95
8970.237
8923.649
8879.941
8839.18
8795.548
8740.313
8672.24
8617.341
8567.544
11017.31
11010.79
10939.38
10808.23
10695.87
10637.11
10613.67
10591.03
10550.44
10491.97
10424.48
10357.06
10295.63
10242.66
10197.97
10159.72
10125.42
10092.62
10059.35
10024.36
9987.194
9948.095
9907.798
9867.23
9827.259
9788.543
9751.488
9716.28
9682.946
9651.399
9621.475
9592.962
9565.631
9539.247
9513.566
9488.357
9463.474
9438.97
9415.07
9391.91
9369.255
9346.561
9323.308
9299.174
9273.747
9246.217
9215.708
9182.034
9145.931
9108.707
9072.239
9039.122
9011.496
8988.119
8961.948
8922.517
8866.855
8808.474
8777.563
8754.234
10942.69
10955.52
10925.08
10818.21
10691.16
10605.64
10576.29
10575.14
10569.02
10541.61
10493.04
10431
10364.27
10300.09
10243.51
10197.07
10160.81
10132.68
10109.37
10087.31
10063.5
10035.95
10003.76
9966.908
9925.911
9881.621
9835.012
9787.078
9738.76
9690.914
9644.286
9599.518
9557.146
9517.592
9481.138
9447.95
9418.141
9391.804
9368.88
9348.883
9330.781
9313.193
9294.724
9274.113
9250.263
9222.524
9191.277
9158.146
9125.462
9095.701
9071.402
9054.464
9043.763
9032.472
9009.222
8966.394
8912.11
8868.588
8857.257
8849.433
10930.83
10940.43
10933.85
10860.36
10737.87
10625.35
10565.56
10554.81
10562.91
10562.66
10542.01
10500.78
10444.09
10378.66
10311.54
10249.02
10195.56
10152.99
10120.57
10095.69
10074.92
10054.85
10032.63
10006.31
9974.793
9937.849
9895.887
9849.789
9800.704
9749.893
9698.615
9648.06
9599.292
9553.197
9510.44
9471.454
9436.461
9405.409
9377.814
9352.635
9328.432
9303.731
9277.312
9248.296
9216.327
9182.045
9147.416
9115.201
9087.893
9067.196
9054.012
9047.413
9042.34
9028.961
8997.688
8949.218
8900.29
8871.175
8869.275
8863.521
10945.55
10941.9
10942.62
10900.54
10801.02
10678.17
10583.69
10540.72
10536.56
10544.48
10544.18
10527.02
10492.04
10441.68
10380.06
10312.47
10244.62
10181.56
10126.73
10081.6
10045.8
10017.54
9994.227
9973.067
9951.566
9927.873
9900.907
9870.308
9836.284
9799.417
9760.495
9720.365
9679.821
9639.506
9599.862
9561.123
9523.308
9486.164
9449.1
9411.298
9372.078
9331.245
9289.132
9246.416
9204.128
9163.914
9127.982
9098.356
9076.067
9061.031
9051.936
9045.038
9032.982
9007.032
8964.188
8913.81
8874.263
8855.99
8854.77
8843.36
10952.83
10937.85
10936.34
10917.14
10849.28
10735.96
10618.74
10537.94
10503.61
10499.38
10502.89
10499.6
10483.84
10454.48
10411.78
10356.9
10292.47
10222.62
10152.33
10086.44
10028.64
9980.981
9943.712
9915.638
9894.652
9878.317
9864.335
9850.828
9836.438
9820.293
9801.899
9780.993
9757.392
9730.88
9701.183
9667.994
9631.017
9589.981
9544.711
9495.393
9442.904
9388.888
9335.382
9284.308
9237.256
9195.559
9160.225
9131.626
9109.366
9092.266
9077.632
9060.039
9032.11
8989.481
8937.248
8889.913
8860.871
8848.62
8843.112
8824.559
10947.9
10923.12
10914.22
10906.16
10867
10775.95
10653.52
10542.83
10473.07
10443.91
10437.15
10434.99
10428.22
10414.01
10391.19
10358.09
10313.3
10257.06
10191.94
10122.36
10053.55
9990.332
9936.294
9893.354
9861.781
9840.499
9827.537
9820.492
9816.913
9814.546
9811.45
9805.992
9796.788
9782.663
9762.673
9736.181
9702.906
9662.959
9616.941
9566.144
9512.634
9458.962
9407.517
9359.956
9317.061
9278.916
9245.127
9215.055
9187.978
9162.565
9135.458
9100.79
9053.385
8994.985
8937.233
8894.831
8872.833
8860.623
8848.054
8821.993
10920.56
10888.96
10872.71
10866.28
10846.71
10782.18
10671.07
10546.31
10446.81
10389.2
10365.17
10357.03
10351.95
10345.08
10335.36
10321.36
10300.23
10269.06
10226.54
10173.63
10113.42
10050.26
9988.881
9933.479
9887.127
9851.407
9826.39
9810.848
9802.632
9799.092
9797.448
9795.066
9789.658
9779.445
9763.283
9740.732
9712.008
9677.89
9639.669
9599.117
9558.296
9519.077
9482.591
9448.992
9417.653
9387.563
9357.728
9327.474
9296.249
9262.466
9222.239
9170.616
9106.56
9037.876
8979.13
8940.851
8920.054
8902.289
8881.472
8846.384
10864.7
10830.42
10810.64
10801.4
10792.24
10752.62
10664.95
10544.55
10428.41
10346.1
10303.15
10286.84
10281.63
10278.67
10275.77
10272.82
10268.5
10259.8
10243.33
10216.64
10179.07
10131.86
10077.92
10021.18
9965.796
9915.416
9872.549
9838.265
9812.206
9792.847
9777.914
9764.871
9751.381
9735.706
9716.949
9695.088
9670.796
9645.187
9619.587
9595.32
9573.385
9554.059
9536.723
9520.089
9502.692
9483.304
9461.119
9435.598
9405.705
9368.761
9320.574
9258.655
9187.14
9117.97
9064.252
9029.859
9006.581
8981.148
8953.56
8908.787
10783.02
10751.6
10733.93
10722.66
10718.3
10699.3
10641.19
10541.01
10424.32
10325.71
10264.71
10238.62
10232.58
10233.15
10234.31
10235.69
10238.14
10240.99
10241.68
10236.75
10223.04
10198.55
10162.92
10117.47
10064.92
10008.73
9952.434
9898.977
9850.32
9807.278
9769.663
9736.613
9707.049
9680.094
9655.342
9632.871
9613.075
9596.442
9583.377
9574.006
9567.93
9564.06
9560.79
9556.484
9549.948
9540.549
9527.856
9510.878
9487.115
9452.44
9403.283
9340.928
9274.175
9215.851
9174.047
9145.851
9121.4
9091.601
9062.282
9011.792
10690.57
10667.64
10657.04
10647.3
10645.79
10642.01
10612.84
10541.94
10438.86
10334.29
10257.46
10218.35
10207.88
10210.33
10214.59
10217.27
10219.71
10223.72
10229.25
10234.27
10235.53
10229.6
10213.65
10185.99
10146.39
10096.03
10037.31
9973.38
9907.636
9843.238
9782.793
9728.217
9680.769
9641.164
9609.665
9586.099
9569.88
9560.09
9555.604
9555.127
9557.15
9559.99
9562.111
9562.56
9561.135
9557.993
9552.728
9543.255
9525.387
9494.382
9448.797
9394.138
9341.872
9302.36
9277.155
9258.448
9237.61
9210.343
9186.099
9138.405
10612.34
10600.04
10598.05
10592.74
10593.47
10598.75
10591.92
10550.79
10469.89
10369.22
10280.39
10224.8
10203.4
10202.87
10208.4
10211.93
10212.62
10212.97
10215.15
10219.38
10224.02
10226.19
10222.55
10209.84
10185.46
10147.98
10097.53
10035.81
9965.979
9892.119
9818.688
9749.923
9689.341
9639.369
9601.129
9574.406
9557.866
9549.473
9546.931
9547.974
9550.508
9552.815
9553.878
9553.611
9552.628
9551.37
9548.837
9541.68
9524.879
9494.839
9453.563
9410.012
9375.567
9355.911
9346.842
9338.638
9325.515
9306.929
9292.767
9256.779
10566.69
10563.21
10567.75
10567.32
10569.35
10577.45
10583.03
10565.25
10508.68
10419.81
10325.02
10252.2
10213.65
10203.33
10206.45
10210.64
10210.88
10207.91
10204.45
10202.39
10201.93
10201.77
10199.64
10192.7
10177.98
10152.91
10115.91
10066.87
10007.32
9940.309
9869.929
9800.714
9736.917
9681.865
9637.498
9604.218
9581.106
9566.372
9557.833
9553.243
9550.543
9548.187
9545.482
9542.636
9540.199
9537.929
9533.636
9523.053
9501.817
9469.223
9431.054
9397.865
9378.382
9373.098
9374.484
9373.879
9368.753
9360.598
9356.882
9336.441
10559.76
10559.58
10566.02
10568.38
10570.09
10575.87
10584.1
10580.1
10545.01
10473.12
10380.16
10293.79
10235.36
10209.06
10204.61
10207.71
10208.64
10204.45
10196.49
10187.13
10177.88
10169.06
10160.1
10149.81
10136.6
10118.68
10094.36
10062.44
10022.62
9975.599
9923.127
9867.732
9812.321
9759.674
9712.006
9670.715
9636.375
9608.88
9587.569
9571.348
9558.915
9549.154
9541.478
9535.721
9531.403
9526.685
9517.87
9500.491
9472.24
9436.112
9400.664
9375.608
9365.365
9366.244
9370.291
9371.97
9371.53
9370.843
9373.527
9365.49
10580.99
10578.47
10582.32
10584.53
10584.48
10585.25
10589.59
10590.58
10571.58
10518.87
10435.71
10343.23
10266.9
10221.01
10203.34
10201.28
10201.73
10197.25
10186.38
10170.85
10152.93
10134.24
10115.77
10098.08
10081.45
10065.75
10050.32
10033.96
10015.2
9992.554
9964.888
9931.721
9893.338
9850.749
9805.527
9759.606
9715.056
9673.794
9637.255
9606.19
9580.744
9560.774
9546.014
9535.747
9528.024
9519.1
9504.067
9479.183
9444.981
9407.645
9376.425
9357.95
9351.926
9352.328
9353.077
9352.442
9352.444
9354.118
9357.542
9354.416
10612.51
10604.46
10603.22
10602.97
10600.61
10596.43
10594.67
10595.04
10586.35
10552.01
10484.51
10394.65
10306.11
10240.25
10204.4
10191.34
10187.47
10181.56
10168.64
10148.92
10124.89
10099.19
10073.91
10050.75
10031.13
10016.1
10006
10000.19
9996.959
9993.811
9987.854
9976.371
9957.307
9929.639
9893.57
9850.529
9802.926
9753.683
9705.663
9661.271
9622.363
9590.262
9565.504
9547.158
9532.137
9515.44
9492.031
9459.939
9422.561
9387.702
9362.932
9350.437
9345.964
9343.076
9338.623
9334.019
9331.848
9331.745
9331.809
9326.631
10638.09
10624.85
10618.58
10614.91
10610.51
10603.3
10596.78
10594.46
10591.16
10571.8
10522.13
10442.06
10348.58
10265.38
10208.3
10178.24
10164.76
10155.01
10140.65
10119.55
10093.62
10066.02
10039.52
10016.13
9997.329
9984.236
9977.403
9976.565
9980.462
9986.88
9992.923
9995.426
9991.435
9978.676
9955.951
9923.364
9882.274
9834.985
9784.324
9733.333
9685.051
9642.128
9606.021
9575.983
9548.671
9519.298
9484.393
9444.749
9406.071
9375.878
9358.293
9350.976
9347.245
9341.649
9333.7
9326.398
9321.819
9318.327
9313.946
9303.607
10650.83
10634.78
10625.12
10618.11
10612.11
10604.07
10595.59
10590.89
10589.26
10579.75
10546.11
10479.61
10388.09
10292.58
10214.36
10163.29
10135.45
10119.38
10104.47
10085.55
10062.76
10038.83
10016.58
9997.842
9983.523
9973.975
9969.25
9969.096
9972.846
9979.335
9986.896
9993.444
9996.651
9994.228
9984.268
9965.565
9937.796
9901.549
9858.316
9810.47
9761.032
9712.956
9667.937
9625.396
9582.649
9536.807
9487.643
9439.33
9399.017
9372.461
9359.823
9355.406
9351.903
9345.469
9337.101
9329.589
9323.816
9317.533
9310.107
9295.637
10651.74
10635.67
10624.61
10614.87
10607.38
10599.71
10591.49
10585.38
10582.76
10577.44
10555.17
10502.54
10418.42
10317.46
10222.12
10149.82
10105.07
10080.9
10066.25
10052.82
10037.62
10021.61
10006.92
9995.061
9986.362
9980.433
9976.703
9974.755
9974.381
9975.472
9977.82
9980.918
9983.826
9985.165
9983.264
9976.373
9962.925
9941.836
9912.865
9876.848
9835.501
9790.58
9742.756
9691.123
9634.158
9572.007
9508.544
9451.145
9407.41
9380.707
9368.068
9362.448
9357.564
9351.162
9344.301
9338.199
9332.372
9324.759
9316.546
9301.061
10646.6
10632.14
10621
10609.08
10599.7
10592.01
10584.49
10577.27
10571.77
10565.74
10549.32
10508.57
10435.69
10337.22
10232.53
10143.22
10082
10048.59
10033.83
10027.11
10021.62
10015.25
10008.69
10003.02
9998.527
9994.679
9990.703
9986.121
9980.976
9975.766
9971.211
9967.946
9966.259
9965.916
9966.09
9965.401
9962.078
9954.311
9940.692
9920.483
9893.372
9858.759
9815.207
9760.931
9695.608
9622.527
9549.161
9484.88
9436.633
9405.553
9387.234
9375.46
9366.161
9358.368
9352.242
9346.954
9340.97
9332.968
9325.545
9311.899
10641.76
10628.71
10617.57
10603.59
10591.47
10582.12
10573.86
10564.77
10555.18
10545.36
10530.4
10498.97
10439.85
10351.78
10247.74
10149.18
10074.61
10031.11
10013.78
10011.64
10014.51
10016.65
10016.57
10014.82
10012.05
10008.29
10003.14
9996.283
9987.835
9978.396
9968.883
9960.295
9953.495
9949.021
9946.935
9946.714
9947.277
9947.178
9944.84
9938.554
9926.099
9904.338
9869.568
9819.122
9753.728
9678.963
9604.139
9538.567
9487.388
9450.019
9422.342
9400.577
9383.384
9370.796
9361.953
9354.514
9346.565
9337.667
9330.943
9320.04
10640.14
10626.85
10614.72
10598.35
10582.62
10569.57
10558.27
10546.03
10532.09
10517.81
10502.32
10478.33
10434.32
10363.06
10269.57
10170.96
10087.82
10033.6
10009.38
10006.48
10013.15
10020.41
10024.18
10024.04
10021.06
10016.13
10009.6
10001.49
9991.885
9981.158
9969.924
9958.946
9949.028
9940.916
9935.18
9932.083
9931.528
9933.023
9935.549
9937.141
9934.384
9922.452
9896.365
9853.385
9795.268
9728.574
9662.142
9603
9553.498
9511.816
9475.168
9442.701
9415.551
9394.55
9378.443
9364.605
9351.553
9339.581
9331.563
9321.665
10641.17
10624.96
10610.29
10590.93
10571.05
10552.97
10536.86
10520.73
10503.37
10486.19
10470.61
10453.25
10424.39
10373.44
10297.77
10207.4
10121.03
10056.09
10020.26
10009.73
10013.85
10021.79
10026.84
10027.01
10023.2
10017.02
10009.59
10001.34
9992.351
9982.654
9972.397
9961.867
9951.483
9941.784
9933.394
9926.975
9923.154
9922.298
9924.025
9926.478
9925.882
9917.117
9895.628
9859.915
9812.939
9761.042
9710.66
9664.999
9623.183
9582.472
9541.506
9501.665
9465.586
9434.654
9408.082
9384.263
9362.834
9344.578
9331.931
9318.77
10640.37
10618.7
10600.33
10577.66
10554
10531.07
10510.15
10490.74
10472.01
10454.82
10441.11
10430.12
10414.89
10384.09
10329.37
10252.92
10168.39
10094.12
10043.52
10019.33
10014.7
10018.94
10023.27
10023.5
10019.46
10012.82
10005.26
9997.658
9990.173
9982.597
9974.669
9966.233
9957.289
9948.034
9938.893
9930.552
9923.873
9919.53
9917.309
9915.38
9910.214
9897.724
9875.397
9844.124
9808.185
9772.911
9741.418
9712.826
9683.439
9649.891
9611.641
9570.87
9530.354
9491.6
9454.815
9420.143
9388.632
9361.324
9340.767
9318.693
10631.91
10603.41
10581.37
10555.99
10530.03
10504.23
10480.48
10459.85
10442.32
10428.03
10418.17
10413.07
10408.47
10394.36
10359.56
10299.5
10221.21
10140.88
10075.44
10034.3
10016.37
10013.3
10015.33
10015.86
10012.71
10006.74
9999.755
9993.056
9987.053
9981.504
9975.916
9969.833
9962.962
9955.236
9946.873
9938.396
9930.474
9923.448
9916.641
9907.974
9894.502
9874.035
9846.994
9817.032
9789.48
9768.255
9753.328
9740.732
9725.142
9703.01
9673.867
9639.251
9600.853
9559.752
9517.036
9474.438
9434.152
9397.225
9367.307
9331.387
10610.75
10576.27
10552.25
10525.95
10500.23
10474.79
10451.52
10432.44
10418.27
10408.62
10403.45
10403
10405.09
10402.34
10383.47
10339.57
10271.08
10189.62
10112.66
10054.8
10021.41
10008.34
10006.48
10007.26
10005.93
10001.66
9995.755
9989.803
9984.626
9980.203
9976.033
9971.534
9966.283
9960.12
9953.17
9945.755
9938.083
9929.705
9919.067
9903.715
9881.533
9852.546
9820.062
9789.901
9767.674
9755.696
9751.7
9750.318
9746.149
9736.039
9719.165
9695.627
9665.421
9628.776
9587.049
9542.653
9498.208
9454.405
9416.864
9365.439
10575.93
10538.5
10515.49
10490.96
10468.36
10446.6
10427.09
10411.89
10402.09
10397.1
10395.89
10398.15
10403.04
10406.1
10398.05
10368.36
10312.18
10235.26
10152.65
10081.45
10032.78
10007.91
10000.19
10000.29
10000.96
9999.028
9994.594
9989.147
9983.954
9979.444
9975.36
9971.196
9966.561
9961.347
9955.683
9949.667
9942.889
9933.934
9920.356
9899.571
9870.57
9835.499
9799.766
9770.067
9751.23
9743.899
9744.66
9748.392
9750.909
9749.969
9744.428
9733.013
9714.241
9687.432
9653.519
9614.481
9572.506
9527.511
9487.292
9423.649
10531.44
10495.54
10476.75
10456.72
10439.51
10423.67
10409.91
10399.58
10393.71
10391.88
10392.77
10395.63
10400.31
10404.88
10403
10384.83
10342.17
10274.96
10193.5
10114.37
10052.56
10014.96
9999.04
9996.432
9998.231
9998.703
9996.058
9991.091
9985.298
9979.671
9974.442
9969.412
9964.38
9959.364
9954.476
9949.49
9943.281
9933.552
9917.35
9892.513
9859.467
9822.105
9786.785
9759.625
9743.718
9738.107
9739.142
9742.989
9747.281
9750.904
9752.702
9750.736
9742.858
9727.836
9705.818
9677.591
9644.332
9604.904
9568.598
9500.694
10485.22
10455.26
10442.92
10429.15
10418.23
10408.72
10400.74
10394.68
10391.25
10390.4
10391.24
10393.01
10395.84
10399.45
10400.43
10390.97
10361.68
10307.71
10233.56
10152.64
10081.25
10031.01
10004.55
9996.328
9997.246
9999.43
9998.737
9994.558
9988.139
9980.944
9973.856
9967.209
9961.133
9955.763
9951.053
9946.275
9939.568
9928.056
9908.911
9881.062
9846.579
9810.546
9779.105
9756.666
9744.102
9739.145
9738.491
9739.878
9742.608
9746.513
9750.735
9753.519
9753.005
9747.98
9737.914
9722.333
9701.329
9672.771
9646.097
9584.007
10446.44
10425.12
10419.56
10412.19
10406.82
10402.31
10398.46
10394.96
10392.1
10390.31
10389.48
10389.26
10389.83
10391.72
10393.67
10390.35
10372.95
10333.58
10271.17
10194.18
10117.62
10056.08
10017.36
10000.3
9997.399
9999.696
10000.71
9997.827
9991.369
9982.924
9974.024
9965.675
9958.424
9952.445
9947.329
9941.686
9933.018
9918.353
9895.693
9865.579
9831.663
9799.516
9774.131
9757.651
9748.852
9744.656
9742.4
9741.11
9741.106
9742.728
9745.533
9748.519
9750.746
9751.508
9750.028
9745.087
9736.099
9720.362
9705.967
9658.228
10422.27
10409.57
10409.11
10406.63
10404.87
10403.01
10400.88
10397.87
10394.08
10390.24
10387.04
10384.71
10383.45
10383.88
10385.94
10386.59
10378.64
10353.13
10304.65
10236.14
10159.14
10088.93
10037.5
10008.81
9998.676
9998.614
10000.43
9999.205
9993.68
9985
9975.092
9965.61
9957.505
9950.87
9944.755
9937.065
9924.948
9905.918
9879.399
9847.748
9815.793
9788.817
9770.077
9759.485
9754.311
9751.288
9748.475
9745.654
9743.426
9742.16
9741.763
9742.098
9743.259
9745.232
9747.461
9748.721
9748.338
9743.644
9740.307
9710.85
10414.63
10408.22
10410.03
10410.01
10409.56
10408.04
10405.47
10401.4
10395.91
10389.87
10384.47
10380.41
10377.97
10377.52
10379.42
10382.25
10380.93
10367
10332.52
10275.43
10202.51
10127.4
10064.47
10022.53
10001.98
9996.499
9997.389
9997.664
9994.018
9986.482
9976.886
9967.275
9958.868
9951.555
9943.785
9932.918
9916.19
9892.171
9862.05
9829.797
9800.74
9779.163
9766.379
9760.541
9758.226
9756.522
9754.155
9751.161
9747.895
9744.468
9740.974
9737.904
9736.068
9736.019
9737.691
9740.416
9743.864
9745.899
9749.457
9736.658
10420.87
10417.09
10418.21
10418.19
10417.19
10414.53
10410.32
10404.52
10397.35
10389.65
10382.68
10377.46
10374.32
10373.41
10374.99
10378.62
10381.18
10375.79
10353.77
10309.36
10244.31
10168.75
10097.22
10042.17
10008.96
9994.932
9992.43
9993.232
9991.911
9986.793
9978.94
9970.304
9962.102
9953.936
9943.783
9928.831
9906.941
9878.164
9845.434
9813.784
9788.249
9771.61
9763.383
9760.664
9760.086
9759.429
9757.937
9755.575
9752.261
9747.805
9742.357
9736.665
9731.779
9728.525
9727.327
9728.236
9731.353
9735.252
9740.601
9738.677
10434.66
10430.14
10428.63
10426.88
10424.38
10420.17
10414.29
10407
10398.72
10390.15
10382.39
10376.43
10372.77
10371.43
10372.48
10375.89
10380.06
10380.09
10368.02
10336.06
10281.55
10210.08
10134.2
10068.09
10021.51
9996.353
9987.58
9987.036
9987.622
9985.626
9980.632
9973.833
9966.065
9956.625
9943.343
9923.782
9896.944
9864.519
9830.808
9801.13
9779.506
9767.007
9761.778
9760.579
9760.615
9760.44
9759.625
9757.939
9754.95
9750.307
9744.165
9737.228
9730.405
9724.516
9720.276
9718.235
9718.698
9720.808
9723.929
9725.795
10449.25
10442.01
10437.33
10433.21
10429.12
10423.83
10417.05
10409.1
10400.5
10391.83
10383.84
10377.41
10373.13
10371.09
10371.26
10373.7
10377.81
10380.58
10375.62
10354.76
10312.16
10248.73
10173.41
10099.96
10041.09
10003.33
9985.489
9981.014
9982.088
9983.024
9981.35
9976.767
9969.287
9957.945
9940.891
9916.678
9885.834
9851.546
9818.82
9792.432
9774.887
9765.659
9762.093
9761.188
9760.958
9760.611
9759.87
9758.336
9755.457
9750.92
9744.894
9737.9
9730.551
9723.491
9717.458
9713.087
9710.55
9709.263
9708.338
9708.368
10459.77
10449.58
10442.45
10436.26
10431.04
10425.45
10418.8
10411.18
10403.03
10394.77
10386.9
10380.08
10374.94
10371.8
10370.67
10371.64
10374.61
10378.09
10377.61
10365.78
10335.12
10282.56
10212.56
10136.49
10068.1
10017.72
9988.673
9977.404
9976.679
9979.354
9980.616
9978.045
9970.387
9956.482
9935.29
9906.9
9873.528
9839.455
9809.609
9787.525
9773.998
9767.256
9764.41
9763.066
9762.022
9760.923
9759.537
9757.418
9754.122
9749.526
9743.85
9737.441
9730.647
9723.893
9717.701
9712.404
9707.813
9703.378
9698.754
9694.311
10464.57
10452.51
10444.28
10436.84
10431.06
10425.78
10420.05
10413.52
10406.34
10398.78
10391.14
10383.91
10377.74
10373.15
10370.38
10369.53
10370.8
10373.66
10375.43
10370.28
10350.47
10310.12
10249.26
10175.48
10101.54
10040.13
9998.878
9978.242
9972.925
9975.239
9978.175
9976.838
9968.377
9951.47
9926.248
9894.647
9860.479
9828.56
9803.022
9785.742
9775.914
9771.002
9768.335
9766.242
9764.134
9761.878
9759.254
9755.914
9751.671
9746.651
9741.154
9735.44
9729.708
9724.177
9719.004
9714.022
9708.67
9702.365
9695.668
9687.009
10464.9
10452.5
10444.49
10436.67
10430.72
10425.92
10421.34
10416.2
10410.21
10403.42
10396.02
10388.38
10381.13
10374.96
10370.34
10367.55
10366.87
10368.36
10370.74
10369.91
10359
10330.67
10281.29
10214.08
10139.15
10069.7
10016.73
9985.001
9972.285
9971.493
9974.051
9972.673
9962.788
9942.892
9914.367
9880.954
9847.705
9819.384
9798.848
9786.25
9779.539
9775.902
9773.157
9770.288
9767.076
9763.468
9759.284
9754.377
9748.864
9743.1
9737.469
9732.233
9727.542
9723.419
9719.614
9715.49
9710.303
9703.531
9696.565
9685.655
10463.52
10452.04
10445.02
10437.43
10431.42
10426.84
10423.07
10419.09
10414.18
10408.1
10400.92
10392.94
10384.76
10377.12
10370.72
10366.01
10363.38
10363.17
10365
10366.41
10361.94
10344.16
10306.93
10249.39
10177.91
10104.4
10041.71
9998.426
9975.976
9969.043
9968.555
9965.452
9953.626
9931.302
9900.844
9867.347
9836.521
9812.58
9796.947
9788.323
9783.921
9781.057
9778.116
9774.557
9770.326
9765.373
9759.611
9753.136
9746.323
9739.685
9733.677
9728.602
9724.583
9721.444
9718.592
9715.123
9710.385
9704.055
9698.006
9687.032
10463.23
10453.16
10447.26
10440.11
10433.93
10429.07
10425.39
10421.95
10417.74
10412.21
10405.25
10397.11
10388.29
10379.52
10371.61
10365.2
10360.77
10358.77
10359.33
10361.26
10360.73
10351.15
10325.28
10279.02
10214.71
10141.57
10072.43
10018.51
9984.85
9968.842
9962.276
9955.442
9941.231
9917.489
9886.967
9855.287
9828.084
9808.674
9797.21
9791.455
9788.434
9785.858
9782.628
9778.47
9773.351
9767.221
9760.122
9752.364
9744.485
9737.075
9730.619
9725.436
9721.576
9718.668
9715.921
9712.446
9707.905
9702.248
9697.411
9687.743
10465.65
10456.74
10451.55
10444.72
10438.16
10432.52
10428.16
10424.48
10420.44
10415.24
10408.55
10400.47
10391.4
10381.97
10373
10365.22
10359.23
10355.5
10354.41
10355.62
10356.79
10352.76
10336.39
10301.61
10247.13
10178.55
10107
10044.61
9999.301
9971.764
9956.044
9943.264
9926.175
9902.193
9873.656
9845.652
9822.955
9807.794
9799.433
9795.329
9792.791
9790.064
9786.429
9781.71
9775.838
9768.792
9760.748
9752.159
9743.626
9735.731
9728.932
9723.482
9719.293
9715.833
9712.305
9708.086
9703.241
9697.951
9693.9
9685.742
10470.68
10462.29
10457.18
10450.36
10443.27
10436.55
10430.95
10426.35
10421.95
10416.86
10410.49
10402.72
10393.79
10384.18
10374.62
10365.88
10358.6
10353.31
10350.46
10350.19
10351.35
10350.39
10341.19
10316.98
10273.71
10213.17
10143.34
10075.46
10019.17
9978.473
9950.868
9929.897
9909.246
9885.98
9861.231
9838.469
9820.869
9809.503
9803.202
9799.697
9796.932
9793.707
9789.544
9784.262
9777.761
9770.079
9761.514
9752.579
9743.857
9735.854
9728.927
9723.167
9718.298
9713.71
9708.789
9703.313
9697.698
9692.221
9688.194
9680.827
10477.83
10468.94
10463.22
10456
10448.28
10440.45
10433.39
10427.47
10422.32
10417.09
10411.05
10403.77
10395.28
10385.88
10376.15
10366.82
10358.56
10351.92
10347.39
10345.34
10345.44
10345.62
10341.28
10326.01
10294.14
10243.93
10179.43
10109.41
10043.75
9989.341
9947.893
9916.719
9891.554
9869.375
9849.54
9833.031
9820.84
9812.859
9807.867
9804.281
9800.867
9796.94
9792.159
9786.308
9779.286
9771.222
9762.496
9753.629
9745.128
9737.376
9730.549
9724.51
9718.804
9712.855
9706.354
9699.481
9692.848
9686.672
9681.967
9674.302
10484.77
10474.86
10468.22
10460.37
10452.08
10443.38
10435.06
10427.8
10421.68
10416.14
10410.34
10403.64
10395.77
10386.85
10377.29
10367.7
10358.75
10351.04
10345.05
10341.25
10339.83
10339.91
10338.5
10330.29
10308.97
10270.04
10213.44
10144.42
10071.76
10004.37
9948.299
9905.48
9874.637
9853.108
9838.315
9828.293
9821.516
9816.667
9812.656
9808.752
9804.571
9799.887
9794.461
9788.063
9780.634
9772.39
9763.764
9755.25
9747.253
9739.996
9733.423
9727.161
9720.648
9713.451
9705.593
9697.536
9689.907
9682.752
9676.973
9668.08
10489.81
10478.76
10471.23
10462.71
10454.02
10444.86
10435.74
10427.43
10420.37
10414.36
10408.67
10402.49
10395.32
10387.02
10377.84
10368.26
10358.91
10350.4
10343.26
10337.98
10335.04
10334.41
10334.53
10331.46
10319.09
10291.06
10243.65
10178.21
10101.37
10023.05
9953.046
9898.062
9860.376
9838.253
9827.51
9823.311
9821.581
9819.751
9816.792
9812.724
9807.912
9802.542
9796.512
9789.641
9781.936
9773.684
9765.336
9757.335
9749.975
9743.292
9737.001
9730.555
9723.397
9715.311
9706.585
9697.784
9689.401
9681.281
9674.413
9663.84
10492.44
10480.31
10472.1
10463.04
10454.13
10444.88
10435.5
10426.59
10418.77
10412.21
10406.42
10400.6
10394.05
10386.44
10377.78
10368.42
10358.93
10349.9
10341.91
10335.5
10331.29
10329.79
10330.52
10330.85
10325.33
10306.68
10268.45
10208.35
10130.4
10044.36
9962.689
9896.217
9850.824
9826.288
9817.583
9817.641
9820.145
9821.226
9819.637
9815.818
9810.671
9804.768
9798.223
9790.991
9783.168
9775.073
9767.135
9759.723
9752.999
9746.816
9740.712
9734.081
9726.495
9717.969
9708.934
9699.881
9691.1
9682.27
9674.605
9662.454
10492.44
10479.63
10471.14
10461.77
10452.83
10443.78
10434.56
10425.49
10417.18
10410.05
10403.96
10398.26
10392.21
10385.25
10377.21
10368.27
10358.86
10349.57
10341.01
10333.8
10328.67
10326.39
10327.16
10329.34
10328.34
10316.75
10286.54
10232.71
10156.63
10066.98
9977.314
9901.316
9847.965
9819.002
9809.618
9811.592
9817.001
9820.699
9820.822
9817.749
9812.627
9806.372
9799.42
9791.952
9784.174
9776.402
9768.992
9762.196
9756.022
9750.162
9744.071
9737.224
9729.41
9720.837
9711.942
9703.029
9694.196
9685.035
9677.012
9663.806
10490.41
10477.41
10469.02
10459.64
10450.81
10442.07
10433.23
10424.32
10415.79
10408.16
10401.61
10395.8
10390.06
10383.71
10376.35
10367.97
10358.86
10349.54
10340.66
10332.92
10327.16
10324.25
10324.65
10327.31
10328.45
10321.19
10297.11
10249.71
10178.19
10089.41
9996.437
9914.032
9853.311
9818.172
9805.133
9806.165
9812.632
9818.287
9820.268
9818.368
9813.627
9807.216
9799.963
9792.369
9784.778
9777.478
9770.699
9764.519
9758.767
9753.023
9746.771
9739.679
9731.781
9723.403
9714.885
9706.319
9697.676
9688.545
9680.576
9667.007
10486.84
10474.24
10466.28
10457.16
10448.54
10440.1
10431.69
10423.11
10414.57
10406.57
10399.53
10393.46
10387.84
10382.01
10375.37
10367.68
10359.04
10349.88
10340.87
10332.82
10326.63
10323.15
10322.79
10324.69
10325.74
10320.03
10299.86
10258.5
10193.72
10110.17
10018.95
9934.064
9867.469
9825.08
9805.668
9802.74
9808.002
9814.485
9818.115
9817.635
9813.598
9807.259
9799.835
9792.205
9784.895
9778.165
9772.074
9766.478
9761.023
9755.231
9748.714
9741.388
9733.496
9725.393
9717.278
9709.079
9700.731
9691.875
9684.23
9670.928
10483.51
10471.37
10463.84
10455.04
10446.6
10438.35
10430.23
10421.97
10413.56
10405.36
10397.91
10391.48
10385.83
10380.37
10374.39
10367.43
10359.37
10350.53
10341.56
10333.36
10326.85
10322.74
10321.16
10321.18
10320.2
10313.57
10295.15
10259.12
10202.59
10127.97
10043.27
9960.131
9889.956
9840.2
9812.409
9802.74
9804.31
9810.025
9814.65
9815.585
9812.529
9806.554
9799.151
9791.578
9784.584
9778.429
9772.993
9767.896
9762.62
9756.698
9749.92
9742.433
9734.604
9726.744
9718.921
9710.99
9702.919
9694.435
9687.2
9674.574
10480.89
10469.13
10461.92
10453.43
10445.15
10436.97
10428.98
10420.94
10412.72
10404.52
10396.8
10390.02
10384.2
10378.91
10373.43
10367.12
10359.69
10351.28
10342.54
10334.34
10327.57
10322.66
10319.35
10316.51
10311.98
10302.54
10284.13
10252.58
10205.11
10142.02
10067.72
9990.285
9919.346