/*--------------------------------*- C++ -*----------------------------------*\
| =========                 |                                                 |
| \\      /  F ield         | OpenFOAM: The Open Source CFD Toolbox           |
|  \\    /   O peration     | Version:  2312                                  |
|   \\  /    A nd           | Website:  www.openfoam.com                      |
|    \\/     M anipulation  |                                                 |
\*---------------------------------------------------------------------------*/
FoamFile
{
    version     2.0;
    format      ascii;
    arch        "LSB;label=32;scalar=64";
    class       volScalarField;
    location    "1500";
    object      ILambda_2_0;
}
// * * * * * * * * * * * * * * * * * * * * * * * * * * * * * * * * * * * * * //

dimensions      [1 0 -3 0 0 0 0];

internalField   nonuniform List<scalar> 
12000
(
1160.068
1039.287
943.2607
871.7269
820.5887
785.32
761.9146
747.0807
738.2217
733.3504
730.9894
730.0744
729.8605
729.8393
729.6791
729.1898
728.2897
726.9661
725.2459
723.183
720.8483
718.315
715.6474
712.9003
710.1193
707.3389
704.5842
701.8741
699.2218
696.6343
694.1159
691.6685
689.2918
686.9831
684.7409
682.5694
680.4797
678.4868
676.5606
674.6253
672.6587
670.723
668.9026
667.1549
665.3112
663.2766
661.2056
659.2767
657.3367
655.1037
652.6185
650.042
647.2476
643.9929
640.264
635.9853
631.0746
624.566
617.652
598.0276
1234.385
1236.659
1207.921
1157.877
1096.762
1032.65
971.1262
915.6342
867.9538
828.6572
797.4961
773.7107
756.2668
744.0273
735.8693
730.7568
727.7842
726.1991
725.4068
724.9596
724.5393
723.9385
723.0398
721.7935
720.1981
718.2834
716.0983
713.6995
711.145
708.4894
705.781
703.0598
700.3576
697.6986
695.0995
692.5702
690.1156
687.7389
685.4488
683.2564
681.1507
679.0995
677.0777
675.096
673.1826
671.3298
669.472
667.5602
665.635
663.7416
661.8257
659.8077
657.6856
655.4634
653.0834
650.4475
647.622
644.1151
641.8062
633.3603
1214.391
1228.083
1239.991
1242.993
1233.27
1210.205
1175.421
1131.798
1082.682
1031.338
980.6099
932.7417
889.3272
851.3363
819.1936
792.8814
772.0495
756.122
744.3928
736.1048
730.5117
726.9213
724.7252
723.4139
722.5805
721.9173
721.2061
720.3054
719.1362
717.6679
715.9054
713.8776
711.6275
709.2047
706.6599
704.0408
701.3884
698.7362
696.1118
693.5415
691.0478
688.6409
686.316
684.064
681.8854
679.7892
677.7711
675.8035
673.8633
671.9539
670.08
668.2217
666.356
664.473
662.5642
660.5864
658.5787
656.2688
654.5709
650.5034
1199.102
1203.58
1211.5
1221.976
1232.39
1239.53
1240.529
1233.411
1217.31
1192.412
1159.77
1121.036
1078.19
1033.292
988.2875
944.8662
904.3761
867.7877
835.6968
808.3574
785.733
767.5584
753.4038
742.7368
734.976
729.5366
725.8644
723.4607
721.8966
720.8199
719.9553
719.0995
718.1139
716.914
715.4598
713.7446
711.7858
709.6161
707.2766
704.8116
702.2662
699.6834
697.1002
694.5454
692.0389
689.5959
687.2287
684.944
682.7398
680.6092
678.5466
676.5468
674.6014
672.6991
670.8317
668.9785
667.1588
665.2326
663.6437
660.5487
1183.55
1186.513
1189.908
1194.774
1201.74
1210.632
1220.444
1229.557
1236.085
1238.215
1234.484
1223.962
1206.327
1181.851
1151.318
1115.901
1077.019
1036.193
994.9159
954.5501
916.2516
880.9243
849.2011
821.4494
797.7937
778.1512
762.2742
749.7952
740.2706
733.22
728.16
724.63
722.2121
720.5428
719.3201
718.3041
717.3145
716.2254
714.9573
713.4692
711.7501
709.8114
707.6805
705.3944
702.9939
700.5192
698.0075
695.4922
693.0018
690.5577
688.1739
685.8594
683.619
681.4531
679.3597
677.3276
675.3711
673.3832
671.7556
668.6733
1170.132
1172.504
1174.897
1177.44
1180.539
1184.736
1190.465
1197.845
1206.558
1215.845
1224.592
1231.483
1235.173
1234.462
1228.429
1216.525
1198.615
1174.969
1146.216
1113.274
1077.253
1039.364
1000.823
962.7773
926.2357
892.0294
860.7856
832.9208
808.6489
788.0008
770.8528
756.9591
745.9858
737.5443
731.2209
726.6027
723.2976
720.9497
719.2491
717.9368
716.8061
715.7001
714.508
713.1594
711.6173
709.8718
707.9324
705.8224
703.5738
701.2225
698.8049
696.3547
693.9016
691.4698
689.0796
686.7386
684.4784
682.1947
680.3413
676.9034
1163.374
1164.106
1165.173
1166.5
1168.036
1169.857
1172.189
1175.365
1179.721
1185.481
1192.65
1200.957
1209.838
1218.476
1225.881
1230.99
1232.781
1230.376
1223.124
1210.661
1192.93
1170.184
1142.95
1111.982
1078.195
1042.595
1006.213
970.0372
934.9655
901.7623
871.0343
843.2174
818.5772
797.2191
779.1066
764.0848
751.9073
742.2632
734.8027
729.1615
724.98
721.9195
719.6736
717.9762
716.605
715.3826
714.1747
712.8866
711.4579
709.857
708.0757
706.1227
704.0187
701.7914
699.4733
697.0888
694.695
692.1918
690.1254
686.2155
1162.838
1162.218
1161.844
1161.764
1161.971
1162.432
1163.132
1164.121
1165.539
1167.604
1170.577
1174.698
1180.116
1186.824
1194.62
1203.087
1211.61
1219.42
1225.652
1229.428
1229.929
1226.471
1218.56
1205.933
1188.573
1166.712
1140.801
1111.481
1079.528
1045.805
1011.205
976.5989
942.795
910.4995
880.2936
852.618
827.7687
805.9012
787.042
771.106
757.9163
747.2275
738.7468
732.1561
727.1299
723.3514
720.5251
718.3857
716.7037
715.2886
713.9886
712.6894
711.3106
709.801
708.1359
706.3006
704.3339
702.1171
700.2342
696.3137
1165.059
1164.085
1163.107
1162.196
1161.416
1160.809
1160.392
1160.165
1160.135
1160.342
1160.877
1161.89
1163.579
1166.161
1169.831
1174.715
1180.822
1188.016
1195.996
1204.296
1212.31
1219.333
1224.608
1227.388
1226.994
1222.868
1214.616
1202.037
1185.134
1164.117
1139.38
1111.478
1081.085
1048.954
1015.875
982.6253
949.9401
918.4753
888.7854
861.3083
836.3577
814.1234
794.6786
777.9921
763.9436
752.3423
742.9457
735.478
729.6474
725.1615
721.7394
719.1215
717.077
715.407
713.9491
712.5657
711.188
709.6238
708.3187
705.2267
1165.853
1165.366
1164.722
1163.954
1163.102
1162.214
1161.338
1160.513
1159.766
1159.115
1158.579
1158.192
1158.019
1158.165
1158.779
1160.039
1162.14
1165.255
1169.507
1174.93
1181.447
1188.848
1196.786
1204.787
1212.276
1218.608
1223.113
1225.143
1224.12
1219.572
1211.174
1198.763
1182.354
1162.136
1138.456
1111.802
1082.768
1052.024
1020.274
988.2223
956.542
925.8449
896.6601
869.418
844.442
821.9459
802.0381
784.7293
769.9456
757.5423
747.3203
739.0426
732.4493
727.2719
723.2472
720.1188
717.6793
715.6323
714.1725
711.5982
1165.638
1165.463
1165.185
1164.8
1164.302
1163.693
1162.986
1162.202
1161.367
1160.506
1159.641
1158.791
1157.974
1157.216
1156.563
1156.087
1155.894
1156.127
1156.949
1158.538
1161.058
1164.635
1169.329
1175.113
1181.852
1189.296
1197.081
1204.742
1211.738
1217.48
1221.367
1222.829
1221.361
1216.556
1208.136
1195.966
1180.063
1160.598
1137.881
1112.344
1084.52
1055.006
1024.439
993.4629
962.6976
932.7162
904.0233
877.0397
852.0932
829.4142
809.1375
791.3075
775.8876
762.7718
751.7999
742.7633
735.4543
729.5165
725.2151
719.7818
1163.657
1163.946
1164.102
1164.14
1164.065
1163.878
1163.577
1163.163
1162.639
1162.016
1161.307
1160.527
1159.69
1158.808
1157.894
1156.967
1156.054
1155.202
1154.484
1154.001
1153.883
1154.284
1155.367
1157.29
1160.186
1164.135
1169.153
1175.166
1182.005
1189.397
1196.977
1204.297
1210.849
1216.091
1219.483
1220.512
1218.732
1213.785
1205.425
1193.538
1178.142
1159.389
1137.557
1113.035
1086.3
1057.894
1028.397
998.3983
968.4748
939.1645
910.9488
884.2374
859.3587
836.554
815.9797
797.6951
781.749
767.79
757.0462
742.6178
1159.323
1160.193
1160.908
1161.479
1161.916
1162.225
1162.409
1162.471
1162.41
1162.227
1161.926
1161.512
1160.99
1160.37
1159.66
1158.866
1157.996
1157.058
1156.07
1155.056
1154.062
1153.156
1152.43
1152.004
1152.017
1152.624
1153.975
1156.207
1159.42
1163.661
1168.908
1175.056
1181.914
1189.201
1196.557
1203.552
1209.71
1214.532
1217.525
1218.226
1216.232
1211.223
1202.981
1191.403
1176.505
1158.426
1137.415
1113.823
1088.081
1060.684
1032.162
1003.061
973.9166
945.2348
917.4806
891.0235
866.3217
842.9856
824.1936
795.8151
1152.739
1154.107
1155.352
1156.475
1157.471
1158.337
1159.072
1159.675
1160.147
1160.488
1160.7
1160.782
1160.738
1160.569
1160.28
1159.876
1159.361
1158.737
1158.01
1157.18
1156.256
1155.249
1154.183
1153.098
1152.053
1151.134
1150.446
1150.117
1150.29
1151.111
1152.717
1155.22
1158.694
1163.157
1168.56
1174.777
1181.604
1188.757
1195.885
1202.578
1208.391
1212.861
1215.533
1215.985
1213.851
1208.84
1200.754
1189.499
1175.09
1157.649
1137.402
1114.667
1089.837
1063.362
1035.741
1007.427
979.1573
950.3235
926.2725
885.2548
1144.966
1146.488
1147.982
1149.44
1150.842
1152.17
1153.406
1154.539
1155.556
1156.451
1157.22
1157.858
1158.363
1158.736
1158.976
1159.084
1159.063
1158.915
1158.643
1158.248
1157.732
1157.093
1156.333
1155.455
1154.468
1153.392
1152.261
1151.127
1150.062
1149.163
1148.545
1148.338
1148.681
1149.71
1151.547
1154.282
1157.966
1162.595
1168.099
1174.338
1181.1
1188.106
1195.012
1201.431
1206.942
1211.115
1213.529
1213.795
1211.576
1206.605
1198.701
1187.775
1173.838
1156.997
1137.471
1115.476
1091.69
1065.129
1042.282
997.6187
1138.307
1139.421
1140.632
1141.935
1143.307
1144.721
1146.148
1147.561
1148.936
1150.25
1151.485
1152.626
1153.66
1154.579
1155.374
1156.042
1156.577
1156.98
1157.25
1157.387
1157.392
1157.266
1157.007
1156.615
1156.088
1155.423
1154.622
1153.69
1152.642
1151.507
1150.328
1149.168
1148.11
1147.257
1146.728
1146.654
1147.166
1148.39
1150.43
1153.36
1157.211
1161.96
1167.524
1173.752
1180.43
1187.281
1193.977
1200.147
1205.395
1209.317
1211.522
1211.649
1209.386
1204.482
1196.783
1186.128
1172.849
1155.676
1140.416
1104.336
1134.368
1134.736
1135.261
1135.959
1136.824
1137.838
1138.981
1140.226
1141.548
1142.917
1144.307
1145.691
1147.046
1148.35
1149.584
1150.732
1151.78
1152.718
1153.537
1154.231
1154.796
1155.23
1155.53
1155.696
1155.725
1155.616
1155.365
1154.968
1154.421
1153.723
1152.877
1151.892
1150.791
1149.61
1148.4
1147.235
1146.205
1145.416
1144.989
1145.049
1145.723
1147.123
1149.34
1152.432
1156.414
1161.247
1166.838
1173.032
1179.612
1186.31
1192.806
1198.749
1203.764
1207.469
1209.511
1209.489
1207.361
1201.912
1196.739
1177.518
1133.933
1133.475
1133.164
1133.036
1133.102
1133.366
1133.823
1134.463
1135.274
1136.235
1137.326
1138.522
1139.798
1141.126
1142.482
1143.84
1145.177
1146.47
1147.701
1148.854
1149.913
1150.868
1151.709
1152.429
1153.023
1153.487
1153.816
1154.008
1154.058
1153.961
1153.71
1153.301
1152.73
1151.995
1151.104
1150.072
1148.927
1147.714
1146.491
1145.339
1144.351
1143.637
1143.316
1143.509
1144.334
1145.891
1148.26
1151.484
1155.564
1160.452
1166.046
1172.186
1178.659
1185.2
1191.51
1197.218
1202.089
1205.345
1207.986
1205.663
1136.148
1135.155
1134.226
1133.406
1132.724
1132.201
1131.853
1131.693
1131.725
1131.951
1132.366
1132.962
1133.725
1134.638
1135.681
1136.83
1138.063
1139.353
1140.676
1142.008
1143.326
1144.608
1145.835
1146.991
1148.06
1149.031
1149.893
1150.638
1151.26
1151.752
1152.109
1152.323
1152.388
1152.296
1152.04
1151.613
1151.013
1150.242
1149.31
1148.239
1147.062
1145.829
1144.608
1143.481
1142.546
1141.914
1141.699
1142.018
1142.98
1144.676
1147.171
1150.499
1154.65
1159.565
1165.138
1171.202
1177.548
1183.974
1189.656
1197.49
1139.437
1138.317
1137.168
1136.026
1134.923
1133.887
1132.942
1132.114
1131.423
1130.888
1130.524
1130.341
1130.345
1130.537
1130.914
1131.467
1132.185
1133.052
1134.048
1135.153
1136.344
1137.597
1138.888
1140.194
1141.493
1142.763
1143.986
1145.143
1146.222
1147.208
1148.09
1148.86
1149.507
1150.025
1150.404
1150.635
1150.71
1150.618
1150.352
1149.905
1149.276
1148.471
1147.504
1146.4
1145.201
1143.962
1142.753
1141.661
1140.786
1140.236
1140.124
1140.559
1141.641
1143.453
1146.046
1149.456
1153.599
1158.698
1163.335
1172.979
1142.229
1141.322
1140.318
1139.245
1138.124
1136.977
1135.824
1134.689
1133.595
1132.567
1131.63
1130.804
1130.111
1129.568
1129.191
1128.987
1128.965
1129.126
1129.466
1129.979
1130.654
1131.476
1132.428
1133.49
1134.641
1135.858
1137.117
1138.398
1139.677
1140.935
1142.152
1143.312
1144.399
1145.399
1146.3
1147.092
1147.763
1148.302
1148.699
1148.943
1149.022
1148.926
1148.646
1148.178
1147.522
1146.686
1145.689
1144.562
1143.35
1142.112
1140.923
1139.872
1139.057
1138.586
1138.562
1139.105
1140.236
1142.305
1144.243
1150.332
1143.875
1143.278
1142.575
1141.781
1140.904
1139.951
1138.931
1137.857
1136.743
1135.606
1134.465
1133.343
1132.262
1131.246
1130.315
1129.493
1128.799
1128.249
1127.858
1127.636
1127.589
1127.719
1128.025
1128.499
1129.133
1129.913
1130.822
1131.843
1132.954
1134.135
1135.364
1136.619
1137.88
1139.125
1140.337
1141.498
1142.592
1143.605
1144.524
1145.335
1146.025
1146.582
1146.993
1147.244
1147.323
1147.22
1146.924
1146.434
1145.751
1144.888
1143.866
1142.721
1141.501
1140.269
1139.099
1138.09
1137.299
1136.97
1136.707
1138.171
1144.41
1144.062
1143.631
1143.128
1142.553
1141.902
1141.175
1140.37
1139.489
1138.538
1137.525
1136.46
1135.357
1134.233
1133.107
1131.999
1130.931
1129.924
1129.001
1128.182
1127.486
1126.93
1126.527
1126.286
1126.216
1126.317
1126.59
1127.027
1127.622
1128.361
1129.229
1130.21
1131.283
1132.43
1133.629
1134.859
1136.1
1137.333
1138.539
1139.701
1140.802
1141.827
1142.76
1143.587
1144.293
1144.864
1145.283
1145.537
1145.612
1145.497
1145.184
1144.67
1143.96
1143.07
1142.022
1140.858
1139.62
1138.379
1137.251
1135.81
1144.319
1144.074
1143.784
1143.458
1143.094
1142.687
1142.228
1141.709
1141.125
1140.47
1139.742
1138.939
1138.063
1137.119
1136.115
1135.061
1133.972
1132.862
1131.75
1130.656
1129.6
1128.603
1127.687
1126.871
1126.174
1125.611
1125.195
1124.938
1124.845
1124.919
1125.16
1125.563
1126.119
1126.819
1127.648
1128.59
1129.627
1130.74
1131.91
1133.116
1134.34
1135.56
1136.761
1137.923
1139.029
1140.062
1141.007
1141.847
1142.564
1143.142
1143.564
1143.815
1143.88
1143.747
1143.409
1142.862
1142.124
1141.148
1140.235
1138.162
1144.229
1143.949
1143.652
1143.352
1143.05
1142.74
1142.416
1142.07
1141.692
1141.274
1140.807
1140.284
1139.696
1139.04
1138.313
1137.513
1136.643
1135.706
1134.712
1133.67
1132.593
1131.497
1130.398
1129.317
1128.272
1127.285
1126.375
1125.561
1124.862
1124.292
1123.865
1123.591
1123.476
1123.524
1123.735
1124.104
1124.625
1125.287
1126.078
1126.983
1127.985
1129.066
1130.208
1131.391
1132.597
1133.805
1134.999
1136.16
1137.268
1138.308
1139.26
1140.105
1140.826
1141.404
1141.819
1142.052
1142.101
1141.888
1141.649
1140.405
1144.408
1144.05
1143.676
1143.31
1142.957
1142.619
1142.294
1141.978
1141.664
1141.345
1141.014
1140.661
1140.278
1139.856
1139.385
1138.859
1138.271
1137.615
1136.89
1136.095
1135.23
1134.303
1133.318
1132.287
1131.223
1130.139
1129.054
1127.984
1126.95
1125.971
1125.066
1124.254
1123.552
1122.976
1122.537
1122.247
1122.111
1122.134
1122.315
1122.652
1123.138
1123.764
1124.519
1125.388
1126.357
1127.407
1128.521
1129.682
1130.869
1132.065
1133.25
1134.405
1135.511
1136.549
1137.498
1138.336
1139.048
1139.583
1140.005
1140.028
1144.909
1144.485
1144.037
1143.587
1143.148
1142.726
1142.323
1141.94
1141.578
1141.233
1140.902
1140.581
1140.262
1139.94
1139.604
1139.248
1138.862
1138.436
1137.964
1137.437
1136.849
1136.195
1135.473
1134.683
1133.826
1132.906
1131.932
1130.912
1129.86
1128.789
1127.715
1126.657
1125.633
1124.661
1123.761
1122.951
1122.246
1121.663
1121.213
1120.906
1120.75
1120.748
1120.901
1121.207
1121.659
1122.251
1122.97
1123.804
1124.739
1125.759
1126.845
1127.981
1129.147
1130.325
1131.493
1132.633
1133.72
1134.741
1135.595
1136.663
1145.402
1145.011
1144.569
1144.102
1143.624
1143.145
1142.672
1142.21
1141.765
1141.338
1140.933
1140.548
1140.184
1139.837
1139.505
1139.181
1138.859
1138.534
1138.196
1137.836
1137.447
1137.02
1136.546
1136.019
1135.432
1134.78
1134.062
1133.277
1132.427
1131.516
1130.552
1129.544
1128.503
1127.444
1126.383
1125.336
1124.321
1123.356
1122.46
1121.651
1120.943
1120.353
1119.891
1119.569
1119.393
1119.367
1119.492
1119.767
1120.186
1120.743
1121.426
1122.225
1123.125
1124.109
1125.162
1126.265
1127.39
1128.555
1129.548
1131.165
1145.446
1145.2
1144.877
1144.501
1144.086
1143.642
1143.178
1142.702
1142.221
1141.742
1141.27
1140.81
1140.366
1139.941
1139.537
1139.153
1138.789
1138.442
1138.108
1137.782
1137.459
1137.131
1136.79
1136.428
1136.037
1135.608
1135.133
1134.606
1134.02
1133.371
1132.657
1131.878
1131.035
1130.133
1129.179
1128.182
1127.153
1126.106
1125.056
1124.019
1123.013
1122.055
1121.163
1120.354
1119.643
1119.045
1118.573
1118.234
1118.038
1117.987
1118.084
1118.326
1118.71
1119.228
1119.87
1120.626
1121.47
1122.434
1123.276
1124.881
1144.578
1144.576
1144.478
1144.304
1144.067
1143.775
1143.435
1143.055
1142.641
1142.202
1141.744
1141.274
1140.8
1140.326
1139.86
1139.405
1138.966
1138.544
1138.142
1137.76
1137.397
1137.049
1136.715
1136.388
1136.063
1135.732
1135.389
1135.025
1134.632
1134.201
1133.725
1133.198
1132.614
1131.968
1131.258
1130.485
1129.65
1128.756
1127.812
1126.826
1125.808
1124.773
1123.733
1122.707
1121.709
1120.757
1119.868
1119.059
1118.344
1117.738
1117.252
1116.895
1116.675
1116.596
1116.657
1116.861
1117.189
1117.678
1118.133
1119.221
1142.649
1142.899
1143.058
1143.14
1143.151
1143.096
1142.977
1142.799
1142.564
1142.279
1141.948
1141.578
1141.175
1140.746
1140.299
1139.839
1139.374
1138.909
1138.45
1138.001
1137.567
1137.15
1136.751
1136.37
1136.008
1135.661
1135.326
1134.998
1134.671
1134.338
1133.993
1133.626
1133.231
1132.799
1132.323
1131.797
1131.214
1130.571
1129.866
1129.098
1128.27
1127.386
1126.452
1125.476
1124.469
1123.444
1122.415
1121.397
1120.406
1119.459
1118.571
1117.759
1117.036
1116.417
1115.91
1115.528
1115.267
1115.152
1115.1
1115.334
1139.889
1140.311
1140.664
1140.961
1141.204
1141.392
1141.521
1141.59
1141.599
1141.546
1141.434
1141.264
1141.041
1140.768
1140.45
1140.093
1139.703
1139.287
1138.851
1138.403
1137.948
1137.492
1137.041
1136.599
1136.17
1135.758
1135.362
1134.984
1134.623
1134.276
1133.941
1133.611
1133.283
1132.948
1132.601
1132.233
1131.836
1131.403
1130.927
1130.401
1129.82
1129.18
1128.48
1127.718
1126.897
1126.021
1125.096
1124.13
1123.133
1122.118
1121.097
1120.085
1119.097
1118.148
1117.254
1116.429
1115.685
1115.026
1114.504
1113.808
1136.848
1137.291
1137.703
1138.095
1138.466
1138.811
1139.125
1139.401
1139.632
1139.814
1139.943
1140.015
1140.029
1139.985
1139.884
1139.726
1139.515
1139.255
1138.951
1138.608
1138.232
1137.829
1137.405
1136.968
1136.524
1136.077
1135.634
1135.2
1134.777
1134.369
1133.977
1133.601
1133.242
1132.895
1132.56
1132.229
1131.899
1131.563
1131.214
1130.844
1130.445
1130.012
1129.535
1129.01
1128.431
1127.795
1127.099
1126.342
1125.528
1124.659
1123.741
1122.782
1121.791
1120.78
1119.759
1118.742
1117.748
1116.754
1115.932
1114.507
1134.198
1134.499
1134.803
1135.127
1135.469
1135.826
1136.189
1136.55
1136.901
1137.233
1137.538
1137.809
1138.039
1138.223
1138.356
1138.435
1138.458
1138.424
1138.334
1138.189
1137.992
1137.746
1137.455
1137.126
1136.763
1136.373
1135.962
1135.536
1135.102
1134.665
1134.231
1133.803
1133.386
1132.983
1132.595
1132.222
1131.864
1131.518
1131.182
1130.851
1130.52
1130.182
1129.831
1129.459
1129.06
1128.625
1128.148
1127.623
1127.046
1126.411
1125.718
1124.965
1124.153
1123.286
1122.369
1121.405
1120.414
1119.349
1118.453
1116.679
1132.554
1132.587
1132.646
1132.751
1132.906
1133.11
1133.357
1133.64
1133.953
1134.287
1134.632
1134.979
1135.319
1135.644
1135.945
1136.214
1136.445
1136.632
1136.77
1136.857
1136.889
1136.866
1136.787
1136.655
1136.471
1136.238
1135.962
1135.646
1135.297
1134.92
1134.521
1134.107
1133.683
1133.256
1132.83
1132.41
1131.999
1131.601
1131.216
1130.846
1130.49
1130.145
1129.809
1129.477
1129.144
1128.805
1128.452
1128.078
1127.676
1127.239
1126.761
1126.234
1125.654
1125.017
1124.319
1123.557
1122.744
1121.819
1121.035
1119.302
1132.079
1131.832
1131.607
1131.43
1131.311
1131.254
1131.261
1131.329
1131.454
1131.633
1131.858
1132.123
1132.419
1132.738
1133.07
1133.407
1133.74
1134.058
1134.356
1134.624
1134.856
1135.046
1135.19
1135.283
1135.324
1135.311
1135.244
1135.124
1134.952
1134.734
1134.471
1134.169
1133.833
1133.469
1133.083
1132.68
1132.267
1131.85
1131.432
1131.02
1130.615
1130.222
1129.842
1129.474
1129.119
1128.775
1128.439
1128.106
1127.771
1127.428
1127.071
1126.693
1126.286
1125.842
1125.355
1124.815
1124.228
1123.531
1122.944
1121.507
1132.653
1132.183
1131.715
1131.278
1130.887
1130.551
1130.275
1130.063
1129.917
1129.838
1129.825
1129.874
1129.983
1130.145
1130.355
1130.605
1130.887
1131.193
1131.515
1131.842
1132.167
1132.481
1132.775
1133.041
1133.274
1133.467
1133.615
1133.715
1133.764
1133.761
1133.704
1133.596
1133.437
1133.232
1132.982
1132.694
1132.371
1132.02
1131.646
1131.255
1130.853
1130.445
1130.037
1129.632
1129.234
1128.846
1128.469
1128.104
1127.75
1127.405
1127.067
1126.73
1126.39
1126.039
1125.672
1125.278
1124.859
1124.36
1123.947
1122.863
1133.819
1133.248
1132.65
1132.053
1131.473
1130.922
1130.41
1129.945
1129.533
1129.179
1128.888
1128.662
1128.502
1128.41
1128.382
1128.417
1128.512
1128.66
1128.855
1129.092
1129.362
1129.656
1129.967
1130.286
1130.603
1130.911
1131.201
1131.466
1131.699
1131.895
1132.047
1132.153
1132.21
1132.215
1132.169
1132.072
1131.926
1131.733
1131.496
1131.221
1130.912
1130.573
1130.212
1129.832
1129.441
1129.043
1128.643
1128.245
1127.853
1127.468
1127.094
1126.728
1126.372
1126.022
1125.675
1125.324
1124.97
1124.57
1124.248
1123.415
1135.064
1134.513
1133.91
1133.278
1132.633
1131.987
1131.348
1130.727
1130.132
1129.57
1129.049
1128.576
1128.156
1127.793
1127.493
1127.257
1127.087
1126.983
1126.943
1126.965
1127.046
1127.181
1127.363
1127.587
1127.844
1128.127
1128.428
1128.738
1129.048
1129.35
1129.636
1129.899
1130.132
1130.33
1130.486
1130.597
1130.661
1130.675
1130.638
1130.552
1130.418
1130.237
1130.013
1129.751
1129.454
1129.128
1128.779
1128.41
1128.029
1127.639
1127.245
1126.852
1126.462
1126.077
1125.697
1125.322
1124.954
1124.561
1124.247
1123.506
1135.994
1135.542
1135.023
1134.459
1133.86
1133.236
1132.594
1131.941
1131.284
1130.631
1129.988
1129.365
1128.767
1128.203
1127.679
1127.202
1126.777
1126.409
1126.101
1125.856
1125.676
1125.561
1125.509
1125.519
1125.587
1125.709
1125.878
1126.089
1126.334
1126.606
1126.897
1127.198
1127.5
1127.797
1128.079
1128.34
1128.573
1128.771
1128.931
1129.047
1129.118
1129.14
1129.113
1129.037
1128.913
1128.744
1128.533
1128.282
1127.997
1127.682
1127.342
1126.982
1126.606
1126.22
1125.827
1125.428
1125.03
1124.607
1124.263
1123.5
1136.466
1136.128
1135.723
1135.271
1134.778
1134.25
1133.691
1133.104
1132.494
1131.864
1131.219
1130.566
1129.911
1129.259
1128.619
1127.997
1127.4
1126.836
1126.311
1125.831
1125.402
1125.028
1124.713
1124.461
1124.271
1124.145
1124.082
1124.08
1124.135
1124.244
1124.401
1124.599
1124.832
1125.093
1125.374
1125.666
1125.961
1126.251
1126.53
1126.788
1127.02
1127.22
1127.383
1127.504
1127.58
1127.609
1127.591
1127.524
1127.41
1127.251
1127.049
1126.808
1126.531
1126.221
1125.884
1125.522
1125.143
1124.722
1124.373
1123.575
1136.565
1136.305
1135.99
1135.635
1135.248
1134.83
1134.382
1133.904
1133.397
1132.862
1132.3
1131.713
1131.104
1130.477
1129.836
1129.187
1128.536
1127.888
1127.251
1126.632
1126.037
1125.473
1124.947
1124.464
1124.032
1123.653
1123.331
1123.071
1122.872
1122.736
1122.662
1122.648
1122.691
1122.787
1122.931
1123.117
1123.338
1123.588
1123.858
1124.142
1124.429
1124.714
1124.988
1125.243
1125.475
1125.675
1125.84
1125.964
1126.045
1126.08
1126.068
1126.007
1125.9
1125.745
1125.546
1125.303
1125.024
1124.682
1124.391
1123.644
1136.505
1136.266
1135.985
1135.679
1135.353
1135.009
1134.647
1134.265
1133.861
1133.433
1132.98
1132.5
1131.993
1131.459
1130.9
1130.317
1129.713
1129.091
1128.455
1127.811
1127.164
1126.521
1125.888
1125.271
1124.677
1124.114
1123.587
1123.103
1122.666
1122.282
1121.955
1121.686
1121.479
1121.333
1121.248
1121.222
1121.253
1121.337
1121.468
1121.642
1121.852
1122.091
1122.351
1122.625
1122.905
1123.183
1123.452
1123.704
1123.933
1124.133
1124.297
1124.422
1124.504
1124.539
1124.526
1124.462
1124.35
1124.164
1123.999
1123.429
1136.513
1136.243
1135.942
1135.627
1135.306
1134.98
1134.65
1134.314
1133.969
1133.613
1133.244
1132.857
1132.45
1132.022
1131.569
1131.091
1130.587
1130.057
1129.502
1128.924
1128.325
1127.708
1127.078
1126.439
1125.797
1125.158
1124.528
1123.914
1123.322
1122.76
1122.232
1121.746
1121.306
1120.918
1120.584
1120.308
1120.092
1119.936
1119.841
1119.804
1119.823
1119.894
1120.013
1120.175
1120.373
1120.601
1120.851
1121.115
1121.386
1121.657
1121.918
1122.164
1122.387
1122.58
1122.738
1122.853
1122.925
1122.929
1122.925
1122.628
1136.727
1136.403
1136.051
1135.689
1135.328
1134.972
1134.621
1134.276
1133.934
1133.595
1133.256
1132.914
1132.565
1132.206
1131.834
1131.447
1131.041
1130.613
1130.162
1129.687
1129.186
1128.66
1128.109
1127.536
1126.941
1126.33
1125.705
1125.071
1124.434
1123.799
1123.173
1122.562
1121.972
1121.41
1120.882
1120.394
1119.951
1119.558
1119.218
1118.936
1118.711
1118.546
1118.44
1118.392
1118.399
1118.458
1118.565
1118.714
1118.9
1119.115
1119.352
1119.604
1119.863
1120.121
1120.369
1120.598
1120.803
1120.964
1121.099
1121.087
1137.113
1136.745
1136.344
1135.932
1135.52
1135.114
1134.716
1134.328
1133.951
1133.585
1133.227
1132.877
1132.533
1132.192
1131.851
1131.507
1131.157
1130.799
1130.427
1130.04
1129.635
1129.209
1128.76
1128.288
1127.79
1127.268
1126.722
1126.152
1125.563
1124.957
1124.337
1123.708
1123.076
1122.445
1121.822
1121.214
1120.626
1120.065
1119.536
1119.047
1118.601
1118.203
1117.858
1117.568
1117.336
1117.161
1117.045
1116.985
1116.98
1117.025
1117.118
1117.252
1117.422
1117.62
1117.838
1118.069
1118.302
1118.527
1118.724
1118.903
1137.721
1137.313
1136.868
1136.408
1135.944
1135.483
1135.029
1134.585
1134.153
1133.733
1133.327
1132.933
1132.553
1132.183
1131.824
1131.474
1131.129
1130.787
1130.446
1130.102
1129.753
1129.394
1129.024
1128.638
1128.234
1127.81
1127.364
1126.894
1126.4
1125.881
1125.339
1124.774
1124.19
1123.588
1122.973
1122.35
1121.722
1121.095
1120.476
1119.87
1119.284
1118.724
1118.195
1117.704
1117.255
1116.853
1116.502
1116.205
1115.964
1115.778
1115.65
1115.576
1115.555
1115.583
1115.655
1115.766
1115.906
1116.069
1116.224
1116.42
1138.314
1137.923
1137.485
1137.019
1136.537
1136.049
1135.559
1135.072
1134.59
1134.117
1133.655
1133.205
1132.768
1132.345
1131.935
1131.54
1131.157
1130.787
1130.427
1130.075
1129.729
1129.387
1129.046
1128.702
1128.352
1127.994
1127.624
1127.24
1126.837
1126.415
1125.971
1125.505
1125.014
1124.499
1123.961
1123.401
1122.822
1122.225
1121.615
1120.996
1120.372
1119.75
1119.134
1118.531
1117.947
1117.387
1116.858
1116.364
1115.912
1115.504
1115.146
1114.839
1114.585
1114.385
1114.238
1114.142
1114.092
1114.084
1114.1
1114.122
1138.728
1138.383
1137.986
1137.554
1137.1
1136.629
1136.147
1135.657
1135.163
1134.669
1134.176
1133.688
1133.206
1132.733
1132.271
1131.82
1131.383
1130.959
1130.549
1130.152
1129.769
1129.397
1129.036
1128.683
1128.336
1127.993
1127.651
1127.307
1126.958
1126.6
1126.23
1125.847
1125.446
1125.026
1124.584
1124.12
1123.633
1123.122
1122.588
1122.033
1121.458
1120.866
1120.261
1119.646
1119.027
1118.409
1117.796
1117.195
1116.611
1116.051
1115.519
1115.021
1114.561
1114.144
1113.771
1113.446
1113.168
1112.93
1112.754
1112.459
1138.967
1138.667
1138.314
1137.926
1137.514
1137.084
1136.637
1136.178
1135.708
1135.23
1134.744
1134.255
1133.763
1133.271
1132.781
1132.296
1131.817
1131.346
1130.886
1130.437
1130
1129.577
1129.167
1128.77
1128.386
1128.013
1127.651
1127.297
1126.949
1126.606
1126.263
1125.918
1125.568
1125.211
1124.842
1124.459
1124.06
1123.642
1123.203
1122.741
1122.257
1121.75
1121.22
1120.669
1120.099
1119.512
1118.911
1118.3
1117.684
1117.068
1116.456
1115.855
1115.268
1114.702
1114.162
1113.65
1113.173
1112.715
1112.35
1111.692
1139.002
1138.751
1138.446
1138.107
1137.743
1137.36
1136.96
1136.545
1136.117
1135.677
1135.225
1134.764
1134.294
1133.817
1133.334
1132.848
1132.36
1131.871
1131.386
1130.904
1130.428
1129.961
1129.503
1129.056
1128.621
1128.198
1127.788
1127.392
1127.007
1126.634
1126.271
1125.917
1125.568
1125.224
1124.88
1124.535
1124.185
1123.827
1123.459
1123.077
1122.679
1122.263
1121.826
1121.367
1120.886
1120.383
1119.857
1119.309
1118.742
1118.158
1117.559
1116.95
1116.334
1115.715
1115.098
1114.486
1113.888
1113.279
1112.781
1111.819
1138.88
1138.667
1138.403
1138.107
1137.788
1137.451
1137.098
1136.731
1136.35
1135.956
1135.55
1135.132
1134.702
1134.261
1133.81
1133.35
1132.882
1132.408
1131.928
1131.445
1130.96
1130.476
1129.993
1129.515
1129.043
1128.578
1128.122
1127.677
1127.244
1126.822
1126.414
1126.017
1125.633
1125.26
1124.896
1124.541
1124.192
1123.847
1123.503
1123.157
1122.807
1122.45
1122.082
1121.701
1121.304
1120.889
1120.454
1119.997
1119.518
1119.017
1118.492
1117.945
1117.378
1116.792
1116.19
1115.572
1114.948
1114.284
1113.733
1112.596
1138.566
1138.386
1138.159
1137.902
1137.625
1137.333
1137.026
1136.708
1136.376
1136.033
1135.678
1135.31
1134.93
1134.537
1134.132
1133.716
1133.288
1132.85
1132.401
1131.943
1131.478
1131.006
1130.529
1130.048
1129.567
1129.085
1128.606
1128.13
1127.661
1127.199
1126.745
1126.302
1125.87
1125.45
1125.042
1124.647
1124.263
1123.889
1123.526
1123.17
1122.821
1122.475
1122.13
1121.785
1121.434
1121.077
1120.709
1120.328
1119.931
1119.516
1119.081
1118.624
1118.144
1117.639
1117.11
1116.554
1115.98
1115.347
1114.82
1113.657
1138.294
1138.096
1137.859
1137.603
1137.336
1137.061
1136.78
1136.493
1136.199
1135.897
1135.587
1135.267
1134.938
1134.597
1134.245
1133.881
1133.505
1133.116
1132.715
1132.303
1131.878
1131.443
1130.997
1130.542
1130.08
1129.61
1129.136
1128.659
1128.18
1127.701
1127.224
1126.751
1126.284
1125.824
1125.373
1124.931
1124.501
1124.082
1123.675
1123.28
1122.896
1122.523
1122.159
1121.804
1121.454
1121.107
1120.762
1120.415
1120.064
1119.705
1119.335
1118.952
1118.552
1118.132
1117.691
1117.223
1116.735
1116.183
1115.725
1114.65
1138.114
1137.896
1137.64
1137.364
1137.08
1136.792
1136.503
1136.214
1135.925
1135.636
1135.345
1135.052
1134.754
1134.451
1134.141
1133.824
1133.497
1133.16
1132.812
1132.452
1132.08
1131.696
1131.3
1130.891
1130.47
1130.039
1129.597
1129.146
1128.686
1128.22
1127.749
1127.275
1126.798
1126.322
1125.848
1125.378
1124.913