/*--------------------------------*- C++ -*----------------------------------*\
| =========                 |                                                 |
| \\      /  F ield         | OpenFOAM: The Open Source CFD Toolbox           |
|  \\    /   O peration     | Version:  2312                                  |
|   \\  /    A nd           | Website:  www.openfoam.com                      |
|    \\/     M anipulation  |                                                 |
\*---------------------------------------------------------------------------*/
FoamFile
{
    version     2.0;
    format      ascii;
    arch        "LSB;label=32;scalar=64";
    class       volScalarField;
    location    "1500";
    object      ILambda_7_0;
}
// * * * * * * * * * * * * * * * * * * * * * * * * * * * * * * * * * * * * * //

dimensions      [1 0 -3 0 0 0 0];

internalField   nonuniform List<scalar> 
12000
(
1220.811
1202.171
1181.374
1166.015
1158.075
1153.767
1148.511
1140.818
1132.413
1125.94
1122.783
1122.474
1123.466
1124.224
1123.836
1122.052
1119.067
1115.336
1111.45
1108
1105.398
1103.751
1102.87
1102.398
1101.991
1101.423
1100.612
1099.563
1098.315
1096.906
1095.371
1093.747
1092.079
1090.412
1088.775
1087.175
1085.604
1084.038
1082.455
1080.835
1079.17
1077.457
1075.697
1073.893
1072.055
1070.198
1068.349
1066.543
1064.817
1063.209
1061.744
1060.428
1059.236
1058.113
1056.989
1055.775
1054.425
1052.751
1051.272
1047.633
1208.245
1184.367
1166.31
1158.214
1155.408
1151.402
1143.738
1134.449
1127.027
1123.453
1123.301
1124.713
1125.849
1125.681
1123.98
1120.989
1117.175
1113.138
1109.506
1106.757
1105.051
1104.198
1103.805
1103.477
1102.962
1102.175
1101.135
1099.895
1098.495
1096.965
1095.34
1093.667
1091.991
1090.347
1088.747
1087.18
1085.621
1084.046
1082.433
1080.774
1079.065
1077.307
1075.505
1073.667
1071.809
1069.953
1068.134
1066.393
1064.769
1063.292
1061.971
1060.784
1059.682
1058.59
1057.426
1056.104
1054.594
1052.736
1051.081
1047.207
1197.139
1174.42
1162.5
1158.579
1155.458
1148.885
1139.594
1130.953
1125.687
1124.209
1125.057
1126.312
1126.656
1125.598
1123.193
1119.767
1115.821
1111.972
1108.79
1106.599
1105.362
1104.762
1104.396
1103.948
1103.269
1102.34
1101.197
1099.881
1098.418
1096.839
1095.186
1093.508
1091.849
1090.229
1088.647
1087.084
1085.515
1083.918
1082.28
1080.593
1078.858
1077.077
1075.256
1073.406
1071.547
1069.707
1067.925
1066.241
1064.692
1063.296
1062.048
1060.912
1059.825
1058.708
1057.481
1056.069
1054.46
1052.516
1050.794
1046.883
1183.379
1166.145
1160.376
1158.249
1153.351
1144.618
1135.004
1128.008
1125.089
1125.33
1126.73
1127.607
1127.16
1125.282
1122.213
1118.378
1114.364
1110.801
1108.158
1106.554
1105.76
1105.367
1104.996
1104.425
1103.595
1102.532
1101.281
1099.872
1098.333
1096.698
1095.019
1093.342
1091.701
1090.103
1088.534
1086.97
1085.386
1083.764
1082.095
1080.377
1078.611
1076.803
1074.961
1073.099
1071.244
1069.429
1067.696
1066.085
1064.624
1063.319
1062.147
1061.056
1059.972
1058.811
1057.501
1055.982
1054.262
1052.227
1050.439
1046.517
1171.222
1162.62
1160.733
1157.517
1149.875
1139.798
1131.191
1126.579
1125.835
1127.082
1128.33
1128.44
1127.115
1124.497
1120.92
1116.889
1113.042
1109.959
1107.925
1106.844
1106.342
1105.997
1105.516
1104.785
1103.808
1102.631
1101.287
1099.799
1098.198
1096.527
1094.84
1093.179
1091.561
1089.98
1088.416
1086.84
1085.233
1083.581
1081.88
1080.131
1078.338
1076.506
1074.647
1072.782
1070.942
1069.166
1067.495
1065.966
1064.594
1063.371
1062.256
1061.183
1060.072
1058.841
1057.431
1055.801
1053.98
1051.875
1050.047
1046.163
1164.436
1162.491
1160.891
1154.901
1145.05
1135.134
1128.664
1126.568
1127.364
1128.845
1129.485
1128.733
1126.621
1123.399
1119.476
1115.443
1111.952
1109.454
1108.012
1107.331
1106.973
1106.571
1105.942
1105.058
1103.958
1102.682
1101.252
1099.691
1098.039
1096.348
1094.667
1093.028
1091.431
1089.861
1088.291
1086.696
1085.061
1083.377
1081.645
1079.866
1078.046
1076.193
1074.324
1072.465
1070.652
1068.927
1067.331
1065.889
1064.605
1063.452
1062.374
1061.294
1060.13
1058.811
1057.29
1055.552
1053.642
1051.488
1049.642
1045.828
1163.103
1163.315
1159.433
1150.569
1139.851
1131.51
1127.715
1127.704
1129.217
1130.315
1130.125
1128.544
1125.754
1122.061
1117.97
1114.147
1111.178
1109.31
1108.373
1107.942
1107.592
1107.061
1106.273
1105.254
1104.049
1102.682
1101.172
1099.549
1097.863
1096.168
1094.506
1092.89
1091.309
1089.74
1088.155
1086.536
1084.87
1083.154
1081.391
1079.584
1077.74
1075.871
1074
1072.157
1070.385
1068.725
1067.213
1065.861
1064.657
1063.556
1062.49
1061.376
1060.136
1058.712
1057.079
1055.24
1053.261
1051.083
1049.243
1045.525
1164.458
1163.05
1155.983
1145.21
1135.203
1129.431
1128.212
1129.49
1130.944
1131.293
1130.252
1127.943
1124.589
1120.576
1116.523
1113.112
1110.771
1109.494
1108.92
1108.584
1108.143
1107.454
1106.521
1105.388
1104.089
1102.637
1101.054
1099.383
1097.68
1095.997
1094.358
1092.763
1091.19
1089.612
1088.006
1086.357
1084.659
1082.913
1081.12
1079.287
1077.422
1075.544
1073.68
1071.868
1070.15
1068.568
1067.144
1065.879
1064.741
1063.671
1062.591
1061.417
1060.082
1058.545
1056.802
1054.879
1052.853
1050.675
1048.865
1045.261
1165.561
1160.863
1150.979
1139.781
1131.885
1129.033
1129.737
1131.399
1132.251
1131.742
1129.936
1127.002
1123.2
1119.048
1115.258
1112.422
1110.731
1109.933
1109.559
1109.188
1108.6
1107.757
1106.699
1105.469
1104.08
1102.547
1100.903
1099.202
1097.501
1095.838
1094.224
1092.643
1091.068
1089.474
1087.841
1086.16
1084.431
1082.653
1080.833
1078.976
1077.097
1075.218
1073.373
1071.605
1069.956
1068.459
1067.125
1065.938
1064.848
1063.784
1062.662
1061.406
1059.962
1058.31
1056.469
1054.481
1052.434
1050.281
1048.519
1045.039
1164.849
1156.837
1145.194
1135.224
1130.339
1130.055
1131.714
1133.012
1133.023
1131.719
1129.252
1125.78
1121.674
1117.604
1114.287
1112.119
1111.011
1110.531
1110.201
1109.71
1108.961
1107.982
1106.821
1105.5
1104.025
1102.419
1100.729
1099.017
1097.332
1095.695
1094.1
1092.524
1090.938
1089.32
1087.657
1085.945
1084.184
1082.377
1080.531
1078.655
1076.767
1074.898
1073.087
1071.377
1069.807
1068.401
1067.154
1066.029
1064.965
1063.879
1062.69
1061.333
1059.773
1058.013
1056.091
1054.062
1052.019
1049.912
1048.213
1044.86
1162.526
1151.281
1139.552
1132.318
1130.57
1131.934
1133.592
1134.108
1133.29
1131.306
1128.252
1124.339
1120.122
1116.376
1113.693
1112.188
1111.523
1111.189
1110.783
1110.132
1109.236
1108.146
1106.893
1105.483
1103.925
1102.259
1100.544
1098.839
1097.178
1095.565
1093.982
1092.4
1090.795
1089.149
1087.454
1085.71
1083.919
1082.085
1080.216
1078.326
1076.44
1074.593
1072.829
1071.191
1069.71
1068.394
1067.222
1066.141
1065.075
1063.941
1062.663
1061.193
1059.518
1057.662
1055.68
1053.637
1051.623
1049.579
1047.954
1044.721
1157.987
1144.948
1135.178
1131.448
1132.127
1134.007
1135.012
1134.664
1133.146
1130.561
1126.974
1122.765
1118.683
1115.481
1113.503
1112.563
1112.163
1111.821
1111.27
1110.461
1109.443
1108.259
1106.916
1105.417
1103.786
1102.078
1100.359
1098.674
1097.039
1095.444
1093.863
1092.267
1090.636
1088.959
1087.233
1085.458
1083.638
1081.779
1079.891
1077.995
1076.121
1074.311
1072.609
1071.053
1069.664
1068.434
1067.321
1066.259
1065.164
1063.956
1062.573
1060.986
1059.203
1057.27
1055.254
1053.221
1051.256
1049.288
1047.742
1044.618
1151.597
1139.155
1132.896
1132.39
1134.277
1135.746
1135.861
1134.777
1132.669
1129.51
1125.472
1121.187
1117.502
1114.994
1113.684
1113.142
1112.828
1112.372
1111.657
1110.713
1109.596
1108.323
1106.889
1105.305
1103.617
1101.89
1100.183
1098.524
1096.913
1095.327
1093.737
1092.119
1090.459
1088.751
1086.993
1085.189
1083.342
1081.461
1079.561
1077.667
1075.819
1074.06
1072.433
1070.968
1069.67
1068.512
1067.437
1066.367
1065.217
1063.915
1062.415
1060.713
1058.838
1056.85
1054.825
1052.827
1050.928
1049.043
1047.576
1044.545
1144.482
1135.176
1132.868
1134.436
1136.314
1136.901
1136.216
1134.554
1131.883
1128.169
1123.844
1119.759
1116.697
1114.927
1114.152
1113.812
1113.439
1112.821
1111.956
1110.905
1109.701
1108.338
1106.812
1105.155
1103.43
1101.705
1100.022
1098.39
1096.795
1095.207
1093.6
1091.955
1090.264
1088.524
1086.736
1084.903
1083.032
1081.133
1079.228
1077.35
1075.541
1073.848
1072.307
1070.935
1069.72
1068.617
1067.555
1066.45
1065.22
1063.808
1062.189
1060.381
1058.434
1056.418
1054.41
1052.466
1050.646
1048.844
1047.453
1044.495
1138.358
1133.726
1134.537
1136.713
1137.799
1137.495
1136.22
1134.044
1130.778
1126.594
1122.239
1118.639
1116.332
1115.223
1114.788
1114.471
1113.954
1113.173
1112.188
1111.05
1109.758
1108.299
1106.687
1104.977
1103.24
1101.532
1099.877
1098.268
1096.678
1095.078
1093.447
1091.773
1090.05
1088.279
1086.462
1084.603
1082.71
1080.8
1078.9
1077.051
1075.297
1073.682
1072.233
1070.952
1069.807
1068.737
1067.661
1066.493
1065.163
1063.632
1061.899
1060.002
1058.006
1055.988
1054.021
1052.147
1050.411
1048.69
1047.365
1044.462
1134.803
1134.591
1136.922
1138.549
1138.643
1137.692
1135.965
1133.224
1129.359
1124.903
1120.833
1117.942
1116.395
1115.776
1115.474
1115.052
1114.363
1113.447
1112.37
1111.149
1109.763
1108.209
1106.526
1104.785
1103.056
1101.376
1099.748
1098.151
1096.556
1094.937
1093.278
1091.572
1089.818
1088.017
1086.172
1084.289
1082.379
1080.466
1078.585
1076.778
1075.094
1073.568
1072.213
1071.014
1069.92
1068.856
1067.737
1066.482
1065.039
1063.387
1061.552
1059.587
1057.57
1055.575
1053.667
1051.874
1050.222
1048.576
1047.306
1044.437
1134.241
1136.843
1139.11
1139.681
1139.009
1137.648
1135.444
1132.051
1127.693
1123.274
1119.792
1117.713
1116.805
1116.456
1116.115
1115.525
1114.682
1113.665
1112.51
1111.199
1109.712
1108.071
1106.339
1104.594
1102.888
1101.237
1099.629
1098.034
1096.424
1094.78
1093.09
1091.352
1089.568
1087.738
1085.867
1083.963
1082.044
1080.139
1078.289
1076.542
1074.939
1073.507
1072.243
1071.11
1070.043
1068.957
1067.769
1066.409
1064.844
1063.08
1061.159
1059.153
1057.14
1055.192
1053.358
1051.65
1050.078
1048.495
1047.268
1044.415
1136.104
1139.341
1140.582
1140.211
1139.117
1137.402
1134.583
1130.529
1125.933
1121.906
1119.222
1117.912
1117.433
1117.143
1116.656
1115.895
1114.935
1113.84
1112.604
1111.193
1109.607
1107.898
1106.144
1104.413
1102.737
1101.112
1099.513
1097.91
1096.278
1094.605
1092.883
1091.115
1089.3
1087.443
1085.549
1083.629
1081.709
1079.825
1078.022
1076.348
1074.837
1073.5
1072.315
1071.228
1070.161
1069.026
1067.744
1066.267
1064.582
1062.717
1060.735
1058.713
1056.731
1054.847
1053.096
1051.472
1049.973
1048.44
1047.243
1044.391
1138.981
1141.249
1141.317
1140.417
1139.086
1136.877
1133.316
1128.757
1124.29
1120.967
1119.143
1118.43
1118.141
1117.753
1117.084
1116.185
1115.144
1113.977
1112.645
1111.128
1109.456
1107.705
1105.953
1104.25
1102.604
1100.995
1099.394
1097.774
1096.116
1094.411
1092.658
1090.859
1089.017
1087.134
1085.22
1083.292
1081.382
1079.533
1077.794
1076.205
1074.79
1073.541
1072.419
1071.354
1070.257
1069.046
1067.655
1066.054
1064.257
1062.313
1060.295
1058.285
1056.354
1054.547
1052.882
1051.338
1049.899
1048.404
1047.224
1044.36
1141.59
1142.306
1141.6
1140.52
1138.878
1135.951
1131.665
1126.928
1122.983
1120.546
1119.481
1119.12
1118.814
1118.247
1117.417
1116.424
1115.317
1114.066
1112.626
1111.007
1109.272
1107.507
1105.777
1104.105
1102.482
1100.88
1099.268
1097.623
1095.935
1094.199
1092.415
1090.587
1088.717
1086.812
1084.883
1082.957
1081.071
1079.273
1077.61
1076.115
1074.795
1073.624
1072.543
1071.47
1070.316
1069.006
1067.494
1065.774
1063.88
1061.88
1059.854
1057.88
1056.018
1054.297
1052.716
1051.241
1049.85
1048.378
1047.204
1044.32
1143.207
1142.718
1141.755
1140.56
1138.338
1134.555
1129.772
1125.289
1122.174
1120.627
1120.097
1119.838
1119.38
1118.63
1117.685
1116.629
1115.451
1114.096
1112.544
1110.842
1109.073
1107.319
1105.62
1103.977
1102.367
1100.76
1099.128
1097.456
1095.736
1093.968
1092.155
1090.299
1088.404
1086.479
1084.544
1082.631
1080.784
1079.053
1077.479
1076.081
1074.849
1073.736
1072.67
1071.56
1070.324
1068.899
1067.263
1065.433
1063.464
1061.435
1059.427
1057.511
1055.729
1054.095
1052.591
1051.173
1049.817
1048.356
1047.18
1044.269
1143.865
1142.875
1141.941
1140.398
1137.311
1132.746
1127.88
1124.071
1121.922
1121.101
1120.83
1120.478
1119.822
1118.93
1117.916
1116.803
1115.533
1114.061
1112.407
1110.648
1108.875
1107.148
1105.481
1103.859
1102.252
1100.63
1098.972
1097.269
1095.518
1093.72
1091.878
1089.995
1088.078
1086.14
1084.208
1082.322
1080.531
1078.88
1077.402
1076.099
1074.941
1073.864
1072.783
1071.609
1070.269
1068.72
1066.964
1065.042
1063.024
1060.993
1059.028
1057.185
1055.49
1053.939
1052.502
1051.129
1049.792
1048.332
1047.147
1044.207
1143.962
1143.079
1142.087
1139.813
1135.743
1130.724
1126.272
1123.421
1122.171
1121.801
1121.537
1120.991
1120.161
1119.184
1118.122
1116.934
1115.551
1113.961
1112.228
1110.445
1108.691
1106.997
1105.358
1103.745
1102.129
1100.485
1098.799
1097.065
1095.282
1093.455
1091.585
1089.678
1087.742
1085.799
1083.883
1082.04
1080.32
1078.761
1077.381
1076.165
1075.061
1073.992
1072.867
1071.603
1070.143
1068.47
1066.607
1064.615
1062.575
1060.57
1058.668
1056.908
1055.3
1053.824
1052.441
1051.098
1049.771
1048.303
1047.102
1044.133
1143.992
1143.387
1141.951
1138.632
1133.749
1128.788
1125.179
1123.358
1122.773
1122.554
1122.129
1121.379
1120.437
1119.414
1118.297
1117.007
1115.497
1113.806
1112.026
1110.249
1108.526
1106.865
1105.243
1103.629
1101.995
1100.325
1098.607
1096.841
1095.029
1093.173
1091.277
1089.348
1087.401
1085.463
1083.578
1081.794
1080.158
1078.698
1077.413
1076.267
1075.192
1074.102
1072.905
1071.531
1069.945
1068.154
1066.203
1064.168
1062.134
1060.178
1058.353
1056.681
1055.155
1053.742
1052.401
1051.075
1049.746
1048.264
1047.046
1044.048
1144.246
1143.622
1141.264
1136.848
1131.601
1127.246
1124.72
1123.778
1123.535
1123.228
1122.58
1121.68
1120.684
1119.624
1118.424
1117.007
1115.377
1113.615
1111.822
1110.07
1108.382
1106.745
1105.129
1103.503
1101.846
1100.146
1098.397
1096.6
1094.759
1092.876
1090.955
1089.009
1087.058
1085.14
1083.302
1081.593
1080.051
1078.69
1077.489
1076.393
1075.319
1074.177
1072.884
1071.388
1069.676
1067.781
1065.766
1063.717
1061.715
1059.827
1058.087
1056.502
1055.049
1053.688
1052.372
1051.052
1049.714
1048.214
1046.977
1043.954
1144.689
1143.47
1139.873
1134.652
1129.651
1126.321
1124.862
1124.491
1124.282
1123.757
1122.917
1121.94
1120.92
1119.801
1118.484
1116.933
1115.206
1113.407
1111.629
1109.912
1108.256
1106.632
1105.011
1103.365
1101.68
1099.948
1098.168
1096.342
1094.472
1092.563
1090.622
1088.665
1086.723
1084.839
1083.064
1081.443
1080.002
1078.735
1077.6
1076.527
1075.424
1074.203
1072.795
1071.17
1069.343
1067.364
1065.314
1063.278
1061.33
1059.522
1057.872
1056.367
1054.975
1053.651
1052.35
1051.025
1049.672
1048.153
1046.897
1043.852
1145.06
1142.63
1137.832
1132.391
1128.222
1126.083
1125.446
1125.287
1124.901
1124.144
1123.189
1122.19
1121.137
1119.92
1118.464
1116.792
1115.003
1113.203
1111.456
1109.775
1108.14
1106.518
1104.882
1103.211
1101.496
1099.732
1097.922
1096.067
1094.171
1092.238
1090.28
1088.322
1086.402
1084.569
1082.873
1081.35
1080.008
1078.822
1077.732
1076.653
1075.49
1074.166
1072.632
1070.882
1068.955
1066.919
1064.861
1062.864
1060.989
1059.269
1057.705
1056.271
1054.926
1053.625
1052.326
1050.991
1049.619
1048.079
1046.806
1043.743
1144.927
1140.977
1135.422
1130.469
1127.509
1126.438
1126.245
1126.001
1125.357
1124.435
1123.444
1122.437
1121.313
1119.962
1118.366
1116.604
1114.792
1113.015
1111.306
1109.654
1108.028
1106.397
1104.739
1103.039
1101.292
1099.498
1097.658
1095.776
1093.854
1091.9
1089.934
1087.986
1086.105
1084.34
1082.736
1081.314
1080.065
1078.942
1077.868
1076.751
1075.503
1074.059
1072.395
1070.532
1068.526
1066.462
1064.424
1062.487
1060.697
1059.066
1057.58
1056.204
1054.893
1053.602
1052.297
1050.945
1049.553
1047.995
1046.705
1043.63
1143.947
1138.652
1133.08
1129.21
1127.52
1127.17
1127.044
1126.546
1125.681
1124.691
1123.706
1122.661
1121.421
1119.918
1118.204
1116.393
1114.59
1112.851
1111.176
1109.54
1107.912
1106.265
1104.58
1102.849
1101.071
1099.246
1097.379
1095.47
1093.524
1091.555
1089.589
1087.668
1085.842
1084.16
1082.656
1081.334
1080.164
1079.079
1077.991
1076.807
1075.45
1073.877
1072.089
1070.129
1068.074
1066.009
1064.017
1062.157
1060.455
1058.91
1057.492
1056.16
1054.868
1053.577
1052.26
1050.889
1049.476
1047.901
1046.597
1043.514
1142.005
1136.047
1131.25
1128.759
1128.087
1128.023
1127.694
1126.922
1125.938
1124.954
1123.966
1122.833
1121.44
1119.795
1118.002
1116.181
1114.41
1112.708
1111.058
1109.428
1107.788
1106.117
1104.403
1102.64
1100.831
1098.978
1097.084
1095.149
1093.184
1091.207
1089.255
1087.376
1085.622
1084.035
1082.634
1081.404
1080.291
1079.216
1078.083
1076.806
1075.324
1073.621
1071.721
1069.69
1067.613
1065.576
1063.65
1061.876
1060.264
1058.795
1057.432
1056.129
1054.845
1053.546
1052.211
1050.82
1049.388
1047.798
1046.482
1043.398
1139.346
1133.678
1130.229
1129.038
1128.939
1128.786
1128.149
1127.19
1126.191
1125.233
1124.195
1122.922
1121.369
1119.614
1117.785
1115.985
1114.253
1112.584
1110.947
1109.311
1107.652
1105.953
1104.207
1102.413
1100.575
1098.694
1096.773
1094.816
1092.836
1090.863
1088.94
1087.12
1085.453
1083.969
1082.668
1081.512
1080.432
1079.335
1078.127
1076.736
1075.122
1073.296
1071.306
1069.231
1067.161
1065.176
1063.33
1061.647
1060.12
1058.715
1057.392
1056.106
1054.819
1053.505
1052.151
1050.74
1049.291
1047.688
1046.363
1043.283
1136.485
1132.001
1130.081
1129.8
1129.803
1129.347
1128.447
1127.428
1126.472
1125.508
1124.357
1122.915
1121.221
1119.4
1117.575
1115.812
1114.118
1112.47
1110.834
1109.184
1107.499
1105.77
1103.992
1102.169
1100.302
1098.394
1096.448
1094.471
1092.486
1090.53
1088.653
1086.91
1085.341
1083.961
1082.749
1081.647
1080.568
1079.418
1078.11
1076.59
1074.847
1072.912
1070.857
1068.768
1066.733
1064.818
1063.062
1061.468
1060.015
1058.662
1057.364
1056.082
1054.785
1053.454
1052.078
1050.649
1049.185
1047.573
1046.241
1043.172
1134.032
1131.264
1130.629
1130.729
1130.491
1129.702
1128.674
1127.694
1126.775
1125.738
1124.423
1122.814
1121.021
1119.181
1117.386
1115.664
1113.999
1112.359
1110.714
1109.043
1107.33
1105.569
1103.76
1101.907
1100.013
1098.08
1096.111
1094.121
1092.141
1090.218
1088.406
1086.754
1085.29
1084.009
1082.868
1081.791
1080.683
1079.45
1078.022
1076.369
1074.504
1072.484
1070.392
1068.318
1066.341
1064.51
1062.846
1061.334
1059.942
1058.625
1057.341
1056.054
1054.741
1053.39
1051.995
1050.549
1049.073
1047.454
1046.119
1043.066
1132.484
1131.427
1131.547
1131.554
1130.939
1129.931
1128.912
1128.004
1127.062
1125.882
1124.384
1122.642
1120.8
1118.976
1117.223
1115.536
1113.887
1112.244
1110.583
1108.885
1107.141
1105.348
1103.51
1101.63
1099.709
1097.751
1095.763
1093.769
1091.81
1089.938
1088.206
1086.656
1085.297
1084.102
1083.008
1081.926
1080.756
1079.417
1077.858
1076.073
1074.105
1072.026
1069.927
1067.895
1065.994
1064.255
1062.679
1061.239
1059.894
1058.599
1057.316
1056.017
1054.686
1053.314
1051.901
1050.441
1048.955
1047.334
1045.999
1042.968
1132.039
1132.207
1132.491
1132.128
1131.196
1130.136
1129.206
1128.332
1127.284
1125.917
1124.253
1122.427
1120.582
1118.796
1117.083
1115.42
1113.776
1112.121
1110.437
1108.71
1106.934
1105.111
1103.244
1101.337
1099.39
1097.409
1095.41
1093.424
1091.502
1089.699
1088.062
1086.618
1085.357
1084.229
1083.154
1082.034
1080.775
1079.31
1077.615
1075.713
1073.664
1071.556
1069.481
1067.512
1065.698
1064.051
1062.555
1061.173
1059.861
1058.576
1057.286
1055.97
1054.619
1053.228
1051.799
1050.327
1048.835
1047.214
1045.884
1042.879
1132.525
1133.22
1133.22
1132.449
1131.373
1130.394
1129.551
1128.624
1127.403
1125.844
1124.058
1122.201
1120.384
1118.642
1116.961
1115.31
1113.659
1111.987
1110.275
1108.516
1106.708
1104.856
1102.962
1101.028
1099.057
1097.058
1095.057
1093.096
1091.229
1089.511
1087.979
1086.64
1085.462
1084.375
1083.287
1082.097
1080.724
1079.125
1077.301
1075.299
1073.198
1071.092
1069.065
1067.177
1065.455
1063.896
1062.468
1061.13
1059.836
1058.55
1057.247
1055.911
1054.54
1053.131
1051.689
1050.208
1048.713
1047.097
1045.776
1042.801
1133.571
1134.123
1133.65
1132.618
1131.58
1130.729
1129.899
1128.83
1127.402
1125.683
1123.832
1121.988
1120.214
1118.51
1116.848
1115.197
1113.533
1111.836
1110.094
1108.303
1106.465
1104.585
1102.664
1100.705
1098.711
1096.702
1094.713
1092.793
1091
1089.38
1087.956
1086.713
1085.597
1084.522
1083.387
1082.1
1080.598
1078.863
1076.923
1074.847
1072.725
1070.649
1068.691
1066.893
1065.264
1063.782
1062.409
1061.1
1059.813
1058.518
1057.196
1055.841
1054.45
1053.026
1051.573
1050.087
1048.593
1046.984
1045.678
1042.733
1134.704
1134.723
1133.848
1132.769
1131.877
1131.11
1130.188
1128.914
1127.292
1125.469
1123.606
1121.8
1120.069
1118.392
1116.737
1115.078
1113.394
1111.669
1109.895
1108.072
1106.205
1104.298
1102.352
1100.367
1098.357
1096.349
1094.386
1092.527
1090.823
1089.311
1087.992
1086.829
1085.748
1084.651
1083.439
1082.032
1080.392
1078.529
1076.495
1074.375
1072.263
1070.241
1068.367
1066.663
1065.12
1063.703
1062.37
1061.076
1059.785
1058.475
1057.134
1055.759
1054.351
1052.914
1051.453
1049.964
1048.476
1046.879
1045.591
1042.676
1135.579
1135.013
1133.956
1133.005
1132.261
1131.471
1130.367
1128.873
1127.104
1125.237
1123.401
1121.64
1119.944
1118.281
1116.623
1114.949
1113.239
1111.483
1109.676
1107.823
1105.929
1103.996
1102.024
1100.018
1097.999
1096.005
1094.089
1092.308
1090.707
1089.303
1088.078
1086.972
1085.895
1084.743
1083.426
1081.886
1080.11
1078.134
1076.033
1073.9
1071.825
1069.878
1068.097
1066.484
1065.016
1063.651
1062.342
1061.051
1059.75
1058.421
1057.06
1055.666
1054.244
1052.797
1051.331
1049.844
1048.364
1046.783
1045.517
1042.627
1136.055
1135.115
1134.115
1133.358
1132.673
1131.745
1130.41
1128.727
1126.876
1125.016
1123.224
1121.504
1119.829
1118.169
1116.502
1114.806
1113.067
1111.277
1109.439
1107.558
1105.639
1103.679
1101.682
1099.661
1097.645
1095.682
1093.831
1092.144
1090.652
1089.353
1088.204
1087.126
1086.018
1084.781
1083.339
1081.659
1079.757
1077.693
1075.555
1073.439
1071.425
1069.567
1067.88
1066.351
1064.945
1063.615
1062.318
1061.022
1059.704
1058.355
1056.975
1055.565
1054.13
1052.676
1051.208
1049.726
1048.26
1046.698
1045.457
1042.583
1136.202
1135.197
1134.404
1133.792
1133.036
1131.886
1130.326
1128.516
1126.643
1124.821
1123.074
1121.383
1119.718
1118.054
1116.369
1114.646
1112.875
1111.052
1109.185
1107.278
1105.333
1103.348
1101.329
1099.301
1097.303
1095.391
1093.623
1092.041
1090.66
1089.452
1088.354
1087.271
1086.1
1084.752
1083.172
1081.356
1079.346
1077.222
1075.079
1073.008
1071.073
1069.309
1067.713
1066.257
1064.897
1063.589
1062.293
1060.983
1059.646
1058.278
1056.879
1055.455
1054.011
1052.552
1051.087
1049.615
1048.166
1046.624
1045.408
1042.54
1136.203
1135.391
1134.822
1134.227
1133.282
1131.882
1130.147
1128.28
1126.43
1124.655
1122.945
1121.271
1119.606
1117.929
1116.222
1114.468
1112.663
1110.81
1108.916
1106.983
1105.012
1103.002
1100.969
1098.946
1096.984
1095.142
1093.473
1092.002
1090.724
1089.588
1088.51
1087.389
1086.124
1084.645
1082.924
1080.984
1078.892
1076.74
1074.622
1072.618
1070.775
1069.105
1067.591
1066.193
1064.865
1063.565
1062.261
1060.934
1059.577
1058.19
1056.775
1055.34
1053.889
1052.429
1050.97
1049.512
1048.084
1046.563
1045.37
1042.492
1136.254
1135.746
1135.301
1134.577
1133.375
1131.755
1129.918
1128.051
1126.247
1124.515
1122.828
1121.159
1119.488
1117.793
1116.057
1114.27
1112.432
1110.551
1108.631
1106.673
1104.676
1102.645
1100.607
1098.606
1096.699
1094.946
1093.385
1092.025
1090.835
1089.744
1088.653
1087.46
1086.077
1084.457
1082.601
1080.558
1078.413
1076.264
1074.198
1072.277
1070.53
1068.95
1067.505
1066.15
1064.84
1063.537
1062.219
1060.873
1059.496
1058.092
1056.664
1055.22
1053.765
1052.308
1050.86
1049.42
1048.014
1046.512
1045.338
1042.434
1136.481
1136.223
1135.742
1134.779
1133.32
1131.547
1129.679
1127.849
1126.093
1124.391
1122.716
1121.046
1119.361
1117.642
1115.874
1114.052
1112.184
1110.277
1108.333
1106.348
1104.326
1102.281
1100.252
1098.291
1096.46
1094.809
1093.361
1092.103
1090.979
1089.901
1088.763
1087.468
1085.95
1084.188
1082.211
1080.093
1077.928
1075.811
1073.818
1071.992
1070.339
1068.838
1067.447
1066.12
1064.815
1063.503
1062.166
1060.8
1059.405
1057.985
1056.547
1055.096
1053.641
1052.192
1050.759
1049.34
1047.956
1046.47
1045.306
1042.357
1136.899
1136.73
1136.059
1134.815
1133.153
1131.308
1129.459
1127.678
1125.96
1124.276
1122.604
1120.926
1119.222
1117.472
1115.669
1113.816
1111.921
1109.989
1108.019
1106.008
1103.965
1101.918
1099.914
1098.014
1096.276
1094.736
1093.399
1092.226
1091.14
1090.04
1088.822
1087.402
1085.74
1083.844
1081.77
1079.608
1077.454
1075.395
1073.49
1071.761
1070.196
1068.76
1067.408
1066.095
1064.786
1063.458
1062.102
1060.716
1059.305
1057.872
1056.425
1054.971
1053.521
1052.083
1050.669
1049.272
1047.909
1046.432
1045.267
1042.258
1137.436
1137.159
1136.204
1134.709
1132.924
1131.073
1129.271
1127.534
1125.839
1124.164
1122.489
1120.797
1119.066
1117.282
1115.445
1113.563
1111.643
1109.686
1107.689
1105.654
1103.599
1101.564
1099.605
1097.786
1096.153
1094.728
1093.491
1092.378
1091.297
1090.141
1088.814
1087.254
1085.449
1083.437
1081.295
1079.12
1077.006
1075.026
1073.218
1071.582
1070.093
1068.708
1067.38
1066.069
1064.748
1063.402
1062.026
1060.622
1059.196
1057.753
1056.301
1054.848
1053.405
1051.984
1050.591
1049.217
1047.869
1046.393
1045.213
1042.131
1137.995
1137.426
1136.18
1134.509
1132.681
1130.865
1129.112
1127.406
1125.725
1124.051
1122.367
1120.654
1118.891
1117.072
1115.203
1113.294
1111.351
1109.368
1107.344
1105.289
1103.234
1101.229
1099.337
1097.614
1096.096
1094.781
1093.624
1092.543
1091.431
1090.186
1088.728
1087.022
1085.086
1082.983
1080.804
1078.648
1076.6
1074.711
1073
1071.45
1070.023
1068.673
1067.356
1066.038
1064.7
1063.333
1061.939
1060.519
1059.081
1057.63
1056.175
1054.727
1053.298
1051.896
1050.525
1049.172
1047.832
1046.347
1045.135
1041.974
1138.405
1137.512
1136.03
1134.268
1132.456
1130.69
1128.975
1127.288
1125.612
1123.935
1122.236
1120.493
1118.694
1116.841
1114.944
1113.013
1111.044
1109.034
1106.986
1104.92
1102.88
1100.926
1099.119
1097.507
1096.104
1094.886
1093.784
1092.699
1091.522
1090.16
1088.558
1086.71
1084.663
1082.498
1080.316
1078.208
1076.243
1074.452
1072.834
1071.357
1069.976
1068.646
1067.328
1065.997
1064.64
1063.254
1061.842
1060.409
1058.961
1057.505
1056.052
1054.613
1053.2
1051.82
1050.472
1049.133
1047.791
1046.285
1045.026
1041.79
1138.625
1137.438
1135.804
1134.028
1132.262
1130.541
1128.851
1127.174
1125.499
1123.812
1122.089
1120.312
1118.477
1116.593
1114.672
1112.717
1110.722
1108.685
1106.617
1104.554
1102.55
1100.667
1098.961
1097.466
1096.172
1095.03
1093.951
1092.827
1091.552
1090.054
1088.304
1086.328
1084.196
1082.003
1079.848
1077.811
1075.941
1074.248
1072.712
1071.293
1069.944
1068.621
1067.294
1065.945
1064.568
1063.164
1061.737
1060.292
1058.836
1057.379
1055.932
1054.507
1053.114
1051.758
1050.428
1049.097
1047.74
1046.201
1044.879
1041.584
1138.662
1137.246
1135.556
1133.816
1132.1
1130.41
1128.733
1127.061
1125.382
1123.678
1121.924
1120.109
1118.24
1116.33
1114.387
1112.407
1110.384
1108.322
1106.246
1104.202
1102.254
1100.461
1098.869
1097.489
1096.29
1095.196
1094.105
1092.906
1091.508
1089.862
1087.971
1085.889
1083.703
1081.515
1079.415
1077.466
1075.696
1074.094
1072.628
1071.251
1069.918
1068.592
1067.25
1065.882
1064.486
1063.065
1061.624
1060.17
1058.71
1057.255
1055.818
1054.411
1053.041
1051.707
1050.391
1049.056
1047.671
1046.089
1044.692
1041.369
1138.528
1137
1135.328
1133.638
1131.959
1130.288
1128.618
1126.947
1125.258
1123.527
1121.736
1119.884
1117.986
1116.054
1114.088
1112.081
1110.03
1107.95
1105.88
1103.876
1102.004
1100.318
1098.844
1097.572
1096.443
1095.365
1094.225
1092.92
1091.38
1089.586
1087.57
1085.41
1083.204
1081.052
1079.029
1077.178
1075.504
1073.983
1072.571
1071.221
1069.892
1068.555
1067.195
1065.807
1064.393
1062.957
1061.505
1060.045
1058.584
1057.136
1055.714
1054.328
1052.981
1051.666
1050.354
1049.004
1047.576
1045.944
1044.466
1041.163
1138.29
1136.759
1135.136
1133.486
1131.831
1130.17
1128.506
1126.83
1125.122
1123.355
1121.525
1119.641
1117.719
1115.765
1113.774
1111.738
1109.662
1107.576
1105.53
1103.588
1101.811
1100.241
1098.884
1097.702
1096.615
1095.515
1094.291
1092.856
1091.166
1089.232
1087.115
1084.91
1082.718
1080.628
1078.697
1076.947
1075.362
1073.907
1072.533
1071.196
1069.861
1068.508
1067.128
1065.721
1064.291
1062.842
1061.382
1059.918
1058.46
1057.024
1055.62
1054.258
1052.933
1051.629
1050.311
1048.931
1047.449
1045.764
1044.208
1040.988
1138.012
1136.553
1134.971
1133.35
1131.709
1130.055
1128.393
1126.705
1124.966
1123.16
1121.293
1119.382
1117.44
1115.463
1113.443
1111.378
1109.286
1107.21
1105.209
1103.349
1101.683
1100.233
1098.981
1097.865
1096.784
1095.626
1094.288
1092.706
1090.867
1088.813
1086.626
1084.41
1082.261
1080.254
1078.423
1076.768
1075.261
1073.855
1072.504
1071.168
1069.821
1068.449
1067.05
1065.625
1064.181
1062.722
1061.256
1059.791
1058.342
1056.921
1055.539
1054.2
1052.894
1051.592
1050.254
1048.832
1047.286
1045.554
1043.933
1040.875
1137.801
1136.373
1134.823
1133.223
1131.591
1129.943
1128.276
1126.565
1124.788
1122.942
1121.044
1119.112
1117.148
1115.146
1113.095
1111.006
1108.911
1106.863
1104.929
1103.17
1101.623
1100.289
1099.123
1098.04
1096.929
1095.678
1094.203
1092.469
1090.493
1088.344
1086.121
1083.927
1081.847
1079.935
1078.205
1076.638
1075.192
1073.82
1072.479
1071.135
1069.77
1068.379
1066.961
1065.521
1064.065
1062.597
1061.128
1059.668
1058.231
1056.83
1055.472
1054.155
1052.858
1051.547
1050.176
1048.699
1047.087
1045.322
1043.662
1040.856
1137.614
1136.208
1134.69
1133.103
1131.478
1129.832
1128.15
1126.404
1124.584
1122.703
1120.781
1118.83
1116.843
1114.81
1112.731
1110.627
1108.545
1106.548
1104.702
1103.057
1101.631
1100.4
1099.294
1098.208
1097.029
1095.656
1094.031
1092.148
1090.056
1087.845
1085.62
1083.477
1081.485
1079.675
1078.04
1076.546
1075.146