/*--------------------------------*- C++ -*----------------------------------*\
| =========                 |                                                 |
| \\      /  F ield         | OpenFOAM: The Open Source CFD Toolbox           |
|  \\    /   O peration     | Version:  2312                                  |
|   \\  /    A nd           | Website:  www.openfoam.com                      |
|    \\/     M anipulation  |                                                 |
\*---------------------------------------------------------------------------*/
FoamFile
{
    version     2.0;
    format      ascii;
    arch        "LSB;label=32;scalar=64";
    class       volScalarField;
    location    "1500";
    object      ILambda_4_0;
}
// * * * * * * * * * * * * * * * * * * * * * * * * * * * * * * * * * * * * * //

dimensions      [1 0 -3 0 0 0 0];

internalField   nonuniform List<scalar> 
12000
(
1226.32
1225.642
1224.947
1224.245
1223.537
1222.823
1222.103
1221.376
1220.64
1219.896
1219.142
1218.377
1217.6
1216.811
1216.008
1215.191
1214.358
1213.51
1212.644
1211.762
1210.861
1209.943
1209.005
1208.049
1207.073
1206.078
1205.064
1204.03
1202.977
1201.905
1200.815
1199.706
1198.579
1197.436
1196.276
1195.1
1193.908
1192.703
1191.485
1190.254
1189.012
1187.76
1186.498
1185.229
1183.953
1182.671
1181.384
1180.094
1178.802
1177.508
1176.214
1174.921
1173.63
1172.342
1171.057
1169.773
1168.506
1167.188
1166.099
1164.033
1217.635
1216.795
1215.929
1215.043
1214.138
1213.212
1212.266
1211.298
1210.308
1209.294
1208.257
1207.196
1206.111
1205.002
1203.869
1202.712
1201.532
1200.33
1199.106
1197.862
1196.597
1195.315
1194.014
1192.698
1191.367
1190.024
1188.669
1187.304
1185.931
1184.552
1183.169
1181.783
1180.397
1179.011
1177.629
1176.251
1174.881
1173.518
1172.166
1170.826
1169.499
1168.187
1166.891
1165.614
1164.355
1163.118
1161.901
1160.708
1159.537
1158.391
1157.27
1156.174
1155.103
1154.057
1153.037
1152.039
1151.072
1150.088
1149.28
1147.773
1209.764
1208.663
1207.521
1206.348
1205.146
1203.918
1202.665
1201.388
1200.089
1198.771
1197.434
1196.081
1194.714
1193.335
1191.945
1190.548
1189.144
1187.737
1186.329
1184.922
1183.517
1182.117
1180.725
1179.342
1177.97
1176.611
1175.267
1173.94
1172.631
1171.342
1170.074
1168.829
1167.608
1166.413
1165.244
1164.101
1162.987
1161.902
1160.846
1159.82
1158.823
1157.858
1156.923
1156.018
1155.144
1154.3
1153.487
1152.703
1151.947
1151.221
1150.522
1149.85
1149.203
1148.581
1147.983
1147.403
1146.847
1146.281
1145.82
1144.917
1197.17
1195.72
1194.25
1192.772
1191.292
1189.812
1188.335
1186.865
1185.402
1183.95
1182.512
1181.088
1179.681
1178.293
1176.926
1175.581
1174.261
1172.966
1171.699
1170.459
1169.25
1168.07
1166.922
1165.806
1164.722
1163.672
1162.655
1161.671
1160.722
1159.806
1158.923
1158.074
1157.258
1156.475
1155.724
1155.004
1154.316
1153.657
1153.028
1152.428
1151.854
1151.308
1150.787
1150.291
1149.818
1149.368
1148.939
1148.529
1148.139
1147.765
1147.408
1147.066
1146.736
1146.418
1146.109
1145.807
1145.512
1145.201
1144.948
1144.382
1181.236
1179.865
1178.505
1177.169
1175.862
1174.586
1173.343
1172.133
1170.958
1169.818
1168.714
1167.646
1166.615
1165.62
1164.662
1163.741
1162.856
1162.008
1161.195
1160.417
1159.674
1158.964
1158.288
1157.643
1157.029
1156.445
1155.891
1155.364
1154.864
1154.389
1153.939
1153.512
1153.107
1152.722
1152.357
1152.01
1151.68
1151.366
1151.067
1150.781
1150.507
1150.245
1149.993
1149.749
1149.514
1149.286
1149.063
1148.845
1148.631
1148.42
1148.21
1148.001
1147.791
1147.579
1147.363
1147.141
1146.915
1146.66
1146.451
1145.926
1168.544
1167.644
1166.765
1165.919
1165.11
1164.338
1163.602
1162.902
1162.237
1161.606
1161.008
1160.442
1159.906
1159.399
1158.92
1158.467
1158.038
1157.634
1157.251
1156.889
1156.546
1156.221
1155.913
1155.62
1155.341
1155.074
1154.819
1154.574
1154.339
1154.111
1153.89
1153.676
1153.466
1153.261
1153.059
1152.859
1152.661
1152.464
1152.268
1152.07
1151.872
1151.673
1151.47
1151.266
1151.057
1150.845
1150.629
1150.407
1150.18
1149.947
1149.708
1149.46
1149.205
1148.94
1148.665
1148.377
1148.079
1147.743
1147.466
1146.792
1162.962
1162.555
1162.158
1161.781
1161.425
1161.09
1160.774
1160.476
1160.195
1159.927
1159.673
1159.431
1159.198
1158.974
1158.758
1158.548
1158.344
1158.144
1157.947
1157.753
1157.56
1157.368
1157.177
1156.984
1156.791
1156.596
1156.398
1156.198
1155.995
1155.788
1155.577
1155.362
1155.142
1154.917
1154.687
1154.451
1154.209
1153.961
1153.707
1153.446
1153.178
1152.902
1152.62
1152.329
1152.031
1151.724
1151.409
1151.085
1150.752
1150.409
1150.056
1149.693
1149.318
1148.931
1148.531
1148.115
1147.688
1147.214
1146.822
1145.923
1163.163
1163.016
1162.854
1162.684
1162.512
1162.337
1162.159
1161.978
1161.794
1161.607
1161.416
1161.221
1161.022
1160.818
1160.609
1160.396
1160.177
1159.953
1159.724
1159.489
1159.248
1159.002
1158.749
1158.491
1158.225
1157.954
1157.675
1157.39
1157.098
1156.799
1156.492
1156.178
1155.856
1155.526
1155.188
1154.841
1154.486
1154.123
1153.75
1153.368
1152.976
1152.575
1152.164
1151.744
1151.312
1150.871
1150.418
1149.955
1149.48
1148.993
1148.495
1147.984
1147.46
1146.923
1146.371
1145.801
1145.221
1144.586
1144.062
1142.909
1165.421
1165.199
1164.956
1164.703
1164.445
1164.181
1163.913
1163.641
1163.365
1163.084
1162.798
1162.507
1162.212
1161.91
1161.604
1161.291
1160.972
1160.647
1160.316
1159.977
1159.632
1159.279
1158.918
1158.549
1158.172
1157.787
1157.393
1156.99
1156.577
1156.155
1155.723
1155.281
1154.829
1154.366
1153.892
1153.408
1152.913
1152.406
1151.888
1151.358
1150.818
1150.265
1149.701
1149.125
1148.538
1147.939
1147.328
1146.706
1146.072
1145.427
1144.77
1144.101
1143.42
1142.727
1142.021
1141.299
1140.57
1139.784
1139.135
1137.758
1165.895
1165.616
1165.313
1164.997
1164.673
1164.34
1164
1163.653
1163.298
1162.935
1162.564
1162.185
1161.796
1161.398
1160.991
1160.574
1160.147
1159.709
1159.261
1158.803
1158.333
1157.852
1157.359
1156.855
1156.339
1155.811
1155.272
1154.72
1154.156
1153.58
1152.992
1152.392
1151.78
1151.155
1150.52
1149.872
1149.214
1148.544
1147.863
1147.171
1146.47
1145.758
1145.037
1144.306
1143.567
1142.82
1142.064
1141.301
1140.531
1139.754
1138.971
1138.181
1137.386
1136.584
1135.777
1134.96
1134.144
1133.277
1132.563
1131.089
1165.505
1165.117
1164.701
1164.268
1163.821
1163.362
1162.891
1162.409
1161.915
1161.41
1160.892
1160.362
1159.82
1159.266
1158.699
1158.12
1157.528
1156.924
1156.307
1155.679
1155.037
1154.384
1153.719
1153.043
1152.354
1151.655
1150.945
1150.225
1149.494
1148.754
1148.004
1147.246
1146.48
1145.706
1144.925
1144.137
1143.343
1142.544
1141.74
1140.932
1140.121
1139.307
1138.491
1137.674
1136.856
1136.038
1135.22
1134.404
1133.59
1132.778
1131.969
1131.163
1130.361
1129.562
1128.766
1127.971
1127.186
1126.363
1125.687
1124.317
1163.19
1162.641
1162.061
1161.46
1160.844
1160.214
1159.57
1158.914
1158.245
1157.564
1156.871
1156.166
1155.45
1154.723
1153.985
1153.236
1152.478
1151.711
1150.934
1150.149
1149.357
1148.557
1147.751
1146.939
1146.122
1145.3
1144.475
1143.646
1142.816
1141.983
1141.15
1140.316
1139.483
1138.652
1137.822
1136.996
1136.173
1135.355
1134.542
1133.734
1132.933
1132.14
1131.354
1130.577
1129.809
1129.05
1128.302
1127.564
1126.838
1126.123
1125.419
1124.727
1124.047
1123.378
1122.721
1122.072
1121.437
1120.778
1120.241
1119.153
1158.475
1157.755
1157.005
1156.236
1155.453
1154.66
1153.858
1153.047
1152.228
1151.403
1150.572
1149.736
1148.896
1148.052
1147.205
1146.356
1145.506
1144.656
1143.806
1142.957
1142.111
1141.267
1140.427
1139.591
1138.76
1137.936
1137.118
1136.307
1135.505
1134.711
1133.927
1133.153
1132.389
1131.637
1130.897
1130.169
1129.455
1128.753
1128.066
1127.392
1126.733
1126.089
1125.461
1124.847
1124.25
1123.668
1123.102
1122.552
1122.018
1121.5
1120.997
1120.509
1120.036
1119.577
1119.131
1118.696
1118.274
1117.838
1117.485
1116.744
1151.601
1150.767
1149.912
1149.047
1148.18
1147.313
1146.448
1145.585
1144.726
1143.871
1143.022
1142.179
1141.342
1140.514
1139.694
1138.883
1138.083
1137.292
1136.513
1135.746
1134.991
1134.248
1133.52
1132.805
1132.104
1131.418
1130.748
1130.093
1129.453
1128.83
1128.223
1127.633
1127.06
1126.503
1125.963
1125.44
1124.934
1124.445
1123.973
1123.518
1123.079
1122.657
1122.251
1121.862
1121.488
1121.129
1120.786
1120.457
1120.143
1119.842
1119.554
1119.279
1119.014
1118.76
1118.516
1118.277
1118.046
1117.803
1117.609
1117.149
1143.814
1143.03
1142.234
1141.439
1140.651
1139.873
1139.106
1138.352
1137.611
1136.884
1136.172
1135.475
1134.794
1134.128
1133.479
1132.846
1132.23
1131.632
1131.05
1130.486
1129.94
1129.411
1128.9
1128.406
1127.93
1127.471
1127.03
1126.606
1126.198
1125.808
1125.433
1125.075
1124.733
1124.406
1124.094
1123.797
1123.514
1123.245
1122.99
1122.747
1122.516
1122.298
1122.09
1121.894
1121.708
1121.531
1121.363
1121.204
1121.053
1120.908
1120.77
1120.637
1120.508
1120.383
1120.259
1120.134
1120.01
1119.868
1119.755
1119.426
1137.494
1136.889
1136.279
1135.676
1135.088
1134.517
1133.962
1133.426
1132.908
1132.408
1131.926
1131.463
1131.018
1130.59
1130.181
1129.788
1129.413
1129.055
1128.713
1128.388
1128.078
1127.783
1127.503
1127.237
1126.986
1126.747
1126.521
1126.307
1126.105
1125.915
1125.734
1125.564
1125.402
1125.25
1125.106
1124.969
1124.84
1124.716
1124.599
1124.487
1124.38
1124.276
1124.177
1124.08
1123.986
1123.894
1123.804
1123.714
1123.625
1123.535
1123.444
1123.352
1123.256
1123.158
1123.054
1122.944
1122.827
1122.687
1122.573
1122.224
1134.074
1133.728
1133.375
1133.029
1132.695
1132.376
1132.072
1131.783
1131.509
1131.25
1131.004
1130.771
1130.552
1130.345
1130.15
1129.967
1129.794
1129.631
1129.477
1129.332
1129.196
1129.067
1128.945
1128.829
1128.719
1128.615
1128.514
1128.418
1128.326
1128.236
1128.148
1128.062
1127.978
1127.894
1127.811
1127.728
1127.644
1127.559
1127.473
1127.385
1127.295
1127.203
1127.108
1127.009
1126.908
1126.802
1126.693
1126.579
1126.461
1126.338
1126.209
1126.074
1125.934
1125.785
1125.629
1125.463
1125.288
1125.085
1124.918
1124.462
1134.156
1134.024
1133.879
1133.733
1133.593
1133.459
1133.332
1133.212
1133.099
1132.991
1132.89
1132.793
1132.7
1132.611
1132.525
1132.442
1132.362
1132.282
1132.204
1132.126
1132.049
1131.97
1131.891
1131.811
1131.729
1131.645
1131.558
1131.469
1131.376
1131.281
1131.181
1131.077
1130.969
1130.857
1130.74
1130.619
1130.492
1130.361
1130.224
1130.082
1129.934
1129.781
1129.623
1129.459
1129.289
1129.114
1128.933
1128.747
1128.555
1128.357
1128.152
1127.942
1127.725
1127.501
1127.269
1127.027
1126.778
1126.497
1126.268
1125.697
1136.657
1136.631
1136.581
1136.521
1136.456
1136.39
1136.321
1136.251
1136.179
1136.105
1136.028
1135.948
1135.866
1135.78
1135.691
1135.598
1135.5
1135.398
1135.292
1135.181
1135.064
1134.943
1134.816
1134.684
1134.546
1134.403
1134.253
1134.099
1133.938
1133.771
1133.599
1133.421
1133.237
1133.047
1132.852
1132.651
1132.445
1132.233
1132.016
1131.794
1131.567
1131.335
1131.099
1130.857
1130.611
1130.361
1130.107
1129.848
1129.586
1129.319
1129.048
1128.773
1128.494
1128.21
1127.92
1127.623
1127.321
1126.99
1126.718
1126.077
1139.965
1139.921
1139.848
1139.758
1139.659
1139.552
1139.438
1139.318
1139.192
1139.059
1138.92
1138.776
1138.625
1138.468
1138.305
1138.135
1137.96
1137.779
1137.591
1137.398
1137.198
1136.993
1136.783
1136.566
1136.345
1136.117
1135.885
1135.648
1135.406
1135.159
1134.907
1134.652
1134.392
1134.128
1133.86
1133.589
1133.314
1133.037
1132.756
1132.473
1132.187
1131.898
1131.608
1131.315
1131.021
1130.725
1130.428
1130.129
1129.829
1129.528
1129.226
1128.922
1128.616
1128.308
1127.998
1127.682
1127.365
1127.019
1126.738
1126.085
1142.59
1142.47
1142.318
1142.148
1141.966
1141.775
1141.576
1141.37
1141.157
1140.938
1140.713
1140.482
1140.246
1140.004
1139.757
1139.505
1139.248
1138.987
1138.722
1138.452
1138.179
1137.902
1137.622
1137.338
1137.051
1136.762
1136.47
1136.176
1135.879
1135.581
1135.281
1134.979
1134.676
1134.372
1134.067
1133.762
1133.456
1133.149
1132.843
1132.536
1132.23
1131.924
1131.618
1131.313
1131.009
1130.706
1130.403
1130.101
1129.801
1129.501
1129.202
1128.903
1128.604
1128.305
1128.004
1127.7
1127.396
1127.066
1126.797
1126.171
1144.04
1143.836
1143.599
1143.346
1143.084
1142.814
1142.538
1142.258
1141.973
1141.684
1141.392
1141.097
1140.8
1140.499
1140.197
1139.892
1139.586
1139.279
1138.97
1138.66
1138.349
1138.038
1137.726
1137.414
1137.101
1136.789
1136.477
1136.166
1135.855
1135.544
1135.235
1134.927
1134.619
1134.313
1134.008
1133.705
1133.403
1133.103
1132.805
1132.508
1132.213
1131.919
1131.628
1131.339
1131.051
1130.765
1130.481
1130.199
1129.918
1129.638
1129.36
1129.082
1128.804
1128.526
1128.247
1127.964
1127.68
1127.37
1127.118
1126.523
1144.438
1144.18
1143.893
1143.594
1143.287
1142.976
1142.663
1142.349
1142.033
1141.716
1141.399
1141.082
1140.766
1140.449
1140.133
1139.818
1139.503
1139.19
1138.878
1138.567
1138.257
1137.949
1137.642
1137.337
1137.034
1136.733
1136.433
1136.136
1135.84
1135.546
1135.254
1134.965
1134.677
1134.391
1134.108
1133.826
1133.546
1133.268
1132.992
1132.717
1132.444
1132.173
1131.903
1131.635
1131.368
1131.102
1130.838
1130.573
1130.31
1130.046
1129.783
1129.519
1129.254
1128.986
1128.716
1128.441
1128.163
1127.857
1127.608
1127.012
1144.302
1144.041
1143.751
1143.45
1143.144
1142.836
1142.528
1142.219
1141.911
1141.604
1141.298
1140.994
1140.691
1140.39
1140.091
1139.793
1139.498
1139.204
1138.913
1138.623
1138.336
1138.051
1137.767
1137.486
1137.206
1136.928
1136.652
1136.378
1136.105
1135.834
1135.564
1135.296
1135.029
1134.763
1134.498
1134.233
1133.97
1133.707
1133.444
1133.182
1132.919
1132.657
1132.394
1132.131
1131.868
1131.603
1131.338
1131.071
1130.802
1130.532
1130.259
1129.984
1129.705
1129.422
1129.134
1128.838
1128.537
1128.205
1127.934
1127.288
1144.244
1144.002
1143.732
1143.451
1143.166
1142.88
1142.594
1142.308
1142.024
1141.741
1141.46
1141.18
1140.901
1140.624
1140.349
1140.076
1139.803
1139.532
1139.263
1138.994
1138.727
1138.46
1138.195
1137.929
1137.665
1137.4
1137.136
1136.872
1136.608
1136.343
1136.078
1135.812
1135.545
1135.278
1135.009
1134.738
1134.467
1134.193
1133.917
1133.64
1133.36
1133.077
1132.792
1132.505
1132.214
1131.92
1131.623
1131.322
1131.017
1130.708
1130.395
1130.077
1129.753
1129.423
1129.086
1128.739
1128.387
1127.999
1127.681
1126.941
1144.482
1144.267
1144.024
1143.769
1143.509
1143.247
1142.983
1142.719
1142.455
1142.19
1141.926
1141.661
1141.396
1141.131
1140.866
1140.6
1140.334
1140.067
1139.799
1139.53
1139.26
1138.988
1138.715
1138.44
1138.163
1137.884
1137.603
1137.319
1137.033
1136.743
1136.451
1136.156
1135.857
1135.555
1135.25
1134.941
1134.628
1134.31
1133.989
1133.664
1133.335
1133.001
1132.662
1132.319
1131.972
1131.619
1131.262
1130.9
1130.533
1130.16
1129.782
1129.398
1129.008
1128.611
1128.206
1127.791
1127.371
1126.912
1126.535
1125.685
1145.016
1144.811
1144.575
1144.325
1144.068
1143.806
1143.54
1143.272
1143
1142.726
1142.45
1142.171
1141.889
1141.605
1141.317
1141.027
1140.734
1140.437
1140.137
1139.833
1139.526
1139.215
1138.9
1138.581
1138.258
1137.931
1137.599
1137.262
1136.921
1136.576
1136.226
1135.871
1135.511
1135.146
1134.776
1134.402
1134.022
1133.638
1133.249
1132.854
1132.455
1132.051
1131.643
1131.229
1130.811
1130.389
1129.961
1129.529
1129.092
1128.651
1128.205
1127.754
1127.298
1126.835
1126.367
1125.89
1125.409
1124.89
1124.463
1123.526
1145.473
1145.246
1144.986
1144.709
1144.421
1144.126
1143.824
1143.517
1143.204
1142.887
1142.564
1142.236
1141.903
1141.566
1141.223
1140.876
1140.523
1140.166
1139.803
1139.436
1139.063
1138.685
1138.302
1137.915
1137.522
1137.123
1136.72
1136.312
1135.899
1135.481
1135.059
1134.631
1134.2
1133.763
1133.322
1132.877
1132.428
1131.974
1131.517
1131.056
1130.591
1130.123
1129.652
1129.178
1128.701
1128.221
1127.739
1127.254
1126.766
1126.277
1125.785
1125.29
1124.793
1124.293
1123.789
1123.279
1122.769
1122.223
1121.774
1120.806
1145.405
1145.121
1144.801
1144.461
1144.11
1143.749
1143.38
1143.003
1142.621
1142.232
1141.837
1141.436
1141.03
1140.619
1140.202
1139.78
1139.353
1138.921
1138.484
1138.043
1137.596
1137.146
1136.691
1136.232
1135.769
1135.302
1134.832
1134.358
1133.88
1133.4
1132.916
1132.43
1131.941
1131.45
1130.956
1130.461
1129.964
1129.466
1128.967
1128.466
1127.965
1127.464
1126.962
1126.46
1125.958
1125.457
1124.956
1124.456
1123.957
1123.459
1122.962
1122.465
1121.969
1121.473
1120.977
1120.479
1119.982
1119.454
1119.022
1118.095
1144.372
1144.013
1143.618
1143.203
1142.776
1142.339
1141.895
1141.445
1140.988
1140.527
1140.06
1139.589
1139.114
1138.635
1138.152
1137.665
1137.176
1136.683
1136.188
1135.69
1135.19
1134.688
1134.184
1133.679
1133.173
1132.665
1132.157
1131.648
1131.138
1130.629
1130.12
1129.611
1129.104
1128.597
1128.091
1127.587
1127.084
1126.584
1126.085
1125.589
1125.096
1124.605
1124.118
1123.634
1123.153
1122.676
1122.202
1121.732
1121.266
1120.804
1120.346
1119.891
1119.44
1118.991
1118.545
1118.098
1117.656
1117.186
1116.803
1115.976
1142.286
1141.863
1141.405
1140.929
1140.442
1139.949
1139.45
1138.946
1138.44
1137.93
1137.419
1136.906
1136.391
1135.876
1135.359
1134.843
1134.327
1133.811
1133.296
1132.781
1132.268
1131.756
1131.246
1130.738
1130.232
1129.729
1129.228
1128.73
1128.236
1127.744
1127.257
1126.773
1126.293
1125.817
1125.345
1124.878
1124.416
1123.958
1123.505
1123.058
1122.615
1122.178
1121.747
1121.321
1120.9
1120.485
1120.076
1119.672
1119.274
1118.881
1118.493
1118.111
1117.732
1117.358
1116.986
1116.615
1116.248
1115.858
1115.541
1114.839
1139.437
1138.985
1138.5
1138.001
1137.494
1136.982
1136.469
1135.956
1135.442
1134.929
1134.418
1133.908
1133.401
1132.897
1132.395
1131.897
1131.402
1130.911
1130.425
1129.942
1129.464
1128.99
1128.521
1128.058
1127.599
1127.145
1126.697
1126.255
1125.818
1125.386
1124.961
1124.541
1124.127
1123.719
1123.317
1122.922
1122.532
1122.149
1121.771
1121.4
1121.035
1120.676
1120.323
1119.976
1119.635
1119.299
1118.97
1118.645
1118.327
1118.013
1117.704
1117.399
1117.098
1116.8
1116.504
1116.208
1115.914
1115.599
1115.343
1114.752
1136.408
1135.975
1135.512
1135.038
1134.56
1134.081
1133.604
1133.13
1132.658
1132.191
1131.728
1131.27
1130.818
1130.37
1129.928
1129.492
1129.062
1128.637
1128.219
1127.807
1127.401
1127.001
1126.607
1126.22
1125.839
1125.464
1125.095
1124.733
1124.377
1124.027
1123.683
1123.345
1123.014
1122.688
1122.367
1122.053
1121.744
1121.441
1121.143
1120.85
1120.563
1120.281
1120.003
1119.73
1119.462
1119.197
1118.937
1118.681
1118.428
1118.179
1117.932
1117.688
1117.445
1117.204
1116.962
1116.718
1116.474
1116.207
1115.991
1115.468
1133.877
1133.511
1133.118
1132.715
1132.31
1131.905
1131.503
1131.106
1130.713
1130.325
1129.942
1129.566
1129.195
1128.83
1128.472
1128.12
1127.773
1127.433
1127.099
1126.771
1126.449
1126.132
1125.822
1125.517
1125.217
1124.923
1124.634
1124.35
1124.071
1123.797
1123.528
1123.263
1123.002
1122.746
1122.494
1122.245
1122
1121.759
1121.52
1121.285
1121.053
1120.824
1120.597
1120.372
1120.15
1119.929
1119.71
1119.492
1119.276
1119.06
1118.845
1118.629
1118.413
1118.195
1117.975
1117.75
1117.523
1117.271
1117.066
1116.557
1132.416
1132.136
1131.828
1131.511
1131.191
1130.871
1130.555
1130.242
1129.933
1129.629
1129.329
1129.035
1128.745
1128.461
1128.181
1127.906
1127.636
1127.37
1127.109
1126.852
1126.599
1126.35
1126.104
1125.862
1125.624
1125.388
1125.156
1124.926
1124.699
1124.474
1124.252
1124.031
1123.812
1123.595
1123.379
1123.165
1122.951
1122.739
1122.527
1122.316
1122.106
1121.895
1121.685
1121.474
1121.264
1121.053
1120.841
1120.628
1120.415
1120.2
1119.983
1119.765
1119.543
1119.319
1119.09
1118.855
1118.615
1118.349
1118.132
1117.596
1132.12
1131.922
1131.695
1131.455
1131.211
1130.966
1130.722
1130.478
1130.237
1129.998
1129.762
1129.528
1129.297
1129.068
1128.841
1128.617
1128.395
1128.175
1127.956
1127.739
1127.524
1127.309
1127.096
1126.883
1126.672
1126.46
1126.249
1126.039
1125.828
1125.617
1125.406
1125.194
1124.982
1124.77
1124.556
1124.342
1124.126
1123.91
1123.692
1123.473
1123.253
1123.031
1122.808
1122.583
1122.356
1122.127
1121.897
1121.664
1121.43
1121.193
1120.953
1120.71
1120.464
1120.214
1119.959
1119.697
1119.43
1119.136
1118.895
1118.314
1132.825
1132.679
1132.501
1132.308
1132.107
1131.902
1131.695
1131.487
1131.277
1131.068
1130.858
1130.647
1130.437
1130.227
1130.016
1129.805
1129.594
1129.382
1129.169
1128.956
1128.741
1128.526
1128.31
1128.092
1127.873
1127.653
1127.431
1127.207
1126.982
1126.755
1126.527
1126.297
1126.064
1125.83
1125.594
1125.356
1125.116
1124.874
1124.63
1124.385
1124.137
1123.887
1123.635
1123.381
1123.125
1122.867
1122.607
1122.345
1122.081
1121.814
1121.545
1121.273
1120.998
1120.72
1120.437
1120.147
1119.854
1119.532
1119.269
1118.648
1134.037
1133.905
1133.738
1133.554
1133.359
1133.157
1132.951
1132.74
1132.527
1132.311
1132.093
1131.873
1131.651
1131.427
1131.2
1130.972
1130.742
1130.51
1130.276
1130.04
1129.802
1129.562
1129.319
1129.075
1128.828
1128.58
1128.329
1128.076
1127.821
1127.564
1127.305
1127.044
1126.781
1126.516
1126.25
1125.981
1125.711
1125.439
1125.165
1124.89
1124.613
1124.334
1124.055
1123.773
1123.491
1123.207
1122.922
1122.636
1122.348
1122.058
1121.768
1121.475
1121.18
1120.882
1120.581
1120.275
1119.966
1119.629
1119.354
1118.713
1135.254
1135.104
1134.918
1134.712
1134.494
1134.269
1134.037
1133.8
1133.559
1133.315
1133.068
1132.817
1132.565
1132.31
1132.052
1131.792
1131.53
1131.266
1131
1130.732
1130.462
1130.19
1129.916
1129.64
1129.362
1129.083
1128.803
1128.52
1128.237
1127.951
1127.665
1127.377
1127.089
1126.799
1126.508
1126.216
1125.924
1125.63
1125.336
1125.042
1124.747
1124.451
1124.155
1123.859
1123.562
1123.266
1122.969
1122.672
1122.374
1122.076
1121.778
1121.479
1121.179
1120.877
1120.572
1120.264
1119.954
1119.616
1119.342
1118.704
1136.114
1135.932
1135.713
1135.475
1135.224
1134.964
1134.699
1134.429
1134.156
1133.879
1133.6
1133.318
1133.035
1132.749
1132.462
1132.173
1131.883
1131.591
1131.299
1131.005
1130.71
1130.414
1130.117
1129.82
1129.522
1129.223
1128.924
1128.624
1128.324
1128.024
1127.723
1127.423
1127.122
1126.822
1126.521
1126.221
1125.921
1125.622
1125.322
1125.024
1124.726
1124.428
1124.131
1123.835
1123.539
1123.244
1122.95
1122.657
1122.364
1122.072
1121.779
1121.487
1121.194
1120.901
1120.606
1120.306
1120.006
1119.68
1119.415
1118.797
1136.515
1136.305
1136.058
1135.791
1135.513
1135.228
1134.937
1134.643
1134.346
1134.047
1133.747
1133.445
1133.143
1132.84
1132.536
1132.232
1131.927
1131.623
1131.318
1131.014
1130.71
1130.405
1130.102
1129.798
1129.495
1129.192
1128.89
1128.589
1128.288
1127.988
1127.689
1127.39
1127.093
1126.796
1126.501
1126.206
1125.913
1125.62
1125.329
1125.039
1124.75
1124.463
1124.176
1123.891
1123.607
1123.324
1123.043
1122.762
1122.482
1122.203
1121.925
1121.647
1121.368
1121.089
1120.808
1120.523
1120.237
1119.926
1119.673
1119.077
1136.573
1136.347
1136.087
1135.808
1135.518
1135.222
1134.922
1134.62
1134.316
1134.011
1133.706
1133.401
1133.096
1132.792
1132.488
1132.185
1131.882
1131.58
1131.279
1130.979
1130.68
1130.382
1130.085
1129.789
1129.495
1129.201
1128.909
1128.618
1128.328
1128.039
1127.752
1127.466
1127.182
1126.899
1126.617
1126.336
1126.057
1125.779
1125.503
1125.228
1124.954
1124.681
1124.41
1124.139
1123.87
1123.602
1123.335
1123.069
1122.803
1122.538
1122.273
1122.008
1121.742
1121.475
1121.207
1120.933
1120.659
1120.359
1120.115
1119.534
1136.508
1136.285
1136.028
1135.753
1135.468
1135.178
1134.884
1134.589
1134.293
1133.997
1133.701
1133.405
1133.11
1132.817
1132.524
1132.233
1131.942
1131.653
1131.366
1131.08
1130.795
1130.511
1130.229
1129.948
1129.669
1129.39
1129.114
1128.838
1128.564
1128.291
1128.02
1127.749
1127.48
1127.212
1126.945
1126.679
1126.414
1126.151
1125.888
1125.626
1125.365
1125.104
1124.845
1124.586
1124.327
1124.069
1123.812
1123.554
1123.297
1123.04
1122.782
1122.523
1122.263
1122.001
1121.737
1121.468
1121.196
1120.899
1120.657
1120.078
1136.543
1136.334
1136.091
1135.829
1135.558
1135.281
1135.001
1134.72
1134.438
1134.156
1133.875
1133.595
1133.315
1133.037
1132.76
1132.484
1132.21
1131.937
1131.665
1131.394
1131.125
1130.856
1130.589
1130.323
1130.058
1129.793
1129.53
1129.268
1129.006
1128.745
1128.484
1128.225
1127.966
1127.707
1127.449
1127.191
1126.933
1126.676
1126.419
1126.163
1125.906
1125.649
1125.393
1125.136
1124.879
1124.623
1124.365
1124.108
1123.849
1123.59
1123.33
1123.068
1122.805
1122.539
1122.27
1121.995
1121.718
1121.414
1121.166
1120.575
1136.79
1136.594
1136.363
1136.115
1135.858
1135.596
1135.331
1135.064
1134.798
1134.531
1134.265
1133.999
1133.734
1133.47
1133.206
1132.944
1132.682
1132.42
1132.159
1131.899
1131.639
1131.38
1131.12
1130.861
1130.602
1130.344
1130.085
1129.827
1129.568
1129.309
1129.05
1128.792
1128.532
1128.273
1128.013
1127.753
1127.493
1127.232
1126.971
1126.71
1126.448
1126.185
1125.922
1125.659
1125.395
1125.13
1124.864
1124.597
1124.33
1124.061
1123.79
1123.518
1123.244
1122.966
1122.686
1122.399
1122.11
1121.793
1121.534
1120.922
1137.205
1137.029
1136.817
1136.587
1136.345
1136.098
1135.846
1135.592
1135.337
1135.08
1134.822
1134.564
1134.305
1134.046
1133.787
1133.527
1133.266
1133.006
1132.745
1132.484
1132.222
1131.96
1131.697
1131.434
1131.17
1130.906
1130.641
1130.376
1130.11
1129.844
1129.577
1129.309
1129.041
1128.772
1128.502
1128.232
1127.961
1127.689
1127.416
1127.143
1126.869
1126.594
1126.319
1126.043
1125.765
1125.487
1125.208
1124.928
1124.646
1124.363
1124.079
1123.792
1123.504
1123.212
1122.917
1122.616
1122.312
1121.98
1121.71
1121.074
1137.834
1137.659
1137.448
1137.217
1136.973
1136.722
1136.466
1136.207
1135.945
1135.682
1135.417
1135.15
1134.883
1134.615
1134.346
1134.076
1133.806
1133.535
1133.263
1132.991
1132.718
1132.444
1132.17
1131.895
1131.619
1131.343
1131.065
1130.787
1130.509
1130.229
1129.949
1129.668
1129.386
1129.104
1128.82
1128.536
1128.251
1127.965
1127.679
1127.391
1127.103
1126.813
1126.523
1126.232
1125.941
1125.648
1125.354
1125.06
1124.764
1124.467
1124.168
1123.868
1123.565
1123.26
1122.951
1122.637
1122.321
1121.976
1121.695
1121.04
1138.409
1138.221
1137.997
1137.752
1137.496
1137.232
1136.963
1136.691
1136.416
1136.14
1135.862
1135.583
1135.303
1135.022
1134.74
1134.458
1134.174
1133.89
1133.605
1133.32
1133.034
1132.747
1132.459
1132.17
1131.88
1131.59
1131.299
1131.007
1130.714
1130.42
1130.126
1129.83
1129.534
1129.237
1128.939
1128.641
1128.341
1128.041
1127.74
1127.439
1127.137
1126.834
1126.53
1126.226
1125.922
1125.616
1125.31
1125.004
1124.696
1124.388
1124.079
1123.768
1123.455
1123.14
1122.822
1122.499
1122.175
1121.822
1121.534
1120.868
1138.792
1138.592
1138.357
1138.1
1137.832
1137.555
1137.274
1136.99
1136.702
1136.413
1136.123
1135.831
1135.537
1135.243
1134.948
1134.652
1134.354
1134.056
1133.758
1133.458
1133.157
1132.855
1132.553
1132.25
1131.946
1131.641
1131.336
1131.029
1130.722
1130.415
1130.107
1129.798
1129.488
1129.179
1128.868
1128.558
1128.247
1127.935
1127.624
1127.312
1127
1126.687
1126.375
1126.062
1125.75
1125.437
1125.124
1124.811
1124.497
1124.183
1123.868
1123.553
1123.236
1122.917
1122.595
1122.269
1121.942
1121.586
1121.297
1120.629
1139.001
1138.788
1138.538
1138.268
1137.986
1137.695
1137.4
1137.101
1136.8
1136.497
1136.191
1135.885
1135.577
1135.268
1134.958
1134.648
1134.336
1134.024
1133.711
1133.398
1133.084
1132.769
1132.454
1132.139
1131.823
1131.507
1131.191
1130.874
1130.558
1130.241
1129.924
1129.608
1129.291
1128.974
1128.658
1128.341
1128.025
1127.709
1127.393
1127.077
1126.762
1126.447
1126.132
1125.817
1125.503
1125.189
1124.875
1124.561
1124.246
1123.932
1123.617
1123.302
1122.985
1122.667
1122.347
1122.021
1121.695
1121.341
1121.052
1120.387
1139.006
1138.781
1138.519
1138.236
1137.94
1137.637
1137.328
1137.016
1136.701
1136.384
1136.066
1135.747
1135.427
1135.107
1134.786
1134.465
1134.144
1133.822
1133.501
1133.18
1132.859
1132.538
1132.218
1131.897
1131.577
1131.257
1130.938
1130.619
1130.3
1129.982
1129.664
1129.347
1129.03
1128.713
1128.397
1128.081
1127.765
1127.45
1127.136
1126.822
1126.508
1126.194
1125.881
1125.568
1125.256
1124.943
1124.631
1124.319
1124.007
1123.695
1123.382
1123.069
1122.754
1122.438
1122.119
1121.796
1121.472
1121.12
1120.834
1120.171
1138.859
1138.618
1138.34
1138.042
1137.733
1137.418
1137.098
1136.776
1136.453
1136.129
1135.805
1135.481
1135.157
1134.834
1134.511
1134.188
1133.866
1133.545
1133.224
1132.904
1132.584
1132.265
1131.946
1131.628
1131.311
1130.994
1130.677
1130.361
1130.045
1129.729
1129.414
1129.1
1128.785
1128.471
1128.158
1127.844
1127.531
1127.219
1126.906
1126.594
1126.283
1125.971
1125.66
1125.349
1125.038
1124.728
1124.418
1124.108
1123.797
1123.487
1123.176
1122.864
1122.552
1122.237
1121.921
1121.599
1121.277
1120.928
1120.643
1119.984
1138.529
1138.289
1138.014
1137.72
1137.415
1137.104
1136.789
1136.473
1136.155
1135.837
1135.519
1135.201
1134.883
1134.565
1134.247
1133.93
1133.614
1133.297
1132.981
1132.665
1132.349
1132.034
1131.719
1131.404
1131.089
1130.774
1130.46
1130.146
1129.832
1129.519
1129.205
1128.892
1128.579
1128.267
1127.954
1127.642
1127.331
1127.019
1126.708
1126.397
1126.087
1125.777
1125.467
1125.158
1124.849
1124.54
1124.231
1123.923
1123.614
1123.306
1122.997
1122.687
1122.377
1122.064
1121.75
1121.431
1121.111
1120.764
1120.481
1119.826
1138.274
1138.042
1137.774
1137.487
1137.188
1136.883
1136.573
1136.261
1135.947
1135.633
1135.317
1135.002
1134.685
1134.369
1134.053
1133.737
1133.42
1133.104
1132.788
1132.473
1132.157
1131.841
1131.526
1131.211
1130.896
1130.582
1130.268
1129.954
1129.64
1129.327
1129.015
1128.702
1128.39
1128.079
1127.768
1127.457
1127.147
1126.837
1126.528
1126.219
1125.91
1125.602
1125.295
1124.988
1124.681
1124.374
1124.068
1123.762
1123.456
1123.15
1122.843
1122.535
1122.227
1121.917
1121.605
1121.288
1120.97
1120.625
1120.343
1119.691
1138.104
1137.87
1137.601
1137.312
1137.011
1136.703
1136.392
1136.077
1135.762
1135.445
1135.127
1134.81
1134.492
1134.174
1133.857
1133.54
1133.223
1132.907
1132.591
1132.275
1131.96
1131.645
1131.331
1131.018
1130.705
1130.392
1130.08
1129.768
1129.457
1129.146
1128.836
1128.526
1128.217