/*--------------------------------*- C++ -*----------------------------------*\
| =========                 |                                                 |
| \\      /  F ield         | OpenFOAM: The Open Source CFD Toolbox           |
|  \\    /   O peration     | Version:  2312                                  |
|   \\  /    A nd           | Website:  www.openfoam.com                      |
|    \\/     M anipulation  |                                                 |
\*---------------------------------------------------------------------------*/
FoamFile
{
    version     2.0;
    format      ascii;
    arch        "LSB;label=32;scalar=64";
    class       volScalarField;
    location    "1500";
    object      k;
}
// * * * * * * * * * * * * * * * * * * * * * * * * * * * * * * * * * * * * * //

dimensions      [0 2 -2 0 0 0 0];

internalField   nonuniform List<scalar> 
12000
(
0.001495677
0.003169824
0.003728776
0.004329367
0.004792674
0.005214135
0.005560037
0.005881538
0.00617382
0.006444385
0.006673473
0.006877623
0.007070919
0.0072554
0.007420637
0.007556643
0.007687329
0.00780918
0.007925183
0.008016926
0.008104266
0.00818256
0.008254957
0.008311961
0.008364259
0.008408552
0.008444765
0.00847062
0.008493686
0.008509469
0.008514962
0.008511037
0.008509792
0.008497498
0.008484728
0.008462742
0.008438495
0.008410927
0.008358212
0.008336016
0.008319398
0.008297795
0.00821609
0.008083489
0.008003073
0.008009565
0.008004586
0.007835921
0.00761445
0.007545523
0.007504809
0.007322164
0.007067058
0.006880652
0.006676572
0.006333561
0.005976393
0.005376736
0.004931298
0.004724398
0.001614679
0.003983136
0.004452793
0.005008009
0.005486868
0.00615669
0.006755618
0.007257051
0.007738727
0.008352785
0.009121635
0.009684179
0.01004542
0.0104985
0.01116821
0.0117744
0.01217039
0.01251972
0.01305848
0.01357896
0.01397851
0.01433813
0.01477959
0.01519212
0.01553505
0.01587696
0.016243
0.01656225
0.01682609
0.01712264
0.01742835
0.01767041
0.01787307
0.01806799
0.01824668
0.01840552
0.01854011
0.018648
0.01870936
0.01873996
0.01876982
0.01879689
0.01880454
0.01875606
0.01867427
0.01854268
0.01835942
0.01815705
0.01792657
0.01766538
0.01714999
0.01663197
0.0162396
0.01582841
0.01505642
0.01401814
0.01286686
0.01048594
0.007815857
0.007595941
0.002449824
0.004997451
0.005667907
0.006509653
0.007368214
0.008284292
0.009306219
0.01007728
0.01079146
0.01144505
0.01206498
0.01264888
0.01306349
0.01349353
0.01395135
0.01439693
0.01477872
0.01511796
0.01546385
0.01581932
0.01615776
0.01647124
0.01677939
0.01708859
0.01738555
0.01766516
0.01791956
0.01817873
0.01842876
0.01864587
0.01885528
0.01905395
0.01922935
0.01938369
0.0195249
0.01965926
0.01978797
0.01991031
0.02002262
0.02011756
0.02020298
0.02029908
0.02041518
0.02053644
0.02063715
0.02072239
0.02084425
0.0210169
0.02119184
0.02132533
0.02146846
0.02156643
0.02158313
0.02133362
0.02084963
0.01976151
0.01785904
0.01523864
0.01088508
0.008939119
0.002989806
0.005081988
0.00608318
0.007177554
0.008381788
0.009555561
0.01064547
0.01155089
0.01226743
0.01301529
0.01359814
0.0140556
0.0143937
0.01461803
0.01486925
0.015095
0.01529646
0.01550095
0.0157221
0.01595936
0.01620673
0.01646346
0.01672877
0.01698998
0.01724634
0.01748313
0.0177172
0.01796317
0.01819209
0.01840437
0.01860389
0.01879077
0.01896292
0.01912005
0.01926373
0.0193971
0.01952367
0.01964598
0.01976528
0.01988158
0.01999747
0.02012
0.02025472
0.02040473
0.02056258
0.02071804
0.0208839
0.02108349
0.02130108
0.02152998
0.02176442
0.02195115
0.02197323
0.02168281
0.0209898
0.02003155
0.01873059
0.01629788
0.01166596
0.009680462
0.003514317
0.00522646
0.006596366
0.008020708
0.009485499
0.01079787
0.01188457
0.0127281
0.01334874
0.01383474
0.01424662
0.01454803
0.01478787
0.01492826
0.01500374
0.01508815
0.01518912
0.01528854
0.01540405
0.01553936
0.01569336
0.01586401
0.01605006
0.01625712
0.01647904
0.0167069
0.01693609
0.01716408
0.01738651
0.01759964
0.01780261
0.01799481
0.01817595
0.01834678
0.01850925
0.01866626
0.01882152
0.01897871
0.01914371
0.01932177
0.01951658
0.01973137
0.0199687
0.02024539
0.02055072
0.02089123
0.02126457
0.021653
0.02207756
0.02250083
0.02278433
0.02286797
0.02284373
0.02271019
0.02240626
0.02170461
0.02028074
0.01773138
0.01309069
0.01024661
0.004022676
0.005340147
0.006985005
0.008626706
0.01021927
0.01157672
0.01264565
0.01343862
0.01400206
0.01438381
0.01461934
0.01474442
0.01480459
0.01483585
0.01482394
0.01478381
0.01474366
0.0147397
0.01476755
0.01482878
0.01492219
0.01504566
0.01519617
0.01536983
0.01556139
0.01576502
0.01597615
0.01619103
0.01640567
0.01661686
0.01682283
0.01702322
0.01721794
0.01740779
0.01759483
0.01778222
0.01797367
0.01817298
0.01839124
0.01863353
0.01890664
0.01921319
0.01955517
0.01993585
0.02036654
0.02082447
0.02131117
0.02182404
0.0223027
0.02270117
0.02302048
0.0232689
0.02338737
0.02332881
0.02294721
0.02210771
0.02059447
0.01796057
0.0132961
0.01055884
0.004475707
0.005463314
0.007333701
0.009128551
0.01078684
0.01214444
0.01316496
0.01387866
0.01434707
0.01461362
0.01473069
0.01474346
0.01470302
0.01461431
0.01451504
0.01440604
0.01431002
0.01424016
0.01420931
0.01420856
0.01424521
0.01431639
0.0144186
0.01454764
0.01469894
0.01486791
0.0150502
0.01524186
0.01543964
0.01564107
0.01584526
0.01605341
0.01626445
0.0164794
0.01670101
0.01693417
0.01718341
0.01745089
0.01774376
0.01807151
0.01843938
0.01885057
0.01931727
0.01982684
0.02036602
0.02095195
0.02156174
0.02214937
0.02270387
0.02321303
0.02365111
0.02397334
0.02411292
0.02404177
0.02365358
0.02281254
0.02128856
0.01865329
0.01397088
0.01087105
0.004946285
0.005605098
0.00762796
0.009505764
0.0111766
0.0125062
0.01347623
0.01413011
0.01453281
0.01473006
0.01476987
0.01472502
0.01461419
0.01448272
0.01434168
0.01420137
0.01407507
0.01397085
0.0138948
0.0138491
0.01383798
0.01385692
0.01390638
0.01398334
0.01408462
0.01420708
0.01434765
0.01450385
0.01467641
0.01486149
0.01505674
0.01526406
0.01548626
0.01572368
0.01597877
0.01625532
0.01655797
0.01689169
0.0172655
0.01768655
0.01815773
0.01867962
0.01924468
0.01985622
0.02051829
0.02121359
0.0219107
0.0225949
0.02324298
0.02382299
0.02429816
0.02462743
0.02475199
0.02463086
0.02416399
0.02321861
0.02157036
0.01879701
0.01406307
0.01103593
0.005332984
0.00572285
0.007855048
0.009772675
0.01142849
0.01272067
0.01364917
0.01426739
0.01463747
0.01480417
0.01482148
0.01475108
0.01463328
0.0144956
0.01435459
0.01421911
0.01409559
0.01399432
0.01391697
0.01385945
0.01381826
0.01379276
0.01378799
0.01380573
0.01384749
0.01391282
0.01400102
0.01411412
0.01424888
0.01440525
0.0145833
0.01478338
0.01500885
0.01526262
0.01554795
0.0158688
0.01622974
0.01663556
0.01708402
0.01757997
0.01813024
0.0187397
0.01940667
0.02012761
0.02088859
0.021669
0.02245034
0.0232074
0.02390761
0.02451494
0.02498972
0.02528961
0.02536666
0.02517432
0.02463116
0.02361686
0.02192534
0.01915585
0.01447453
0.01120698
0.005784804
0.005858357
0.008047221
0.009965724
0.01158779
0.01284448
0.01375237
0.01437092
0.01475044
0.01493156
0.01496269
0.01490509
0.01479445
0.0146618
0.01453672
0.01442547
0.01432542
0.01423865
0.01416439
0.01410212
0.01405522
0.01402353
0.01400019
0.01398702
0.01398604
0.0140012
0.01404148
0.01410963
0.01420318
0.01432488
0.01447721
0.01466232
0.01488278
0.01514137
0.01544124
0.01578599
0.01617969
0.01662688
0.0171324
0.01769919
0.01832912
0.01902177
0.01977336
0.02057426
0.0214107
0.02226452
0.02311027
0.02391387
0.02463922
0.02524622
0.02569411
0.02593489
0.02594463
0.02566853
0.0250385
0.02393412
0.02215779
0.01929491
0.01452096
0.01131376
0.006210838
0.00595721
0.008181866
0.01009264
0.01168784
0.012923
0.01383219
0.01447986
0.01489573
0.01511683
0.0151859
0.01517368
0.01510978
0.01502342
0.01493622
0.01485954
0.01479454
0.01473883
0.01469039
0.0146463
0.01460393
0.01456198
0.0145214
0.01448324
0.0144471
0.0144178
0.01440921
0.01442597
0.01447028
0.01454757
0.01466277
0.01482023
0.01502386
0.01527716
0.01558346
0.01594614
0.01636864
0.01685436
0.01740626
0.0180263
0.01871472
0.019469
0.02028282
0.02114576
0.02204101
0.02294328
0.02382208
0.02464303
0.0253641
0.02594335
0.02633884
0.02650713
0.026428
0.02605906
0.0253414
0.02416995
0.02235085
0.01948203
0.01476031
0.01139595
0.006620421
0.006074901
0.008314065
0.01021
0.01177074
0.01298658
0.01390969
0.01460115
0.015074
0.01535848
0.01550049
0.01555005
0.01555238
0.01553132
0.01550481
0.015483
0.01546895
0.0154589
0.0154453
0.01542061
0.01537925
0.01531958
0.01524501
0.01516426
0.01508922
0.01502165
0.01496981
0.01493922
0.0149369
0.01497139
0.01504982
0.01517817
0.01536138
0.01560376
0.01590895
0.01628016
0.01672027
0.01723173
0.01781637
0.01847482
0.01920576
0.02000491
0.02086393
0.02176864
0.02269835
0.02362718
0.02452199
0.0253434
0.02604694
0.02658541
0.02691758
0.02701004
0.02684544
0.02639773
0.02561627
0.02439533
0.0225378
0.01961892
0.0148196
0.01147709
0.00700579
0.006160523
0.008408347
0.01028123
0.01180898
0.01302108
0.01398206
0.01473351
0.01528345
0.01565555
0.01589189
0.01603623
0.01612323
0.01618046
0.016229
0.01627823
0.01632619
0.01636393
0.01637911
0.01636213
0.01630435
0.01620537
0.01607535
0.01593375
0.01580067
0.01568382
0.01558475
0.01550853
0.01546413
0.01546069
0.01550659
0.01560914
0.01577434
0.01600686
0.01631035
0.01668764
0.01714096
0.01767196
0.01828141
0.01896866
0.01973086
0.02056188
0.02145126
0.02238306
0.02333496
0.02427686
0.02517317
0.02597972
0.02664874
0.02713363
0.02739283
0.02740614
0.02716269
0.02664896
0.02581588
0.02455572
0.0226644
0.01972806
0.0149529
0.01150683
0.007318611
0.006245452
0.008508583
0.01036613
0.01187326
0.01309325
0.01410018
0.0149195
0.01555301
0.01601734
0.01634543
0.01657921
0.01675376
0.01689946
0.01703346
0.01716109
0.01727179
0.01735073
0.01738217
0.01735403
0.01725696
0.01709576
0.01689255
0.01668029
0.01648539
0.0163117
0.01616124
0.01603945
0.01595535
0.0159186
0.01593827
0.01602201
0.01617575
0.01640383
0.01670939
0.01709469
0.01756135
0.01811025
0.01874124
0.01945252
0.02023975
0.02109504
0.02200582
0.02295395
0.02391485
0.02485738
0.02574207
0.02652612
0.02716373
0.02760349
0.02779621
0.02774119
0.027441
0.02688456
0.02601909
0.02473234
0.02281978
0.01985394
0.01502585
0.01157441
0.007622823
0.006319826
0.008588113
0.01042538
0.01190951
0.01313641
0.01418631
0.0150708
0.01578823
0.01635085
0.01678632
0.01712695
0.01740624
0.01764925
0.01786942
0.01806545
0.01822642
0.01833436
0.01836783
0.01830937
0.01815229
0.01791229
0.01762826
0.01734538
0.01708861
0.01685733
0.01665427
0.01648801
0.01636793
0.01630397
0.01630481
0.01637691
0.01652613
0.01675556
0.01706764
0.01746395
0.01794544
0.01851228
0.01916344
0.01989595
0.02070405
0.02157809
0.02250362
0.02346052
0.02442256
0.02535672
0.02622764
0.02699813
0.0276112
0.02799845
0.0281311
0.0280194
0.02767136
0.02707446
0.02617447
0.02485936
0.02292027
0.01993806
0.01512033
0.01158195
0.007848804
0.006371074
0.008658252
0.01048427
0.01195678
0.01320116
0.01429839
0.0152515
0.01605582
0.01671803
0.01725954
0.01770596
0.01808803
0.01842749
0.01873304
0.01899344
0.01919187
0.01930683
0.01931426
0.01919715
0.01895481
0.01862196
0.01825679
0.01790972
0.01759083
0.01730166
0.01704902
0.01684239
0.01669204
0.0166075
0.01659639
0.0166636
0.01681435
0.01705036
0.01737315
0.01778357
0.01828189
0.01886756
0.01953862
0.02029098
0.02111744
0.02200682
0.02294315
0.02390505
0.02486534
0.02579071
0.02665563
0.02741987
0.02799787
0.02833385
0.02841636
0.02826174
0.02788039
0.02725824
0.02633876
0.02500707
0.02305207
0.02004481
0.01518484
0.01162594
0.008053788
0.006427206
0.008723193
0.01053619
0.01201033
0.01327874
0.01442296
0.01544233
0.01632863
0.0170847
0.01772648
0.01827941
0.01876628
0.01919827
0.01957113
0.01987369
0.02008722
0.02018616
0.0201448
0.01994697
0.0196106
0.01919256
0.01876358
0.01836175
0.01798658
0.01764398
0.01734783
0.01710843
0.01693577
0.01683844
0.0168225
0.01689119
0.01704871
0.01729551
0.01763226
0.01805916
0.01857585
0.01918102
0.01987174
0.02064269
0.02148527
0.02238681
0.02332997
0.02429248
0.02524669
0.02617238
0.02704412
0.02779009
0.02832827
0.02861851
0.02866095
0.02847317
0.02806424
0.02741743
0.02647488
0.02512246
0.02314742
0.02012834
0.01526658
0.01163007
0.008205626
0.006459827
0.008774616
0.01059115
0.01206787
0.01335943
0.01454546
0.01562396
0.01658529
0.01743067
0.01817164
0.01882468
0.01940145
0.01990511
0.02032911
0.02065874
0.02087034
0.02093423
0.02082798
0.02054058
0.02011629
0.0196329
0.01915919
0.01870767
0.01828179
0.01789525
0.01756489
0.01730262
0.01711651
0.0170138
0.01699919
0.01707431
0.01724258
0.01750335
0.01785659
0.01830191
0.01883828
0.01946359
0.02017388
0.02096265
0.02182002
0.02273219
0.023681
0.0246438
0.02559611
0.02652461
0.02739518
0.02811723
0.0286186
0.02887127
0.0288837
0.02867187
0.02824336
0.02757959
0.02662121
0.02525245
0.02325753
0.0202147
0.01531773
0.01164639
0.008332141
0.006495134
0.008825759
0.01064696
0.01213236
0.01344892
0.01467487
0.01580848
0.01683922
0.01776547
0.01859367
0.01933225
0.01998474
0.02054682
0.02100662
0.02134476
0.02153378
0.02154211
0.02135845
0.02098244
0.02048857
0.01996187
0.01944752
0.01895198
0.01848557
0.01806684
0.01771347
0.01743762
0.0172463
0.01714525
0.01713769
0.01722383
0.01740658
0.01768433
0.01805644
0.01852195
0.01907909
0.01972481
0.02045409
0.02125919
0.02212912
0.02304913
0.02400056
0.02496054
0.0259155
0.02685314
0.02771364
0.02840749
0.02887552
0.02909897
0.02908805
0.02885691
0.02841092
0.02772979
0.02675354
0.02536756
0.02335531
0.02029803
0.01538367
0.01164718
0.008423177
0.006522175
0.008873516
0.01070463
0.01220291
0.01354571
0.01480984
0.01599437
0.01708801
0.01808597
0.01898908
0.01979809
0.02050905
0.02111159
0.021589
0.02191743
0.02206613
0.02200873
0.0217326
0.02128051
0.02073786
0.02018499
0.01963724
0.01910455
0.01860897
0.01816951
0.0178039
0.01752384
0.01733518
0.01724222
0.01724694
0.0173491
0.01755003
0.0178479
0.01824148
0.01872912
0.01930824
0.01997481
0.02072272
0.02154321
0.02242444
0.02335118
0.02430471
0.02526246
0.02621901
0.02716087
0.02800747
0.0286751
0.02911615
0.0293179
0.02928905
0.0290424
0.02858183
0.02788629
0.02689498
0.02549079
0.02345289
0.02035929
0.01540576
0.011641
0.008498599
0.006555908
0.008924331
0.01076721
0.01228149
0.01365229
0.01495327
0.01618431
0.01733321
0.01839169
0.01935486
0.02021678
0.02096729
0.02159088
0.02206611
0.02236462
0.0224535
0.02231864
0.02195848
0.02144917
0.02088081
0.02030009
0.01972204
0.01916597
0.01865523
0.01820889
0.01784187
0.01756643
0.01738871
0.0173107
0.01733307
0.01745647
0.01767954
0.01800079
0.01841836
0.01892983
0.01953171
0.02021894
0.02098438
0.02181833
0.02270825
0.02363854
0.02459057
0.0255507
0.02651585
0.02745441
0.02828287
0.02892602
0.02934404
0.02952741
0.02948276
0.02922121
0.02874534
0.02803395
0.02702612
0.02560344
0.02354575
0.02042291
0.01545146
0.01163338
0.008554408
0.006589347
0.008978565
0.01083611
0.01236901
0.01376944
0.01510594
0.01637868
0.01757434
0.01868092
0.01968808
0.0205841
0.02135379
0.02197737
0.02242905
0.0226767
0.02268896
0.02247327
0.02204305
0.02149848
0.02091404
0.02031345
0.0197167
0.01914976
0.01863559
0.01819302
0.0178361
0.01757426
0.01741398
0.01735742
0.01740296
0.01755158
0.01780078
0.01814852
0.01859223
0.01912871
0.01975357
0.02046085
0.02124259
0.02208849
0.02298564
0.02391847
0.02486861
0.02583052
0.0268017
0.02773247
0.02854165
0.02916351
0.02956445
0.02973452
0.02967776
0.02940341
0.02891312
0.02818444
0.02715565
0.02570924
0.02362574
0.02047984
0.01548436
0.01162859
0.008593558
0.006622463
0.009039416
0.01091458
0.01246854
0.01389996
0.01527019
0.01657932
0.01781246
0.01895372
0.01998782
0.02089846
0.02166664
0.02226889
0.02267553
0.02285309
0.02278393
0.0224785
0.02201
0.02145648
0.02085935
0.02024291
0.0196361
0.0190676
0.01856009
0.01813105
0.017793
0.01755396
0.01741831
0.01738844
0.01746218
0.0176402
0.01791885
0.0182954
0.01876658
0.01932838
0.01997561
0.02070161
0.0214979
0.02235393
0.02325693
0.02419184
0.02514093
0.02610426
0.02707894
0.02800122
0.0287933
0.02939788
0.02978429
0.02994165
0.02987269
0.02958467
0.02907793
0.02832975
0.02727926
0.02581097
0.02370464
0.02054227
0.01552669
0.0116124
0.008625968
0.006663408
0.009113544
0.01100659
0.01258154
0.01404469
0.01544672
0.01678643
0.01804691
0.01920855
0.02025201
0.02115758
0.02190334
0.02246252
0.02280258
0.0228929
0.022751
0.02238692
0.02188579
0.02131488
0.02070444
0.02008282
0.01948067
0.01892439
0.01843553
0.01803037
0.01772013
0.01751159
0.01740784
0.0174103
0.01751686
0.0177279
0.01803872
0.01844591
0.01894546
0.01953266
0.02020167
0.02094527
0.02175463
0.02261917
0.0235264
0.0244618
0.02541268
0.02638152
0.02735623
0.02826917
0.02904695
0.02963681
0.03000991
0.03015535
0.03007439
0.02977226
0.02924852
0.02848058
0.027408
0.02591531
0.02378252
0.02058894
0.01554328
0.0116002
0.00864886
0.006709414
0.009195848
0.0111089
0.01271059
0.01420534
0.01563661
0.01700033
0.01827694
0.01944357
0.02047795
0.02135825
0.02206019
0.02255399
0.02280707
0.02281622
0.02259421
0.02218344
0.02166909
0.02108865
0.02047343
0.01985713
0.01926935
0.01873511
0.01827428
0.01790154
0.01762663
0.01745514
0.01738928
0.01742809
0.0175725
0.01781916
0.0181639
0.01860267
0.0191309
0.01974325
0.02043336
0.02119367
0.02201518
0.02288735
0.02379802
0.02473326
0.0256866
0.02666143
0.02763369
0.02853564
0.02929916
0.02987582
0.03023759
0.03037174
0.03027739
0.02995824
0.02941395
0.02862269
0.02752525
0.02600725
0.02384934
0.02063479
0.01557087
0.01157902
0.008673618
0.006769266
0.009291908
0.01122653
0.01285877
0.01438386
0.0158401
0.01721965
0.01849986
0.01965557
0.02066329
0.02150011
0.02213972
0.02255102
0.02272112
0.02263529
0.02233825
0.02190434
0.02137646
0.02078967
0.02017976
0.01957912
0.01901572
0.01851273
0.01808821
0.01775512
0.01752177
0.01739256
0.01736885
0.01744815
0.01763179
0.01791553
0.01829534
0.01876601
0.01932259
0.01995933
0.02066961
0.02144568
0.02227855
0.02315791
0.02407199
0.02500751
0.02596256
0.02694076
0.02790902
0.02880089
0.02955265
0.03011827
0.0304694
0.0305918
0.03048331
0.03014673
0.02958195
0.02876776
0.0276457
0.02610184
0.02391698
0.02067443
0.01558322
0.01156356
0.008694147
0.00683832
0.009397934
0.01135778
0.01302439
0.01457937
0.01605607
0.01744268
0.01871384
0.01984329
0.02080716
0.02158126
0.02213734
0.02245907
0.0225166
0.02235522
0.02201547
0.02155749
0.02101907
0.02043559
0.01984078
0.01926496
0.01873426
0.01826994
0.01788817
0.01760022
0.01741295
0.01732959
0.01735011
0.01747401
0.017698
0.01801927
0.01843371
0.01893565
0.01951968
0.02017982
0.02090928
0.02170031
0.02254406
0.02343049
0.02434826
0.02528468
0.02624086
0.02722035
0.02818381
0.02906655
0.02980837
0.03036458
0.03070587
0.0308162
0.0306921
0.03033572
0.02974756
0.02890742
0.027758
0.02618561
0.02397272
0.02070549
0.01559571
0.01153902
0.008722315
0.006926326
0.009523916
0.01150924
0.01321155
0.01479414
0.01628458
0.01766705
0.01891429
0.02000015
0.02090121
0.02159283
0.02205925
0.02226469
0.02223065
0.02200139
0.02162974
0.02115602
0.02061581
0.02004379
0.01947174
0.01892808
0.01843682
0.0180171
0.01768314
0.01744451
0.01730669
0.01727183
0.01733807
0.01750629
0.01777156
0.01813012
0.01857826
0.01911072
0.01972119
0.0204037
0.0211515
0.02195697
0.02281146
0.02370522
0.02462733
0.02556553
0.02652278
0.02750238
0.02846118
0.02933638
0.03007012
0.03061797
0.03094925
0.03104631
0.03090487
0.03052705
0.02991426
0.02904745
0.02787039
0.02626991
0.02402936
0.02073611
0.01560321
0.01152196
0.008747383
0.007020269
0.0096598
0.0116776
0.01341918
0.01502702
0.01652312
0.01788922
0.01909831
0.02012605
0.02095022
0.02154886
0.02189223
0.02198797
0.02187794
0.02160073
0.02120205
0.0207179
0.02018262
0.01962879
0.01908614
0.01858073
0.01813422
0.01776353
0.01748088
0.01729412
0.01720735
0.01722138
0.01733584
0.01754764
0.01785318
0.0182483
0.01872915
0.01929059
0.01992629
0.02063023
0.02139575
0.02221537
0.02308068
0.02398224
0.02490947
0.02585061
0.02680929
0.02778805
0.02874228
0.02961109
0.03033794
0.03087787
0.03119855
0.03128087
0.03112001
0.03071837
0.03007857
0.02918283
0.02797606
0.02634513
0.02407463
0.02075461
0.01560448
0.0114953
0.008782129
0.007134479
0.009824824
0.01187122
0.01365081
0.01527817
0.01676974
0.01810617
0.01926181
0.0202138
0.02094013
0.02141922
0.02164644
0.02164709
0.02147852
0.02116245
0.02074412
0.02025699
0.0197336
0.01920439
0.01869679
0.01823441
0.0178365
0.01751779
0.01728854
0.01715503
0.01712012
0.01718262
0.01734356
0.01759842
0.01794321
0.01837363
0.01888581
0.01947498
0.02013494
0.02085964
0.02164254
0.02247632
0.02335276
0.02426266
0.02519568
0.02614107
0.02710216
0.02807954
0.02902962
0.02989309
0.03061378
0.03114572
0.03145484
0.03152075
0.03133842
0.03091111
0.03024289
0.02931739
0.02808053
0.02641955
0.02412002
0.02077303
0.01559392
0.01147684
0.008818005
0.007259528
0.009999408
0.01208548
0.01390296
0.01554386
0.01701912
0.0183104
0.01939482
0.02025142
0.02086296
0.02122027
0.02133991
0.02126942
0.02104251
0.02069809
0.02026853
0.01978598
0.01928109
0.01878215
0.01831419
0.01789837
0.0175516
0.01728642
0.01711125
0.01703082
0.01704653
0.01715855
0.01736423
0.01766019
0.0180425
0.01850688
0.01904884
0.0196643
0.02034786
0.0210929
0.02189311
0.02274139
0.02362967
0.02454889
0.02548888
0.02643913
0.02740236
0.02837837
0.02932479
0.0301835
0.03089822
0.03142159
0.03171781
0.03176538
0.03155927
0.03110384
0.0304048
0.02944732
0.02817841
0.02648522
0.02415488
0.02078215
0.01558846
0.01145115
0.008865398
0.007397949
0.01019392
0.01232687
0.0141775
0.01582241
0.01726794
0.01849829
0.01949456
0.02024023
0.02072443
0.020961
0.02098829
0.02085544
0.02058819
0.02022247
0.01978876
0.01931721
0.0188364
0.01837226
0.01794738
0.01758051
0.01728626
0.01707515
0.01695389
0.0169259
0.01699059
0.01714945
0.01739828
0.01773373
0.01815184
0.01864848
0.01921927
0.01986034
0.02056663
0.0213317
0.02214937
0.02301264
0.02391354
0.02484303
0.025791
0.02674668
0.02771198
0.02868668
0.02962971
0.0304838
0.03119218
0.0317059
0.03198745
0.03201443
0.03178211
0.03129664
0.03056564
0.02957545
0.02827395
0.02654871
0.02418847
0.0207909
0.01557702
0.01143258
0.008911176
0.007543865
0.01040832
0.01259199
0.01446929
0.01610703
0.01750897
0.0186624
0.01955305
0.0201697
0.02052557
0.02065612
0.02060943
0.02042172
0.02012446
0.0197459
0.01931516
0.01886062
0.01840869
0.01798295
0.01760359
0.01728699
0.01704557
0.01688797
0.0168193
0.01684135
0.01695503
0.0171581
0.01744797
0.01782087
0.01827301
0.01880043
0.01939891
0.02006479
0.02079331
0.02157827
0.02241359
0.02329229
0.02420642
0.02514692
0.02610364
0.02706523
0.02803273
0.0290061
0.02994567
0.03079478
0.03149589
0.03199843
0.03226335
0.03226794
0.03200801
0.03149059
0.03072429
0.02969854
0.02836292
0.02660414
0.02421321
0.020793
0.0155592
0.01140674
0.008973713
0.007708165
0.0106416
0.01287897
0.01477627
0.01639314
0.01773343
0.01878851
0.01955204
0.02003862
0.02027779
0.02032023
0.0202134
0.01998484
0.01966467
0.0192798
0.01885786
0.01842525
0.01800603
0.01762131
0.01728894
0.01702305
0.01683409
0.01672893
0.0167114
0.01678144
0.01694102
0.01718651
0.0175152
0.01792359
0.01840808
0.01896493
0.01959013
0.02028013
0.02103049
0.02183528
0.02268838
0.02358281
0.02451054
0.02546241
0.02642813
0.02739627
0.02836667
0.02933855
0.03027432
0.03111786
0.03181064
0.03230034
0.03254657
0.03252594
0.03223388
0.03168145
0.03088095
0.02982158
0.02845185
0.02665767
0.02423379
0.02078314
0.0155407
0.0113888
0.009029221
0.007873242
0.01088759
0.01318309
0.01509474
0.01667705
0.01793858
0.01888038
0.01951382
0.01986766
0.02000309
0.01997138
0.01981204
0.01955188
0.01921673
0.01883256
0.0184251
0.01801844
0.01763464
0.01729263
0.0170079
0.01679243
0.01665476
0.01660022
0.01663089
0.01674835
0.01695083
0.01723645
0.01760191
0.01804397
0.01855928
0.01914439
0.01979563
0.02050904
0.02128068
0.02210528
0.02297619
0.02388644
0.02482792
0.0257913
0.02676611
0.02774072
0.02871383
0.02968394
0.03061527
0.03145203
0.03213465
0.03260928
0.03283396
0.0327843
0.03245767
0.03186899
0.03103225
0.02993863
0.02853652
0.02671047
0.02425346
0.02077645
0.01551737
0.01136464
0.009103336
0.008064854
0.01116204
0.01350896
0.01542043
0.01694962
0.01811221
0.01892392
0.01941724
0.0196562
0.01970534
0.01961602
0.01941592
0.01913201
0.01878898
0.01841141
0.01802298
0.01764592
0.01729996
0.01700182
0.01676475
0.01659883
0.01651096
0.01650521
0.01658204
0.0167438
0.01698713
0.01731033
0.01771044
0.0181844
0.01872906
0.01934121
0.02001741
0.02075382
0.02154656
0.02239045
0.02327889
0.02420478
0.02515982
0.02613446
0.027118
0.02809859
0.02907385
0.03004159
0.03096747
0.03179598
0.03246677
0.03292404
0.0331237
0.03304256
0.03268115
0.03205603
0.03118213
0.03005188
0.02861334
0.02675417
0.02426816
0.02076728
0.01549551
0.01134856
0.009171211
0.008254937
0.01144559
0.01384214
0.01574245
0.01720129
0.01824737
0.01892027
0.01928662
0.01942718
0.01940521
0.01926564
0.01903371
0.01873356
0.01838899
0.01802298
0.01765749
0.01731281
0.01700625
0.0167522
0.01656206
0.01644416
0.01640396
0.01644379
0.01656569
0.01676802
0.01705037
0.01740937
0.01784241
0.01834669
0.01891934
0.01955743
0.0202577
0.02101644
0.0218297
0.02269238
0.02359788
0.02453892
0.02550697
0.02649225
0.02748375
0.02846942
0.02944603
0.03041081
0.03133046
0.03214967
0.03280652
0.03324295
0.03341482
0.03330133
0.03290425
0.0322412
0.03132927
0.03016243
0.02868806
0.026795
0.02428191
0.0207537
0.01546541
0.0113266
0.009252142
0.008467258
0.01175225
0.0141894
0.01606068
0.01742815
0.01834288
0.0188779
0.01912916
0.01918554
0.01910737
0.0189277
0.01867154
0.01836208
0.01802169
0.0176719
0.01733296
0.01702261
0.01675608
0.01654587
0.01640159
0.01633004
0.01633538
0.01641941
0.01658263
0.01682484
0.01714331
0.01753577
0.01799974
0.01853264
0.01913184
0.01979461
0.02051788
0.02129804
0.02213105
0.02301174
0.02393352
0.02488889
0.02586906
0.02686394
0.02786228
0.02885181
0.02982862
0.03078961
0.03170225
0.03251048
0.03315026
0.03356319
0.03370632
0.03355989
0.03312601
0.03242423
0.03147368
0.03026967
0.02875874
0.026831
0.02428804
0.02073778
0.01544055
0.01131234
0.00932941
0.008680593
0.01206281
0.01453347
0.01636071
0.01762107
0.01839869
0.01880468
0.0189574
0.01894388
0.01881771
0.01860683
0.01833411
0.018022
0.01769148
0.01736217
0.0170521
0.01677733
0.01655119
0.01638435
0.01628481
0.01625797
0.01630641
0.0164321
0.0166354
0.01691415
0.01726651
0.01769031
0.01818329
0.01874307
0.01936727
0.02005335
0.02079838
0.02159883
0.02245054
0.02334822
0.02428525
0.02525384
0.02624491
0.02724808
0.02825185
0.02924375
0.03021966
0.03117631
0.03208044
0.03287466
0.0334951
0.03388385
0.03399791
0.0338174
0.03334568
0.03260439
0.03161478
0.03037327
0.02882513
0.02686146
0.02428813
0.02071805
0.01540748
0.01129247
0.009417274
0.00891409
0.01239097
0.01488014
0.0166422
0.01778094
0.01842303
0.01871147
0.01878155
0.01871026
0.01854484
0.01830995
0.0180277
0.0177189
0.01740303
0.0170974
0.01681835
0.01657991
0.01639397
0.01626949
0.01621299
0.01622852
0.01631815
0.01648372
0.01672358
0.01703636
0.01742022
0.01787316
0.01839311
0.01897794
0.01962546
0.0203333
0.02109864
0.02191802
0.02278718
0.02370068
0.02465171
0.02563222
0.02663281
0.02764282
0.0286505
0.02964329
0.03061717
0.03156821
0.03246158
0.03324003
0.0338403
0.03420434
0.03428855
0.03407331
0.03356327
0.03278216
0.03175329
0.03047408
0.02888869
0.02688983
0.02428691
0.02069481
0.01537773
0.01128032
0.009503614
0.009149079
0.01271523
0.01521055
0.01689368
0.01790412
0.01841556
0.01860521
0.01860566
0.01848972
0.01829477
0.01804427
0.01775914
0.01745911
0.01716137
0.0168817
0.01663473
0.01643304
0.01628659
0.01620294
0.01618738
0.01624212
0.0163712
0.01657301
0.01684673
0.01719089
0.01760376
0.01808353
0.01862832
0.01923625
0.0199053
0.02063323
0.02141727
0.02225395
0.02313908
0.02406705
0.02503067
0.02602163
0.02703026
0.02804567
0.0290559
0.03004809
0.03101795
0.0319613
0.03284268
0.03360514
0.03418492
0.03452354
0.03457751
0.03432732
0.03377885
0.03295788
0.03188984
0.03057209
0.02894858
0.02691281
0.02427541
0.02066556
0.01534106
0.01126318
0.009598492
0.009397707
0.01304683
0.01552997
0.01711717
0.01799688
0.01839041
0.01849554
0.01844001
0.01828776
0.01807152
0.01781256
0.01753096
0.01724404
0.016967
0.01671459
0.01650016
0.01633471
0.01622658
0.01618207
0.0162042
0.01629806
0.01646281
0.01669813
0.01700297
0.01737589
0.0178153
0.01831957
0.01888706
0.01951608
0.0202048
0.02095105
0.02175211
0.02260446
0.02350399
0.02444492
0.02541963
0.02641954
0.02743477
0.02845404
0.02946497
0.03045466
0.03141915
0.03235392
0.033223
0.03396901
0.03452791
0.03484044
0.03486431
0.03457934
0.03399262
0.03313206
0.03202531
0.03066978
0.02900976
0.02693985
0.02427227
0.0206372
0.01530483
0.01125112
0.009689138
0.00964304
0.01336537
0.01582322
0.01730777
0.0180621
0.01835143
0.01838647
0.01828595
0.01810715
0.01787806
0.0176179
0.01734404
0.0170722
0.01681757
0.01659382
0.01641271
0.01628327
0.01621263
0.01620405
0.01626442
0.01639339
0.01659119
0.01685724
0.01719046
0.01758949
0.01805292
0.01857934
0.01916733
0.01981539
0.02052185
0.02128461
0.02210097
0.02296733
0.02387961
0.02483185
0.02581599
0.02682321
0.02784318
0.02886441
0.02987456
0.03086077
0.03181912
0.0327449
0.03360118
0.03433036
0.03486839
0.03515409
0.0351483
0.03482883
0.03420394
0.03330366
0.03215792
0.03076413
0.02906676
0.02696143
0.02426211
0.02060123
0.01525953
0.01123431
0.009788976
0.009895715
0.01367609
0.01609053
0.0174684
0.01810718
0.01830807
0.0182871
0.01815294
0.01795672
0.01772098
0.01746283
0.01719864
0.01694483
0.01671555
0.01652241
0.01637492
0.0162806
0.01624315
0.01627184
0.01636622
0.01652732
0.01675509
0.01704883
0.01740747
0.01782981
0.01831463
0.01886077
0.019467
0.02013202
0.02085423
0.02163163
0.02246145
0.02334004
0.02426333
0.02522517
0.026217
0.02722973
0.02825289
0.02927487
0.0302832
0.03126495
0.03221629
0.03313231
0.03397522
0.03468729
0.03520441
0.03546503
0.0354297
0.03507601
0.03441306
0.03347291
0.03228787
0.03085534
0.02912018
0.02697957
0.02425047
0.0205695
0.01522345
0.01122622
0.009876805
0.01013185
0.01396951
0.01633562
0.01759888
0.01813161
0.01826251
0.01820169
0.01804543
0.01783668
0.01759642
0.01734338
0.01709519
0.0168651