/*--------------------------------*- C++ -*----------------------------------*\
| =========                 |                                                 |
| \\      /  F ield         | OpenFOAM: The Open Source CFD Toolbox           |
|  \\    /   O peration     | Version:  2312                                  |
|   \\  /    A nd           | Website:  www.openfoam.com                      |
|    \\/     M anipulation  |                                                 |
\*---------------------------------------------------------------------------*/
FoamFile
{
    version     2.0;
    format      ascii;
    arch        "LSB;label=32;scalar=64";
    class       volScalarField;
    location    "1500";
    object      omega;
}
// * * * * * * * * * * * * * * * * * * * * * * * * * * * * * * * * * * * * * //

dimensions      [0 0 -1 0 0 0 0];

internalField   nonuniform List<scalar> 
12000
(
40.85085
16.37818
17.53435
18.70294
19.55859
20.30772
20.90045
21.4341
21.90775
22.34034
22.70066
23.01401
23.30569
23.58062
23.82745
24.02659
24.21503
24.38882
24.55486
24.68535
24.80705
24.91613
25.01669
25.09583
25.16715
25.22783
25.27724
25.31161
25.34162
25.36174
25.36796
25.36188
25.35864
25.34031
25.32086
25.28966
25.25283
25.21416
25.14018
25.10306
25.07709
25.04928
24.94687
24.75473
24.61916
24.59591
24.59493
24.41131
24.06451
23.94278
23.88348
23.62949
23.23846
22.93507
22.62624
22.08288
21.49658
20.46925
19.68126
43.43142
69.79309
18.84131
18.07367
18.30584
18.20389
18.19959
17.79335
17.34874
16.87917
16.40625
15.90784
15.47516
15.13367
14.78341
14.34055
13.96785
13.81202
13.63165
13.34536
13.08066
12.99412
12.90449
12.7414
12.62154
12.59063
12.52575
12.43762
12.42629
12.42257
12.37225
12.3494
12.342
12.3853
12.39027
12.38832
12.39438
12.46009
12.56683
12.68715
12.78002
12.82262
12.91191
13.11645
13.42755
13.72017
13.84949
13.95073
14.4331
15.16677
15.787
16.23335
17.21046
18.70152
20.3426
22.29565
25.09019
29.73443
37.03135
52.28735
78.83853
73.06414
18.46901
17.10495
16.24466
15.49586
14.63413
13.91912
13.08919
12.37048
11.63461
11.0346
10.54406
10.06752
9.68313
9.356383
9.098461
8.881269
8.679135
8.506894
8.376078
8.275733
8.186116
8.112809
8.062909
8.028023
7.99947
7.97518
7.970854
7.970306
7.969428
7.978512
7.998364
8.020611
8.044532
8.07356
8.109475
8.153806
8.206026
8.265312
8.329734
8.40239
8.49139
8.599793
8.726384
8.8655
9.02607
9.229011
9.477445
9.772526
10.12389
10.58111
11.16151
11.89302
12.87535
14.17307
15.92003
18.50966
24.52414
38.87819
83.60127
75.0269
17.90707
15.36695
14.41382
13.44132
12.42953
11.52349
10.64856
9.869036
9.253424
8.696126
8.218031
7.786957
7.408955
7.117641
6.869256
6.658883
6.4839
6.342621
6.230619
6.142275
6.074054
6.024278
5.990846
5.97087
5.958061
5.956622
5.966594
5.982926
6.004983
6.033528
6.068265
6.108341
6.153784
6.205163
6.263505
6.330064
6.405954
6.492247
6.590029
6.701464
6.830426
6.980877
7.156886
7.360808
7.595927
7.875354
8.211929
8.614846
9.098354
9.678715
10.37893
11.21495
12.21605
13.50402
15.4556
18.68085
24.18185
37.45013
86.17355
76.86561
17.19412
14.126
13.11482
12.02915
10.96622
10.00574
9.13826
8.386629
7.772687
7.261964
6.817701
6.441198
6.10675
5.816501
5.576709
5.377525
5.215007
5.084135
4.980534
4.900299
4.840278
4.797772
4.77036
4.755908
4.753955
4.759514
4.774481
4.797175
4.826492
4.86216
4.903941
4.95172
5.005679
5.066297
5.134315
5.210723
5.296652
5.393856
5.504188
5.629488
5.771981
5.934408
6.123067
6.338714
6.585585
6.867153
7.192551
7.576848
8.023177
8.514957
9.083852
9.80361
10.76686
12.09015
13.93374
16.7088
21.75847
34.07023
88.08072
78.6243
16.80611
13.16445
12.06679
10.95194
9.904465
8.977162
8.166232
7.462105
6.856912
6.340142
5.907947
5.544856
5.231112
4.960175
4.731442
4.541282
4.385196
4.258913
4.158476
4.080529
4.022215
3.981017
3.954731
3.941447
3.940146
3.947923
3.964843
3.989865
4.022267
4.061684
4.10807
4.161453
4.222087
4.290515
4.367555
4.454226
4.55174
4.662775
4.789098
4.933276
5.097348
5.283861
5.496071
5.739307
6.017617
6.335018
6.699253
7.10839
7.571316
8.116634
8.781079
9.599714
10.61891
11.93338
13.75348
16.52953
21.4495
33.39765
89.13477
80.21063
16.5732
12.41386
11.24051
10.14627
9.142667
8.260688
7.48263
6.79661
6.205156
5.703568
5.280884
4.924812
4.627108
4.372332
4.152527
3.968309
3.815449
3.690533
3.59022
3.511532
3.451858
3.408886
3.380615
3.365319
3.362633
3.368961
3.384862
3.409515
3.44244
3.48349
3.53291
3.590645
3.657072
3.732914
3.819327
3.917433
4.028016
4.152745
4.294467
4.455391
4.63772
4.843963
5.075134
5.334479
5.62838
5.957583
6.320528
6.728236
7.194338
7.733823
8.366721
9.129704
10.08677
11.34753
13.10633
15.79108
20.56648
32.29999
90.16782
81.87382
16.57923
11.86578
10.58922
9.525588
8.569777
7.731929
6.987736
6.325382
5.75174
5.263471
4.850622
4.504806
4.216449
3.968384
3.759453
3.584066
3.434808
3.310922
3.210242
3.130013
3.067947
3.021991
2.990323
2.971408
2.965607
2.968409
2.981341
3.004023
3.035893
3.076543
3.126399
3.186237
3.256328
3.337408
3.43055
3.53711
3.658685
3.796353
3.952443
4.129192
4.32875
4.553555
4.805702
5.089054
5.404813
5.75327
6.141169
6.57549
7.064885
7.623655
8.275163
9.056386
10.02704
11.28979
13.03653
15.69556
20.41075
31.72937
90.68958
83.2373
16.6653
11.4438
10.06889
9.038934
8.133277
7.341856
6.63668
6.005403
5.454927
4.982713
4.580932
4.241072
3.954935
3.715832
3.51333
3.340768
3.199329
3.084027
2.988034
2.908055
2.843679
2.79418
2.75826
2.734722
2.72255
2.721186
2.730086
2.748919
2.777522
2.816004
2.864592
2.924192
2.995597
3.07964
3.177332
3.289987
3.419116
3.566476
3.734045
3.923808
4.137759
4.377771
4.646219
4.944087
5.272073
5.632893
6.029634
6.467122
6.95181
7.496736
8.124029
8.869771
9.795202
11.00827
12.71331
15.31445
19.92611
31.28485
91.22193
84.78085
16.91912
11.17455
9.669752
8.663895
7.812123
7.071281
6.407166
5.806721
5.275186
4.816144
4.425769
4.097014
3.822997
3.594627
3.401434
3.237163
3.098831
2.983216
2.886908
2.808285
2.746442
2.697559
2.659067
2.63081
2.612715
2.606233
2.609269
2.621886
2.644446
2.677521
2.721848
2.778464
2.848751
2.933332
3.032572
3.148155
3.281904
3.435652
3.611251
3.810501
4.035039
4.286218
4.566172
4.876924
5.219176
5.593958
6.002418
6.447203
6.935864
7.480969
8.107313
8.849884
9.770741
10.97879
12.67343
15.26405
19.84993
30.90304
91.55292
86.20087
17.33712
11.01225
9.380193
8.388337
7.586546
6.893038
6.266875
5.70223
5.210154
4.78433
4.4175
4.101874
3.829474
3.601583
3.408946
3.245786
3.108478
2.99375
2.898214
2.819407
2.75495
2.702587
2.661644
2.630661
2.60802
2.595039
2.592121
2.598493
2.614979
2.642273
2.681117
2.732247
2.796283
2.875037
2.970988
3.0856
3.220397
3.37706
3.557345
3.763007
3.995707
4.256935
4.546701
4.864783
5.212255
5.590125
6.000128
6.444619
6.929106
7.463416
8.064598
8.774025
9.658735
10.82973
12.48437
15.02695
19.56355
30.66812
91.80718
87.53406
17.72139
10.96389
9.164348
8.175945
7.421927
6.780572
6.204647
5.690093
5.214354
4.797242
4.440162
4.138736
3.884161
3.668241
3.487919
3.338315
3.212837
3.105882
3.01288
2.930027
2.85583
2.791367
2.738808
2.699503
2.671016
2.651012
2.639073
2.635969
2.642646
2.660451
2.690653
2.73458
2.793669
2.869353
2.963083
3.076361
3.210751
3.367874
3.549369
3.756818
3.991656
4.255086
4.547891
4.870395
5.222794
5.605104
6.017674
6.461994
6.942271
7.468623
8.06166
8.763211
9.641159
10.80916
12.46409
15.00614
19.52762
30.46801
92.06671
88.74515
18.37849
11.00682
9.060802
8.056373
7.334711
6.735996
6.2081
5.714159
5.282789
4.903719
4.575137
4.29154
4.049157
3.846067
3.678197
3.538549
3.419691
3.314866
3.218095
3.125252
3.035461
2.951899
2.880156
2.824001
2.78161
2.749166
2.725355
2.710819
2.706746
2.714388
2.735318
2.771067
2.823152
2.89307
2.982323
3.092434
3.224958
3.381461
3.563466
3.772378
4.009385
4.275377
4.57086
4.89596
5.250292
5.633616
6.045498
6.486274
6.961219
7.479352
8.057097
8.733139
9.582812
10.72206
12.34714
14.86198
19.36129
30.31412
92.17182
89.69524
18.86955
11.07898
8.982285
7.968678
7.277251
6.721808
6.228426
5.788471
5.393218
5.041929
4.735191
4.470711
4.248734
4.065888
3.916852
3.790926
3.679316
3.57475
3.470088
3.360932
3.248508
3.140532
3.046924
2.972539
2.913656
2.865868
2.827946
2.800422
2.784455
2.781518
2.793187
2.821023
2.866521
2.931138
3.016316
3.123505
3.254159
3.409715
3.59153
3.800798
4.038466
4.305149
4.601095
4.926197
5.280124
5.662181
6.073569
6.517713
6.992463
7.497647
8.05701
8.720282
9.564104
10.70381
12.33332
14.84939
19.33986
30.25432
92.4039
90.5985
19.50968
11.24899
8.986243
7.92998
7.256456
6.728548
6.279075
5.878958
5.520648
5.202296
4.922668
4.682817
4.481812
4.316704
4.180653
4.065236
3.960066
3.854065
3.73782
3.607476
3.468556
3.334994
3.220206
3.127456
3.050889
2.985996
2.932567
2.891191
2.863104
2.84975
2.852576
2.873059
2.912579
2.972465
3.054033
3.158602
3.287487
3.441962
3.623193
3.832158
4.069564
4.335797
4.630894
4.954606
5.306414
5.688098
6.104583
6.550414
7.013518
7.501339
8.044137
8.693114
9.522356
10.64447
12.25192
14.7466
19.22501
30.1229
92.46071
91.25943
20.07455
11.44583
9.020288
7.931205
7.261974
6.766299
6.355838
5.996839
5.67644
5.390568
5.137331
4.92113
4.742717
4.59859
4.477606
4.370265
4.264992
4.148765
4.011219
3.851357
3.681718
3.523124
3.389493
3.278139
3.182474
3.10003
3.030835
2.975715
2.935912
2.912759
2.907554
2.921345
2.955709
3.011602
3.090177
3.192593
3.32
3.473486
3.654015
3.86235
4.099
4.364197
4.657924
4.979984
5.330181
5.716083
6.138005
6.577777
7.027958
7.502673
8.036207
8.679536
9.506496
10.62946
12.24048
14.73783
19.21005
30.0977
92.61324
91.87172
20.6135
11.662
9.088784
7.953381
7.288489
6.817314
6.440685
6.117426
5.830642
5.575501
5.353813
5.167068
5.0128
4.883844
4.772706
4.668624
4.557478
4.424098
4.259061
4.067583
3.871386
3.694703
3.545414
3.416332
3.302016
3.202649
3.118566
3.050701
3.000249
2.968349
2.956081
2.964312
2.994308
3.04689
3.123031
3.223713
3.349898
3.502472
3.682178
3.889561
4.124935
4.388398
4.679906
4.999329
5.352535
5.745063
6.164976
6.594627
7.032439
7.496641
8.021915
8.658201
9.477055
10.58844
12.18297
14.66276
19.12076
29.98565
92.65089
92.34186
21.11316
11.88971
9.184247
7.998683
7.328719
6.874613
6.525596
6.234322
5.981057
5.759022
5.567417
5.405062
5.269058
5.153623
5.050191
4.945575
4.823057
4.666636
4.471036
4.251155
4.036361
3.848204
3.684602
3.537829
3.406586
3.291892
3.19463
3.115589
3.055875
3.016456
2.998193
3.001813
3.028222
3.078173
3.15245
3.251844
3.377119
3.528954
3.707891
3.9143
4.148378
4.410197
4.699801
5.018525
5.375193
5.770832
6.186067
6.606429
7.035292
7.493161
8.015073
8.649801
9.468158
10.57995
12.17534
14.65526
19.11177
29.96576
92.70488
92.75046
21.54906
12.11751
9.295619
8.061942
7.382657
6.940869
6.61527
6.352566
6.129654
5.937592
5.773188
5.633637
5.514723
5.410001
5.309389
5.19769
5.056357
4.871363
4.645968
4.405472
4.180389
3.981793
3.803579
3.641051
3.49509
3.367215
3.258633
3.17015
3.10274
3.057177
3.034118
3.034198
3.057588
3.105693
3.178715
3.277262
3.401899
3.553102
3.731224
3.936488
4.169008
4.428862
4.716158
5.036677
5.398301
5.793039
6.201254
6.61309
7.035522
7.489819
8.008125
8.638549
9.451038
10.55471
12.13869
14.60339
19.04098
29.85851
92.70457
93.05614
21.93798
12.34866
9.423241
8.142132
7.449726
7.015457
6.708789
6.470851
6.274993
6.109579
5.968965
5.848693
5.743429
5.645443
5.542609
5.417581
5.251703
5.03642
4.785729
4.531905
4.301704
4.094091
3.901753
3.725701
3.56733
3.42853
3.31071
3.214638
3.14116
3.09087
3.064241
3.061742
3.083376
3.130373
3.202756
3.300935
3.425279
3.576082
3.753556
3.957842
4.189063
4.44741
4.733193
5.055432
5.420376
5.812794
6.214626
6.620103
7.03819
7.489832
8.007463
8.637262
9.448778
10.55211
12.13556
14.59868
19.02886
29.841
92.67871
93.30811
22.284
12.57017
9.558049
8.233737
7.527
7.096976
6.805397
6.58827
6.415368
6.272292
6.151231
6.046198
5.950485
5.854467
5.743553
5.598667
5.403642
5.159715
4.892646
4.635261
4.39946
4.180781
3.97717
3.790543
3.622757
3.475546
3.350637
3.249062
3.171333
3.117895
3.08907
3.085176
3.10605
3.152764
3.225147
3.323422
3.447772
3.598334
3.775198
3.978444
4.208205
4.464767
4.751544
5.077506
5.442989
5.831417
6.227494
6.628185
7.04335
7.49324
8.00907
8.637015
9.445379
10.54033
12.1146
14.56723
18.98187
29.7918
92.64925
93.48892
22.65263
12.79984
9.70526
8.33866
7.615439
7.185979
6.905224
6.704411
6.549752
6.424131
6.317739
6.223082
6.131789
6.03185
5.90611
5.735467
5.510556
5.244976
4.970684
4.712547
4.471499
4.243487
4.030989
3.836336
3.661668
3.508811
3.379189
3.273999
3.193861
3.138896
3.109278
3.105187
3.126274
3.173495
3.24648
3.345284
3.469947
3.620495
3.796962
3.999423
4.228068
4.483268
4.771242
5.100292
5.464983
5.849073
6.240399
6.638244
7.05234
7.501692
8.01646
8.642035
9.446995
10.53973
12.10903
14.55734
18.97455
29.78638
92.63241
93.61249
22.96053
13.02005
9.856591
8.451645
7.711919
7.280953
7.007634
6.818865
6.677572
6.564206
6.467205
6.37751
6.284646
6.173868
6.026334
5.826179
5.574465
5.296008
5.022907
4.764279
4.516788
4.282288
4.06375
3.86387
3.68497
3.528906
3.397051
3.290342
3.209474
3.154569
3.125522
3.122372
3.144565
3.192995
3.267087
3.366762
3.491959
3.64265
3.818875
4.020785
4.248712
4.503204
4.792373
5.123738
5.487396
5.867863
6.255805
6.651561
7.064448
7.512919
8.026513
8.649939
9.451227
10.53904
12.10078
14.53384
18.93853
29.73712
92.58346
93.71104
23.23333
13.23904
10.01722
8.576024
7.818166
7.382638
7.112774
6.931316
6.798127
6.69153
6.598369
6.507801
6.406792
6.277913
6.102533
5.872357
5.601755
5.32162
5.050215
4.788567
4.536787
4.298383
4.076593
3.874276
3.6938
3.536987
3.405122
3.298991
3.219163
3.165739
3.138523
3.137377
3.161534
3.211851
3.287565
3.3885
3.514527
3.665597
3.841777
4.043306
4.270654
4.525846
4.817405
5.149981
5.51234
5.890308
6.276007
6.670342
7.082598
7.530608
8.043092
8.664059
9.461091
10.54221
12.09745
14.53032
18.93105
29.72338
92.54827
93.78055
23.46258
13.44698
10.1769
8.704868
7.931032
7.489676
7.219923
7.041157
6.910776
6.805399
6.710302
6.612301
6.49518
6.339665
6.131251
5.875477
5.598471
5.321246
5.050967
4.787676
4.534577
4.295058
4.072621
3.870261
3.690392
3.534823
3.404781
3.300982
3.223723
3.173073
3.148798
3.150482
3.177635
3.230394
3.308193
3.410784
3.538003
3.689796
3.866268
4.067732
4.294773
4.55125
4.845451
5.178622
5.539248
5.914714
6.2986
6.692173
7.104061
7.551176
8.061506
8.678723
9.470284
10.54426
12.09083
14.5114
18.90233
29.68873
92.48439
93.85827
23.66157
13.65786
10.34416
8.842071
8.051946
7.602465
7.32888
7.147786
7.01474
6.904945
6.801696
6.688744
6.547154
6.359286
6.12541
5.857002
5.579443
5.305684
5.034165
4.768668
4.514088
4.274509
4.053151
3.852791
3.675654
3.523377
3.397025
3.297155
3.223935
3.177208
3.156746
3.162017
3.192775
3.248489
3.328799
3.433424
3.562195
3.715082
3.892239
4.094056
4.321225
4.578933
4.875155
5.208558
5.567851
5.94176
6.324652
6.717676
7.128889
7.574616
8.082452
8.695891
9.482374
10.55008
12.08968
14.50594
18.89164
29.67143
92.43699
93.92589
23.84287
13.85509
10.50876
8.982135
8.177792
7.719199
7.438458
7.250364
7.109391
6.989337
6.870899
6.734606
6.560798
6.345132
6.087658
5.814347
5.539078
5.26405
4.992239
4.727983
4.475485
4.238588
4.020605
3.824265
3.651675
3.504321
3.383112
3.288458
3.220388
3.178584
3.16275
3.172207
3.206866
3.265996
3.349218
3.456251
3.586946
3.741314
3.919563
4.122152
4.349858
4.60875
4.906463
5.239859
5.598057
5.97088
6.353192
6.745858
7.15628
7.600157
8.104708
8.713287
9.493313
10.55304
12.08362
14.48976
18.86547
29.63905
92.35997
94.01576
24.04355
14.06588
10.68471
9.131689
8.311099
7.840302
7.548139
7.348103
7.193794
7.057079
6.915429
6.747441
6.544345
6.298217
6.03018
5.756316
5.480612
5.205137
4.93426
4.672206
4.423025
4.19038
3.977421
3.786704
3.620155
3.479074
3.364198
3.275781
3.213726
3.177623
3.16698
3.181045
3.220026
3.282936
3.369412
3.479202
3.612193
3.768439
3.948202
4.151994
4.380647
4.640758
4.939636
5.273038
5.630597
6.002897
6.384942
6.777151
7.186321
7.62772
8.128415
8.731843
9.505628
10.55832
12.08158
14.4811
18.85098
29.61899
92.30643
94.09221
24.23483
14.26713
10.86145
9.286448
8.449854
7.964395
7.656737
7.439743
7.266052
7.105178
6.932555
6.733034
6.494217
6.230802
5.958949
5.683917
5.406822
5.131739
4.862827
4.604166
4.359594
4.132551
3.925958
3.742143
3.582808
3.449044
3.341399
3.259977
3.204552
3.174633
3.169665
3.18875
3.232333
3.299323
3.389366
3.502243
3.637878
3.796372
3.97803
4.183412
4.413413
4.674792
4.974474
5.307786
5.664937
6.036979
6.418809
6.810329
7.217759
7.655991
8.151994
8.749296
9.515675
10.5599
12.07348
14.46325
18.82315
29.58331
92.22493
94.19119
24.42887
14.48573
11.05251
9.451691
8.595313
8.090719
7.762597
7.523369
7.324314
7.132682
6.92453
6.685683
6.422894
6.151238
5.876488
5.598482
5.320674
5.046854
4.780934
4.526759
4.287915
4.06758
3.86841
3.692472
3.541221
3.415525
3.315742
3.241827
3.193445
3.170041
3.170989
3.195574
3.24399
3.315314
3.409209
3.525482
3.664095
3.825178
4.009064
4.21633
4.448085
4.710882
5.011116
5.344363
5.701334
6.073289
6.454858
6.845387
7.250573
7.685052
8.175832
8.766684
9.52569
10.56207
12.06781
14.45028
18.80402
29.56057
92.17241
94.28567
24.62816
14.69866
11.24797
9.624251
8.745565
8.217657
7.864252
7.596671
7.363725
7.131297
6.88337
6.615139
6.339632
6.062756
5.783055
5.502753
5.225012
4.953326
4.691329
4.442589
4.210406
3.997663
3.806728
3.639387
3.496833
3.37971
3.288197
3.222115
3.18104
3.164384
3.171368
3.201811
3.255205
3.331118
3.429127
3.549092
3.691007
3.855023
4.04148
4.250957
4.484579
4.74866
5.049357
5.382579
5.739453
6.111301
6.492391
6.881501
7.283858
7.713913
8.198741
8.782313
9.532838
10.55951
12.05587
14.42868
18.77314
29.52505
92.10191
94.40866
24.85752
14.92533
11.45531
9.808475
8.903079
8.345597
7.959705
7.655478
7.380825
7.107617
6.821973
6.534193
6.249391
5.965165
5.681143
5.399309
5.122444
4.853733
4.596495
4.353995
4.129222
3.924749
3.742636
3.584382
3.450923
3.342683
3.259678
3.201617
3.16801
3.158253
3.171441
3.207678
3.266326
3.347023
3.449394
3.573327
3.718835
3.886078
4.075392
4.287338
4.52292
4.788212
5.08932
5.422521
5.779284
6.150888
6.53118
6.918388
7.317326
7.742342
8.220711
8.796846
9.53925
10.55717
12.04479
14.40973
18.74782
29.49758
92.05717
94.52582
25.07403
15.153
11.66473
9.9955
9.061252
8.469677
8.04514
7.6971
7.375874
7.05873
6.747469
6.44638
6.152009
5.860918
5.57327
5.290618
5.01538
4.750389
4.498622
4.263016
4.046232
3.850518
3.677623
3.528757
3.404602
3.30539
3.230988
3.181011
3.154927
3.152132
3.17165
3.213783
3.277819
3.363462
3.470384
3.598491
3.747809
3.918492
4.110857
4.325439
4.563059
4.829517
5.130945
5.464032
5.820529
6.191599
6.570636
6.955305
7.350156
7.769712
8.241402
8.809437
9.542656
10.55019
12.02779
14.38352
18.71176
29.45435
91.99015
94.69621
25.3445
15.41076
11.89483
10.19442
9.223618
8.589675
8.116706
7.715977
7.345815
6.995028
6.665806
6.353059
6.04922
5.752137
5.4616
5.178848
4.905945
4.645343
4.399636
4.171429
3.963048
3.776412
3.612959
3.473621
3.358843
3.268675
3.20286
3.160937
3.142337
3.146375
3.172671
3.220706
3.290195
3.380884
3.492489
3.624914
3.778175
3.95241
4.147906
4.365158
4.604947
4.872672
5.174309
5.50715
5.863217
6.233506
6.610912
6.99266
7.383011
7.796096
8.259583
8.819117
9.544255
10.54424
12.01333
14.36036
18.6826
29.42526
91.94752
94.85283
25.59134
15.66637
12.13231
10.39901
9.385002
8.699878
8.169968
7.71338
7.29899
6.923775
6.579964
6.254975
5.942657
5.640493
5.347974
5.06592
4.795962
4.540254
4.301066
4.080638
3.880947
3.703581
3.549676
3.419894
3.314473
3.233303
3.176021
3.142114
3.131001
3.1419
3.174704
3.228787
3.303814
3.399618
3.516018
3.652841
3.810105
3.987925
4.186553
4.406438
4.648313
4.91721
5.218961
5.551387
5.906733
6.275799
6.651094
7.029375
7.414311
7.820179
8.275668
8.826603
9.542533
10.53381
11.99446
14.33069
18.64169
29.379
91.88062
95.0747
25.87987
15.94851
12.38528
10.6098
9.542667
8.796087
8.202388
7.691706
7.243535
6.848526
6.489832
6.153678
5.833948
5.527684
5.234008
4.95331
4.68692
4.436619
4.20433
3.991934
3.801077
3.633037
3.488662
3.368369
3.272202
3.199915
3.151055
3.125069
3.12137
3.139122
3.178382
3.238475
3.319088
3.420062
3.541234
3.682439
3.843669
4.025006
4.226659
4.449031
4.692812
4.962706
5.264411
5.596179
5.950452
6.317942
6.690666
7.064532
7.443184
7.841853
8.289677
8.832277
9.538966
10.52065
11.97267
14.30139
18.60634
29.3429
91.83507
95.28348
26.1714
16.24014
12.64621
10.82205
9.691816
8.874281
8.214091
7.655606
7.181958
6.770423
6.397481
6.051149
5.724874
5.415296
5.121105
4.842352
4.580039
4.33554
4.110388
3.906161
3.724191
3.565456
3.430531
3.319608
3.232556
3.169001
3.128417
3.110211
3.11374
3.138556
3.184155
3.250184
3.33633
3.44242
3.568294
3.713783
3.87885
4.063536
4.268009
4.492625
4.738039
5.008721
5.310266
5.641255
5.994327
6.359841
6.729037
7.097727
7.47017
7.861933
8.301977
8.835988
9.533123
10.50513
11.94742
14.2668
18.56069
29.28898
91.76654
95.53574
26.48716
16.55537
12.92051
11.034
9.82749
8.932309
8.210206
7.61363
7.117618
6.689185
6.303401
5.94812
5.61633
5.304241
5.010227
4.734037
4.4762
4.237742
4.019892
3.823914
3.650834
3.501344
3.375763
3.274074
3.195985
3.141014
3.108569
3.098033
3.108686
3.140235
3.192153
3.264055
3.35565
3.46675
3.597184
3.746781
3.915469
4.103248
4.310242
4.536775
4.78348
5.054659
5.355862
5.685961
6.037502
6.400231
6.765241
7.12876
7.495264
7.880057
8.31211
8.837217
9.525287
10.48776
11.92053
14.23045
18.51938
29.24955
91.72026
95.77594
26.80125
16.87475
13.19778
11.24021
9.948159
8.97305
8.194111
7.567024
7.051062
6.60622
6.208604
5.845341
5.508952
5.19522
4.902078
4.628839
4.375769
4.143574
3.933172
3.745516
3.581332
3.441029
3.324686
3.232092
3.16281
3.116258
3.091791
3.088769
3.106453
3.144592
3.202633
3.280226
3.377083
3.49299
3.627755
3.7812
3.95321
4.143744
4.35289
4.580946
4.828535
5.099942
5.400728
5.729624
6.078826
6.438218
6.799131
7.157788
7.518334
7.896055
8.320143
8.83661
9.515054
10.46749
11.88979
14.18878
18.46949
29.19433
91.65512
96.04522
27.1322
17.20974
13.47731
11.43328
10.04716
8.994693
8.167988
7.516114
6.982535
6.522572
6.114191
5.743993
5.403883
5.089235
4.797451
4.527552
4.279458
4.053663
3.850775
3.671442
3.516094
3.384869
3.277618
3.193946
3.133275
3.094935
3.07823
3.082468
3.107092
3.151601
3.21555
3.2986
3.400464
3.52091
3.65972
3.816688
3.991663
4.184567
4.395458
4.624622
4.872692
5.144075
5.444189
5.771358
6.11788
6.473922
6.830841
7.184556
7.539069
7.909698
8.325778
8.833495
9.502629
10.44541
11.8578
14.14643
18.41882
29.14802
91.6151
96.30536
27.46514
17.54322
13.75108
11.61252
10.13001
9.007656
8.139702
7.463837
6.912214
6.438989
6.021289
5.645141
5.302122
4.987024
4.696951
4.43062
4.187737
3.968443
3.773084
3.602024
3.455407
3.333116
3.23478
3.159823
3.107543
3.077189
3.068019
3.079327
3.110552
3.161162
3.230743
3.31895
3.42549
3.550135
3.692642
3.852755
4.030291
4.22515
4.437376
4.667253
4.915409
5.1863
5.485239
5.810443
6.154404
6.507208
6.860083
7.208865
7.557448
7.921113
8.329328
8.828202
9.488048
10.42101
11.8224
14.099
18.36
29.0818
91.56076
96.58747
27.81751
17.88571
14.0163
11.77204
10.19356
9.006875
8.10679
7.409509
6.840915
6.355473
5.92946
5.548441
5.203253
4.888167
4.600111
4.337621
4.100134
3.887491
3.699768
3.537023
3.399117
3.285676
3.196107
3.129672
3.085554
3.062933
3.061031
3.079152
3.11663
3.173022
3.247901
3.340918
3.451763
3.580219
3.726025
3.888869
4.068547
4.264947
4.478094
4.708243
4.956066
5.226137
5.523714
5.846948
6.188278
6.537788
6.88669
7.230694
7.57351
7.93029
8.330429
8.821021
9.471996
10.39571
11.78711
14.0531
18.30366
29.02477
91.52401
96.85501
28.15615
18.21587
14.26587
11.91099
10.23997
8.997727
8.068796
7.35199
6.768012
6.271974
5.839134
5.454047
5.106983
4.79225
4.506624
4.248382
4.016597
3.810863
3.630938
3.47658
3.347363
3.242656
3.161665
3.1035
3.067245
3.052072
3.057062
3.08155
3.125013
3.186854
3.266667
3.364105
3.47885
3.610695
3.75936
3.924491
4.105868
4.30335
4.516965
4.747023
4.994248
5.263313
5.559447
5.880604
6.219229
6.56548
6.910555
7.250021
7.587388
7.937682
8.330342
8.81207
9.453691
10.3676
11.74843
14.0036
18.24447
28.9648
91.47261
97.14907
28.51993
18.53998
14.49323
12.03059
10.27566
8.983914
8.028032
7.293105
6.695691
6.190444
5.751316
5.362238
5.013704
4.69992
4.417284
4.16365
3.937855
3.739184
3.567115
3.42111
3.300455
3.204278
3.131599
3.081399
3.052678
3.04457
3.056127
3.086649
3.135583
3.202404
3.286696
3.388099
3.506287
3.641062
3.792131
3.959091
4.141715
4.339877
4.553629
4.78331
5.029685
5.297541
5.592068
5.911058
6.247004
6.590122
6.931568
7.266729
7.598856
7.942768
8.327837
8.80091
9.433206
10.33728
11.70756
13.95264
18.18815
28.92298
91.44321
97.40953
28.82076
18.84064
14.69915
12.12001
10.28962
8.960164
7.983698
7.233995
6.624885
6.110367
5.664849
5.272804
4.92403
4.612003
4.332772
4.08402
3.864351
3.672817
3.508605
3.370848
3.258552
3.170619
3.105898
3.063255
3.041699
3.040126
3.057721
3.093855
3.147848
3.219203
3.307508
3.412404
3.53356
3.670795
3.823806
3.992161
4.17564
4.374129
4.587703
4.816738
5.06206
5.328561
5.621401
5.938253
6.271647
6.61184
6.949925
7.281076
7.60825
7.946072
8.323601
8.787961
9.410723
10.3045
11.6632
13.89545
18.11817
28.85136
91.41782
97.722
29.16176
19.1106
14.87067
12.19429
10.3017
8.938361
7.938738
7.171854
6.550954
6.029569
5.580727
5.1874
4.839034
4.529049
4.253426
4.009731
3.796363
3.61205
3.45565
3.325983
3.221786
3.141749
3.084577
3.049038
3.034231
3.038748
3.061918
3.103067
3.161576
3.236941
3.328751
3.436646
3.560289
3.699521
3.854038
4.023386
4.207354
4.405853
4.61899
4.84719
5.091337
5.356427
5.647597
5.962402
6.293406
6.630902
6.965895
7.2933
7.615673
7.947187
8.31771
8.773626
9.38701
10.27077
11.61865
13.83983
18.05261
28.77817
91.3826
97.97379
29.46042
19.35606
15.02074
12.26514
10.31364
8.910292
7.890025
7.110458
6.480382
5.953264
5.501296
5.106893
4.759109
4.451326
4.17954
3.941143
3.73422
3.557158
3.408471
3.286668
3.190235
3.11768
3.067586
3.038648
3.02987
3.039922
3.068178
3.113861
3.176383
3.255257
3.350076
3.460486
3.586155
3.726947
3.882564
4.052538
4.23668
4.434924
4.647418
4.874635
5.117526
5.381185
5.670721
5.983585
6.312377
6.647419
6.979619
7.303626
7.621622
7.94753
8.310565
8.75778
9.361541
10.23496
11.57149
13.78081
17.98343
28.71359
91.35109
98.25705
29.72621
19.55994
15.14321
12.30974
10.30585
8.877004
7.840651
7.048588
6.410934
5.880083
5.426557
5.032013
4.685404
4.380042
4.11216
3.879079
3.67857
3.508626
3.367403
3.253103
3.163985
3.098403
3.054848
3.03197
3.028654
3.043699
3.076394
3.126024
3.192006
3.27386
3.371186
3.483638
3.610889
3.752829
3.90917
4.079442
4.263476
4.46124
4.672919
4.899038
5.140668
5.402948
5.690902
6.001951
6.328721
6.661539
6.991201
7.31207
7.625914
7.946229
8.302026
8.740617
9.334788
10.19791
11.52323
13.72067
17.9115
28.63395
91.31929
98.51785
29.9939
19.75429
15.24448
12.34533
10.29753
8.845039
7.791703
6.98929
6.347852
5.815988
5.360461
4.962651
4.614895
4.312682
4.050164
3.82314
3.629313
3.466436
3.332402
3.225174
3.142829
3.083598
3.045892
3.028722
3.030131
3.049597
3.086188
3.139223
3.208138
3.292466
3.391821
3.505863
3.634281
3.77699
3.933719
4.104
4.287691
4.484795
4.695539
4.920497
5.160868
5.421822
5.708288
6.017668
6.342599
6.673394
7.000714
7.318622
7.628496
7.943256
8.291941
8.722028
9.306643
10.15946
11.47373
13.65989
17.8407
28.55929
91.28086
98.77079
30.23334
19.90147
15.30528
12.34418
10.27166
8.804331
7.740617
6.932439
6.289337
5.757116
5.300796
4.901318
4.551537
4.250274
3.99287
3.772698
3.585939
3.430188
3.303144
3.202617
3.126579
3.073196
3.040858
3.028503
3.034211
3.05743
3.097317
3.153197
3.22452
3.310832
3.411759
3.526976
3.656181
3.79932
3.956141
4.126184
4.30934
4.505644
4.715368
4.939136
5.178271
5.437969
5.723062
6.030933
6.354215
6.683181
7.008331
7.323353
7.629029
7.938681
8.280465
8.702045
9.277015
10.11944
11.42264
13.59772
17.76972
28.49099
91.25197
99.00791
30.4798
20.05288
15.35891
12.34343
10.24403
8.762881
7.690686
6.879544
6.236323
5.704128
5.247896
4.848114
4.497253
4.195098
3.94149
3.728358
3.548629
3.399795
3.279393
3.185108
3.11483
3.066688
3.039052
3.030721
3.040244
3.066737
3.109418
3.167649
3.240906
3.328753
3.430832
3.546835
3.676483
3.819752
3.97641
4.146013
4.32848
4.523883
4.732534
4.955105
5.193042
5.451568
5.73541
6.041926
6.363739
6.691082
7.014322
7.326858
7.629018
7.933117
8.267779
8.680765
9.246037
10.07802
11.37014
13.53394
17.69594
28.4153
91.21852
99.20296
30.63321
20.12789
15.38643
12.3288
10.20933
8.718825
7.642201
6.829915
6.187172
5.655984
5.201106
4.802689
4.452557
4.150441
3.897778
3.689533
3.516986
3.37493
3.260824
3.172301
3.107232
3.063744
3.040222
3.035552
3.048203
3.077377
3.122314
3.182396
3.257121
3.34608
3.448935
3.565391
3.695186
3.838325
3.994604
4.163596
4.34525
4.539672
4.747212
4.968588
5.205375
5.462816
5.745522
6.050811
6.371279
6.697094
7.018467
7.328488
7.62706
7.925939
8.253655
8.658143
9.213767
10.0354
11.31673
13.4701
17.62413
28.34396
91.18829
99.42031
30.77648
20.19299
15.38455
12.29718
10.16601
8.672141
7.595032
6.783516
6.142166
5.612828
5.16036
4.764673
4.416724
4.115411
3.862887
3.658177
3.491779
3.355817
3.247372
3.163992
3.103515
3.064098
3.044313
3.042588
3.057816
3.089144
3.13584
3.197315
3.273092
3.362774
3.466044
3.582635
3.712315
3.855115
4.010841
4.179086
4.359827
4.553206
4.759609
4.979797
5.215484
5.471933
5.753618
6.05781
6.377067
6.701494
7.021157
7.328522
7.623584
7.917372
8.238179
8.634161
9.180093
9.991301
11.26181
13.40475
17.55131
28.27704
91.15817
99.59792
30.93618
20.23336
15.37191
12.26169
10.12242
8.627419
7.551463
6.741579
6.102113
5.575204
5.12598
4.734116
4.389645
4.090386
3.838496
3.63478
3.47242
3.342115
3.238789
3.159966
3.103522
3.067506
3.050977
3.051615
3.068861
3.10183
3.149819
3.212258
3.288689
3.378744
3.482128
3.598591
3.727939
3.870217
4.02523
4.192603
4.372347
4.564635
4.76989
4.988912
5.22355
5.479092
5.759857
6.063054
6.381183
6.70427
7.021938
7.327281
7.618856
7.907517
8.221402
8.608882
9.145154
9.946027
11.20592
13.33883
17.479
28.21607
91.13053
99.74451
31.02502
20.25056
15.34552
12.21684
10.07498
8.582969
7.510444
6.703361
6.066519
5.542748
5.097553
4.710383
4.370369
4.074098
3.823098
3.619391
3.459914
3.334258
3.235154
3.160073
3.106807
3.073756
3.059622
3.062241
3.081055
3.115232
3.164102
3.227125
3.303871
3.393993
3.497208
3.613258
3.742089
3.883748
4.037919
4.204313
4.382992