/*--------------------------------*- C++ -*----------------------------------*\
| =========                 |                                                 |
| \\      /  F ield         | OpenFOAM: The Open Source CFD Toolbox           |
|  \\    /   O peration     | Version:  2312                                  |
|   \\  /    A nd           | Website:  www.openfoam.com                      |
|    \\/     M anipulation  |                                                 |
\*---------------------------------------------------------------------------*/
FoamFile
{
    version     2.0;
    format      ascii;
    arch        "LSB;label=32;scalar=64";
    class       volScalarField;
    location    "1500";
    object      qin;
}
// * * * * * * * * * * * * * * * * * * * * * * * * * * * * * * * * * * * * * //

dimensions      [1 0 -3 0 0 0 0];

internalField   uniform 0;

boundaryField
{
    plate
    {
        type            calculated;
        value           nonuniform List<scalar> 
200
(
1958.236
1927.76
1898.922
1852.913
1794.368
1746.461
1723.809
1722.109
1728.617
1734.194
1734.779
1727.803
1711.283
1686.032
1657.16
1632.369
1617.996
1615.714
1622.216
1631.703
1639.152
1642.283
1641.58
1639.035
1636.695
1635.679
1635.841
1635.956
1634.3
1629.435
1620.939
1609.762
1597.995
1588.106
1581.983
1580.245
1582.132
1585.969
1589.933
1592.736
1593.96
1593.969
1593.553
1593.493
1594.251
1595.853
1597.965
1600.08
1601.731
1602.646
1602.803
1602.391
1601.706
1601.022
1600.511
1600.214
1600.07
1599.981
1599.873
1599.735
1599.611
1599.57
1599.665
1599.902
1600.232
1600.57
1600.827
1600.94
1600.895
1600.722
1600.48
1600.232
1600.019
1599.851
1599.709
1599.552
1599.338
1599.039
1598.644
1598.167
1597.634
1597.083
1596.551
1596.079
1595.706
1595.475
1595.433
1595.627
1596.103
1596.894
1598.013
1599.443
1601.138
1603.021
1604.991
1606.933
1608.729
1610.266
1611.45
1612.21
1612.509
1612.338
1611.725
1610.727
1609.431
1607.941
1606.372
1604.833
1603.423
1602.215
1601.256
1600.56
1600.119
1599.906
1599.885
1600.017
1600.266
1600.601
1600.991
1601.403
1601.802
1602.151
1602.419
1602.591
1602.675
1602.702
1602.722
1602.783
1602.915
1603.113
1603.338
1603.526
1603.614
1603.568
1603.401
1603.173
1602.97
1602.872
1602.917
1603.087
1603.318
1603.536
1603.702
1603.849
1604.084
1604.541
1605.314
1606.38
1607.562
1608.557
1609.024
1608.726
1607.652
1606.07
1604.479
1603.429
1603.278
1603.962
1604.906
1605.179
1603.91
1600.85
1596.829
1593.797
1594.296
1600.454
1612.931
1630.35
1649.604
1666.967
1679.51
1686.143
1687.81
1686.839
1685.833
1686.584
1689.364
1692.73
1694.024
1690.727
1682.472
1672.723
1668.506
1677.308
1702.374
1739.657
1779.256
1810.841
1829.068
1834.773
1831.672
1823.241
1815.014
1819.817
1854.136
1920.503
1996.058
2052.339
2092.798
2158.257
)
;
    }
    riser
    {
        type            calculated;
        value           nonuniform List<scalar> 
200
(
2723.643
2760.206
2801.529
2882.206
2995.536
3092.664
3139.045
3141.186
3125.897
3112.518
3108.427
3118.053
3146.615
3195.187
3255.484
3311.674
3348.762
3360.906
3353.467
3338.11
3325.502
3320.629
3322.607
3327.422
3331.085
3331.604
3329.596
3327.928
3330.595
3341.078
3360.673
3387.538
3417.055
3443.469
3462.062
3470.833
3470.903
3465.601
3458.82
3453.507
3450.884
3450.551
3451.2
3451.463
3450.528
3448.347
3445.469
3442.699
3440.75
3439.984
3440.335
3441.43
3442.787
3443.985
3444.763
3445.081
3445.093
3445.01
3444.963
3444.979
3445.013
3444.977
3444.778
3444.378
3443.825
3443.229
3442.705
3442.331
3442.119
3442.027
3441.973
3441.876
3441.686
3441.402
3441.071
3440.767
3440.568
3440.53
3440.67
3440.97
3441.382
3441.845
3442.293
3442.665
3442.898
3442.924
3442.668
3442.046
3440.976
3439.395
3437.27
3434.621
3431.521
3428.1
3424.534
3421.025
3417.788
3415.023
3412.902
3411.552
3411.045
3411.391
3412.537
3414.373
3416.737
3419.432
3422.245
3424.966
3427.408
3429.43
3430.944
3431.919
3432.372
3432.359
3431.956
3431.244
3430.3
3429.195
3427.993
3426.762
3425.572
3424.491
3423.575
3422.848
3422.294
3421.856
3421.452
3421.004
3420.472
3419.883
3419.326
3418.933
3418.824
3419.059
3419.603
3420.32
3421.024
3421.539
3421.767
3421.726
3421.531
3421.328
3421.208
3421.137
3420.957
3420.457
3419.512
3418.213
3416.925
3416.234
3416.754
3418.876
3422.547
3427.185
3431.813
3435.385
3437.241
3437.505
3437.245
3438.186
3441.995
3449.362
3459.213
3468.594
3473.448
3470.137
3457.135
3436.013
3411.106
3387.913
3370.966
3362.187
3360.459
3362.508
3364.567
3364.094
3360.958
3357.756
3358.991
3368.904
3388.328
3412.047
3428.99
3426.683
3398.407
3348.473
3291.178
3243.369
3215.783
3209.637
3220.283
3242.213
3266.951
3274.963
3238.918
3150.633
3044.616
2975.17
2955.254
2962.13
)
;
    }
    topAndBottom
    {
        type            calculated;
        value           nonuniform List<scalar> 
120
(
2849.407
2821.011
2793.364
2769.768
2752.804
2739.784
2726.714
2711.677
2695.659
2680.958
2669.243
2660.709
2654.435
2649.206
2644.064
2638.47
2632.237
2625.468
2618.494
2611.747
2605.588
2600.152
2595.318
2590.802
2586.307
2581.647
2576.784
2571.794
2566.8
2561.924
2557.26
2552.873
2548.809
2545.099
2541.757
2538.77
2536.073
2533.537
2530.981
2528.223
2525.157
2521.794
2518.27
2514.777
2511.5
2508.553
2505.941
2503.492
2500.783
2497.183
2492.125
2485.556
2478.224
2471.348
2465.66
2460.464
2453.915
2444.598
2434.732
2424.936
2720.992
2704.441
2687.883
2673.819
2663.849
2655.66
2646.682
2636.223
2625.538
2616.399
2609.766
2605.409
2602.385
2599.7
2596.705
2593.129
2588.971
2584.394
2579.668
2575.08
2570.838
2566.99
2563.424
2559.948
2556.387
2552.647
2548.726
2544.675
2540.564
2536.457
2532.409
2528.469
2524.689
2521.118
2517.792
2514.707
2511.793
2508.907
2505.856
2502.464
2498.654
2494.492
2490.17
2485.917
2481.918
2478.244
2474.829
2471.429
2467.593
2462.741
2456.43
2448.737
2440.456
2432.739
2426.197
2420.083
2412.602
2402.322
2391.028
2378.925
)
;
    }
    frontAndBack
    {
        type            empty;
    }
}


// ************************************************************************* //
