/*--------------------------------*- C++ -*----------------------------------*\
| =========                 |                                                 |
| \\      /  F ield         | OpenFOAM: The Open Source CFD Toolbox           |
|  \\    /   O peration     | Version:  2312                                  |
|   \\  /    A nd           | Website:  www.openfoam.com                      |
|    \\/     M anipulation  |                                                 |
\*---------------------------------------------------------------------------*/
FoamFile
{
    version     2.0;
    format      ascii;
    arch        "LSB;label=32;scalar=64";
    class       volScalarField;
    location    "1500";
    object      qr;
}
// * * * * * * * * * * * * * * * * * * * * * * * * * * * * * * * * * * * * * //

dimensions      [1 0 -3 0 0 0 0];

internalField   uniform 0;

boundaryField
{
    plate
    {
        type            calculated;
        value           nonuniform List<scalar> 
200
(
-1895.746
-1899.51
-1903.893
-1910.741
-1919.145
-1926.455
-1930.757
-1932.617
-1933.199
-1929.166
-1927.533
-1927.443
-1929.432
-1933.256
-1937.593
-1942.266
-1945.502
-1947.739
-1948.915
-1949.8
-1950.725
-1952.306
-1954.228
-1956.463
-1958.615
-1960.271
-1961.756
-1963.107
-1964.639
-1966.361
-1968.404
-1970.686
-1972.893
-1974.717
-1976.122
-1976.795
-1977.045
-1976.984
-1976.86
-1976.798
-1976.879
-1977.074
-1977.28
-1977.42
-1977.382
-1977.096
-1977.005
-1976.6
-1976.132
-1975.953
-1975.851
-1975.78
-1975.407
-1975.329
-1975.289
-1974.908
-1974.371
-1974.02
-1973.789
-1973.583
-1973.203
-1972.807
-1972.41
-1971.891
-1971.292
-1970.669
-1970.066
-1969.488
-1968.927
-1968.37
-1967.809
-1967.234
-1966.631
-1966.004
-1965.354
-1964.683
-1963.998
-1963.291
-1962.581
-1961.862
-1961.134
-1960.386
-1959.613
-1958.811
-1957.978
-1957.112
-1956.206
-1955.258
-1954.268
-1953.232
-1952.16
-1951.058
-1949.939
-1948.816
-1947.704
-1946.628
-1945.603
-1944.64
-1943.748
-1942.935
-1942.201
-1941.542
-1940.952
-1940.419
-1939.931
-1939.474
-1939.033
-1938.595
-1938.15
-1937.686
-1937.214
-1936.72
-1936.211
-1935.694
-1935.172
-1934.651
-1934.135
-1933.626
-1933.127
-1932.638
-1932.162
-1931.702
-1931.257
-1930.829
-1930.414
-1930.006
-1929.598
-1929.181
-1928.751
-1928.307
-1927.855
-1927.403
-1926.959
-1926.526
-1926.103
-1925.681
-1925.247
-1924.791
-1924.307
-1923.799
-1923.274
-1922.747
-1922.223
-1921.694
-1921.15
-1920.593
-1919.968
-1919.337
-1918.7
-1918.066
-1917.597
-1917.167
-1916.932
-1916.776
-1916.612
-1916.492
-1916.169
-1915.895
-1915.789
-1915.479
-1915.571
-1915.998
-1916.35
-1916.657
-1916.584
-1915.726
-1914.033
-1911.657
-1909.121
-1906.901
-1905.47
-1904.84
-1904.967
-1905.399
-1905.921
-1906.152
-1906.224
-1906.161
-1906.526
-1907.438
-1909.184
-1911.038
-1912.354
-1911.865
-1909.52
-1905.665
-1901.925
-1899.586
-1899.362
-1901.441
-1905.166
-1910.691
-1917.373
-1924.162
-1930.418
-1936.229
-1936.452
-1934.984
-1938.335
-1947.578
)
;
    }
    riser
    {
        type            calculated;
        value           nonuniform List<scalar> 
200
(
1401.014
1425.614
1452.049
1508.688
1589.952
1659.749
1692.89
1693.927
1682.509
1672.458
1669.351
1676.159
1696.878
1732.057
1775.815
1816.526
1843.397
1852.143
1846.703
1835.521
1826.371
1822.823
1824.271
1827.772
1830.454
1830.843
1829.413
1828.219
1830.182
1837.806
1852.051
1871.557
1892.991
1912.163
1925.665
1932.035
1932.1
1928.262
1923.357
1919.508
1917.61
1917.366
1917.836
1918.027
1917.341
1915.746
1913.65
1911.627
1910.203
1909.64
1909.883
1910.664
1911.638
1912.498
1913.052
1913.274
1913.275
1913.21
1913.175
1913.187
1913.21
1913.184
1913.044
1912.763
1912.374
1911.957
1911.597
1911.346
1911.215
1911.172
1911.158
1911.117
1911.01
1910.84
1910.635
1910.453
1910.349
1910.361
1910.505
1910.765
1911.108
1911.488
1911.86
1912.178
1912.396
1912.465
1912.332
1911.935
1911.218
1910.132
1908.655
1906.801
1904.621
1902.209
1899.692
1897.216
1894.935
1892.994
1891.519
1890.602
1890.294
1890.604
1891.498
1892.879
1894.653
1896.649
1898.752
1900.775
1902.625
1904.15
1905.301
1906.059
1906.439
1906.476
1906.236
1905.766
1905.132
1904.373
1903.549
1902.692
1901.869
1901.118
1900.49
1899.994
1899.619
1899.322
1899.041
1898.719
1898.327
1897.895
1897.485
1897.189
1897.083
1897.225
1897.58
1898.057
1898.509
1898.842
1898.948
1898.859
1898.628
1898.388
1898.207
1898.045
1897.805
1897.317
1896.51
1895.438
1894.37
1893.73
1893.957
1895.35
1897.86
1901.065
1904.261
1906.685
1907.861
1907.874
1907.497
1907.986
1910.548
1915.681
1922.605
1929.175
1932.45
1929.788
1920.077
1904.454
1886.06
1868.885
1856.22
1849.462
1847.802
1848.867
1849.926
1849.134
1846.398
1843.604
1844.022
1850.732
1864.34
1881.059
1892.86
1890.688
1869.688
1832.951
1790.88
1755.676
1735.284
1730.551
1738.192
1754.304
1772.712
1779.515
1754.779
1692.945
1619.081
1573.153
1558.953
1563.873
)
;
    }
    topAndBottom
    {
        type            calculated;
        value           nonuniform List<scalar> 
120
(
-92.90383
8.885132
48.81446
69.54143
85.78537
98.74516
106.6344
109.8514
110.9501
111.7038
112.6519
115.1712
120.3882
126.1335
129.3941
130.8588
133.4093
136.2561
136.6725
135.0834
134.6323
136.7276
139.2426
140.2952
140.2397
140.4824
141.3582
142.1333
142.1513
141.6805
141.3257
141.3588
141.6933
142.1543
142.7558
143.5447
144.4957
145.4946
146.3666
146.936
147.0949
146.8555
146.3429
145.7278
145.1617
144.7495
144.5113
144.2947
143.7027
142.1569
139.1649
134.6978
129.4207
124.4166
120.3486
116.6185
111.6452
105.0373
107.6879
201.5508
193.4163
327.5141
330.1941
321.3882
314.9721
310.3936
305.4881
299.6301
293.9796
290.2236
289.2531
290.7791
293.8692
297.6588
301.6245
305.456
309.0117
312.3975
315.881
319.675
323.857
328.4177
333.2479
338.1292
342.8473
347.2968
351.4588
355.3516
359.0254
362.5452
365.9497
369.2736
372.5739
375.9175
379.3222
382.7057
385.8718
388.6205
391.2847
394.4204
397.4071
399.1729
399.5348
400.2078
403.1498
407.8718
411.2204
412.3054
414.7977
420.0172
423.8285
424.6794
426.9953
433.6529
442.9578
454.6781
469.2656
491.6012
528.0754
596.6081
)
;
    }
    frontAndBack
    {
        type            empty;
    }
}


// ************************************************************************* //
