/*--------------------------------*- C++ -*----------------------------------*\
| =========                 |                                                 |
| \\      /  F ield         | OpenFOAM: The Open Source CFD Toolbox           |
|  \\    /   O peration     | Version:  2312                                  |
|   \\  /    A nd           | Website:  www.openfoam.com                      |
|    \\/     M anipulation  |                                                 |
\*---------------------------------------------------------------------------*/
FoamFile
{
    version     2.0;
    format      ascii;
    arch        "LSB;label=32;scalar=64";
    class       volScalarField;
    location    "1500";
    object      T;
}
// * * * * * * * * * * * * * * * * * * * * * * * * * * * * * * * * * * * * * //

dimensions      [0 0 0 1 0 0 0];

internalField   nonuniform List<scalar> 
12000
(
458.4614
450.7156
449.7671
449.5527
449.4074
449.2494
449.0711
448.8719
448.649
448.3974
448.1177
447.8151
447.4924
447.1462
446.7745
446.383
445.9785
445.5613
445.1302
444.6892
444.2441
443.7966
443.3474
442.8994
442.4555
442.0165
441.5837
441.1585
440.7415
440.3323
439.9316
439.54
439.1567
438.7811
438.4153
438.0644
437.7344
437.4242
437.0945
436.7248
436.3661
436.0711
435.8289
435.5308
435.1061
434.6478
434.3262
434.083
433.668
433.0745
432.5552
432.1021
431.4687
430.625
429.7176
428.6595
427.3125
425.3134
422.3215
417.0632
458.2656
450.8284
449.9372
449.7684
449.6939
449.6295
449.5692
449.5085
449.4376
449.3551
449.2819
449.2208
449.1508
449.0555
448.9591
448.8863
448.8151
448.7137
448.6008
448.507
448.4161
448.3023
448.181
448.0693
447.9502
447.8154
447.6841
447.5557
447.4082
447.2491
447.0979
446.9492
446.7886
446.6166
446.4408
446.2665
446.0918
445.9057
445.7083
445.4992
445.2775
445.0503
444.8123
444.5616
444.2917
443.9976
443.6731
443.317
442.919
442.4669
441.9501
441.335
440.5893
439.7038
438.6346
437.2517
435.373
432.5319
427.8806
419.2175
458.466
451.1228
450.1115
449.9183
449.8679
449.8425
449.8242
449.8095
449.7945
449.7785
449.7634
449.751
449.7391
449.7242
449.7076
449.6925
449.6777
449.6603
449.64
449.6189
449.5967
449.5716
449.5435
449.5131
449.4797
449.4425
449.4019
449.3588
449.3108
449.258
449.2014
449.1406
449.0742
449.0008
448.92
448.8334
448.7412
448.6429
448.5383
448.4265
448.3054
448.1725
448.0262
447.8662
447.6903
447.4944
447.2699
447.0116
446.7153
446.3698
445.9645
445.4826
444.8991
444.1757
443.2295
441.9212
440.0525
437.1457
431.952
420.3055
458.9004
451.3979
450.2592
450.0218
449.9689
449.9544
449.9489
449.9463
449.9444
449.9431
449.942
449.9412
449.9404
449.9392
449.9373
449.9352
449.9329
449.9301
449.9267
449.9227
449.9182
449.913
449.9068
449.8997
449.8913
449.8817
449.8707
449.8583
449.8438
449.8271
449.808
449.7857
449.7599
449.7308
449.6984
449.6622
449.6219
449.5766
449.5256
449.4679
449.4021
449.3268
449.2398
449.1389
449.0207
448.8813
448.7159
448.5183
448.2805
447.9931
447.6444
447.2143
446.6735
445.9748
445.0467
443.7685
441.9331
439.0806
433.8394
420.9636
459.3342
451.6531
450.3935
450.1025
450.0325
450.0148
450.01
450.0086
450.0082
450.008
450.008
450.0079
450.0078
450.0076
450.0071
450.0066
450.0059
450.0051
450.0042
450.0031
450.0019
450.0005
449.9988
449.9969
449.9946
449.992
449.9889
449.9852
449.9808
449.9755
449.9689
449.9612
449.9523
449.9419
449.9298
449.9156
449.899
449.8792
449.8556
449.8271
449.7927
449.7507
449.6991
449.6356
449.557
449.4591
449.3372
449.185
448.9944
448.7546
448.4504
448.0592
447.5503
446.8795
445.9797
444.7413
442.9552
440.1533
434.9616
421.4986
459.7727
451.8994
450.5238
450.1739
450.0781
450.0502
450.041
450.0373
450.0354
450.0341
450.033
450.032
450.031
450.0301
450.0292
450.0283
450.0275
450.0266
450.0258
450.0249
450.024
450.023
450.022
450.021
450.0198
450.0185
450.0171
450.0155
450.0137
450.0116
450.0091
450.0062
450.0028
449.9988
449.994
449.9882
449.9809
449.9719
449.9603
449.9456
449.9265
449.9017
449.8695
449.8274
449.7724
449.7007
449.6071
449.4852
449.3262
449.118
448.8446
448.4841
448.0061
447.367
446.5
445.2934
443.5399
440.7783
435.6287
421.8369
460.1986
452.1375
450.6542
450.2443
450.1179
450.0758
450.06
450.0528
450.0488
450.0461
450.0439
450.042
450.0403
450.0388
450.0375
450.0362
450.0351
450.034
450.033
450.032
450.0311
450.0301
450.0292
450.0282
450.0271
450.026
450.0249
450.0237
450.0225
450.0211
450.0197
450.0181
450.0164
450.0144
450.012
450.0091
450.0054
450.0006
449.9943
449.9858
449.9743
449.9584
449.9367
449.907
449.8664
449.811
449.736
449.6344
449.4973
449.3128
449.0646
448.731
448.2813
447.671
446.8324
445.6532
443.9264
441.1926
436.0763
422.1221
460.6365
452.3756
450.7889
450.3188
450.159
450.0999
450.0755
450.064
450.0575
450.0534
450.0504
450.0478
450.0456
450.0437
450.0419
450.0403
450.039
450.0377
450.0365
450.0355
450.0345
450.0335
450.0325
450.0315
450.0305
450.0295
450.0284
450.0274
450.0263
450.0251
450.024
450.0227
450.0214
450.02
450.0184
450.0166
450.0142
450.0112
450.0071
450.0015
449.9935
449.9823
449.9663
449.9435
449.9113
449.866
449.8025
449.7143
449.5924
449.4247
449.1952
448.8817
448.4534
447.8655
447.0499
445.8944
444.192
441.4845
436.4019
422.3211
461.1015
452.6179
450.9303
450.4006
450.2053
450.1269
450.0922
450.0749
450.0655
450.0597
450.0558
450.0527
450.0502
450.0479
450.0459
450.044
450.0422
450.0407
450.0393
450.038
450.0368
450.0357
450.0347
450.0337
450.0327
450.0317
450.0308
450.0298
450.0288
450.0278
450.0268
450.0258
450.0247
450.0235
450.0222
450.0207
450.0189
450.0166
450.0135
450.0092
450.0031
449.9943
449.9815
449.9629
449.9359
449.8969
449.8411
449.762
449.6506
449.4951
449.2794
448.9812
448.5697
447.9999
447.2034
446.0672
444.3841
441.6989
436.644
422.5052
461.621
452.8727
451.0806
450.4912
450.259
450.1593
450.1123
450.0879
450.0743
450.0664
450.0613
450.0577
450.0548
450.0524
450.0502
450.0482
450.0462
450.0444
450.0426
450.0409
450.0394
450.038
450.0368
450.0356
450.0346
450.0336
450.0326
450.0317
450.0308
450.0299
450.029
450.028
450.027
450.026
450.0248
450.0235
450.022
450.02
450.0174
450.0139
450.0088
450.0015
449.9906
449.9745
449.9507
449.9158
449.865
449.7919
449.6877
449.5406
449.3345
449.0475
448.6485
448.0928
447.3121
446.1911
444.5232
441.8591
436.834
422.6544
462.1752
453.1358
451.2383
450.5904
450.3208
450.1984
450.1371
450.1038
450.0851
450.0741
450.0675
450.063
450.0598
450.0572
450.055
450.053
450.051
450.049
450.0471
450.0451
450.0432
450.0413
450.0396
450.0381
450.0368
450.0356
450.0344
450.0334
450.0324
450.0315
450.0305
450.0296
450.0286
450.0276
450.0265
450.0253
450.0239
450.0221
450.0199
450.0168
450.0125
450.006
449.9964
449.982
449.9604
449.9282
449.8808
449.8117
449.7124
449.5711
449.3718
449.0928
448.7035
448.1592
447.3904
446.2823
444.6303
441.9836
436.983
422.8017
462.7495
453.4131
451.4058
450.6992
450.3921
450.245
450.1674
450.1236
450.0983
450.0835
450.0746
450.0689
450.0651
450.0623
450.06
450.0581
450.0562
450.0543
450.0523
450.0502
450.048
450.0458
450.0436
450.0415
450.0397
450.0382
450.0367
450.0353
450.0341
450.0329
450.0317
450.0306
450.0295
450.0284
450.0272
450.026
450.0247
450.0231
450.0212
450.0185
450.0146
450.0089
450.0003
449.987
449.9669
449.9366
449.8915
449.8253
449.7292
449.5915
449.3965
449.1232
448.7415
448.2062
447.4469
446.3485
444.7086
442.0786
437.1028
422.9307
463.3449
453.6993
451.5803
450.8159
450.4717
450.2983
450.2028
450.1472
450.1144
450.0948
450.0829
450.0755
450.0708
450.0675
450.0651
450.0632
450.0614
450.0596
450.0578
450.0557
450.0533
450.0508
450.0482
450.0457
450.0434
450.0414
450.0395
450.0377
450.0359
450.0343
450.0328
450.0314
450.03
450.0287
450.0274
450.0261
450.0248
450.0234
450.0216
450.0192
450.0158
450.0106
450.0027
449.9903
449.9713
449.9425
449.8991
449.8349
449.7413
449.606
449.4126
449.1417
448.765
448.2374
447.4874
446.3998
444.7719
442.1547
437.1995
423.0575
463.9213
453.9876
451.7587
450.9384
450.558
450.3583
450.2438
450.1754
450.1339
450.1085
450.093
450.0833
450.0771
450.0731
450.0703
450.0682
450.0663
450.0646
450.0627
450.0606
450.0581
450.0554
450.0525
450.0497
450.0471
450.0447
450.0424
450.0401
450.038
450.0359
450.034
450.0322
450.0305
450.0289
450.0274
450.0261
450.0247
450.0233
450.0216
450.0195
450.0163
450.0115
450.0041
449.9924
449.9743
449.9465
449.9047
449.8421
449.7491
449.6133
449.4211
449.154
448.7829
448.262
447.5189
446.4383
444.8183
442.2121
437.2748
423.1694
464.5049
454.2874
451.946
451.0693
450.6527
450.426
450.2915
450.209
450.1577
450.1256
450.1054
450.0927
450.0845
450.0793
450.0757
450.073
450.0709
450.0689
450.0668
450.0644
450.0617
450.0588
450.0557
450.0528
450.0501
450.0475
450.0449
450.0424
450.0399
450.0376
450.0353
450.0331
450.0312
450.0294
450.0277
450.0262
450.0248
450.0234
450.0218
450.0197
450.0167
450.0121
450.005
449.9937
449.9763
449.9495
449.9087
449.8464
449.7528
449.6178
449.4281
449.1646
448.7979
448.282
447.5447
446.4715
444.8601
442.2631
437.3426
423.273
465.0722
454.5886
452.1361
451.205
450.7524
450.4986
450.3438
450.2467
450.185
450.1455
450.1201
450.1037
450.0931
450.0861
450.0813
450.0778
450.0749
450.0724
450.0698
450.067
450.0639
450.0607
450.0576
450.0547
450.0521
450.0494
450.0468
450.0442
450.0416
450.039
450.0366
450.0343
450.0321
450.0302
450.0284
450.0268
450.0253
450.0238
450.0222
450.0201
450.0171
450.0127
450.0057
449.9948
449.9778
449.9517
449.9112
449.8485
449.7553
449.6218
449.4345
449.1742
448.8112
448.2993
447.5665
446.498
444.8919
442.3024
437.3956
423.3569
465.6298
454.8914
452.3286
451.3438
450.8566
450.5766
450.4017
450.2896
450.2168
450.1692
450.1378
450.1171
450.1032
450.0938
450.0873
450.0825
450.0786
450.0752
450.0718
450.0684
450.0649
450.0615
450.0584
450.0556
450.053
450.0504
450.0478
450.0453
450.0427
450.0402
450.0378
450.0355
450.0334
450.0314
450.0295
450.0279
450.0263
450.0247
450.023
450.0209
450.0179
450.0134
450.0066
449.9959
449.9794
449.9535
449.9127
449.8501
449.7577
449.6259
449.4409
449.1833
448.823
448.3142
447.585
446.5215
444.9212
442.338
437.444
423.4292
466.1777
455.1924
452.5225
451.4869
450.9659
450.6602
450.4653
450.3377
450.2532
450.1967
450.1586
450.1327
450.115
450.1026
450.0939
450.0873
450.082
450.0775
450.0732
450.0691
450.0651
450.0615
450.0583
450.0556
450.053
450.0505
450.048
450.0457
450.0434
450.0411
450.0389
450.0368
450.0347
450.0328
450.031
450.0293
450.0277
450.0261
450.0242
450.022
450.0189
450.0145
450.0077
449.9972
449.9809
449.955
449.9141
449.8517
449.7604
449.6301
449.4471
449.1915
448.8334
448.3269
447.6004
446.5403
444.9442
442.3671
437.485
423.4872
466.7134
455.4915
452.7216
451.6355
451.0806
450.749
450.5339
450.3904
450.2936
450.2277
450.1822
450.1506
450.1284
450.1126
450.101
450.0923
450.0854
450.0795
450.0741
450.0692
450.0648
450.061
450.0578
450.055
450.0524
450.05
450.0477
450.0456
450.0435
450.0416
450.0397
450.0378
450.036
450.0343
450.0327
450.031
450.0294
450.0277
450.0258
450.0235
450.0203
450.0159
450.0091
449.9987
449.9825
449.9565
449.9156
449.8537
449.7634
449.6344
449.4529
449.1988
448.8423
448.3375
447.6132
446.5565
444.965
442.3942
437.5243
423.5421
467.2379
455.795
452.9265
451.7892
451.1998
450.8421
450.6066
450.447
450.3374
450.2615
450.2082
450.1703
450.1431
450.1234
450.1087
450.0976
450.0886
450.0811
450.0746
450.069
450.0642
450.0603
450.057
450.0541
450.0515
450.0492
450.0471
450.0452
450.0434
450.0417
450.0401
450.0386
450.0371
450.0357
450.0342
450.0327
450.0311
450.0295
450.0276
450.0252
450.022
450.0175
450.0108
450.0005
449.9843
449.9581
449.9173
449.8559
449.7665
449.6386
449.4581
449.2051
448.8497
448.3462
447.6235
446.5688
444.9804
442.4159
437.5571
423.5915
467.7488
456.1022
453.1353
451.9468
451.3226
450.9384
450.6822
450.5062
450.3836
450.2972
450.2357
450.1912
450.1588
450.1348
450.1167
450.1027
450.0916
450.0825
450.0749
450.0686
450.0636
450.0595
450.0561
450.0532
450.0506
450.0484
450.0464
450.0447
450.0431
450.0417
450.0404
450.0391
450.0379
450.0366
450.0354
450.0341
450.0327
450.0311
450.0293
450.027
450.0239
450.0194
450.0127
450.0025
449.9861
449.9598
449.9191
449.8582
449.7695
449.6423
449.4625
449.21
448.8554
448.3529
447.6316
446.5786
444.9933
442.4344
437.5846
423.6377
468.2448
456.409
453.3458
452.107
451.4479
451.0368
450.7598
450.5672
450.4312
450.3341
450.264
450.2127
450.1747
450.1462
450.1245
450.1076
450.0942
450.0835
450.0749
450.0682
450.063
450.0588
450.0553
450.0524
450.0499
450.0477
450.0459
450.0442
450.0428
450.0415
450.0403
450.0393
450.0382
450.0372
450.0362
450.0351
450.0339
450.0325
450.0308
450.0287
450.0257
450.0213
450.0147
450.0044
449.9879
449.9616
449.9211
449.8606
449.7723
449.6456
449.4662
449.2141
448.8598
448.3578
447.6374
446.5862
445.004
442.4497
437.608
423.6805
468.7229
456.7101
453.5564
452.2688
451.5746
451.1362
450.838
450.6285
450.4789
450.3709
450.292
450.2338
450.1902
450.1571
450.1317
450.1118
450.0963
450.0841
450.0748
450.0678
450.0624
450.0581
450.0546
450.0517
450.0492
450.0472
450.0454
450.0439
450.0425
450.0413
450.0402
450.0392
450.0382
450.0374
450.0365
450.0356
450.0346
450.0335
450.032
450.03
450.0272
450.0229
450.0165
450.0063
449.9897
449.9633
449.923
449.8628
449.7748
449.6484
449.4692
449.2172
448.8629
448.3611
447.6415
446.5923
445.0131
442.4632
437.6313
423.7276
469.1816
457.0063
453.767
452.4313
451.7016
451.2352
450.9154
450.6888
450.5256
450.4066
450.3189
450.2536
450.2044
450.1668
450.1378
450.1152
450.0977
450.0845
450.0747
450.0675
450.0619
450.0575
450.054
450.0511
450.0488
450.0468
450.045
450.0435
450.0422
450.041
450.0399
450.0389
450.038
450.0372
450.0365
450.0357
450.0349
450.0339
450.0327
450.0309
450.0283
450.0242
450.0179
450.0077
449.9911
449.9649
449.9247
449.8647
449.7769
449.6506
449.4712
449.219
448.8643
448.3624
447.6432
446.5953
445.0189
442.474
437.6516
423.7687
469.621
457.297
453.9779
452.5929
451.8266
451.3321
450.9906
450.7468
450.5699
450.4399
450.3436
450.2715
450.2168
450.1749
450.1425
450.1175
450.0986
450.0848
450.0747
450.0672
450.0615
450.057
450.0535
450.0507
450.0484
450.0464
450.0447
450.0432
450.0418
450.0406
450.0396
450.0386
450.0377
450.0369
450.0362
450.0356
450.0348
450.034
450.0329
450.0313
450.0289
450.025
450.0188
450.0087
449.9922
449.966
449.926
449.8661
449.7784
449.6519
449.4722
449.2194
448.8643
448.3623
447.6437
446.5974
445.0237
442.4837
437.6703
423.808
470.0414
457.5828
454.1887
452.7525
451.9484
451.4255
451.0621
450.8012
450.6107
450.47
450.3653
450.2865
450.2267
450.1808
450.1457
450.119
450.0993
450.0851
450.0747
450.0669
450.0611
450.0566
450.0531
450.0503
450.048
450.046
450.0443
450.0428
450.0415
450.0403
450.0392
450.0382
450.0373
450.0366
450.0359
450.0353
450.0346
450.0338
450.0328
450.0313
450.029
450.0253
450.0192
450.0091
449.9927
449.9667
449.9267
449.867
449.7791
449.6524
449.4723
449.2189
448.8634
448.3612
447.6431
446.5983
445.0274
442.4924
437.6879
423.8438
470.4409
457.866
454.3986
452.9095
452.0659
451.5141
451.1286
450.8507
450.6469
450.496
450.3833
450.2983
450.2337
450.1846
450.1474
450.1198
450.0998
450.0853
450.0746
450.0666
450.0607
450.0562
450.0527
450.0499
450.0476
450.0456
450.0439
450.0424
450.041
450.0399
450.0388
450.0378
450.037
450.0362
450.0355
450.0349
450.0343
450.0335
450.0325
450.0311
450.0288
450.0251
450.0191
450.0091
449.9927
449.9668
449.9269
449.8672
449.7792
449.6521
449.4715
449.2175
448.8615
448.3592
447.6417
446.5985
445.0303
442.5003
437.7045
423.8791
470.8195
458.1455
454.6067
453.0629
452.178
451.5965
451.1889
450.8944
450.6779
450.5173
450.397
450.3064
450.2378
450.1862
450.148
450.1203
450.1002
450.0854
450.0744
450.0663
450.0603
450.0557
450.0522
450.0494
450.0471
450.0451
450.0434
450.0419
450.0406
450.0394
450.0384
450.0374
450.0366
450.0359
450.0352
450.0346
450.0339
450.0332
450.0322
450.0307
450.0284
450.0247
450.0187
450.0086
449.9923
449.9664
449.9266
449.8668
449.7786
449.6511
449.4699
449.2153
448.8588
448.3564
447.6397
446.598
445.0327
442.5079
437.7208
423.9146
471.1735
458.4198
454.8114
453.2117
452.2839
451.6719
451.2424
450.9317
450.7032
450.5334
450.4064
450.3109
450.2393
450.1864
450.1481
450.1204
450.1002
450.0853
450.0742
450.066
450.0599
450.0553
450.0517
450.0489
450.0465
450.0445
450.0428
450.0414
450.0401
450.0389
450.0379
450.037
450.0363
450.0355
450.0349
450.0343
450.0336
450.0328
450.0318
450.0302
450.0279
450.0241
450.018
450.0079
449.9915
449.9656
449.9258
449.8658
449.7773
449.6494
449.4676
449.2124
448.8555
448.3532
447.6372
446.5972
445.0349
442.5153
437.7372
423.952
471.5023
458.6885
455.0129
453.3556
452.3828
451.7399
451.2886
450.9623
450.7224
450.5444
450.4114
450.3121
450.2388
450.1857
450.1477
450.1202
450.0999
450.0849
450.0739
450.0656
450.0595
450.0548
450.0512
450.0483
450.0459
450.044
450.0423
450.0408
450.0395
450.0384
450.0375
450.0366
450.0359
450.0352
450.0346
450.0339
450.0333
450.0324
450.0314
450.0298
450.0273
450.0235
450.0173
450.0071
449.9906
449.9647
449.9247
449.8644
449.7756
449.6471
449.4646
449.2089
448.8516
448.3495
447.6344
446.5963
445.0371
442.5229
437.7537
423.9897
471.807
458.9536
455.208
453.4912
452.4737
451.7998
451.3273
450.9861
450.7358
450.5502
450.4125
450.3109
450.2372
450.1847
450.1469
450.1193
450.0992
450.0844
450.0734
450.0653
450.0591
450.0544
450.0507
450.0478
450.0454
450.0434
450.0417
450.0403
450.039
450.038
450.037
450.0362
450.0355
450.0348
450.0342
450.0336
450.0329
450.0321
450.0309
450.0293
450.0268
450.0228
450.0166
450.0063
449.9897
449.9636
449.9234
449.8628
449.7734
449.6443
449.4612
449.2049
448.8474
448.3456
447.6316
446.5954
445.0396
442.5307
437.77
424.027
472.086
459.2129
455.3961
453.6168
452.5555
451.8515
451.3585
451.0034
450.7434
450.5517
450.4107
450.3084
450.2354
450.1832
450.1454
450.118
450.0982
450.0837
450.0729
450.0648
450.0587
450.054
450.0503
450.0473
450.0449
450.0429
450.0412
450.0398
450.0386
450.0375
450.0366
450.0358
450.0351
450.0344
450.0338
450.0332
450.0325
450.0316
450.0305
450.0288
450.0262
450.0222
450.0158
450.0055
449.9888
449.9625
449.922
449.861
449.7711
449.6413
449.4576
449.2008
448.8431
448.3417
447.6288
446.5948
445.0423
442.5387
437.7857
424.0618
472.3413
459.4665
455.577
453.7338
452.6288
451.8953
451.3827
451.0144
450.7459
450.5496
450.4074
450.3058
450.2333
450.181
450.1434
450.1163
450.0969
450.0828
450.0723
450.0644
450.0583
450.0536
450.0499
450.0469
450.0444
450.0424
450.0408
450.0393
450.0381
450.037
450.0361
450.0353
450.0346
450.034
450.0334
450.0328
450.032
450.0312
450.03
450.0282
450.0256
450.0216
450.0151
450.0047
449.9879
449.9614
449.9206
449.8591
449.7686
449.6382
449.4539
449.1965
448.8387
448.3379
447.6266
446.5949
445.0457
442.5473
437.8014
424.0927
472.5753
459.7115
455.7505
453.8427
452.6939
451.9316
451.4001
451.0198
450.7445
450.5458
450.4038
450.3029
450.2304
450.1782
450.1409
450.1144
450.0955
450.0818
450.0717
450.064
450.058
450.0533
450.0495
450.0465
450.044
450.042
450.0403
450.0389
450.0377
450.0366
450.0357
450.0349
450.0342
450.0336
450.033
450.0323
450.0316
450.0307
450.0294
450.0277
450.025
450.0209
450.0145
450.0039
449.987
449.9603
449.9192
449.8573
449.7662
449.6351
449.4501
449.1925
448.8349
448.3348
447.6248
446.5953
445.0497
442.5566
437.8168
424.1179
472.7884
459.9458
455.9157
453.9436
452.7511
451.9607
451.4114
451.0206
450.7407
450.5412
450.4003
450.2995
450.2268
450.1749
450.1381
450.1122
450.0938
450.0807
450.0709
450.0635
450.0577
450.0531
450.0493
450.0462
450.0437
450.0416
450.0399
450.0385
450.0373
450.0362
450.0353
450.0345
450.0338
450.0332
450.0325
450.0319
450.0311
450.0302
450.0289
450.0271
450.0244
450.0203
450.0138
450.0032
449.9861
449.9592
449.9178
449.8555
449.7638
449.632
449.4465
449.1887
448.8313
448.3321
447.6237
446.5965
445.0548
442.5669
437.8328
424.1382
472.9888
460.1712
456.0723
454.0372
452.8014
451.9835
451.4176
451.0183
450.7359
450.5372
450.3965
450.2954
450.2227
450.1712
450.1351
450.1098
450.0921
450.0795
450.0702
450.063
450.0574
450.0528
450.0491
450.0459
450.0434
450.0413
450.0396
450.0381
450.0369
450.0358
450.0349
450.0342
450.0334
450.0328
450.0321
450.0314
450.0306
450.0297
450.0284
450.0265
450.0238
450.0197
450.0131
450.0024
449.9853
449.9582
449.9164
449.8536
449.7614
449.6292
449.4433
449.1854
448.8283
448.3301
447.6235
446.5989
445.0612
442.5787
437.8499
424.1546
473.1768
460.3853
456.2197
454.1233
452.8447
452.0003
451.4197
451.0143
450.731
450.5331
450.3922
450.2906
450.2182
450.1673
450.1319
450.1074
450.0903
450.0782
450.0693
450.0625
450.0571
450.0526
450.0489
450.0457
450.0431
450.041
450.0392
450.0377
450.0365
450.0355
450.0346
450.0338
450.0331
450.0324
450.0317
450.031
450.0302
450.0292
450.0278
450.026
450.0232
450.0191
450.0124
450.0017
449.9844
449.9571
449.915
449.8518
449.7592
449.6266
449.4404
449.1823
448.8257
448.3288
447.6242
446.6023
445.0689
442.5922
437.8686
424.1698
473.3519
460.5877
456.3579
454.2018
452.8814
452.0121
451.419
451.0097
450.7267
450.5286
450.3868
450.2852
450.2133
450.1632
450.1286
450.1049
450.0884
450.0769
450.0684
450.0619
450.0567
450.0524
450.0487
450.0455
450.0429
450.0407
450.0389
450.0374
450.0362
450.0351
450.0342
450.0334
450.0327
450.032
450.0313
450.0306
450.0297
450.0287
450.0274
450.0255
450.0227
450.0185
450.0118
450.001
449.9836
449.956
449.9137
449.8501
449.7571
449.6241
449.4376
449.1795
448.8234
448.328
447.6256
446.6068
445.078
442.6072
437.889
424.1854
473.516
460.778
456.4865
454.2726
452.9121
452.0201
451.4168
451.0049
450.7222
450.5233
450.3807
450.2793
450.2082
450.159
450.1253
450.1023
450.0865
450.0755
450.0674
450.0613
450.0563
450.0521
450.0485
450.0454
450.0427
450.0405
450.0386
450.0371
450.0358
450.0348
450.0339
450.0331
450.0324
450.0317
450.031
450.0302
450.0293
450.0282
450.0269
450.025
450.0222
450.018
450.0112
450.0003
449.9827
449.955
449.9124
449.8486
449.7553
449.6219
449.4351
449.177
448.8217
448.3277
447.6278
446.6124
445.0884
442.6239
437.9115
424.202
473.6683
460.9565
456.6055
454.3358
452.9373
452.025
451.4137
451.0001
450.7168
450.5169
450.3739
450.273
450.2028
450.1546
450.1219
450.0997
450.0846
450.0741
450.0664
450.0606
450.0558
450.0518
450.0483
450.0452
450.0425
450.0403
450.0384
450.0368
450.0355
450.0344
450.0335
450.0327
450.032
450.0313
450.0305
450.0297
450.0289
450.0278
450.0264
450.0246
450.0218
450.0175
450.0107
449.9997
449.982
449.9541
449.9113
449.8472
449.7535
449.6198
449.4329
449.175
448.8204
448.328
447.6305
446.6189
445.1001
442.6421
437.9354
424.2199
473.8101
461.1226
456.7147
454.3917
452.9579
452.0275
451.4097
450.9948
450.7102
450.5091
450.3662
450.2662
450.1972
450.1502
450.1185
450.0972
450.0827
450.0726
450.0653
450.0598
450.0553
450.0515
450.0481
450.0451
450.0424
450.0401
450.0382
450.0365
450.0352
450.0341
450.0332
450.0324
450.0316
450.0309
450.0301
450.0293
450.0284
450.0274
450.026
450.0242
450.0214
450.0171
450.0103
449.9992
449.9813
449.9533
449.9103
449.846
449.752
449.6181
449.431
449.1734
448.8196
448.3289
447.6337
446.626
445.113
442.6617
437.9614
424.2418
473.9378
461.2744
456.8128
454.4398
452.9733
452.0272
451.4041
450.9879
450.7019
450.5002
450.3579
450.2591
450.1915
450.1459
450.1152
450.0947
450.0808
450.0711
450.0642
450.0589
450.0547
450.051
450.0478
450.0449
450.0423
450.04
450.038
450.0363
450.035
450.0338
450.0329
450.032
450.0312
450.0305
450.0297
450.0289
450.028
450.027
450.0256
450.0238
450.021
450.0167
450.0098
449.9987
449.9808
449.9526
449.9094
449.8449
449.7507
449.6166
449.4294
449.1721
448.8194
448.3304
447.6378
446.6339
445.1268
442.683
437.9896
424.2672
474.0518
461.4107
456.8992
454.4803
452.9845
452.0246
451.3968
450.9792
450.6922
450.4904
450.3492
450.252
450.186
450.1416
450.112
450.0923
450.0789
450.0697
450.0631
450.058
450.054
450.0505
450.0475
450.0447
450.0421
450.0399
450.0379
450.0362
450.0348
450.0336
450.0325
450.0316
450.0308
450.03
450.0292
450.0284
450.0276
450.0266
450.0253
450.0234
450.0207
450.0164
450.0094
449.9982
449.9802
449.952
449.9087
449.844
449.7497
449.6154
449.4283
449.1714
448.8198
448.3326
447.6426
446.6429
445.1417
442.7061
438.0196
424.2936
474.1495
461.5296
456.9718
454.511
452.9914
452.0197
451.3879
450.9688
450.6812
450.48
450.3405
450.245
450.1806
450.1376
450.109
450.09
450.0771
450.0683
450.0619
450.0571
450.0533
450.05
450.0471
450.0445
450.042
450.0398
450.0378
450.0361
450.0346
450.0333
450.0322
450.0313
450.0304
450.0296
450.0288
450.028
450.0272
450.0262
450.0249
450.0231
450.0204
450.016
450.0091
449.9978
449.9798
449.9515
449.9081
449.8433
449.7489
449.6145
449.4275
449.171
448.8207
448.3355
447.6484
446.6529
445.1577
442.7304
438.0505
424.3158
474.234
461.6312
457.0321
454.5333
452.9932
452.013
451.3778
450.9571
450.6694
450.4696
450.3318
450.2383
450.1755
450.1338
450.1062
450.0878
450.0754
450.0669
450.0608
450.0562
450.0525
450.0494
450.0467
450.0442
450.0419
450.0398
450.0378
450.036
450.0345
450.0331
450.032
450.031
450.0301
450.0292
450.0284
450.0276
450.0268
450.0259
450.0246
450.0228
450.0201
450.0157
450.0088
449.9975
449.9794
449.951
449.9076
449.8428
449.7483
449.614
449.4271
449.1712
448.8221
448.339
447.655
446.6638
445.1748
442.7552
438.0828
424.3382
474.31
461.7151
457.0802
454.5508
452.9929
452.0045
451.3659
450.9444
450.6576
450.4593
450.3236
450.232
450.1708
450.1303
450.1035
450.0858
450.0738
450.0656
450.0597
450.0553
450.0518
450.0489
450.0463
450.044
450.0418
450.0397
450.0378
450.036
450.0344
450.033
450.0317
450.0307
450.0297
450.0288
450.0281
450.0273
450.0265
450.0256
450.0243
450.0226
450.0198
450.0155
450.0085
449.9972
449.9791
449.9507
449.9073
449.8425
449.748
449.6137
449.427
449.1717
448.824
448.3432
447.6623
446.6757
445.1929
442.781
438.1163
424.3628
474.3676
461.7787
457.1149
454.5614
452.9882
451.9925
451.3527
450.932
450.6462
450.4496
450.3161
450.2263
450.1666
450.1271
450.1011
450.0839
450.0723
450.0644
450.0587
450.0544
450.0511
450.0483
450.0459
450.0437
450.0416
450.0397
450.0378
450.036
450.0343
450.0329
450.0316
450.0304
450.0294
450.0285
450.0277
450.0269
450.0262
450.0253
450.0241
450.0223
450.0196
450.0152
450.0082
449.9969
449.9788
449.9505
449.9071
449.8423
449.748
449.6138
449.4273
449.1726
448.8263
448.348
447.6703
446.6885
445.212
442.8081
438.1508
424.388
474.4113
461.8264
457.1378
454.5633
452.9783
451.9795
451.3397
450.9191
450.6347
450.4406
450.3094
450.2214
450.1627
450.1241
450.0987
450.082
450.0709
450.0632
450.0577
450.0536
450.0504
450.0478
450.0455
450.0434
450.0415
450.0396
450.0378
450.036
450.0343
450.0328
450.0314
450.0302
450.0291
450.0282
450.0274
450.0266
450.0259
450.025
450.0238
450.022
450.0193
450.015
450.008
449.9967
449.9786
449.9503
449.907
449.8423
449.7481
449.6141
449.4279
449.1739
448.8292
448.3533
447.6792
446.7023
445.2324
442.8366
438.1862
424.4139
474.448
461.8596
457.1468
454.5559
452.9652
451.9651
451.3253
450.9057
450.6236
450.4325
450.3037
450.217
450.1592
450.1211
450.0965
450.0803
450.0695
450.0621
450.0568
450.0529
450.0498
450.0473
450.0451
450.0432
450.0413
450.0395
450.0377
450.036
450.0343
450.0327
450.0312
450.03
450.0288
450.0279
450.0271
450.0263
450.0256
450.0247
450.0235
450.0218
450.0191
450.0147
450.0078
449.9965
449.9785
449.9502
449.907
449.8425
449.7485
449.6147
449.4289
449.1756
448.8324
448.3592
447.6887
446.7169
445.2538
442.866
438.2222
424.4387
474.4716
461.8768
457.1443
454.5416
452.9475
451.9479
451.3096
450.8923
450.613
450.4248
450.298
450.2128
450.1559
450.1185
450.0943
450.0786
450.0682
450.0611
450.056
450.0522
450.0492
450.0468
450.0448
450.0429
450.0411
450.0394
450.0377
450.036
450.0343
450.0327
450.0311
450.0298
450.0286
450.0276
450.0268
450.026
450.0253
450.0244
450.0233
450.0215
450.0188
450.0145
450.0076
449.9964
449.9784
449.9502
449.9072
449.8429
449.749
449.6155
449.4301
449.1777
448.8361
448.3655
447.6989
446.7323
445.2759
442.8959
438.2583
424.462
474.4802
461.8759
457.13
454.5217
452.9266
451.9287
451.2931
450.8786
450.6026
450.417
450.2922
450.2085
450.1528
450.1162
450.0924
450.0771
450.0671
450.0601
450.0552
450.0516
450.0487
450.0464
450.0444
450.0426
450.0409
450.0393
450.0376
450.036
450.0343
450.0326
450.0311
450.0297
450.0284
450.0274
450.0265
450.0258
450.025
450.0242
450.023
450.0213
450.0186
450.0143
450.0074
449.9962
449.9783
449.9503
449.9074
449.8433
449.7498
449.6166
449.4316
449.18
448.8402
448.3724
447.7097
446.7484
445.2989
442.9267
438.2944
424.485
474.4717
461.8561
457.1035
454.4944
452.9015
451.9076
451.276
450.8651
450.5922
450.4092
450.2863
450.2043
450.1498
450.1141
450.0908
450.0758
450.066
450.0593
450.0545
450.0509
450.0482
450.0459
450.044
450.0423
450.0407
450.0391
450.0375
450.0359
450.0342
450.0326
450.031
450.0296
450.0283
450.0272
450.0263
450.0255
450.0248
450.0239
450.0228
450.021
450.0183
450.0141
450.0072
449.9961
449.9783
449.9504
449.9078
449.8439
449.7507
449.6179
449.4335
449.1827
448.8446
448.3797
447.7211
446.7653
445.3226
442.9581
438.3304
424.5062
474.4597
461.8294
457.0704
454.4627
452.8743
451.8857
451.2588
450.8517
450.5818
450.4012
450.2804
450.2
450.1469
450.112
450.0893
450.0746
450.065
450.0585
450.0538
450.0504
450.0477
450.0455
450.0436
450.0419
450.0404
450.0388
450.0373
450.0358
450.0342
450.0325
450.031
450.0295
450.0283
450.0271
450.0262
450.0254
450.0246
450.0237
450.0225
450.0208
450.0181
450.0139
450.0071
449.996
449.9784
449.9506
449.9082
449.8447
449.7518
449.6194
449.4355
449.1857
448.8494
448.3875
447.7331
446.7827
445.3469
442.9898
438.3657
424.5253
474.4358
461.7872
457.028
454.4267
452.8447
451.8624
451.241
450.838
450.5713
450.3931
450.2743
450.1957
450.144
450.1101
450.088
450.0735
450.0641
450.0577
450.0532
450.0498
450.0472
450.045
450.0432
450.0415
450.04
450.0385
450.0371
450.0356
450.034
450.0325
450.031
450.0295
450.0282
450.0271
450.0261
450.0252
450.0244
450.0235
450.0223
450.0206
450.0179
450.0137
450.007
449.996
449.9784
449.9509
449.9087
449.8455
449.7531
449.6212
449.4379
449.189
448.8545
448.3957
447.7455
446.8008
445.3719
443.0219
438.4005
424.5418
474.3896
461.7305
456.9747
454.3829
452.8113
451.8381
451.223
450.8244
450.5608
450.3851
450.2684
450.1915
450.1411
450.1083
450.0868
450.0726
450.0633
450.057
450.0526
450.0493
450.0467
450.0445
450.0427
450.0411
450.0396
450.0382
450.0368
450.0353
450.0339
450.0324
450.031
450.0296
450.0283
450.0271
450.0261