/*--------------------------------*- C++ -*----------------------------------*\
| =========                 |                                                 |
| \\      /  F ield         | OpenFOAM: The Open Source CFD Toolbox           |
|  \\    /   O peration     | Version:  2312                                  |
|   \\  /    A nd           | Website:  www.openfoam.com                      |
|    \\/     M anipulation  |                                                 |
\*---------------------------------------------------------------------------*/
FoamFile
{
    version     2.0;
    format      ascii;
    arch        "LSB;label=32;scalar=64";
    class       volVectorField;
    location    "1500";
    object      U;
}
// * * * * * * * * * * * * * * * * * * * * * * * * * * * * * * * * * * * * * //

dimensions      [0 1 -1 0 0 0 0];

internalField   nonuniform List<vector> 
12000
(
(-0.024387 0.05566414 0)
(-0.0586533 0.05666893 0)
(-0.09942153 0.06081664 0)
(-0.1397653 0.0700262 0)
(-0.1826677 0.07899752 0)
(-0.2254492 0.0719744 0)
(-0.2635833 0.05226614 0)
(-0.294127 0.0470296 0)
(-0.3239086 0.06378417 0)
(-0.3580594 0.07638925 0)
(-0.3922559 0.0516426 0)
(-0.4146905 0.01998137 0)
(-0.4321006 0.02501375 0)
(-0.4533954 0.05591724 0)
(-0.4805428 0.05384111 0)
(-0.4995124 0.01932397 0)
(-0.5104461 0.008991594 0)
(-0.5227813 0.03355034 0)
(-0.5409663 0.04061712 0)
(-0.5545911 0.01862391 0)
(-0.5626291 0.009830689 0)
(-0.5711231 0.02264108 0)
(-0.5823234 0.02389207 0)
(-0.5900769 0.01211937 0)
(-0.5956038 0.01202393 0)
(-0.6021923 0.01796957 0)
(-0.6089876 0.01209862 0)
(-0.6124402 0.005839141 0)
(-0.6159576 0.01183934 0)
(-0.6210982 0.01540193 0)
(-0.6251652 0.008889689 0)
(-0.626875 0.004174294 0)
(-0.6286082 0.006914298 0)
(-0.630711 0.009665645 0)
(-0.6330141 0.008584242 0)
(-0.6341471 0.003795607 0)
(-0.6344503 -0.0003900702 0)
(-0.6331125 -0.005321486 0)
(-0.6301243 -0.001960025 0)
(-0.6297553 0.006319467 0)
(-0.6300949 0.005885405 0)
(-0.6284552 -0.007172814 0)
(-0.6230807 -0.02749749 0)
(-0.6128295 -0.02329151 0)
(-0.6073339 0.006739047 0)
(-0.6065065 0.02058263 0)
(-0.6036739 -0.01936094 0)
(-0.5881303 -0.0634107 0)
(-0.567188 -0.03726767 0)
(-0.5575393 0.005981989 0)
(-0.5480471 -0.02819855 0)
(-0.5225543 -0.08138752 0)
(-0.4897875 -0.07286429 0)
(-0.4628094 -0.05353029 0)
(-0.4268815 -0.08407463 0)
(-0.3838007 -0.1183696 0)
(-0.3207631 -0.1272824 0)
(-0.2600229 -0.1333819 0)
(-0.1480512 -0.1747811 0)
(-0.06478037 -0.1754104 0)
(-0.0223534 0.1722892 0)
(-0.06291901 0.166718 0)
(-0.101739 0.1696024 0)
(-0.1397928 0.1680143 0)
(-0.172046 0.1652627 0)
(-0.2010978 0.1593053 0)
(-0.2330389 0.1437741 0)
(-0.2598779 0.1295471 0)
(-0.2905044 0.1176354 0)
(-0.3079714 0.1212662 0)
(-0.3257385 0.1103669 0)
(-0.3465285 0.09631009 0)
(-0.3697588 0.08735638 0)
(-0.3851427 0.08495825 0)
(-0.3939673 0.07982113 0)
(-0.405209 0.06865755 0)
(-0.4213259 0.06019711 0)
(-0.4333525 0.05678673 0)
(-0.4386105 0.05313246 0)
(-0.4444528 0.04639939 0)
(-0.4536483 0.04056724 0)
(-0.4604604 0.0371091 0)
(-0.4633961 0.03356114 0)
(-0.466913 0.02919417 0)
(-0.4713931 0.02595612 0)
(-0.4734205 0.02372425 0)
(-0.4743602 0.02054449 0)
(-0.4767118 0.01718793 0)
(-0.4777311 0.01634722 0)
(-0.4770217 0.01389766 0)
(-0.4753673 0.01084895 0)
(-0.4749579 0.00857552 0)
(-0.4739864 0.006928806 0)
(-0.4715475 0.005724041 0)
(-0.4682964 0.004378011 0)
(-0.4649377 0.002254739 0)
(-0.4618273 -0.0007339547 0)
(-0.4589331 -0.003946324 0)
(-0.455792 -0.005559561 0)
(-0.450533 -0.005785606 0)
(-0.4427918 -0.007102383 0)
(-0.4354555 -0.01099408 0)
(-0.4310348 -0.01661595 0)
(-0.4280223 -0.0213803 0)
(-0.4204437 -0.02396154 0)
(-0.4048119 -0.02619182 0)
(-0.389113 -0.03209802 0)
(-0.3827722 -0.04119377 0)
(-0.3778669 -0.04978391 0)
(-0.3600031 -0.05854584 0)
(-0.3355528 -0.07086253 0)
(-0.3220163 -0.08500543 0)
(-0.3077881 -0.101733 0)
(-0.290441 -0.1223323 0)
(-0.2576337 -0.1479116 0)
(-0.2427654 -0.1693722 0)
(-0.1992145 -0.2498932 0)
(-0.1638326 -0.338218 0)
(-0.09959694 -0.4103287 0)
(-0.05188604 -0.4573791 0)
(-0.01994694 0.2944296 0)
(-0.05045874 0.2844725 0)
(-0.083443 0.2761558 0)
(-0.1091281 0.2672461 0)
(-0.1403075 0.2521493 0)
(-0.1626157 0.2391465 0)
(-0.1819456 0.2247211 0)
(-0.2100665 0.2028392 0)
(-0.2256586 0.1983852 0)
(-0.2503998 0.1750544 0)
(-0.2647905 0.1610084 0)
(-0.2828213 0.1458202 0)
(-0.2985323 0.1330753 0)
(-0.3120239 0.1224187 0)
(-0.322753 0.1111529 0)
(-0.3331148 0.09951255 0)
(-0.3433103 0.0895616 0)
(-0.3523159 0.08112911 0)
(-0.3595995 0.07268909 0)
(-0.3660171 0.06414166 0)
(-0.3719647 0.05657698 0)
(-0.3769315 0.04997128 0)
(-0.3807565 0.04350711 0)
(-0.3838618 0.03726422 0)
(-0.3860783 0.03179058 0)
(-0.3879759 0.02671924 0)
(-0.3886924 0.02337289 0)
(-0.3890171 0.01751701 0)
(-0.3885727 0.01358829 0)
(-0.387273 0.009700476 0)
(-0.3855822 0.005645028 0)
(-0.3835605 0.001920852 0)
(-0.3809784 -0.001491272 0)
(-0.3778112 -0.004856671 0)
(-0.3740377 -0.008351537 0)
(-0.3697667 -0.01205201 0)
(-0.3651479 -0.01588671 0)
(-0.3602883 -0.01986559 0)
(-0.3550647 -0.02390214 0)
(-0.3490707 -0.02812264 0)
(-0.342138 -0.03300055 0)
(-0.334542 -0.03862362 0)
(-0.3266749 -0.04487776 0)
(-0.3184928 -0.05138596 0)
(-0.3093442 -0.05835266 0)
(-0.2987884 -0.06672079 0)
(-0.2870734 -0.07706901 0)
(-0.2747425 -0.08869335 0)
(-0.2612067 -0.101062 0)
(-0.2471946 -0.1145667 0)
(-0.2315921 -0.1307943 0)
(-0.2153835 -0.1473381 0)
(-0.1971639 -0.1626849 0)
(-0.1767959 -0.1840423 0)
(-0.15168 -0.2265517 0)
(-0.1195762 -0.2830994 0)
(-0.09281886 -0.3342132 0)
(-0.06833997 -0.3937165 0)
(-0.04765218 -0.487339 0)
(-0.01527683 -0.5742227 0)
(-0.01554721 0.374473 0)
(-0.03817952 0.3590905 0)
(-0.06362659 0.3459464 0)
(-0.08554618 0.3298093 0)
(-0.1072595 0.3123469 0)
(-0.1273958 0.2936351 0)
(-0.1457919 0.2758035 0)
(-0.1639924 0.2568934 0)
(-0.1817405 0.2408696 0)
(-0.19385 0.2293001 0)
(-0.2111247 0.2084162 0)
(-0.2226694 0.1942292 0)
(-0.2393656 0.173031 0)
(-0.2518639 0.1557205 0)
(-0.2632987 0.1416374 0)
(-0.2740547 0.1283583 0)
(-0.2837056 0.1158188 0)
(-0.292216 0.1040123 0)
(-0.2994966 0.09277261 0)
(-0.3057896 0.08203432 0)
(-0.311155 0.07188629 0)
(-0.3155034 0.06234982 0)
(-0.3188695 0.05334028 0)
(-0.321295 0.04482359 0)
(-0.3230748 0.03683134 0)
(-0.3238254 0.03150065 0)
(-0.3237573 0.02349077 0)
(-0.3229056 0.01685147 0)
(-0.3215952 0.01091633 0)
(-0.3195365 0.005358949 0)
(-0.3169518 6.889891e-05 0)
(-0.3138712 -0.004945242 0)
(-0.3102838 -0.009742833 0)
(-0.3061994 -0.01438871 0)
(-0.3016559 -0.01896864 0)
(-0.2967016 -0.02357713 0)
(-0.2913705 -0.02829621 0)
(-0.285671 -0.03319427 0)
(-0.2795783 -0.03832489 0)
(-0.2730265 -0.04376412 0)
(-0.2659959 -0.04966988 0)
(-0.2585044 -0.05623659 0)
(-0.2505805 -0.06356431 0)
(-0.2421689 -0.07182731 0)
(-0.2329108 -0.08108049 0)
(-0.2232519 -0.0910749 0)
(-0.2130227 -0.1026801 0)
(-0.2028083 -0.1164216 0)
(-0.1906913 -0.131738 0)
(-0.1802042 -0.1436284 0)
(-0.1673764 -0.1617401 0)
(-0.1529354 -0.1866142 0)
(-0.1351073 -0.2195338 0)
(-0.116128 -0.2569952 0)
(-0.09603377 -0.2986047 0)
(-0.07901717 -0.3426644 0)
(-0.06243752 -0.3978965 0)
(-0.04534696 -0.468846 0)
(-0.02579036 -0.5585983 0)
(-0.01173512 -0.6425283 0)
(-0.01220454 0.4451703 0)
(-0.0317361 0.4258482 0)
(-0.05259009 0.4090795 0)
(-0.07161616 0.3901201 0)
(-0.09034263 0.3697766 0)
(-0.1079829 0.3483367 0)
(-0.1247427 0.3265177 0)
(-0.1405223 0.3038439 0)
(-0.1557425 0.2806579 0)
(-0.1686628 0.2596884 0)
(-0.1804531 0.2418329 0)
(-0.1924586 0.2256106 0)
(-0.2021636 0.2105219 0)
(-0.2139251 0.1911126 0)
(-0.2236902 0.1733402 0)
(-0.2328711 0.1566173 0)
(-0.2409045 0.1406758 0)
(-0.2479716 0.1254895 0)
(-0.2540249 0.1110108 0)
(-0.2591235 0.09723509 0)
(-0.2632993 0.08418459 0)
(-0.2665755 0.07186246 0)
(-0.2689912 0.06024592 0)
(-0.2705799 0.04932421 0)
(-0.2715027 0.03905867 0)
(-0.2714179 0.02950249 0)
(-0.2705379 0.02054057 0)
(-0.2692416 0.01213749 0)
(-0.2672938 0.004330602 0)
(-0.2647768 -0.002991116 0)
(-0.2617294 -0.009894446 0)
(-0.2581957 -0.01643648 0)
(-0.2542069 -0.02268464 0)
(-0.2497948 -0.02872004 0)
(-0.2449872 -0.03463141 0)
(-0.2398143 -0.04051034 0)
(-0.2342887 -0.04645846 0)
(-0.2284441 -0.05254824 0)
(-0.2222923 -0.05896842 0)
(-0.215787 -0.06581476 0)
(-0.2089332 -0.07321203 0)
(-0.2015998 -0.0813613 0)
(-0.1940522 -0.0902272 0)
(-0.1864269 -0.1002417 0)
(-0.1776481 -0.1114443 0)
(-0.1697505 -0.1212727 0)
(-0.1599226 -0.1350239 0)
(-0.1506283 -0.1487425 0)
(-0.1414308 -0.1629265 0)
(-0.1299421 -0.182428 0)
(-0.1163998 -0.208088 0)
(-0.1030832 -0.2352484 0)
(-0.08961282 -0.2641453 0)
(-0.07684072 -0.2962728 0)
(-0.0645102 -0.3339684 0)
(-0.05209943 -0.3789095 0)
(-0.03955967 -0.4323214 0)
(-0.02718892 -0.4979423 0)
(-0.01707874 -0.5852021 0)
(-0.005339019 -0.6806903 0)
(-0.009398392 0.5003135 0)
(-0.0258712 0.4791786 0)
(-0.04290545 0.459688 0)
(-0.05861141 0.4385876 0)
(-0.07395461 0.416058 0)
(-0.08842603 0.3926535 0)
(-0.1023437 0.3689737 0)
(-0.1155804 0.3451632 0)
(-0.1284498 0.3214964 0)
(-0.1408333 0.2986639 0)
(-0.1523618 0.2768656 0)
(-0.1627178 0.2562681 0)
(-0.1716054 0.2365125 0)
(-0.1798636 0.2166677 0)
(-0.1877348 0.1967815 0)
(-0.1948374 0.1776836 0)
(-0.201169 0.1593025 0)
(-0.2066619 0.1416605 0)
(-0.2113215 0.1247525 0)
(-0.2151696 0.1085937 0)
(-0.2182229 0.09320496 0)
(-0.2205012 0.07860364 0)
(-0.2220315 0.06479643 0)
(-0.2228432 0.0517853 0)
(-0.2229847 0.03955947 0)
(-0.2224726 0.02814802 0)
(-0.2213466 0.01740039 0)
(-0.2196756 0.007377225 0)
(-0.2174737 -0.001984477 0)
(-0.214785 -0.01071011 0)
(-0.2116568 -0.01890319 0)
(-0.2081141 -0.02663253 0)
(-0.2041913 -0.03395838 0)
(-0.1999245 -0.04096432 0)
(-0.1953411 -0.04774901 0)
(-0.1904859 -0.05441167 0)
(-0.1853036 -0.06109438 0)
(-0.1800015 -0.06779684 0)
(-0.1745717 -0.07481217 0)
(-0.1688608 -0.08233756 0)
(-0.1630783 -0.09044635 0)
(-0.1567341 -0.09929922 0)
(-0.1508998 -0.1074166 0)
(-0.14405 -0.118279 0)
(-0.1377152 -0.1299546 0)
(-0.1301261 -0.142704 0)
(-0.1233079 -0.1555763 0)
(-0.11514 -0.171795 0)
(-0.1058635 -0.1919504 0)
(-0.09623668 -0.214031 0)
(-0.08655162 -0.2379877 0)
(-0.07722008 -0.2644922 0)
(-0.06777749 -0.2946125 0)
(-0.05811165 -0.3289651 0)
(-0.04824734 -0.3684148 0)
(-0.03845837 -0.4141349 0)
(-0.02886902 -0.4683888 0)
(-0.01980693 -0.5347128 0)
(-0.01093554 -0.6197147 0)
(-0.004113604 -0.7077645 0)
(-0.007543144 0.5459888 0)
(-0.02162759 0.5242783 0)
(-0.03570071 0.5021561 0)
(-0.04881257 0.4789303 0)
(-0.06158259 0.4544487 0)
(-0.07374912 0.4293391 0)
(-0.08547844 0.4040152 0)
(-0.09671119 0.3784713 0)
(-0.1074682 0.3530262 0)
(-0.1175588 0.3281855 0)
(-0.1269285 0.3041572 0)
(-0.13523 0.2808292 0)
(-0.1431447 0.2582025 0)
(-0.1493555 0.2370938 0)
(-0.1555212 0.2156895 0)
(-0.1607503 0.1946608 0)
(-0.165404 0.1741034 0)
(-0.1693811 0.154237 0)
(-0.1726723 0.1351366 0)
(-0.175276 0.1168299 0)
(-0.17721 0.09934218 0)
(-0.1785013 0.08270765 0)
(-0.1791829 0.06694828 0)
(-0.1792857 0.05207504 0)
(-0.1788435 0.03808598 0)
(-0.1778838 0.02497445 0)
(-0.1764364 0.01270683 0)
(-0.1745675 0.001282874 0)
(-0.1722482 -0.009408184 0)
(-0.169593 -0.0193577 0)
(-0.166706 -0.02867725 0)
(-0.1634841 -0.03746255 0)
(-0.1599413 -0.04575308 0)
(-0.1561478 -0.05363848 0)
(-0.1521249 -0.06123534 0)
(-0.1479924 -0.06868045 0)
(-0.1434862 -0.07611695 0)
(-0.1392408 -0.08257428 0)
(-0.1344272 -0.09031464 0)
(-0.129747 -0.09833915 0)
(-0.124853 -0.1068476 0)
(-0.1199315 -0.1159757 0)
(-0.1146856 -0.1260672 0)
(-0.1092354 -0.137416 0)
(-0.1032952 -0.149667 0)
(-0.09821307 -0.1623119 0)
(-0.09132432 -0.178431 0)
(-0.08464079 -0.1964653 0)
(-0.07759465 -0.2160844 0)
(-0.07064793 -0.2376616 0)
(-0.06357679 -0.2616955 0)
(-0.05635525 -0.2884297 0)
(-0.04900865 -0.3183088 0)
(-0.04164091 -0.3519276 0)
(-0.03435563 -0.3901609 0)
(-0.02721561 -0.4342812 0)
(-0.02038654 -0.4862133 0)
(-0.01381539 -0.5494418 0)
(-0.008220617 -0.6310954 0)
(-0.002728136 -0.723864 0)
(-0.006019604 0.5843733 0)
(-0.01770161 0.561705 0)
(-0.02914794 0.537365 0)
(-0.0398935 0.5126412 0)
(-0.05032719 0.4869 0)
(-0.06029773 0.4606798 0)
(-0.06987357 0.4342813 0)
(-0.07903516 0.4075051 0)
(-0.08772638 0.3804366 0)
(-0.09575599 0.3535973 0)
(-0.1030885 0.3272413 0)
(-0.1095915 0.3015165 0)
(-0.1156667 0.2765857 0)
(-0.1200407 0.2529313 0)
(-0.1251199 0.2290006 0)
(-0.1286299 0.2061444 0)
(-0.131779 0.1840321 0)
(-0.1342973 0.1624604 0)
(-0.1362969 0.141593 0)
(-0.1377821 0.1215386 0)
(-0.13875 0.1023922 0)
(-0.1391957 0.08421444 0)
(-0.1391555 0.06701598 0)
(-0.1386686 0.05079127 0)
(-0.1377725 0.03553946 0)
(-0.1365115 0.02124231 0)
(-0.1348466 0.007880766 0)
(-0.1330219 -0.004589673 0)
(-0.1310046 -0.01615355 0)
(-0.1285952 -0.02677139 0)
(-0.1261256 -0.03623353 0)
(-0.123297 -0.04604274 0)
(-0.120373 -0.05496755 0)
(-0.1173004 -0.06331159 0)
(-0.1141219 -0.07123707 0)
(-0.1108606 -0.07888694 0)
(-0.1075854 -0.08636452 0)
(-0.1041567 -0.09391409 0)
(-0.100579 -0.1017466 0)
(-0.09701791 -0.1099159 0)
(-0.09339139 -0.1186516 0)
(-0.08966096 -0.1281352 0)
(-0.08595796 -0.1385388 0)
(-0.08177971 -0.1500419 0)
(-0.07828236 -0.1622555 0)
(-0.07347879 -0.1770756 0)
(-0.06892869 -0.1935533 0)
(-0.06414135 -0.2116709 0)
(-0.05926333 -0.2317874 0)
(-0.05418456 -0.2540444 0)
(-0.04891687 -0.2786856 0)
(-0.04348525 -0.3060153 0)
(-0.03792297 -0.3364692 0)
(-0.03228227 -0.3706346 0)
(-0.02663421 -0.4093548 0)
(-0.02106293 -0.4539093 0)
(-0.01564569 -0.506304 0)
(-0.01052003 -0.5698939 0)
(-0.005797285 -0.6509513 0)
(-0.001902637 -0.738979 0)
(-0.004830382 0.6149053 0)
(-0.01447308 0.5919828 0)
(-0.02364805 0.565838 0)
(-0.03218328 0.53964 0)
(-0.04038567 0.5125684 0)
(-0.04821195 0.4851477 0)
(-0.05568785 0.4575402 0)
(-0.06280461 0.4294044 0)
(-0.06948867 0.4007436 0)
(-0.07562561 0.3721456 0)
(-0.08119121 0.343962 0)
(-0.08615689 0.3163971 0)
(-0.09037506 0.289534 0)
(-0.0946169 0.2635089 0)
(-0.0969531 0.2388031 0)
(-0.09961514 0.2139793 0)
(-0.1015384 0.1899624 0)
(-0.1029017 0.1669902 0)
(-0.1037887 0.1450306 0)
(-0.1042355 0.1238436 0)
(-0.1042673 0.1033974 0)
(-0.1039514 0.08389983 0)
(-0.1033338 0.0654821 0)
(-0.1024369 0.048181 0)
(-0.1012738 0.03197546 0)
(-0.09985525 0.01680129 0)
(-0.09828695 0.002639143 0)
(-0.0967279 -0.009470657 0)
(-0.09492576 -0.02182955 0)
(-0.09299969 -0.03321155 0)
(-0.09083122 -0.04378428 0)
(-0.08860803 -0.05361259 0)
(-0.08636847 -0.06274781 0)
(-0.08409463 -0.07130732 0)
(-0.08179227 -0.07941751 0)
(-0.07947246 -0.08721829 0)
(-0.07713858 -0.09486551 0)
(-0.07478516 -0.1025108 0)
(-0.07242448 -0.1103915 0)
(-0.07005616 -0.1186674 0)
(-0.06765396 -0.1275418 0)
(-0.06522884 -0.1371966 0)
(-0.06260756 -0.147819 0)
(-0.06021032 -0.15952 0)
(-0.05709645 -0.1732181 0)
(-0.05413355 -0.1884042 0)
(-0.05097311 -0.2051383 0)
(-0.04766732 -0.2237223 0)
(-0.04415951 -0.244291 0)
(-0.04044247 -0.2670101 0)
(-0.03651609 -0.2920587 0)
(-0.03240464 -0.3196694 0)
(-0.0281574 -0.3501825 0)
(-0.02384237 -0.3841043 0)
(-0.01955741 -0.4222126 0)
(-0.01535987 -0.4657287 0)
(-0.01136671 -0.5165484 0)
(-0.007597564 -0.5779158 0)
(-0.004383282 -0.6562717 0)
(-0.001506329 -0.746103 0)
(-0.003675569 0.6408657 0)
(-0.01127413 0.6167609 0)
(-0.01830476 0.5883389 0)
(-0.024819 0.5606398 0)
(-0.03106997 0.532531 0)
(-0.03706635 0.5043335 0)
(-0.04280579 0.4758868 0)
(-0.04825774 0.4467039 0)
(-0.05329587 0.4168123 0)
(-0.05788563 0.3867839 0)
(-0.06196943 0.3570313 0)
(-0.06559543 0.3277784 0)
(-0.06856343 0.2991817 0)
(-0.07106879 0.2714891 0)
(-0.07293919 0.2448626 0)
(-0.07441036 0.2188586 0)
(-0.07532154 0.1934547 0)
(-0.07584566 0.168926 0)
(-0.07590262 0.1453915 0)
(-0.07555973 0.1228747 0)
(-0.07486053 0.1015234 0)
(-0.07389953 0.08155296 0)
(-0.07271126 0.0627375 0)
(-0.07136355 0.04490798 0)
(-0.06997086 0.02821052 0)
(-0.06849751 0.01265055 0)
(-0.0671831 -0.0009265292 0)
(-0.06573371 -0.01433948 0)
(-0.06415241 -0.0267956 0)
(-0.06261822 -0.03828481 0)
(-0.06106982 -0.04891046 0)
(-0.05954763 -0.05874772 0)
(-0.05805519 -0.06787695 0)
(-0.05660066 -0.07640709 0)
(-0.05518733 -0.08446936 0)
(-0.05381695 -0.09221336 0)
(-0.05248781 -0.09980683 0)
(-0.05119014 -0.107435 0)
(-0.04991418 -0.1152989 0)
(-0.04864898 -0.1236024 0)
(-0.04736681 -0.1325597 0)
(-0.04604084 -0.1423893 0)
(-0.0446913 -0.1533205 0)
(-0.04310027 -0.1656607 0)
(-0.04149862 -0.1793734 0)
(-0.03989097 -0.1946625 0)
(-0.03799062 -0.211893 0)
(-0.03594149 -0.2310612 0)
(-0.03362987 -0.2523158 0)
(-0.03106412 -0.2757539 0)
(-0.02823991 -0.3014981 0)
(-0.02518502 -0.3297288 0)
(-0.02195542 -0.3607434 0)
(-0.01863077 -0.3950234 0)
(-0.01529215 -0.4333653 0)
(-0.01199707 -0.4771532 0)
(-0.008827942 -0.5282972 0)
(-0.00585833 -0.5899226 0)
(-0.003212301 -0.6682667 0)
(-0.00097998 -0.7556898 0)
(-0.002704273 0.6592789 0)
(-0.00870939 0.6349589 0)
(-0.01407399 0.6050766 0)
(-0.01899309 0.5763955 0)
(-0.02364667 0.5475374 0)
(-0.02807646 0.518772 0)
(-0.03231133 0.4895696 0)
(-0.03631031 0.4592908 0)
(-0.03994062 0.4282272 0)
(-0.04320725 0.3969761 0)
(-0.04606927 0.3659745 0)
(-0.04852941 0.3354664 0)
(-0.05053439 0.3055721 0)
(-0.05212559 0.2762791 0)
(-0.05317573 0.2479412 0)
(-0.05373949 0.2206303 0)
(-0.05391306 0.1941783 0)
(-0.05376791 0.1686921 0)
(-0.05328939 0.1442555 0)
(-0.05249837 0.1209042 0)
(-0.05141868 0.09870809 0)
(-0.05004892 0.07777393 0)
(-0.04844167 0.05824808 0)
(-0.04671943 0.04037761 0)
(-0.04505277 0.02397757 0)
(-0.04356893 0.008732321 0)
(-0.04224264 -0.004959192 0)
(-0.04089472 -0.01823747 0)
(-0.03969929 -0.0305782 0)
(-0.03858909 -0.04197759 0)
(-0.03757884 -0.05247646 0)
(-0.03666859 -0.06214105 0)
(-0.03585747 -0.07108045 0)
(-0.0351448 -0.07941232 0)
(-0.03452845 -0.08727679 0)
(-0.03400302 -0.09483333 0)
(-0.03355935 -0.1022611 0)
(-0.03318371 -0.109757 0)
(-0.03285832 -0.1175343 0)
(-0.03256054 -0.1258158 0)
(-0.03226186 -0.1348308 0)
(-0.03193973 -0.1448091 0)
(-0.03149962 -0.1559616 0)
(-0.03105693 -0.1684267 0)
(-0.03044716 -0.1825139 0)
(-0.02941626 -0.1984898 0)
(-0.02848174 -0.2162966 0)
(-0.02710723 -0.2361855 0)
(-0.02553951 -0.2581756 0)
(-0.02367154 -0.2823649 0)
(-0.02152244 -0.3088096 0)
(-0.01912703 -0.3375867 0)
(-0.01656223 -0.3688871 0)
(-0.01393098 -0.4031395 0)
(-0.01130398 -0.4411753 0)
(-0.008748996 -0.4842788 0)
(-0.006354012 -0.5342445 0)
(-0.004174191 -0.5942955 0)
(-0.002337634 -0.670639 0)
(-0.0008016399 -0.758418 0)
(-0.002032884 0.6752398 0)
(-0.00659157 0.6501543 0)
(-0.01034497 0.6182671 0)
(-0.01363596 0.5881851 0)
(-0.01674057 0.5584811 0)
(-0.01971484 0.529161 0)
(-0.02259538 0.499384 0)
(-0.02531323 0.4683594 0)
(-0.02782389 0.4364311 0)
(-0.03010667 0.4041971 0)
(-0.03213023 0.3721073 0)
(-0.0338021 0.3404279 0)
(-0.03514137 0.3093292 0)
(-0.03609761 0.2788958 0)
(-0.0367299 0.2493233 0)
(-0.03702182 0.2208615 0)
(-0.03702317 0.1934801 0)
(-0.03664478 0.1670898 0)
(-0.03592703 0.1417368 0)
(-0.03488296 0.1175193 0)
(-0.03352972 0.09457703 0)
(-0.03191552 0.07308443 0)
(-0.03013187 0.05321805 0)
(-0.02826315 0.03517258 0)
(-0.02648974 0.01911126 0)
(-0.02497815 0.004783696 0)
(-0.02365238 -0.008704733 0)
(-0.02246445 -0.02153942 0)
(-0.02151209 -0.03340015 0)
(-0.0207229 -0.04433455 0)
(-0.02014699 -0.05439274 0)
(-0.01970243 -0.06366866 0)
(-0.0194307 -0.0722381 0)
(-0.01930644 -0.08021763 0)
(-0.01932401 -0.08775125 0)
(-0.01946777 -0.0950086 0)
(-0.01971854 -0.1021811 0)
(-0.02005204 -0.1094786 0)
(-0.02044001 -0.1171256 0)
(-0.02085093 -0.1253567 0)
(-0.02125042 -0.1344121 0)
(-0.02160515 -0.1445325 0)
(-0.02187259 -0.1559528 0)
(-0.02202551 -0.1689321 0)
(-0.02194883 -0.1836596 0)
(-0.02186512 -0.2001426 0)
(-0.02125529 -0.2186488 0)
(-0.02068048 -0.2392345 0)
(-0.0196687 -0.2620553 0)
(-0.01840729 -0.2871065 0)
(-0.01681488 -0.3143517 0)
(-0.01493925 -0.343745 0)
(-0.01288916 -0.3754231 0)
(-0.01078843 -0.409869 0)
(-0.008724539 -0.4479969 0)
(-0.006742765 -0.4911709 0)
(-0.004896119 -0.541205 0)
(-0.003203676 -0.6013825 0)
(-0.001729288 -0.6779122 0)
(-0.0005079043 -0.764613 0)
(-0.001303422 0.6858 0)
(-0.00447077 0.6596335 0)
(-0.006847068 0.6258963 0)
(-0.00898296 0.5949569 0)
(-0.01104911 0.565128 0)
(-0.01308853 0.5357137 0)
(-0.0150686 0.5056263 0)
(-0.01689162 0.4742663 0)
(-0.01855439 0.4419646 0)
(-0.02002237 0.4092715 0)
(-0.02123619 0.3765862 0)
(-0.02216667 0.3441144 0)
(-0.02297949 0.3120563 0)
(-0.02329793 0.2809387 0)
(-0.02375601 0.2508713 0)
(-0.02403375 0.2216436 0)
(-0.02382874 0.1932269 0)
(-0.02339278 0.1657615 0)
(-0.02258764 0.1393652 0)
(-0.02145886 0.1141656 0)
(-0.0200251 0.09034011 0)
(-0.01834397 0.06815947 0)
(-0.01652968 0.04797456 0)
(-0.01474259 0.03009722 0)
(-0.01313613 0.01453531 0)
(-0.01176448 0.0007859196 0)
(-0.010554 -0.01213729 0)
(-0.009609227 -0.02424924 0)
(-0.008872877 -0.03549717 0)
(-0.008370848 -0.04587101 0)
(-0.008049279 -0.05540427 0)
(-0.007970442 -0.06415087 0)
(-0.008089377 -0.07220652 0)
(-0.008407075 -0.07970423 0)
(-0.008899899 -0.08680497 0)
(-0.009542437 -0.09369459 0)
(-0.01030314 -0.1005794 0)
(-0.01114638 -0.1076818 0)
(-0.01203344 -0.1152357 0)
(-0.01292393 -0.1234813 0)
(-0.01377727 -0.1326596 0)
(-0.01455438 -0.1430068 0)
(-0.01521939 -0.1547481 0)
(-0.0157415 -0.1680967 0)
(-0.01611366 -0.1832405 0)
(-0.01625752 -0.200375 0)
(-0.0162844 -0.2195521 0)
(-0.01591394 -0.240954 0)
(-0.0153311 -0.2645847 0)
(-0.0143399 -0.2905116 0)
(-0.01298712 -0.3187055 0)
(-0.01138535 -0.3488028 0)
(-0.009685746 -0.3807377 0)
(-0.007992485 -0.4150455 0)
(-0.006364931 -0.4527747 0)
(-0.004834431 -0.495308 0)
(-0.003434119 -0.5445044 0)
(-0.002178113 -0.6036413 0)
(-0.001137943 -0.6787766 0)
(-0.0003891991 -0.7652211 0)
(-0.001076352 0.6937893 0)
(-0.003550959 0.6668532 0)
(-0.005279712 0.6319195 0)
(-0.00674856 0.6004622 0)
(-0.008089874 0.5704626 0)
(-0.009406517 0.5407962 0)
(-0.01065866 0.5102243 0)
(-0.01178748 0.4782989 0)
(-0.01280836 0.4453143 0)
(-0.01370112 0.4117818 0)
(-0.01440446 0.3782125 0)
(-0.01493867 0.3451399 0)
(-0.01520254 0.312767 0)
(-0.01555304 0.2812577 0)
(-0.01543116 0.2507346 0)
(-0.01501067 0.2208144 0)
(-0.01444135 0.1915835 0)
(-0.01359565 0.1633009 0)
(-0.01250964 0.1360904 0)
(-0.0111658 0.1101066 0)
(-0.009593834 0.08562102 0)
(-0.007872196 0.06305573 0)
(-0.006141051 0.04290131 0)
(-0.004556946 0.02547526 0)
(-0.003229555 0.01060085 0)
(-0.0021042 -0.002592484 0)
(-0.001172067 -0.01489326 0)
(-0.0004455601 -0.02636591 0)
(3.057195e-05 -0.03696403 0)
(0.0002826951 -0.04667182 0)
(0.0002465067 -0.0555107 0)
(-1.776401e-05 -0.06357641 0)
(-0.000523636 -0.07099457 0)
(-0.001238323 -0.07791848 0)
(-0.002134546 -0.08452812 0)
(-0.00317655 -0.091025 0)
(-0.004324699 -0.09762765 0)
(-0.005536237 -0.1045668 0)
(-0.006767083 -0.1120802 0)
(-0.007973499 -0.1204076 0)
(-0.009113805 -0.129785 0)
(-0.01015011 -0.1404387 0)
(-0.0110495 -0.1525808 0)
(-0.01178665 -0.1664043 0)
(-0.01234105 -0.1820827 0)
(-0.01270926 -0.1997605 0)
(-0.01288545 -0.2196137 0)
(-0.0127986 -0.2417859 0)
(-0.01233333 -0.2665077 0)
(-0.01144774 -0.2936986 0)
(-0.01026092 -0.3226899 0)
(-0.008948739 -0.3530666 0)
(-0.007616176 -0.3850003 0)
(-0.006312104 -0.4192247 0)
(-0.00506067 -0.4568886 0)
(-0.003880657 -0.4994294 0)
(-0.002800769 -0.548681 0)
(-0.001820857 -0.6079124 0)
(-0.0009925035 -0.6830839 0)
(-0.000325082 -0.7689983 0)
(-0.0005792986 0.7005496 0)
(-0.001987104 0.6722531 0)
(-0.002684722 0.635479 0)
(-0.002934262 0.6030084 0)
(-0.003255305 0.5728412 0)
(-0.003563885 0.5431089 0)
(-0.003884644 0.512406 0)
(-0.004204098 0.4804352 0)
(-0.004546883 0.4474626 0)
(-0.004948255 0.4139065 0)
(-0.005208054 0.3801838 0)
(-0.00583417 0.3466123 0)
(-0.005729678 0.3136772 0)
(-0.00611715 0.2814433 0)
(-0.005923468 0.2498564 0)
(-0.00563171 0.2191442 0)
(-0.005078737 0.189344 0)
(-0.004300754 0.1604637 0)
(-0.003284067 0.132602 0)
(-0.002034344 0.1059961 0)
(-0.0006016973 0.08106902 0)
(0.0008953101 0.05841569 0)
(0.002292552 0.03860833 0)
(0.003425318 0.02184493 0)
(0.004324996 0.007631036 0)
(0.005038817 -0.00507746 0)
(0.005602855 -0.01680542 0)
(0.005960598 -0.02764812 0)
(0.006103844 -0.03752745 0)
(0.005956977 -0.04647582 0)
(0.005592242 -0.05457164 0)
(0.004962188 -0.06194566 0)
(0.004115602 -0.06873746 0)
(0.003071398 -0.07512034 0)
(0.00186725 -0.08129073 0)
(0.0005434423 -0.08746351 0)
(-0.0008557115 -0.09386616 0)
(-0.00228455 -0.1007335 0)
(-0.003697852 -0.1083023 0)
(-0.005052784 -0.116806 0)
(-0.006310656 -0.1264691 0)
(-0.007438532 -0.1375025 0)
(-0.008410085 -0.1500983 0)
(-0.00920826 -0.1644277 0)
(-0.009814212 -0.180635 0)
(-0.01026451 -0.1988524 0)
(-0.01045332 -0.219301 0)
(-0.01036521 -0.2424951 0)
(-0.009815979 -0.2684617 0)
(-0.00895265 -0.2964688 0)
(-0.007925508 -0.3258484 0)
(-0.006839988 -0.3563568 0)
(-0.005749632 -0.3882751 0)
(-0.004684692 -0.4223681 0)
(-0.003667968 -0.4597657 0)
(-0.002725208 -0.5018582 0)
(-0.00188437 -0.5505241 0)
(-0.001145763 -0.6090671 0)
(-0.0005765561 -0.6834737 0)
(-0.0002112417 -0.7693028 0)
(-0.0003752474 0.7034677 0)
(-0.00144686 0.6739255 0)
(-0.001300262 0.63576 0)
(-0.001434833 0.6029316 0)
(-0.001242106 0.572746 0)
(-0.001165052 0.543013 0)
(-0.001027783 0.5122958 0)
(-0.0008701337 0.4803634 0)
(-0.0006841542 0.4474267 0)
(-0.0004865891 0.4138979 0)
(-0.0003833252 0.3802124 0)
(-2.487981e-05 0.3466948 0)
(-0.0001081283 0.3137208 0)
(0.0003024471 0.2814037 0)
(0.0006109101 0.2494662 0)
(0.001165777 0.2181624 0)
(0.001875695 0.1876772 0)
(0.002780347 0.158097 0)
(0.0038834 0.1295594 0)
(0.005152834 0.1024044 0)
(0.00650282 0.07722538 0)
(0.007762074 0.05477276 0)
(0.008775857 0.03562498 0)
(0.009429511 0.01971068 0)
(0.00989499 0.005995722 0)
(0.01021118 -0.006275982 0)
(0.01037894 -0.01754444 0)
(0.01036448 -0.02778564 0)
(0.01010116 -0.03698952 0)
(0.009618966 -0.04523903 0)
(0.00888873 -0.05266075 0)
(0.007940423 -0.05939329 0)
(0.006793303 -0.06561593 0)
(0.005481823 -0.07152593 0)
(0.004045841 -0.07733856 0)
(0.002529583 -0.08328011 0)
(0.0009789758 -0.08958308 0)
(-0.0005605172 -0.09648099 0)
(-0.002045998 -0.1042035 0)
(-0.003438992 -0.1129718 0)
(-0.004707188 -0.1229934 0)
(-0.005825312 -0.134459 0)
(-0.006777972 -0.1475389 0)
(-0.007551525 -0.1623825 0)
(-0.00816921 -0.1791174 0)
(-0.008590824 -0.1978827 0)
(-0.008758974 -0.2192279 0)
(-0.008485538 -0.2436299 0)
(-0.007898847 -0.2705048 0)
(-0.007107756 -0.299035 0)
(-0.006239562 -0.3286413 0)
(-0.005354441 -0.3591969 0)
(-0.004486318 -0.3910708 0)
(-0.00365283 -0.4250812 0)
(-0.002868675 -0.4623961 0)
(-0.002149497 -0.5044445 0)
(-0.001515812 -0.5531078 0)
(-0.0009482585 -0.6116564 0)
(-0.000505896 -0.6858469 0)
(-0.0001803859 -0.7713164 0)
(-0.0003328411 0.707004 0)
(-0.0006611875 0.6754815 0)
(-0.0004700203 0.6357502 0)
(-5.945603e-05 0.6026938 0)
(0.0004176649 0.5723187 0)
(0.0009087252 0.5424344 0)
(0.001429768 0.5115643 0)
(0.0019579 0.4795125 0)
(0.0024321 0.4465281 0)
(0.002916724 0.4129971 0)
(0.003332747 0.3793281 0)
(0.003832799 0.3458648 0)
(0.004315529 0.3126387 0)
(0.005057506 0.279662 0)
(0.005856084 0.2472756 0)
(0.00676617 0.215637 0)
(0.007762277 0.1847891 0)
(0.008881645 0.1548009 0)
(0.01011614 0.1258943 0)
(0.01140897 0.09858125 0)
(0.01260537 0.07365511 0)
(0.01356698 0.05196999 0)
(0.01406087 0.03388412 0)
(0.01428465 0.01872182 0)
(0.01432017 0.005398609 0)
(0.01426591 -0.006465674 0)
(0.01405048 -0.01721688 0)
(0.01360257 -0.02685881 0)
(0.01296006 -0.03540663 0)
(0.01209154 -0.04300501 0)
(0.01101826 -0.04980227 0)
(0.009758346 -0.05598123 0)
(0.00834426 -0.06174309 0)
(0.006814081 -0.06730491 0)
(0.005210574 -0.07289387 0)
(0.003578388 -0.07874159 0)
(0.00196179 -0.08507925 0)
(0.0004025075 -0.09213306 0)
(-0.001062144 -0.1001199 0)
(-0.002400868 -0.1092433 0)
(-0.003589595 -0.1196896 0)
(-0.004612314 -0.1316247 0)
(-0.005461902 -0.1451931 0)
(-0.006134657 -0.1605131 0)
(-0.006671365 -0.177694 0)
(-0.006954946 -0.1971602 0)
(-0.006971433 -0.2196157 0)
(-0.00659195 -0.2449592 0)
(-0.006003668 -0.2724107 0)
(-0.005307749 -0.3011942 0)
(-0.004584915 -0.3308552 0)
(-0.003869229 -0.3613693 0)
(-0.003176232 -0.3931504 0)
(-0.002516365 -0.427016 0)
(-0.001900548 -0.4641048 0)
(-0.001352095 -0.505808 0)
(-0.0008879238 -0.554056 0)
(-0.0005219412 -0.6121901 0)
(-0.0002811891 -0.6860168 0)
(-0.0001104371 -0.7714455 0)
(-0.0001190427 0.7082058 0)
(-0.0002345555 0.6754301 0)
(0.0002814389 0.6348722 0)
(0.001032062 0.600948 0)
(0.001915644 0.5703648 0)
(0.002846333 0.5403846 0)
(0.003817199 0.5095086 0)
(0.00478375 0.4775451 0)
(0.005723336 0.4447028 0)
(0.006625873 0.4112848 0)
(0.007496537 0.3775755 0)
(0.008382891 0.3438336 0)
(0.009312826 0.3102635 0)
(0.01028601 0.2771235 0)
(0.01128471 0.2446077 0)
(0.01233932 0.2127645 0)
(0.0134591 0.1816538 0)
(0.01465199 0.1514043 0)
(0.01588604 0.1223779 0)
(0.01702776 0.09528922 0)
(0.01792893 0.07110792 0)
(0.01837456 0.05058593 0)
(0.01843473 0.03358663 0)
(0.01824264 0.01901059 0)
(0.01789614 0.006026967 0)
(0.01745425 -0.005548693 0)
(0.01683759 -0.01564071 0)
(0.01599406 -0.02470519 0)
(0.01496685 -0.03268205 0)
(0.01374875 -0.03972528 0)
(0.01236405 -0.04602445 0)
(0.01084101 -0.05178893 0)
(0.009216109 -0.05724134 0)
(0.007529952 -0.06261178 0)
(0.005825144 -0.06813331 0)
(0.004143863 -0.07403667 0)
(0.002525777 -0.08054595 0)
(0.001006106 -0.08787489 0)
(-0.0003858242 -0.09622345 0)
(-0.001627866 -0.1057749 0)
(-0.002705256 -0.1166933 0)
(-0.003612894 -0.1291222 0)
(-0.004346453 -0.1431848 0)
(-0.004936105 -0.1589823 0)
(-0.005344969 -0.1766942 0)
(-0.005534404 -0.1969525 0)
(-0.005368773 -0.2203307 0)
(-0.004972604 -0.2463417 0)
(-0.004439272 -0.2741369 0)
(-0.003869883 -0.3030353 0)
(-0.003304772 -0.3326978 0)
(-0.002760826 -0.3631661 0)
(-0.002244409 -0.3948799 0)
(-0.001762386 -0.4286655 0)
(-0.001320466 -0.4656692 0)
(-0.0009418148 -0.5072892 0)
(-0.0006229146 -0.5554502 0)
(-0.0004109183 -0.6134258 0)
(-0.0002255555 -0.6872128 0)
(-9.974576e-05 -0.7724684 0)
(-9.556049e-05 0.709581 0)
(-1.308997e-05 0.674959 0)
(0.0008175351 0.6328667 0)
(0.001853036 0.5983396 0)
(0.00305879 0.5674157 0)
(0.004337216 0.5372088 0)
(0.005686302 0.5062138 0)
(0.007050773 0.4742157 0)
(0.008411086 0.4414025 0)
(0.009746672 0.40805 0)
(0.01105052 0.3744184 0)
(0.01232403 0.3407364 0)
(0.01357016 0.3072077 0)