/*--------------------------------*- C++ -*----------------------------------*\
| =========                 |                                                 |
| \\      /  F ield         | OpenFOAM: The Open Source CFD Toolbox           |
|  \\    /   O peration     | Version:  2312                                  |
|   \\  /    A nd           | Website:  www.openfoam.com                      |
|    \\/     M anipulation  |                                                 |
\*---------------------------------------------------------------------------*/
FoamFile
{
    version     2.0;
    format      ascii;
    arch        "LSB;label=32;scalar=64";
    class       volScalarField;
    location    "4500";
    object      ILambda_2_0;
}
// * * * * * * * * * * * * * * * * * * * * * * * * * * * * * * * * * * * * * //

dimensions      [1 0 -3 0 0 0 0];

internalField   nonuniform List<scalar> 
12000
(
2994.889
2312.381
1790.808
1409.656
1139.48
953.2781
829.3762
751.1579
705.8552
683.4358
676.0198
677.7652
684.814
694.9315
706.7917
719.2296
730.8815
740.3579
746.6848
749.6025
749.5031
747.0868
743.0039
737.6981
731.4753
724.6654
717.7239
711.2043
705.6347
701.3827
698.5731
697.0791
696.5745
696.608
696.6928
696.4054
695.4684
693.8044
691.5193
688.843
686.0478
683.4003
681.1612
679.4915
678.4403
677.969
677.9865
678.4628
679.3734
680.5495
681.7497
682.8274
683.6792
684.0978
683.8721
682.8464
680.8019
677.0685
672.6972
657.6745
3527.535
3510.92
3322.201
3023.191
2671.646
2310.67
1968.853
1663.155
1402.047
1188.063
1019.665
892.6326
801.219
739.1646
700.4802
679.8702
672.78
675.2468
683.7789
695.3796
707.6674
718.9651
728.264
735.0722
739.2332
740.7947
739.9572
737.0689
732.6172
727.1856
721.3783
715.7384
710.6833
706.4714
703.1937
700.7866
699.0631
697.7616
696.609
695.3767
693.9186
692.1779
690.179
688.0259
685.8668
683.8538
682.1088
680.7006
679.6786
679.0961
678.9625
679.2142
679.7607
680.5148
681.3608
682.132
682.7709
682.7987
683.3008
680.019
3478.105
3540.451
3587.825
3582.295
3505.443
3356.304
3145.469
2889.528
2606.958
2315.418
2030.13
1763.036
1522.512
1313.517
1138.063
995.8751
885.047
802.5828
744.7944
707.6094
686.8482
678.4866
678.8775
684.8943
693.982
704.138
713.8619
722.1043
728.2247
731.9491
733.3145
732.5977
730.2316
726.7218
722.5746
718.2381
714.0613
710.2703
706.966
704.1417
701.7146
699.5627
697.5552
695.5839
693.5844
691.5419
689.4855
687.4667
685.5446
683.7907
682.2845
681.0914
680.2488
679.773
679.6626
679.8706
680.3775
681.0226
681.8871
683.0192
3451.092
3462.852
3493.674
3537.281
3578.432
3599.416
3585.075
3525.517
3416.949
3261.249
3064.812
2837.108
2589.216
2332.504
2077.567
1833.505
1607.514
1404.76
1228.433
1079.916
959.024
864.2999
793.3346
743.0975
710.2405
691.3513
683.1476
682.6142
687.0968
694.3621
702.6299
710.5776
717.3169
722.3465
725.4866
726.8032
726.5316
725.0027
722.5788
719.6026
716.3616
713.0706
709.8679
706.8225
703.9514
701.2398
698.6614
696.1928
693.8199
691.5409
689.3702
687.3387
685.4877
683.8617
682.505
681.4509
680.7286
680.3537
680.2075
680.8284
3423.323
3426.119
3431.615
3445.488
3470.808
3506.062
3545.235
3579.203
3597.637
3590.864
3551.318
3474.432
3358.984
3206.972
3023.127
2814.201
2588.169
2353.459
2118.281
1890.091
1675.209
1478.574
1303.642
1152.402
1025.493
922.3942
841.6512
781.117
738.185
710.0043
693.669
686.3778
685.5619
688.9763
694.7553
701.4333
707.9363
713.5489
717.8646
720.7256
722.1591
722.3151
721.4122
719.6922
717.3877
714.7008
711.7938
708.789
705.7735
702.8059
699.924
697.1533
694.515
692.0304
689.7219
687.6188
685.7467
684.1293
682.8583
681.4483
3398.137
3400.341
3402
3403.998
3408.781
3419.387
3438.119
3465.431
3499.342
3535.48
3567.629
3588.589
3591.145
3568.977
3517.378
3433.729
3317.676
3171.061
2997.649
2802.703
2592.499
2373.8
2153.374
1937.56
1731.933
1541.066
1368.394
1216.178
1085.543
976.5848
888.512
819.8246
768.5001
732.1819
708.3562
694.5087
688.2536
687.4317
690.1758
694.9461
700.5375
706.0643
710.9279
714.7738
717.4417
718.917
719.2836
718.6856
717.2952
715.2901
712.8377
710.0859
707.1594
704.1599
701.1673
698.2483
695.4514
692.7866
690.5523
687.2224
3391.897
3389.479
3388.47
3388.352
3388.809
3390.225
3393.812
3401.351
3414.615
3434.723
3461.586
3493.599
3527.603
3559.121
3582.798
3592.969
3584.267
3552.168
3493.438
3406.408
3291.107
3149.215
2983.888
2799.479
2601.185
2394.668
2185.678
1979.718
1781.755
1596.007
1425.802
1273.503
1140.51
1027.307
933.5625
858.2617
799.8563
756.4236
725.8218
705.8315
694.2774
689.1255
688.5539
690.9978
695.1698
700.0599
704.9193
709.232
712.6799
715.1045
716.4694
716.8255
716.2809
714.975
713.0622
710.6893
708.0158
705.0725
702.4559
697.8205
3409.682
3394.429
3378.084
3362.865
3350.205
3340.739
3334.661
3332.124
3333.528
3339.573
3351.123
3368.92
3393.249
3423.621
3458.567
3495.563
3531.125
3561.037
3580.687
3585.472
3571.199
3534.457
3472.911
3385.492
3272.481
3135.474
2977.257
2801.595
2612.969
2416.282
2216.566
2018.706
1827.198
1645.953
1478.158
1326.199
1191.627
1075.188
976.8852
896.0812
831.615
781.9347
745.23
719.5571
702.9504
693.5154
689.5012
689.3516
691.7348
695.5562
699.9547
704.2879
708.1091
711.1372
713.2329
714.344
714.5609
713.8022
712.8352
709.3067
3512.473
3599.044
3642.316
3650.735
3634.122
3601.384
3559.851
3515.198
3471.628
3432.181
3399.047
3373.82
3357.652
3351.298
3355.062
3368.689
3391.248
3421.034
3455.551
3491.56
3525.232
3552.36
3568.641
3569.976
3552.764
3514.167
3452.312
3366.426
3256.881
3125.162
2973.762
2806.013
2625.876
2437.703
2245.996
2055.17
1869.347
1692.181
1526.724
1375.347
1239.7
1120.716
1018.658
933.1889
863.4679
808.2586
766.041
735.1212
713.7321
700.1212
692.6225
689.7108
690.0388
692.4584
696.0312
700.0053
703.8717
707.1285
709.7876
711.5376
1063.584
1630.294
2124.911
2539.166
2872.027
3127.571
3313.34
3438.917
3514.775
3551.393
3558.642
3545.429
3519.517
3487.482
3454.74
3425.586
3403.247
3389.905
3386.708
3393.785
3410.263
3434.333
3463.345
3493.964
3522.364
3544.471
3556.219
3553.814
3533.978
3494.16
3432.692
3348.894
3243.098
3116.621
2971.674
2811.216
2638.781
2458.275
2273.771
2089.3
1908.673
1735.321
1572.173
1421.575
1285.239
1164.246
1059.062
969.597
895.2795
835.143
787.9216
752.1463
726.2349
708.5756
697.5918
691.8123
689.8714
690.7005
692.7322
697.9739
645.7459
572.3382
662.6512
878.8272
1177.684
1520.072
1873.735
2213.996
2523.494
2791.428
3012.537
3185.973
3314.185
3401.914
3455.328
3481.304
3486.874
3478.783
3463.177
3445.36
3429.633
3419.178
3416.008
3420.951
3433.701
3452.901
3476.298
3500.917
3523.291
3539.701
3546.43
3540.008
3517.435
3476.367
3415.257
3333.437
3231.153
3109.533
2970.514
2816.718
2651.303
2477.787
2299.87
2121.252
1945.471
1775.76
1614.93
1465.292
1328.603
1206.052
1098.275
1005.385
927.0373
862.4999
810.7241
770.4633
740.2519
718.7196
704.4033
693.7219
3207.256
2694.934
2223.918
1836.58
1558.786
1399.428
1353.773
1407.586
1540.994
1731.744
1957.769
2199.005
2438.528
2663.129
2863.448
3033.781
3171.669
3277.358
3353.208
3403.09
3431.826
3444.676
3446.898
3443.378
3438.334
3435.105
3436.005
3442.258
3454.007
3470.375
3489.598
3509.2
3526.196
3537.33
3539.305
3529.016
3503.755
3461.383
3400.461
3320.331
3221.151
3103.872
2970.183
2822.401
2663.349
2496.201
2324.325
2151.126
1979.896
1813.684
1655.188
1506.676
1369.932
1246.227
1136.334
1040.517
958.7563
889.6834
837.2756
774.0784
1174.821
1682.839
1981.694
2100.857
2086.716
1989.006
1853.608
1718.533
1612.002
1552.076
1547.422
1598.82
1701.016
1844.647
2018.06
2208.867
2405.205
2596.641
2774.753
2933.421
3068.874
3179.545
3265.796
3329.55
3373.874
3402.561
3419.717
3429.391
3435.257
3440.366
3446.959
3456.366
3468.971
3484.247
3500.849
3516.763
3529.483
3536.217
3534.099
3520.4
3492.711
3449.106
3388.267
3309.562
3213.079
3099.623
2970.664
2828.256
2674.925
2513.54
2347.174
2178.967
2011.988
1849.11
1692.952
1545.594
1409.471
1282.839
1181.435
1034.233
807.5398
878.5443
1058.028
1282.715
1498.597
1670.317
1781.137
1829.654
1825.484
1784.824
1726.482
1668.742
1627.146
1613.17
1633.687
1691.047
1783.63
1906.677
2053.263
2215.276
2384.317
2552.457
2712.81
2859.919
2989.96
3100.783
3191.807
3263.824
3318.718
3359.141
3388.187
3409.06
3424.79
3437.978
3450.62
3463.974
3478.512
3493.92
3509.169
3522.624
3532.194
3535.51
3530.107
3513.608
3483.898
3439.264
3378.517
3301.063
3206.949
3096.862
2972.089
2834.456
2686.234
2530.013
2368.67
2204.81
2042.629
1878.871
1742.949
1515.755
844.3006
806.7187
793.9873
828.9077
915.3966
1042.58
1191.62
1341.904
1475.6
1580.38
1650.43
1686.174
1693.133
1680.331
1658.563
1638.787
1630.789
1642.237
1678.136
1740.654
1829.275
1941.194
2071.858
2215.59
2366.216
2517.632
2664.287
2801.542
2925.907
3035.142
3128.254
3205.389
3267.647
3316.851
3355.283
3385.419
3409.676
3430.193
3448.652
3466.161
3483.18
3499.513
3514.352
3526.357
3533.781
3534.615
3526.746
3508.118
3476.883
3431.533
3371.004
3294.754
3202.808
3095.739
2974.776
2841.137
2698.696
2541.834
2407.715
2150.297
867.639
856.1584
832.94
806.6115
790.5165
796.9136
833.1804
900.3511
993.5688
1103.78
1219.945
1331.175
1428.456
1505.783
1560.665
1594.055
1609.838
1614.006
1613.709
1616.295
1628.471
1655.642
1701.485
1767.755
1854.302
1959.273
2079.445
2210.631
2348.129
2487.147
2623.187
2752.352
2871.564
2978.693
3072.584
3153.012
3220.558
3276.44
3322.314
3360.056
3391.552
3418.511
3442.305
3463.855
3483.563
3501.288
3516.371
3527.699
3533.802
3532.971
3523.397
3503.301
3471.078
3425.383
3365.37
3290.121
3201.491
3092.132
2995.97
2778.54
874.2671
873.646
869.3486
858.1657
839.8414
817.8486
798.5243
789.2936
796.7225
824.9995
875.148
944.983
1029.662
1122.627
1216.718
1305.251
1382.907
1446.335
1494.423
1528.246
1550.763
1566.31
1579.999
1597.097
1622.45
1660.02
1712.56
1781.439
1866.621
1966.776
2079.491
2201.556
2329.285
2458.845
2586.552
2709.129
2823.897
2928.895
3022.932
3105.563
3177.017
3238.071
3289.895
3333.88
3371.469
3403.992
3432.536
3457.837
3480.215
3499.547
3515.279
3526.469
3531.877
3530.024
3519.439
3498.236
3466.445
3417.112
3372.493
3241.629
878.3636
877.9803
877.9643
877.1279
873.457
865.0899
851.3475
833.3857
814.2346
798.2598
790.2885
794.6686
814.4651
850.9312
903.3205
969.0375
1044.065
1123.576
1202.611
1276.728
1342.531
1398.021
1442.749
1477.773
1505.437
1529.041
1552.416
1579.498
1613.917
1658.66
1715.819
1786.452
1870.548
1967.089
2074.195
2189.332
2309.547
2431.72
2552.801
2670.02
2781.046
2884.097
2977.998
3062.177
3136.614
3201.757
3258.395
3307.53
3350.235
3387.519
3420.217
3448.891
3473.78
3494.743
3511.362
3522.601
3528.256
3523.938
3519.541
3474.508
879.3959
879.3471
879.36
879.6725
880.1068
879.8883
877.7532
872.3555
862.8172
849.1894
832.6758
815.5818
801.0184
792.4329
793.0651
805.435
830.9494
869.6875
920.3907
980.6433
1047.206
1116.441
1184.773
1249.107
1307.17
1357.732
1400.692
1437.034
1468.665
1498.171
1528.515
1562.724
1603.585
1653.394
1713.765
1785.513
1868.62
1962.272
2064.966
2174.655
2288.932
2405.224
2520.979
2633.833
2741.753
2843.124
2936.809
3022.155
3098.965
3167.428
3228.036
3281.472
3328.506
3369.863
3406.195
3437.789
3465.167
3487.172
3505.657
3517.573
876.9369
877.6019
878.0868
878.5145
879.0639
879.8576
880.7806
881.3461
880.7209
877.9136
872.0551
862.6912
850.0183
835.0056
819.373
805.4255
795.7716
792.976
799.2064
815.9312
843.7152
882.1402
929.8579
984.7614
1044.247
1105.527
1165.952
1223.299
1276.006
1323.31
1365.295
1402.856
1437.565
1471.491
1506.973
1546.385
1591.906
1645.328
1707.909
1780.278
1862.406
1953.626
2052.71
2157.98
2267.451
2378.974
2490.393
2599.679
2705.044
2805.019
2898.514
2984.821
3063.61
3134.865
3198.843
3255.954
3306.652
3352.046
3388.558
3438.692
873.4295
874.1341
874.8274
875.4967
876.144
876.8343
877.6886
878.7952
880.0932
881.2923
881.861
881.0908
878.2285
872.6517
864.0541
852.5994
839.0106
824.5697
811.0237
800.408
794.8134
796.1324
805.8241
824.7309
852.9732
889.9339
934.3332
984.3804
1037.981
1092.971
1147.353
1199.502
1248.325
1293.354
1334.774
1373.381
1410.484
1447.76
1487.081
1530.333
1579.242
1635.224
1699.269
1771.868
1852.979
1942.05
2038.067
2139.643
2245.12
2352.693
2460.527
2566.864
2670.12
2768.962
2862.318
2949.554
3029.732
3104.945
3164.869
3257.141
872.3556
872.2578
872.3287
872.5743
872.9577
873.4327
873.9882
874.6695
875.5574
876.7154
878.1271
879.6411
880.9393
881.5429
880.8633
878.2957
873.3412
865.7375
855.5727
843.3578
830.0416
816.9592
805.7197
798.0465
795.5916
799.7524
811.5129
831.3327
859.0973
894.1338
935.2895
981.0625
1029.766
1079.709
1129.369
1177.544
1223.461
1266.844
1307.926
1347.408
1386.384
1426.221
1468.431
1514.529
1565.893
1623.654
1688.598
1761.109
1841.145
1928.244
2021.566
2119.956
2222.024
2326.254
2431.023
2535.014
2635.902
2736.403
2818.362
2956.072
875.9109
874.695
873.6888
872.9616
872.5388
872.4053
872.5183
872.8342
873.3325
874.0235
874.9408
876.1191
877.56
879.1936
880.8447
882.2144
882.8876
882.3703
880.1582
875.8261
869.1261
860.0758
849.0209
836.658
824.0104
812.3568
803.1219
797.7399
797.5118
803.4718
816.2815
836.1647
862.8888
895.7958
933.8774
975.8844
1020.458
1066.271
1112.153
1157.206
1200.885
1243.037
1283.908
1324.109
1364.551
1406.356
1450.75
1498.955
1552.081
1611.036
1676.45
1748.63
1827.532
1912.788
2003.637
2099.386
2197.709
2302.303
2390.274
2553.06
882.5001
880.4827
878.1307
875.5354
872.8603
870.2963
868.0183
866.1594
864.8055
864.0015
863.7634
864.0899
864.9692
866.3791
868.277
870.5824
873.1541
875.7697
878.1153
879.7928
880.3492
879.3276
876.3351
871.1178
863.631
854.0931
843.0105
831.1699
819.5943
809.467
802.0316
798.4811
799.8478
806.9073
820.1089
839.5387
864.9201
895.6501
930.8671
969.5425
1010.586
1052.953
1095.742
1138.282
1180.185
1221.375
1262.094
1302.867
1344.451
1387.765
1433.805
1483.56
1537.926
1597.647
1663.173
1735.018
1811.984
1898.763
1973.354
2125.754
890.2509
895.0046
901.7183
908.4594
913.7908
916.9252
917.621
916.0263
912.5339
907.6611
901.9584
895.9482
890.0874
884.7476
880.2096
876.6651
874.2197
872.8938
872.619
873.233
874.4751
875.9898
877.3413
878.0441
877.608
875.5949
871.6814
865.7176
857.7742
848.1697
837.4716
826.4702
816.1262
807.4971
801.6502
799.5724
802.086
809.7798
822.9635
841.6486
865.5586
894.1656
926.7499
962.4749
1000.471
1039.92
1080.13
1120.594
1161.04
1201.441
1242.022
1283.227
1325.681
1370.146
1417.375
1468.407
1522.952
1585.885
1639.709
1758.667
827.667
737.2936
686.3771
667.4305
671.7315
691.3403
719.6599
751.5402
783.2097
812.1234
836.769
856.457
871.1178
881.1166
887.0933
889.8323
890.1627
888.8846
886.7178
884.2666
881.9962
880.2174
879.0782
878.5645
878.5103
878.6198
878.5031
877.7236
875.8538
872.5352
867.536
860.798
852.4691
842.9143
832.7051
822.5858
813.4211
806.13
801.6131
800.6796
803.9846
811.9786
824.879
842.6609
865.0721
891.6668
921.8563
954.97
990.3214
1027.273
1065.296
1104.013
1143.229
1182.961
1223.357
1264.998
1307.548
1355.06
1394.28
1481.694
3115.164
2591.095
2135.067
1752.903
1444.197
1204.449
1026.486
901.5947
820.4591
773.8814
753.3118
751.1941
761.1517
778.0481
797.9506
818.0268
836.3991
851.9789
864.2986
873.3519
879.4495
883.0941
884.8754
885.3836
885.142
884.5581
883.8927
883.2477
882.5722
881.6857
880.3162
878.1496
874.8842
870.2859
864.2373
856.7746
848.1091
838.63
828.8884
819.5635
811.4153
805.2289
801.7548
801.6528
805.4445
813.4781
825.9098
842.702
863.6385
888.3548
916.3794
947.184
980.2311
1015.042
1051.168
1088.51
1126.217
1167.135
1200.285
1270.187
3438.843
3409.342
3264.828
3034.723
2751.699
2444.903
2137.962
1848.583
1588.842
1365.822
1182.44
1038.353
930.8501
855.6664
807.6869
781.5173
771.921
774.1238
784.0051
798.1912
814.0716
829.7607
844.019
856.1514
865.8939
873.2977
878.6191
882.2195
884.4814
885.7427
886.2518
886.1441
885.4392
884.0568
881.8475
878.6335
874.2543
868.6109
861.7036
853.6592
844.7436
835.3601
826.0314
817.3699
810.0371
804.6987
801.9776
802.4117
806.4189
814.2727
826.0911
841.8393
861.3401
884.3153
910.359
939.2084
969.8709
1004.284
1032.924
1092.624
3399.842
3439.626
3470.144
3465.161
3408.696
3295.649
3129.596
2920.011
2679.693
2422.603
2162.196
1910.266
1676.268
1467.017
1286.701
1137.104
1017.976
927.4762
862.6367
819.7958
794.9858
784.2487
783.8791
790.5918
801.6214
814.7633
828.366
841.2856
852.8161
862.6024
870.5484
876.7278
881.3033
884.4606
886.361
887.1116
886.7561
885.2814
882.6376
878.7669
873.6361
867.2681
859.7683
851.3411
842.2968
833.0455
824.0805
815.9528
809.238
804.5014
802.2621
802.9628
806.9419
814.4283
825.4922
840.2133
858.0421
880.4632
900.2252
945.4541
3378.058
3385.974
3407.132
3437.835
3467.949
3484.674
3475.876
3432.312
3348.802
3224.514
3062.563
2869.192
2652.749
2422.655
2188.444
1958.983
1741.891
1543.172
1367.057
1216.005
1090.85
991.0325
914.885
859.9443
823.2507
801.6211
791.8803
791.0431
796.4436
805.8145
817.3212
829.5569
841.5084
852.5009
862.1309
870.1962
876.6288
881.4381
884.6664
886.3595
886.5519
885.2664
882.5232
878.3562
872.8335
866.0756
858.2708
849.6836
840.6556
831.5972
822.973
815.2799
809.0209
804.6841
802.69
803.4708
807.0575
814.659
822.2107
846.2742
3362.458
3363.115
3365.842
3374.648
3391.941
3417.064
3446.084
3472.454
3488.185
3485.185
3456.483
3397.114
3304.633
3179.258
3023.702
2842.756
2642.723
2430.787
2214.387
2000.657
1795.978
1605.645
1433.679
1282.752
1154.227
1048.276
964.0644
899.9645
853.7867
823.0022
804.9445
796.9813
796.6476
801.74
810.372
820.9963
832.3975
843.6634
854.1433
863.3981
871.1509
877.2413
881.5881
884.1625
884.9703
884.0457
881.4514
877.2846
871.6852
864.8442
857.009
848.485
839.6315
830.8553
822.5823
815.2965
809.3138
805.4967
802.7045
806.0031
3342.788
3344.996
3346.226
3347.271
3350.02
3356.817
3369.595
3389.061
3414.132
3441.812
3467.463
3485.379
3489.491
3474.103
3434.546
3367.675
3272.166
3148.606
2999.385
2828.434
2640.856
2442.483
2239.436
2037.703
1842.779
1659.388
1491.294
1341.202
1210.748
1100.553
1010.339
939.0818
885.185
846.6571
821.2827
806.7744
800.8987
801.5729
806.9315
815.3641
825.5288
836.3452
846.9734
856.7839
865.3239
872.2845
877.4705
880.7771
882.1719
881.6835
879.3953
875.4424
870.0111
863.3381
855.7049
847.4513
838.9076
830.5036
822.963
813.4108
3322.249
3324.804
3327.12
3328.874
3330.014
3331.024
3333.001
3337.506
3346.163
3360.15
3379.749
3404.045
3430.827
3456.695
3477.341
3487.974
3483.796
3460.494
3414.658
3344.111
3248.098
3127.348
2983.993
2821.381
2643.809
2456.2
2263.762
2071.66
1884.728
1707.227
1542.672
1393.729
1262.176
1148.925
1054.089
977.0927
916.8025
871.6667
839.8571
819.4005
808.2931
804.5942
806.4973
812.378
820.8221
830.6349
840.8378
850.6547
859.4921
866.9176
872.6374
876.4761
878.3601
878.3004
876.3885
872.7636
867.6908
861.1638
854.8361
842.4057
3304.325
3306.09
3308.005
3309.961
3311.741
3313.113
3313.977
3314.558
3315.514
3317.895
3322.973
3331.967
3345.743
3364.522
3387.67
3413.589
3439.742
3462.799
3478.89
3483.934
3473.998
3445.647
3396.246
3324.195
3229.059
3111.608
2973.759
2818.428
2649.33
2470.721
2287.137
2103.123
1922.997
1750.64
1589.347
1441.716
1309.601
1194.109
1095.641
1013.965
948.3153
897.5002
860.0209
834.1818
818.1938
810.2622
808.6589
811.7768
818.1674
826.5638
835.8898
845.2603
853.9734
861.4957
867.4577
871.5906
873.8889
873.9253
873.3063
866.6466
3290.15
3291.063
3292.514
3294.531
3296.998
3299.692
3302.303
3304.5
3306.059
3306.987
3307.606
3308.574
3310.825
3315.445
3323.475
3335.706
3352.454
3373.396
3397.452
3422.767
3446.779
3466.367
3478.074
3478.375
3463.955
3431.981
3380.332
3307.77
3214.045
3099.914
2967.102
2818.181
2656.407
2485.521
2309.529
2132.487
1958.294
1790.517
1632.251
1486.018
1353.71
1236.572
1135.219
1049.689
979.5088
923.7864
881.3009
850.6
830.0898
818.1182
813.0452
813.3009
817.4303
824.1252
832.2472
840.8146
849.1068
856.3092
862.4078
867.1425
3281.304
3274.859
3266.848
3259.102
3252.961
3249.176
3247.979
3249.178
3252.286
3256.665
3261.67
3266.782
3271.722
3276.514
3281.506
3287.325
3294.785
3304.739
3317.91
3334.715
3355.108
3378.459
3403.506
3428.358
3450.577
3467.324
3475.544
3472.189
3454.444
3419.941
3366.942
3294.474
3202.409
3091.481
2963.248
2820.002
2664.632
2500.464
2331.078
2160.129
1991.17
1827.501
1672.041
1527.234
1394.985
1276.637
1172.97
1084.232
1010.19
950.1997
903.2763
868.1803
843.4945
827.7046
819.2562
816.6487
818.3686
823.3833
829.1527
840.9676
3338.465
3415.499
3457.238
3470.44
3462.981
3442.079
3413.771
3382.791
3352.586
3325.43
3302.594
3284.554
3271.204
3262.083
3256.574
3254.078
3254.141
3256.539
3261.29
3268.621
3278.88
3292.417
3309.442
3329.889
3353.295
3378.726
3404.74
3429.416
3450.428
3465.173
3470.925
3465.022
3445.045
3408.991
3355.419
3283.559
3193.372
3085.565
2961.56
2823.42
2673.735
2515.494
2351.929
2186.362
2022.059
1862.092
1709.224
1565.822
1433.793
1314.546
1208.988
1117.539
1040.162
976.42
925.5235
886.4541
857.8321
838.6663
826.3694
821.64
1314.145
1780.964
2189.226
2532.144
2808.839
3022.594
3179.542
3287.531
3355.177
3391.1
3403.364
3399.098
3384.29
3363.718
3340.984
3318.641
3298.359
3281.135
3267.49
3257.66
3251.744
3249.805
3251.929
3258.216
3268.747
3283.504
3302.284
3324.609
3349.656
3376.212
3402.665
3427.044
3447.09
3460.366
3464.393
3456.795
3435.454
3398.642
3345.141
3274.33
3186.23
3081.519
2961.501
2828.049
2683.508
2530.585
2372.225
2211.475
2051.355
1894.743
1744.267
1602.219
1470.498
1350.562
1243.42
1149.613
1069.377
1001.735
950.344
890.2441
977.7548
923.3344
1004.725
1189.546
1441.423
1727.735
2021.87
2303.696
2559.251
2780.057
2962.224
3105.457
3212.088
3286.183
3332.778
3357.252
3364.857
3360.393
3348.019
3331.17
3312.572
3294.31
3277.934
3264.569
3255.028
3249.887
3249.537
3254.202
3263.924
3278.534
3297.6
3320.393
3345.849
3372.561
3398.799
3422.555
3441.618
3453.673
3456.42
3447.698
3425.606
3388.618
3335.678
3266.264
3180.433
3078.824
2962.637
2833.579
2693.787
2545.733
2392.117
2235.753
2079.454
1925.923
1777.695
1636.856
1505.939
1383.329
1284.942
1140.876
2969.214
2485.207
2066.521
1741.686
1524.815
1416.832
1408.616
1484.453
1625.114
1810.41
2021.129
2240.362
2454.273
2652.415
2827.69
2976.063
3096.104
3188.448
3255.242
3299.619
3325.241
3335.935
3335.414
3327.093
3313.992
3298.685
3283.315
3269.613
3258.944
3252.341
3250.529
3253.934
3262.687
3276.603
3295.174
3317.553
3342.557
3368.681
3394.141
3416.924
3434.873
3445.777
3447.476
3437.968
3415.516
3378.739
3326.692
3258.92
3175.488
3076.992
2964.53
2839.661
2704.346
2560.836
2411.687
2259.223
2107.354
1952.849
1824.21
1606.366
3226.247
3202.713
3067.034
2847.677
2581.732
2305.71
2050.85
1840.777
1690.687
1607.628
1591.549
1636.805
1733.819
1870.701
2034.696
2213.373
2395.517
2571.717
2734.673
2879.275
3002.482
3103.085
3181.385
3238.842
3277.73
3300.823
3311.133
3311.698
3305.43
3295.014
3282.84
3270.966
3261.103
3254.605
3252.462
3255.299
3263.368
3276.542
3294.324
3315.845
3339.896
3364.951
3389.231
3410.759
3427.446
3437.181
3437.922
3427.799
3405.198
3368.848
3317.88
3251.877
3170.906
3075.486
2966.711
2845.617
2715.697
2571.618
2447.884
2208.134
3158.693
3201.809
3235.54
3233.419
3179.135
3068.472
2907.657
2710.408
2494.693
2279.67
2083.158
1919.835
1800.184
1730.079
1710.933
1740.244
1812.396
1919.601
2052.844
2202.751
2360.323
2517.495
2667.517
2805.158
2926.757
3030.156
3114.546
3180.25
3228.492
3261.157
3280.565
3289.277
3289.932
3285.108
3277.225
3268.462
3260.702
3255.484
3253.976
3256.951
3264.777
3277.409
3294.402
3314.927
3337.801
3361.539
3384.407
3404.498
3419.808
3428.328
3428.127
3417.447
3394.782
3358.922
3309.149
3244.665
3167.236
3070.114
2984.271
2787.312
3119.275
3124.967
3142.309
3168.857
3195.144
3208.444
3196.519
3150.408
3066.056
2944.789
2792.808
2620.026
2438.608
2261.432
2100.691
1966.766
1867.441
1807.491
1788.608
1809.624
1866.941
1955.109
2067.455
2196.71
2335.579
2477.218
2615.592
2745.717
2863.787
2967.201
3054.512
3125.311
3180.078
3220.009
3246.84
3262.67
3269.812
3270.643
3267.487
3262.513
3257.647
3254.51
3254.367
3258.087
3266.126
3278.519
3294.891
3314.475
3336.157
3358.517
3379.903
3398.494
3412.39
3419.668
3418.582
3407.147
3385.284
3346.506
3311.047
3197.819
3157.117
3223.565
3263.181
3285.467
3299.145
3309.169
3316.065
3316.56
3304.996
3275.072
3221.445
3140.941
3033.249
2901.108
2750.036
2587.715
2423.146
2265.74
2124.426
2006.901
1919.067
1864.694
1845.301
1860.247
1906.978
1981.4
2078.315
2191.875
2316.024
2444.886
2573.083
2695.976
2809.816
2911.822
3000.191
3074.05
3133.361
3178.807
3211.65
3233.588
3246.607
3252.849
3254.48
3253.578
3252.036
3251.481
3253.21
3258.142
3266.796
3279.273
3295.268
3314.089
3334.705
3355.773
3375.778
3392.814
3405.801
3410.283
3413.825
3384.164
1430.627
1821.64
2161.462
2446.535
2678.975
2864.378
3009.885
3122.448
3207.537
3268.503
3306.575
3321.321
3311.392
3275.373
3212.575
3123.643
3010.917
2878.513
2732.142
2578.726
2425.863
2281.24
2152.043
2044.453
1963.243
1911.527
1890.663
1900.286
1938.473
2001.998
2086.651
2187.578
2299.632
2417.689
2536.927
2653.048
2762.44
2862.278
2950.567
3026.138
3088.596
3138.24
3175.956
3203.097
3221.352
3232.619
3238.88
3242.08
3244.029
3246.312
3250.217
3256.68
3266.257
3279.096
3294.977
3313.228
3333.049
3352.911
3371.23
3391.961
1224.002
1233.95
1331.933
1495.575
1700.206
1924.281
2150.999
2368.452
2568.972
2748.1
2903.497
3033.975
3138.772
3217.138
3268.207
3291.113
3285.264
3250.69
3188.363
3100.441
2990.366
2862.822
2723.534
2578.961
2435.891
2301.018
2180.514
2079.662
2002.563
1951.948
1929.092
1933.838
1964.709
2019.096
2093.502
2183.807
2285.556
2394.22
2505.44
2615.235
2720.157
2817.407
2904.896
2981.267
3045.873
3098.724
3140.404
3171.973
3194.852
3210.704
3221.318
3228.487
3233.913
3239.106
3245.32
3253.498
3264.073
3278.056
3291.289
3320.913
1293.452
1252.02
1216.931
1208.403
1238.786
1312.111
1425.895
1573.443
1745.916
1933.907
2128.512
2321.913
2507.578
2680.191
2835.464
2969.9
3080.616
3165.249
3221.962
3249.548
3247.571
3216.533
3158.001
3074.668
2970.332
2849.772
2718.54
2582.675
2448.383
2321.683
2208.087
2112.306
2038.023
1987.746
1962.735
1963.016
1987.461
2033.938
2099.497
2180.594
2273.319
2373.631
2477.566
2581.43
2681.948
2776.384
2862.614
2939.163
3005.201
3060.517
3105.449
3140.805
3167.766
3187.772
3202.418
3213.358
3222.028
3230.562
3237.056
3254.813
1335.872
1322.674
1298.295
1265.602
1232.416
1208.596
1203.461
1224.125
1274.714
1356.244
1466.995
1603.135
1759.419
1929.828
2108.088
2288.046
2463.901
2630.325
2782.52
2916.251
3027.883
3114.443
3173.707
3204.312
3205.855
3178.987
3125.448
3048.056
2950.618
2837.778
2714.81
2587.349
2461.116
2341.624
2233.903
2142.269
2070.129
2019.858
1992.739
1988.964
2007.698
2047.193
2104.947
2177.881
2262.54
2355.293
2452.522
2550.796
2647.013
2738.523
2823.202
2899.502
2966.463
3023.697
3071.332
3109.979
3140.495
3164.595
3181.453
3202.84
1359.81
1355.208
1348.322
1336.01
1316.352
1289.806
1259.353
1229.956
1207.675
1198.673
1208.34
1240.682
1297.983
1380.717
1487.67
1616.187
1762.49
1922.009
2089.684
2260.226
2428.329
2588.84
2736.909
2868.121
2978.622
3065.255
3125.677
3158.475
3163.254
3140.682
3092.499
3021.457
2931.219
2826.192
2711.322
2591.858
2473.099
2360.141
2257.64
2169.611
2099.265
2048.894
2019.818
2012.383
2026.001
2059.253
2110.007
2175.583
2252.913
2338.725
2429.709
2522.68
2614.708
2703.244
2786.172
2861.97
2929.301
2988.863
3034.83
3095.565
1380.755
1375.697
1371.275
1366.815
1360.739
1351.115
1336.344
1315.779
1290.139
1261.606
1233.61
1210.423
1196.651
1196.708
1214.371
1252.428
1312.471
1394.812
1498.518
1621.519
1760.777
1912.479
2072.241
2235.313
2396.763
2551.675
2695.319
2823.327
2931.861
3017.767
3078.707
3113.277
3121.075
3102.735
3059.914
2995.222
2912.105
2814.691
2707.593
2595.691
2483.906
2376.977
2279.248
2194.494
2125.768
2075.309
2044.477
2033.753
2042.768
2070.381
2114.786
2173.646
2244.233
2323.607
2408.698
2496.713
2584.222
2671.69
2743.988
2858.964
1406.77
1399.842
1393.453
1387.87
1383.061
1378.537
1373.321
1366.074
1355.413
1340.289
1320.331
1296.08
1269.065
1241.738
1217.273
1199.282
1191.472
1197.314
1219.745
1260.933
1322.123
1403.553
1504.445
1623.053
1756.762
1902.213
2055.454
2212.114
2367.578
2517.178
2656.377
2780.957
2887.194
2972.025
3033.174
3069.267
3079.893
3065.628
3028.01
2969.47
2893.217
2803.089
2703.372
2598.601
2493.354
2392.053
2298.773
2217.08
2149.9
2099.424
2067.054
2053.39
2058.25
2080.754
2119.322
2172.154
2235.848
2311.962
2379.553
2513.949
1438.688
1430.053
1421.578
1413.437
1405.852
1399.028
1393.044
1387.706
1382.461
1376.426
1368.522
1357.68
1343.075
1324.354
1301.801
1276.435
1250.004
1224.893
1203.961
1190.313
1187.066
1197.101
1222.845
1266.093
1327.876
1408.376
1506.903
1621.906
1751.034
1891.228
2038.851
2189.83
2339.831
2484.437
2619.333
2740.494
2844.36
2927.991
2989.201
3026.658
3039.937
3029.547
2996.894
2944.222
2874.498
2791.275
2698.529
2600.472
2501.37
2405.358
2316.269
2237.487
2171.82
2121.431
2087.707
2071.562
2072.083
2092.337
2115.872
2200.813
1478.715
1470.73
1463.839
1457.35
1450.76
1443.836
1436.6
1429.24
1421.968
1414.889
1407.889
1400.599
1392.408
1382.547
1370.228
1354.8
1335.923
1313.7
1288.781
1262.393
1236.312
1212.777
1194.352
1183.757
1183.676
1196.575
1224.522
1269.043
1330.999
1410.513
1506.925
1618.796
1743.948
1879.536
2022.161
2168.003
2312.979
2452.916
2583.73
2701.602
2803.15
2885.575
2946.789
2985.502
3001.278
2994.553
2966.602
2919.482
2855.924
2779.214
2693.031
2601.29
2507.968
2416.944
2331.809
2255.869
2191.471
2141.992
2105.172
2088.837
1499.342
1453.859
1423.723
1406.082
1397.61
1395.277
1396.591
1399.655
1403.151
1406.248
1408.484
1409.621
1409.515
1408.002
1404.827
1399.619
1391.917
1381.244
1367.203
1349.594
1328.523
1304.487
1278.425
1251.727
1226.201
1203.989
1187.459
1179.068
1181.209
1196.058
1225.431
1270.651
1332.445
1410.87
1505.271
1614.274
1735.819
1867.226
2005.289
2146.405
2286.722
2422.299
2549.274
2664.038
2763.387
2844.663
2905.875
2945.775
2963.916
2960.66
2937.155
2895.276
2837.534
2766.954
2686.958
2601.11
2513.487
2425.802
2351.43
2242.887
2413.962
2199.141
2011.677
1853.636
1724.649
1622.783
1545.101
1488.121
1448.184
1421.746
1405.579
1396.882
1393.325
1393.031
1394.507
1396.569
1398.247
1398.713
1397.235
1393.154
1385.906
1375.062
1360.389
1341.918
1320.005
1295.371
1269.126
1242.752
1218.066
1197.139