/*--------------------------------*- C++ -*----------------------------------*\
| =========                 |                                                 |
| \\      /  F ield         | OpenFOAM: The Open Source CFD Toolbox           |
|  \\    /   O peration     | Version:  2312                                  |
|   \\  /    A nd           | Website:  www.openfoam.com                      |
|    \\/     M anipulation  |                                                 |
\*---------------------------------------------------------------------------*/
FoamFile
{
    version     2.0;
    format      ascii;
    arch        "LSB;label=32;scalar=64";
    class       volScalarField;
    location    "4500";
    object      ILambda_7_0;
}
// * * * * * * * * * * * * * * * * * * * * * * * * * * * * * * * * * * * * * //

dimensions      [1 0 -3 0 0 0 0];

internalField   nonuniform List<scalar> 
12000
(
3418.742
3456.493
3443.743
3226.706
2744.364
2126.045
1565.084
1168.063
932.012
806.5343
756.6849
796.0996
979.2659
1349.789
1879.113
2450.794
2910.826
3149.225
3153.593
2998.957
2787.919
2588.8
2412.392
2233.039
2028.818
1809.115
1613.99
1491.678
1472.387
1554.008
1704.65
1877.074
2026.112
2121.722
2154.318
2132.703
2077.162
2010.986
1953.275
1914.84
1897.618
1896.928
1905.12
1915.069
1922.347
1925.65
1925.815
1924.278
1921.842
1918.274
1912.713
1904.446
1893.535
1880.973
1868.366
1857.351
1849.062
1843.764
1841.229
1839.692
3453.342
3474.215
3330.409
2867.244
2195.538
1572.802
1150.623
918.5952
801.7083
749.5535
770.4358
923.7323
1270.767
1803.792
2411.929
2924.611
3204.798
3221.461
3050.889
2813.394
2597.143
2421.472
2254.71
2061.347
1839.974
1629.141
1484.394
1446.594
1521.41
1678.442
1866.103
2032.111
2140.114
2177.365
2153.148
2090.79
2017.344
1954.72
1914.72
1898.598
1900.135
1910.234
1921.005
1928.029
1930.51
1929.916
1928.125
1926.056
1923.287
1918.587
1910.88
1900.033
1887.073
1873.803
1862.114
1853.317
1847.832
1845.128
1844.452
1843.857
3464.264
3440.667
3138.957
2522.904
1849.136
1344.82
1044.109
878.0386
786.6932
759.1831
835.9139
1083.106
1531.642
2118.513
2691.821
3088.149
3223.582
3130.104
2917.043
2693.516
2509.448
2349.879
2173.91
1961.607
1735.774
1549.876
1456.648
1479.788
1603.724
1782.915
1962.129
2096.48
2163.377
2164.15
2117.603
2049.829
1984.561
1936.937
1911.745
1905.494
1910.52
1919.117
1926.188
1929.924
1930.9
1930.5
1929.577
1927.89
1924.377
1917.928
1908.155
1895.759
1882.341
1869.808
1859.708
1852.787
1848.921
1847.249
1847.002
1846.199
3464.357
3347.687
2835.488
2113.701
1511.993
1139.809
933.0105
815.8908
758.9356
781.9131
946.1536
1310.374
1859.373
2471.646
2970.159
3222.265
3210.185
3022.989
2785.393
2580.461
2417.635
2257.14
2061.507
1833.497
1618.376
1476.537
1449.092
1537.473
1705.085
1895.564
2055.677
2152.156
2177.48
2145.567
2081.793
2012.295
1956.14
1921.981
1908.965
1910.402
1918.162
1926.017
1931.032
1933.094
1933.422
1933.061
1932.06
1929.522
1924.265
1915.613
1903.91
1890.506
1877.297
1866.043
1857.828
1852.822
1850.453
1849.649
1849.717
1848.712
3452.322
3146.053
2426.405
1721.109
1268.441
1016.119
867.3638
781.5497
761.125
851.0254
1121.792
1601.785
2214.017
2789.973
3160.704
3253.305
3119.632
2884.305
2659.025
2485.019
2335.057
2160.559
1942.263
1709.934
1524.735
1442.736
1484.793
1628.185
1819.892
2000.577
2126.214
2179.01
2166.289
2111.264
2041.412
1979.096
1936.685
1916.303
1912.854
1918.394
1925.945
1931.559
1934.385
1935.371
1935.651
1935.475
1934.054
1930.124
1922.761
1911.982
1898.875
1885.251
1873.008
1863.517
1857.281
1853.942
1852.634
1852.253
1852.324
1850.976
3402.252
2791.39
1969.191
1413.342
1113.764
930.64
814.3809
761.2134
792.7157
973.3345
1365.198
1943.183
2566.97
3048.397
3261.034
3206.133
2991.269
2748.022
2553.165
2403.436
2248.77
2049.347
1813.381
1594.65
1459.289
1447.981
1556.109
1738.993
1934.428
2088.24
2171.029
2181.554
2139.249
2072.01
2005.131
1954.731
1926.251
1916.746
1919.014
1925.652
1931.704
1935.364
1937.079
1937.966
1938.509
1938.109
1935.481
1929.476
1919.786
1907.21
1893.415
1880.363
1869.673
1862.168
1857.775
1855.744
1855.09
1854.827
1854.764
1853.113
3233.851
2284.817
1570.5
1225.928
1014.31
860.4935
777.166
766.8794
868.7771
1161.904
1674.097
2309.88
2882.125
3220.486
3268.113
3098.01
2847.535
2626.995
2466.208
2325.533
2150.395
1924.209
1684.956
1501.606
1432.655
1494.734
1656.925
1858.651
2037.422
2151.493
2188.999
2163.597
2102.388
2033.167
1975.798
1939.213
1922.923
1920.897
1925.736
1931.717
1936.055
1938.499
1939.962
1941.104
1941.585
1940.204
1935.635
1927.228
1915.445
1901.75
1888.109
1876.332
1867.554
1862.009
1859.149
1858.002
1857.635
1857.275
1857.034
1855.156
2815.047
1738.878
1337.116
1124.529
924.6637
802.211
763.7019
806.2057
1000.973
1422.233
2032.593
2666.885
3125.904
3294.432
3196.141
2956.534
2711.385
2528.723
2391.696
2240.749
2035.293
1790.346
1568.768
1442.032
1449.203
1578.264
1775.751
1974.032
2119.224
2187.021
2182.963
2131.652
2062.67
1999.633
1955.235
1931.721
1924.518
1926.573
1931.724
1936.374
1939.505
1941.615
1943.357
1944.613
1944.358
1941.206
1934.216
1923.471
1910.162
1896.178
1883.465
1873.442
1866.668
1862.845
1861.111
1860.447
1860.101
1859.551
1859.178
1857.165
2029.915
1405.631
1271.969
1022.144
834.0537
772.2814
779.5624
888.0168
1202.285
1750.877
2411.626
2975.256
3274.379
3273.988
3069.58
2808.607
2596.737
2450.578
2318.121
2140.156
1904.418
1658.175
1478.29
1424.766
1508.57
1689.469
1899.272
2073.393
2173.835
2195.586
2158.551
2092.904
2025.821
1974.111
1943.179
1930.195
1928.652
1932.161
1936.528
1940.08
1942.827
1945.234
1947.257
1948.029
1946.206
1940.666
1931.15
1918.514
1904.476
1891.037
1879.853
1871.804
1866.889
1864.417
1863.39
1862.891
1862.421
1861.685
1861.274
1859.172
1101.042
1500.821
1193.073
874.0314
780.428
778.7226
823.4731
1026.415
1481.622
2128.852
2771.065
3200.315
3319.301
3177.932
2918.017
2675.67
2507.627
2382.965
2233.614
2019.847
1764.942
1541.457
1425.69
1453.687
1604.544
1815.397
2013.856
2147.848
2199.515
2181.542
2122.99
2053.996
1995.716
1957.271
1938.037
1932.276
1933.463
1936.901
1940.392
1943.547
1946.603
1949.449
1951.257
1950.71
1946.593
1938.399
1926.665
1912.869
1898.967
1886.776
1877.468
1871.357
1867.986
1866.442
1865.759
1865.223
1864.595
1863.743
1863.392
1861.171
1757.011
1425.938
897.8699
772.0871
792.5392
803.0566
902.4847
1241.617
1834.332
2520.198
3068.313
3320.842
3270.315
3035.118
2768.984
2569.342
2438.469
2312.642
2129.404
1882.375
1629.237
1454.787
1419.392
1526.646
1725.85
1941.366
2107.876
2192.776
2198.783
2151.706
2083.616
2019.954
1974.052
1948.104
1937.553
1935.877
1937.862
1940.786
1943.941
1947.421
1951.054
1953.956
1954.733
1952.052
1945.221
1934.529
1921.218
1907.128
1894.144
1883.672
1876.323
1871.907
1869.674
1868.665
1868.068
1867.413
1866.678
1865.801
1865.573
1863.114
2045.569
876.2705
736.9167
814.9885
818.1855
832.0043
1045.391
1546.316
2233.978
2878.473
3269.568
3334.493
3151.796
2876.903
2641.953
2490.23
2377.043
2227.003
2002.651
1736.933
1512.803
1410.741
1462.049
1635.278
1857.733
2053.32
2173.532
2208.279
2177.523
2113.827
2046.572
1993.62
1960.569
1944.597
1939.502
1939.605
1941.572
1944.318
1947.851
1952.039
1955.984
1958.162
1957.024
1951.646
1942.098
1929.439
1915.39
1901.845
1890.363
1881.814
1876.274
1873.188
1871.682
1870.9
1870.254
1869.498
1868.75
1867.921
1867.816
1864.918
663.6153
767.9978
874.9912
857.709
808.1332
903.3982
1284.215
1927.993
2635.369
3159.321
3358.572
3257.326
2995.795
2729.802
2545.299
2429.748
2308.725
2117.755
1857.737
1598.006
1431.387
1417.142
1549.45
1766.025
1984.37
2140.201
2207.97
2198.711
2143.506
2075.046
2015.926
1975.648
1953.653
1944.481
1942.211
1942.888
1944.927
1948.166
1952.559
1957.318
1960.855
1961.375
1957.622
1949.381
1937.523
1923.685
1909.77
1897.449
1887.794
1881.123
1877.082
1874.918
1873.793
1873.048
1872.33
1871.555
1870.885
1870.123
1870.064
1866.473
881.2118
906.8935
875.4579
812.5198
821.4106
1067.46
1621.284
2348.238
2987.619
3332.046
3339.583
3118.48
2834.095
2610.654
2476.506
2373.705
2220.616
1983.337
1706.028
1482.915
1397.783
1474.984
1670.688
1902.3
2091.637
2195.75
2213.348
2171.35
2104.656
2040.693
1993.402
1964.984
1951.1
1945.853
1944.811
1945.861
1948.553
1952.847
1958.103
1962.794
1964.961
1962.996
1956.296
1945.457
1932.005
1917.873
1904.851
1894.191
1886.425
1881.394
1878.468
1876.855
1875.871
1875.092
1874.36
1873.665
1873.124
1872.379
1872.218
1867.67
866.004
872.1415
840.4196
800.2409
912.0644
1335.095
2030.785
2756.221
3246.9
3386.213
3234.968
2952.387
2691.608
2524.796
2424.513
2306.336
2104.877
1830.022
1564.319
1408.554
1418.848
1577.501
1809.738
2027.442
2169.591
2219.254
2195.826
2134.573
2067.535
2013.706
1978.692
1959.633
1950.84
1947.542
1947.199
1949.07
1953.032
1958.523
1964.109
1967.769
1967.627
1962.675
1953.135
1940.322
1926.152
1912.546
1900.958
1892.132
1886.101
1882.363
1880.173
1878.831
1877.871
1877.083
1876.43
1875.889
1875.459
1874.609
1874.149
1868.413
877.695
873.3919
820.3284
824.0742
1092.181
1701.963
2471.329
3098.292
3385.92
3333.411
3078.546
2790.593
2582.316
2466.792
2373.182
2214.234
1961.234
1671.708
1452.016
1387.707
1493.317
1710.827
1948.328
2127.825
2214.033
2215.034
2163.767
2096.042
2036.398
1994.713
1970.168
1957.443
1951.42
1949.183
1949.802
1953.13
1958.642
1964.929
1969.909
1971.508
1968.385
1960.38
1948.509
1934.565
1920.544
1908.103
1898.23
1891.174
1886.58
1883.763
1882
1880.768
1879.818
1879.101
1878.614
1878.241
1877.829
1876.7
1875.721
1868.644
882.0589
854.2575
801.4666
915.5569
1386.657
2144.06
2884.408
3329.406
3401.541
3203.182
2906.316
2655.492
2508.296
2423.039
2305.368
2090.024
1798.368
1528.066
1387.137
1425.605
1611.207
1856.401
2069.5
2195.288
2226.671
2190.827
2125.681
2061.382
2013
1982.642
1965.719
1956.713
1952.184
1951.033
1953.235
1958.433
1965.245
1971.45
1974.725
1973.428
1967.075
1956.39
1942.975
1928.795
1915.646
1904.758
1896.632
1891.109
1887.598
1885.374
1883.837
1882.664
1881.785
1881.23
1880.947
1880.681
1880.129
1878.518
1876.815
1868.348
881.0304
828.2376
820.1155
1113.763
1791.992
2606.787
3209.39
3428.098
3314.916
3033.369
2748.03
2557.611
2461.237
2375.385
2207.191
1935.3
1633.51
1420.794
1381.798
1517.822
1755.35
1994.719
2160.913
2228.164
2213.873
2155.589
2088.517
2033.637
1997.037
1975.572
1963.451
1956.481
1953.176
1953.668
1957.99
1964.983
1972.311
1977.292
1977.872
1973.234
1963.865
1951.208
1937.152
1923.532
1911.746
1902.542
1895.999
1891.686
1888.922
1887.056
1885.656
1884.577
1883.858
1883.521
1883.41
1883.119
1882.227
1879.937
1877.351
1867.559
870.7652
805.3151
913.8204
1441.436
2271.99
3020.243
3403.258
3402.152
3162.827
2859.598
2622.524
2495.919
2425.169
2305.304
2072.188
1762.035
1489.652
1368.473
1438.516
1650.517
1904.956
2109.4
2216.862
2230.611
2184.473
2117.429
2056.732
2013.498
1986.967
1971.515
1962.104
1956.528
1954.871
1957.65
1964.219
1972.365
1979.059
1981.679
1978.913
1970.968
1959.191
1945.454
1931.609
1919.134
1908.943
1901.34
1896.1
1892.664
1890.386
1888.752
1887.496
1886.592
1886.102
1885.979
1885.933
1885.428
1883.985
1880.858
1877.297
1866.356
850.3884
813.334
1128.312
1893.825
2758.18
3318.223
3454.318
3283.847
2985.324
2708.058
2536.795
2459.614
2379.902
2198.629
1904.642
1591.484
1390.457
1381.399
1548.788
1803.326
2040.192
2190.255
2238.416
2210.605
2147.413
2082.255
2032.228
2000.022
1980.84
1968.94
1961.154
1957.174
1957.867
1963.28
1971.654
1979.847
1984.645
1984.034
1977.745
1966.972
1953.648
1939.73
1926.772
1915.773
1907.177
1900.948
1896.695
1893.859
1891.907
1890.479
1889.433
1888.781
1888.54
1888.55
1888.398
1887.468
1885.288
1881.225
1876.677
1864.845
824.4816
898.7638
1496.82
2422.06
3164.708
3462.358
3385.402
3116.48
2814.869
2593.17
2487.265
2430.537
2305.497
2050.452
1720.725
1449.994
1354.005
1458.232
1694.749
1954.071
2146.275
2234.43
2231.818
2177.419
2109.978
2053.367
2014.917
1991.485
1976.923
1966.989
1960.69
1958.99
1962.604
1970.469
1979.658
1986.55
1988.357
1984.095
1974.597
1961.803
1947.868
1934.529
1922.885
1913.446
1906.278
1901.134
1897.587
1895.164
1893.481
1892.303
1891.544
1891.184
1891.14
1891.134
1890.667
1889.108
1886.055
1881.033
1875.561
1863.152
810.2453
1123.765
2014.615
2933.739
3418.942
3457.863
3241.833
2938.592
2671.757
2519.019
2461.421
2386.429
2187.82
1868.693
1546.14
1362.367
1387.474
1585.89
1853.511
2083.703
2215.755
2245.471
2205.972
2139.474
2076.986
2031.798
2003.526
1986.057
1974.011
1965.448
1961.19
1962.529
1969.191
1978.72
1987.356
1991.642
1989.763
1981.951
1969.96
1956.103
1942.403
1930.17
1920.01
1912.024
1906.027
1901.693
1898.649
1896.555
1895.159
1894.303
1893.883
1893.788
1893.815
1893.594
1892.599
1890.247
1886.257
1880.326
1874.06
1861.4
850.8237
1546.238
2612.392
3317.898
3494.95
3349.388
3069.912
2774.894
2566.161
2481.227
2439.229
2305.762
2024.156
1674.429
1410.147
1344.879
1484.835
1742.889
2002.625
2179.801
2248.515
2231.04
2170.009
2103.119
2050.841
2017.007
1996.305
1982.219
1971.52
1964.607
1963.267
1968.108
1977.323
1987.215
1993.819
1994.51
1988.784
1977.999
1964.47
1950.479
1937.647
1926.783
1918.061
1911.305
1906.214
1902.479
1899.833
1898.066
1897.018
1896.539
1896.453
1896.523
1896.44
1895.788
1894.076
1890.829
1885.913
1879.187
1872.303
1859.698
1033.417
2173.786
3151.009
3496.048
3429.092
3195.132
2899.106
2638.217
2502.052
2466.741
2395.635
2174.331
1826.842
1497.932
1337.649
1400.519
1628.477
1904.826
2124.737
2237.728
2249.978
2200.345
2131.663
2072.327
2032.043
2007.552
1991.498
1978.964
1969.449
1965.065
1967.442
1975.667
1986.303
1994.969
1998.257
1994.882
1985.692
1972.849
1958.781
1945.403
1933.805
1924.332
1916.86
1911.08
1906.681
1903.427
1901.161
1899.769
1899.126
1899.034
1899.203
1899.276
1898.869
1897.582
1895.021
1890.851
1885.09
1877.729
1870.425
1858.131
1498.581
2893.219
3467.897
3476.266
3297.827
3033.932
2740.626
2537.874
2477.064
2452.677
2306.324
1992.194
1622.718
1370.961
1341.987
1518.184
1794.041
2049.966
2210.075
2259.622
2228.594
2162.161
2096.57
2048.945
2019.752
2001.59
1987.654
1975.886
1968.275
1967.51
1973.935
1984.703
1995.148
2001.028
2000.18
1992.867
1981.037
1967.184
1953.443
1941.159
1930.897
1922.667
1916.204
1911.181
1907.343
1904.539
1902.693
1901.735
1901.517
1901.753
1902.032
1901.903
1900.962
1898.881
1895.405
1890.356
1883.887
1876.072
1868.544
1856.754
2385.752
3421.962
3490.987
3360.784
3161.989
2872.051
2602.348
2483.315
2477.267
2408.749
2157.005
1777.711
1447.156
1317.533
1421.057
1676.004
1956.542
2163.157
2256.514
2252.182
2193.606
2123.72
2068.191
2033.083
2012.262
1997.261
1983.866
1973.215
1968.787
1972.466
1982.513
1994.306
2002.77
2004.667
1999.493
1988.918
1975.516
1961.633
1948.826
1937.831
1928.807
1921.593
1915.916
1911.509
1908.19
1905.868
1904.503
1904.009
1904.175
1904.611
1904.806
1904.258
1902.602
1899.632
1895.25
1889.427
1882.419
1874.332
1866.76
1855.592
3537.407
3445.155
3359.877
3262.053
3022.415
2705.226
2502.659
2476.082
2473.346
2306.634
1952.524
1565.097
1333.776
1346.578
1558.246
1847.467
2095.685
2237.23
2267.927
2224.33
2153.575
2090.273
2047.953
2023.475
2007.419
1993.088
1979.969
1971.731
1971.8
1980.039
1992.432
2003.311
2008.212
2005.551
1996.507
1983.717
1969.828
1956.661
1945.091
1935.346
1927.35
1920.927
1915.882
1912.037
1909.264
1907.487
1906.643
1906.592
1907.032
1907.483
1907.374
1906.211
1903.718
1899.834
1894.621
1888.172
1880.803
1872.608
1865.139
1854.647
3360.703
3349.325
3338.095
3174.688
2846.995
2553.583
2463.09
2496.88
2426.528
2133.639
1719.866
1394.817
1303.807
1449.666
1727.825
2007.963
2198.823
2272.199
2251.936
2185.436
2115.554
2064.907
2035.412
2017.88
2003.153
1988.359
1976.591
1972.499
1977.818
1989.747
2002.521
2010.543
2010.863
2003.798
1991.85
1978.018
1964.538
1952.517
1942.213
1933.53
1926.335
1920.541
1916.066
1912.803
1910.636
1909.456
1909.129
1909.429
1909.972
1910.22
1909.596
1907.669
1904.284
1899.533
1893.615
1886.705
1879.142
1870.973
1863.72
1853.905
3376.909
3375.347
3293.053
3012.93
2651.944
2459.815
2483.531
2503.845
2304.937
1902.709
1501.663
1300.499
1359.859
1604.664
1902.281
2139.355
2261.224
2273.285
2217.947
2144.151
2084.558
2048.434
2028.548
2013.696
1998.077
1983.379
1974.953
1976.44
1986.716
2000.509
2011.43
2015.097
2010.6
1999.936
1986.31
1972.487
1959.997
1949.238
1940.043
1932.19
1925.621
1920.383
1916.494
1913.874
1912.373
1911.8
1911.921
1912.42
1912.852
1912.674
1911.36
1908.584
1904.325
1898.811
1892.341
1885.134
1877.517
1869.471
1862.514
1853.345
3367.013
3354.195
3179.797
2805.902
2492.851
2446.948
2529.892
2448.489
2100.991
1651.92
1342.407
1298.287
1486.58
1783.106
2058.439
2231.542
2284.605
2248.94
2175.743
2107.53
2063.09
2039.461
2024.386
2008.77
1991.977
1979.38
1976.382
1983.876
1997.615
2010.865
2017.96
2016.565
2007.797
1994.752
1980.647
1967.586
1956.318
1946.706
1938.38
1931.165
1925.139
1920.472
1917.233
1915.325
1914.514
1914.497
1914.933
1915.427
1915.52
1914.718
1912.597
1908.958
1903.907
1897.773
1890.911
1883.548
1875.981
1868.122
1861.517
1852.945
3362.079
3310.017
3003.254
2587.627
2411.703
2503.594
2546.137
2298.12
1839.469
1432.849
1273.495
1383.02
1656.976
1957.686
2180.574
2281.786
2275.348
2209.328
2134.297
2080.138
2050.871
2034.929
2020
2002.177
1985.907
1978.028
1981.711
1994.253
2009.038
2019.345
2021.376
2015.107
2003.195
1989.083
1975.438
1963.523
1953.428
1944.725
1937.051
1930.369
1924.896
1920.872
1918.365
1917.206
1917.052
1917.476
1918.036
1918.297
1917.837
1916.263
1913.287
1908.84
1903.126
1896.528
1889.417
1882.007
1874.559
1866.93
1860.716
1852.695
3356.994
3204.511
2761.474
2413.926
2435.408
2581.903
2473.73
2053.948
1572.353
1292.559
1303.466
1532.05
1840.939
2107.221
2260.847
2293.303
2243.009
2164.934
2100.465
2063.343
2045.181
2031.24
2013.594
1994.565
1981.745
1980.694
1990.826
2006.193
2019.298
2024.872
2021.571
2011.362
1997.678
1983.624
1971.002
1960.284
1951.144
1943.104
1935.946
1929.792
1924.952
1921.669
1919.952
1919.528
1919.932
1920.621
1921.079
1920.881
1919.693
1917.265
1913.459
1908.314
1902.089
1895.177
1887.932
1880.547
1873.257
1865.885
1860.098
1852.59
3338.569
3008.113
2498.002
2351.194
2545.248
2604.441
2280.267
1758.203
1360.719
1256.742
1417.398
1714.192
2012.396
2218.546
2298.408
2273.898
2198.839
2124.881
2077.759
2055.307
2041.997
2025.637
2005.165
1987.836
1981.367
1987.804
2002.586
2017.878
2026.979
2027.016
2019.018
2006.223
1992.052
1978.815
1967.404
1957.712
1949.264
1941.712
1935.037
1929.489
1925.394
1922.937
1922.02
1922.254
1923.052
1923.784
1923.907
1923.052
1921.021
1917.731
1913.18
1907.481
1900.9
1893.798
1886.497
1879.177
1872.068
1864.98
1859.659
1852.64
3271.737
2709.402
2297.758
2435.58
2665.102
2498.282
1983.926
1481.055
1250.515
1322.251
1585.173
1899.342
2153.061
2286.203
2298.159
2234.51
2153.856
2095.186
2065.852
2052
2037.626
2017.231
1996.386
1984.27
1985.805
1998.594
2015.156
2027.589
2031.295
2026.021
2014.563
2000.578
1986.882
1974.819
1964.531
1955.605
1947.634
1940.498
1934.365
1929.546
1926.308
1924.719
1924.551
1925.296
1926.274
1926.806
1926.376
1924.722
1921.806
1917.711
1912.546
1906.45
1899.647
1892.444
1885.129
1877.892
1870.981
1864.216
1859.407
1852.858
3092.275
2355.228
2268.61
2630.051
2682.581
2238.886
1654.191
1290.927
1255.317
1462.702
1773.633
2064.615
2252.788
2311.202
2269.381
2187.26
2116.696
2077.692
2061.296
2048.963
2030.096
2007.166
1989.761
1985.516
1994.809
2011.358
2026.591
2034.174
2032.198
2022.617
2009.138
1995.114
1982.446
1971.59
1962.193
1953.787
1946.175
1939.485
1934.015
1930.057
1927.754
1927.017
1927.479
1928.531
1929.441
1929.535
1928.378
1925.848
1922.079
1917.293
1911.665
1905.314
1898.391
1891.137
1883.824
1876.681
1869.993
1863.602
1859.356
1853.261
2713.327
2092.77
2473.764
2802.702
2508.195
1878.078
1382.319
1224.179
1355.916
1642.837
1955.871
2195.533
2308.077
2299.732
2224.076
2143.153
2091.962
2070.281
2059.235
2043.042
2019.704
1997.918
1987.508
1991.951
2006.959
2024.032
2035.39
2037.244
2030.232
2017.728
2003.53
1990.235
1978.788
1968.97
1960.205
1952.152
1944.886
1938.746
1934.085
1931.098
1929.754
1929.784
1930.692
1931.804
1932.389
1931.841
1929.845
1926.439
1921.91
1916.58
1910.64
1904.147
1897.166
1889.879
1882.57
1875.534
1869.11
1863.162
1859.532
1853.858
2087.32
2168.731
2826.508
2774.39
2147.638
1527.025
1234.887
1273.423
1515.858
1832.041
2113.772
2284.08
2320.8
2262.146
2174.945
2109.96
2079.723
2068.282
2055.379
2033.382
2008.574
1992.138
1990.699
2002.609
2020.217
2034.819
2040.792
2037.086
2026.245
2012.206
1998.27
1986.095
1975.808
1966.78
1958.433
1950.666
1943.82
1938.378
1934.665
1932.715
1932.285
1932.928
1934.045
1934.949
1934.973
1933.631
1930.76
1926.549
1921.398
1915.679
1909.553
1902.993
1895.977
1888.655
1881.352
1874.455
1868.358
1862.93
1859.958
1854.646
1474.468
2743.101
3028.098
2453.418
1724.646
1292.028
1222.58
1401.994
1700.658
2009.372
2235.529
2327.136
2298.025
2211.673
2132.976
2090.789
2076.281
2066.498
2047.463
2021.375
1999.572
1991.609
1998.981
2015.641
2032.579
2042.587
2042.767
2034.395
2021.102
2006.69
1993.635
1982.68
1973.358
1964.872
1956.808
1949.351
1943.062
1938.482
1935.825
1934.913
1935.279
1936.316
1937.371
1937.804
1937.076
1934.862
1931.155
1926.264
1920.652
1914.685
1908.462
1901.866
1894.811
1887.445
1880.167
1873.462
1867.772
1862.942
1860.651
1855.604
2399.872
3195.414
2755.93
1968.156
1399.922
1209.385
1309.717
1570.925
1887.14
2160.619
2313.208
2327.014
2251.83
2161.998
2104.964
2083.838
2075.979
2061.12
2035.756
2009.801
1995.129
1996.714
2010.87
2028.964
2042.57
2046.939
2041.781
2029.989
2015.523
2001.589
1989.724
1979.899
1971.287
1963.14
1955.313
1948.27
1942.716
1939.15
1937.602
1937.653
1938.621
1939.784
1940.496
1940.232
1938.629
1935.543
1931.104
1925.693
1919.775
1913.668
1907.393
1900.758
1893.645
1886.237
1879.024
1872.591
1867.398
1863.233
1861.612
1856.69
3358.473
2998.951
2246.962
1565.414
1238.433
1245.061
1452.495
1754.878
2060.281
2274.146
2343.368
2292.538
2197.34
2123.864
2092.015
2083.724
2073.533
2050.931
2022.574
2001.589
1996.441
2006.515
2024.358
2040.824
2049.408
2048.045
2038.526
2024.614
2010.034
1997.133
1986.533
1977.626
1969.465
1961.521
1953.975
1947.517
1942.889
1940.45
1939.99
1940.844
1942.157
1943.152
1943.26
1942.132
1939.613
1935.729
1930.709
1924.943
1918.85
1912.668
1906.344
1899.645
1892.458
1885.031
1877.954
1871.892
1867.287
1863.826
1862.821
1857.842
3151.71
2594.034
1812.044
1314.273
1210.133
1353.978
1622.972
1938.88
2206.661
2340.692
2329.406
2238.279
2148.959
2102.288
2090.075
2084.049
2065.983
2037.363
2011.102
1998.755
2003.272
2019.249
2037.517
2050.068
2052.915
2046.395
2033.719
2018.894
2005.009
1993.436
1983.99
1975.718
1967.78
1959.994
1952.861
1947.206
1943.681
1942.415
1942.931
1944.347
1945.701
1946.239
1945.536
1943.459
1940.061
1935.513
1930.081
1924.111
1917.93
1911.693
1905.295
1898.499
1891.239
1883.846
1877.003
1871.421
1867.479
1864.725
1864.235
1858.976
3012.194
2149.246
1434.646
1201.866
1281.8
1503.551
1804.531
2110.072
2312.634
2356.542
2282.735
2181.291
2116.439
2095.875
2092.322
2079.995
2053.407
2023.49
2004.086
2001.882
2014.285
2032.949
2048.869
2056.138
2053.302
2042.6
2028.031
2013.338
2000.705
1990.515
1981.968
1974.023
1966.152
1958.586
1952.084
1947.464
1945.166
1945.027
1946.312
1947.984
1949.06
1948.89
1947.245
1944.219
1940.052
1935.005
1929.325
1923.264
1917.039
1910.729
1904.214
1897.3
1889.994
1882.721
1876.232
1871.236
1868.004
1865.909
1865.783
1859.998
2651.429
1618.519
1217.021
1239.218
1408.793
1668.748
1987.269
2253.935
2366.839
2326.981
2221.13
2136.383
2102.46
2098.385
2092.152
2069.807
2038.298
2012.599
2002.993
2010.235
2027.633
2045.897
2057.477
2058.914
2051
2037.317
2022.084
2008.361
1997.264
1988.29
1980.283
1972.392
1964.551
1957.387
1951.786
1948.406
1947.373
1948.205
1949.964
1951.551
1952.054
1950.994
1948.366
1944.473
1939.694
1934.32
1928.525
1922.439
1916.169
1909.745
1903.074
1896.04
1888.752
1881.712
1875.705
1871.385
1868.867
1867.333
1867.371
1860.804
1990.592
1246.375
1224.142
1349.57
1545.71
1845.498
2161.73
2352.607
2365.431
2267.523
2163.929
2111.617
2102.708
2101.818
2085.597
2054.863
2024.201
2007.055
2007.855
2022.263
2041.474
2056.813
2062.858
2058.569
2046.578
2031.238
2016.452
2004.265
1994.691
1986.572
1978.725
1970.725
1963.026
1956.547
1952.125
1950.113
1950.26
1951.801
1953.68
1954.842
1954.536
1952.496
1948.934
1944.319
1939.105
1933.553
1927.734
1921.642
1915.295
1908.709
1901.857
1894.735
1887.557
1880.886
1875.485
1871.899
1870.049
1868.921
1868.883
1861.294
1145.646
1255.507
1342.84
1450.747
1696.331
2036.945
2306.556
2390.651
2317.787
2200.394
2125.514
2106.264
2108.619
2099.816
2072.367
2038.588
2014.312
2007.781
2017.592
2036.136
2054.248
2064.839
2064.867
2055.506
2040.734
2025.072
2011.611
2001.178
1992.832
1985.102
1977.11
1969.012
1961.716
1956.255
1953.232
1952.594
1953.712
1955.614
1957.238
1957.682
1956.417
1953.406
1949.035
1943.876
1938.392
1932.774
1926.969
1920.854
1914.381
1907.593
1900.563
1893.418
1886.474
1880.312
1875.622
1872.784
1871.499
1870.573
1870.194
1861.376
1315.852
1347.216
1379.106
1553.226
1886.249
2223.324
2393.67
2367.088
2246.122
2146.544
2110.618
2112.557
2111.579
2089.876
2055.256
2024.82
2010.513
2014.332
2030.535
2050.111
2064.753
2069.479
2063.662
2050.351
2034.269
2019.476
2007.856
1999.022
1991.4
1983.614
1975.349
1967.353
1960.827
1956.696
1955.179
1955.775
1957.54
1959.407
1960.431
1959.945
1957.675
1953.786
1948.782
1943.261
1937.642
1932.019
1926.223
1920.04
1913.394
1906.385
1899.214
1892.145
1885.573
1880.055
1876.148
1874.017
1873.139
1872.172
1871.174
1860.981
1327.655
1341.727
1441.406
1724.576
2100.795
2364.391
2408.12
2299.973
2177.031
2117.951
2114.15
2120.161
2106.375
2073.509
2038.419
2016.399
2013.135
2025.354
2044.874
2062.697
2072.133
2070.585
2059.714
2043.932
2028
2014.934
2005.228
1997.523
1990.058
1981.924
1973.484
1965.955
1960.59
1958.003
1957.941
1959.492
1961.504
1962.948
1963.095
1961.569
1958.348
1953.743
1948.299
1942.573
1936.905
1931.289
1925.466
1919.163
1912.311
1905.094
1897.852
1890.982
1884.927
1880.167
1877.067
1875.546
1874.863
1873.588
1871.703
1860.066
1347.723
1376.997
1568.754
1941.135
2293.032
2431.162
2358.784
2218.821
2130.956
2114.533
2125.111
2120.809
2092.478
2054.732
2025.594
2014.568
2021.31
2039.111
2058.923
2072.708
2075.894
2068.39
2053.798
2037.187
2022.613
2011.654
2003.512
1996.295
1988.523
1979.992
1971.695
1965.08
1961.202
1960.217
1961.396
1963.514
1965.35
1966.034
1965.131
1962.567
1958.528
1953.402
1947.696
1941.881
1936.198
1930.563
1924.661
1918.195
1911.129
1903.749
1896.537
1890.003
1884.6
1880.675
1878.353
1877.288
1876.548
1874.69
1871.675
1858.622
1360.105
1442.975
1756.933
2173.009
2424.273
2416.609
2272.721
2152.666
2115.513
2126.376
2132.172
2111.153
2073.185
2038.045
2019.053
2019.111
2033.51
2053.822
2071.217
2079.295
2075.963
2063.524
2046.904
2030.987
2018.515
2009.532
2002.315
1994.967
1986.658
1977.946
1970.255
1964.981
1962.772
1963.268
1965.335
1967.575
1968.842
1968.523
1966.511
1963.008
1958.338
1952.885
1947.059
1941.215
1935.509
1929.808
1923.775
1917.122
1909.865
1902.398
1895.338
1889.281
1884.643
1881.585
1879.951
1879.133
1878.059
1875.355
1871.017
1856.68
1379.726
1572.967
2002.148
2373.388
2464.048
2337.82
2186.231
2119.63
2124.42
2139.607
2128.444
2093.044
2053.508
2026.819
2019.374
2028.828
2047.958
2067.818
2080.577
2082.033
2072.733
2056.94
2040.049
2025.958
2015.766
2008.213
2001.193
1993.29
1984.509
1976.044
1969.461
1965.841
1965.296
1966.981
1969.489
1971.407
1971.792
1970.347
1967.281
1963.006
1957.908
1952.292
1946.435
1940.575
1934.808
1928.987
1922.786
1915.947
1908.551
1901.101
1894.329
1888.882
1885.086
1882.868
1881.773
1880.951
1879.258
1875.478
1869.687
1854.309
1427.785
1786.278
2263.721
2488.252
2410.803
2234.429
2130.171
2120.381
2142.491
2143.232
2113.438
2071.569
2037.904
2022.546
2025.791
2042.039
2062.881
2079.656
2086.216
2080.998
2067.02
2049.738
2034.076
2022.37
2014.111
2007.224
1999.793
1991.209
1982.289
1974.607
1969.564
1967.729
1968.653
1971.106
1973.574
1974.785
1974.087
1971.513
1967.537
1962.696
1957.353
1951.688
1945.835
1939.937
1934.059
1928.074
1921.69
1914.695
1907.239
1899.927
1893.581
1888.853
1885.931
1884.468
1883.708
1882.603
1880.017
1874.983
1867.69
1851.619
1540.083
2078.893
2472.625
2485.344
2298.911
2150.956
2116.268
2140.584
2154.379
2133.375
2091.66
2052.164
2028.892
2025.009
2036.819
2056.976
2076.665
2088.22
2087.844
2076.769
2059.916
2042.941
2029.492
2020.125
2013.094
2006.12
1997.937
1988.857
1980.315
1973.939
1970.711
1970.591
1972.624
1975.352
1977.326
1977.544
1975.691
1972.097
1967.411
1962.207
1956.758
1951.101
1945.244
1939.264
1933.231
1927.057
1920.5
1913.402
1905.987
1898.945
1893.156
1889.225
1887.152
1886.297
1885.622
1883.945
1880.228
1873.83
1865.074
1848.754
1771.865
2392.884
2552.17
2379.329
2185.767
2115.082
2134.277
2160.783
2151.713
2113.083
2069.3
2038.498
2026.95
2033.016
2050.797
2071.968
2087.934
2092.827
2085.704
2070.32
2052.566
2037.306
2026.415
2018.852
2012.216
2004.599
1995.654
1986.512
1978.925
1974.268
1972.929
1974.259
1976.926
1979.426
1980.534
1979.599
1976.644
1972.217
1967.043
1961.643
1956.168
1950.525
1944.626
1938.523
1932.308
1925.944
1919.246
1912.118
1904.859
1898.223
1893.102
1890.004
1888.696
1888.242
1887.37
1884.844
1879.811
1872.019
1861.938
1845.889
2172.482
2598.449
2471.106
2236.874
2120.726
2124.928
2161.549
2167.133
2134.995
2088.912
2051.294
2031.928
2031.276
2045.086
2066.103
2085.473
2095.627
2093.308
2080.535
2062.829
2045.951
2033.204
2024.621
2018.043
2011.062
2002.56
1993.145
1984.521
1978.417
1975.707
1976.118
1978.477
1981.252
1983.072
1983.06
1980.951
1977.048
1972.017
1966.553
1961.07
1955.592
1949.929
1943.945
1937.691
1931.291
1924.757
1917.967
1910.897
1903.916
1897.817
1893.449
1891.166
1890.477
1890.172
1888.808
1885.185
1878.723
1869.595
1858.427
1843.217
2669.74
2551.997
2299.718
2137.878
2115.275
2156.188
2178.167
2156.36
2110.501
2067.093
2040.079
2032.127
2040.592
2059.717
2081.13
2096.104
2099.124
2090.064
2073.444
2055.453
2040.721
2030.622
2023.657
2017.202
2009.392
2000.098
1990.729
1983.228
1978.99
1978.241
1980.071