/*--------------------------------*- C++ -*----------------------------------*\
| =========                 |                                                 |
| \\      /  F ield         | OpenFOAM: The Open Source CFD Toolbox           |
|  \\    /   O peration     | Version:  2312                                  |
|   \\  /    A nd           | Website:  www.openfoam.com                      |
|    \\/     M anipulation  |                                                 |
\*---------------------------------------------------------------------------*/
FoamFile
{
    version     2.0;
    format      ascii;
    arch        "LSB;label=32;scalar=64";
    class       volScalarField;
    location    "4500";
    object      ILambda_0_0;
}
// * * * * * * * * * * * * * * * * * * * * * * * * * * * * * * * * * * * * * //

dimensions      [1 0 -3 0 0 0 0];

internalField   nonuniform List<scalar> 
12000
(
1724.28
755.0457
704.2598
762.6936
774.0835
761.3278
747.6654
738.751
733.8083
731.1944
729.6729
728.9415
729.737
733.0526
738.9191
745.8103
751.2511
753.2081
751.1893
746.2696
740.1579
734.0995
728.3812
722.6203
716.4391
709.9675
703.8806
699.0524
696.113
695.1729
695.8092
697.2475
698.6272
699.21
698.5405
696.5336
693.4509
689.7985
686.1151
682.8222
680.1514
678.2398
677.2302
677.0205
677.4024
678.1677
679.1749
680.5495
682.2416
683.7404
684.675
685.1498
685.171
684.3301
682.4324
679.4645
674.9098
668.1176
658.1401
636.6586
2787.821
1288.999
706.6592
681.0875
748.7118
768.9223
758.085
744.2724
736.0183
732.1184
730.1751
729.0339
728.9115
730.7825
735.2782
741.7273
748.1204
752.1176
752.349
749.036
743.5634
737.4504
731.517
725.7488
719.767
713.4268
707.1063
701.5678
697.5704
695.5096
695.2634
696.2636
697.7095
698.7933
698.8878
697.6794
695.2158
691.8637
688.152
684.5885
681.5245
679.1564
677.6424
676.9956
677.0641
677.6311
678.4948
679.6599
681.1869
682.799
684.0498
684.8007
685.106
684.7569
683.4668
681.1498
677.528
671.9969
664.8123
644.2125
3307.43
2059.13
1024.415
668.3177
683.2246
747.6135
765.0285
754.0543
740.9983
733.8012
730.7774
729.3317
728.6293
729.3114
732.3479
737.8409
744.4626
749.9545
752.3485
750.9932
746.6779
740.8881
734.8384
728.96
723.0607
716.8688
710.4892
704.4865
699.6246
696.4929
695.2482
695.5699
696.7949
698.1268
698.8339
698.4119
696.685
693.829
690.2838
686.5842
683.1865
680.3824
678.3691
677.2404
676.9269
677.2394
677.9443
678.9347
680.2657
681.8451
683.3036
684.3396
684.9174
684.9578
684.2093
682.5035
679.6787
675.1315
670.1544
651.4762
3495.973
2737.872
1589.543
849.6636
647.8462
692.491
749.9876
761.6676
749.9366
738.0183
732.0143
729.709
728.6812
728.5599
730.243
734.4354
740.6019
746.9096
751.1434
751.9003
749.2061
744.2061
738.2839
732.2936
726.3702
720.284
713.948
707.6935
702.1839
698.0987
695.8213
695.2878
696.0289
697.3334
698.4388
698.7067
697.7585
695.5549
692.3804
688.724
685.1024
681.9113
679.417
677.7814
677.0217
677.0075
677.5103
678.3411
679.4823
680.9352
682.4716
683.7469
684.5942
684.9583
684.668
683.5201
681.3956
677.6421
674.2777
658.0715
3514.707
3191.012
2227.329
1248.794
736.7854
643.6171
704.8969
752.8909
758.2803
745.9542
735.4095
730.5646
728.8494
728.279
728.9407
731.7522
736.9349
743.3349
748.8651
751.6242
750.8562
747.1243
741.7053
735.743
729.7533
723.701
717.4338
711.0763
705.1258
700.2525
696.9897
695.5061
695.554
696.5654
697.8176
698.6051
698.392
696.9295
694.3058
690.893
687.2035
683.7143
680.7794
678.6344
677.3808
676.9659
677.201
677.8571
678.8248
680.1104
681.6112
683.0373
684.1305
684.7819
684.8752
684.2193
682.719
679.6501
677.3966
663.7915
3469.787
3418.868
2779.271
1787.606
1002.815
670.638
651.3638
717.9238
754.9901
754.6708
742.2407
733.1783
729.3749
728.1905
728.2124
729.8533
733.795
739.6589
745.8166
750.2067
751.4298
749.347
744.8681
739.2125
733.2252
727.1616
720.941
714.5604
708.3372
702.8557
698.7151
696.2671
695.4822
695.9725
697.1135
698.2
698.5985
697.8843
695.938
692.9617
689.3922
685.7378
682.4358
679.8052
678.0326
677.1526
677.0432
677.4793
678.277
679.3883
680.7777
682.2525
683.536
684.4449
684.8661
684.6346
683.686
681.2425
679.7334
668.5817
3426.43
3495.933
3170.724
2348.266
1427.712
832.2875
638.606
666.1534
729.7513
755.766
750.8799
738.879
731.2931
728.4016
727.7757
728.5758
731.32
736.2462
742.3878
747.8659
750.8916
750.6507
747.5072
742.5208
736.7263
730.6813
724.4851
718.1118
711.7335
705.8094
700.9304
697.5679
695.8837
695.6812
696.475
697.6181
698.4437
698.4027
697.1876
694.8035
691.5498
687.9006
684.3451
681.2853
678.9966
677.606
677.0759
677.2241
677.8295
678.7691
680.0091
681.4437
682.8387
683.963
684.6695
684.8027
684.3333
682.4752
681.4748
672.4894
3381.65
3454.299
3375.708
2828.1
1942.538
1147.606
722.2898
630.4888
683.9121
739.2861
755.1531
747.0416
735.9092
729.7148
727.646
727.6841
729.4382
733.2892
738.9219
744.9067
749.3624
750.9439
749.4052
745.4512
740.1255
734.221
728.0687
721.7179
715.2608
709.0301
703.5581
699.3731
696.7863
695.7828
696.036
697.0006
698.0335
698.5217
698.0112
696.3138
693.551
690.0971
686.4404
683.0463
680.2778
678.3574
677.343
677.1249
677.4881
678.2474
679.3244
680.6569
682.0795
683.3592
684.3088
684.7576
684.6986
683.386
682.7594
675.6148
3569.277
3514.85
3452.328
3146.585
2441.268
1582.57
939.182
658.7719
637.8814
701.7199
746.1011
753.351
743.3083
733.3433
728.4281
727.1609
728.0065
730.817
735.6387
741.6102
747.0363
750.2525
750.4361
747.8133
743.2603
737.6911
731.6614
725.3634
718.8827
712.4533
706.5241
701.6297
698.1842
696.3306
695.9034
696.4838
697.4969
698.323
698.4165
697.4258
695.2818
692.2078
688.6294
685.0353
681.8616
679.4252
677.8855
677.2254
677.2762
677.8238
678.7288
679.9243
681.3024
682.6658
683.8075
684.5281
684.8186
684.0052
683.6825
678.0734
2368.591
3501.875
3610.08
3386.52
2854.957
2058.545
1281.987
792.6746
629.165
653.9761
717.6268
750.2141
750.6673
739.8031
731.1805
727.4582
727.038
728.8171
732.6684
738.1976
744.1058
748.6525
750.5433
749.4651
745.9769
740.9795
735.2035
729.0175
722.5657
716.0262
709.7621
704.2783
700.0488
697.3445
696.1508
696.1845
696.9674
697.9193
698.4591
698.1192
696.6562
694.1149
690.8013
687.1733
683.7092
680.809
678.734
677.5716
677.2315
677.5121
678.2249
679.2636
680.5455
681.9213
683.1939
684.1403
684.727
684.3611
684.3071
679.9748
1223.16
2790.326
3552.67
3589.443
3207.091
2518.664
1706.185
1044.991
697.7347
623.0177
673.6911
730.5238
751.9044
747.4076
736.5992
729.4186
726.8621
727.3731
730.1447
734.8906
740.7762
746.2408
749.6952
750.2872
748.1313
743.9686
738.6219
732.6387
726.2745
719.7017
713.2118
707.2583
702.3382
698.8188
696.8198
696.192
696.5675
697.4366
698.2315
698.4224
697.6292
695.7188
692.8388
689.3596
685.7555
682.4848
679.9024
678.2043
677.4003
677.3414
677.8212
678.6842
679.8361
681.1639
682.5013
683.6206
684.4541
684.4817
684.6761
681.4121
2155.151
2146.435
3055.286
3556.556
3465.81
2939.573
2166.697
1399.731
868.8229
643.6916
631.899
693.5443
739.9972
751.5957
743.8374
733.7365
728.0666
726.7052
728.2271
731.9539
737.3377
743.1951
747.902
750.1635
749.5634
746.5215
741.8293
736.1792
729.9753
723.4389
716.8191
710.5105
705.003
700.7295
697.9244
696.5653
696.3976
696.9987
697.8483
698.405
698.2017
696.953
694.634
691.4811
687.9113
684.4022
681.3821
679.1505
677.8288
677.353
677.5388
678.1948
679.1915
680.4258
681.7652
682.9985
684.0286
684.3947
684.8206
682.4611
1709.022
2025.354
2621.015
3296.795
3545.425
3273.308
2621.344
1825.838
1146.604
746.4484
620.2104
649.2092
711.3689
746.1346
749.7745
740.1882
731.2572
727.1553
727.0406
729.6029
734.1441
739.8395
745.3057
749.0357
750.1018
748.4587
744.6998
739.5726
733.6336
727.2052
720.5393
713.9804
707.9911
703.0411
699.4579
697.3356
696.5306
696.713
697.4298
698.1663
698.419
697.7933
696.1035
693.4258
690.0703
686.4849
683.138
680.4168
678.5547
677.5943
677.412
677.8115
678.6244
679.7311
681.0194
682.3064
683.4796
684.1278
684.7656
683.1815
1243.705
1799.66
2292.265
2946.829
3434.165
3462.054
3018.06
2282.084
1516.232
948.5607
669.0004
618.0472
670.0175
725.9915
749.3183
746.9221
736.6684
729.2261
726.7342
727.8937
731.4416
736.5667
742.226
747.003
749.6393
749.5804
747.0515
742.7048
737.1941
730.9701
724.3388
717.6237
711.2544
705.7132
701.3991
698.511
697.0117
696.6633
697.0872
697.819
698.3614
698.2597
697.2006
695.0983
692.1205
688.6356
685.108
681.9842
679.5986
678.1093
677.4849
677.562
678.1499
679.0978
680.2923
681.5768
682.8375
683.7096
684.5339
683.6209
979.8518
1488.322
1988.323
2588.582
3186.242
3480.289
3302.519
2717.088
1946.351
1250.23
802.7683
627.0614
629.4394
690.8686
736.9492
750.0653
743.4718
733.4645
727.7249
726.8533
729.2502
733.6327
739.0512
744.3509
748.23
749.7482
748.6763
745.4015
740.5527
734.6825
728.1862
721.4067
714.7534
708.708
703.7212
700.0842
697.862
696.9061
696.9118
697.4741
698.1303
698.4112
697.9207
696.4327
693.9585
690.7459
687.2063
683.8064
680.9579
678.9306
677.8041
677.485
677.7909
678.5426
679.6067
680.8398
682.1333
683.1695
684.1479
683.8175
870.9501
1203.968
1680.48
2241.138
2865.287
3344.808
3438.463
3076.124
2391.625
1633.37
1033.569
703.3231
611.5751
648.2397
709.5502
744.2665
748.9303
739.7934
730.738
726.8316
727.5381
731.0507
736.0325
741.4326
746.1066
748.9735
749.4189
747.4586
743.5458
738.2442
732.0297
725.2963
718.4575
711.9954
706.3991
702.0414
699.0862
697.4737
696.9697
697.2278
697.8327
698.3341
698.2999
697.4015
695.5035
692.7084
689.3308
685.8108
682.6029
680.0706
678.4099
677.6258
677.5807
678.0864
678.9826
680.1216
681.3975
682.5385
683.6317
683.8034
844.5865
1005.387
1392.005
1906.662
2515.367
3096.513
3419.399
3314.483
2799.181
2062.788
1356.597
866.7679
642.6316
614.4368
669.862
724.8408
748.2851
746.4584
736.1983
728.6207
726.5987
728.7716
733.1931
738.4844
743.5715
747.4307
749.2547
748.7142
745.9795
741.5018
735.7742
729.2391
722.3342
715.5519
709.4149
704.371
700.6821
698.3807
697.3023
697.1537
697.5668
698.1278
698.4068
698.0179
696.7076
694.4312
691.3743
687.9047
684.4761
681.5162
679.3276
678.0289
677.5611
677.7582
678.4409
679.4453
680.6579
681.8473
683.0114
683.6076
851.443
896.2445
1156.672
1596.049
2162.818
2779.526
3265.049
3408.72
3119.343
2491.297
1748.921
1123.869
746.537
612.5153
628.8096
691.1062
736.2593
749.5331
743.1616
732.946
727.2089
727.0372
730.4882
735.5449
740.8389
745.3666
748.3031
749.1157
747.6907
744.2717
739.2732
733.1404
726.3299
719.3497
712.756
707.0683
702.6501
699.6344
697.9327
697.3013
697.4118
697.8893
698.3294
698.3305
697.5617
695.8496
693.2377
689.9844
686.4967
683.2266
680.5598
678.7287
677.7771
677.5955
678.008
678.8332
679.9397
681.1253
682.3147
683.2573
864.8593
853.0417
992.7158
1328.355
1827.141
2431.066
3009.632
3359.552
3316.354
2868.609
2172.443
1464.168
938.078
667.1186
605.0299
649.2364
709.9292
743.8429
748.6267
739.5034
730.246
726.5567
728.1094
732.5798
737.9601
742.9693
746.7583
748.7363
748.6063
746.3915
742.3504
736.8582
730.3513
723.339
716.4042
710.1343
704.9986
701.245
698.8754
697.7006
697.4241
697.7014
698.1606
698.4132
698.0936
696.9335
694.8426
691.9475
688.5679
685.1348
682.0825
679.7414
678.2689
677.6415
677.7177
678.3108
679.267
680.4
681.5698
682.7795
873.7101
847.0177
897.8042
1120.086
1526.703
2080.696
2690.96
3187.054
3374.515
3151.281
2580.615
1860.755
1217.977
798.1509
621.4458
613.0146
671.6106
725.2069
747.9658
746.2005
735.8866
728.2535
726.6688
729.7306
734.9091
740.2972
744.7821
747.7248
748.763
747.7727
744.8434
740.2196
734.2585
727.43
720.3181
713.564
707.7428
703.2323
700.1481
698.372
697.6399
697.6262
697.9841
698.351
698.3602
697.6897
696.1406
693.7058
690.5878
687.1542
683.8447
681.0594
679.0635
677.939
677.6104
677.9093
678.6651
679.6974
680.8048
682.2011
876.3058
855.5172
855.8919
977.2443
1277.525
1752.499
2344.273
2922.613
3298.371
3310.501
2927.049
2274.394
1571.085
1015.25
700.1287
602.0706
630.4081
693.0531
736.5117
749.2009
742.8592
732.6421
727.063
727.4988
731.7781
737.3277
742.4348
746.2198
748.2738
748.4243
746.6507
743.059
737.8791
731.4856
724.4156
717.3296
710.8936
705.6245
701.7787
699.3377
698.0842
697.7057
697.8665
698.226
698.4357
698.1566
697.118
695.1952
692.4618
689.187
685.772
682.6481
680.1675
678.5226
677.729
677.666
678.1636
679.0437
680.047
681.5489
875.6264
865.0475
846.0551
893.4405
1088.975
1465.753
1999.992
2601.608
3108.487
3335.851
3173.843
2660.231
1967.83
1314.251
856.916
638.2124
601.8475
652.3738
711.7349
743.9166
748.2161
739.1453
730.0208
726.705
728.9534
734.1047
739.693
744.2806
747.2583
748.4315
747.7586
745.2623
741.0419
735.3329
728.5652
721.3615
714.4402
708.4492
703.8066
700.6311
698.7819
697.9688
697.855
698.1078
698.398
698.395
697.794
696.383
694.1137
691.1362
687.7746
684.4479
681.5629
679.4108
678.1125
677.6229
677.7974
678.4678
679.324
680.8497
876.2388
872.6496
852.5685
855.4247
961.5764
1233.453
1682.665
2258.191
2835.27
3234.807
3297.718
2975.709
2368.658
1676.266
1096.887
740.7541
605.6861
614.3886
675.2865
726.677
747.8295
745.6977
735.5173
728.1887
727.1475
730.9017
736.5558
741.8821
745.7758
747.9002
748.2311
746.7957
743.6182
738.7929
732.5946
725.5382
718.3309
711.715
706.2746
702.2995
699.7691
698.4422
697.9822
698.0477
698.317
698.4753
698.2138
697.2693
695.494
692.9167
689.7565
686.3794
683.2055
680.6003
678.7884
677.8208
677.6063
678.0028
678.665
680.1303
876.219
869.7534
857.3471
844.4624
887.7584
1061.784
1410.687
1922.215
2512.794
3028.842
3292.627
3187.892
2730.706
2069.735
1411.621
921.7353
662.3007
595.6705
634.3212
696.6277
737.553
748.8576
742.2949
732.3355
727.2273
728.3037
733.19
738.9841
743.8007
746.8923
748.1649
747.7048
745.5541
741.7212
736.3176
729.6918
722.4593
715.3913
709.211
704.3979
701.0976
699.1622
698.2762
698.0824
698.2476
698.4654
698.4374
697.8819
696.5841
694.465
691.6278
688.3518
685.029
682.063
679.7665
678.2936
677.6318
677.6864
678.1022
679.4187
904.7252
901.4505
875.2429
846.781
850.1795
946.1289
1194.544
1617.658
2174.229
2747.996
3168.651
3278.391
3015.226
2455.28
1779.036
1182.021
788.2473
615.7358
601.6824
657.3894
714.8316
744.5082
747.7011
738.5804
729.8553
727.1387
730.044
735.6572
741.2628
745.3864
747.6271
748.0792
746.8771
744.042
739.5729
733.6311
726.6668
719.3924
712.6085
706.9729
702.8308
700.1817
698.7724
698.2412
698.2301
698.4223
698.5283
698.2685
697.3941
695.7452
693.3142
690.2738
686.951
683.7471
681.0336
679.0614
677.9116
677.5593
677.6723
678.7453
740.8068
809.9322
880.5897
873.0568
847.2881
879.0086
1035.488
1360.113
1848.204
2425.525
2948.296
3244.989
3193.928
2792.325
2166.116
1509.297
991.8428
693.3444
594.657
618.0046
680.4381
729.1086
748.0034
745.0714
735.025
728.2281
727.8569
732.2116
738.1497
743.2928
746.6063
747.9936
747.669
745.7626
742.2617
737.1796
730.7623
723.5752
716.4061
710.0407
705.0302
701.569
699.5222
698.5583
698.2958
698.3898
698.5437
698.4854
697.9572
696.7501
694.7645
692.0637
688.8828
685.5813
682.5529
680.1244
678.4735
677.6612
677.4153
678.144
1900.708
839.7952
759.1101
840.4941
856.1881
855.2601
932.6876
1157.817
1556.205
2093.031
2661.456
3100.18
3252.886
3045.954
2534.131
1878.732
1269.855
842.1171
632.2234
592.6958
639.8865
701.3178
739.2677
748.6844
741.6328
731.9852
727.5086
729.2627
734.6389
740.5328
745.006
747.4521
748.0128
746.9544
744.3675
740.2145
734.5575
727.7546
720.4819
713.5669
707.7338
703.396
700.5946
699.082
698.4777
698.4013
698.5298
698.5876
698.3202
697.497
695.9547
693.6582
690.7388
687.4826
684.2662
681.4606
679.3293
678.0254
677.3717
677.6526
2787.558
1375.564
786.3431
757.1906
827.5388
848.9194
879.5478
1014.474
1312.942
1777.15
2340.133
2867.358
3193.396
3192.388
2845.169
2256.444
1606.387
1066.514
731.1398
599.115
603.9657
663.6114
718.7413
745.5484
747.2763
737.9611
729.7001
727.6686
731.2022
737.1632
742.6989
746.3632
747.9316
747.7061
745.9472
742.693
737.907
731.7361
724.6641
717.4561
710.9345
705.7191
702.0678
699.879
698.8204
698.4895
698.5227
698.6225
698.5335
698.0208
696.8859
695.0176
692.4466
689.3658
686.0994
683.0258
680.4706
678.6727
677.5783
677.3115
3245.35
2098.749
1106.597
750.2687
762.3067
823.3567
854.0547
925.9872
1127.122
1498.554
2014.31
2575.886
3029.924
3221.837
3068.32
2605.022
1974.515
1359.383
901.7652
655.1961
587.9342
623.3509
686.4662
732.1205
748.4726
744.5025
734.5199
728.2978
728.614
733.5044
739.6388
744.5704
747.3493
748.061
747.0902
744.6517
740.7399
735.3555
728.7591
721.5565
714.5659
708.5567
704.0116
701.0289
699.3859
698.6951
698.5551
698.6286
698.6441
698.3652
697.5796
696.1271
693.9532
691.1525
687.9707
684.7569
681.8673
679.6069
678.0627
677.1615
3415.111
2724.818
1647.947
932.6575
730.8677
769.5626
825.7741
875.4303
999.0631
1271.501
1709.675
2256.614
2786.26
3138.451
3184.006
2889.597
2340.316
1701.895
1144.768
775.2675
609.2847
592.7904
646.6579
706.6461
741.4013
748.7188
741.0258
731.6491
727.8078
730.2052
735.9986
741.9457
746.0984
747.9658
747.858
746.1747
743.068
738.5145
732.5896
725.6829
718.5017
711.8722
706.4666
702.6105
700.252
699.0748
698.6652
698.6399
698.6921
698.5747
698.0705
696.9939
695.2287
692.7791
689.7996
686.5789
683.4687
680.8113
678.8379
677.2395
3437.996
3139.887
2246.228
1318.079
821.4851
725.2041
778.745
837.0983
917.444
1101.785
1446.09
1938.659
2491.336
2958.091
3185.843
3083.008
2668.161
2065.843
1449.617
966.3835
684.4576
587.7724
608.3494
670.6563
723.1216
746.9083
747.0222
737.4087
729.5662
728.1794
732.2764
738.5276
743.993
747.2585
748.2238
747.3364
744.9628
741.1966
736.0329
729.6526
722.5732
715.5688
709.4247
704.6814
701.501
699.7015
698.9038
698.6923
698.7128
698.6899
698.3983
697.6415
696.2655
694.2023
691.5151
688.4125
685.209
682.2488
679.8983
677.5744
3403.889
3351.776
2760.331
1829.518
1080.065
755.5751
729.1049
791.2984
861.3675
984.1643
1235.325
1646.815
2175.497
2705.057
3080.317
3169.263
2926.077
2417.713
1795.195
1225.755
825.1956
625.2138
584.9357
630.0561
693.0373
735.4886
749.2089
744.0979
734.0928
728.3755
729.3019
734.6541
740.9569
745.7185
748.0442
748.137
746.5046
743.4543
739.0435
733.3239
726.6006
719.5007
712.8204
707.2591
703.2025
700.6568
699.3373
698.8317
698.7415
698.7473
698.6026
698.103
697.0748
695.4
693.0624
690.1826
687.0132
683.8648
681.2179
678.182
3358.766
3420.284
3120.299
2355.506
1486.485
915.0381
721.4731
739.6375
810.1537
903.1074
1078.621
1398.753
1867.051
2408.356
2884.807
3145.049
3090.302
2723.684
2152.413
1539.882
1035.334
719.7976
592.4879
595.3719
654.2391
712.3174
743.8162
748.9973
740.588
731.3919
728.0857
731.0258
737.172
743.1798
747.0855
748.4597
747.7171
745.3657
741.6497
736.6242
730.4303
723.4991
716.5352
710.3083
705.3949
702.0172
700.0436
699.1176
698.82
698.7823
698.7207
698.4151
697.6808
696.3702
694.4062
691.8257
688.8053
685.5916
682.7513
679.0616
3320.92
3408.513
3320.24
2801.493
1970.17
1217.408
806.8237
709.1106
756.0513
839.2431
966.4957
1202.379
1588.843
2097.762
2624.391
3019.277
3148.326
2954.666
2488.398
1885.704
1308.795
880.5318
647.0014
580.8606
614.281
678.1235
727.7097
748.5037
747.0029
737.0272
729.497
728.6295
733.1828
739.6819
745.1182
748.0765
748.5142
746.9716
743.9196
739.5548
733.9668
727.4073
720.4189
713.7408
708.0704
703.836
701.1007
699.6218
699.0012
698.8338
698.7882
698.6144
698.1155
697.127
695.5311
693.2949
690.5161
687.3564
684.4372
680.1947
3297.776
3372.773
3400.863
3119.713
2444.778
1629.134
1015.922
741.2957
711.7543
779.5353
882.8139
1054.873
1355.235
1799.916
2327.897
2810.828
3099.927
3090.403
2771.431
2233.655
1629.389
1107.989
761.0709
602.4373
584.9895
637.6319
699.7757
738.9816
750.1543
743.9208
733.8266
728.4894
729.8866
735.6027
742.0603
746.7194
748.6869
748.2163
745.9036
742.1676
737.1851
731.1131
724.3197
717.4303
711.1713
706.1291
702.5718
700.4199
699.3495
698.9492
698.8425
698.7372
698.4137
697.6953
696.4398
694.5621
692.0892
689.0879
686.2049
681.5448
3262.807
3304.854
3393.21
3305.861
2844.746
2088.171
1344.569
872.7043
707.1781
725.7541
812.5397
944.921
1170.432
1534.902
2023.835
2545.127
2956.163
3121.81
2975.572
2552.021
1972.611
1392.994
940.7567
674.7323
581.1075
599.9423
662.2301
718.0051
746.3133
749.4693
740.3642
731.2706
728.3606
731.7044
738.1266
744.2105
747.9518
748.9188
747.5724
744.5142
740.116
734.5679
728.1172
721.2379
714.5986
708.867
704.4907
701.5796
699.9357
699.1856
698.9266
698.82
698.6113
698.1065
697.1486
695.6179
693.4846
690.7233
687.9806
683.0609
3404.438
3350.872
3354.819
3365.48
3122.904
2524.27
1756.264
1118.651
777.3885
696.2532
749.8662
858.198
1029.136
1313.863
1736.696
2250.303
2736.889
3051.31
3083.969
2811.554
2309.057
1717.18
1183.458
807.9184
617.9057
577.8546
621.4167
685.7096
732.2404
750.166
747.1649
736.8357
729.5251
729.0329
733.9168
740.615
746.0614
748.7986
748.7767
746.5858
742.8058
737.7805
731.744
725.043
718.2327
711.9794
706.8529
703.1472
700.8275
699.607
699.091
698.9028
698.7446
698.3954
697.6838
696.469
694.6811
692.2137
689.6953
684.6814
2398.969
3333.263
3432.983
3405.517
3282.625
2875.421
2190.264
1464.679
947.829
720.1809
702.9396
784.4822
919.9565
1138.235
1483.889
1953.41
2467.539
2891.588
3090.481
2989.382
2608.603
2055.26
1477.348
1005.081
708.2385
586.1204
587.7307
645.861
706.4696
742.3966
751.1672
743.9098
733.7148
728.6531
730.3822
736.36
742.9523
747.5639
749.2525
748.2644
745.2588
740.7862
735.1885
728.7666
721.9604
715.3701
709.6153
705.1382
702.0782
700.2778
699.3925
699.0306
698.8517
698.5978
698.0774
697.1346
695.6744
693.5268
691.291
686.3403
1474.679
2772.092
3377.271
3469.923
3392.095
3127.665
2584.892
1867.738
1221.324
825.9842
692.8237
723.8023
831.1658
1001.287
1273.707
1676.813
2175.516
2663.27
2999.734
3071.66
2844.485
2378.464
1802.49
1260.769
859.7146
638.9184
574.5195
606.2609
670.5119
723.5763
748.7446
750.0153
740.2846
731.2586
728.634
732.2575
738.8823
745.0475
748.6859
749.3108
747.3846
743.5954
738.4718
732.38
725.6988
718.9399
712.7072
707.5339
703.7176
701.2536
699.8899
699.2532
698.9734
698.7506
698.3645
697.6429
696.4756
694.6478
692.725
687.9734
2064.911
2157.401
2967.574
3405.487
3468.441
3309.911
2909.447
2274.533
1573.954
1028.155
746.0494
688.7524
757.2097
892.4094
1105.283
1435.166
1886.307
2391.791
2825.894
3054.845
2996.64
2658.392
2133.316
1561.025
1072.63
747.0894
596.0956
578.2506
629.6109
693.37
736.6437
751.7918
747.4054
736.7584
729.6118
729.3855
734.4983
741.3513
746.8318
749.4072
748.973
746.1402
741.6048
735.8903
729.4076
722.6094
716.0483
710.2888
705.7474
702.5731
700.6372
699.6228
699.1535
698.892
698.5813
698.0269
697.1072
695.5783
693.9725
689.5243
2655.836
2062.831
2502.396
3136.378
3443.351
3430.901
3163.025
2645.166
1965.175
1319.45
883.2052
700.8717
703.062
803.1706
971.3352
1234.046
1619.818
2103.591
2590.277
2945.605
3053.963
2870.652
2441.938
1884.843
1339.093
915.7314
665.2453
575.3106
592.7653
654.6695
713.1288
745.7105
752.1776
743.9752
733.6802
728.8229
730.7838
736.9475
743.6564
748.2548
749.7152
748.2394
744.5365
739.305
733.082
726.3334
719.569
713.3439
708.1449
704.2533
701.6771
700.1892
699.4374
699.061
698.7639
698.322
697.599
696.3337
695.0269
690.9488
2994.303
2312
2249.202
2768.023
3267.302
3458.207
3344.113
2959.27
2354.595
1673.833
1109.577
782.0694
683.7321
732.564
863.1683
1071.148
1387.968
1822.209
2318.034
2759.425
3015.311
2997.784
2701.685
2206.687
1643.475
1142.641
790.7408
610.9888
571.909
614.0279
679.0632
729.0775
751.1199
750.5886
740.2709
731.2822
728.8643
732.6824
739.4599
745.7081
749.2806
749.6024
747.1124
742.5846
736.7248
730.099
723.2258
716.6447
710.8734
706.2909
703.0367
700.9949
699.869
699.2966
698.948
698.5633
697.9851
696.9391
695.8973
692.2179
3111.823
2616.886
2246.412
2462.827
2979.94
3360.343
3433.962
3203.6
2711.343
2056.847
1413.048
945.5824
718.8996
688.8438
775.9072
939.7923
1194.348
1565.092
2034.349
2518.081
2889.215
3031.216
2890.382
2499.632
1964.027
1417.868
975.3395
696.5448
580.3403
581.3672
638.6393
701.1181
740.9884
753.4108
747.6939
736.7281
729.6911
729.6518
734.927
741.9078
747.4362
749.8837
749.0644
745.5978
740.3038
733.9049
727.0031
720.1552
713.896
708.6696
704.7274
702.0722
700.488
699.6365
699.1676
698.7842
698.2997
697.4257
696.6058
693.3197
3267.934
2951.898
2427.467
2308.699
2670.918
3145.467
3410.193
3360.999
3012.197
2434.841
1768.819
1190.957
825.4922
687.2742
711.8995
833.5594
1036.085
1341.881
1760.779
2246.271
2692.36
2972.077
2993.012
2738.647
2275.37
1724.402
1214.61
838.7387
630.6599
568.9367
599.5333
663.8905
719.7864
749.0021
753.225
744.0978
733.6673
728.9446
731.0645
737.3664
744.1818
748.7864
750.0463
748.1011
743.7078
737.7246
730.8978
723.8623
717.1889
711.3713
706.7506
703.4423
701.327
700.115
699.4541
699.0147
698.575
697.8264
697.1823
694.2581
2381.855
3089.518
2761.231
2373.925
2447.783
2866.716
3267.88
3411.502
3235.695
2778.212
2146.273
1504.227
1011.501
744.9669
681.1038
750.508
907.4692
1154.662
1512.429
1967.801
2446.899
2830.761
3003.502
2903.698
2551.52
2039.887
1496.764
1038.138
732.5604
589.6512
572.3717
622.7884
687.7579
734.55
753.5176
751.2317
740.3119
731.2985
729.0104
732.9607
739.8596
746.1913
749.7173
749.7568
746.7175
741.4636
734.8889
727.7653
720.7469
714.3877
709.1061
705.1203
702.4128
700.7627
699.836
699.2811
698.8386
698.1719
697.6595
695.0501
1712.288
2757.551
2952.261
2594.056
2393.705
2614.692
3037.88
3344.573
3360.344
3060.085
2513.868
1861.55
1272.988
874.8381
698.2974
695.4982
804.3078
1000.363
1296.791
1702.044
2176.844
2625.115
2925.354
2982.286
2769.11
2339.142
1803.53
1288.214
890.8232
655.0513
569.5254
586.4619
648.1362
708.8566
745.3149
755.0944
748.071
736.7405
729.7335
729.8045
735.1911
742.2803
747.862
750.1979
749.0102
744.9262
738.897
731.8499
724.5757
717.7252
711.802
707.1215
703.7695
701.6071
700.339
699.6057
699.1126
698.4884
698.0685
695.7224
1384.142
2237.924
2856.086
2797.076
2498.917
2474.83
2788.039
3175.5
3371.191
3255.296
2840.961
2233.631
1594.628
1080.895
778.0837
679.5489
727.4049
874.6438
1114.799
1461.628
1904.192
2377.35
2770.811
2971.022
2910.432
2597.243
2112.028
1575.419
1103.856
773.1932
603.367
566.0766
607.4399
673.232
726.3641
752.3048
754.3698
744.3141
733.6781
729.0018
731.209
737.6082
744.518
749.1343
750.2064
747.8085
742.7491
736.0515
728.6701
721.3998
714.859
709.4697
705.4243
702.6768
700.9882
700.0082
699.4139
698.7951
698.4343
696.3051
1280.154
1777.109
2530.834
2839.307
2664.404
2476.158
2596.846
2951.841
3271.938
3344.078
3098.496
2588.999
1952.548
1356.364
929.7261
716.4106
683.6605
775.8328
963.8459
1252.185
1645.797
2110.208
2558.52
2875.8
2965.765
2792.77
2397.472
1880.324
1363.057
946.814
684.2286
573.9486
575.1714
632.077
696.3644
739.9276
755.9613
751.9922
740.44
731.3159
729.0679
733.0859
740.0727
746.4782
749.961
749.7299
746.1631
740.2197
732.9818
725.4189
718.3068
712.201
707.4146
704.007
701.8127
700.5089
699.7559
699.1046
698.7735
696.8272
1283.436
1475.215
2120.951
2682.344
2768.393
2575.347
2514.448
2740.215
3093.152
3320.592
3261.71
2896.05
2317.559
1684.56
1153.756
817.8859
684.352
707.2473
841.5852
1074.268
1411.985
1843.385
2310.075
2710.339
2934.464
2910.667
2636.358
2179.773
1653.216
1172.12
818.3805
621.7079
562.8656
592.9664
657.7446
716.4015
749.5645
756.8555
748.5726
736.8246
729.7537
729.8488
735.2891
742.4572
748.0814
750.3071
748.7652
744.0958
737.3828
729.7518
722.1682
715.3605
709.7912
705.6453
702.8511
701.1339
700.1526
699.4249
699.094
697.3108
1322.918
1328.143
1752.829
2381.481
2732.79
2684.857
2538.083
2598.74
2887.712
3201.041
3316.393
3125.745
2657.806
2041.115
1441.014
989.7859
741.5048
677.0242
748.915
926.5687
1207.299
1591.264
2046.344
2493.374
2824.464
2944.103
2809.598
2449.783
1954.007
1438.497
1006.403
718.2624
582.5587
566.1113
616.0601
682.4248
732.7151
755.5644
755.615
744.6506
733.7401
729.0145
731.2287
737.6728
744.6477
749.2623
750.1486
747.3198
741.6404
734.2948
726.4324
718.989
712.6154
707.6552
704.1576
701.9213
700.6245
699.7634
699.3974
697.7678
1368.454
1289.848
1493.03
2032.254
2549.775
2720.282
2616.621
2551.492
2712.97
3024.219
3266.283
3256.677
2941.658
2396.475
1773.503
1229.654
863.9409
695.7782
691.0059
809.0472
1032.852
1362.563
1784.637
2245.204
2650.259
2894.883
2904.964
2668.703
2242.428
1729.318
1242.312
867.9198
644.8794
563.1921
579.8388
641.5851
704.6812
745.0913
758.3992
752.8657
740.6752
731.3618
729.0612
733.0722
740.0967
746.5447
749.9695
749.4741
745.4138
738.8432
731.0219
723.0976
715.9467
710.113
705.8048
702.9274
701.2055
700.1334
699.6836
698.199
1409.52
1307.827
1348.531
1718.69
2267.857
2637.207
2678.572
2579.825
2608.434
2841.235
3136.381
3281.683
3142.136
2718.717
2126.159
1526.304
1054.334
773.2806
676.2254
724.7091
889.1582
1161.699
1537.437
1984.619
2429.958
2772.326
2918.296
2820.02
2495.768
2023.789
1513.688
1069.053
757.0801
595.6862
559.7994
600.5381
667.2461
723.6019
753.638
758.6441
749.1894
736.9971
729.7795
729.8109
735.2346
742.4306
748.0635
750.1655
748.285
743.0802
735.7623
727.637
719.8202
713.0973
707.8822
704.2305
701.9503
700.5624
699.9587
698.5962
1458.702
1363.045
1302.776
1489.695
1956.682
2440.318
2664.734
2634.002
2581.053
2698.146
2968.237
3212.588
3242.847
2977.444
2469.173
1860.57
1307.753
915.4567
713.7523
679.5991
778.2215
990.9999
1312.772
1726.967
2182.264
2590.993
2853.27
2894.204
2694.533
2299.543
1802.879
1313.63
921.3904
672.9502
567.4904
568.6017
625.1538
691.317
738.7241
758.6959
756.9128
745.0959
733.8689
729.0115
731.1494
737.5696
744.5563
749.1344
749.8272
746.5971
740.3658
732.4658
724.2163
716.6672
710.4856
705.9296
702.9386
701.0993
700.2437
698.9479
1437.408
1378.547
1313.41
1364.216
1683.945
2172.891
2549.349
2656.391
2604.908
2619.767
2807.772
3079.496
3243.455
3149.098
2771.214
2206.791
1611.399
1122.385
810.9814
681.4282
704.2907
852.7214
1115.637
1483.645
1924.157
2367.99
2719.921
2889.294
2824.755
2535.493
2089.095
1587.765
1134.047
800.4065
613.5384
556.746
586.0451
651.1512
712.6032
749.9496
760.7564
753.8069
741.0067
731.4523
729.0184
732.9425
739.9349
746.3696
749.7037
748.9472
744.441
737.3297
729.029
720.8342
713.6979
708.1352
704.275
701.8202
700.5836
699.2479
1914.214
1433.368
1306.07
1299.014
1483.861
1894.572
2345.986
2605.27
2634.327
2602.054
2690.362
2923.312
3161.779
3222.721
3004.04
2535.15
1945.087
1387.22
971.4177
737.663
673.3977
750.2187
949.6502
1262.682
1669.694
2120.544
2532.454
2810.238
2879.249
2714.372
2350.993
1873.224