/*--------------------------------*- C++ -*----------------------------------*\
| =========                 |                                                 |
| \\      /  F ield         | OpenFOAM: The Open Source CFD Toolbox           |
|  \\    /   O peration     | Version:  2312                                  |
|   \\  /    A nd           | Website:  www.openfoam.com                      |
|    \\/     M anipulation  |                                                 |
\*---------------------------------------------------------------------------*/
FoamFile
{
    version     2.0;
    format      ascii;
    arch        "LSB;label=32;scalar=64";
    class       volScalarField;
    location    "4500";
    object      ILambda_4_0;
}
// * * * * * * * * * * * * * * * * * * * * * * * * * * * * * * * * * * * * * //

dimensions      [1 0 -3 0 0 0 0];

internalField   nonuniform List<scalar> 
12000
(
3404.665
3404.192
3403.747
3403.341
3402.975
3402.642
3402.331
3402.038
3401.755
3401.473
3401.187
3400.889
3400.57
3400.222
3399.839
3399.409
3398.925
3398.375
3397.75
3397.038
3396.229
3395.311
3394.275
3393.109
3391.806
3390.357
3388.757
3387.002
3385.091
3383.024
3380.806
3378.444
3375.948
3373.331
3370.612
3367.808
3364.944
3362.044
3359.137
3356.252
3353.421
3350.676
3348.051
3345.579
3343.292
3341.221
3339.398
3337.848
3336.597
3335.667
3335.073
3334.829
3334.943
3335.416
3336.251
3337.439
3338.946
3340.847
3342.613
3346.566
3441.238
3441.172
3440.989
3440.694
3440.281
3439.743
3439.076
3438.276
3437.335
3436.247
3435.004
3433.599
3432.022
3430.264
3428.316
3426.171
3423.822
3421.265
3418.498
3415.524
3412.35
3408.988
3405.452
3401.766
3397.956
3394.053
3390.096
3386.124
3382.184
3378.324
3374.594
3371.047
3367.733
3364.705
3362.011
3359.698
3357.809
3356.378
3355.439
3355.013
3355.117
3355.757
3356.931
3358.628
3360.825
3363.491
3366.585
3370.055
3373.841
3377.871
3382.068
3386.345
3390.61
3394.758
3398.7
3402.298
3405.503
3408.031
3410.16
3411.135
3459.863
3457.759
3455.49
3453.061
3450.473
3447.727
3444.822
3441.75
3438.505
3435.081
3431.475
3427.685
3423.718
3419.585
3415.306
3410.906
3406.421
3401.895
3397.376
3392.922
3388.595
3384.459
3380.583
3377.034
3373.878
3371.179
3368.995
3367.375
3366.362
3365.989
3366.274
3367.227
3368.842
3371.1
3373.966
3377.394
3381.321
3385.672
3390.358
3395.279
3400.324
3405.371
3410.293
3414.952
3419.209
3422.92
3425.939
3428.12
3429.321
3429.403
3428.23
3425.675
3421.619
3415.949
3408.582
3399.371
3388.487
3374.781
3362.811
3333.66
3449.478
3445.415
3441.271
3437.022
3432.659
3428.177
3423.574
3418.86
3414.063
3409.226
3404.409
3399.684
3395.137
3390.858
3386.945
3383.493
3380.596
3378.34
3376.798
3376.032
3376.086
3376.984
3378.731
3381.311
3384.684
3388.787
3393.537
3398.83
3404.542
3410.531
3416.64
3422.699
3428.526
3433.933
3438.725
3442.708
3445.686
3447.467
3447.867
3446.708
3443.825
3439.068
3432.298
3423.396
3412.26
3398.809
3382.979
3364.73
3344.041
3320.912
3295.365
3267.44
3237.198
3204.714
3170.109
3133.385
3095.173
3053.311
3018
2946.773
3418.87
3414.556
3410.111
3405.567
3401.044
3396.668
3392.592
3388.987
3386.024
3383.863
3382.642
3382.466
3383.408
3385.498
3388.725
3393.037
3398.337
3404.493
3411.335
3418.659
3426.237
3433.817
3441.131
3447.899
3453.835
3458.655
3462.079
3463.835
3463.67
3461.346
3456.649
3449.39
3439.409
3426.574
3410.784
3391.974
3370.106
3345.179
3317.22
3286.29
3252.475
3215.893
3176.685
3135.013
3091.065
3045.041
2997.16
2947.652
2896.757
2844.721
2791.794
2738.229
2684.275
2630.174
2576.197
2522.442
2469.707
2415.693
2371.324
2290.99
3394.902
3391.677
3388.986
3387.434
3387.442
3389.193
3392.764
3398.11
3405.057
3413.332
3422.587
3432.409
3442.345
3451.915
3460.629
3467.999
3473.555
3476.851
3477.478
3475.069
3469.306
3459.924
3446.716
3429.53
3408.274
3382.913
3353.468
3320.013
3282.673
3241.618
3197.06
3149.249
3098.467
3045.022
2989.245
2931.482
2872.092
2811.44
2749.893
2687.814
2625.561
2563.481
2501.906
2441.151
2381.512
2323.262
2266.651
2211.902
2159.215
2108.758
2060.675
2015.081
1972.065
1931.681
1893.993
1858.918
1826.745
1796.311
1772.133
1734.198
3393.838
3399.573
3409.584
3422.697
3437.274
3451.792
3464.974
3475.641
3482.76
3485.478
3483.109
3475.129
3461.175
3441.028
3414.612
3381.974
3343.277
3298.784
3248.847
3193.889
3134.397
3070.905
3003.98
2934.218
2862.221
2788.6
2713.956
2638.875
2563.923
2489.636
2416.517
2345.03
2275.599
2208.601
2144.369
2083.189
2025.297
1970.883
1920.092
1873.02
1829.724
1790.217
1754.473
1722.433
1694.002
1669.058
1647.449
1629.004
1613.529
1600.815
1590.64
1582.769
1576.964
1572.976
1570.572
1569.49
1569.465
1570.442
1571.508
1574.765
3436.49
3465.404
3478.38
3475.35
3456.831
3423.995
3378.187
3320.711
3252.989
3176.503
3092.736
3003.152
2909.177
2812.175
2713.441
2614.182
2515.511
2418.438
2323.869
2232.599
2145.315
2062.597
1984.916
1912.644
1846.054
1785.324
1730.551
1681.747
1638.855
1601.75
1570.25
1544.12
1523.082
1506.823
1494.997
1487.235
1483.153
1482.352
1484.429
1488.98
1495.604
1503.908
1513.511
1524.044
1535.158
1546.523
1557.83
1568.795
1579.156
1588.679
1597.153
1604.394
1610.245
1614.572
1617.271
1618.252
1617.505
1614.598
1611.537
1599.881
3352.541
3161.547
2972.698
2788.104
2609.982
2440.317
2280.482
2131.525
1994.3
1869.373
1757.046
1657.414
1570.38
1495.686
1432.932
1381.602
1341.081
1310.679
1289.644
1277.182
1272.471
1274.671
1282.94
1296.445
1314.368
1335.915
1360.325
1386.872
1414.874
1443.694
1472.741
1501.477
1529.414
1556.117
1581.201
1604.335
1625.234
1643.665
1659.441
1672.417
1682.494
1689.607
1693.733
1694.879
1693.083
1688.412
1680.958
1670.833
1658.168
1643.112
1625.826
1606.481
1585.257
1562.341
1537.931
1512.154
1485.546
1456.703
1432.6
1385.081
712.8513
650.5818
612.4115
596.6655
600.8882
622.1788
657.792
705.3238
762.4904
827.1612
897.4008
971.4506
1047.725
1124.805
1201.435
1276.51
1349.073
1418.308
1483.527
1544.165
1599.772
1650.003
1694.609
1733.432
1766.391
1793.48
1814.757
1830.338
1840.385
1845.108
1844.75
1839.585
1829.911
1816.047
1798.324
1777.083
1752.672
1725.438
1695.728
1663.883
1630.236
1595.113
1558.823
1521.666
1483.925
1445.866
1407.738
1369.773
1332.186
1295.17
1258.902
1223.54
1189.224
1156.074
1124.212
1093.646
1064.752
1036.406
1013.499
975.1186
878.899
1090.148
1281.212
1452.055
1603.038
1734.842
1848.467
1944.862
2024.95
2089.709
2140.143
2177.255
2202.048
2215.516
2218.638
2212.374
2197.658
2175.397
2146.463
2111.692
2071.884
2027.796
1980.144
1929.6
1876.795
1822.312
1766.692
1710.432
1653.986
1597.766
1542.141
1487.442
1433.96
1381.952
1331.636
1283.2
1236.798
1192.557
1150.574
1110.921
1073.647
1038.779
1006.324
976.2717
948.5941
923.2499
900.185
879.3339
860.6218
843.9657
829.2758
816.4569
805.41
796.0307
788.2233
781.8648
776.8478
773.146
770.4374
768.7265
3392.098
3252.399
3113.372
2975.571
2839.492
2705.89
2575.309
2448.11
2324.704
2205.451
2090.633
1980.49
1875.209
1774.936
1679.773
1589.783
1504.992
1425.394
1350.953
1281.603
1217.255
1157.799
1103.105
1053.024
1007.397
966.0493
928.7984
895.4533
865.8173
839.6898
816.8676
797.1469
780.3242
766.1978
754.5689
745.2427
738.029
732.7433
729.2071
727.2488
726.704
727.4157
729.235
732.0209
735.6404
739.969
744.8903
750.2962
756.0865
762.169
768.4596
774.8813
781.3647
787.8479
794.2724
800.6094
806.7203
812.9016
817.9155
826.5933
805.0644
764.9323
729.119
697.6016
670.3347
647.0833
627.5657
611.5739
598.8821
589.2507
582.4467
578.2401
576.4052
576.7222
578.9774
582.9648
588.4863
595.3525
603.3831
612.4074
622.2646
632.8036
643.8836
655.3738
667.1535
679.1119
691.1477
703.1695
715.0947
726.8497
738.3695
749.5972
760.4834
770.9864
781.071
790.7085
799.8764
808.5576
816.7399
824.4161
831.5831
838.2417
844.3962
850.0538
855.2247
859.9215
864.1586
867.9525
871.3211
874.2837
876.8606
879.073
880.9425
882.4926
883.7433
884.72
885.4404
885.9144
886.2521
886.1726
843.1484
845.0451
847.473
850.3797
853.6561
857.2235
861.0026
864.914
868.8883
872.8634
876.7848
880.6051
884.2833
887.7851
891.0818
894.1504
896.973
899.5362
901.8312
903.8527
905.5993
907.0723
908.2761
909.2174
909.9048
910.3489
910.5616
910.5559
910.3459
909.946
909.3713
908.6372
907.7588
906.7515
905.6303
904.4098
903.1044
901.7277
900.293
898.8129
897.2996
895.7644
894.218
892.6708
891.1322
889.6111
888.116
886.6546
885.2342
883.8615
882.5429
881.2842
880.0906
878.9676
877.9209
876.9443
876.0585
875.2335
874.5774
873.5892
858.7409
859.4334
860.0447
860.5945
861.0898
861.5274
861.9072
862.2308
862.4994
862.7153
862.882
863.0032
863.0834
863.1274
863.1404
863.1276
863.0942
863.0453
862.9858
862.9203
862.8532
862.7883
862.729
862.6785
862.6391
862.6131
862.6021
862.6072
862.6293
862.6689
862.7261
862.8009
862.8931
863.0024
863.1283
863.2705
863.4287
863.6028
863.7927
863.9988
864.2213
864.461
864.7188
864.9956
865.2927
865.6115
865.9533
866.3195
866.7115
867.1303
867.5769
868.0521
868.5557
869.088
869.6501
870.2289
870.832
871.4765
872.017
873.0236
867.8895
868.3351
868.7347
869.1144
869.4843
869.847
870.2046
870.5585
870.9093
871.2571
871.6021
871.944
872.2825
872.6172
872.9473
873.272
873.5901
873.9005
874.2016
874.492
874.7699
875.0338
875.282
875.513
875.7256
875.9186
876.0913
876.2434
876.3751
876.4869
876.5801
876.6563
876.7177
876.7671
876.8078
876.8432
876.8774
876.9145
876.9588
877.0146
877.0859
877.1764
877.2895
877.4277
877.5927
877.7853
878.0053
878.2508
878.519
878.8055
879.1043
879.4079
879.707
879.9918
880.252
880.4572
880.6289
880.678
880.7621
880.3409
874.6003
874.9317
875.2142
875.4708
875.7089
875.9306
876.1367
876.3277
876.503
876.6619
876.8036
876.9272
877.0316
877.1159
877.179
877.2202
877.2386
877.234
877.206
877.1552
877.0822
876.9887
876.8767
876.749
876.6092
876.4612
876.3098
876.1603
876.0181
875.889
875.7787
875.6929
875.6368
875.6149
875.631
875.6876
875.7862
875.9266
876.1069
876.3233
876.5702
876.8397
877.122
877.4048
877.6739
877.9129
878.1036
878.2257
878.2576
878.1763
877.9576
877.5769
877.0086
876.2293
875.2142
873.9207
872.3914
870.3903
868.6888
864.173
879.3786
879.4652
879.4957
879.4909
879.4588
879.4024
879.3234
879.2223
879.0993
878.9543
878.7874
878.5991
878.39
878.1618
877.9166
877.6575
877.3885
877.1144
876.8409
876.5744
876.3216
876.0897
875.8859
875.717
875.5892
875.508
875.4772
875.4992
875.5744
875.7009
875.8744
876.088
876.3317
876.5929
876.8562
877.103
877.3126
877.4612
877.5234
877.4717
877.2769
876.9092
876.3379
875.5326
874.463
873.1003
871.4171
869.3882
866.9912
864.2072
861.0211
857.4221
853.4039
848.9688
844.1164
838.8481
833.2503
827.0209
821.6561
810.7018
880.1353
879.913
879.6355
879.3246
878.9907
878.638
878.2691
877.8868
877.4943
877.0961
876.6978
876.3066
875.9305
875.5785
875.2602
874.985
874.7615
874.5974
874.4982
874.467
874.5042
874.6066
874.7673
874.9755
875.2162
875.4703
875.7148
875.9229
876.0643
876.106
876.0123
875.7462
875.2693
874.5433
873.5304
872.1942
870.5005
868.4185
865.9211
862.986
859.5963
855.7412
851.4164
846.6248
841.3771
835.6914
829.5939
823.1193
816.3098
809.2162
801.8969
794.4177
786.8513
779.2818
771.7823
764.4595
757.4075
750.6288
744.9343
736.4396
877.0243
876.641
876.21
875.7619
875.3138
874.8764
874.4614
874.0821
873.7527
873.4866
873.2955
873.1883
873.1694
873.2382
873.388
873.6054
873.8707
874.1572
874.4321
874.6567
874.7876
874.7777
874.5768
874.1338
873.3972
872.3171
870.8464
868.9419
866.5663
863.6886
860.2858
856.3437
851.8577
846.8333
841.2869
835.2462
828.7497
821.8475
814.6003
807.0799
799.3678
791.5552
783.7418
776.0351
768.5494
761.4047
754.7254
748.6392
743.2761
738.7669
735.2421
732.8304
731.658
731.8517
733.5079
736.7988
741.6159
748.8978
755.3667
774.1665
873.0365
872.7763
872.4984
872.2691
872.1198
872.0706
872.135
872.3128
872.5901
872.9383
873.3156
873.6678
873.9312
874.0346
873.9027
873.4585
872.6267
871.3362
869.5231
867.1332
864.1235
860.465
856.1431
851.1598
845.5333
839.2993
832.5103
825.2358
817.5613
809.5876
801.4294
793.2143
785.0807
777.1768
769.6581
762.686
756.4255
751.0437
746.7073
743.5811
741.8262
741.598
743.0445
746.3054
751.5098
758.7757
768.2086
779.9006
793.9297
810.359
829.2369
850.5955
874.453
900.8149
929.6382
961.0174
994.3792
1031.985
1063.849
1131.165
872.1198
872.3054
872.6135
873.0715
873.597
874.0922
874.4337
874.4781
874.0828
873.1134
871.4533
869.0084
865.7125
861.5295
856.4554
850.5184
843.7786
836.3266
828.2815
819.788
811.014
802.1468
793.39
784.9594
777.0796
769.9805
763.8933
759.0473
755.6671
753.9687
754.1575
756.4256
760.9495
767.8885
777.3826
789.5521
804.4956
822.2904
842.9911
866.6304
893.2184
922.7437
955.1735
990.4544
1028.514
1069.26
1112.586
1158.366
1206.462
1256.722
1308.983
1363.072
1418.81
1476.013
1534.451
1594.096
1654.017
1717.218
1769.73
1869.781
876.4491
877.0708
877.2773
876.5914
874.6576
871.3237
866.5201
860.2766
852.7258
844.075
834.5929
824.5946
814.4285
804.4644
795.0833
786.6674
779.5922
774.2196
770.8913
769.9243
771.6063
776.1932
783.9058
794.9289
809.41
827.4592
849.1489
874.5151
903.5584
936.245
972.5093
1012.255
1055.359
1101.672
1151.021
1203.215
1258.044
1315.284
1374.697
1436.038
1499.053
1563.485
1629.072
1695.556
1762.678
1830.183
1897.822
1965.355
2032.548
2099.177
2165.032
2229.912
2293.629
2356.015
2416.874
2476.204
2533.295
2590.462
2637.146
2718.536
882.362
876.6496
867.1529
854.9601
841.4869
828.0235
815.6108
805.1925
797.5895
793.4786
793.4125
797.8269
807.0487
821.3046
840.7295
865.3747
895.2164
930.1634
970.0655
1014.72
1063.881
1117.264
1174.552
1235.407
1299.468
1366.362
1435.708
1507.119
1580.21
1654.598
1729.909
1805.777
1881.85
1957.792
2033.282
2108.018
2181.717
2254.119
2324.983
2394.091
2461.246
2526.274
2589.022
2649.359
2707.175
2762.38
2814.902
2864.692
2911.713
2955.949
2997.397
3036.071
3071.996
3105.215
3135.757
3163.737
3189.063
3212.439
3231.047
3258.638
870.4886
844.3131
832.2846
834.0031
848.7266
875.3161
912.5754
959.4619
1014.928
1077.932
1147.481
1222.619
1302.436
1386.065
1472.691
1561.546
1651.913
1743.126
1834.57
1925.681
2015.946
2104.901
2192.129
2277.262
2359.975
2439.989
2517.064
2591.001
2661.638
2728.848
2792.537
2852.642
2909.126
2961.981
3011.221
3056.881
3099.017
3137.699
3173.016
3205.067
3233.962
3259.822
3282.775
3302.955
3320.5
3335.551
3348.253
3358.748
3367.181
3373.694
3378.428
3381.519
3383.102
3383.308
3382.26
3380.062
3376.946
3372.551
3368.697
3358.961
979.337
1149.443
1314.078
1472.872
1625.544
1771.687
1911.14
2043.842
2169.688
2288.628
2400.67
2505.855
2604.26
2695.99
2781.182
2859.993
2932.607
2999.221
3060.051
3115.326
3165.285
3210.175
3250.248
3285.763
3316.978
3344.152
3367.543
3387.407
3403.992
3417.546
3428.307
3436.506
3442.366
3446.103
3447.922
3448.017
3446.574
3443.769
3439.764
3434.714
3428.762
3422.04
3414.672
3406.77
3398.436
3389.764
3380.838
3371.734
3362.521
3353.258
3344
3334.794
3325.68
3316.693
3307.87
3299.213
3290.841
3282.394
3275.45
3263.198
3422.531
3458.365
3489.498
3516.067
3538.254
3556.368
3570.756
3581.696
3589.465
3594.348
3596.613
3596.519
3594.313
3590.231
3584.496
3577.32
3568.9
3559.424
3549.063
3537.98
3526.324
3514.23
3501.824
3489.218
3476.515
3463.806
3451.172
3438.683
3426.4
3414.376
3402.654
3391.269
3380.251
3369.619
3359.39
3349.571
3340.168
3331.179
3322.6
3314.423
3306.637
3299.23
3292.185
3285.488
3279.122
3273.069
3267.314
3261.84
3256.631
3251.674
3246.956
3242.466
3238.197
3234.139
3230.29
3226.648
3223.206
3219.928
3217.171
3212.853
3393.645
3390.506
3386.779
3382.565
3377.99
3373.137
3368.087
3362.916
3357.687
3352.457
3347.274
3342.178
3337.204
3332.38
3327.728
3323.265
3319.003
3314.95
3311.11
3307.483
3304.065
3300.849
3297.828
3294.988
3292.316
3289.797
3287.415
3285.15
3282.985
3280.901
3278.878
3276.899
3274.946
3273.002
3271.053
3269.085
3267.086
3265.049
3262.967
3260.837
3258.657
3256.43
3254.161
3251.859
3249.534
3247.2
3244.873
3242.571
3240.315
3238.126
3236.028
3234.045
3232.202
3230.521
3229.029
3227.753
3226.691
3225.912
3225.321
3225.133
3386.829
3384.312
3381.733
3379.13
3376.516
3373.903
3371.296
3368.696
3366.104
3363.52
3360.94
3358.364
3355.786
3353.204
3350.61
3348
3345.366
3342.701
3339.997
3337.245
3334.437
3331.564
3328.618
3325.593
3322.482
3319.281
3315.986
3312.598
3309.118
3305.55
3301.903
3298.186
3294.414
3290.602
3286.771
3282.944
3279.145
3275.403
3271.747
3268.208
3264.819
3261.613
3258.622
3255.879
3253.413
3251.255
3249.43
3247.962
3246.868
3246.165
3245.861
3245.961
3246.465
3247.362
3248.647
3250.286
3252.257
3254.581
3256.764
3261.151
3376.617
3373.647
3370.592
3367.489
3364.35
3361.182
3357.991
3354.777
3351.54
3348.279
3344.992
3341.675
3338.323
3334.93
3331.489
3327.995
3324.442
3320.826
3317.145
3313.399
3309.592
3305.729
3301.823
3297.885
3293.937
3289.999
3286.099
3282.266
3278.533
3274.937
3271.515
3268.306
3265.349
3262.682
3260.343
3258.367
3256.785
3255.625
3254.908
3254.652
3254.864
3255.549
3256.7
3258.304
3260.338
3262.77
3265.562
3268.664
3272.018
3275.559
3279.214
3282.901
3286.534
3290.015
3293.259
3296.13
3298.607
3300.348
3301.837
3301.556
3359.928
3356.622
3353.257
3349.862
3346.447
3343.016
3339.565
3336.088
3332.574
3329.015
3325.403
3321.732
3318.002
3314.215
3310.38
3306.513
3302.637
3298.778
3294.973
3291.26
3287.684
3284.293
3281.137
3278.268
3275.735
3273.587
3271.869
3270.619
3269.871
3269.648
3269.968
3270.834
3272.242
3274.175
3276.603
3279.485
3282.769
3286.387
3290.264
3294.311
3298.43
3302.514
3306.446
3310.106
3313.364
3316.088
3318.145
3319.398
3319.713
3318.956
3316.997
3313.713
3308.986
3302.704
3294.78
3285.058
3273.735
3259.586
3247.319
3217.567
3339.81
3336.433
3333.005
3329.523
3325.984
3322.38
3318.705
3314.962
3311.168
3307.35
3303.552
3299.827
3296.237
3292.853
3289.748
3286.998
3284.675
3282.847
3281.575
3280.908
3280.882
3281.52
3282.825
3284.787
3287.373
3290.536
3294.206
3298.299
3302.711
3307.323
3312.002
3316.603
3320.969
3324.936
3328.332
3330.983
3332.714
3333.349
3332.717
3330.654
3327
3321.611
3314.349
3305.094
3293.739
3280.195
3264.391
3246.272
3225.805
3202.976
3177.79
3150.275
3120.474
3088.452
3054.308
3018.047
2980.278
2938.867
2903.879
2833.298
3319.714
3316.418
3312.949
3309.342
3305.698
3302.118
3298.724
3295.655
3293.049
3291.036
3289.729
3289.216
3289.56
3290.79
3292.902
3295.858
3299.587
3303.984
3308.913
3314.212
3319.694
3325.151
3330.359
3335.083
3339.078
3342.099
3343.899
3344.239
3342.887
3339.628
3334.258
3326.597
3316.484
3303.783
3288.386
3270.208
3249.196
3225.324
3198.596
3169.042
3136.723
3101.726
3064.163
3024.173
2981.914
2937.569
2891.337
2843.435
2794.095
2743.56
2692.084
2639.928
2587.358
2534.642
2482.064
2429.798
2378.591
2326.467
2283.514
2207.166
3302.259
3299.062
3296.18
3294.126
3293.252
3293.717
3295.596
3298.862
3303.386
3308.958
3315.303
3322.095
3328.969
3335.535
3341.391
3346.132
3349.359
3350.693
3349.774
3346.278
3339.912
3330.427
3317.615
3301.316
3281.415
3257.848
3230.596
3199.687
3165.195
3127.237
3085.967
3041.581
2994.305
2944.396
2892.139
2837.839
2781.821
2724.424
2665.996
2606.893
2547.475
2488.1
2429.12
2370.884
2313.728
2257.977
2203.939
2151.908
2102.155
2054.934
2010.476
1968.989
1930.659
1895.644
1864.087
1836.082
1811.779
1790.987
1774.948
1756.941
3289.757
3292.743
3299.138
3308.03
3318.104
3328.141
3337.114
3344.064
3348.145
3348.641
3344.964
3336.65
3323.355
3304.848
3281.01
3251.821
3217.357
3177.777
3133.321
3084.292
3031.054
2974.02
2913.645
2850.413
2784.835
2717.435
2648.746
2579.305
2509.64
2440.271
2371.701
2304.412
2238.863
2175.483
2114.672
2056.796
2002.186
1951.138
1903.91
1860.723
1821.762
1787.172
1757.065
1731.518
1710.572
1694.238
1682.495
1675.292
1672.554
1674.179
1680.042
1689.999
1703.888
1721.525
1742.706
1767.318
1794.656
1826.648
1854.009
1913.612
3299.254
3320.799
3329.38
3324.979
3307.969
3279.242
3239.808
3190.622
3132.734
3067.248
2995.28
2917.951
2836.368
2751.618
2664.749
2576.769
2488.633
2401.237
2315.414
2231.928
2151.475
2074.678
2002.085
1934.174
1871.351
1813.949
1762.235
1716.412
1676.617
1642.931
1615.381
1593.94
1578.538
1569.058
1565.349
1567.223
1574.464
1586.83
1604.054
1625.856
1651.936
1681.987
1715.69
1752.725
1792.764
1835.483
1880.56
1927.673
1976.51
2026.763
2078.136
2130.34
2183.097
2236.143
2289.201
2342.163
2394.201
2447.601
2491.605
2571.159
3203.593
3045.729
2889.463
2736.096
2587.111
2443.978
2307.736
2179.248
2059.303
1948.521
1847.36
1756.145
1675.079
1604.247
1543.631
1493.12
1452.519
1421.559
1399.91
1387.185
1382.954
1386.75
1398.077
1416.417
1441.239
1472.001
1508.161
1549.177
1594.517
1643.656
1696.085
1751.311
1808.861
1868.283
1929.147
1991.047
2053.6
2116.45
2179.265
2241.735
2303.577
2364.532
2424.362
2482.851
2539.806
2595.051
2648.432
2699.811
2749.067
2796.094
2840.803
2883.114
2922.963
2960.298
2995.064
3027.276
3056.73
3084.117
3106.128
3138.632
1024.696
969.0694
929.71
906.1745
897.663
902.9128
920.5746
949.4896
988.4919
1036.418
1092.159
1154.652
1222.886
1295.904
1372.807
1452.755
1534.967
1618.725
1703.371
1788.305
1872.988
1956.936
2039.72
2120.963
2200.336
2277.559
2352.392
2424.637
2494.129
2560.74
2624.368
2684.942
2742.41
2796.743
2847.928
2895.969
2940.881
2982.69
3021.43
3057.142
3089.871
3119.667
3146.58
3170.664
3191.971
3210.554
3226.466
3239.758
3250.479
3258.679
3264.405
3267.704
3268.62
3267.196
3263.49
3257.478
3249.491
3238.427
3228.753
3203.378
1148.141
1295.099
1437.65
1575.391
1707.965
1834.947
1956.125
2071.384
2180.595
2283.69
2380.671
2471.583
2556.515
2635.595
2708.981
2776.86
2839.441
2896.948
2949.616
2997.69
3041.415
3081.036
3116.794
3148.923
3177.645
3203.174
3225.708
3245.43
3262.509
3277.098
3289.333
3299.335
3307.209
3313.043
3316.916
3318.889
3319.013
3317.328
3313.866
3308.649
3301.692
3293.007
3282.6
3270.476
3256.636
3241.084
3223.822
3204.856
3184.194
3161.848
3137.834
3112.173
3084.891
3056.017
3025.618
2993.614
2960.557
2924.41
2894.05
2832.576
3240.816
3269.368
3293.66
3313.822
3330.086
3342.803
3352.373
3359.151
3363.492
3365.751
3366.256
3365.31
3363.184
3360.118
3356.314
3351.941
3347.134
3341.99
3336.577
3330.931
3325.058
3318.94
3312.537
3305.787
3298.615
3290.929
3282.628
3273.606
3263.748
3252.943
3241.075
3228.037
3213.723
3198.037
3180.89
3162.204
3141.914
3119.965
3096.316
3070.94
3043.823
3014.967
2984.384
2952.103
2918.165
2882.622
2845.54
2806.995
2767.074
2725.872
2683.493
2640.049
2595.657
2550.436
2504.543
2457.976
2411.418
2362.597
2322.053
2245.397
3180.783
3175.298
3169.617
3164.218
3159.494
3155.645
3152.794
3150.99
3150.19
3150.287
3151.121
3152.491
3154.163
3155.883
3157.382
3158.388
3158.627
3157.835
3155.758
3152.158
3146.817
3139.539
3130.154
3118.516
3104.505
3088.032
3069.032
3047.469
3023.333
2996.639
2967.426
2935.757
2901.715
2865.402
2826.939
2786.461
2744.118
2700.07
2654.487
2607.547
2559.434
2510.335
2460.44
2409.938
2359.019
2307.869
2256.669
2205.598
2154.827
2104.52
2054.832
2005.911
1957.896
1910.91
1865.098
1820.46
1777.519
1734.547
1699.456
1638.237
3144.007
3144.755
3148.346
3154.008
3160.693
3167.441
3173.471
3178.07
3180.62
3180.609
3177.621
3171.325
3161.475
3147.898
3130.494
3109.224
3084.106
3055.209
3022.647
2986.574
2947.177
2904.672
2859.298
2811.313
2760.989
2708.61
2654.463
2598.842
2542.038
2484.341
2426.033
2367.391
2308.68
2250.154
2192.054
2134.608
2078.027
2022.507
1968.228
1915.354
1864.03
1814.386
1766.534
1720.571
1676.576
1634.616
1594.739
1556.982
1521.366
1487.901
1456.584
1427.402
1400.332
1375.336
1352.388
1331.395
1312.425
1294.93
1281.039
1260.364
3132.961
3150.002
3156.27
3152.129
3138.18
3115.306
3084.428
3046.345
3001.86
2951.769
2896.831
2837.774
2775.292
2710.045
2642.654
2573.702
2503.733
2433.252
2362.723
2292.574
2223.191
2154.924
2088.085
2022.95
1959.76
1898.724
1840.019
1783.789
1730.153
1679.201
1630.999
1585.589
1542.992
1503.21
1466.224
1432.004
1400.501
1371.655
1345.394
1321.638
1300.296
1281.272
1264.464
1249.765
1237.064
1226.25
1217.209
1209.825
1203.985
1199.575
1196.485
1194.604
1193.827
1194.048
1195.168
1197.102
1199.676
1203.126
1206.152
1213.327
3042.802
2912.11
2785.634
2663.716
2546.597
2434.592
2327.822
2226.331
2130.193
2039.44
1954.06
1874.014
1799.237
1729.641
1665.113
1605.525
1550.732
1500.572
1454.875
1413.457
1376.129
1342.696
1312.957
1286.708
1263.747
1243.869
1226.871
1212.555
1200.723
1191.184
1183.751
1178.245
1174.49
1172.321
1171.578
1172.109
1173.771
1176.427
1179.949
1184.219
1189.124
1194.561
1200.433
1206.652
1213.136
1219.81
1226.607
1233.464
1240.327
1247.143
1253.87
1260.466
1266.897
1273.132
1279.14
1284.912
1290.373
1295.703
1300.059
1307.128
1201.525
1175.11
1152.228
1132.83
1116.799
1103.899
1093.864
1086.478
1081.523
1078.775
1078.024
1079.066
1081.706
1085.758
1091.046
1097.404
1104.674
1112.711
1121.377
1130.547
1140.104
1149.941
1159.961
1170.075
1180.206
1190.283
1200.244
1210.034
1219.607
1228.924
1237.95
1246.659
1255.028
1263.042
1270.686
1277.954
1284.839
1291.341
1297.459
1303.198
1308.56
1313.554
1318.185
1322.462
1326.393
1329.988
1333.255
1336.202
1338.84
1341.176
1343.218
1344.975
1346.454
1347.664
1348.608
1349.291
1349.744
1349.886
1349.979
1349.243
1265.186
1268.724
1272.561
1276.676
1280.994
1285.457
1290.006
1294.583
1299.138
1303.626
1308.009
1312.255
1316.337
1320.232
1323.925
1327.402
1330.655
1333.68
1336.477
1339.047
1341.396
1343.53
1345.459
1347.193
1348.745
1350.125
1351.348
1352.427
1353.373
1354.2
1354.917
1355.537
1356.067
1356.516
1356.891
1357.195
1357.432
1357.604
1357.712
1357.754
1357.728
1357.631
1357.458
1357.205
1356.866
1356.435
1355.906
1355.273
1354.532
1353.677
1352.704
1351.613
1350.4
1349.069
1347.619
1346.049
1344.394
1342.556
1340.972
1337.767
1308.115
1310.273
1312.297
1314.214
1316.039
1317.774
1319.421
1320.985
1322.47
1323.879
1325.219
1326.497
1327.719
1328.895
1330.033
1331.141
1332.229
1333.304
1334.375
1335.446
1336.524
1337.611
1338.71
1339.821
1340.941
1342.068
1343.195
1344.315
1345.419
1346.497
1347.536
1348.523
1349.445
1350.288
1351.037
1351.679
1352.201
1352.589
1352.834
1352.924
1352.854
1352.617
1352.21
1351.634
1350.891
1349.987
1348.931
1347.734
1346.413
1344.985
1343.473
1341.902
1340.299
1338.698
1337.125
1335.627
1334.223
1332.993
1331.926
1330.825
1339.198
1340.65
1342.003
1343.289
1344.531
1345.74
1346.926
1348.098
1349.266
1350.436
1351.617
1352.813
1354.03
1355.269
1356.53
1357.81
1359.102
1360.398
1361.688
1362.957
1364.191
1365.372
1366.482
1367.501
1368.411
1369.193
1369.828
1370.299
1370.593
1370.696
1370.6
1370.298
1369.788
1369.072
1368.156
1367.049
1365.767
1364.328
1362.755
1361.078
1359.326
1357.537
1355.75
1354.007
1352.354
1350.839
1349.512
1348.425
1347.632
1347.185
1347.14
1347.549
1348.465
1349.943
1352.021
1354.78
1358.152
1362.615
1366.479
1376.527
1362.728
1363.854
1364.926
1365.988
1367.068
1368.18
1369.332
1370.528
1371.765
1373.034
1374.32
1375.604
1376.862
1378.069
1379.197
1380.215
1381.096
1381.812
1382.339
1382.655
1382.743
1382.591
1382.193
1381.548
1380.663
1379.551
1378.231
1376.729
1375.078
1373.317
1371.491
1369.648
1367.844
1366.136
1364.587
1363.261
1362.224
1361.544
1361.287
1361.523
1362.317
1363.734
1365.835
1368.68
1372.325
1376.819
1382.21
1388.538
1395.841
1404.147
1413.482
1423.862
1435.302
1447.807
1461.363
1476.023
1491.523
1508.917
1523.624
1554.534
1384.58
1385.99
1387.408
1388.865
1390.349
1391.83
1393.263
1394.598
1395.782
1396.763
1397.496
1397.945
1398.083
1397.894
1397.375
1396.535
1395.394
1393.987
1392.358
1390.561
1388.66
1386.727
1384.841
1383.087
1381.552
1380.328
1379.507
1379.18
1379.439
1380.372
1382.062
1384.591
1388.032
1392.454
1397.917
1404.474
1412.17
1421.043
1431.121
1442.422
1454.957
1468.728
1483.728
1499.942
1517.345
1535.908
1555.59
1576.346
1598.125
1620.869
1644.514
1668.992
1694.231
1720.159
1746.679
1773.786
1801.06
1829.887
1853.861
1899.694
1411.919
1413.727
1415.356
1416.647
1417.479
1417.796
1417.57
1416.809
1415.559
1413.895
1411.917
1409.742
1407.502
1405.339
1403.399
1401.831
1400.784
1400.399
1400.816
1402.161
1404.553
1408.099
1412.892
1419.012
1426.526
1435.485
1445.927
1457.874
1471.336
1486.307
1502.771
1520.698
1540.045
1560.762
1582.785
1606.045
1630.463
1655.954
1682.425
1709.782
1737.923
1766.745
1796.144
1826.012
1856.241
1886.726
1917.359
1948.035
1978.653
2009.113
2039.317
2069.174
2098.594
2127.495
2155.782
2183.441
2210.139
2236.942
2258.882
2297.215
1444.322
1444.195
1442.592
1439.93
1436.752
1433.552
1430.725
1428.638
1427.612
1427.916
1429.775
1433.37
1438.841
1446.292
1455.79
1467.371
1481.04
1496.778
1514.538
1534.256
1555.846
1579.209
1604.231
1630.785
1658.737
1687.946
1718.265
1749.544
1781.631
1814.373
1847.621
1881.225
1915.04
1948.924
1982.743
2016.364
2049.666
2082.53
2114.846
2146.511
2177.431
2207.517
2236.69
2264.876
2292.013
2318.041
2342.91
2366.578
2389.007
2410.168
2430.036
2448.594
2465.829
2481.735
2496.305
2509.557
2521.443
2532.201
2540.735
2552.546
1477.581
1469.943
1467.515
1470.225
1477.877
1490.097
1506.477
1526.663
1550.289
1576.983
1606.385
1638.144
1671.92
1707.387
1744.232
1782.157
1820.881
1860.139
1899.683
1939.282
1978.723
2017.81
2056.365
2094.225
2131.244
2167.291
2202.253
2236.028
2268.53
2299.684
2329.43
2357.717
2384.506
2409.767
2433.481
2455.634
2476.222
2495.248
2512.72
2528.653
2543.064
2555.978
2567.42
2577.423
2586.017
2593.24
2599.127
2603.719
2607.056
2609.178
2610.129
2609.952
2608.689
2606.385
2603.088
2598.811
2593.732
2587.352
2581.847
2568.775
1563.025
1629.696
1694.923
1758.553
1820.436
1880.346
1938.151
1993.766
2047.091
2098.047
2146.583
2192.662
2236.267
2277.392
2316.047
2352.253
2386.043
2417.457
2446.546
2473.365
2497.977
2520.446
2540.844
2559.241
2575.712
2590.331
2603.174
2614.315
2623.828
2631.786
2638.26
2643.319
2647.031
2649.46
2650.67
2650.721
2649.67
2647.573
2644.483
2640.451
2635.526
2629.754
2623.181
2615.848
2607.797
2599.069
2589.701
2579.731
2569.194
2558.128
2546.565
2534.54
2522.088
2509.238
2496.035
2482.464
2468.747
2454.126
2441.946
2418.234
2544.216
2568.426
2590.272
2609.818
2627.143
2642.362
2655.62
2667.036
2676.724
2684.8
2691.374
2696.551
2700.431
2703.105
2704.661
2705.18
2704.735
2703.393
2701.215
2698.257
2694.568
2690.193
2685.171
2679.536
2673.319
2666.548
2659.245
2651.432
2643.128
2634.35
2625.112
2615.43
2605.317
2594.786