/*--------------------------------*- C++ -*----------------------------------*\
| =========                 |                                                 |
| \\      /  F ield         | OpenFOAM: The Open Source CFD Toolbox           |
|  \\    /   O peration     | Version:  2312                                  |
|   \\  /    A nd           | Website:  www.openfoam.com                      |
|    \\/     M anipulation  |                                                 |
\*---------------------------------------------------------------------------*/
FoamFile
{
    version     2.0;
    format      ascii;
    arch        "LSB;label=32;scalar=64";
    class       volScalarField;
    location    "4500";
    object      nut;
}
// * * * * * * * * * * * * * * * * * * * * * * * * * * * * * * * * * * * * * //

dimensions      [0 2 -1 0 0 0 0];

internalField   nonuniform List<scalar> 
12000
(
3.868777e-05
0.0001931476
0.0002161218
0.0002280791
0.0002213196
0.0002110655
0.0002218899
0.0002662856
0.0002777562
0.0002221818
0.0001907935
0.0002120626
0.000277456
0.0002760421
0.000206849
0.000179801
0.0002136031
0.00027812
0.000239735
0.000186175
0.000189741
0.0002340465
0.0002376436
0.0002005664
0.0001918524
0.0002076486
0.0002129005
0.0002043305
0.000203075
0.0002032262
0.0001986843
0.0001955257
0.0001988397
0.0002085091
0.000207517
0.000193095
0.0001796088
0.0001817243
0.0002113583
0.0002377233
0.0001963136
0.000155309
0.0001595154
0.0002160733
0.0002616301
0.0001859288
0.0001384153
0.0001459719
0.0002430162
0.0002945117
0.000137026
0.0001208633
0.0001760008
0.0002086732
0.000138741
0.0001146106
0.0001131582
9.689359e-05
8.324446e-05
6.7382e-05
2.389684e-05
0.0002293919
0.0002617339
0.000325695
0.0003685049
0.0004226264
0.0004842298
0.0005464021
0.0006077461
0.0006885803
0.0007926836
0.0008847837
0.0009397231
0.001005169
0.001119316
0.001257475
0.001343117
0.001373562
0.001452557
0.001599971
0.001723415
0.001762553
0.001811482
0.001929591
0.002050542
0.002115005
0.002164542
0.00223531
0.002300247
0.002351358
0.002406751
0.002447696
0.002473124
0.002481618
0.002495324
0.002516662
0.002535179
0.002522095
0.002468881
0.002410227
0.002234557
0.002377674
0.002320713
0.0021907
0.002070471
0.001618028
0.001913681
0.001784141
0.001603773
0.001336009
0.001073348
0.001197228
0.001014075
0.0008613445
0.0007160082
0.0005443029
0.0003731748
0.0002290441
0.0001168431
6.2518e-05
3.436472e-05
0.0003052709
0.000419173
0.0005119528
0.0006303295
0.0007702864
0.0009279143
0.001094561
0.001267299
0.001449422
0.001634977
0.001817666
0.001987509
0.002157999
0.002335927
0.002509381
0.002662719
0.002803322
0.00294553
0.003086623
0.003212628
0.003322093
0.00342803
0.003531216
0.003624141
0.003704333
0.003777007
0.003843162
0.003901
0.003949799
0.003994907
0.004030173
0.004059424
0.004081411
0.004097325
0.004105429
0.004105831
0.004098043
0.004082658
0.004058474
0.004024823
0.003979265
0.003925788
0.003862434
0.003784536
0.003640346
0.003542102
0.003333572
0.002985437
0.002734247
0.002767366
0.002399906
0.002094871
0.001729047
0.001463517
0.001361171
0.0009539665
0.0005304453
0.0001950454
6.211594e-05
3.571288e-05
0.0003398866
0.000523245
0.0006773689
0.0008743255
0.001098213
0.001339716
0.001592723
0.00185429
0.002122482
0.002389466
0.002644703
0.002806916
0.003115609
0.00332563
0.003523815
0.003706899
0.003876262
0.004032759
0.004177527
0.004310489
0.004432484
0.004544694
0.004647305
0.004740521
0.004824881
0.004900887
0.004967524
0.005027046
0.00507854
0.005120696
0.005154575
0.005181345
0.005199246
0.005207204
0.00520555
0.005193939
0.005171763
0.00513812
0.005091966
0.005032325
0.004958129
0.004868256
0.004761177
0.004635831
0.0044927
0.004327161
0.004138234
0.00392458
0.003684182
0.003223712
0.002637398
0.0024553
0.002181755
0.002056578
0.001632714
0.001176369
0.0007094798
0.0002878416
6.301993e-05
3.606081e-05
0.0003777965
0.0006318792
0.0008499651
0.001116016
0.001410136
0.001721321
0.002040905
0.002361661
0.002674955
0.00298065
0.00327332
0.00355197
0.003808592
0.004040769
0.004252294
0.004447111
0.004628358
0.004795346
0.004949516
0.005092314
0.005224523
0.005346651
0.005459095
0.005562293
0.005656555
0.005741964
0.005816827
0.005885696
0.005943411
0.005991397
0.006030512
0.006060258
0.006080175
0.006089781
0.006088768
0.006076785
0.006053358
0.006017887
0.00596972
0.005908141
0.005832453
0.0057416
0.005634134
0.005509697
0.005363251
0.005198076
0.005008797
0.004794199
0.004394489
0.003764476
0.003665133
0.003450303
0.003071612
0.002626329
0.002107612
0.001522734
0.0009092981
0.000355686
6.281815e-05
3.676556e-05
0.0004064694
0.0007261078
0.0009993376
0.00131692
0.001662808
0.002024275
0.002389816
0.002749234
0.003094425
0.003421376
0.003728471
0.004016992
0.004289312
0.004545324
0.004783539
0.004998905
0.005196555
0.005378948
0.005547656
0.0057039
0.005848598
0.005982447
0.006105972
0.006219544
0.006323349
0.006416176
0.006500816
0.006575583
0.006639558
0.006693261
0.006736204
0.006768377
0.006789056
0.006797309
0.00679308
0.006775827
0.006745072
0.006700074
0.006640092
0.006564339
0.006471925
0.006361837
0.006232883
0.006083391
0.005911071
0.005712653
0.005492381
0.005244131
0.004960399
0.004634643
0.00426362
0.003849035
0.00338867
0.002877313
0.002310732
0.001692284
0.001040422
0.0004267133
6.309814e-05
3.791446e-05
0.0004155547
0.0008049878
0.001127382
0.001483111
0.00186338
0.002253958
0.00264324
0.003023376
0.003388943
0.003737738
0.004069882
0.00437854
0.004664791
0.00493027
0.00517474
0.005402938
0.005614992
0.005812294
0.005996266
0.006168043
0.006328451
0.006478037
0.006617115
0.006745795
0.006864009
0.00696975
0.0070674
0.007153149
0.007226935
0.00728855
0.007337357
0.007373585
0.007396506
0.007405586
0.007400513
0.007380547
0.007345244
0.007294151
0.007226763
0.00714249
0.007040635
0.006920351
0.006780599
0.006619993
0.006437214
0.006228093
0.005995225
0.005729475
0.005426014
0.005081798
0.004693002
0.004254073
0.003758583
0.003200977
0.002578201
0.001892667
0.001164348
0.0004765112
6.31575e-05
3.886078e-05
0.0004238368
0.0008676142
0.001230991
0.001610915
0.002008864
0.002417605
0.002828733
0.003228655
0.003611427
0.003973535
0.004311667
0.00462987
0.004927228
0.00520448
0.005464476
0.005709722
0.005940264
0.006156701
0.006360064
0.006551253
0.006730891
0.006899315
0.007056636
0.007202806
0.00733499
0.007458451
0.007569293
0.007666734
0.007750328
0.007820209
0.007875893
0.007917335
0.007943548
0.007953871
0.00794778
0.007924765
0.007884373
0.007826151
0.007749613
0.007654211
0.007539311
0.007404164
0.007247818
0.007068895
0.006865789
0.006633066
0.006374124
0.006081653
0.00575206
0.005381602
0.004965177
0.004497725
0.003973738
0.003388145
0.002737376
0.002022711
0.001260804
0.0005286365
6.327614e-05
4.117137e-05
0.0004270249
0.0009097229
0.001308288
0.00170618
0.00212261
0.002544105
0.002959875
0.003365551
0.003755716
0.004126912
0.004477821
0.004809019
0.00512113
0.005415244
0.005692781
0.005956053
0.006206611
0.00644458
0.006670256
0.006883822
0.007085152
0.007274046
0.007450113
0.007612712
0.007759585
0.007897369
0.008021907
0.00813243
0.008228208
0.008307981
0.008371187
0.008417863
0.008447121
0.008458274
0.008450768
0.00842412
0.008377894
0.008311667
0.008224994
0.008117349
0.007988085
0.007836733
0.007662727
0.007465674
0.007243659
0.006991209
0.006711952
0.00640038
0.006053288
0.005665236
0.005229298
0.004741111
0.004193043
0.003578865
0.002894159
0.002140325
0.001335937
0.0005627015
6.329691e-05
4.085077e-05
0.0004437424
0.0009432356
0.001369625
0.001786037
0.002206467
0.0026303
0.003049849
0.003459702
0.003855724
0.004235413
0.00459774
0.004942751
0.005271042
0.005583585
0.005881525
0.006165677
0.006436364
0.00669376
0.006936777
0.007168044
0.007387958
0.007596119
0.007792209
0.007975993
0.008145514
0.008300871
0.00844038
0.008563457
0.008669406
0.008757472
0.008827107
0.008877999
0.008909254
0.008920152
0.008910103
0.008878613
0.008825279
0.008749782
0.008651899
0.008531289
0.008385748
0.008215705
0.008021041
0.007800981
0.00755552
0.00728235
0.00698176
0.006648922
0.006280372
0.005872038
0.005419768
0.004912761
0.004344185
0.003709735
0.003004637
0.002229688
0.001401432
0.0005983459
6.33417e-05
4.009955e-05
0.0004387599
0.0009569877
0.001408003
0.001833576
0.002258264
0.002683653
0.00310527
0.003518563
0.003920082
0.004307732
0.004680634
0.005038723
0.005382345
0.005711953
0.006026826
0.006328471
0.006617983
0.00689641
0.007164937
0.007420897
0.007663719
0.007893227
0.008108943
0.008310174
0.008495699
0.008665364
0.008817799
0.008952113
0.009067463
0.009163051
0.009238276
0.009292591
0.009325001
0.009334747
0.009321194
0.009283796
0.009222076
0.009135599
0.009023951
0.008886974
0.008726593
0.008541503
0.008330722
0.008093435
0.007828686
0.007534637
0.007212475
0.006859545
0.006472842
0.006047428
0.005576423
0.005053626
0.004471336
0.003819963
0.003094899
0.002297339
0.001445295
0.0006198482
6.327403e-05
4.506928e-05
0.0004180091
0.0009556775
0.001436299
0.001875894
0.00230423
0.002729117
0.003149612
0.003562947
0.003966793
0.004359767
0.004741257
0.005111066
0.0054691
0.005814486
0.006148481
0.006470161
0.006779917
0.00707805
0.007364539
0.007639033
0.007900609
0.008148385
0.008381524
0.008598425
0.008799302
0.008982497
0.009146849
0.009291317
0.009414906
0.009516666
0.009595759
0.009651523
0.009683407
0.00969088
0.009673419
0.009630539
0.009561799
0.009466803
0.009345186
0.009196598
0.009020653
0.008817237
0.008586246
0.008327514
0.008040825
0.00772523
0.007381636
0.007009346
0.006606756
0.006169473
0.00568945
0.005156895
0.004562768
0.003899317
0.003161969
0.0023514
0.001484669
0.0006415164
6.3295e-05
4.503939e-05
0.0004137744
0.0009490468
0.001442372
0.001891112
0.002321482
0.002744886
0.003163742
0.003577357
0.003984387
0.004383492
0.004773298
0.005152377
0.005518764
0.005824908
0.006035801
0.006270645
0.006518104
0.006862229
0.007230739
0.00764786
0.008044173
0.008364102
0.008613983
0.008846466
0.009061016
0.009255765
0.009429607
0.009581719
0.009711261
0.009817432
0.009899531
0.009956862
0.009988604
0.009994057
0.009972602
0.009923709
0.009846939
0.009741942
0.00960846
0.009446322
0.009255443
0.009035803
0.008787325
0.008510115
0.008194711
0.007668012
0.007207241
0.006832661
0.006538627
0.00624844
0.005765365
0.005228643
0.004628751
0.003957866
0.00321052
0.002387892
0.001508282
0.0006533718
6.319488e-05
4.543243e-05
0.0004035474
0.000936471
0.001442881
0.001901085
0.002334861
0.002758171
0.003175913
0.003588763
0.003995739
0.004395247
0.004785339
0.005163206
0.00538185
0.005516074
0.005645094
0.005800097
0.006035701
0.006360641
0.006747286
0.007157538
0.007517175
0.007873071
0.008250484
0.008666405
0.009108984
0.009471043
0.009652157
0.009810948
0.009946102
0.01005662
0.01014159
0.01020012
0.01023139
0.01023464
0.01020924
0.01015467
0.01007054
0.009956617
0.009812736
0.009638827
0.00943497
0.009201602
0.008847008
0.008326853
0.007845987
0.007405272
0.006989594
0.006647277
0.006415482
0.00620948
0.005815488
0.005278503
0.004676056
0.004000452
0.003246884
0.002417001
0.001529065
0.0006646214
6.320908e-05
4.618068e-05
0.0003922218
0.0009188169
0.001432798
0.001900919
0.002339834
0.002764253
0.003180959
0.003591917
0.003996802
0.004394163
0.004781526
0.005085005
0.005228409
0.005331323
0.005490133
0.005714915
0.005963604
0.006212314
0.006503786
0.006833088
0.007230708
0.007631648
0.008029966
0.008426789
0.008821106
0.009211956
0.009597058
0.009943007
0.0101194
0.01023411
0.01032204
0.01038199
0.01041303
0.01041446
0.01038566
0.01032615
0.01023562
0.01011397
0.009961309
0.009720297
0.009368172
0.008977477
0.008558591
0.008107226
0.007622642
0.007156496
0.006769855
0.00647381
0.006252371
0.006073971
0.005848166
0.005312427
0.004708687
0.004029825
0.003271389
0.002435325
0.001540618
0.0006699951
6.31249e-05
4.696265e-05
0.0003820568
0.0009005337
0.001420879
0.001895688
0.002338724
0.002763975
0.003179229
0.003587534
0.003989213
0.004382879
0.004765728
0.004980624
0.005126174
0.005300676
0.005476337
0.005658114
0.005857576
0.006091943
0.006383123
0.006718841
0.007067684
0.007441442
0.007828844
0.00822085
0.008602904
0.008952588
0.00926424
0.009541396
0.009803265
0.0100704
0.01037628
0.01048651
0.01039594
0.01033716
0.01028095
0.0101921
0.01006048
0.009884063
0.009663437
0.009397392
0.009084353
0.008724806
0.008322303
0.007890114
0.007449694
0.007022089
0.006626303
0.006308266
0.006104346
0.005991373
0.005836129
0.005334093
0.004730231
0.004049742
0.003288765
0.002449072
0.001550102
0.0006745146
6.30939e-05
4.767699e-05
0.000373589
0.0008818013
0.00140346
0.001883736
0.002331135
0.00275776
0.00317187
0.003577453
0.003975652
0.004365796
0.00474599
0.005011032
0.005174008
0.005306462
0.005448302
0.005614809
0.005826921
0.006095719
0.006378124
0.006689275
0.007016737
0.007371565
0.00773384
0.008095282
0.008445252
0.00877217
0.009066831
0.009325706
0.00956111
0.009809719
0.01013227
0.01026164
0.01016428
0.01009246
0.01001715
0.009927581
0.009807065
0.009645728
0.009437677
0.009179241
0.008871396
0.008520014
0.008132671
0.007718853
0.007294722
0.006885123
0.006519461
0.006224676
0.006015745
0.00588939
0.005752763
0.00534908
0.004747146
0.004066214
0.003302907
0.002460389
0.001558021
0.0006780969
6.30218e-05
4.827944e-05
0.0003660945
0.0008637738
0.001384749
0.001869836
0.002320496
0.002748111
0.003161034
0.003563898
0.003958521
0.004344775
0.004721139
0.004981324
0.005150254
0.005300248
0.005460889
0.005644476
0.005857473
0.006096136
0.006372861
0.006683894
0.007028168
0.007374316
0.007724466
0.008069595
0.008398179
0.008698758
0.008964235
0.009196449
0.009411996
0.009653923
0.01000825
0.01021486
0.01010396
0.009967178
0.009880323
0.009789784
0.009668767
0.00950521
0.009294566
0.009035854
0.008730672
0.008383471
0.008001724
0.007596397
0.007182629
0.006780409
0.006415351
0.006118574
0.005916929
0.005806565
0.005700054
0.005356104
0.004754778
0.004072969
0.003308193
0.002463843
0.001559522
0.0006785186
6.2978e-05
4.878454e-05
0.0003600024
0.0008475063
0.001365604
0.001852524
0.002305498
0.002734509
0.003146865
0.003547599
0.00393918
0.004322148
0.004695702
0.004991136
0.005175663
0.005330956
0.005491601
0.005675101
0.005889876
0.006138272
0.006423233
0.006734484
0.007068197
0.00740662
0.00775018
0.008086798
0.008405083
0.008695288
0.008952503
0.009180408
0.009393996
0.009618234
0.009878733
0.0101735
0.01018543
0.009979932
0.009854428
0.009744383
0.009613116
0.009442253
0.009224391
0.00895851
0.008647722
0.008298086
0.007917899
0.007517838
0.007111968
0.006718957
0.006362105
0.006069307
0.005865988
0.005753911
0.005660248
0.005361696
0.004761275
0.004079327
0.003313755
0.002468197
0.001562646
0.0006801949
6.292608e-05
4.922287e-05
0.0003553327
0.000832752
0.001346732
0.001834438
0.002289916
0.002719455
0.00313115
0.003530112
0.003919265
0.004299788
0.004671686
0.005021791
0.005225506
0.005395455
0.005569236
0.005762549
0.005983592
0.006235968
0.00652011
0.006827941
0.007152296
0.007491125
0.007830047
0.008158019
0.008465037
0.008742577
0.008986817
0.009202259
0.009404356
0.009618264
0.009869839
0.01017398
0.01021518
0.01001231
0.009865613
0.009731116
0.009580187
0.00939465
0.009165535
0.008891066
0.008574498
0.008222332
0.007843156
0.007447354
0.007047781
0.00666128
0.006309527
0.006020271
0.005820305
0.005714365
0.005634981
0.005363736
0.004763695
0.004081264
0.00331486
0.002468688
0.001562772
0.000680015
6.286056e-05
4.959189e-05
0.0003521068
0.0008204888
0.001329259
0.001816127
0.002272363
0.002702742
0.003114264
0.003512223
0.003899946
0.004279243
0.004650842
0.005013649
0.005301703
0.005496195
0.005682606
0.005884425
0.006111445
0.00636703
0.006648612
0.006955011
0.007278386
0.007611675
0.007941662
0.008259362
0.008554944
0.008820656
0.009053063
0.009255797
0.009441828
0.009634186
0.009864158
0.01017148
0.01024702
0.01005743
0.009890996
0.00973114
0.009559359
0.009358373
0.009117784
0.008834864
0.008512806
0.008158425
0.007780425
0.007388787
0.0069954
0.006615721
0.006269732
0.005983897
0.005784858
0.005679825
0.005608484
0.005364318
0.004764718
0.004082051
0.003315137
0.00246839
0.001562841
0.0006801735
6.282025e-05
4.994846e-05
0.000350436
0.0008105288
0.001313258
0.001798484
0.002254926
0.002685953
0.003097426
0.003494797
0.00388165
0.00426013
0.004631264
0.00499643
0.005355422
0.0056177
0.00582136
0.006034011
0.006267179
0.006524249
0.006806138
0.007111005
0.007428959
0.007752901
0.008070727
0.008376938
0.00866054
0.008913968
0.009133959
0.009323365
0.009492708
0.009662412
0.009867912
0.01016917
0.01027357
0.01009517
0.009912486
0.00973342
0.009543582
0.009327567
0.009075508
0.008784542
0.008457706
0.008101753
0.007725222
0.007337585
0.006949824
0.006576268
0.006235758
0.005954158
0.005758279
0.00565679
0.005592778
0.005363988
0.004764471
0.004081409
0.003314048
0.002467199
0.001561535
0.0006793672
6.274665e-05
5.028244e-05
0.000350159
0.0008027825
0.001299142
0.001781624
0.002237684
0.002669031
0.003080858
0.003478243
0.003864974
0.004243565
0.004615562
0.004981946
0.005343302
0.005701007
0.005990738
0.00621328
0.006450452
0.006712586
0.006994953
0.007291521
0.007597946
0.00790984
0.008222832
0.008518717
0.008789196
0.009028582
0.009234902
0.009411797
0.009569712
0.009724939
0.009895377
0.01009053
0.01028492
0.01020791
0.009941252
0.009734251
0.009531162
0.009304198
0.009042213
0.008743468
0.008411793
0.008054135
0.007678796
0.007294687
0.006911975
0.006544032
0.006208687
0.005931084
0.005737834
0.005638518
0.005579249
0.00536289
0.004763247
0.004079685
0.003311768
0.002464888
0.001559784
0.0006787244
6.272299e-05
5.061698e-05
0.000350317
0.0007970994
0.001287719
0.001767269
0.002222107
0.002653334
0.003065454
0.003463192
0.003850361
0.004229705
0.004603088
0.004971773
0.005336656
0.005698471
0.006057601
0.006414027
0.006672571
0.006923057
0.007196789
0.007487076
0.007793091
0.008100553
0.00839873
0.008678544
0.008934712
0.009160511
0.009352945
0.009514892
0.009656223
0.009792641
0.009940198
0.01010465
0.010285
0.01023339
0.009976919
0.009753802
0.009530842
0.009287903
0.009014436
0.008707955
0.00837181
0.008012677
0.007638509
0.007257656
0.006879551
0.006516793
0.006186481
0.005913279
0.00572364
0.005627522
0.005572216
0.005362044
0.004762073
0.004077981
0.003309706
0.002462638
0.00155789
0.0006775879
6.265872e-05
5.086601e-05
0.0003526231
0.0007939268
0.001278027
0.00175374
0.002207574
0.002638845
0.003051491
0.003449972
0.003838084
0.00421871
0.00459392
0.00496516
0.005333437
0.00569944
0.006063564
0.006425958
0.006786592
0.007144527
0.00743969
0.007713776
0.007998348
0.00829062
0.008576522
0.008848147
0.009093475
0.009306144
0.009484642
0.0096315
0.009754473
0.009866271
0.009983099
0.01012392
0.01030078
0.01026136
0.01000764
0.00977122
0.009532053
0.009274963
0.008990718
0.008676895
0.00833662
0.00797626
0.007603324
0.00722557
0.006851761
0.006493846
0.006168351
0.005899504
0.005713462
0.005620177
0.005567546
0.005361154
0.004760548
0.004075614
0.003306786
0.002459676
0.001555642
0.0006767531
6.26525e-05
5.102129e-05
0.0003552265
0.000791637
0.001270351
0.001742732
0.002195029
0.002626192
0.003039479
0.003439017
0.003828514
0.004210913
0.004588401
0.004962539
0.005334391
0.00570462
0.006073524
0.006441042
0.006806716
0.007169597
0.00752829
0.007880874
0.008224772
0.008507078
0.008767678
0.009019508
0.009252434
0.009455064
0.009621466
0.009753275
0.009858542
0.009949424
0.0100413
0.01015181
0.01030289
0.0102702
0.01003089
0.009786904
0.009533714
0.009263501
0.008969268
0.008648824
0.008305037
0.007943892
0.007572399
0.00719772
0.006828011
0.006474701
0.006153938
0.005889641
0.005707679
0.005617685
0.00556718
0.005361095
0.004759804
0.004074108
0.003304584
0.002457233
0.001553542
0.0006755353
6.260255e-05
5.263074e-05
0.0003524847
0.0007893498
0.001264088
0.001733747
0.002184884
0.002615901
0.003029934
0.00343083
0.003822167
0.004206879
0.004587204
0.004964755
0.005340609
0.005715375
0.006089227
0.006461909
0.00683272
0.007200498
0.007563612
0.00791999
0.008267167
0.008602396
0.008922628
0.00920884
0.009421982
0.009604557
0.009757801
0.00987744
0.009966767
0.01003645
0.01010051
0.01017895
0.01030367
0.01028671
0.01005768
0.009795722
0.009531318
0.009251979
0.008950106
0.008624127
0.00827734
0.007915669
0.007545695
0.00717399
0.006808137
0.006459135
0.0061429
0.005883096
0.005705221
0.005618312
0.005569094
0.005362038
0.004759384
0.004072451
0.003302091
0.002454454
0.001551247
0.0006744392
6.261056e-05
5.478866e-05
0.0003568401
0.0007799129
0.001261264
0.001727175
0.002176657
0.002607912
0.003023091
0.003425815
0.003819559
0.004207233
0.004591084
0.004972732
0.005353224
0.005733085
0.006112348
0.006490567
0.006866826
0.007239736
0.007607466
0.007967778
0.008318089
0.008655537
0.008977071
0.009279562
0.009560128
0.00977297
0.009911095
0.01001221
0.01008575
0.01013992
0.01018542
0.01022939
0.01026854
0.01027934
0.01010891
0.00981063
0.009530542
0.009242328
0.008933886
0.008603209
0.008253941
0.007892004
0.007523574
0.007154653
0.006792318
0.006447236
0.006135297
0.005879987
0.005706428
0.005622839
0.005574427
0.005363444
0.004759831
0.004071643
0.003300457
0.002452433
0.00154941
0.0006734126
6.25809e-05
5.565205e-05
0.0003618797
0.0007673155
0.001260674
0.001722826
0.002171008
0.002602495
0.003019211
0.003424357
0.003821231
0.004212672
0.004600896
0.004987482
0.005373405
0.00575907
0.006144344
0.006528577
0.006910627
0.007288881
0.007661298
0.008025466
0.008378667
0.008717967
0.009040194
0.009342377
0.009621891
0.009875044
0.01008601
0.01017924
0.0102298
0.01026059
0.01028109
0.01029601
0.0103005
0.01028496
0.0101187
0.009827025
0.009538986
0.009240401
0.008923638
0.008587558
0.008235612
0.007873281
0.007506226
0.007139902
0.006780851
0.006439238
0.00613127
0.005880206
0.005710798
0.005630305
0.005582027
0.005365754
0.004760727
0.004071609
0.003299119
0.002450399
0.001547465
0.0006723995
6.259997e-05
5.61499e-05
0.0003669298
0.0007564133
0.001253666
0.001720904
0.002167905
0.002600303
0.003018889
0.003427035
0.003827798
0.004223887
0.004617422
0.005009881
0.005402109
0.005794342
0.006186241
0.006576929
0.006965019
0.007348667
0.007725625
0.008093315
0.008448912
0.008789224
0.009111545
0.009412728
0.009689861
0.009939986
0.01016071
0.01034048
0.01039086
0.01039912
0.01039087
0.01037197
0.01034449
0.01030486
0.01013341
0.009843864
0.009549262
0.009242062
0.008917823
0.008576697
0.008222343
0.007859803
0.00749399
0.007129665
0.006772981
0.006434157
0.006129819
0.005883072
0.005718113
0.005640969
0.005592607
0.005369629
0.004762899
0.004072114
0.003298639
0.002449379
0.00154634
0.0006715996
6.258195e-05
5.630996e-05
0.0003713277
0.0007466575
0.001236521
0.001721971
0.002167671
0.002600796
0.003022209
0.003434282
0.003839925
0.004241705
0.004641603
0.005040943
0.005440382
0.00583994
0.006239036
0.006636535
0.007030803
0.007419764
0.007800982
0.008171648
0.008528618
0.008869436
0.009190832
0.009490052
0.009763904
0.01000998
0.01022599
0.01040996
0.01054509
0.01055342
0.0105214
0.01047271
0.01041027
0.01033417
0.01014903
0.009862222
0.009563073
0.009248496
0.008917378
0.008571292
0.00821405
0.007850324
0.007485051
0.007123029
0.006769589
0.006434313
0.006133224
0.005889899
0.005728493
0.005654094
0.005605189
0.005374685
0.004766134
0.00407371
0.003298973
0.002448522
0.00154501
0.0006707735
6.260596e-05
5.667719e-05
0.0003762338
0.0007385233
0.001220891
0.001725138
0.002170129
0.002604893
0.003029684
0.003446519
0.003858071
0.004266637
0.004673978
0.005081194
0.0054887
0.005896252
0.006302992
0.006707515
0.00710794
0.0075018
0.007886244
0.008258963
0.008617182
0.008957553
0.009277141
0.009573413
0.009843183
0.01008436
0.01029487
0.01047296
0.01061726
0.01069932
0.01066435
0.0105886
0.0104921
0.01037792
0.01017455
0.009886892
0.009582258
0.009260522
0.008922793
0.008572244
0.008213883
0.007851541
0.007488728
0.007127027
0.006772488
0.006436667
0.006138744
0.005900207
0.005744399
0.005673231
0.005622731
0.005380993
0.004770364
0.00407608
0.003299865
0.002448463
0.001544444
0.0006703315
6.261473e-05
5.717933e-05
0.0003807608
0.0007315534
0.001206321
0.001731071
0.002176163
0.002613158
0.003042058
0.003464648
0.00388301
0.004299433
0.004715334
0.005131485
0.005547978
0.005964221
0.006378922
0.006790212
0.00719569
0.007593679
0.007981579
0.008356068
0.00871424
0.009053158
0.009370053
0.009662141
0.00992702
0.01016255
0.0103669
0.01053859
0.01067644
0.01077965
0.01079862
0.01071444
0.01058713
0.01043235
0.01020646
0.009914434
0.0096032
0.009275643
0.008934022
0.008581562
0.008220187
0.00785361
0.007486341
0.007126046
0.006777405
0.006448181
0.006153008
0.005915828
0.005759942
0.005689992
0.005638774
0.005388297
0.004775575
0.004079357
0.003301416
0.002448824
0.001544124
0.0006698639
6.263898e-05
5.753702e-05
0.0003859049
0.0007261657
0.001193655
0.001738273
0.002184446
0.002624781
0.003059043
0.003488829
0.003916143
0.004341808
0.004767205
0.005192725
0.00561788
0.006041938
0.006463863
0.006881751
0.007293464
0.007695781
0.008085978
0.008461163
0.008818439
0.009154988
0.009468242
0.009755534
0.01001476
0.01024402
0.01044173
0.01060662
0.01073777
0.01083456
0.01089665
0.01083332
0.0106869
0.01049496
0.01024494
0.009946013
0.009627237
0.009291358
0.008941095
0.008580559
0.008216313
0.00785249
0.007490868
0.007133632
0.006786001
0.006457783
0.006163334
0.005927088
0.005773516
0.005706383
0.005654076
0.005396681
0.004781779
0.004083532
0.003303846
0.002449882
0.001544268
0.0006696797
6.266592e-05
5.827128e-05
0.0003906002
0.0007224601
0.00118463
0.001747996
0.00219658
0.002641293
0.003081738
0.003519037
0.003954531
0.004389855
0.004825386
0.005261144
0.005696675
0.006130608
0.006560892
0.006985446
0.007401792
0.007807154
0.008198691
0.008573556
0.008928961
0.009262241
0.009570949
0.009852767
0.01010577
0.01032831
0.01051903
0.01067692
0.01080124
0.01089157
0.0109477
0.01093977
0.01078932
0.01056632
0.01029088
0.00997955
0.009648299
0.009303614
0.008950178
0.008590546
0.008227662
0.007863682
0.007501323
0.007141937
0.006792705
0.006464067
0.006173843
0.005943752
0.00579553
0.005727678
0.005671278
0.00540617
0.004788898
0.004088467
0.003306893
0.002451502
0.001544651
0.0006696329
6.267983e-05
5.816941e-05
0.0003956299
0.0007194032
0.001173153
0.001756644
0.002210494
0.0026606
0.003108629
0.00355525
0.004001425
0.004447874
0.004894708
0.005341438
0.005786983
0.006229683
0.006667429
0.007097812
0.007518195
0.007925808
0.008317854
0.008691574
0.009044315
0.009373596
0.009677155
0.009952988
0.01019938
0.01041493
0.01059852
0.01074936
0.0108669
0.01095088
0.01100123
0.01101808
0.01088493
0.01064444
0.01034232
0.01001573
0.009675899
0.009327692
0.008971838
0.008610173
0.008244068
0.007877846
0.007514115
0.007156021
0.006808229
0.006480596
0.006190019
0.005959978
0.005813531
0.005750841
0.005695531
0.005416705
0.00479692
0.004094211
0.003310595
0.002453405
0.001545562
0.0006699005
6.270243e-05
5.985262e-05
0.0003999408
0.0007191865
0.001168312
0.001757968
0.002229802
0.00268677
0.003143753
0.003600849
0.004058434
0.004516611
0.004974966
0.005432519
0.005887762
0.006338734
0.006783136
0.007218426
0.007641915
0.008050849
0.008442504
0.00881424
0.009163553
0.009488203
0.009786141
0.01005561
0.01029515
0.01050358
0.01068004
0.01082389
0.0109348
0.01101262
0.0110574
0.01106933
0.01097912
0.01073271
0.01040653
0.01006371
0.009713869
0.009358007
0.008996848
0.00863164
0.008264794
0.007898249
0.007533997
0.007174732
0.006825924
0.006498084
0.006208541
0.005980577
0.005836097
0.005773148
0.005714276
0.005427983
0.00480562
0.004100516
0.003314771
0.002455806
0.001546539
0.0006701145
6.273679e-05
5.866652e-05
0.0004097168
0.0007197739
0.001163246
0.001754237
0.002251389
0.002715884
0.003182663
0.00365112
0.004120919
0.004591485
0.005061805
0.005530398
0.005995358
0.006454443
0.006905165
0.007344888
0.007770913
0.008180555
0.008571203
0.008940244
0.009285657
0.00960526
0.009897271
0.01016019
0.01039279
0.01059413
0.01076354
0.0109006
0.01100509
0.01107701
0.01111647
0.01112373
0.01107197
0.01082093
0.01047318
0.0101143
0.009754251
0.009392643
0.009027892
0.00866005
0.008290707
0.007921991
0.00755604
0.007195579
0.006846003
0.006517742
0.006228307
0.006001355
0.005858987
0.005798213
0.005737879
0.005440411
0.004815353
0.004107736
0.003319693
0.002458707
0.001547845
0.0006705569
6.276674e-05
5.824057e-05
0.0004144533
0.0007204291
0.001157767
0.001750031
0.002275863
0.002749151
0.003226807
0.003707501
0.004190145
0.004673467
0.005155863
0.00563538
0.006109761
0.006576524
0.007033041
0.007476621
0.007904582
0.008314315
0.00870335
0.00906927
0.009410301
0.009724506
0.01001035
0.01026659
0.01049224
0.01068657
0.0108491
0.01097957
0.01107788
0.01114412
0.01117848
0.01118123
0.0111487
0.01089469
0.01053157
0.01016137
0.009793702
0.009427025
0.009058772
0.008688445
0.008317268
0.00794705
0.007579669
0.007217813
0.006867042
0.006538061
0.006248653
0.006022586
0.005881697
0.005821996
0.005759892
0.005453355
0.004825601
0.004115454
0.003325073
0.002462021
0.001549574
0.0006708457
6.28056e-05
5.931436e-05
0.0004136718
0.0007225574
0.001153811
0.001746351
0.002303956
0.002787245
0.003276786
0.003770499
0.00426652
0.004762875
0.005257376
0.005747617
0.006231019
0.006704899
0.007166535
0.007613228
0.008042361
0.008451461
0.008838249
0.009200566
0.009536825
0.00984537
0.01012492
0.01037447
0.01059325
0.01078074
0.0109366
0.01106071
0.0111531
0.01121389
0.01124335
0.01124176
0.01120946
0.01096028
0.01058821
0.01020965
0.009835743
0.009464848
0.009093635
0.00872092
0.008347573
0.007975293
0.007605953
0.007242296
0.006889981
0.006559897
0.006270078
0.006044504
0.005904902
0.005846297
0.005782419
0.005466991
0.004836472
0.004123729
0.00333094
0.00246566
0.001551171
0.0006713723
6.2849e-05
6.082902e-05
0.0004183785
0.0007258413
0.001151214
0.001744576
0.002335141
0.002829461
0.00333178
0.003839184
0.004349
0.004858546
0.005365065
0.005865728
0.006357675
0.006838071
0.007304148
0.007753255
0.0081829
0.00859079
0.00897486
0.009333246
0.009664506
0.009967288
0.01024055
0.01048351
0.0106956
0.01087645
0.0110259
0.01114393
0.01123065
0.01128626
0.01131104
0.01130529
0.01126934
0.01102271
0.01064356
0.01025915
0.009880828
0.009506514
0.009132392
0.008756995
0.00838109
0.008006341