/*--------------------------------*- C++ -*----------------------------------*\
| =========                 |                                                 |
| \\      /  F ield         | OpenFOAM: The Open Source CFD Toolbox           |
|  \\    /   O peration     | Version:  2312                                  |
|   \\  /    A nd           | Website:  www.openfoam.com                      |
|    \\/     M anipulation  |                                                 |
\*---------------------------------------------------------------------------*/
FoamFile
{
    version     2.0;
    format      ascii;
    arch        "LSB;label=32;scalar=64";
    class       volScalarField;
    location    "4500";
    object      omega;
}
// * * * * * * * * * * * * * * * * * * * * * * * * * * * * * * * * * * * * * //

dimensions      [0 0 -1 0 0 0 0];

internalField   nonuniform List<scalar> 
12000
(
51.54188
18.66344
20.24239
21.81552
23.0495
24.11309
24.98949
25.76442
26.46152
27.1093
27.66163
28.12593
28.55718
28.97284
29.36374
29.67686
29.93542
30.18051
30.43165
30.65225
30.80344
30.93742
31.06593
31.188
31.2617
31.30832
31.3439
31.36172
31.36381
31.3549
31.31775
31.27089
31.20153
31.06968
30.95846
30.91721
30.81923
30.61243
30.21691
29.81985
29.64244
29.61368
29.35398
28.57986
27.93651
27.63692
27.61232
27.16155
26.02155
25.03397
24.88458
24.63494
23.36396
22.16505
21.48512
20.39678
19.1764
17.90846
16.76396
39.12776
90.01955
21.69884
20.82987
21.53543
21.69742
21.84298
21.71275
21.1969
20.63421
20.10276
19.46083
18.82641
18.33733
17.80011
17.13148
16.35502
15.94994
15.72547
15.30979
14.61532
14.10693
14.00253
13.80258
13.35042
12.91811
12.75341
12.63196
12.43585
12.27142
12.16018
12.03418
11.97359
11.97156
12.01325
12.02937
12.02039
12.00969
12.12566
12.40477
12.71787
12.78094
12.76336
12.96539
13.63753
14.28891
14.55679
14.63597
15.22906
16.54161
17.77093
18.15633
18.61726
20.66237
22.69377
24.45607
26.55233
31.0823
38.40048
51.46416
73.51396
93.24781
22.17818
19.98435
19.41084
18.73231
17.92573
17.14226
16.26388
15.34949
14.41372
13.61186
12.94025
12.29354
11.73764
11.24451
10.84265
10.51562
10.20384
9.900932
9.64497
9.457918
9.305054
9.148357
9.008434
8.910272
8.845461
8.791003
8.747923
8.723797
8.718355
8.720508
8.737273
8.771357
8.822277
8.872528
8.93416
9.01597
9.121728
9.23887
9.355843
9.470954
9.608765
9.782859
9.983484
10.19471
10.41339
10.66555
10.9514
11.28238
11.67741
12.15587
12.7833
13.46591
14.46543
15.8253
17.86659
21.44212
28.2309
45.24357
81.16666
95.43141
21.2944
18.04807
17.29555
16.32028
15.29807
14.28628
13.29546
12.36443
11.60135
10.91975
10.31876
9.775622
9.305194
8.932204
8.613835
8.341837
8.096864
7.889465
7.719912
7.581684
7.465555
7.368075
7.291102
7.234117
7.193478
7.166294
7.153628
7.1521
7.162269
7.17902
7.208993
7.255551
7.311678
7.377637
7.455405
7.546281
7.650553
7.768625
7.900984
8.048173
8.212043
8.395969
8.603955
8.84259
9.110411
9.41319
9.760782
10.16636
10.63816
11.21159
11.86302
12.57918
13.50859
14.73205
16.62698
19.70095
25.59283
40.81627
86.88946
97.44287
20.47686
16.56197
15.63074
14.54235
13.45059
12.40224
11.43675
10.59261
9.886113
9.301442
8.800263
8.370977
7.98268
7.641641
7.356766
7.117176
6.911015
6.736815
6.593785
6.475277
6.37758
6.298569
6.236865
6.191027
6.159493
6.141038
6.136678
6.140993
6.154218
6.177802
6.215484
6.263901
6.3229
6.392097
6.472644
6.564966
6.669105
6.785431
6.914414
7.056718
7.2137
7.385426
7.572736
7.777235
8.001903
8.252586
8.530588
8.851763
9.226169
9.647428
10.1225
10.74252
11.58685
12.7698
14.49249
17.3203
22.90888
38.06151
90.8473
99.239
19.91286
15.37365
14.27787
13.17557
12.1045
11.11396
10.23403
9.479047
8.838414
8.291004
7.821302
7.422277
7.087537
6.793212
6.530672
6.30744
6.12002
5.962345
5.83018
5.720289
5.630321
5.558432
5.503096
5.462985
5.43695
5.425093
5.424228
5.435003
5.457474
5.491271
5.536568
5.593491
5.662417
5.741292
5.831333
5.935075
6.051576
6.18107
6.324244
6.481914
6.655095
6.845208
7.053443
7.278737
7.526256
7.801099
8.1122
8.453897
8.820578
9.240395
9.749829
10.38202
11.18591
12.26429
13.84024
16.42213
21.49741
35.54062
93.90629
101.0179
20.17131
14.48728
13.2123
12.12809
11.11104
10.19131
9.384463
8.690947
8.097919
7.589542
7.15288
6.777471
6.455036
6.183396
5.947279
5.738139
5.559731
5.408698
5.282147
5.177472
5.092611
5.025861
4.975805
4.941249
4.921201
4.916124
4.922077
4.941013
4.97235
5.015846
5.070496
5.136453
5.214948
5.305576
5.407843
5.522595
5.650301
5.79127
5.945888
6.11459
6.297886
6.496386
6.710932
6.942234
7.193436
7.466843
7.757892
8.069463
8.417218
8.816669
9.287785
9.864571
10.60676
11.62224
13.12424
15.60853
20.53179
34.22053
96.0624
102.8281
20.31892
13.82432
12.36172
11.30685
10.35599
9.505688
8.761827
8.119516
7.56649
7.089689
6.677918
6.321503
6.013149
5.746488
5.52045
5.326351
5.156666
5.012138
4.89088
4.791096
4.711051
4.649233
4.604337
4.575248
4.562667
4.562188
4.575258
4.601502
4.640498
4.691971
4.75578
4.831528
4.919413
5.019675
5.132506
5.258212
5.397148
5.549671
5.71616
5.897012
6.092637
6.30343
6.529752
6.771737
7.030852
7.307644
7.602612
7.922359
8.275543
8.673908
9.138104
9.700601
10.41658
11.3853
12.80559
15.13988
19.75372
32.71264
97.69698
104.7979
20.62369
13.39403
11.71917
10.67164
9.775938
8.985966
8.295251
7.695761
7.176514
6.726298
6.335303
5.995348
5.699965
5.443722
5.222209
5.034275
4.874417
4.73697
4.621522
4.526844
4.451616
4.394542
4.354449
4.330308
4.322487
4.327356
4.346079
4.378132
4.42313
4.480818
4.551656
4.635196
4.730861
4.839066
4.960151
5.094455
5.242328
5.404108
5.580122
5.770687
5.976093
6.196479
6.431556
6.682607
6.94941
7.230794
7.528549
7.845915
8.189267
8.571344
9.014069
9.547126
10.22759
11.15539
12.52929
14.807
19.32601
31.97503
98.80317
84.91818
20.20426
13.03539
11.19709
10.15311
9.310027
8.576889
7.935249
7.375059
6.886552
6.460447
6.088633
5.764277
5.481708
5.236179
5.023505
4.840633
4.686205
4.556575
4.447642
4.358425
4.287964
4.235224
4.19922
4.179045
4.174427
4.183421
4.206188
4.242292
4.291405
4.353315
4.428726
4.517331
4.61832
4.732098
4.859055
4.999578
5.154046
5.322804
5.506115
5.704257
5.918751
6.149285
6.396091
6.657872
6.932358
7.218987
7.520039
7.838477
8.180047
8.555034
8.979977
9.493562
10.1514
11.04674
12.3707
14.56094
18.90033
31.08769
99.68899
86.13265
20.59031
12.89564
10.85424
9.776461
8.960905
8.268949
7.666718
7.140335
6.679947
6.277071
5.924293
5.615373
5.345205
5.109639
4.905165
4.728638
4.577946
4.451817
4.348022
4.263618
4.197416
4.148401
4.115695
4.098489
4.096226
4.107878
4.13317
4.171727
4.223277
4.287653
4.36554
4.456825
4.560879
4.678093
4.808895
4.953746
5.113137
5.287578
5.477578
5.683462
5.904009
6.139751
6.390572
6.656269
6.936381
7.229867
7.53593
7.855182
8.191866
8.556978
8.971455
9.466871
10.09759
10.96535
12.25982
14.41436
18.69016
30.643
100.1918
109.0583
21.85388
12.92961
10.58705
9.458125
8.664122
8.010965
7.447148
6.953789
6.520163
6.13828
5.802434
5.507865
5.250495
5.026334
4.832064
4.664765
4.521775
4.401452
4.302148
4.222387
4.160236
4.114643
4.084689
4.069961
4.069254
4.082352
4.108894
4.148598
4.201288
4.266906
4.346053
4.438779
4.544579
4.663728
4.79661
4.943673
5.105412
5.28234
5.474954
5.683701
5.908959
6.150761
6.409132
6.683155
6.971569
7.273063
7.585402
7.906519
8.238689
8.592112
8.988792
9.465385
10.07865
10.92533
12.19023
14.29655
18.47574
30.16135
100.6346
90.22815
22.19087
13.00107
10.44492
9.245804
8.449956
7.819175
7.282755
6.815173
6.40449
6.043558
5.726549
5.44882
5.206909
4.997646
4.815312
4.656334
4.518889
4.401532
4.303451
4.224542
4.163839
4.120166
4.092018
4.078675
4.079068
4.092965
4.120015
4.159965
4.212673
4.278131
4.356736
4.448693
4.553961
4.672874
4.805856
4.953424
5.116141
5.294606
5.489413
5.701089
5.929996
6.176237
6.43938
6.71891
7.013223
7.322139
7.642999
7.969405
8.299284
8.640973
9.021033
9.48045
10.07613
10.9038
12.14928
14.23303
18.37298
29.91039
100.8512
91.00813
22.7881
13.1412
10.35742
9.08694
8.284095
7.671009
7.159895
6.718479
6.332184
5.992557
5.693497
5.432763
5.206076
5.004179
4.827066
4.67207
4.537426
4.422853
4.328656
4.253548
4.196308
4.154894
4.128319
4.115774
4.116589
4.13027
4.156643
4.195614
4.247071
4.311108
4.388058
4.478322
4.582238
4.700145
4.832451
4.979668
5.142379
5.321204
5.516771
5.729688
5.960435
6.209117
6.476346
6.763659
7.069363
7.387805
7.712999
8.039112
8.363721
8.695903
9.061921
9.504612
10.08429
10.89629
12.12404
14.18274
18.27685
29.68484
101.0927
91.89966
23.44887
13.3389
10.35074
8.991739
8.166862
7.561645
7.069519
6.649256
6.282387
5.959838
5.678069
5.433709
5.218563
5.030112
4.862107
4.713949
4.58547
4.475935
4.384332
4.309895
4.251832
4.20953
4.182055
4.16857
4.168403
4.180817
4.205872
4.243096
4.292621
4.354791
4.429854
4.518382
4.620872
4.737635
4.869146
5.015893
5.178441
5.357373
5.553231
5.766975
6.000249
6.254084
6.528257
6.821789
7.132579
7.455898
7.78373
8.108426
8.428383
8.752732
9.105037
9.53104
10.09627
10.89524
12.11034
14.1553
18.22801
29.56432
101.1959
92.58391
24.07812
13.56477
10.36799
8.931853
8.082309
7.478614
6.999405
6.595986
6.246932
5.94239
5.67815
5.447624
5.244818
5.064941
4.906099
4.766604
4.645109
4.540411
4.451661
4.378555
4.320736
4.277607
4.248641
4.23332
4.231197
4.241564
4.264772
4.300305
4.348066
4.408
4.480068
4.565334
4.665481
4.780954
4.911646
5.057946
5.220583
5.400431
5.598429
5.815531
6.05259
6.31012
6.587994
6.884925
7.197765
7.521204
7.84832
8.171558
8.487032
8.802499
9.143478
9.557268
10.11042
10.89869
12.10245
14.13487
18.18845
29.48786
101.2774
93.09102
24.64884
13.81043
10.43575
8.915849
8.032218
7.421645
6.948749
6.557325
6.222223
5.931738
5.680437
5.462984
5.272438
5.104121
4.955184
4.823627
4.707957
4.607469
4.521939
4.450804
4.393721
4.350269
4.320208
4.303242
4.299099
4.307183
4.327967
4.360982
4.406135
4.463359
4.532584
4.615151
4.713134
4.827163
4.957192
5.103484
5.26661
5.447407
5.646842
5.865902
6.105398
6.365674
6.646269
6.945506
7.259912
7.583692
7.90899
8.22811
8.538355
8.847921
9.181516
9.584558
10.12515
10.90312
12.09822
14.11814
18.14835
29.38939
101.286
93.469
25.19375
14.06639
10.52672
8.921118
8.003101
7.382304
6.911847
6.52912
6.205466
5.927281
5.688137
5.48195
5.301871
5.143105
5.002653
4.878432
4.768988
4.673375
4.590954
4.521446
4.464774
4.420966
4.389864
4.371339
4.365265
4.371214
4.389645
4.420187
4.462766
4.517318
4.583735
4.663357
4.758782
4.87127
5.000595
5.146687
5.310082
5.491638
5.692337
5.913108
6.154642
6.417124
6.69988
7.000925
7.316423
7.640339
7.964696
8.281418
8.586969
8.889522
9.214817
9.609006
10.14132
10.91303
12.10226
14.11659
18.14327
29.37593
101.2175
93.71758
25.69947
14.32889
10.63846
8.954034
7.997801
7.360257
6.886854
6.508705
6.193396
5.925073
5.695765
5.49919
5.328591
5.178725
5.04625
4.928815
4.824805
4.733213
4.653509
4.585591
4.529517
4.485419
4.453317
4.433263
4.425278
4.429138
4.445224
4.47332
4.513424
4.565604
4.630089
4.707506
4.800204
4.910688
5.039155
5.185161
5.349039
5.531562
5.733674
5.956256
6.199888
6.464551
6.749273
7.051695
7.367596
7.690593
8.012526
8.325429
8.626118
8.923027
9.241981
9.628947
10.15398
10.91985
12.10398
14.11262
18.12428
29.31413
101.1533
93.88016
26.16245
14.59173
10.76282
9.001059
8.00235
7.347871
6.869294
6.493078
6.183659
5.922968
5.701308
5.512505
5.349838
5.207329
5.081448
4.969708
4.870384
4.782417
4.70532
4.639033
4.583677
4.539452
4.506617
4.485373
4.475867
4.478072
4.492299
4.518496
4.556735
4.60715
4.670019
4.745879
4.837043
4.946291
5.07417
5.220372
5.385151
5.569147
5.773176
5.997997
6.244025
6.511021
6.797719
7.101424
7.417582
7.739567
8.059097
8.368183
8.663721
8.954468
9.266847
9.647289
10.16653
10.92808
12.10867
14.11352
18.12135
29.30288
100.9997
93.99814
26.58678
14.85239
10.89611
9.0602
8.020755
7.344748
6.857433
6.479945
6.173516
5.917769
5.701329
5.518545
5.362268
5.226066
5.105748
4.998778
4.903434
4.818667
4.743987
4.679311
4.624843
4.580902
4.547855
4.52601
4.515625
4.516834
4.529876
4.554953
4.592169
4.641724
4.703911
4.779169
4.869686
4.9784
5.10626
5.253167
5.419311
5.605178
5.811429
6.03866
6.287099
6.556261
6.844581
7.14903
7.464753
7.78492
8.101232
8.405912
8.696251
8.98148
9.288468
9.663779
10.17862
10.93723
12.11575
14.11819
18.11917
29.27532
100.8943
94.16049
26.97883
15.109
11.03374
9.126328
8.045542
7.346339
6.84832
6.467457
6.162062
5.90983
5.698105
5.517894
5.364247
5.232541
5.117146
5.014559
4.922814
4.840962
4.768562
4.705605
4.652365
4.60922
4.576588
4.554845
4.544343
4.545327
4.558006
4.582848
4.619953
4.669585
4.732053
4.807688
4.898477
5.007448
5.135954
5.284098
5.452008
5.640045
5.848713
6.078433
6.329224
6.600353
6.889967
7.194742
7.509568
7.82747
8.140164
8.440085
8.724924
9.004463
9.306141
9.676819
10.18795
10.94407
12.12086
14.12164
18.11899
29.26241
100.7219
94.37622
27.34418
15.35908
11.17487
9.198022
8.075418
7.352055
6.840933
6.454411
6.147881
5.897011
5.687603
5.510632
5.359882
5.229764
5.116131
5.015403
4.926371
4.847372
4.777685
4.717129
4.665845
4.624184
4.592659
4.571783
4.561982
4.563539
4.576929
4.602405
4.640267
4.690844
4.754537
4.831925
4.924008
5.033448
5.162997
5.313036
5.483181
5.673638
5.884817
6.116998
6.37
6.642839
6.933386
7.238046
7.551499
7.866673
8.175374
8.470346
8.749798
9.024134
9.321341
9.688498
10.19724
10.95239
12.12936
14.13112
18.12927
29.26015
100.6242
94.61859
27.76142
15.61609
11.31638
9.271053
8.10708
7.358841
6.833388
6.439503
6.130018
5.878764
5.670232
5.494545
5.344908
5.216217
5.104668
5.007393
4.920936
4.843862
4.775657
4.716266
4.666142
4.626161
4.596474
4.57739
4.569268
4.572328
4.587246
4.614285
4.653818
4.706223
4.771927
4.8515
4.945743
5.057071
5.188387
5.340418
5.512897
5.705914
5.919695
6.154317
6.409382
6.683667
6.974787
7.278916
7.590562
7.902608
8.206981
8.496764
8.770717
9.039908
9.332882
9.696926
10.20365
10.95778
12.13433
14.13552
18.13138
29.25463
100.479
95.01372
28.11172
15.85792
11.45958
9.347239
8.140919
7.366436
6.825157
6.422279
6.108189
5.854999
5.646001
5.470532
5.321341
5.193206
5.082217
4.985366
4.900314
4.825703
4.76068
4.704822
4.658049
4.620381
4.592548
4.575131
4.568645
4.57343
4.590442
4.619749
4.661681
4.716655
4.785107
4.867521
4.964508
5.078338
5.211994
5.366424
5.541456
5.737108
5.953451
6.190374
6.447261
6.722658
7.013953
7.317119
7.626548
7.935121
8.234945
8.519493
8.78813
9.052618
9.342047
9.703889
10.20969
10.96426
12.14251
14.14655
18.14533
29.25983
100.4097
94.93305
28.48294
16.12089
11.60607
9.423914
8.174645
7.37324
6.815183
6.402135
6.08217
5.825811
5.615261
5.439139
5.289768
5.161728
5.051066
4.954864
4.870999
4.798017
4.735003
4.681506
4.637475
4.603015
4.578419
4.564171
4.560824
4.568533
4.588224
4.620193
4.665065
4.723139
4.794837
4.880607
4.980948
5.097877
5.234276
5.391311
5.568973
5.767231
5.986006
6.224998
6.483388
6.759508
7.050545
7.352316
7.659136
7.963931
8.259016
8.538279
8.801695
9.061713
9.34793
9.708021
10.21303
10.96778
12.14686
14.15193
18.15105
29.26172
100.2876
113.101
29.38042
16.42619
11.76225
9.50338
8.20893
7.379327
6.803351
6.378989
6.052027
5.791473
5.578504
5.401071
5.25109
5.122929
5.012557
4.917063
4.834371
4.763055
4.702203
4.651304
4.610165
4.578833
4.557559
4.54673
4.546782
4.557824
4.581038
4.616592
4.664869
4.726484
4.801847
4.891383
4.995475
5.115776
5.255079
5.414886
5.595269
5.796055
6.017045
6.257796
6.517316
6.793751
7.084117
7.384111
7.688017
7.988848
8.279161
8.553278
8.811797
9.067806
9.351315
9.709683
10.21539
10.97182
12.15361
14.16276
18.16754
29.2835
100.2309
114.0101
29.85384
16.68677
11.90842
9.58149
8.24255
7.384069
6.789312
6.352739
6.01791
5.752375
5.536344
5.357134
5.206268
5.077888
4.967855
4.873217
4.791883
4.722415
4.663877
4.615715
4.577704
4.549808
4.532163
4.525006
4.528589
4.543566
4.570406
4.609636
4.66173
4.727124
4.806336
4.899806
5.008133
5.132265
5.274407
5.436829
5.61987
5.823047
6.046017
6.288212
6.548497
6.824861
7.114183
7.412084
7.712852
8.009621
8.295203
8.564363
8.818357
9.070607
9.35183
9.710078
10.21566
10.97341
12.15683
14.16805
18.17491
29.28879
100.1443
114.177
30.25456
16.93641
12.04973
9.658565
8.275465
7.387604
6.773138
6.323454
5.979968
5.708799
5.489208
5.307888
5.155967
5.027348
4.917753
4.824157
4.744427
4.677092
4.621178
4.576089
4.541491
4.517267
4.503461
4.500287
4.507824
4.526802
4.557475
4.600445
4.656352
4.725663
4.808781
4.906198
5.018487
5.146428
5.291908
5.457108
5.64253
5.847773
6.07241
6.315734
6.576454
6.85242
7.140407
7.435989
7.733501
8.026221
8.307227
8.571683
8.821205
9.070777
9.350956
9.709019
10.21563
10.97436
12.16136
14.17755
18.19199
29.31669
100.1233
114.1501
30.67156
17.19208
12.19001
9.734014
8.307029
7.388741
6.754437
6.291213
5.93861
5.661411
5.437976
5.254393
5.101396
4.972632
4.863664
4.771362
4.69352
4.628605
4.575579
4.533797
4.502821
4.482484
4.472753
4.473733
4.485618
4.508789
4.543551
4.590343
4.64985
4.722798
4.809659
4.91088
5.026968
5.15856
5.30731
5.475237
5.662902
5.869971
6.095973
6.340095
6.60092
6.876179
7.162579
7.45569
7.749922
8.038711
8.315392
8.575534
8.821508
9.06847
9.347207
9.705364
10.21326
10.97418
12.16287
14.18163
18.19953
29.3276
100.0665
114.3928
31.13335
17.46742
12.32812
9.803201
8.335153
7.388303
6.733393
6.256223
5.894196
5.610752
5.383355
5.1975
5.043518
4.914789
4.806696
4.715979
4.640336
4.578149
4.528305
4.49005
4.462917
4.446649
4.441176
4.446423
4.462716
4.490194
4.529159
4.579982
4.643139
4.719408
4.809596
4.914205
5.033724
5.168728
5.320619
5.491134
5.680824
5.889438
6.116491
6.361092
6.62172
6.896026
7.180663
7.471201
7.76214
8.047106
8.319743
8.575871
8.818751
9.063551
9.341556
9.700282
10.20971
10.97282
12.1644
14.18855
18.21493
29.3578
100.0589
114.6188
31.58767
17.75074
12.46711
9.869847
8.360884
7.385128
6.710114
6.218982
5.847441
5.557704
5.326372
5.138343
4.983539
4.85506
4.748086
4.659215
4.58603
4.526818
4.480404
4.445906
4.422796
4.410723
4.40957
4.419165
4.439844
4.471636
4.514789
4.569625
4.636543
4.716099
4.809183
4.916678
5.039151
5.177156
5.331863
5.504702
5.696167
5.90606
6.133881
6.37867
6.638808
6.911869
7.1945
7.482389
7.770197
8.051693
8.320448
8.573268
8.813298
9.056428
9.33407
9.693638
10.20479
10.97006
12.16418
14.19114
18.22145
29.37233
100.0586
114.9207
32.05838
18.0408
12.60201
9.928916
8.380464
7.377641
6.683653
6.179247
5.798584
5.502805
5.267754
5.077782
4.922419
4.794478
4.688929
4.602207
4.531762
4.475775
4.432933
4.402312
4.383291
4.375496
4.378653
4.392725
4.417713
4.453723
4.500947
4.55966
4.63022
4.713072
4.808917
4.9188
5.043669
5.184177
5.341305
5.516158
5.709137
5.920055
6.148373
6.393076
6.652536
6.924351
7.205177
7.490566
7.775172
8.05279
8.318224
8.568075
8.806056
9.048133
9.325732
9.686232
10.19914
10.96675
12.16425
14.19558
18.23389
29.40098
100.1021
115.2024
32.50165
18.33891
12.74464
9.991165
8.400381
7.369156
6.655793
6.138157
5.748634
5.447155
5.208733
5.017157
4.861553
4.734438
4.630565
4.546197
4.478675
4.426076
4.386959
4.360318
4.345436
4.34188
4.349296
4.367631
4.396801
4.436867
4.487977
4.550364
4.624346
4.710334
4.808842
4.920841
5.047603
5.190075
5.349145
5.525626
5.719803
5.931493
6.160147
6.404718
6.663468
6.933875
7.212606
7.495205
7.77668
8.051539
8.314053
8.56129
8.79727
9.038308
9.316012
9.677614
10.19223
10.96185
12.16171
14.19594
18.23834
29.41506
100.1436
115.6155
32.95178
18.63029
12.87851
10.04548
8.41406
7.356503
6.625163
6.09525
5.69751
5.390817
5.149448
4.956647
4.801151
4.675197
4.573318
4.491608
4.427243
4.378148
4.342812
4.320146
4.309404
4.310029
4.321657
4.344116
4.377303
4.421233
4.476011
4.541831
4.618976
4.707823
4.808862
4.922824
5.051031
5.194918
5.355412
5.533114
5.728191
5.940392
6.169049
6.413015
6.670548
6.939223
7.215622
7.496041
7.775277
8.047513
8.307285
8.551961
8.786093
9.026505
9.304724
9.667724
10.18434
10.95631
12.15894
14.19647
18.24664
29.437
100.1706
115.8256
33.36039
18.93416
13.02362
10.10615
8.431745
7.346152
6.596321
6.05412
5.648361
5.336703
5.092624
4.898822
4.743642
4.619033
4.51928
4.440286
4.379038
4.333347
4.301639
4.282785
4.275961
4.28056
4.296164
4.322512
4.359464
4.406989
4.465152
4.534107
4.614109
4.705508
4.808768
4.924472
5.053868
5.19868
5.360088
5.538593
5.734179
5.946472
6.174755
6.417894
6.674108
6.941046
7.215675
7.493758
7.770407
8.040107
8.297679
8.540687
8.773783
9.0138
9.292398
9.656684
10.17527
10.94942
12.15475
14.19596
18.24842
29.44381
100.1626
116.8895
33.85711
19.22413
13.1608
10.15774
8.441392
7.330799
6.564215
6.010995
5.598273
5.282557
5.036535
4.842353
4.687957
4.564986
4.467537
4.391354
4.333312
4.291116
4.263106
4.24807
4.245097
4.253516
4.27287
4.302851
4.343278
4.394089
4.455316
4.527091
4.609628
4.703249
4.808389
4.925622
5.05598
5.201277
5.363117
5.54199
5.73772
5.949831
6.177527
6.419647
6.674592
6.939937
7.212549
7.488492
7.762978
8.030589
8.286266
8.527773
8.760058
9.000189
9.279746
9.645579
10.16605
10.94222
12.14994
14.19494
18.25428
29.46162
100.1652
102.407
33.84482
19.47171
13.29749
10.21035
8.450422
7.315467
6.532702
5.968928
5.549608
5.230145
4.982456
4.788132
4.634714
4.513543
4.418495
4.345147
4.29028
4.25152
4.227118
4.215827
4.21654
4.228603
4.251502
4.284889
4.32855
4.382374
4.44636
4.520611
4.605338
4.700854
4.807582
4.926076
5.057156
5.202696
5.364685
5.543633
5.739233
5.950922
6.177905
6.418998
6.672527
6.936196
7.206962
7.480966
7.753515
8.019307
8.273421
8.513772
8.745455
8.98565
9.26596
9.633254
10.15572
10.93406
12.14414
14.19149
18.25479
29.46834
100.1673
102.5096
34.16064
19.76512
13.44803
10.26633
8.460561
7.301766
6.503727
5.930221
5.504959
5.182203
4.933112
4.738761
4.58633
4.466905
4.374147
4.303491
4.251626
4.216105
4.195073
4.187193
4.191301
4.206699
4.232819
4.269258
4.315762
4.372212
4.438591
4.514981
4.60157
4.698657
4.806654
4.9261
5.0577
5.203364
5.365317
5.544103
5.739345
5.950411
6.176454
6.416314
6.668361
6.930355
7.199334
7.47153
7.742341
8.006565
8.259388
8.498861
8.730231
8.970762
9.251988
9.620682
10.14489
10.92515
12.13783
14.18924
18.25733
29.48928
100.1927
117.3766
34.93484
20.08123
13.6031
10.32336
8.471263
7.289656
6.477317
5.89485
5.464186
5.138503
4.888245
4.694005
4.542622
4.424942
4.33446
4.266473
4.217526
4.185053
4.167124
4.162347
4.169523
4.187886
4.216831
4.255939
4.304927
4.363647
4.432065
4.510255
4.598385
4.696729
4.805683
4.925781
5.057707
5.20337
5.365069
5.543422
5.738018
5.948192
6.17309
6.411576
6.662068
6.922394
7.189666
7.460196
7.729467
7.99236
8.244151
8.482998
8.714254
8.955241
9.237438
9.607544
10.13341
10.91529
12.1296
14.18324
18.25778
29.50108
100.2232
118.152
35.33681
20.35711
13.75296
10.38048
8.483305
7.279708
6.453733
5.862859
5.427239
5.098963
4.847774
4.653793
4.503534
4.387606
4.299324
4.233848
4.187613
4.157966
4.142911
4.140953
4.150898
4.171909
4.203357
4.244799
4.295944
4.356615
4.42675
4.506398
4.595718
4.694981
4.804581
4.925052
5.057085
5.202567
5.363831
5.54154
5.735267
5.944343
6.167935
6.404946
6.653852
6.912547
7.178215
7.447242
7.71518
7.976978
8.227986
8.466442
8.697781
8.939363
9.222598
9.594141
10.12174
10.90546
12.12197
14.17846
18.25687
29.50907
100.2845
118.7565
35.61667
20.60313
13.89875
10.43813
8.497227
7.272642
6.433766
5.835026
5.394829
5.064203
4.812217
4.61854
4.469373
4.355098
4.268864
4.205694
4.161919
4.134797
4.122434
4.122943
4.135308
4.158632
4.192262
4.235716
4.28867
4.35093
4.422426
4.503198
4.593396
4.693288
4.803268
4.923868
5.055786
5.200922
5.361613
5.538515
5.731191
5.939001
6.161157
6.39662
6.643933
6.901051
7.165226
7.432905
7.6997
7.960615
8.211053
8.449311
8.680883
8.923137
9.207408
9.580291
10.1094
10.89459
12.11265
14.17118
18.25325
29.5142
100.3317
118.7396
35.89772
20.8552
14.04797
10.49859
8.514408
7.269622
6.418293
5.81202
5.36749
5.034661
4.781928
4.58852
4.440339
4.32755
4.243143
4.182024
4.140432
4.115555
4.105417
4.108111
4.122572
4.147882
4.183345
4.22846
4.282884
4.346412
4.418958
4.500554
4.591349
4.691606
4.801723
4.922235
5.053846
5.198486
5.358487
5.534445
5.725927
5.932339
6.152964
6.386837
6.632566
6.888171
7.150961
7.417437
7.68326
7.943474
8.193525
8.431752
8.663688
8.906702
9.192061
9.566321
10.09702
10.88386
12.10388
14.16509
18.25169
29.52344
100.3737
119.4372
36.18011
21.07966
14.19286
10.56029
8.534867
7.270719
6.407716
5.794326
5.345657
5.010684
4.757165
4.563911
4.416535
4.305001
4.222152
4.162783
4.123052
4.100085
4.091837
4.096386
4.112606
4.139551
4.176505
4.222948
4.278518
4.342996
4.41629
4.498425
4.589548
4.689923
4.799952
4.920176
5.051329
5.195364
5.354563
5.529455
5.719618
5.924527
6.143549
6.375803
6.619969
6.874124
7.13563
7.40103
7.666026
7.925695
8.175508
8.413831
8.646217
8.890019
9.176419
9.551935
10.08401
10.87215
12.09352
14.15637
18.24555
29.52315
100.3807
107.6118
36.14488
21.29502
14.34079
10.62645
8.5594
7.276502
6.402406
5.782302
5.329617
4.992469
4.738038
4.544745
4.397936
4.287386
4.2058
4.147872
4.109679
4.088278
4.081564
4.087615
4.105258
4.133508
4.171626
4.219074
4.275478
4.340608
4.414365
4.496772
4.587974
4.688241
4.797977
4.917735
5.048318
5.19167
5.349953
5.523659
5.712396
5.915718
6.13309
6.363718
6.60635
6.859123
7.119438
7.383881
7.648181
7.90744
8.157148
8.395684
8.628609
8.873254
9.160727
9.537521
10.07102
10.86063
12.08371
14.14889
18.24193
29.52718
100.4028
108.4897
36.38334
21.52333
14.49306
10.70091
8.588
7.2855
6.402608
5.775984
5.319396
4.980058
4.724581
4.53103
4.384515
4.274643
4.193995
4.137171
4.100176
4.080009
4.074495
4.081709
4.100429
4.129649
4.168609
4.216753
4.273695
4.339196
4.413152
4.495585
4.586641
4.686594
4.795857
4.914993
5.044889
5.187474
5.344749
5.517169
5.704387
5.906055
6.121745
6.35075
6.591887
6.84334
7.102552
7.366138
7.62985
7.888809
8.138512
8.377341
8.610849
8.856333
9.144819
9.522774
10.05751
10.84828
12.07256
14.13924
18.23488
29.5279
100.4208
109.5179
36.67153
21.75413
14.6495
10.78271
8.621701
7.298606
6.407023
5.775967
5.315503
4.97359
4.716744
4.522651
4.376147
4.266656
4.186633
4.130586
4.094452
4.075181
4.070539
4.078594
4.098077
4.127959
4.167455
4.215994
4.27318
4.33877
4.412661
4.494881
4.585578
4.685029
4.793653
4.912023
5.041123
5.182858
5.339047
5.510094
5.695714
5.895676
6.109665
6.337064
6.576751
6.82695
7.085138
7.347956
7.611175
7.86993
8.119716
8.358908
8.593048
8.839393
9.128897
9.508013
10.04402
10.83607
12.06183
14.13049
18.22933
29.52799
100.4641
110.4123
36.92185
21.96977
14.80628
10.8703
8.660606
7.316714
6.416913
5.779675
5.316649
4.973438
4.715287
4.520297
4.373347
4.263789
4.183976
4.128323
4.092684
4.073941
4.069801
4.078302
4.098123
4.128219
4.167875
4.216497
4.273669
4.339134
4.412775
4.494606
4.584771
4.683561
4.791405
4.908887
5.037102
5.177925
5.33295
5.502529
5.686475
5.884691
6.09698
6.322803
6.561088
6.810095
7.067328
7.329451
7.592254
7.850875
8.100803
8.340399
8.575181
8.822363
9.112822
9.492992
10.03011
10.8232
12.05004
14.12008
18.22138
29.52846
100.5053
111.2286
37.16105
22.18012
14.96573
10.96466
8.705983
7.340801
6.432708
5.790191
5.323017
4.976613
4.717076
4.521399
4.374102
4.264402
4.184585
4.129024
4.093538
4.074985
4.071046
4.079763
4.099818
4.130136
4.169847
4.218375
4.275317
4.340422
4.413578
4.494807
4.584271
4.68225
4.789177
4.905651
5.032867
5.172716
5.32655
5.494588
5.67679
5.873232
6.083831
6.308115
6.545048
6.79292
7.049258
7.31075
7.573198
7.831741
8.081858
8.321889
8.557327
8.80534
9.096737
9.477947
10.01619
10.8104
12.03853
14.1103
18.21447
29.52822
100.5589
112.0058
37.37451
22.38096
15.12755
11.06498
8.756915
7.371095
6.454907
5.806743
5.335635
4.986673
4.725146
4.528091
4.379885
4.269604
4.189433
4.133666
4.098067
4.079445
4.075443
4.084062
4.10395
4.134011
4.173415
4.221558
4.278022
4.342549
4.415027
4.495481
4.584071
4.681088
4.786974
4.902361
5.028625
5.167511
5.319943
5.486239
5.666651
5.861359
6.07033
6.29313
6.528762
6.775546
7.031038
7.291945
7.55408
7.81258
8.06291
8.303384
8.539463
8.788267
9.080535
9.462689
10.00192
10.79707
12.02617
14.09911
18.20501
29.52243
100.5923
112.8331
37.5935
22.58178
15.29293
11.17279
8.817709
7.407155
6.481152
5.828227
5.353445
5.001711
4.738064
4.539414
4.390018
4.278851
4.198013
4.141727
4.105701
4.086699
4.082333
4.090565
4.110022
4.139596
4.17845
4.22597
4.281733
4.345478
4.417094
4.496608
4.584184
4.680129
4.784917
4.89923
5.024395
5.162028
5.312979
5.477607
5.656276
5.849271
6.056634
6.277979
6.512345
6.75808
7.012764
7.273123
7.534978
7.79346
8.044016
8.284933
8.521639
8.77121
9.064319
9.447395
9.987624
10.78377
12.01403
14.0885
18.19666
29.51675
100.623
113.7223
37.80667
22.77911
15.46163
11.28872
8.887869
7.449424
6.512023
5.854447
5.376054
5.021465
4.755546
4.555088
4.404248
4.291917
4.21012
4.15302
4.116274
4.096603
4.091597
4.09917
4.117939
4.146782
4.184852
4.231529
4.286385
4.349162
4.419748
4.498178
4.584621
4.679403
4.78306
4.896239
5.020175
5.156432
5.305832
5.468778
5.645728
5.83705
6.042847
6.262778
6.495915
6.740635
6.994541
7.254376
7.515966
7.774435
8.025209
8.266546
8.503842
8.754128
9.048015
9.431932
9.973053
10.77008
12.0013
14.07705
18.18727
29.51259
100.6393
114.646
38.01766
22.97192
15.63255
11.41214
8.966759
7.498551
6.548353
5.885564
5.403279
5.045642
4.777267
4.574796
4.422284
4.308541
4.225526
4.167347
4.129611
4.109004
4.103098
4.109754
4.127587
4.155461
4.192521
4.238145
4.291903
4.353539
4.422946
4.500163
4.585377
4.678971
4.781451
4.893378
5.015963
5.150751
5.298566
5.459856
5.635136
5.824836
6.02911
6.247661
6.479596
6.723324
6.976468
7.235787
7.49711
7.755553
8.006519
8.24824
8.486082
8.737035
9.031657
9.41638
9.958387
10.75634
11.98872
14.06619
18.17962
29.51153
100.66
115.5419
38.21366
23.16866
15.8084
11.54338
9.053285
7.553748
6.590258
5.921931
5.435324
5.07427
4.803129
4.598371
4.443928
4.328518
4.244029
4.184512
4.145528
4.123728
4.116671
4.122162
4.138818
4.165495
4.201333
4.245709
4.298195
4.358538
4.426637
4.502551
4.586513
4.678871
4.780056
4.890632
5.011803
5.145086
5.291315
5.450975
5.624627
5.812745
6.015533
6.232732
6.463484
6.706228
6.958612
7.217404
7.478441
7.736825
7.987939
8.229987
8.468311
8.719862
9.015145
9.400591
9.94338
10.74212
11.9754
14.05411
18.16984
29.50836
100.6714
122.4521
38.57643
23.36902
15.98638
11.68102
9.148457
7.618268
6.637444
5.96155
5.471038
5.106652
4.832662
4.62545
4.468868
4.351564
4.265365
4.204273
4.163805
4.140573
4.13213
4.136219
4.151471
4.176734
4.211152
4.254104
4.305169
4.364097
4.430815
4.505403