/*--------------------------------*- C++ -*----------------------------------*\
| =========                 |                                                 |
| \\      /  F ield         | OpenFOAM: The Open Source CFD Toolbox           |
|  \\    /   O peration     | Version:  2312                                  |
|   \\  /    A nd           | Website:  www.openfoam.com                      |
|    \\/     M anipulation  |                                                 |
\*---------------------------------------------------------------------------*/
FoamFile
{
    version     2.0;
    format      ascii;
    arch        "LSB;label=32;scalar=64";
    class       surfaceScalarField;
    location    "4500";
    object      phi;
}
// * * * * * * * * * * * * * * * * * * * * * * * * * * * * * * * * * * * * * //

dimensions      [1 0 -1 0 0 0 0];

oriented        oriented;

internalField   nonuniform List<scalar> 
23740
(
-0.0001221841
0.0001222307
-0.0002333441
0.0001111596
-0.0003473029
0.0001139583
-0.0004696149
0.0001223115
-0.0005973077
0.0001276925
-0.00072119
0.0001238819
-0.0008293203
0.0001081301
-0.0009259341
9.661357e-05
-0.001030045
0.0001041104
-0.001145144
0.0001150988
-0.001242247
9.710277e-05
-0.001307522
6.527513e-05
-0.001368333
6.081097e-05
-0.001451938
8.360425e-05
-0.0015445
9.256167e-05
-0.001607627
6.312749e-05
-0.001639499
3.18716e-05
-0.001681051
4.155143e-05
-0.001748593
6.754185e-05
-0.001807592
5.899882e-05
-0.001834283
2.669047e-05
-0.001854687
2.040469e-05
-0.001893289
3.860108e-05
-0.001934233
4.094449e-05
-0.001957551
2.33182e-05
-0.001971383
1.383199e-05
-0.001987928
1.654457e-05
-0.002003355
1.542694e-05
-0.002014064
1.070954e-05
-0.002023618
9.554188e-06
-0.002029665
6.046705e-06
-0.002030045
3.807823e-07
-0.002023229
-6.815885e-06
-0.002017093
-6.135125e-06
-0.002017115
2.268325e-08
-0.002016149
-9.649003e-07
-0.002002392
-1.375616e-05
-0.001970468
-3.192256e-05
-0.001932262
-3.820457e-05
-0.001914556
-1.770442e-05
-0.001914587
3.310246e-08
-0.001894973
-1.961256e-05
-0.001832072
-6.289956e-05
-0.001761336
-7.073496e-05
-0.001724195
-3.714029e-05
-0.001708452
-1.574157e-05
-0.001663232
-4.522039e-05
-0.001565549
-9.76828e-05
-0.001462905
-0.0001026444
-0.001417724
-4.518092e-05
-0.001373253
-4.447201e-05
-0.001260298
-0.0001129558
-0.001127189
-0.0001331092
-0.001026456
-0.0001007343
-0.0009184039
-0.0001080525
-0.0007675653
-0.0001508391
-0.0005979981
-0.0001695677
-0.0004104073
-0.0001875913
-0.0002056087
-0.0002047995
-0.0002056089
-0.0001202427
0.0002424728
-0.0002411327
0.0002320489
-0.0003564003
0.0002292253
-0.0004621278
0.0002280385
-0.0005589357
0.0002245001
-0.0006533071
0.0002182529
-0.0007516586
0.0002064813
-0.0008483896
0.0001933443
-0.0009278992
0.0001836198
-0.0009877995
0.0001749988
-0.001054816
0.000164119
-0.00113705
0.0001475084
-0.001212845
0.0001366057
-0.00126046
0.000131219
-0.00129233
0.0001244318
-0.001340781
0.0001115778
-0.001407396
9.848622e-05
-0.001457228
9.138347e-05
-0.0014767
8.701332e-05
-0.001497076
7.937453e-05
-0.001539036
6.86509e-05
-0.001579629
6.099685e-05
-0.001597451
5.642338e-05
-0.001607506
5.09988e-05
-0.0016276
4.341264e-05
-0.001650067
3.62989e-05
-0.001664015
3.049232e-05
-0.001673408
2.482046e-05
-0.00168183
1.913145e-05
-0.001686125
1.385027e-05
-0.001688367
8.288458e-06
-0.001690879
2.894027e-06
-0.001693205
-4.488994e-06
-0.001690135
-9.204909e-06
-0.001675632
-1.447832e-05
-0.001655845
-2.075041e-05
-0.001641218
-2.838214e-05
-0.001637664
-3.547474e-05
-0.001633323
-4.254342e-05
-0.001603223
-4.780249e-05
-0.001549678
-5.351034e-05
-0.001506966
-6.232222e-05
-0.001496905
-7.295865e-05
-0.001485423
-8.22158e-05
-0.001433629
-8.893337e-05
-0.001353014
-9.635557e-05
-0.001291018
-0.0001072161
-0.001269022
-0.0001196792
-0.001240926
-0.000130741
-0.001145032
-0.0001410761
-0.001036024
-0.0001534806
-0.0009820533
-0.0001669277
-0.0009329899
-0.0001821736
-0.0008370019
-0.0001967231
-0.0007194238
-0.0002256314
-0.000610594
-0.0002596695
-0.000496086
-0.0002840763
-0.000352481
-0.0003311969
-0.0001862769
-0.0003710043
-0.0003918858
-9.928214e-05
0.0003417541
-0.0001973101
0.000330076
-0.0002925726
0.0003244871
-0.0003818768
0.0003173421
-0.0004641895
0.0003068123
-0.0005391195
0.0002931825
-0.0006110308
0.0002783921
-0.0006833374
0.0002656506
-0.0007547043
0.0002549865
-0.000820967
0.0002412612
-0.0008800765
0.0002232283
-0.0009402389
0.0002076706
-0.0009930935
0.00018946
-0.001038526
0.0001766511
-0.001078295
0.0001642001
-0.001118073
0.0001513556
-0.001158598
0.000139011
-0.001195208
0.0001279932
-0.001226019
0.0001178247
-0.001254067
0.0001074218
-0.001282301
9.688493e-05
-0.001308492
8.718746e-05
-0.001330381
7.831265e-05
-0.001348851
6.94685e-05
-0.001365855
6.041701e-05
-0.001381138
5.158226e-05
-0.001393759
4.311313e-05
-0.001403708
3.476961e-05
-0.001411051
2.647482e-05
-0.001415513
1.831224e-05
-0.001418235
1.101115e-05
-0.001418217
2.877089e-06
-0.001416041
-6.66448e-06
-0.001410054
-1.519105e-05
-0.001400926
-2.360566e-05
-0.001389276
-3.239855e-05
-0.001375974
-4.168275e-05
-0.00136007
-5.137769e-05
-0.001341426
-6.11858e-05
-0.001318364
-7.086253e-05
-0.001290999
-8.087364e-05
-0.001261466
-9.185333e-05
-0.001230631
-0.0001037931
-0.001197041
-0.0001158048
-0.001157791
-0.0001281829
-0.001112747
-0.000141399
-0.00106444
-0.0001555233
-0.00101355
-0.0001705695
-0.0009579371
-0.0001863547
-0.0008976441
-0.0002013698
-0.0008372136
-0.0002139118
-0.000770241
-0.0002339011
-0.0006937779
-0.0002586374
-0.0006078463
-0.0002826554
-0.0005160246
-0.0003174538
-0.0004290833
-0.0003466112
-0.0003301449
-0.0003830151
-0.0002336343
-0.0004277078
-0.0001226391
-0.0004819998
-0.0005145249
-8.006643e-05
0.0004218195
-0.0001562891
0.0004062977
-0.0002294123
0.0003976095
-0.0002985626
0.0003864918
-0.0003640208
0.00037227
-0.0004264006
0.0003555619
-0.0004858647
0.000337856
-0.0005412323
0.0003210179
-0.0005899031
0.0003036572
-0.0006385198
0.0002898777
-0.0006871446
0.0002718528
-0.0007366603
0.0002571861
-0.0007851926
0.0002379921
-0.0008281955
0.0002196538
-0.0008675827
0.0002035871
-0.0009047355
0.0001885083
-0.000941087
0.0001753623
-0.0009740021
0.0001609081
-0.001003606
0.0001474282
-0.001030666
0.0001344821
-0.001055742
0.0001219611
-0.001078443
0.0001098879
-0.001098352
9.822228e-05
-0.001115709
8.682555e-05
-0.0011309
7.560731e-05
-0.001143884
6.456706e-05
-0.001154465
5.36937e-05
-0.001162623
4.292838e-05
-0.001168397
3.224853e-05
-0.001172819
2.273474e-05
-0.001174522
1.271462e-05
-0.001172891
1.246361e-06
-0.001169684
-9.871426e-06
-0.001164044
-2.083004e-05
-0.001155849
-3.180024e-05
-0.001145104
-4.314208e-05
-0.001131999
-5.478665e-05
-0.001116626
-6.674967e-05
-0.001098772
-7.903919e-05
-0.001077925
-9.170839e-05
-0.001053946
-0.0001048519
-0.001027217
-0.0001185818
-0.0009979423
-0.0001330669
-0.0009672145
-0.0001465321
-0.0009326358
-0.0001627613
-0.0008944187
-0.0001796161
-0.0008529453
-0.0001969968
-0.0008083174
-0.0002151977
-0.0007618976
-0.0002327749
-0.0007119718
-0.0002512961
-0.0006543238
-0.0002715603
-0.0005878492
-0.0003003763
-0.0005191134
-0.0003273736
-0.0004464916
-0.0003552776
-0.0003791432
-0.0003848025
-0.0003081716
-0.000417583
-0.000235161
-0.0004560258
-0.0001605341
-0.0005023348
-8.382173e-05
-0.0005587121
-0.0005983466
-6.469795e-05
0.0004865164
-0.0001273936
0.0004689925
-0.0001864311
0.0004566463
-0.0002423399
0.0004424001
-0.00029569
0.0004256196
-0.0003471043
0.0004069758
-0.0003965203
0.0003872717
-0.0004430762
0.0003675736
-0.0004868816
0.0003474624
-0.0005243796
0.0003273755
-0.0005613008
0.0003087739
-0.0005957464
0.0002916316
-0.0006330188
0.0002752644
-0.0006703066
0.0002569414
-0.0007045535
0.000237834
-0.000736089
0.0002200437
-0.0007655419
0.0002048151
-0.0007930679
0.0001884341
-0.0008182849
0.0001726452
-0.0008412781
0.0001574753
-0.0008621639
0.0001428469
-0.0008809349
0.000128659
-0.0008975573
0.0001148447
-0.0009120647
0.000101333
-0.0009245248
8.806751e-05
-0.0009349684
7.501084e-05
-0.0009434022
6.212762e-05
-0.0009498507
4.937699e-05
-0.000954301
3.669902e-05
-0.0009568364
2.52704e-05
-0.0009563889
1.22673e-05
-0.0009545791
-5.631244e-07
-0.0009509129
-1.353721e-05
-0.0009451108
-2.663171e-05
-0.0009381733
-3.873735e-05
-0.0009287829
-5.253199e-05
-0.0009171313
-6.643771e-05
-0.0009033086
-8.057178e-05
-0.0008872993
-9.504794e-05
-0.0008690568
-0.0001099503
-0.000848543
-0.0001253652
-0.0008257327
-0.0001413916
-0.0008007957
-0.0001580037
-0.0007733381
-0.0001739896
-0.0007432475
-0.0001928519
-0.0007107445
-0.0002121191
-0.0006761744
-0.0002315672
-0.0006405929
-0.0002507795
-0.0006017798
-0.0002715884
-0.0005571672
-0.000295909
-0.0005055696
-0.0003231583
-0.0004554361
-0.0003505102
-0.0004046657
-0.0003781443
-0.0003523881
-0.0004075554
-0.0002975941
-0.0004395966
-0.0002401584
-0.0004750189
-0.0001812112
-0.0005149729
-0.000122059
-0.0005614869
-6.282741e-05
-0.0006179434
-0.000661174
-5.036212e-05
0.0005368774
-9.955236e-05
0.0005181818
-0.0001455443
0.0005026375
-0.0001890708
0.0004859259
-0.0002306523
0.0004672007
-0.0002707044
0.0004470275
-0.0003094824
0.0004260494
-0.0003467234
0.0004048144
-0.0003827355
0.0003834743
-0.0004176297
0.0003622695
-0.0004503366
0.0003414807
-0.0004798926
0.0003211875
-0.0005065288
0.0003019005
-0.0005338248
0.0002842372
-0.000561805
0.0002658142
-0.000588246
0.0002464846
-0.0006116356
0.0002282047
-0.0006336642
0.0002104627
-0.0006541935
0.0001931744
-0.0006730756
0.0001763574
-0.0006902248
0.0001599961
-0.0007056101
0.0001440443
-0.0007192223
0.000128457
-0.0007310763
0.0001131871
-0.0007411995
9.81908e-05
-0.000749616
8.34274e-05
-0.0007563463
6.885809e-05
-0.0007614116
5.444235e-05
-0.0007648439
4.013148e-05
-0.0007655202
2.594693e-05
-0.0007648746
1.162184e-05
-0.0007636448
-1.792741e-06
-0.0007605745
-1.660733e-05
-0.0007557556
-3.145042e-05
-0.0007491634
-4.532926e-05
-0.0007407968
-6.089837e-05
-0.0007307138
-7.65204e-05
-0.0007188976
-9.238777e-05
-0.0007053269
-0.0001086184
-0.0006899745
-0.0001253025
-0.0006728254
-0.0001425141
-0.0006539028
-0.0001603142
-0.0006331754
-0.0001787311
-0.0006093132
-0.0001978518
-0.0005842607
-0.0002179045
-0.000558074
-0.000238306
-0.0005303805
-0.0002592609
-0.0004993218
-0.0002818384
-0.0004636037
-0.0003073067
-0.0004258185
-0.0003336944
-0.0003879785
-0.0003609986
-0.0003492738
-0.0003892151
-0.0003086485
-0.0004187697
-0.0002661013
-0.0004501027
-0.0002221232
-0.0004835747
-0.0001773379
-0.0005198041
-0.0001324158
-0.0005598949
-8.799119e-05
-0.0006059112
-4.474812e-05
-0.0006611862
-0.000705922
-3.930847e-05
0.0005761849
-7.79267e-05
0.0005567992
-0.0001138101
0.0005385202
-0.000147702
0.0005198173
-0.0001800879
0.0004995862
-0.0002112778
0.000478217
-0.0002414371
0.0004562085
-0.0002705587
0.0004339358
-0.0002987189
0.0004116343
-0.0003259333
0.0003894837
-0.0003520964
0.0003676437
-0.0003770962
0.0003461871
-0.0004002808
0.000325085
-0.0004208641
0.0003048204
-0.0004411302
0.0002860803
-0.0004616846
0.000267039
-0.0004807853
0.0002473055
-0.0004984874
0.0002281648
-0.0005148205
0.0002095076
-0.0005297777
0.0001913146
-0.0005433336
0.0001735521
-0.0005554742
0.000156185
-0.000566194
0.0001391768
-0.000575496
0.0001224892
-0.0005833883
0.0001060832
-0.0005898796
8.991876e-05
-0.000594976
7.395464e-05
-0.0005986798
5.81462e-05
-0.0006009927
4.244446e-05
-0.0006018533
2.680763e-05
-0.0006013643
1.113295e-05
-0.0006003551
-2.801827e-06
-0.0005979737
-1.898857e-05
-0.000594306
-3.511805e-05
-0.0005883504
-5.128476e-05
-0.0005814662
-6.778237e-05
-0.0005734268
-8.455977e-05
-0.0005641206
-0.0001016938
-0.0005534875
-0.0001192514
-0.0005414861
-0.000137304
-0.0005280798
-0.0001559203
-0.0005132269
-0.0001751671
-0.0004968515
-0.0001951066
-0.0004788897
-0.0002158137
-0.0004594089
-0.0002373854
-0.000438273
-0.000259442
-0.0004143178
-0.0002832164
-0.0003873867
-0.0003087697
-0.0003596035
-0.0003350901
-0.0003309939
-0.0003623042
-0.000301379
-0.0003906137
-0.0002705048
-0.0004200893
-0.0002384007
-0.0004508739
-0.0002052975
-0.000483206
-0.000171423
-0.0005174491
-0.0001370379
-0.0005541891
-0.000102487
-0.0005944457
-6.821337e-05
-0.0006401846
-3.462899e-05
-0.0006947703
-0.000740551
-3.03668e-05
0.0006065507
-5.984147e-05
0.000586273
-8.683424e-05
0.0005655123
-0.0001122207
0.0005452032
-0.0001365362
0.0005239012
-0.0001600687
0.0005017492
-0.0001829523
0.0004790918
-0.0002052188
0.0004562021
-0.0002268704
0.0004332857
-0.0002478769
0.00041049
-0.0002681633
0.0003879299
-0.0002876589
0.0003656827
-0.000306354
0.00034378
-0.000323863
0.0003223294
-0.0003390957
0.000301313
-0.0003536987
0.0002816419
-0.0003683429
0.0002619496
-0.000381988
0.0002418099
-0.0003946208
0.0002221404
-0.0004062006
0.0002028945
-0.0004167039
0.0001840554
-0.0004261143
0.0001655955
-0.0004344249
0.0001474874
-0.000441636
0.0001297004
-0.0004477539
0.0001122011
-0.0004527881
9.495305e-05
-0.0004567506
7.791718e-05
-0.0004596555
6.10512e-05
-0.0004615195
4.430855e-05
-0.0004623527
2.764079e-05
-0.0004622135
1.099381e-05
-0.00046082
-4.195243e-06
-0.0004585769
-2.123167e-05
-0.0004553801
-3.831484e-05
-0.0004511422
-5.552257e-05
-0.0004459369
-7.298767e-05
-0.0004397361
-9.076056e-05
-0.0004325132
-0.0001089167
-0.0004242352
-0.0001275294
-0.0004148649
-0.0001466743
-0.0004043583
-0.000166427
-0.0003926601
-0.0001868654
-0.0003797052
-0.0002080616
-0.0003653336
-0.0002301854
-0.0003498361
-0.0002528831
-0.0003325055
-0.0002767727
-0.0003135923
-0.0003021297
-0.0002938594
-0.0003285028
-0.0002731114
-0.0003558382
-0.0002512459
-0.0003841698
-0.0002283315
-0.0004135281
-0.000204445
-0.000443976
-0.0001796882
-0.0004756307
-0.0001542085
-0.0005086856
-0.0001282015
-0.0005434561
-0.0001019142
-0.0005804763
-7.565737e-05
-0.0006207024
-4.985595e-05
-0.0006659858
-2.50765e-05
-0.0007195494
-0.0007656275
-2.302808e-05
0.000629578
-4.502098e-05
0.0006082652
-6.488353e-05
0.0005853743
-8.345325e-05
0.0005637725
-0.0001012102
0.0005416578
-0.0001183969
0.0005189356
-0.000135128
0.0004958226
-0.0001514449
0.0004725188
-0.0001673502
0.0004491908
-0.0001828268
0.0004259664
-0.0001978376
0.0004029406
-0.0002123373
0.0003801823
-0.0002262937
0.0003577363
-0.0002396129
0.0003356485
-0.0002522153
0.0003139153
-0.0002631202
0.0002925468
-0.0002734273
0.0002722566
-0.0002836935
0.0002520761
-0.0002932143
0.0002316612
-0.0003019617
0.0002116419
-0.0003098995
0.0001919932
-0.0003170108
0.0001727068
-0.0003232892
0.0001537658
-0.000328737
0.0001351482
-0.0003333629
0.000116827
-0.0003371796
9.876979e-05
-0.0003402024
8.093998e-05
-0.000342448
6.329682e-05
-0.000343934
4.579458e-05
-0.0003446766
2.838345e-05
-0.0003446932
1.101043e-05
-0.0003436557
-5.232744e-06
-0.0003420129
-2.287446e-05
-0.0003397084
-4.061939e-05
-0.0003366923
-5.853867e-05
-0.000332968
-7.671194e-05
-0.000328516
-9.521267e-05
-0.0003233139
-0.0001141189
-0.0003173342
-0.0001335092
-0.0003105454
-0.0001534631
-0.0003029132
-0.0001740592
-0.0002944067
-0.000195372
-0.0002849769
-0.0002174914
-0.0002748236
-0.0002403388
-0.0002635235
-0.0002641833
-0.0002507408
-0.0002895555
-0.0002370114
-0.0003158592
-0.000222333
-0.0003431813
-0.0002066908
-0.0003714806
-0.0001901128
-0.0004007478
-0.0001726589
-0.0004309821
-0.0001544249
-0.00046221
-0.000135543
-0.0004945126
-0.0001161726
-0.0005280561
-9.649227e-05
-0.0005631364
-7.669895e-05
-0.0006002696
-5.700949e-05
-0.0006403917
-3.76757e-05
-0.0006853194
-1.898906e-05
-0.0007382358
-0.0007846165
-1.724895e-05
0.0006468263
-3.323257e-05
0.0006242483
-4.718362e-05
0.0005993249
-5.991588e-05
0.0005765043
-7.197675e-05
0.0005537183
-8.366345e-05
0.000530622
-9.512597e-05
0.0005072848
-0.0001064303
0.0004838229
-0.0001175855
0.0004603458
-0.0001285637
0.0004369445
-0.0001393141
0.0004136908
-0.0001497742
0.0003906422
-0.0001598817
0.0003678437
-0.0001695636
0.0003453304
-0.0001787668
0.0003231184
-0.0001874344
0.0003012143
-0.0001948257
0.0002796478
-0.0002016809
0.0002589313
-0.0002084457
0.000238426
-0.0002146931
0.0002178893
-0.0002204133
0.0001977134
-0.0002255609
0.0001778544
-0.0002301249
0.0001583298
-0.0002341052
0.0001391285
-0.0002375096
0.0001202314
-0.0002403515
0.0001016117
-0.0002426464
8.323492e-05
-0.0002444099
6.506025e-05
-0.0002456566
4.704133e-05
-0.0002463997
2.912656e-05
-0.0002466495
1.126017e-05
-0.0002460861
-5.796149e-06
-0.0002451179
-2.384266e-05
-0.0002437208
-4.201654e-05
-0.0002418734
-6.038608e-05
-0.0002395614
-7.902398e-05
-0.0002367686
-9.800546e-05
-0.0002334782
-0.0001174093
-0.0002296701
-0.0001373173
-0.0002253196
-0.0001578136
-0.0002203934
-0.0001789855
-0.0002148423
-0.0002009232
-0.0002086297
-0.0002237042
-0.0002014691
-0.0002474995
-0.0001931203
-0.0002725322
-0.0001840794
-0.0002985965
-0.0001742545
-0.0003256842
-0.0001636219
-0.000353814
-0.0001521471
-0.0003829554
-0.0001398535
-0.0004130415
-0.0001268282
-0.0004440075
-0.000113198
-0.0004758402
-9.910232e-05
-0.0005086084
-8.468612e-05
-0.0005424723
-7.009656e-05
-0.0005777259
-5.548199e-05
-0.0006148841
-4.100472e-05
-0.0006548689
-2.687831e-05
-0.0006994456
-1.342548e-05
-0.0007516884
-0.0007980419
-1.171879e-05
0.0006585446
-2.239247e-05
0.0006349216
-3.139357e-05
0.0006083256
-3.95149e-05
0.0005846254
-4.721564e-05
0.0005614188
-5.471534e-05
0.0005381215
-6.210739e-05
0.0005146767
-6.941996e-05
0.0004911352
-7.664542e-05
0.0004675711
-8.376256e-05
0.0004440614
-9.075492e-05
0.000420683
-9.764704e-05
0.0003975342
-0.000104449
0.0003746455
-0.000111107
0.0003519882
-0.0001175467
0.0003295581
-0.000123693
0.0003073605
-0.0001294602
0.0002854149
-0.0001342957
0.0002637667
-0.000138655
0.0002427853
-0.0001428429
0.0002220772
-0.0001466268
0.0002014972
-0.0001500211
0.0001812486
-0.0001530258
0.0001613345
-0.0001556543
0.000141757
-0.0001579253
0.0001225024
-0.0001598608
0.0001035472
-0.000161482
8.485607e-05
-0.0001628045
6.638276e-05
-0.0001638422
4.807899e-05
-0.0001646041
2.988843e-05
-0.0001650897
1.174582e-05
-0.0001650076
-5.878332e-06
-0.0001646857
-2.41645e-05
-0.0001641031
-4.259921e-05
-0.0001632398
-6.124934e-05
-0.0001620756
-8.01882e-05
-0.0001605885
-9.949262e-05
-0.0001587547
-0.0001192432
-0.0001565479
-0.0001395241
-0.0001539387
-0.000160423
-0.0001508934
-0.0001820308
-0.0001473778
-0.0002044389
-0.0001433287
-0.0002277532
-0.0001388329
-0.0002519954
-0.0001339997
-0.0002773653
-0.000128636
-0.0003039603
-0.0001226078
-0.0003317124
-0.0001157367
-0.0003606853
-0.0001079632
-0.000390729
-9.934699e-05
-0.0004216577
-9.00439e-05
-0.0004533107
-8.024629e-05
-0.0004856378
-7.011835e-05
-0.0005187363
-5.980082e-05
-0.0005527898
-4.941623e-05
-0.0005881104
-3.907521e-05
-0.000625225
-2.888735e-05
-0.0006650567
-1.897715e-05
-0.0007093557
-9.513634e-06
-0.0007611518
-0.0008075556
-9.002717e-06
0.000667547
-1.659494e-05
0.0006425136
-2.229389e-05
0.0006140244
-2.678752e-05
0.0005891189
-3.068648e-05
0.0005653176
-3.431258e-05
0.0005417474
-3.784956e-05
0.0005182134
-4.140918e-05
0.0004946946
-4.506071e-05
0.0004712224
-4.884149e-05
0.000447842
-5.273778e-05
0.0004245792
-5.669902e-05
0.0004014953
-6.066463e-05
0.000378611
-6.458717e-05
0.0003559106
-6.842036e-05
0.0003333911
-7.20933e-05
0.0003110334
-7.553462e-05
0.0002888562
-7.866313e-05
0.0002668952
-8.113386e-05
0.0002452559
-8.317913e-05
0.0002241224
-8.505267e-05
0.0002033707
-8.681309e-05
0.0001830089
-8.849251e-05
0.0001630139
-9.008577e-05
0.0001433503
-9.158417e-05
0.0001240008
-9.298931e-05
0.0001049523
-9.430384e-05
8.617059e-05
-9.551878e-05
6.759769e-05
-9.662081e-05
4.9181e-05
-9.760751e-05
3.087512e-05
-9.847682e-05
1.261511e-05
-9.89854e-05
-5.369762e-06
-9.939779e-05
-2.375212e-05
-9.969419e-05
-4.230283e-05
-9.985743e-05
-6.108612e-05
-9.987117e-05
-8.017447e-05
-9.971723e-05
-9.964658e-05
-9.937618e-05
-0.0001195842
-9.882668e-05
-0.0001400736
-9.804453e-05
-0.0001612051
-9.700121e-05
-0.0001830741
-9.566111e-05
-0.000205779
-9.400814e-05
-0.0002294062
-9.192037e-05
-0.0002540832
-8.939548e-05
-0.0002798903
-8.658011e-05
-0.0003067757
-8.317275e-05
-0.0003351198
-7.890178e-05
-0.0003649563
-7.371596e-05
-0.0003959148
-6.767785e-05
-0.0004276959
-6.109259e-05
-0.000459896
-5.424103e-05
-0.0004924894
-4.724333e-05
-0.000525734
-4.017867e-05
-0.0005598545
-3.311122e-05
-0.0005951779
-2.610051e-05
-0.0006322357
-1.921094e-05
-0.0006719462
-1.25316e-05
-0.0007160349
-6.220117e-06
-0.0007674631
-0.0008137757
-4.564321e-06
0.0006721113
-7.298563e-06
0.0006452478
-8.039564e-06
0.0006147653
-8.011095e-06
0.0005890903
-7.732972e-06
0.0005650393
-7.528427e-06
0.0005415427
-7.585098e-06
0.0005182699
-8.014645e-06
0.000495124
-8.876116e-06
0.0004720837
-1.01738e-05
0.0004491395
-1.188391e-05
0.0004262891
-1.381322e-05
0.0004034244
-1.590266e-05
0.0003807003
-1.817758e-05
0.0003581854
-2.050063e-05
0.000335714
-2.270389e-05
0.0003132365
-2.463311e-05
0.0002907853
-2.62316e-05
0.0002684936
-2.750515e-05
0.0002465294
-2.854628e-05
0.0002251634
-2.960565e-05
0.00020443
-3.074116e-05
0.0001841444
-3.195059e-05
0.0001642233
-3.321298e-05
0.0001446126
-3.451973e-05
0.0001253075
-3.588858e-05
0.0001063211
-3.73418e-05
8.762379e-05
-3.886278e-05
6.911865e-05
-4.039491e-05
5.071311e-05
-4.189807e-05
3.237827e-05
-4.336892e-05
1.408595e-05
-4.462215e-05
-4.116543e-06
-4.587749e-05
-2.24968e-05
-4.712433e-05
-4.1056e-05
-4.833499e-05
-5.987547e-05
-4.949738e-05
-7.901209e-05
-5.059879e-05
-9.854519e-05
-5.162804e-05
-0.000118555
-5.257347e-05
-0.0001391282
-5.342112e-05
-0.0001603575
-5.415024e-05
-0.000182345
-5.473017e-05
-0.0002051991
-5.511666e-05
-0.0002290198
-5.525561e-05
-0.0002539443
-5.499137e-05
-0.0002801545
-5.397476e-05
-0.0003077923
-5.222682e-05
-0.0003368678
-4.985181e-05
-0.0003673313
-4.666148e-05
-0.0003991052
-4.272006e-05
-0.0004316373
-3.837366e-05
-0.0004642424
-3.390902e-05
-0.0004969541
-2.943558e-05
-0.0005302074
-2.496766e-05
-0.0005643224
-2.052959e-05
-0.0005996159
-1.615364e-05
-0.0006366116
-1.187866e-05
-0.0006762211
-7.755164e-06
-0.0007201583
-3.865201e-06
-0.0007713529
-0.0008176408
-2.949908e-06
0.0006750613
-3.599476e-06
0.0006458974
-2.694383e-06
0.0006138602
-9.688954e-07
0.0005873647
1.152222e-06
0.0005629181
3.438245e-06
0.0005392565
5.775876e-06
0.0005159322
8.108745e-06
0.000492791
1.040205e-05
0.0004697902
1.260089e-05
0.0004469405
1.458683e-05
0.000424303
1.594663e-05
0.0004020644
1.641529e-05
0.0003802314
1.614244e-05
0.0003584581
1.533621e-05
0.0003365201
1.428912e-05
0.0003142835
1.310851e-05
0.0002919658
1.17801e-05
0.0002698219
1.033602e-05
0.0002479734
8.971938e-06
0.0002265274
7.834263e-06
0.0002055676
6.887935e-06
0.0001850906
6.077427e-06
0.0001650337
5.338813e-06
0.0001453512
4.61876e-06
0.0001260275
3.878781e-06
0.0001070611
3.086162e-06
8.841638e-05
2.185583e-06
7.00192e-05
1.097726e-06
5.180095e-05
-1.900297e-07
3.3666e-05
-1.639699e-06
1.55356e-05
-3.136912e-06
-2.619345e-06
-4.804178e-06
-2.082954e-05
-6.574409e-06
-3.928579e-05
-8.431958e-06
-5.801793e-05
-1.03413e-05
-7.710277e-05
-1.228403e-05
-9.660247e-05
-1.424543e-05
-0.0001165936
-1.62177e-05
-0.0001371559
-1.82042e-05
-0.000158371
-2.020457e-05
-0.0001803447
-2.218209e-05
-0.0002032216
-2.406758e-05
-0.0002271343
-2.578256e-05
-0.0002522294
-2.717986e-05
-0.0002787573
-2.807507e-05
-0.0003068971
-2.828037e-05
-0.0003366625
-2.761922e-05
-0.0003679925
-2.621877e-05
-0.0004005057
-2.429915e-05
-0.000433557
-2.186245e-05
-0.0004666791
-1.917894e-05
-0.0004996376
-1.653218e-05
-0.0005328542
-1.393479e-05
-0.0005669198
-1.139163e-05
-0.000602159
-8.911595e-06
-0.0006390916
-6.508827e-06
-0.0006786238
-4.208857e-06
-0.0007224581
-2.064319e-06
-0.0007734972
-0.0008197051
-1.520654e-06
0.0006765822
-4.412313e-07
0.0006448182
2.283266e-06
0.0006111358
5.99876e-06
0.0005836493
1.015454e-05
0.0005587623
1.445799e-05
0.000534953
1.873659e-05
0.0005116534
2.287491e-05
0.0004886524
2.676982e-05
0.0004658951
3.029442e-05
0.0004434157
3.329331e-05
0.0004213038
3.572874e-05
0.0003996288
3.778385e-05
0.0003781761
3.95955e-05
0.0003566463
4.122298e-05
0.0003348925
4.241931e-05
0.000313087
4.300267e-05
0.0002913823
4.304755e-05
0.0002697769
4.267092e-05
0.0002483499
4.210058e-05
0.0002270977
4.149687e-05
0.0002061713
4.089644e-05
0.000185691
4.027556e-05
0.0001656546
3.958379e-05
0.0001460429
3.878402e-05
0.0001268272
3.787082e-05
0.0001079742
3.685252e-05
8.943464e-05
3.573011e-05
7.114158e-05
3.44903e-05
5.304073e-05
3.310793e-05
3.504835e-05
3.155411e-05
1.708941e-05
2.977577e-05
-8.410261e-07
2.76232e-05
-1.8677e-05
2.52511e-05
-3.69137e-05
2.273226e-05
-5.549911e-05
2.008736e-05
-7.445788e-05
1.733253e-05
-9.384765e-05
1.448062e-05
-0.0001137417
1.154827e-05
-0.0001342236
8.557895e-06
-0.0001553807
5.540422e-06
-0.0001773272
2.54549e-06
-0.0002002267
-3.393144e-07
-0.0002242495
-3.012093e-06
-0.0002495566
-5.439035e-06
-0.0002763304
-7.586611e-06
-0.0003047496
-9.315869e-06
-0.0003349333
-1.050652e-05
-0.0003668019
-1.102309e-05
-0.0003999891
-1.068534e-05
-0.0004338947
-9.631361e-06
-0.0004677331
-8.299449e-06
-0.0005009695
-6.9899e-06
-0.0005341638
-5.753851e-06
-0.0005681558
-4.5884e-06
-0.0006033245
-3.493991e-06
-0.0006401859
-2.480652e-06
-0.0006796371
-1.573975e-06
-0.0007233647
-8.242388e-07
-0.0007742468
-0.0008205293
-4.148238e-07
0.0006769973
1.742692e-06
0.0006426608
6.141459e-06
0.0006067372
1.155007e-05
0.0005782407
1.737143e-05
0.0005529409
2.326754e-05
0.0005290568
2.901973e-05
0.000505901
3.447029e-05
0.0004832017
3.949725e-05
0.0004608679
4.401978e-05
0.0004388929
4.802371e-05
0.0004172997
5.154186e-05
0.0003961104
5.460043e-05
0.0003751173
5.723597e-05
0.0003540105
5.940694e-05
0.0003327213
6.114289e-05
0.0003113509
6.26191e-05
0.0002899059
6.389059e-05
0.0002685052
6.497817e-05
0.0002472622
6.573685e-05
0.0002263389
6.611999e-05
0.000205788
6.621744e-05
0.0001855935
6.605049e-05
0.0001658214
6.562373e-05
0.0001464696
6.493336e-05
0.0001275175
6.398094e-05
0.0001089266
6.278018e-05
9.063536e-05
6.135895e-05
7.256277e-05
5.97666e-05
5.463306e-05
5.802639e-05
3.678853e-05
5.610823e-05
1.900755e-05
5.392788e-05
1.339306e-06
5.133287e-05
-1.608201e-05
4.841011e-05
-3.399095e-05
4.52418e-05
-5.233082e-05
4.188234e-05
-7.109845e-05
3.836048e-05
-9.032581e-05
3.469939e-05
-0.0001100807
3.092972e-05
-0.0001304539
2.710302e-05
-0.000151554
2.328509e-05
-0.0001735093
1.953077e-05
-0.0001964724
1.589418e-05
-0.000220613
1.244914e-05
-0.0002461116
9.272438e-06
-0.0002731537
6.418543e-06
-0.0003018958
3.899929e-06
-0.0003324147
1.745711e-06
-0.0003646477
6.281519e-08
-0.0003983063
-1.066665e-06
-0.0004327653
-1.635611e-06
-0.0004671642
-1.743639e-06
-0.0005008615
-1.649075e-06
-0.0005342583
-1.517544e-06
-0.0005682873
-1.347662e-06
-0.0006034943
-1.14142e-06
-0.0006403921
-9.035121e-07
-0.0006798749
-6.359229e-07
-0.0007236321
-3.176054e-07
-0.0007745649
-0.0008208469
1.772672e-07
0.0006768204
3.579668e-06
0.0006392587
9.010088e-06
0.0006013069
1.549473e-05
0.0005717561
2.24396e-05
0.000545996
2.948092e-05
0.0005220153
3.638486e-05
0.000498997
4.299037e-05
0.000476596
4.918504e-05
0.000454673
5.489624e-05
0.0004331815
6.008183e-05
0.0004121139
6.471817e-05
0.0003914738
6.877181e-05
0.0003710635
7.221942e-05
0.0003505627
7.510772e-05
0.0003298328
7.756045e-05
0.0003088979
7.961986e-05
0.0002878463
8.13049e-05
0.00026682
8.260278e-05
0.0002459642
8.355077e-05
0.0002253907
8.419463e-05
0.0002051441
8.447045e-05
0.0001853175
8.437952e-05
0.0001659123
8.393091e-05
0.0001469181
8.313952e-05
0.0001283089
8.202617e-05
0.0001100399
8.061299e-05
9.204849e-05
7.891706e-05
7.425866e-05
7.695702e-05
5.659307e-05
7.475572e-05
3.898979e-05
7.232815e-05
2.14351e-05
6.965487e-05
4.012553e-06
6.663253e-05
-1.305968e-05
6.321809e-05
-3.057654e-05
5.952115e-05
-4.863391e-05
5.561244e-05
-6.718975e-05
5.154091e-05
-8.62543e-05
4.734608e-05
-0.0001058859
4.306995e-05
-0.0001261778
3.87638e-05
-0.0001472479
3.448966e-05
-0.0001692352
3.031616e-05
-0.000192299
2.631469e-05
-0.0002166116
2.255389e-05
-0.0002423508
1.909098e-05
-0.0002696908
1.597315e-05
-0.000298778
1.324136e-05
-0.000329683
1.092034e-05
-0.0003623267
9.005441e-06
-0.0003963914
7.50386e-06
-0.0004312638
6.446009e-06
-0.0004661063
5.787978e-06
-0.0005002035
5.280513e-06
-0.0005337509
4.720966e-06
-0.0005677278
4.109297e-06
-0.0006028826
3.438694e-06
-0.0006397214
2.693429e-06
-0.0006791295
1.851464e-06
-0.0007227899
8.859929e-07
-0.0007735992
-0.0008199609
5.340464e-07
0.0006762867
4.529189e-06
0.0006352639
1.067034e-05
0.000595166
1.791227e-05
0.0005645143
2.564208e-05
0.0005382662
3.34824e-05
0.0005141749
4.118844e-05
0.0004912907
4.859384e-05
0.0004691904
5.558723e-05
0.0004476794
6.209966e-05
0.0004266688
6.809557e-05
0.0004061177
7.35665e-05
0.0003860026
7.849045e-05
0.0003661393
8.283531e-05
0.0003462176
8.659551e-05
0.0003260724
8.977113e-05
0.0003057221
9.236134e-05
0.0002852559
9.438602e-05
0.0002647952
9.589157e-05
0.0002444585
9.693531e-05
0.0002243469
9.750848e-05
0.0002045708
9.762145e-05
0.0001852045
9.730066e-05
0.000166233
9.656488e-05
0.0001476538
9.543404e-05
0.0001294397
9.393196e-05
0.0001115419
9.20863e-05
9.38941e-05
8.992623e-05
7.641869e-05
8.747927e-05
5.903999e-05
8.476667e-05
4.170235e-05
8.180542e-05
2.439632e-05
7.862616e-05
7.191783e-06
7.5311e-05
-9.744553e-06
7.15257e-05
-2.679126e-05
6.74487e-05
-4.455694e-05
6.317568e-05
-6.291675e-05
5.87651e-05
-8.184375e-05
5.426531e-05
-0.0001013861
4.972525e-05
-0.0001216378
4.519896e-05
-0.0001427216
4.074477e-05
-0.000164781
3.642137e-05
-0.0001879756
3.228548e-05
-0.0002124757
2.839001e-05
-0.0002384554
2.477919e-05
-0.0002660801
2.148429e-05
-0.0002954831
1.852572e-05
-0.0003267244
1.592322e-05
-0.0003597243
1.370296e-05
-0.0003941712
1.188206e-05
-0.0004294429
1.04332e-05
-0.0004646575
9.266412e-06
-0.0004990367
8.186072e-06
-0.0005326705
7.055187e-06
-0.0005665969
5.88562e-06
-0.000601713
4.688144e-06
-0.0006385239
3.474197e-06
-0.0006779155
2.254542e-06
-0.0007215701
1.060093e-06
-0.0007724045
-0.0008189008
6.302074e-07
0.0006756569
4.945505e-06
0.0006309489
1.14799e-05
0.0005886318
1.916416e-05
0.0005568301
2.737228e-05
0.000530058
3.571536e-05
0.0005058317
4.393845e-05
0.0004830675
5.187077e-05
0.0004612578
5.940012e-05
0.0004401497
6.64597e-05