/*--------------------------------*- C++ -*----------------------------------*\
| =========                 |                                                 |
| \\      /  F ield         | OpenFOAM: The Open Source CFD Toolbox           |
|  \\    /   O peration     | Version:  2312                                  |
|   \\  /    A nd           | Website:  www.openfoam.com                      |
|    \\/     M anipulation  |                                                 |
\*---------------------------------------------------------------------------*/
FoamFile
{
    version     2.0;
    format      ascii;
    arch        "LSB;label=32;scalar=64";
    class       volScalarField;
    location    "4500";
    object      T;
}
// * * * * * * * * * * * * * * * * * * * * * * * * * * * * * * * * * * * * * //

dimensions      [0 0 0 1 0 0 0];

internalField   nonuniform List<scalar> 
12000
(
448.0715
435.427
433.9204
433.7042
433.6661
433.6508
433.6393
433.6289
433.6186
433.607
433.5937
433.5791
433.5628
433.5444
433.5231
433.499
433.4725
433.4432
433.4106
433.3743
433.335
433.2925
433.2463
433.1964
433.1431
433.0865
433.0262
432.9625
432.8955
432.8254
432.7527
432.6774
432.6
432.5159
432.4191
432.3078
432.1856
432.0607
431.931
431.7857
431.6113
431.4167
431.2348
431.0488
430.8392
430.5896
430.3008
430.0296
429.7696
429.4331
429.0086
428.5708
428.1162
427.5472
426.8458
426.0191
424.9488
423.5248
421.3055
417.3276
448.3229
436.0284
434.6865
434.6759
434.8802
435.12
435.3709
435.6265
435.8783
436.1071
436.321
436.5349
436.7418
436.9285
437.0917
437.2446
437.3977
437.5403
437.6582
437.7586
437.8576
437.9527
438.0302
438.091
438.1459
438.1959
438.2346
438.2619
438.2807
438.2894
438.2871
438.2766
438.2584
438.2283
438.1853
438.13
438.0623
437.9829
437.8903
437.7836
437.6616
437.5235
437.3671
437.1902
436.9885
436.7607
436.504
436.2137
435.8872
435.5199
435.1071
434.628
434.0805
433.4326
432.6679
431.6871
430.3338
428.4318
425.4161
419.9289
448.8785
436.7931
435.4116
435.4966
435.8681
436.2899
436.715
437.1296
437.5272
437.9035
438.2524
438.5781
438.8811
439.1617
439.4193
439.6559
439.8737
440.0732
440.2543
440.4178
440.5657
440.699
440.818
440.923
441.015
441.0949
441.1629
441.2192
441.264
441.2975
441.3195
441.3305
441.3315
441.3184
441.2917
441.2515
441.1975
441.1292
441.0461
440.9474
440.8322
440.6995
440.5469
440.374
440.1786
439.9589
439.7111
439.4287
439.1081
438.7434
438.3339
437.8751
437.3459
436.716
435.9416
434.9612
433.6596
431.6814
428.3047
421.2897
449.7043
437.5242
436.0587
436.1801
436.6512
437.1882
437.7233
438.2369
438.7225
439.1824
439.6166
440.021
440.3985
440.7443
441.061
441.3527
441.6212
441.8677
442.0933
442.2992
442.4866
442.6567
442.8101
442.9476
443.0698
443.1772
443.2702
443.349
443.4137
443.4643
443.5007
443.5236
443.5326
443.5252
443.5019
443.4628
443.4075
443.3354
443.2459
443.138
443.0108
442.8631
442.6938
442.5012
442.285
442.0429
441.772
441.4687
441.1287
440.7482
440.318
439.8245
439.2483
438.5812
437.7869
436.8046
435.4827
433.5195
430.0687
422.2166
450.6376
438.2514
436.6731
436.7873
437.3106
437.9191
438.5264
439.1069
439.6548
440.1693
440.6535
441.1064
441.5311
441.9248
442.288
442.623
442.9319
443.2168
443.4787
443.7187
443.9377
444.1369
444.3171
444.479
444.6233
444.7504
444.8607
444.9542
445.0312
445.0915
445.1357
445.1639
445.1746
445.167
445.1416
445.099
445.0382
444.9586
444.8594
444.7397
444.5983
444.4341
444.2455
444.0311
443.7899
443.5192
443.2165
442.8795
442.5064
442.0904
441.6121
441.0676
440.4608
439.7645
438.9402
437.9305
436.607
434.6688
431.232
422.9298
451.6478
438.9747
437.2591
437.3279
437.862
438.5067
439.1579
439.7842
440.377
440.9344
441.4568
441.9452
442.402
442.8291
443.2265
443.5944
443.9344
444.2483
444.5374
444.8027
445.0449
445.2651
445.4641
445.6427
445.8016
445.9412
446.0619
446.164
446.2477
446.3128
446.3601
446.3888
446.3981
446.3884
446.3597
446.3123
446.2456
446.1587
446.0507
445.9206
445.767
445.5886
445.3838
445.1508
444.8876
444.5918
444.2611
443.8933
443.4854
443.0321
442.5256
441.9558
441.314
440.5825
439.7292
438.6952
437.3603
435.4365
432.0386
423.4795
452.692
439.688
437.8236
437.8222
438.3367
438.9907
439.6643
440.3185
440.9408
441.5278
442.0791
442.5953
443.0776
443.5279
443.9481
444.3393
444.7019
445.0369
445.3454
445.6282
445.8863
446.1206
446.332
446.5211
446.6888
446.8355
446.9618
447.0681
447.1547
447.2216
447.2689
447.2965
447.3041
447.2921
447.2607
447.2095
447.1382
447.0459
446.9317
446.7942
446.632
446.4434
446.2266
445.9795
445.6998
445.3852
445.0333
444.6414
444.2056
443.7215
443.1838
442.585
441.9147
441.1553
440.2768
439.2236
437.8807
435.9679
432.6035
423.8774
453.758
440.3899
438.369
438.2799
438.7523
439.3953
440.0747
440.7427
441.3822
441.9879
442.5584
443.0941
443.5958
444.0645
444.5015
444.9085
445.2863
445.6356
445.9571
446.2517
446.5202
446.7634
446.9823
447.1776
447.35
447.5003
447.6291
447.7368
447.824
447.8907
447.9373
447.9634
447.9694
447.9556
447.922
447.8684
447.7943
447.6988
447.5808
447.4389
447.2714
447.0766
446.8521
446.5958
446.305
445.9772
445.6097
445.1992
444.7424
444.2355
443.6737
443.0506
442.356
441.5735
440.6746
439.6056
438.2558
436.3529
433.0261
424.1913
454.8374
441.085
438.898
438.7107
439.1258
439.7419
440.4123
441.0818
441.7287
442.3449
442.9275
443.4761
443.991
444.4727
444.9222
445.3403
445.7282
446.0867
446.4165
446.7184
446.9931
447.2415
447.4645
447.6629
447.8374
447.9891
448.1185
448.2262
448.3128
448.3787
448.4241
448.4491
448.4539
448.4389
448.4042
448.3494
448.2739
448.177
448.0573
447.9135
447.7436
447.5455
447.3168
447.0549
446.7569
446.4199
446.0406
445.6157
445.1423
444.6168
444.0354
443.3922
442.678
441.8775
440.963
439.883
438.5295
436.6361
433.3425
424.4478
455.8137
441.7706
439.4137
439.122
439.4686
440.0447
440.6949
441.3562
442.0022
442.6219
443.2107
443.7668
444.29
444.7804
445.2383
445.6644
446.0592
446.4237
446.7588
447.0651
447.3434
447.5947
447.8196
448.0193
448.1945
448.3461
448.475
448.5818
448.6673
448.732
448.7763
448.8002
448.8043
448.7887
448.7535
448.6984
448.6228
448.5258
448.406
448.262
448.0917
447.8928
447.6624
447.3978
447.0954
446.7518
446.3636
445.9275
445.4405
444.8998
444.3022
443.6428
442.9133
442.0989
441.173
440.0852
438.7299
436.8466
433.5888
424.6821
456.9505
442.4479
439.9153
439.5166
439.7883
440.316
440.9372
441.5823
442.2204
442.8375
443.4269
443.986
444.5134
445.0088
445.4721
445.9036
446.3038
446.6731
447.0122
447.3218
447.6025
447.8554
448.0812
448.2811
448.4559
448.6067
448.7344
448.8399
448.924
448.9873
449.0302
449.0533
449.0567
449.0408
449.0056
448.9508
448.8757
448.7795
448.6607
448.5178
448.3485
448.1502
447.92
447.6544
447.3495
447.0014
446.606
446.1599
445.6606
445.1061
444.4946
443.822
443.0808
442.2566
441.3233
440.2314
438.8769
437.0041
433.7787
424.8942
458.2311
443.1212
440.4057
439.9006
440.0944
440.5671
441.1517
441.7733
442.397
443.0056
443.5909
444.1485
444.6763
445.1734
445.6396
446.075
446.4798
446.8539
447.1975
447.5107
447.7941
448.0486
448.2752
448.4749
448.6491
448.7987
448.9249
449.0287
449.111
449.1726
449.2141
449.236
449.2387
449.2225
449.1872
449.1328
449.0585
448.9633
448.846
448.7046
448.537
448.3404
448.1115
447.8463
447.5404
447.1891
446.7873
446.3311
445.8187
445.2501
444.6261
443.9438
443.1951
442.3652
441.428
440.3344
438.9823
437.1199
433.9267
425.0964
459.4416
443.8115
440.8945
440.2748
440.3852
440.7969
441.3385
441.9308
442.5347
443.1302
443.7067
444.2583
444.7818
445.2757
445.7413
446.1813
446.595
446.9796
447.3328
447.6532
447.941
448.1968
448.423
448.6221
448.7952
448.9435
449.0678
449.1695
449.2497
449.3092
449.3489
449.3693
449.371
449.3541
449.3186
449.2644
449.1907
449.0966
448.9808
448.8413
448.6758
448.4813
448.2544
447.9907
447.6853
447.3333
446.9263
446.4571
445.9265
445.34
444.7057
444.0197
443.2681
442.4364
441.4985
440.4058
439.0575
437.2052
434.0401
425.2837
460.7462
444.5032
441.3785
440.6456
440.6745
441.0246
441.5203
442.0788
442.6576
443.2341
443.7955
444.3343
444.846
445.3335
445.8012
446.2477
446.6704
447.0654
447.4284
447.7566
448.0498
448.3101
448.5401
448.741
448.9139
449.0597
449.1804
449.2785
449.3556
449.4124
449.4498
449.4683
449.4685
449.4505
449.4145
449.3602
449.2869
449.1937
449.0791
448.9414
448.778
448.586
448.3618
448.1005
447.7944
447.4355
447.019
446.5403
445.9984
445.3995
444.7541
444.063
443.3116
442.4805
441.5438
440.4533
439.1091
437.2659
434.1259
425.4554
462.0571
445.1998
441.8602
441.0168
440.9658
441.2531
441.7001
442.2215
442.7721
443.3268
443.8708
444.395
444.897
445.3817
445.8516
446.3027
446.7292
447.127
447.4938
447.8278
448.128
448.3941
448.6273
448.8294
449.0023
449.1478
449.2678
449.364
449.4382
449.492
449.5268
449.5432
449.5417
449.5224
449.4855
449.4308
449.3575
449.2648
449.1512
449.015
448.8536
448.663
448.4384
448.1746
447.8656
447.504
447.0826
446.5967
446.0468
445.4385
444.7817
444.0849
443.3352
442.506
441.5716
440.4841
439.1444
437.3091
434.1888
425.599
463.3601
445.8944
442.3465
441.3922
441.2611
441.485
441.8822
442.3649
442.8857
443.4174
443.9436
444.4536
444.9478
445.4307
445.9001
446.3506
446.7777
447.1777
447.5475
447.8849
448.188
448.4569
448.6926
448.8963
449.0699
449.2152
449.3344
449.4295
449.5024
449.5547
449.5874
449.6016
449.5982
449.5775
449.5395
449.4839
449.4102
449.3173
449.2036
449.067
448.9045
448.7127
448.4868
448.2214
447.9101
447.5461
447.1226
446.634
446.0787
445.4618
444.7968
444.0951
443.345
442.5185
441.587
440.5026
439.167
437.3383
434.2331
425.7104
464.638
446.5944
442.8401
441.7728
441.5618
441.7232
442.0708
442.5146
443.0054
443.5145
444.024
444.5227
445.0086
445.4846
445.9495
446.3982
446.8257
447.2271
447.598
447.9359
448.24
448.5101
448.7466
448.9509
449.1246
449.2697
449.3883
449.4824
449.554
449.6047
449.6356
449.648
449.6428
449.6205
449.581
449.5239
449.4489
449.3547
449.2398
449.102
448.9383
448.745
448.5174
448.2501
447.9367
447.5705
447.1445
446.6535
446.0959
445.4762
444.8059
444.098
443.3469
442.5244
441.5966
440.516
439.1846
437.3621
434.2686
425.7889
465.8843
447.3041
443.3392
442.1585
441.8692
441.9698
442.2691
442.6751
443.1368
443.624
444.1175
444.6048
445.0825
445.5524
446.0126
446.458
446.8827
447.2819
447.6517
447.9892
448.293
448.5624
448.798
449.0012
449.1736
449.3174
449.4346
449.5273
449.5972
449.6461
449.6751
449.6855
449.6783
449.6543
449.6131
449.5543
449.4775
449.3817
449.2653
449.126
448.9607
448.7657
448.5363
448.2671
447.9518
447.5836
447.1559
446.663
446.1029
445.4798
444.8055
444.0941
443.343
442.5239
441.5992
440.5219
439.1943
437.3767
434.2909
425.8336
467.0974
448.0163
443.8428
442.5496
442.184
442.2262
442.4795
442.8495
443.2838
443.7506
444.2296
444.7071
445.1771
445.6397
446.0937
446.5339
446.9545
447.3503
447.717
448.0516
448.3524
448.6189
448.8517
449.0521
449.2219
449.3631
449.4777
449.5678
449.6353
449.6817
449.7083
449.7163
449.7069
449.681
449.6381
449.5775
449.499
449.4015
449.2834
449.1425
448.9756
448.7788
448.5476
448.2764
447.9592
447.5891
447.1595
446.6651
446.1035
445.4786
444.8019
444.088
443.3371
442.5209
441.5992
440.5252
439.2016
437.3891
434.3112
425.8663
468.2737
448.7264
444.3494
442.9459
442.5066
442.4935
442.7036
443.0401
443.449
443.8973
444.3635
444.8329
445.2959
445.7511
446.1981
446.6317
447.0462
447.4361
447.7972
448.1263
448.4218
448.6833
448.9112
449.1069
449.2722
449.4091
449.5197
449.6062
449.6702
449.7133
449.737
449.7423
449.7305
449.7024
449.6576
449.5954
449.5152
449.4161
449.2965
449.1539
448.9853
448.7868
448.5538
448.2807
447.9614
447.5895
447.1582
446.6623
446.0994
445.4732
444.7949
444.0799
443.33
442.5164
441.5977
440.5271
439.2076
437.4003
434.3298
425.8938
469.4106
449.431
444.8581
443.3474
442.8374
442.7722
442.9422
443.2479
443.6337
444.0653
444.52
444.982
445.4402
445.8892
446.3278
446.753
447.1591
447.5407
447.8937
448.2149
448.5027
448.7567
448.9776
449.1666
449.3256
449.4567
449.5621
449.6437
449.7033
449.7425
449.7626
449.7648
449.7502
449.7197
449.673
449.6091
449.5274
449.4268
449.3056
449.1615
448.9913
448.7911
448.5562
448.2812
447.96
447.5862
447.1533
446.6561
446.0923
445.4652
444.7861
444.0705
443.3217
442.5109
441.5952
440.5281
439.2127
437.4108
434.3485
425.926
470.5077
450.1293
445.3686
443.754
443.1764
443.0624
443.1954
443.473
443.8378
444.2542
444.6983
445.1533
445.6073
446.0514
446.4818
446.8969
447.2924
447.6634
448.0057
448.3166
448.5944
448.8388
449.0506
449.2312
449.3824
449.5065
449.6053
449.6811
449.7354
449.77
449.786
449.7846
449.7669
449.7338
449.685
449.6194
449.5362
449.4341
449.3115
449.166
448.9943
448.7924
448.5558
448.279
447.9559
447.5803
447.1459
446.6475
446.0829
445.4553
444.7761
444.0608
443.3135
442.5054
441.5927
440.5292
439.2181
437.4218
434.368
425.9635
471.5595
450.829
445.8818
444.1658
443.5236
443.3638
443.4629
443.7147
444.0602
444.4623
444.896
445.3436
445.7921
446.232
446.6562
447.0606
447.4434
447.8016
448.1312
448.4295
448.6951
448.9281
449.1292
449.3
449.4422
449.5579
449.6494
449.7185
449.767
449.7963
449.8077
449.8024
449.7812
449.7452
449.6942
449.627
449.5421
449.4386
449.3147
449.1678
448.9947
448.7915
448.5532
448.2747
447.95
447.5728
447.137
446.6376
446.0723
445.4446
444.7656
444.051
443.3055
442.5001
441.5905
440.5305
439.2236
437.4328
434.388
426.0052
472.5683
451.5278
446.3978
444.5831
443.8789
443.6761
443.7437
443.9719
444.2993
444.6876
445.1106
445.5496
445.9908
446.424
446.8417
447.2381
447.6088
447.952
448.2667
448.5507
448.8028
449.0229
449.212
449.3716
449.5038
449.6105
449.6938
449.7557
449.7977
449.8215
449.8281
449.8186
449.7939
449.7548
449.7013
449.6321
449.5457
449.4408
449.3156
449.1675
448.9931
448.7885
448.5488
448.2688
447.9426
447.564
447.127
446.6268
446.0611
445.4335
444.7552
444.0419
443.2983
442.4955
441.5889
440.5324
439.2298
437.4447
434.4092
426.0496
473.5331
452.2248
446.917
445.0058
444.2419
443.9987
444.037
444.2431
444.5535
444.9281
445.3398
445.7688
446.2008
446.6249
447.033
447.4191
447.7791
448.11
448.4097
448.6777
448.9146
449.1207
449.2969
449.4448
449.5662
449.6632
449.7379
449.7922
449.8276
449.8456
449.8472
449.8334
449.8051
449.7628
449.7068
449.6355
449.5474
449.4411
449.3146
449.1652
448.9897
448.7838
448.5429
448.2616
447.9341
447.5544
447.1165
446.6156
446.0498
445.4226
444.7453
444.0335
443.2921
442.4919
441.5883
440.5351
439.2366
437.4571
434.4311
426.0958
474.4503
452.9167
447.4386
445.434
444.6127
444.331
444.3419
444.5272
444.8212
445.1821
445.5818
445.9997
446.4208
446.8336
447.2299
447.6034
447.95
448.267
448.5526
448.8064
449.0287
449.2202
449.3826
449.5179
449.6282
449.7152
449.7811
449.8276
449.8563
449.8685
449.8651
449.8471
449.8151
449.7698
449.7111
449.6377
449.5479
449.4401
449.3122
449.1616
448.9849
448.7778
448.5357
448.2533
447.9247
447.5441
447.1055
446.6043
446.0386
445.4121
444.7362
444.0262
443.2871
442.4895
441.5887
440.5388
439.2444
437.4706
434.4547
426.1456
475.4147
453.6011
447.9613
445.8663
444.9901
444.6721
444.657
444.8228
445.1008
445.448
445.8351
446.2408
446.6494
447.0493
447.4319
447.7911
448.1226
448.4241
448.6942
448.9327
449.1401
449.3176
449.467
449.59
449.6889
449.7657
449.8227
449.8615
449.8835
449.89
449.8818
449.8596
449.8241
449.7758
449.7145
449.6391
449.5476
449.4382
449.309
449.1572
448.9792
448.771
448.5278
448.2443
447.9148
447.5334
447.0943
446.593
446.0276
445.4021
444.7278
444.02
443.2833
442.4882
441.5902
440.5436
439.2531
437.485
434.4795
426.2006
476.2643
454.2859
448.4853
446.2998
445.3728
445.0207
444.9813
445.1283
445.3907
445.724
446.0978
446.4902
446.8851
447.2705
447.6379
447.9811
448.2962
448.581
448.8344
449.0567
449.2487
449.4118
449.5478
449.6587
449.7467
449.8139
449.8621
449.8933
449.9089
449.9099
449.8971
449.8711
449.8324
449.7811
449.7172
449.6398
449.5467
449.4359
449.3054
449.1522
448.9731
448.7637
448.5195
448.235
447.9047
447.5226
447.0832
446.5819
446.0171
445.3928
444.7203
444.015
443.2808
442.4882
441.5929
440.5493
439.2627
437.5002
434.5059
426.2633
477.0846
454.9677
449.0078
446.7337
445.7596
445.3756
445.3131
445.442
445.689
446.0081
446.3678
446.7457
447.1255
447.4951
447.8458
448.1717
448.4691
448.7361
448.9721
449.1776
449.3537
449.5021
449.6246
449.7235
449.8009
449.8586
449.8987
449.9228
449.9323
449.9281
449.911
449.8814
449.8397
449.7858
449.7196
449.6402
449.5455
449.4333
449.3015
449.1472
448.9669
448.7565
448.5112
448.2258
447.8947
447.5122
447.0726
446.5714
446.0072
445.3842
444.7138
444.0111
443.2794
442.4893
441.5966
440.556
439.273
437.516
434.533
426.3332
477.876
455.6439
449.53
447.168
446.1486
445.7349
445.6506
445.762
445.9936
446.2979
446.6426
447.005
447.3684
447.7206
448.0533
448.3607
448.6393
448.8878
449.1057
449.294
449.4541
449.5878
449.6972
449.7843
449.8512
449.9
449.9323
449.9497
449.9535
449.9446
449.9235
449.8907
449.8462
449.7899
449.7216
449.6404
449.5442
449.4307
449.2978
449.1424
448.9611
448.7497
448.5035
448.2173
447.8856
447.5026
447.0628
446.5618
445.9984
445.3768
444.7085
444.0084
443.2793
442.4915
441.6013
440.5634
439.2838
437.5319
434.56
426.4087
478.6441
456.3124
450.0515
447.6026
446.5382
446.0972
445.9921
446.0863
446.3022
446.591
446.9199
447.2654
447.6109
447.9445
448.2579
448.5457
448.8049
449.0343
449.2339
449.405
449.5492
449.6685
449.765
449.8407
449.8978
449.938
449.963
449.9742
449.9726
449.9593
449.9347
449.8989
449.8519
449.7936
449.7235
449.6406
449.5429
449.4283
449.2944
449.1381
448.9559
448.7436
448.4966
448.2098
447.8775
447.4942
447.0543
446.5536
445.9909
445.3706
444.7045
444.007
443.2804
442.4947
441.6068
440.5714
439.295
437.5476
434.5858
426.4848
479.3878
456.9717
450.5711
448.0359
446.9291
446.4615
446.336
446.4129
446.6126
446.8851
447.1968
447.5242
447.8505
448.1642
448.4573
448.7248
448.964
449.1742
449.3556
449.5097
449.6384
449.7438
449.8279
449.8928
449.9406
449.9728
449.991
449.9964
449.99
449.9726
449.9446
449.9062
449.8571
449.7969
449.7252
449.6408
449.5419
449.4262
449.2914
449.1343
448.9514
448.7384
448.4908
448.2034
447.8708
447.4873
447.0474
446.5469
445.985
445.3661
444.702
444.0072
443.2828
442.4989
441.6131
440.58
439.3063
437.5628
434.6097
426.5566
480.1088
457.6204
451.0874
448.4668
447.3205
446.827
446.6811
446.7402
446.9228
447.1778
447.4711
447.779
448.085
448.3778
448.6497
448.8964
449.1155
449.3064
449.47
449.6077
449.7214
449.8135
449.8859
449.9407
449.9798
450.0046
450.0165
450.0166
450.0057
449.9846
449.9535
449.9126
449.8616
449.7999
449.7268
449.6412
449.5412
449.4246
449.289
449.1312
448.9477
448.7343
448.4862
448.1985
447.8655
447.4818
447.042
446.5421
445.9811
445.3635
444.7013
444.0086
443.2863
442.5042
441.6202
440.5892
439.3178
437.5776
434.6312
426.6181
480.8053
458.2589
451.6004
448.8955
447.7107
447.1927
447.0258
447.0661
447.2306
447.4669
447.7405
448.0277
448.3123
448.5832
448.8336
449.0593
449.2583
449.4305
449.5767
449.6986
449.7982
449.8777
449.9392
449.9846
450.0156
450.0336
450.0397
450.035
450.0201
449.9956
449.9617
449.9185
449.8657
449.8027
449.7284
449.6417
449.5408
449.4235
449.2872
449.1289
448.9449
448.731
448.4825
448.1945
447.8615
447.4779
447.0384
446.5389
445.9786
445.3624
444.7019
444.0114
443.291
442.5105
441.6283
440.5992
439.3298
437.5921
434.6506
426.6668
481.4769
458.8825
452.1068
449.321
448.0987
447.5567
447.3687
447.3892
447.5341
447.7504
448.003
448.2685
448.5308
448.7795
449.0081
449.2128
449.3921
449.546
449.6757
449.7826
449.869
449.9368
449.9881
450.0248
450.0484
450.0601
450.061
450.0519
450.0333
450.0057
449.9692
449.9239
449.8695
449.8052
449.73
449.6424
449.5407
449.4227
449.2859
449.1271
448.9427
448.7285
448.48
448.192
447.859
447.4755
447.0362
446.5371
445.9776
445.3627
444.7042
444.0159
443.2972
442.5182
441.6375
440.61
439.3424
437.6068
434.6684
426.7019
482.1222
459.495
452.6096
449.7428
448.483
447.9172
447.708
447.708
447.8321
448.0268
448.2573
448.5
448.7395
448.9656
449.1723
449.3564
449.5166
449.6531
449.7669
449.8599
449.9339
449.991
450.033
450.0616
450.0784
450.0844
450.0805
450.0674
450.0455
450.0151
449.9763
449.929
449.873
449.8077
449.7316
449.6433
449.541
449.4224
449.2851
449.126
448.9414
448.7271
448.4785
448.1905
447.8577
447.4745
447.0357
446.5373
445.9787
445.3649
444.7081
444.0219
443.305
442.5272
441.6479
440.6219
439.3559
437.622
434.6858
426.7269
482.7388
460.0886
453.1027
450.1608
448.8621
448.2723
448.0419
448.0208
448.1232
448.2955
448.5028
448.722
448.9381
449.1415
449.3266
449.4904
449.6321
449.7519
449.851
449.9309
449.9935
450.0406
450.074
450.0954
450.1059
450.1067
450.0984
450.0816
450.0567
450.0239
449.983
449.934
449.8765
449.8101
449.7333
449.6445
449.5416
449.4227
449.285
449.1257
448.9409
448.7265
448.478
448.1901
447.8576
447.4749
447.0366
446.5389
445.9812
445.3688
444.7137
444.0293
443.3139
442.5374
441.6594
440.6347
439.3703
437.638
434.7034
426.7455
483.2847
460.6705
453.5909
450.5757
449.2357
448.6207
448.3685
448.3254
448.4051
448.554
448.7374
448.9327
449.1254
449.3063
449.4703
449.6147
449.7388
449.8429
449.9281
449.9959
450.048
450.0861
450.1118
450.1264
450.1313
450.1273
450.115
450.0949
450.0673
450.0321
449.9894
449.9388
449.88
449.8126
449.7352
449.6459
449.5426
449.4234
449.2855
449.126
448.9412
448.7269
448.4785
448.1909
447.8588
447.4765
447.0388
446.5418
445.985
445.3739
444.7204
444.038
443.3241
442.5487
441.672
440.6487
439.3858
437.6551
434.722
426.763
483.8804
461.2358
454.0703
450.9846
449.6019
448.9611
448.6865
448.6206
448.6767
448.8015
448.9606
449.1319
449.3013
449.4603
449.604
449.7298
449.8373
449.9267
449.9991
450.0557
450.0982
450.128
450.1466
450.1552
450.1549
450.1465
450.1305
450.1074
450.0772
450.04
449.9955
449.9435
449.8836
449.8154
449.7374
449.6476
449.544
449.4245
449.2865
449.127
448.9422
448.7281
448.48
448.1928
447.8611
447.4793
447.0422
446.546
445.9902
445.3803
444.7284
444.0477
443.3353
442.561
441.6855
440.6636
439.4022
437.6733
434.7419
426.7815
484.5315
461.7868
454.5415
451.3865
449.9597
449.2923
448.9948
448.9053
448.9373
449.0375
449.1722
449.3197
449.4664
449.6042
449.7283
449.8366
449.9284
450.004
450.0644
450.1108
450.1445
450.1667
450.1788
450.1819
450.1769
450.1644
450.1451
450.1192
450.0867
450.0475
450.0015
449.9482
449.8873
449.8182
449.7397
449.6495
449.5457
449.4261
449.2881
449.1286
448.9441
448.7302
448.4824
448.1956
447.8645
447.4833
447.0469
446.5514
445.9966
445.3879
444.7375
444.0585
443.3474
442.5742
441.6999
440.6794
439.4195
437.6923
434.7628
426.8039
485.1166
462.3276
455.005
451.7808
450.3087
449.6136
449.2925
449.1788
449.1862
449.2618
449.3721
449.4963
449.6209
449.7383
449.8438
449.9355
450.0126
450.0755
450.1248
450.1617
450.1872
450.2025
450.2087
450.2068
450.1974
450.1813
450.1589
450.1303
450.0957
450.0547
450.0073
449.9528
449.891
449.8212
449.7422
449.6517
449.5477
449.428
449.2901
449.1308
448.9465
448.733
448.4857
448.1994
447.8689
447.4884
447.0527
446.558
446.0041
445.3965
444.7475
444.0701
443.3604
442.5882
441.715
440.6958
439.4374
437.7121
434.7852
426.8295
485.6974
462.8563
455.4594
452.1668
450.6478
449.9242
449.5789
449.4406
449.4232
449.4741
449.5605
449.6619
449.7654
449.8632
449.9513
450.0273
450.0907
450.1417
450.1808
450.2088
450.2269
450.2359
450.2366
450.23
450.2167
450.1972
450.1719
450.141
450.1043
450.0617
450.0129
449.9574
449.8947
449.8243
449.7448
449.6541
449.55
449.4303
449.2925
449.1335
448.9495
448.7365
448.4897
448.2041
447.8742
447.4944
447.0595
446.5657
446.0126
445.4062
444.7585
444.0826
443.3741
442.6028
441.7308
440.7129
439.4561
437.7326
434.8082
426.8565
486.265
463.3726
455.9041
452.5434
450.9765
450.2235
449.8535
449.6903
449.6481
449.6747
449.7378
449.8172
449.9003
449.9798
450.0513
450.1127
450.1634
450.2032
450.2328
450.2527
450.2639
450.2669
450.2627
450.2519
450.2349
450.2123
450.1844
450.1511
450.1125
450.0684
450.0183
449.9619
449.8985
449.8275
449.7477
449.6567
449.5525
449.4329
449.2954
449.1367
448.9531
448.7406
448.4944
448.2094
447.8803
447.5013
447.0672
446.5742
446.022
445.4166
444.7703
444.0957
443.3884
442.618
441.7471
440.7304
439.475
437.7534
434.8313
426.8837
486.8117
463.8755
456.3383
452.9102
451.2941
450.511
450.1161
449.928
449.8612
449.864
449.9045
449.9628
450.0266
450.0886
450.1446
450.1924
450.2311
450.2607
450.2813
450.2937
450.2984
450.296
450.2872
450.2724
450.2521
450.2266
450.1962
450.1609
450.1205
450.0749
450.0237
449.9663
449.9022
449.8308
449.7507
449.6595
449.5553
449.4359
449.2986
449.1402
448.9572
448.7453
448.4997
448.2155
447.8871
447.5089
447.0756
446.5835
446.0322
445.4279
444.7827
444.1094
443.4032
442.6338
441.7639
440.7484
439.4945
437.7746
434.8549
426.9106
487.2885
464.3641
456.7608
453.2668
451.601
450.7864
450.3663
450.1537
450.0628
450.0425
450.0612
450.0994
450.1449
450.1905
450.232
450.267
450.2946
450.3144
450.3268
450.3321
450.3307
450.3232
450.3101
450.2916
450.2682
450.2401
450.2074
450.1701
450.1282
450.0812
450.0289
449.9707
449.9061
449.8342
449.7538
449.6625
449.5583
449.4391
449.3021
449.1442
448.9618
448.7504
448.5056
448.2221
447.8946
447.5172
447.0848
446.5935
446.0432
445.4398
444.7957
444.1237
443.4185
442.65
441.7811
440.7668
439.5143
437.7961
434.8786
426.9372
487.8264
464.841
457.172
453.6131
451.8978
451.0491
450.6037
450.3675
450.2534
450.2108
450.2087
450.2278
450.2561
450.2862
450.314
450.337
450.3541
450.365
450.3695
450.3681
450.3611
450.3488
450.3316
450.3097
450.2834
450.2529
450.2181
450.179
450.1356
450.0874
450.0341
449.9751
449.91
449.8378
449.7571
449.6657
449.5616
449.4425
449.3059
449.1486
448.9667
448.7561
448.512
448.2293
447.9026
447.5262
447.0946
446.6042
446.0547
445.4523
444.8093
444.1385
443.4343
442.6666
441.7987
440.7855
439.5344
437.818
434.9028
426.9638
488.3648
465.3056
457.5716
453.9491
452.184
451.2998
450.829
450.57
450.4335
450.3696
450.3478
450.3488
450.3607
450.3764
450.3913
450.403
450.4103
450.4126
450.4098
450.4021
450.3896
450.3728
450.3517
450.3267
450.2977
450.2649
450.2282
450.1875
450.1427
450.0934
450.0391
449.9795
449.9139
449.8414
449.7605
449.669
449.565
449.4463
449.3101
449.1533
448.972
448.7621
448.5188
448.237
447.9112
447.5357
447.105
446.6155
446.0669
445.4653
444.8234
444.1537
443.4505
442.6836
441.8166
440.8046
439.5548
437.8401
434.9273
426.9909
488.8938
465.7572
457.9592
454.2748
452.4595
451.539
451.0429
450.7619
450.6039
450.5198
450.4791
450.463
450.4596
450.4615
450.4642
450.4653
450.4633
450.4576
450.4478
450.4341
450.4166
450.3954
450.3707
450.3426
450.3111
450.2761
450.2377
450.1955
450.1495
450.0991
450.0441
449.9839
449.9178
449.845
449.7639
449.6725
449.5686
449.4502
449.3145
449.1583
448.9777
448.7685
448.5261
448.2452
447.9203
447.5457
447.1159
446.6272
446.0795
445.4788
444.8379
444.1692
443.4669
442.7008
441.8347
440.8239
439.5755
437.8626
434.9522
427.0186
489.4066
466.1944
458.3344
454.5899
452.7245
451.7673
451.2461
450.9439
450.7654
450.662
450.6035
450.5711
450.5531
450.542
450.5334
450.5244
450.5135
450.5001
450.4837
450.4643
450.4419
450.4166
450.3885
450.3575
450.3236
450.2867
450.2467
450.2032
450.156
450.1047
450.049
449.9882
449.9218
449.8487
449.7675
449.676
449.5723
449.4543
449.3191
449.1635
448.9837
448.7753
448.5337
448.2536
447.9297
447.556
447.1272
446.6394
446.0925
445.4926
444.8526
444.185
443.4836
442.7182
441.8531
440.8434
439.5964
437.8852
434.9772
427.0469
489.8977
466.6152
458.6967
454.8945
452.9795
451.9852
451.4394
451.1167
450.9186
450.7968
450.7215
450.6738
450.642
450.6186
450.599
450.5804
450.5612
450.5404
450.5177
450.4928
450.4658
450.4366
450.4051
450.3714
450.3353
450.2966
450.2551
450.2104
450.1622
450.1101
450.0537
449.9925
449.9258
449.8525
449.7711
449.6796
449.5762
449.4586
449.324
449.169
448.9899
448.7823
448.5415
448.2624
447.9395
447.5668
447.1388
446.6519
446.1058
445.5067
444.8676
444.201
443.5004
442.7358
441.8716
440.863
439.6174
437.9079
435.0023
427.0756
490.3659
467.0181
459.0457
455.1887
453.2255
452.1947
451.6231
451.2805
451.0641
450.925
450.8336
450.7714
450.7265
450.6914
450.6614
450.6337
450.6064
450.5786
450.5498
450.5198
450.4883
450.4553
450.4208
450.3845
450.3463
450.3059
450.263
450.2172
450.1681
450.1154
450.0584
449.9968
449.9297
449.8563
449.7747
449.6834
449.5802
449.4631
449.329
449.1747
448.9963
448.7895
448.5497
448.2715
447.9495
447.5777
447.1507
446.6646
446.1193
445.5211
444.8828
444.2171
443.5174
442.7535
441.8902
440.8827
439.6385
437.9307
435.0274
427.1043
490.8091
467.4023
459.3814
455.4732
453.4633
452.3965
451.7984
451.436
451.2025
451.047
450.9405
450.8644
450.8071
450.7608
450.7209
450.6843
450.6494
450.6149
450.5803
450.5452
450.5094
450.4729
450.4353
450.3966
450.3564
450.3145
450.2703
450.2235
450.1737
450.1204
450.063
450.001
449.9337
449.8601
449.7785
449.6872
449.5844
449.4677
449.3342
449.1805
449.0029
448.797
448.558
448.2809
447.9598
447.589
447.1629
446.6776
446.1331
445.5356
444.8981
444.2333
443.5344
442.7713
441.9089
440.9025
439.6596
437.9535
435.0525
427.1327
491.2294
467.7681
459.7041
455.7483
453.6934
452.5908
451.9659
451.5843
451.3344
451.1634
451.0425
450.9533
450.884
450.8271
450.7776
450.7326
450.6902
450.6492
450.609
450.5691
450.5293
450.4893
450.4489
450.4079
450.3658
450.3224
450.2771
450.2295
450.179
450.1252
450.0674
450.0051
449.9376
449.8639
449.7824
449.6913
449.5888
449.4725
449.3395
449.1866
449.0097
448.8046
448.5666
448.2904
447.9704
447.6005
447.1753
446.6908
446.147
445.5502
444.9135
444.2495
443.5514
442.7891
441.9276
440.9223
439.6807
437.9763
435.0774
427.1607
491.6317
468.1175
460.015
456.0148
453.9166
452.7784
452.1267
451.7262
451.4605
451.2748
451.1402
451.0384
450.9577
450.8905
450.8318
450.7787
450.7291
450.6818
450.6362
450.5916
450.5479
450.5046
450.4615
450.4183
450.3745
450.3297
450.2834
450.235
450.184
450.1297
450.0717
450.0091
449.9415
449.8678
449.7864
449.6955
449.5933
449.4774
449.345
449.1928
449.0167
448.8125
448.5754
448.3002
447.9811
447.6122
447.1879
446.7041
446.161
445.5649
444.9289
444.2658
443.5685
442.8069
441.9463
440.9421
439.7019
437.9991
435.1023
427.1881
492.0996
468.4553
460.3148
456.2732
454.1332
452.9604
452.2823
451.8621
451.581
451.3814
451.2338
451.1199
451.0283
450.9511
450.8836
450.8226
450.766
450.7127
450.6618
450.6128
450.5652
450.5188
450.4732
450.4279
450.3825
450.3364
450.2892
450.2401
450.1886
450.134
450.0757
450.0131
449.9455
449.8718
449.7904
449.6997
449.5979