/*--------------------------------*- C++ -*----------------------------------*\
| =========                 |                                                 |
| \\      /  F ield         | OpenFOAM: The Open Source CFD Toolbox           |
|  \\    /   O peration     | Version:  2312                                  |
|   \\  /    A nd           | Website:  www.openfoam.com                      |
|    \\/     M anipulation  |                                                 |
\*---------------------------------------------------------------------------*/
FoamFile
{
    version     2.0;
    format      ascii;
    arch        "LSB;label=32;scalar=64";
    class       volScalarField;
    location    "3450";
    object      ILambda_13_0;
}
// * * * * * * * * * * * * * * * * * * * * * * * * * * * * * * * * * * * * * //

dimensions      [1 0 -3 0 0 0 0];

internalField   nonuniform List<scalar> 
12000
(
723.7168
697.6827
699.8597
698.355
697.5012
696.4882
695.7838
695.4725
695.4644
695.5754
695.6443
695.563
695.2749
694.771
694.0856
693.2854
692.4511
691.6573
690.9568
690.3721
689.8958
689.497
689.1325
688.7589
688.3425
687.8634
687.3152
686.7006
686.0268
685.3018
684.5315
683.7174
682.8561
681.9401
680.9596
679.9137
678.8079
677.6457
676.4205
675.13
673.7947
672.4472
671.1038
669.7329
668.2646
666.6627
664.9076
662.8897
660.3979
657.1972
653.1639
648.1248
641.689
633.3449
622.6688
609.2191
592.5063
572.2172
548.5573
522.8176
696.1165
695.6897
696.3931
695.4799
695.2469
695.0564
694.9868
694.8648
694.616
694.2101
693.6595
693
692.2814
691.5575
690.8744
690.2613
689.7262
689.2576
688.8295
688.4097
687.9671
687.4771
686.9253
686.3065
685.6231
684.8808
684.0861
683.2444
682.359
681.4314
680.4618
679.4507
678.3995
677.3114
676.1913
675.0403
673.8528
672.6152
671.3072
669.8956
668.3209
666.4889
664.2742
661.5329
658.1102
653.8207
648.443
641.7602
633.6017
623.8523
612.4211
599.29
584.6301
568.8677
552.6773
537.0358
523.2857
513.0786
508.1294
509.5723
693.7249
694.9192
694.4376
694.1977
693.9912
693.7016
693.3113
692.7943
692.1827
691.5182
690.8448
690.1978
689.5996
689.0574
688.5628
688.0956
687.6293
687.1372
686.5974
685.9961
685.3278
684.5944
683.8029
682.9624
682.0816
681.1679
680.2262
679.2591
678.267
677.2475
676.195
675.0988
673.941
672.6929
671.312
669.7386
667.8941
665.6803
662.979
659.6519
655.5454
650.5027
644.3769
637.0456
628.4219
618.471
607.2372
594.8691
581.6286
567.891
554.1491
541.0212
529.2205
519.4768
512.4374
508.5586
507.9561
510.2381
514.4056
518.9627
693.4852
693.2687
692.7899
692.4226
691.9297
691.3775
690.7737
690.1514
689.5386
688.9525
688.3987
687.8717
687.3571
686.836
686.2884
685.6976
685.0525
684.3491
683.5893
682.7797
681.929
681.0462
680.1381
679.2081
678.2549
677.2714
676.2443
675.1519
673.9633
672.6361
671.115
669.3297
667.1946
664.6094
661.4609
657.6278
652.9863
647.419
640.825
633.1331
624.3155
614.4016
603.4894
591.7537
579.451
566.9201
554.5728
542.8733
532.3085
523.3509
516.414
511.798
509.6322
509.8327
512.0881
515.879
520.5495
525.4418
530.0862
534.3816
691.9099
691.0411
690.5706
690.0047
689.4193
688.833
688.2545
687.6911
687.1386
686.5869
686.0226
685.4319
684.8033
684.1294
683.4078
682.6406
681.833
680.9911
680.1197
679.2204
678.2887
677.3136
676.2754
675.1446
673.8815
672.4348
670.7412
668.7254
666.3009
663.3717
659.8355
655.5888
650.5326
644.5813
637.671
629.7701
620.8887
611.0879
600.4874
589.2692
577.678
566.0154
554.6285
543.8939
534.1943
525.8911
519.2931
514.6259
512.0048
511.4157
512.7065
515.5954
519.6997
524.5858
529.8327
535.1001
540.1869
545.0586
549.8198
554.6239
689.5896
688.5627
688.0888
687.4907
686.9238
686.352
685.7756
685.1844
684.5691
683.9218
683.2376
682.5142
681.752
680.9525
680.116
679.2397
678.3155
677.3279
676.2522
675.054
673.6878
672.0975
670.2163
667.9679
665.2682
662.0283
658.1578
653.5701
648.1883
641.9522
634.8258
626.8051
617.9255
608.2675
597.9613
587.1874
576.1746
565.194
554.548
544.5557
535.5345
527.779
521.5398
517.0019
514.2674
513.343
514.1363
516.4607
520.0516
524.5916
529.7439
535.1895
540.6621
545.9744
551.0274
555.8001
560.3201
564.6201
568.6987
572.5158
687.0767
686.0255
685.5426
684.9264
684.3295
683.7043
683.0537
682.3702
681.6501
680.8893
680.0827
679.2223
678.2949
677.2804
676.1503
674.8665
673.3806
671.6345
669.5612
667.0862
664.1302
660.6124
656.4541
651.5841
645.944
639.4942
632.2199
624.1374
615.2993
605.798
595.7681
585.3858
574.8655
564.4535
554.4179
545.0365
536.5813
529.3024
523.4112
519.0649
516.3536
515.2921
515.8167
517.789
521.0055
525.215
530.139
535.4968
541.0284
546.5153
551.7942
556.761
561.3648
565.5927
569.4493
572.9359
576.0368
578.7169
580.9379
582.6949
684.484
683.3869
682.8591
682.1802
681.4998
680.7687
679.9851
679.1327
678.1936
677.143
675.9486
674.5697
672.9567
671.0515
668.7889
666.0982
662.9064
659.141
654.7348
649.6303
643.7844
637.1742
629.8014
621.6974
612.9265
603.5887
593.8201
583.7914
573.7039
563.7835
554.2717
545.4147
537.4508
530.597
525.0362
520.9045
518.2818
517.1849
517.5658
519.3138
522.2626
526.2027
530.8957
536.093
541.5525
547.0556
552.4197
557.5057
562.2195
566.5078
570.3486
573.7391
576.6836
579.1843
581.2378
582.8368
583.978
584.6717
584.9527
584.8911
681.7472
680.4972
679.8267
678.9428
677.9886
676.893
675.629
674.1512
672.4101
670.3486
667.9044
665.012
661.605
657.62
653.0003
647.7006
641.6909
634.9619
627.5281
619.4321
610.7468
601.5766
592.0573
582.3537
572.6557
563.1722
554.1229
545.729
538.2024
531.7348
526.4865
522.5768
520.0762
519.0015
519.3132
520.9182
523.6747
527.4014
531.8892
536.9147
542.2543
547.6977
553.0592
558.1859
562.9619
567.3083
571.1797
574.5574
577.4411
579.8412
581.7724
583.2501
584.2902
584.9122
585.1426
585.019
584.5927
583.9284
583.1024
582.1977
678.2944
676.4171
675.2134
673.5972
671.7353
669.5212
666.9062
663.8272
660.2257
656.0466
651.2433
645.7813
639.6423
632.8276
625.3624
617.2977
608.7121
599.7127
590.4338
581.0344
571.694
562.607
553.9751
545.9991
538.8696
532.7575
527.8051
524.1178
521.7577
520.7398
521.0297
522.5459
525.1635
528.7219
533.0334
537.8952
543.1001
548.4485
553.758
558.8716
563.663
568.0387
571.9369
575.3246
578.192
580.5467
582.4078
583.8013
584.757
585.3077
585.4897
585.3446
584.9213
584.2767
583.475
582.5865
581.6844
580.8418
580.1279
579.6002
672.0427
668.3697
665.8462
662.5325
658.7654
654.4117
649.4512
643.8549
637.6151
630.7423
623.2699
615.2552
606.7811
597.9558
588.9113
579.8009
570.7947
562.0743
553.8263
546.2342
539.4709
533.6903
529.0195
525.552
523.3425
522.4032
522.7029
524.1679
526.6855
530.1105
534.2721
538.9839
544.0533
549.2913
554.5216
559.588
564.3602
568.7365
572.645
576.042
578.9088
581.2476
583.0762
584.424
585.3276
585.8289
585.9732
585.809
585.3886
584.7686
584.0096
583.1757
582.3327
581.5448
580.8728
580.3706
580.0835
580.0455
580.2776
580.7859
659.2813
652.3114
647.7147
641.8904
635.5943
628.6799
621.2206
613.2713
604.9188
596.271
587.4572
578.625
569.9358
561.56
553.6706
546.4368
540.0162
534.5481
530.1467
526.8953
524.8417
523.9955
524.3268
525.7674
528.2139
531.5327
535.5668
540.1433
545.0822
550.2047
555.3415
560.3399
565.069
569.4233
573.325
576.7229
579.5915
581.9272
583.7449
585.0735
585.9524
586.4282
586.552
586.3779
585.9622
585.363
584.6396
583.8521
583.0602
582.3216
581.69
581.2122
580.9259
580.8581
581.0237
581.4257
582.0545
582.8899
583.904
585.068
636.8373
625.9537
619.3622
611.2946
603.1092
594.6312
586.0466
577.4836
569.0981
561.0497
553.4996
546.6039
540.5072
535.3363
531.1941
528.1549
526.2602
525.5167
525.895
527.331
529.7284
532.9629
536.8885
541.3437
546.1596
551.167
556.2039
561.1222
565.7925
570.1086
573.9891
577.3784
580.2456
582.5823
584.3999
585.7255
586.5985
587.0672
587.1859
587.012
586.6049
586.0245
585.3299
584.5791
583.8279
583.1285
582.5285
582.0689
581.7828
581.6938
581.815
582.1487
582.687
583.4129
584.3024
585.3271
586.457
587.6653
588.9331
590.2548
605.4952
592.1259
584.8909
576.3206
568.282
560.5311
553.3058
546.7302
540.9414
536.0541
532.1614
529.3296
527.5946
526.9602
527.3969
528.8434
531.209
534.3772
538.2107
542.5582
547.2603
552.1566
557.0924
561.9247
566.5272
570.7942
574.6431
578.0155
580.8767
583.2147
585.0372
586.3688
587.2478
587.7223
587.8475
587.6827
587.289
586.7272
586.057
585.3353
584.6154
583.9462
583.3711
582.9268
582.6427
582.5398
582.6302
582.917
583.395
584.0517
584.869
585.8254
586.899
588.0692
589.3204
590.6433
592.038
593.515
595.0958
596.8085
571.5761
559.0761
553.3288
546.765
541.3314
536.6968
533.0466
530.4151
528.8384
528.3161
528.8187
530.2869
532.6345
535.751
539.5073
543.7602
548.3587
553.1507
557.9884
562.734
567.2649
571.4771
575.2881
578.6379
581.4895
583.8277
585.6571
586.9999
587.8922
588.381
588.5214
588.3727
587.9967
587.4548
586.8069
586.1093
585.4141
584.768
584.2118
583.7797
583.4984
583.3874
583.4583
583.7148
584.1542
584.7673
585.5406
586.458
587.5027
588.6595
589.9167
591.2677
592.7117
594.2546
595.908
597.6886
599.6168
601.7134
603.997
606.4794
544.5675
536.5829
534.0484
531.3702
530.0012
529.5751
530.1505
531.6471
533.9871
537.0642
540.7557
544.9258
549.4314
554.1273
558.8724
563.5341
567.9938
572.1498
575.9204
579.245
582.0849
584.4227
586.2605
587.6175
588.5278
589.0368
589.1981
589.0708
588.7163
588.1961
587.5698
586.8936
586.2187
585.5908
585.0491
584.6263
584.3478
584.2321
584.2905
584.528
584.9433
585.5303
586.279
587.1771
588.2115
589.3702
590.6436
592.0259
593.5156
595.1157
596.8333
598.6781
600.6611
602.7916
605.0752
607.5119
610.0932
612.8014
615.6098
618.4903
532.061
530.4883
531.4945
532.9008
535.2679
538.3037
541.9421
546.0391
550.4615
555.0697
559.7287
564.3112
568.7024
572.8032
576.5331
579.8318
582.6596
584.9972
586.8443
588.218
589.1498
589.683
589.8698
589.7679
589.438
588.9413
588.3369
587.6807
587.0236
586.4108
585.8807
585.4652
585.1892
585.0708
585.1217
585.3475
585.7485
586.3209
587.0573
587.9483
588.9837
590.1535
591.4495
592.866
594.3999
596.0516
597.8238
599.7208
601.7472
603.9059
606.196
608.6114
611.1384
613.7548
616.4295
619.1226
621.7871
624.3717
626.8273
629.1218
535.6449
539.6657
543.0626
547.1034
551.4461
555.9701
560.5488
565.0561
569.3818
573.4293
577.1195
580.3925
583.208
585.5455
587.4027
588.7944
589.7499
590.3103
590.5258
590.4526
590.1503
589.6791
589.0978
588.4618
587.8218
587.2226
586.7027
586.2937
586.0204
585.9012
585.948
586.1675
586.5612
587.127
587.8595
588.7515
589.7946
590.9805
592.3018
593.7525
595.3283
597.0268
598.8473
600.7893
602.8524
605.0341
607.3286
609.7255
612.2084
614.7541
617.3321
619.9051
622.4303
624.8604
627.1466
629.2412
631.1015
632.6939
633.9997
635.0272
550.5392
557.31
561.2578
565.7964
570.0293
574.0265
577.6749
580.9213
583.7238
586.0605
587.9276
589.3378
590.318
590.9072
591.1534
591.1113
590.8389
590.3955
589.839
589.2246
588.6026
588.0177
587.5086
587.1069
586.8378
586.72
586.7663
586.9841
587.3762
587.9416
588.6767
589.5755
590.6312
591.8363
593.1839
594.6676
596.2819
598.0222
599.8847
601.8654
603.9595
606.1602
608.458
610.8392
613.2853
615.7721
618.2701
620.7443
623.1557
625.4624
627.6218
629.5926
631.3377
632.8264
634.0366
634.9569
635.5885
635.9462
636.0602
635.9792
568.7826
575.1257
578.107
581.4552
584.2026
586.5407
588.4123
589.8391
590.8429
591.4609
591.7389
591.7293
591.4888
591.0752
590.5458
589.955
589.3529
588.7844
588.2881
587.8962
587.6343
587.5216
587.5716
587.7927
588.1886
588.7595
589.5026
590.4133
591.4855
592.7124
594.087
595.6024
597.252
599.0294
600.9282
602.9413
605.0606
607.2761
609.575
611.9411
614.3544
616.7903
619.2199
621.6105
623.926
626.1289
628.1813
630.0473
631.6947
633.0974
634.2369
635.1042
635.6999
636.0355
636.1322
636.0209
635.7403
635.3354
634.8563
634.3574
583.4682
587.3787
588.7912
590.329
591.319
591.967
592.2719
592.2942
592.0856
591.7033
591.203
590.6384
590.0592
589.5103
589.0303
588.6518
588.401
588.2979
588.3567
588.5865
588.9919
589.5741
590.3309
591.2584
592.351
593.602
595.0044
596.5506
598.233
600.0434
601.9733
604.0133
606.1525
608.3782
610.6752
613.0255
615.4077
617.7971
620.1656
622.4823
624.714
626.8267
628.7869
630.5627
632.1262
633.4551
634.5335
635.3543
635.9188
636.2379
636.331
636.2258
635.9562
635.5608
635.081
634.5584
634.0333
633.543
633.1203
632.7949
591.4378
592.6149
592.7353
592.8263
592.6269
592.2758
591.8021
591.2646
590.7103
590.1839
589.7241
589.3636
589.129
589.0408
589.114
589.3584
589.7793
590.3783
591.1542
592.1033
593.2201
594.498
595.9295
597.5063
599.2195
601.0597
603.0165
605.0785
607.2328
609.4644
611.7563
614.0892
616.4407
618.7861
621.0981
623.3474
625.5034
627.5353
629.413
631.1086
632.598
633.8618
634.8869
635.6675
636.2057
636.5116
636.603
636.505
636.2483
635.8681
635.4017
634.8871
634.3603
633.854
633.3956
633.0068
632.7025
632.4917
632.3783
632.3642
593.4265
592.8257
592.3701
591.8475
591.3097
590.8048
590.3654
590.0255
589.8108
589.7425
589.8356
590.1004
590.5427
591.1646
591.9649
592.9402
594.0851
595.3925
596.8544
598.4618
600.2048
602.0725
604.0531
606.1333
608.2985
610.5323
612.8163
615.1299
617.4505
619.7534
622.0121
624.1988
626.2852
628.2431
630.0457
631.6685
633.0904
634.2952
635.2719
636.0165
636.5314
636.8264
636.918
636.8291
636.5877
636.2254
635.7763
635.2749
634.7544
634.2452
633.773
633.3585
633.0157
632.7523
632.5695
632.4629
632.4237
632.4405
632.5022
632.6022
592.3792
591.3464
591.0038
590.6492
590.4543
590.4039
590.5185
590.8068
591.2745
591.9236
592.753
593.7588
594.9353
596.2751
597.7692
599.4079
601.1801
603.0737
605.0756
607.1711
609.3443
611.5775
613.8512
616.1443
618.4339
620.6954
622.9034
625.0315
627.0534
628.9432
630.6769
632.233
633.5931
634.7436
635.6758
636.3868
636.8801
637.165
637.2572
637.1777
636.952
636.6092
636.18
635.6962
635.188
634.6834
634.2068
633.7774
633.4093
633.1107
632.8839
632.7261
632.6297
632.5834
632.5734
632.5847
632.6033
632.6176
632.6212
632.6169
591.4366
591.0246
591.2105
591.4889
591.9815
592.6545
593.5131
594.5503
595.76
597.1335
598.661
600.3315
602.1329
604.0517
606.0736
608.1827
610.3619
612.5926
614.8547
617.1266
619.3855
621.6074
623.7675
625.8408
627.8029
629.63
631.3006
632.7956
634.0992
635.2
636.0911
636.7711
637.2439
637.519
637.6113
637.5403
637.3295
637.0056
636.5968
636.1321
635.6393
635.1443
634.6698
634.2341
633.8507
633.528
633.2692
633.0727
632.9324
632.8392
632.7811
632.7451
632.7179
632.6867
632.6408
632.5719
632.4757
632.3524
632.2083
632.0595
592.7079
593.431
594.2757
595.3274
596.5627
597.9643
599.522
601.2221
603.0509
604.9936
607.0342
609.1558
611.3401
613.5678
615.8182
618.0695
620.2989
622.4832
624.5985
626.6211
628.5282
630.2982
631.9115
633.3511
634.6035
635.6592
636.513
637.1644
637.6183
637.884
637.9758
637.9122
637.7149
637.4084
637.019
636.573
636.0963
635.6128
635.1437
634.7063
634.3138
633.9747
633.6926
633.467
633.2932
633.1634
633.0674
632.9934
632.9297
632.8646
632.7882
632.6924
632.5719
632.4239
632.2489
632.0504
631.835
631.6127
631.3973
631.2095
597.0202
598.9277
600.3617
602.0958
603.9362
605.8959
607.9502
610.0809
612.2684
614.4922
616.7311
618.963
621.1653
623.3151
625.3895
627.3662
629.2237
630.9422
632.5041
633.8943
635.1011
636.1166
636.9371
637.5632
638
638.2571
638.3483
638.291
638.1056
637.815
637.4432
637.0148
636.5536
636.0819
635.6193
635.1825
634.7841
634.4327
634.1325
633.8838
633.6831
633.524
633.3977
633.2937
633.2013
633.1098
633.0098
632.8936
632.7556
632.5929
632.4052
632.1948
631.9665
631.7268
631.484
631.2476
631.0283
630.8376
630.6889
630.5991
604.1698
606.9936
608.8139
610.9796
613.149
615.3645
617.588
619.7997
621.9759
624.094
626.1317
628.0675
629.8813
631.5547
633.0716
634.4187
635.5858
636.5666
637.3583
637.9625
638.3848
638.6348
638.7257
638.6743
638.4997
638.2234
637.8676
637.4552
637.0084
636.5479
636.0922
635.657
635.2544
634.8932
634.5779
634.3096
634.0861
633.902
633.75
633.6208
633.5049
633.3924
633.2744
633.1435
632.994
632.8226
632.6282
632.4125
632.179
631.9335
631.6832
631.4366
631.2028
630.9911
630.8105
630.6701
630.5785
630.5449
630.5792
630.6936
613.2095
616.4655
618.3726
620.6065
622.7343
624.8204
626.8207
628.7184
630.4928
632.1266
633.6049
634.9154
636.0493
637.001
637.7691
638.3556
638.7664
639.0113
639.1031
639.0577
638.8934
638.6302
638.2891
637.8915
637.4579
637.0078
636.5587
636.1255
635.7199
635.3504
635.0223
634.7371
634.4936
634.2875
634.1128
633.9615
633.825
633.6945
633.5618
633.4196
633.2625
633.0866
632.8907
632.6752
632.443
632.1988
631.9489
631.701
631.4633
631.2448
631.0546
630.9014
630.7936
630.7389
630.7445
630.8171
630.9636
631.1917
631.5107
631.9313
622.6945
625.7814
627.44
629.3481
631.0622
632.659
634.0996
635.3775
636.4828
637.4108
638.1602
638.7335
639.1366
639.3792
639.4736
639.4352
639.2813
639.0309
638.7037
638.3197
637.8985
637.4582
637.0155
636.5844
636.1765
635.8002
635.4609
635.1609
634.8996
634.6741
634.479
634.3079
634.153
634.0066
633.861
633.7094
633.5465
633.3685
633.1736
632.9617
632.735
632.4973
632.2541
632.012
631.7789
631.563
631.3731
631.2177
631.1055
631.0446
631.0427
631.1071
631.2445
631.4613
631.7637
632.1578
632.6504
633.2491
633.9632
634.8033
631.0429
633.402
634.5469
635.8327
636.8899
637.7958
638.5265
639.0887
639.4866
639.7294
639.8286
639.7988
639.6564
639.4192
639.1059
638.7355
638.3262
637.8956
637.4592
637.0308
636.6213
636.2394
635.8905
635.5775
635.3007
635.0577
634.8446
634.6556
634.4842
634.3234
634.1663
634.0065
633.839
633.66
633.4672
633.2605
633.0412
632.8126
632.5794
632.3478
632.1247
631.9181
631.7361
631.5874
631.4803
631.4231
631.4237
631.4898
631.6285
631.8466
632.1507
632.5469
633.0409
633.6382
634.3438
635.1624
636.0986
637.1572
638.3435
639.6637
637.0351
638.3373
638.8722
639.4439
639.8187
640.0602
640.1619
640.1405
640.0097
639.7863
639.4876
639.1313
638.7348
638.3144
637.8853
637.4604
637.0507
636.6647
636.3081
635.9842
635.694
635.436
635.2069
635.0022
634.8161
634.6425
634.4751
634.3082
634.1368
633.9573
633.7675
633.5666
633.3557
633.1374
632.916
632.6969
632.4867
632.2929
632.1235
631.9866
631.8908
631.8443
631.8551
631.931
632.0793
632.3068
632.6202
633.0255
633.5282
634.1335
634.8458
635.6688
636.6054
637.657
638.8239
640.1048
641.4973
642.9978
644.6028
646.3113
640.2258
640.4744
640.4941
640.4769
640.3431
640.1292
639.8419
639.4988
639.1149
638.7057
638.2851
637.8656
637.4578
637.07
636.7082
636.3761
636.0752
635.8047
635.5624
635.3444
635.1458
634.9613
634.7852
634.6123
634.438
634.2588
634.0724
633.8779
633.6759
633.4688
633.2601
633.0549
632.8592
632.6803
632.5257
632.4036
632.3224
632.2903
632.3156
632.4059
632.5688
632.8113
633.1396
633.5598
634.077
634.6958
635.42
636.2526
637.1955
638.2492
639.413
640.6846
642.0597
643.5321
645.0934
646.7334
648.4405
650.2024
652.0081
653.8521
641.0069
640.4863
640.2054
639.8503
639.4693
639.0661
638.652
638.238
637.8335
637.4462
637.0821
636.745
636.4368
636.1573
635.905
635.6766
635.4683
635.2752
635.0924
634.9153
634.7394
634.5616
634.3794
634.192
633.9996
633.8042
633.609
633.4187
633.2388
633.0762
632.9382
632.8329
632.7683
632.7529
632.7949
632.9021
633.0821
633.342
633.6881
634.1261
634.661
635.2968
636.0369
636.8833
637.8371
638.898
640.0643
641.3328
642.6984
644.1543
645.692
647.3008
648.9685
650.6809
652.4226
654.1774
655.929
657.6623
659.3657
661.0367
640.2902
639.3971
639.035
638.5886
638.1825
637.7913
637.4246
637.084
636.7711
636.4859
636.227
635.9919
635.7771
635.5785
635.3917
635.2125
635.0369
634.8619
634.6852
634.5057
634.3238
634.1409
633.9601
633.7854
633.6223
633.4772
633.3571
633.2699
633.2236
633.2265
633.2868
633.4125
633.6111
633.8898
634.2547
634.7117
635.2653
635.9195
636.6768
637.539
638.5063
639.5777
640.7506
642.021
643.3831
644.8296
646.3513
647.9375
649.5759
651.2527
652.953
654.6611
656.3605
658.0349
659.6678
661.2443
662.7508
664.1772
665.5182
666.7796
639.03
638.0964
637.7907
637.4043
637.0849
636.7901
636.5254
636.2854
636.0668
635.8657
635.6779
635.4994
635.3265
635.1564
634.9868
634.8168
634.6464
634.4771
634.3114
634.1534
634.0079
633.8812
633.7801
633.712
633.6851
633.7074
633.7871
633.9323
634.1504
634.4485
634.8329
635.3091
635.8818
636.5543
637.3292
638.2074
639.1887
640.2716
641.4529
642.7279
644.0902
645.532
647.0437
648.6143
650.2313
651.8812
653.5491
655.2199
656.8777
658.5067
660.0915
661.6176
663.0711
664.44
665.7137
666.8841
667.9461
668.8979
669.7435
670.4977
637.8695
637.0684
636.8549
636.569
636.3453
636.1377
635.9493
635.7728
635.6046
635.4415
635.2813
635.1226
634.9655
634.8111
634.662
634.5217
634.395
634.2877
634.2064
634.1585
634.1519
634.1944
634.2943
634.4594
634.6973
635.0151
635.419
635.9144
636.5058
637.1963
637.988
638.8818
639.8768
640.9711
642.161
643.4412
644.8051
646.2444
647.7492
649.3083
650.9092
652.5383
654.1811
655.8224
657.447
659.0395
660.5849
662.0691
663.479
664.8029
666.0308
667.1548
668.1686
669.0684
669.8524
670.5214
671.0787
671.531
671.89
672.1766
637.0505
636.4055
636.2563
636.0445
635.8782
635.7179
635.5666
635.4199
635.2774
635.1397
635.0087
634.8878
634.7813
634.6949
634.6348
634.6083
634.6229
634.6866
634.8073
634.993
635.2512
635.5888
636.012
636.5262
637.1356
637.8433
638.6511
639.5595
640.5674
641.6724
642.8703
644.1557
645.5214
646.9587
648.4578
650.0072
651.5945
653.206
654.8276
656.4445
658.0415
659.6037
661.1167
662.5665
663.9405
665.2274
666.4174
667.5026
668.4771
669.3372
670.0812
670.7095
671.2247
671.6308
671.934
672.1419
672.2643
672.313
672.3038
672.2598
636.5444
636.007
635.8885
635.72
635.5876
635.4619
635.3483
635.247
635.1619
635.0977
635.0603
635.0567
635.094
635.1801
635.3229
635.5301
635.8092
636.167
636.6097
637.1425
637.7696
638.4939
639.317
640.2391
641.259
642.3737
643.579
644.869
646.2361
647.6717
649.1655
650.706
652.2808
653.8765
655.479
657.0737
658.6461
660.1815
661.6659
663.0859
664.4291
665.6845
666.8427
667.8958
668.8382
669.666
670.3775
670.973
671.455
671.8276
672.0968
672.27
672.3558
672.3641
672.3051
672.1902
672.0315
671.8423
671.6385
671.4414
636.2673
635.8064
635.7235
635.6104
635.541
635.4945
635.4788
635.4981
635.559
635.6688
635.8348
636.0646
636.3656
636.7444
637.2071
637.7588
638.4036
639.1443
639.9824
640.9177
641.9489
643.0728
644.2848
645.5788
646.9472
648.3809
649.8696
651.4018
652.965
654.5459
656.1306
657.7049
659.2543
660.7649
662.2229
663.6153
664.9303
666.1573
667.287
668.312
669.2266
670.0271
670.7118
671.281
671.7369
672.0834
672.3264
672.473
672.5318
672.5123
672.4251
672.2809
672.0911
671.8667
671.6188
671.3581
671.0954
670.8419
670.6101
670.4166
636.2596
635.9214
635.9322
635.9445
636.0229
636.1516
636.3394
636.5916
636.9148
637.3152
637.7985
638.3697
639.0326
639.7898
640.6428
641.5912
642.6334
643.7661
644.9846
646.2824
647.6519
649.0837
650.5675
652.0917
653.6439
655.2109
656.7789
658.3339
659.8619
661.3492
662.7823
664.1489
665.4374
666.6376
667.7407
668.7394
669.6285
670.4044
671.0654
671.6119
672.046
672.3715
672.5941
672.7207
672.7597
672.7202
672.6126
672.4474
672.2357
671.9887
671.717
671.4313
671.1413
670.8561
670.5834
670.3306
670.1043
669.9111
669.7585
669.6574
636.7619
636.679
636.8781
637.1253
637.4638
637.8809
638.3829
638.9727
639.6534
640.4272
641.2951
642.2565
643.3097
644.4512
645.676
646.9776
648.348
649.7781
651.2572
652.7738
654.3155
655.8692
657.4213
658.958
660.4657
661.9308
663.3404
664.6824
665.9457
667.1204
668.1981
669.1719
670.0368
670.7894
671.4283
671.9539
672.3684
672.6756
672.881
672.9914
673.0151
672.961
672.8391
672.6597
672.4336
672.1715
671.884
671.5814
671.2732
670.9683
670.6745
670.3987
670.1466
669.9225
669.7297
669.5703
669.4461
669.3589
669.312
669.3123
638.1707
638.5182
638.9981
639.5848
640.2751
641.0604
641.9408
642.9141
643.9778
645.1277
646.3587
647.6641
649.0356
650.464
651.9387
653.4481
654.9798
656.5207
658.0576
659.5768
661.0649
662.5086
663.8955
665.2138
666.4527
667.6028
668.656
669.6057
670.4473
671.1775
671.7952
672.3009
672.6968
672.9869
673.1767
673.2729
673.2836
673.2177
673.0848
672.8953
672.6596
672.388
672.091
671.7783
671.4593
671.1425
670.8355
670.5447
670.2758
670.033
669.8194
669.637
669.4867
669.3682
669.2803
669.2213
669.1897
669.1843
669.2066
669.2625
640.888
641.8044
642.6103
643.5837
644.6471
645.8009
647.0357
648.3435
649.7158
651.1425
652.6129
654.1154
655.6376
657.1665
658.6888
660.1912
661.6604
663.0836
664.4485
665.7437
666.9589
668.0849
669.114
670.0401
670.8587
671.5669
672.1638
672.6499
673.0279
673.3015
673.4764
673.5592
673.558
673.4815
673.3395
673.1418
672.8988
672.6207
672.3176
671.9991
671.6742
671.3511
671.037
670.7383
670.46
670.2063
669.98
669.7829
669.6156
669.478
669.3689
669.2866
669.2283
669.1913
669.1723
669.1682
669.1766
669.1966
669.2301
669.2851
645.1238
646.6295
647.7263
649.0378
650.3972
651.8184
653.2822
654.777
656.2895
657.8066
659.3149
660.8012
662.2524
663.6559
664.9996
666.2725
667.4646
668.5671
669.5727
670.4755
671.2713
671.9577
672.5339
673.0007
673.3607
673.6181
673.7782
673.848
673.8354
673.749
673.5984
673.3935
673.1444
672.8612
672.5537
672.2313
671.9029
671.5764
671.2588
670.9562
670.6735
670.4144
670.1816
669.9767
669.8
669.6513
669.5291
669.4315
669.3561
669.2997
669.2595
669.232
669.2142
669.2029
669.1956
669.1901
669.1858
669.1834
669.1871
669.2076
650.7351
652.6888
653.9556
655.4561
656.9426
658.4451
659.9371
661.4066
662.8398
664.2239
665.5471
666.7985
667.9682
669.048
670.0306
670.9107
671.6843
672.3492
672.9049
673.3526
673.6948
673.936
674.0815
674.1384
674.1145
674.0185
673.8597
673.6481
673.3934
673.1058
672.7947
672.4696
672.1388
671.8103
671.4909
671.1864
670.9015
670.64
670.4041
670.1954
670.0142
669.8597
669.7306
669.6247
669.5394
669.4716
669.4181
669.3755
669.3406
669.3105
669.2824
669.2544
669.2245
669.1917
669.1552
669.1154
669.0736
669.0331
669
668.987
657.1839
659.3002
660.5582
662.0322
663.429
664.7915
666.0916
667.3207
668.468
669.5252
670.4854
671.3432
672.095
672.739
673.2746
673.7034
674.0282
674.2533
674.3845
674.4286
674.3936
674.2882
674.1215
673.9034
673.6437
673.3521
673.0381
672.7108
672.3785
672.0489
671.7286
671.4234
671.1377
670.875
670.6378
670.4273
670.2436
670.0862
669.9535
669.8433
669.7527
669.6788
669.618
669.5669
669.5223
669.4809
669.44
669.3974
669.3511
669.3
669.2436
669.1818
669.1151
669.0446
668.9717
668.8986
668.8283
668.7654
668.7171
668.6963
663.6481
665.5735
666.6368
667.8652
668.971
670.0035
670.9382
671.7728
672.5024
673.1252
673.641
674.0511
674.3585
674.5679
674.6849
674.7165
674.6706
674.5559
674.3816
674.1574
673.8929
673.5977
673.2812
672.9522
672.619
672.289
671.9686
671.6634
671.3778
671.1151
670.8776
670.6664
670.4818
670.3228
670.1881
670.0754
669.9819
669.9044
669.8396
669.7839
669.7339
669.6865
669.6386
669.5879
669.5324
669.4707
669.402
669.3263
669.2438
669.1556
669.0632
668.9685
668.8737
668.7812
668.6935
668.6135
668.5448
668.4919
668.4619
668.4666
669.2501
670.6692
671.4011
672.2261
672.9157
673.5146
674.0072
674.3973
674.6867
674.88
674.9826
675.0017
674.9449
674.8211
674.6393
674.409
674.1398
673.8413
673.5225
673.1922
672.8584
672.5284
672.2084
671.9039
671.619
671.3569
671.1199
670.9089
670.7242
670.5647
670.4292
670.3151
670.2199
670.1403
670.073
670.0145
669.9614
669.9105
669.8588
669.8038
669.7435
669.6763
669.6013
669.5181
669.427
669.3288
669.2248
669.1166
669.0064
668.8966
668.7897
668.6885
668.5955
668.5134
668.4446
668.3915
668.3569
668.3447
668.3607
668.4153
673.3174
674.0474
674.398
674.768
675.0244
675.1978
675.2829
675.2878
675.2193
675.0858
674.8962
674.6597
674.3859
674.084
673.763
673.4314
673.0972
672.7673
672.448
672.1443
671.8604
671.5994
671.3632
671.153
670.9686
670.8092
670.6734
670.5587
670.4626
670.3817
670.3129
670.2527
670.1976
670.1445
670.0905
670.033
669.97
669.9
669.8219
669.7352
669.64
669.537
669.4273
669.3124
669.1941
669.0748
668.9567
668.8424
668.7345
668.6354
668.5478
668.4737
668.4154
668.3744
668.3521
668.35
668.3696
668.4136
668.4864
668.5973
675.5734
675.6104
675.6242
675.5989
675.5072
675.3593
675.1588
674.9145
674.635
674.3291
674.0056
673.6726
673.3378
673.0081
672.6893
672.3865
672.1036
671.8437
671.6085
671.3991
671.2153
671.0562
670.9204
670.8054
670.7086
670.6268
670.5569
670.4953
670.4389
670.3843
670.3287
670.2697
670.2051
670.1334
670.0536
669.9652
669.8682
669.7632
669.6511
669.5334
669.4118
669.2883
669.1651
669.0446
668.9291
668.8209
668.7225
668.6357
668.5627
668.505
668.4642
668.4413
668.4372
668.4524
668.487
668.541
668.6152
668.7109
668.8318
668.9866
676.187
675.687
675.4767
675.1945
674.9012
674.5858
674.2568
673.9207
673.5843
673.254
672.9355
672.6334
672.3514
672.0924
671.8581
671.6494
671.4661
671.3073
671.1713
671.056
670.9586
670.876
670.805
670.7423
670.6845
670.6285
670.5717
670.5113
670.4456
670.3728
670.292
670.2027
670.1048
669.9989
669.886
669.7673
669.6445
669.5197
669.3948
669.272
669.1537
669.0419
668.9387
668.8461
668.7659
668.6994
668.648
668.6126
668.5939
668.5923
668.6081
668.6412
668.6912
668.7576
668.8394
668.9362
669.0478
669.1751
669.3218
669.4965
675.6653
674.8724
674.573
674.1944
673.8504
673.5134
673.1923
672.889
672.6068
672.3481
672.1143
671.906
671.7229
671.5641
671.4279
671.3121
671.2139
671.1303
671.0581
670.994
670.9348
670.8775
670.8192
670.7576
670.6907
670.6169
670.5353
670.4453
670.3469
670.2407
670.1276
670.0087
669.8859
669.7609
669.6357
669.5126
669.3936
669.2809
669.1764
669.0819
668.999
668.929
668.8731
668.8319
668.806
668.7956
668.8006
668.8208
668.8558
668.9049
668.9673
669.0423
669.1288
669.2257
669.332
669.4469
669.5703
669.7033
669.8498
670.0193
674.6436
673.7965
673.5185
673.1711
672.8835
672.6184
672.3821
672.1722
671.9882
671.8286
671.6916
671.5747
671.4753
671.3904
671.3166
671.2509
671.19
671.131
671.0712
671.0082
670.9399
670.8651
670.7826
670.692
670.5933
670.4869
670.3738
670.2552
670.1327
670.0082
669.8835
669.7609
669.6423
669.5299
669.4255
669.3308
669.2475
669.1767
669.1194
669.0762
669.0476
669.0335
669.0337
669.0477
669.075
669.1146
669.1656
669.227
669.2976
669.3763
669.4621
669.5541
669.6513
669.7527
669.8577
669.9659
670.0776
670.1947
670.3218
670.4693
673.6619
672.9199
672.7201
672.4665
672.2758
672.1085
671.9675
671.8475
671.7455
671.6581
671.582
671.514
671.4508
671.3896
671.3277
671.2628
671.1929
671.1167
671.0332
670.9418
670.8426
670.7361
670.6232
670.505
670.3831
670.2593
670.1355
670.0139
669.8963
669.7848
669.6813
669.5875
669.5048
669.4343
669.3771
669.3337
669.3044