/*--------------------------------*- C++ -*----------------------------------*\
| =========                 |                                                 |
| \\      /  F ield         | OpenFOAM: The Open Source CFD Toolbox           |
|  \\    /   O peration     | Version:  2312                                  |
|   \\  /    A nd           | Website:  www.openfoam.com                      |
|    \\/     M anipulation  |                                                 |
\*---------------------------------------------------------------------------*/
FoamFile
{
    version     2.0;
    format      ascii;
    arch        "LSB;label=32;scalar=64";
    class       volScalarField;
    location    "3450";
    object      ILambda_10_0;
}
// * * * * * * * * * * * * * * * * * * * * * * * * * * * * * * * * * * * * * //

dimensions      [1 0 -3 0 0 0 0];

internalField   nonuniform List<scalar> 
12000
(
611.7878
608.117
606.2547
604.021
601.9419
599.9155
597.9851
596.1584
594.449
592.8665
591.4187
590.1111
588.9468
587.9266
587.0492
586.3109
585.7059
585.226
584.8611
584.5985
584.4234
584.3182
584.263
584.2352
584.2094
584.1578
584.0499
583.8533
583.5342
583.0576
582.3889
581.4946
580.3435
578.9083
577.167
575.1039
572.7116
569.9915
566.9548
563.6228
560.0275
556.2107
552.2234
548.1242
543.9775
539.8519
535.8171
531.9413
528.2877
524.9127
521.8629
519.1728
516.8624
514.9366
513.3857
512.1857
511.2996
510.6806
510.2748
510.0263
626.1899
622.8257
620.9083
618.564
616.2315
613.8385
611.4286
609.0202
606.6372
604.3014
602.0338
599.8539
597.7793
595.8254
594.0057
592.3312
590.8109
589.4517
588.2582
587.2333
586.3779
585.6909
585.1695
584.8085
584.6005
584.5351
584.5988
584.7744
585.0403
585.3706
585.7344
586.0957
586.4139
586.6442
586.7383
586.6458
586.3157
585.6982
584.7471
583.4218
581.6896
579.528
576.9268
573.8894
570.4338
566.5937
562.4178
557.9691
553.3232
548.5661
543.7911
539.0948
534.5735
530.3182
526.4101
522.9165
519.8874
517.3521
515.315
513.7467
632.1019
629.7281
628.2681
626.4389
624.5247
622.4789
620.3304
618.0952
615.7941
613.4488
611.0815
608.715
606.3714
604.0722
601.8372
599.6848
597.6311
595.6899
593.873
592.1895
590.6464
589.2489
588.0002
586.902
585.9549
585.1579
584.5094
584.006
583.6433
583.4146
583.3111
583.3207
583.4277
583.6119
583.8481
584.1059
584.3491
584.5367
584.6227
584.5576
584.2899
583.7677
582.9411
581.7644
580.1989
578.215
575.7945
572.933
569.6409
565.9446
561.8868
557.5259
552.9351
548.2002
543.417
538.6877
534.1173
529.8089
525.858
522.3345
636.7347
635.3927
634.4861
633.3006
631.9738
630.477
628.8207
627.0116
625.0614
622.9844
620.7977
618.5209
616.1755
613.7846
611.3719
608.9614
606.5765
604.2397
601.9718
599.7915
597.7153
595.7568
593.9271
592.2348
590.6858
589.2841
588.0318
586.9296
585.9771
585.1731
584.5157
584.0022
583.6289
583.391
583.2812
583.2897
583.4029
583.6028
583.866
584.1633
584.4591
584.7121
584.8753
584.8973
584.7237
584.2992
583.5699
582.486
581.0041
579.0905
576.7228
573.8929
570.6081
566.8922
562.7863
558.3475
553.6481
548.7744
543.8242
538.9006
638.4939
638.0452
637.6911
637.176
636.5236
635.7154
634.744
633.6037
632.2918
630.8089
629.1591
627.3498
625.3922
623.3007
621.0927
618.7887
616.4109
613.9834
611.5312
609.0793
606.6526
604.2743
601.9661
599.7473
597.6344
595.641
593.7777
592.0523
590.4698
589.0331
587.7435
586.601
585.605
584.7545
584.0485
583.4859
583.0653
582.7844
582.6392
582.6234
582.7267
582.934
583.2244
583.5701
583.9361
584.2802
584.5536
584.7015
584.6657
584.3862
583.8039
582.864
581.5186
579.7297
577.4723
574.7361
571.5274
567.869
563.8033
559.3983
638.4975
638.5468
638.5596
638.5136
638.381
638.148
637.7986
637.3185
636.6945
635.915
634.9705
633.8541
632.5621
631.0939
629.4526
627.6453
625.6826
623.5791
621.3528
619.0245
616.6178
614.1578
611.671
609.1838
606.7223
604.3111
601.9725
599.7264
597.5892
595.574
593.6907
591.9455
590.342
588.8817
587.564
586.388
585.3521
584.4555
583.698
583.0802
582.6032
582.2683
582.0755
582.0228
582.1041
582.3082
582.6172
583.0053
583.4378
583.8715
584.2547
584.5291
584.6314
584.4962
584.0595
583.2627
582.0567
580.4061
578.2945
575.7399
637.7618
637.9302
638.0841
638.2373
638.3633
638.4517
638.4882
638.4587
638.348
638.1404
637.8202
637.372
636.7812
636.0349
635.122
634.0342
632.7661
631.316
629.686
627.8823
625.9155
623.7999
621.5541
619.1999
616.7619
614.2671
611.7433
609.219
606.7218
604.2778
601.9103
599.6398
597.4828
595.4517
593.5551
591.7977
590.181
588.704
587.3643
586.1589
585.0854
584.1426
583.331
582.6535
582.1143
581.7189
581.4725
581.3783
581.4359
581.6386
581.9722
582.4127
582.9255
583.4652
583.9758
584.3931
584.648
584.6723
584.407
583.8209
637.0488
637.1353
637.2773
637.4305
637.5929
637.7569
637.9167
638.0643
638.1905
638.2841
638.3322
638.3207
638.234
638.0557
637.7692
637.3579
636.8057
636.0981
635.2224
634.1685
632.9295
631.502
629.887
628.09
626.1209
623.9942
621.729
619.3482
616.8778
614.3466
611.7847
609.2225
606.6898
604.2143
601.8209
599.5305
597.3598
595.3204
593.4193
591.6588
590.0378
588.5522
587.1969
585.9662
584.8562
583.865
582.9942
582.249
581.6378
581.1716
580.8621
580.7197
580.751
580.9559
581.3246
581.8355
582.4539
583.1325
583.817
584.4589
636.5598
636.563
636.6564
636.7484
636.8541
636.9685
637.0933
637.2279
637.3707
637.5186
637.6669
637.8087
637.9354
638.0363
638.0986
638.1082
638.0491
637.9043
637.6562
637.2868
636.7787
636.1155
635.2827
634.2682
633.0632
631.6628
630.0664
628.2785
626.3084
624.1708
621.8853
619.476
616.9708
614.4005
611.7979
609.1959
606.6269
604.1209
601.7044
599.3993
597.2222
595.1838
593.2891
591.5376
589.9245
588.4419
587.0806
585.8316
584.6885
583.6484
582.7137
581.8925
581.1982
580.6487
580.2647
580.0665
580.0708
580.287
580.7151
581.3452
636.1243
636.1329
636.2171
636.2879
636.3591
636.4273
636.4963
636.5688
636.6482
636.7369
636.8369
636.9489
637.0723
637.2051
637.3433
637.4809
637.6099
637.7201
637.7992
637.833
637.8052
637.6983
637.4935
637.1717
636.7137
636.1013
635.3178
634.3489
633.1837
631.8152
630.2413
628.4651
626.4954
624.3468
622.0395
619.599
617.0553
614.4419
611.7945
609.1495
606.5422
604.0056
601.5684
599.2538
597.0785
595.0521
593.1774
591.4502
589.8615
588.3981
587.0457
585.7908
584.6229
583.5375
582.537
581.6328
580.8449
580.2007
579.7317
579.4675
635.5596
635.6163
635.7319
635.8338
635.9277
636.008
636.0761
636.1335
636.1831
636.2282
636.2724
636.3198
636.3738
636.4378
636.5144
636.6051
636.7104
636.8291
636.9581
637.0925
637.2251
637.3464
637.4445
637.5053
637.5124
637.4476
637.2912
637.0227
636.6211
636.066
635.3385
634.4218
633.3026
631.9715
630.4245
628.6631
626.6952
624.5353
622.2043
619.7293
617.1428
614.4813
611.7841
609.0915
606.443
603.8749
601.419
599.1002
596.936
594.9349
593.0972
591.4149
589.8733
588.4531
587.1333
585.8943
584.7218
583.6097
582.5628
581.5971
634.9433
634.9696
635.1036
635.2294
635.359
635.4791
635.5877
635.682
635.7612
635.8254
635.8757
635.9142
635.9437
635.9676
635.9897
636.0142
636.045
636.0861
636.1407
636.2113
636.2992
636.4043
636.5247
636.6566
636.7935
636.927
637.0457
637.1357
637.1807
637.1618
637.0585
636.8486
636.5096
636.0186
635.3542
634.4968
633.4302
632.1425
630.6273
628.8842
626.9201
624.7492
622.393
619.8805
617.2466
614.5316
611.779
609.034
606.3406
603.7399
601.2672
598.9503
596.8075
594.8466
593.0653
591.4515
589.9856
588.6439
587.4035
586.2489
634.6635
634.4715
634.5466
634.61
634.7116
634.8244
634.945
635.0659
635.1822
635.2896
635.3849
635.4659
635.5317
635.5821
635.6179
635.641
635.6538
635.6598
635.6628
635.667
635.6769
635.6968
635.7308
635.7821
635.8532
635.9449
636.0567
636.1857
636.3271
636.473
636.613
636.7337
636.8186
636.8488
636.8026
636.6566
636.386
635.9659
635.3718
634.5813
633.5748
632.3376
630.8602
629.1405
627.1837
625.0035
622.6223
620.0707
617.3867
614.6146
611.8029
609.002
606.2614
603.6271
601.1388
598.8276
596.7142
594.8082
593.1092
591.6095
635.2831
634.6463
634.5467
634.4104
634.3611
634.3522
634.3836
634.4444
634.5273
634.6248
634.7302
634.8375
634.9415
635.0378
635.1229
635.1943
635.2506
635.2911
635.3164
635.3279
635.3278
635.3194
635.3063
635.2931
635.2842
635.2847
635.299
635.3315
635.3855
635.4633
635.5655
635.6908
635.8355
635.9932
636.1543
636.3061
636.4325
636.5141
636.5287
636.4514
636.2554
635.9133
635.3975
634.6822
633.7447
632.5665
631.1354
629.4465
627.5037
625.32
622.9182
620.3308
617.5986
614.7699
611.8979
609.039
606.2491
603.581
601.0812
598.7844
637.3209
636.0637
635.6775
635.2057
634.8686
634.5987
634.4029
634.2699
634.1926
634.1628
634.1726
634.2142
634.2799
634.3624
634.4551
634.5517
634.6467
634.7356
634.8144
634.8802
634.9311
634.966
634.9851
634.9891
634.98
634.9607
634.9347
634.9063
634.8806
634.8626
634.8577
634.871
634.9071
634.9695
635.0604
635.1801
635.3264
635.4943
635.6756
635.8585
636.0273
636.1627
636.2416
636.2379
636.123
635.8666
635.4382
634.8087
633.9514
632.8444
631.4721
629.8267
627.9099
625.7336
623.3207
620.7052
617.9314
615.0531
612.1311
609.2283
641.047
639.1184
638.3811
637.492
636.7678
636.1245
635.578
635.1196
634.7453
634.4492
634.225
634.0657
633.964
633.9121
633.9023
633.9269
633.9781
634.0487
634.1318
634.2211
634.311
634.3963
634.4728
634.5373
634.5871
634.6207
634.6375
634.638
634.6234
634.5962
634.5597
634.5182
634.4766
634.4407
634.4163
634.4096
634.4264
634.4716
634.5491
634.6609
634.8067
634.9832
635.1836
635.3974
635.6097
635.8013
635.9487
636.0248
635.9989
635.8383
635.5093
634.9791
634.2169
633.1969
631.8994
630.314
628.4407
626.2928
623.8988
621.3083
646.3508
643.8627
642.7882
641.4919
640.3612
639.3041
638.3455
637.4814
636.7135
636.0406
635.4607
634.9704
634.5655
634.2407
633.9898
633.8062
633.6824
633.6112
633.5846
633.595
633.6349
633.6969
633.7739
633.8595
633.9478
634.0333
634.1115
634.1783
634.2308
634.2668
634.2849
634.2849
634.2676
634.235
634.19
634.1368
634.0804
634.0269
633.9828
633.9553
633.9514
633.9778
634.04
634.1421
634.2858
634.4698
634.6893
634.9351
635.1935
635.4457
635.6681
635.832
635.9052
635.8519
635.6352
635.2184
634.5681
633.6572
632.4709
631.0207
652.7187
649.9332
648.6228
647.0335
645.5775
644.1654
642.8277
641.5666
640.3897
639.302
638.3075
637.4086
636.6062
635.9001
635.2883
634.768
634.335
633.9841
633.7094
633.5042
633.3616
633.2739
633.2336
633.233
633.2645
633.3208
633.3947
633.4796
633.5693
633.6581
633.7408
633.813
633.8711
633.9122
633.9343
633.9366
633.9192
633.8835
633.8321
633.7688
633.6989
633.6286
633.5653
633.517
633.4923
633.4995
633.5462
633.6386
633.7809
633.9741
634.2153
634.4971
634.8067
635.1257
635.4299
635.6898
635.8719
635.9407
635.8634
635.623
659.3396
656.6041
655.2271
653.5421
651.9324
650.3204
648.7371
647.1897
645.6904
644.2495
642.8767
641.5804
640.368
639.2452
638.2162
637.2839
636.4496
635.713
635.0725
634.5253
634.0673
633.6936
633.3982
633.1747
633.0159
632.9146
632.8632
632.8541
632.8796
632.9324
633.0053
633.0915
633.1845
633.2784
633.3676
633.4473
633.5132
633.5619
633.5907
633.5979
633.5832
633.5471
633.492
633.4213
633.3403
633.2557
633.1755
633.1088
633.0658
633.0565
633.0909
633.1774
633.3225
633.5294
633.7971
634.12
634.4873
634.8832
635.2888
635.687
665.3223
662.9702
661.7177
660.1641
658.6194
657.0226
655.3998
653.7595
652.1153
650.4799
648.8665
647.2876
645.7551
644.2805
642.8737
641.5436
640.2979
639.1427
638.0825
637.1202
636.2573
635.4937
634.8279
634.2571
633.7774
633.3839
633.0706
632.8313
632.6589
632.5461
632.4853
632.4691
632.4899
632.5403
632.6132
632.7017
632.7991
632.8994
632.9967
633.0858
633.1617
633.2205
633.2589
633.2745
633.266
633.2338
633.1793
633.1061
633.0192
632.9257
632.8344
632.7555
632.7004
632.681
632.7091
632.7957
632.9504
633.1806
633.4919
633.8869
669.9522
668.2057
667.2337
666.002
664.7245
663.3566
661.9151
660.4063
658.8407
657.2298
655.5859
653.922
652.2515
650.5882
648.9453
647.336
645.7727
644.2669
642.8292
641.4687
640.1933
639.0091
637.921
636.9321
636.0439
635.2564
634.5683
633.9768
633.4781
633.0672
632.7383
632.485
632.3004
632.1772
632.1081
632.0856
632.1022
632.1508
632.2243
632.3157
632.4186
632.5266
632.6337
632.7343
632.8232
632.8957
632.948
632.977
632.9809
632.9591
632.9129
632.8451
632.7609
632.6672
632.5734
632.4908
632.4331
632.4162
632.4583
632.5803
672.8874
671.8017
671.187
670.3771
669.4927
668.5025
667.4122
666.2231
664.9399
663.569
662.1181
660.5968
659.0157
657.3866
655.7223
654.0361
652.3418
650.6532
648.9841
647.3479
645.7572
644.2238
642.7586
641.3708
640.0685
638.8583
637.7452
636.7323
635.8214
635.0126
634.3045
633.6945
633.1786
632.752
632.4089
632.1429
631.9472
631.8146
631.7378
631.7097
631.7229
631.7704
631.8453
631.941
632.051
632.169
632.2889
632.4049
632.5116
632.6037
632.6768
632.7271
632.7519
632.7498
632.7211
632.6684
632.5973
632.5173
632.4429
632.3979
674.214
673.6852
673.4113
673.0125
672.5409
671.973
671.3056
670.5342
669.6569
668.6733
667.5848
666.3947
665.1078
663.7305
662.2711
660.7389
659.145
657.501
655.82
654.1153
652.401
650.6909
648.9991
647.3391
645.7239
644.1655
642.6751
641.2622
639.9354
638.7012
637.5649
636.5299
635.598
634.7696
634.0431
633.4161
632.8847
632.4439
632.0881
631.8108
631.6054
631.4647
631.3818
631.3495
631.3609
631.4093
631.4881
631.5911
631.7119
631.8445
631.9828
632.1209
632.2527
632.3725
632.4749
632.5553
632.6111
632.642
632.6526
632.6579
674.3504
674.176
674.153
674.0652
673.9291
673.7248
673.4441
673.0784
672.6207
672.0651
671.4068
670.6427
669.771
668.7914
667.7054
666.5162
665.2285
663.8488
662.3849
660.8464
659.2439
657.5894
655.8956
654.1762
652.4449
650.7162
649.0041
647.3225
645.6847
644.103
642.5888
641.1522
639.8018
638.5446
637.3862
636.3302
635.3786
634.5318
633.7886
633.1464
632.6013
632.1484
631.7821
631.4959
631.2834
631.1375
631.0515
631.0187
631.0324
631.0863
631.1744
631.2905
631.4287
631.5829
631.7469
631.9144
632.0799
632.239
632.3901
632.5384
673.8535
673.8164
673.9235
674.0049
674.0721
674.1055
674.0967
674.0357
673.9137
673.7218
673.4519
673.0964
672.6485
672.1024
671.4536
670.6986
669.8355
668.8639
667.7848
666.6013
665.3177
663.9401
662.4764
660.9357
659.3286
657.6669
655.9634
654.2317
652.4859
650.7403
649.0095
647.3074
645.6478
644.0434
642.5059
641.0459
639.6724
638.393
637.2132
636.1373
635.1674
634.304
633.5461
632.8912
632.3355
631.8741
631.5013
631.211
630.9965
630.8512
630.7684
630.7417
630.7648
630.8316
630.9362
631.0729
631.2369
631.4243
631.6331
631.8653
673.2176
673.1562
673.2862
673.4072
673.543
673.6741
673.7951
673.8974
673.9734
674.0147
674.013
673.9595
673.8457
673.6632
673.4038
673.0599
672.6246
672.0919
671.4568
670.7155
669.8659
668.9069
667.8395
666.6661
665.3907
664.0193
662.5592
661.0195
659.4107
657.7443
656.0332
654.2911
652.532
650.7707
649.0217
647.2997
645.6186
643.9916
642.4311
640.948
639.5519
638.2508
637.051
635.9568
634.9708
634.0939
633.3252
632.6624
632.1016
631.6381
631.2661
630.9794
630.7713
630.6349
630.5637
630.5514
630.5929
630.6845
630.8251
631.0176
672.7404
672.5822
672.6712
672.7504
672.8607
672.9824
673.1144
673.2513
673.3887
673.5209
673.6421
673.7456
673.8241
673.8698
673.8744
673.8295
673.7263
673.5564
673.3114
672.9833
672.565
672.0499
671.4327
670.7094
669.8771
668.9346
667.8823
666.7223
665.4584
664.096
662.6423
661.1061
659.4976
657.8285
656.1114
654.3601
652.5888
650.8125
649.0461
647.3045
645.6023
643.9532
642.3701
640.8647
639.4473
638.1265
636.9092
635.8002
634.8028
633.9181
633.1454
632.4824
631.9252
631.4687
631.1068
630.8332
630.6419
630.5281
630.4897
630.53
672.4957
672.248
672.2816
672.2963
672.3439
672.4058
672.4839
672.5762
672.6816
672.7982
672.9236
673.0546
673.1872
673.3166
673.4373
673.5427
673.6258
673.6787
673.6932
673.6605
673.5718
673.4183
673.1912
672.8824
672.4843
671.99
671.3938
670.6912
669.879
668.9557
667.9212
666.7772
665.5271
664.1761
662.731
661.2004
659.5944
657.9243
656.2029
654.4439
652.6619
650.8718
649.0891
647.3291
645.607
643.9373
642.3337
640.8086
639.3732
638.037
636.8074
635.6901
634.6885
633.804
633.0359
632.3818
631.8387
631.403
631.0728
630.8505
672.3994
672.1118
672.1099
672.0803
672.0764
672.0807
672.0965
672.1236
672.1633
672.2163
672.2833
672.3644
672.4592
672.5666
672.6847
672.8106
672.9406
673.07
673.1934
673.3043
673.3954
673.4588
673.4862
673.4686
673.3969
673.2622
673.0553
672.7679
672.392
671.9205
671.3472
670.6674
669.8774
668.9753
667.9607
666.8349
665.6009
664.2636
662.8296
661.3071
659.7059
658.0373
656.314
654.5498
652.7594
650.9581
649.1619
647.3866
645.6482
643.9619
642.3424
640.8029
639.3554
638.01
636.7751
635.6567
634.6598
633.7877
633.0439
632.4331
672.319
672.0402
672.0329
671.994
671.9723
671.9506
671.9316
671.9155
671.9039
671.8988
671.9022
671.9161
671.9424
671.9827
672.0381
672.1092
672.1958
672.297
672.4111
672.5353
672.6659
672.7985
672.9273
673.046
673.1473
673.2232
673.2651
673.264
673.2108
673.0961
672.9107
672.646
672.2936
671.8461
671.2973
670.6418
669.8758
668.9969
668.0044
666.8992
665.6841
664.3634
662.9435
661.4324
659.8396
658.1764
656.4555
654.6906
652.8968
651.0897
649.2856
647.501
645.7524
644.0558
642.4264
640.8786
639.426
638.0815
636.8575
635.7656
672.1702
671.9181
671.9248
671.901
671.8904
671.875
671.856
671.8326
671.8056
671.7762
671.7462
671.7178
671.6933
671.6752
671.6661
671.6682
671.6838
671.7147
671.762
671.8265
671.9082
672.0063
672.119
672.2438
672.3771
672.5144
672.6501
672.7778
672.8903
672.9794
673.0367
673.0529
673.0187
672.9248
672.7616
672.5203
672.1925
671.7704
671.2475
670.6181
669.8781
669.0249
668.0573
666.976
665.7834
664.4837
663.0828
661.5886
660.0104
658.3593
656.6479
654.8901
653.1006
651.2954
649.4909
647.7043
645.9533
644.2564
642.6331
641.1031
671.9578
671.7152
671.7352
671.728
671.7363
671.7406
671.7409
671.7347
671.7214
671.7008
671.6734
671.6401
671.6024
671.5621
671.5213
671.4823
671.4477
671.4201
671.4021
671.3961
671.4044
671.4288
671.4707
671.531
671.6097
671.7062
671.8189
671.9454
672.0823
672.225
672.3681
672.5053
672.6293
672.7321
672.805
672.8389
672.8244
672.7518
672.6117
672.395
672.0931
671.698
671.203
670.6022
669.8913
669.0674
668.1292
667.0771
665.9132
664.6413
663.2672
661.7983
660.2437
658.6139
656.9212
655.1793
653.4039
651.6128
649.8266
648.0694
671.7599
671.4889
671.5052
671.4958
671.5093
671.5237
671.5386
671.5505
671.5577
671.5587
671.5526
671.5388
671.5174
671.4885
671.4529
671.4117
671.3663
671.3186
671.2706
671.2247
671.1834
671.1493
671.1251
671.1133
671.1163
671.1359
671.1738
671.231
671.3076
671.4033
671.5167
671.6453
671.7861
671.9345
672.0853
672.2322
672.3681
672.4849
672.5741
672.6263
672.6322
672.5822
672.4665
672.2762
672.0024
671.6372
671.1737
670.606
669.9296
669.1414
668.2398
667.2249
666.0985
664.8638
663.526
662.0923
660.5719
658.9773
657.3249
655.6388
671.6759
671.3402
671.331
671.2937
671.2875
671.2879
671.2956
671.3065
671.3188
671.3305
671.3398
671.3454
671.346
671.3406
671.3284
671.3091
671.2824
671.2487
671.2085
671.1628
671.113
671.0608
671.0083
670.9578
670.9117
670.8729
670.844
670.8277
670.8263
670.8421
670.8767
670.9313
671.0064
671.1016
671.2159
671.3471
671.492
671.6465
671.8055
671.9627
672.1112
672.2429
672.3493
672.4214
672.4496
672.4244
672.3363
672.176
671.9351
671.6053
671.1798
670.6524
670.0185
669.2745
668.4184
667.4501
666.3717
665.1884
663.9102
662.5576
671.7731
671.3562
671.3065
671.2222
671.1746
671.1375
671.1125
671.0965
671.088
671.0853
671.087
671.0916
671.0975
671.1033
671.1075
671.1086
671.1055
671.0969
671.082
671.0603
671.0315
670.9957
670.9533
670.9053
670.853
670.798
670.7424
670.6885
670.6389
670.5963
670.5636
670.5434
670.5383
670.5508
670.5826
670.6352
670.7092
670.8045
670.9203
671.0546
671.2045
671.366
671.5342
671.7031
671.8658
672.0146
672.1411
672.2364
672.2911
672.2957
672.2409
672.1175
671.9166
671.63
671.2505
670.772
670.1903
669.5042
668.7172
667.8441
672.058
671.5683
671.4764
671.3415
671.2444
671.1578
671.0847
671.0229
670.9718
670.9308
670.8991
670.876
670.8605
670.8515
670.8477
670.8477
670.85
670.8529
670.855
670.8546
670.8504
670.8411
670.8257
670.8036
670.7743
670.7379
670.6948
670.6457
670.5919
670.5351
670.4773
670.4209
670.3685
670.3228
670.2869
670.2635
670.2555
670.2654
670.2952
670.3466
670.4204
670.517
670.6354
670.7743
670.9309
671.1016
671.2817
671.4656
671.6466
671.8173
671.9694
672.0941
672.1821
672.224
672.21
672.1311
671.9794
671.749
671.4384
671.0567
672.4794
671.9443
671.821
671.6469
671.508
671.3761
671.2555
671.1445
671.0434
670.9526
670.8723
670.8028
670.7441
670.6959
670.658
670.6294
670.6095
670.5969
670.5904
670.5885
670.5895
670.5917
670.5936
670.5934
670.5896
670.5809
670.5662
670.5447
670.516
670.4798
670.4367
670.3873
670.3328
670.275
670.2158
670.1577
670.1033
670.0555
670.0174
669.992
669.9822
669.9907
670.02
670.0718
670.1474
670.2474
670.3714
670.5183
670.6857
670.8703
671.0679
671.2729
671.4789
671.6785
671.8634
672.025
672.155
672.2463
672.2947
672.305
672.9567
672.409
672.2716
672.0786
671.9159
671.7555
671.6018
671.4532
671.3108
671.1753
671.0478
670.9291
670.8203
670.7221
670.635
670.5594
670.4953
670.4427
670.401
670.3695
670.3472
670.333
670.3255
670.3231
670.3242
670.3269
670.3295
670.3303
670.3278
670.3204
670.3071
670.2869
670.2592
670.2241
670.1817
670.1328
670.0786
670.0208
669.9613
669.9027
669.8476
669.7992
669.7606
669.7349
669.7255
669.7354
669.7671
669.823
669.9047
670.0132
670.1483
670.3094
670.4943
670.6999
670.922
671.1555
671.3948
671.635
671.8729
672.1115
673.414
672.8794
672.7441
672.552
672.3859
672.2178
672.0516
671.8858
671.7212
671.5585
671.3989
671.2438
671.0943
670.9519
670.8178
670.693
670.5786
670.4754
670.3838
670.3043
670.237
670.1815
670.1376
670.1045
670.0812
670.0664
670.0587
670.0566
670.0584
670.0621
670.066
670.0684
670.0676
670.0621
670.0507
670.0325
670.0069
669.9737
669.9331
669.886
669.8334
669.777
669.719
669.6619
669.6086
669.5623
669.5265
669.5047
669.5002
669.5166
669.5567
669.6232
669.718
669.8421
669.9957
670.1784
670.3892
670.6272
670.8929
671.1909
673.8054
673.2954
673.1722
672.9937
672.8388
672.6797
672.5194
672.356
672.1897
672.0211
671.8508
671.68
671.5097
671.3414
671.1763
671.0158
670.8613
670.7142
670.5756
670.4467
670.3286
670.2219
670.1273
670.0452
669.9756
669.9184
669.8732
669.8391
669.8152
669.8004
669.793
669.7917
669.7945
669.7997
669.8055
669.8101
669.8117
669.8089
669.8004
669.7853
669.7629
669.7331
669.6961
669.6526
669.604
669.5521
669.499
669.4475
669.4008
669.3621
669.3353
669.324
669.3318
669.3623
669.4184
669.5033
669.6198
669.7712
669.9622
670.201
674.1225
673.6351
673.5255
673.3639
673.2257
673.0833
672.9389
672.7903
672.637
672.4789
672.3163
672.1496
671.9795
671.8068
671.6325
671.4577
671.2836
671.1115
670.9428
670.7788
670.621
670.4705
670.3289
670.1971
670.0762
669.967
669.8702
669.7862
669.7149
669.6565
669.6103
669.5757
669.5517
669.5372
669.5307
669.5306
669.5352
669.5427
669.5511
669.5588
669.564
669.5652
669.5612
669.551
669.5342
669.5105
669.4804
669.4447
669.4049
669.3629
669.321
669.2821
669.2494
669.2262
669.2163
669.2236
669.2528
669.3095
669.4012
669.5396
674.3849
673.9099
673.8096
673.6605
673.5363
673.4093
673.2817
673.1505
673.0152
672.8751
672.7298
672.5794
672.4238
672.2632
672.0981
671.929
671.7565
671.5814
671.4048
671.2276
671.0512
670.8767
670.7055
670.5391
670.3787
670.2259
670.0818
669.9478
669.8247
669.7135
669.615
669.5294
669.457
669.3977
669.3511
669.3166
669.2932
669.2797
669.2749
669.277
669.2844
669.2953
669.3079
669.3205
669.3314
669.3393
669.3429
669.3416
669.3349
669.3228
669.3057
669.2847
669.2612
669.2369
669.2142
669.1962
669.1868
669.1917
669.2189
669.2821
674.6216
674.1482
674.0509
673.907
673.7898
673.6718
673.5551
673.4369
673.3162
673.1923
673.0646
672.9326
672.796
672.6545
672.508
672.3563
672.1996
672.038
671.8719
671.7017
671.528
671.3518
671.1738
670.9953
670.8172
670.6411
670.4681
670.2998
670.1375
669.9827
669.8367
669.7008
669.576
669.4634
669.3635
669.2771
669.2042
669.1448
669.0987
669.0652
669.0435
669.0324
669.0306
669.0367
669.0491
669.066
669.0859
669.1071
669.1282
669.1479
669.1653
669.1795
669.1902
669.1973
669.2013
669.2031
669.205
669.2111
669.2282
669.2696
674.8543
674.3767
674.2778
674.1331
674.0165
673.9005
673.7874
673.6745
673.5611
673.4466
673.3302
673.2116
673.0901
672.9654
672.8371
672.7046
672.5677
672.4261
672.2794
672.1277
671.971
671.8093
671.6431
671.4726
671.2986
671.1218
670.9431
670.7635
670.5844
670.4069
670.2326
670.0628
669.899
669.7427
669.5954
669.4582
669.3324
669.2191
669.1189
669.0326
668.9604
668.9023
668.8582
668.8275
668.8095
668.8034
668.8079
668.8217
668.8435
668.8716
668.9046
668.9411
668.9795
669.0187
669.0574
669.0952
669.1324
669.1712
669.2166
669.28
675.0889
674.6078
674.5062
674.3588
674.2397
674.1217
674.0072
673.8939
673.7812
673.6688
673.5561
673.443
673.329
673.2138
673.097
672.9781
672.8566
672.7321
672.6041
672.4722
672.3359
672.195
672.0491
671.8981
671.742
671.5808
671.4148
671.2445
671.0705
670.8934
670.7143
670.5342
670.3543
670.176
670.0008
669.8301
669.6655
669.5085
669.3606
669.2233
669.0977
668.985
668.8861
668.8017
668.7324
668.6782
668.6393
668.6153
668.6057
668.6097
668.6264
668.6545
668.6927
668.7396
668.7935
668.8531
668.9178
668.9886
669.0688
669.1681
675.3157
674.8366
674.7346
674.5866
674.4663
674.3466
674.23
674.1145
673.9997
673.8854
673.7716
673.6581
673.5448
673.4317
673.3185
673.2051
673.091
672.9759
672.8595
672.7412
672.6205
672.497
672.3701
672.2394
672.1043
671.9645
671.8197
671.6697
671.5145
671.3541
671.1887
671.0189
670.8451
670.6682
670.4891
670.309
670.129
669.9506
669.7754
669.6048
669.4405
669.2842
669.1374
669.0017
668.8785
668.7692
668.6748
668.5963
668.5344
668.4895
668.4618
668.4511
668.457
668.4788
668.5153
668.5657
668.6295
668.7072
668.8018
668.9215
675.517
675.047
674.9485
674.8044
674.6868
674.569
674.4534
674.3379
674.2225
674.107
673.9915
673.876
673.7608
673.6459
673.5315
673.4175
673.304
673.1908
673.0778
672.9647
672.8513
672.737
672.6216
672.5045
672.3851
672.2629
672.1374
672.0081
671.8745
671.7361
671.5927
671.444
671.29
671.1307
670.9664
670.7976
670.6247
670.4487
670.2704
670.0912
669.9122
669.7351
669.5613
669.3927
669.2309
669.0779
668.9355
668.8054
668.6892
668.5885
668.5047
668.4388
668.3916
668.3636
668.3549
668.3655
668.396
668.4477
668.5238
668.6326
675.6767
675.2208
675.1294
674.9934
674.883
674.7718
674.6618
674.551
674.4392
674.3263
674.2123
674.0974
673.982
673.8661
673.7501
673.6342
673.5187
673.4036
673.2892
673.1753
673.0621
672.9495
672.8372
672.7249
672.6125
672.4994
672.3852
672.2695
672.1516
672.031
671.9072
671.7796
671.6478
671.5112
671.3696
671.2227
671.0705
670.9131
670.7506
670.5837
670.4128
670.2389
670.063
669.8864
669.7107
669.5374
669.3683
669.2055
669.0509
668.9065
668.7744
668.6565
668.5547
668.4704
668.405
668.3598
668.3365
668.3376
668.3676
668.4356
675.787
675.3463
675.2636
675.1381
675.0378
674.9365
674.836
674.7342
674.6306
674.5251
674.4175
674.308
674.1968
674.0841
673.9701
673.8551
673.7395
673.6236
673.5076
673.3918
673.2764
673.1616
673.0475
672.9341
672.8216
672.7096
672.5982
672.487
672.3758
672.2641
672.1515
672.0374
671.9213
671.8028
671.6811
671.5557
671.4262
671.2921
671.1531
671.0089
670.8596
670.7053
670.5462
670.3828
670.2161
670.0469
669.8766
669.7066
669.5385
669.3743
669.216
669.0656
668.9254
668.7974
668.6836
668.5862
668.5078
668.4521
668.4249
668.4367
675.8509
675.4228
675.348
675.2324
675.1424
675.0519
674.9625
674.8718
674.7794
674.6846
674.5874
674.4877
674.3854
674.2807
674.1738
674.0647
673.9538
673.8414
673.7276
673.6129
673.4976
673.3819
673.2661
673.1506
673.0356
672.9212
672.8076
672.6949
672.5831
672.4722
672.3619
672.252
672.1423
672.0323
671.9216
671.8098
671.6961
671.5802
671.4614
671.3392
671.2132
671.0828
670.9479
670.8082
670.664
670.5153
670.3627
670.2069
670.0488
669.8896
669.7307
669.5739
669.4208
669.2734
669.1338
669.0041
668.8874
668.788
668.7124
668.6723
675.8809
675.4597
675.3901
675.2815
675.1995
675.118
675.0385
674.9583
674.877
674.7938
674.7084
674.6205
674.5301
674.4369
674.3409
674.2423
674.1409
674.0371
673.9309
673.8225
673.7121
673.6002
673.4868
673.3725
673.2575
673.1421
673.0267
672.9116
672.797
672.6832
672.5703
672.4585
672.3478
672.2381
672.1294
672.0214
671.9137
671.8062
671.6983
671.5895
671.4794
671.3674
671.253
671.1358
671.0153
670.8913
670.7637
670.6324
670.4977
670.3599
670.2198
670.0781
669.9359
669.7944
669.655
669.5194
669.3905
669.2722
669.1712
669.0995
675.8943
675.4736
675.4054
675.2996
675.2217
675.1454
675.0723
674.9997
674.9269
674.8532
674.7781
674.7014
674.6225
674.5415
674.4579
674.3717
674.2827
674.1909
674.0963
673.9988
673.8985
673.7955
673.6901
673.5823
673.4726
673.3611
673.2482
673.1343
673.0197
672.9047
672.7898
672.6753
672.5615
672.4486
672.3368
672.2264
672.1173
672.0096
671.9032
671.7979
671.6935
671.5897
671.486
671.3822
671.2778
671.1723
671.0656
670.9571
670.8468
670.7344
670.62
670.5037
670.3858
670.2668
670.147
670.0276
669.9105
669.7989
669.699
669.6225
675.9077
675.482
675.4119
675.3047
675.2266
675.1513
675.0803
675.0109
674.9424
674.8743
674.8059
674.737
674.667
674.5958
674.5229
674.4482
674.3713
674.2921
674.2102
674.1256
674.0381
673.9477
673.8543
673.7578
673.6585
673.5564
673.4517
673.3446
673.2355
673.1246
673.0123
672.8989
672.785
672.6707
672.5567
672.4432
672.3307
672.2193
672.1095
672.0013
671.895
671.7905
671.6879
671.5871
671.4881
671.3906
671.2944
671.1994
671.1052
671.0116
670.9184
670.8254
670.7325
670.6396
670.5464
670.4533
670.3615
670.2733
670.1941
670.1348
675.9332
675.4992
675.4248
675.3132
675.2316
675.1536
675.0807
675.0104
674.942
674.875
674.8088
674.7432
674.6778
674.6122
674.5462
674.4794
674.4116
674.3424
674.2715
674.1986
674.1235
674.0459
673.9657
673.8825
673.7964
673.7072
673.6149
673.5195
673.4212
673.32
673.2161
673.1099
673.0016
672.8915
672.7801
672.6678
672.5549
672.4421
672.3297
672.2181
672.1079
671.9993
671.8928
671.7887
671.6872
671.5886
671.4931
671.4007
671.3115
671.2256
671.1429
671.0633
670.9867
670.9128
670.8412
670.772
670.7058
670.6444
670.5925
670.5602
675.9757
675.5329
675.4534
675.3361
675.2493
675.1664
675.0892
675.015
674.9433
674.8737
674.8057
674.7392
674.6738
674.6093
674.5455
674.482
674.4187
674.3552
674.2911
674.2262
674.1602
674.0928
674.0236
673.9523
673.8788
673.8027
673.7239
673.6422
673.5574
673.4695