/*--------------------------------*- C++ -*----------------------------------*\
| =========                 |                                                 |
| \\      /  F ield         | OpenFOAM: The Open Source CFD Toolbox           |
|  \\    /   O peration     | Version:  2312                                  |
|   \\  /    A nd           | Website:  www.openfoam.com                      |
|    \\/     M anipulation  |                                                 |
\*---------------------------------------------------------------------------*/
FoamFile
{
    version     2.0;
    format      ascii;
    arch        "LSB;label=32;scalar=64";
    class       volScalarField;
    location    "3450";
    object      k;
}
// * * * * * * * * * * * * * * * * * * * * * * * * * * * * * * * * * * * * * //

dimensions      [0 2 -2 0 0 0 0];

internalField   nonuniform List<scalar> 
12000
(
0.002484084
0.005148031
0.00613736
0.007155943
0.00795239
0.008696346
0.009359592
0.009959862
0.01047456
0.01094928
0.01139164
0.01180434
0.01217225
0.01248904
0.01278541
0.01306314
0.01332244
0.01353432
0.01372229
0.01389138
0.01405116
0.01417826
0.01427843
0.01435874
0.01442978
0.014482
0.01451271
0.01452043
0.01452141
0.01450883
0.01448405
0.01443703
0.01438238
0.01430748
0.01419035
0.01414099
0.01407841
0.01397842
0.01373193
0.01343095
0.01326273
0.01319714
0.01298759
0.01251841
0.01198371
0.01172889
0.01174282
0.01153389
0.01048983
0.009819193
0.009732434
0.009637523
0.008754089
0.007677367
0.007266629
0.006651994
0.005889565
0.00499669
0.004322254
0.004155112
0.002613349
0.006257825
0.007237612
0.008400543
0.009380202
0.0103487
0.01147175
0.01297506
0.01447136
0.01551879
0.0165319
0.01765182
0.01906753
0.02025954
0.02106011
0.02179645
0.02287757
0.02397414
0.02477899
0.02534095
0.02607074
0.02692215
0.02764338
0.02815193
0.02863103
0.02919419
0.02974507
0.03018051
0.03050617
0.03082928
0.03118371
0.03150995
0.03178672
0.03200593
0.0321448
0.03232611
0.03250386
0.032633
0.03269433
0.03268874
0.03269293
0.03260946
0.03247702
0.03240621
0.03221942
0.03199163
0.03100186
0.03020398
0.02962288
0.0291114
0.02787531
0.02555414
0.02403379
0.02283276
0.02110982
0.01729726
0.01398921
0.01073624
0.007617269
0.007440527
0.003790139
0.00802258
0.009675619
0.01145589
0.01352054
0.0154655
0.01745368
0.01933093
0.02117272
0.02259616
0.02381146
0.02506851
0.02626444
0.02739452
0.02834854
0.02918114
0.02998371
0.03075945
0.03145359
0.03204747
0.03259186
0.03313194
0.03365565
0.03412722
0.03454401
0.03493691
0.03532753
0.03570618
0.03605229
0.03636397
0.0366692
0.03694844
0.03725699
0.03758814
0.03786613
0.03811303
0.03836884
0.03866849
0.0389954
0.03927522
0.03945736
0.03961584
0.03982618
0.04007218
0.04017567
0.04017611
0.04004217
0.03989937
0.03961473
0.03902908
0.03825476
0.03728411
0.03585408
0.0338115
0.03124715
0.02805894
0.02374283
0.01783743
0.01077561
0.0099547
0.004648487
0.008400314
0.01064872
0.01306881
0.01574242
0.01823768
0.02053129
0.0225302
0.02426763
0.02596315
0.02736719
0.02852686
0.02949819
0.03032901
0.03106471
0.03170485
0.03229062
0.03283945
0.03332311
0.0337571
0.03415914
0.03455523
0.03493926
0.03530357
0.03564823
0.03597977
0.03630328
0.0366183
0.03692141
0.03721049
0.03744998
0.0376967
0.03798946
0.03827454
0.03854934
0.03881969
0.03909699
0.03938722
0.03968655
0.03998521
0.040274
0.04053292
0.04077075
0.04101661
0.04123219
0.04138428
0.0414276
0.04139856
0.04122309
0.04088028
0.04036736
0.03953411
0.03812338
0.03607214
0.03342877
0.03014271
0.02608116
0.02082868
0.01386797
0.01164424
0.005411104
0.008742405
0.011525
0.01441503
0.01736616
0.02000986
0.02228783
0.02420855
0.02580493
0.02719024
0.02837161
0.02935609
0.03016732
0.03076616
0.03129235
0.03177469
0.0322424
0.03266651
0.03301139
0.03331876
0.03361965
0.03392521
0.0342233
0.0345106
0.03479085
0.03506843
0.03534728
0.03563017
0.03591895
0.03618188
0.0364459
0.03675406
0.03708226
0.03742752
0.03778788
0.03816267
0.03856344
0.03899156
0.03944345
0.03992523
0.04042719
0.04093566
0.04142609
0.04190973
0.0423822
0.04281525
0.04317789
0.04343683
0.04357332
0.04359323
0.04323492
0.04230755
0.04093685
0.0391598
0.03687754
0.03380879
0.02957453
0.02370554
0.01571369
0.01286534
0.006117105
0.008925715
0.0120202
0.01513547
0.01816393
0.0208107
0.02302257
0.02482783
0.02627458
0.02743215
0.02838313
0.02920178
0.02989803
0.03043778
0.0308059
0.0310879
0.03129057
0.03145614
0.03164146
0.03184122
0.03205771
0.03228319
0.03251689
0.03276075
0.03301754
0.03328964
0.03357887
0.03388636
0.03421253
0.03455749
0.03492642
0.03532491
0.03575539
0.03622212
0.03672804
0.03725185
0.0378105
0.03842465
0.03907826
0.03975426
0.04045672
0.0411848
0.04192641
0.0426491
0.04334525
0.0439979
0.04456201
0.04503832
0.04533466
0.04534387
0.04491959
0.04409097
0.04281892
0.04098788
0.0384608
0.03510306
0.03072648
0.02496254
0.01719431
0.01374721
0.006670159
0.009031506
0.01229225
0.01546478
0.01842928
0.02097398
0.02308809
0.02481865
0.02621024
0.02726856
0.02806084
0.02861878
0.02904772
0.02940793
0.02967289
0.02982488
0.02992782
0.03001497
0.03011315
0.03023269
0.03037837
0.03055176
0.03075418
0.03098738
0.03125311
0.03155289
0.03188804
0.03225982
0.0326696
0.03311826
0.03360856
0.03414347
0.03471493
0.0353313
0.03600417
0.03672834
0.03749376
0.03830237
0.03915652
0.04005373
0.0409867
0.04194545
0.04291561
0.04387799
0.04481123
0.04567771
0.04646438
0.04709457
0.04741648
0.04743265
0.04707881
0.04629326
0.04499442
0.04310401
0.04052881
0.03712546
0.03265007
0.02665101
0.0184103
0.01443062
0.007314627
0.009112537
0.0124076
0.01552532
0.01842382
0.02092696
0.02297845
0.02459489
0.02582087
0.02674369
0.02741139
0.02787287
0.02818326
0.02838426
0.02853797
0.02864969
0.02870797
0.02875267
0.0288078
0.02889026
0.02900845
0.02916749
0.02937082
0.02962103
0.02991998
0.03026907
0.0306694
0.03112196
0.03162776
0.03218769
0.03280304
0.03347204
0.03419627
0.03497702
0.03581386
0.03670656
0.03765508
0.03865709
0.03970887
0.04080453
0.0419354
0.04308927
0.0442494
0.0453938
0.04649103
0.04751405
0.04839535
0.04905831
0.04944765
0.0494937
0.0491239
0.04825272
0.04680538
0.04470965
0.04188371
0.03821039
0.03348832
0.02733057
0.01910927
0.01485562
0.007829288
0.009140239
0.0124197
0.01549032
0.01828603
0.02068144
0.02263443
0.02416241
0.02531855
0.02616885
0.02677147
0.02717895
0.02743965
0.02759315
0.0276778
0.02773986
0.02780133
0.02785197
0.02790982
0.02799443
0.02811906
0.02829299
0.02852199
0.0288096
0.02915794
0.02956827
0.03004148
0.03057828
0.03117903
0.03184334
0.03257108
0.03336456
0.03422438
0.0351473
0.03613253
0.0371789
0.03828421
0.03944493
0.04065585
0.04190947
0.04319532
0.04449919
0.04580194
0.04707857
0.04829418
0.04940533
0.05036017
0.05108506
0.05150177
0.05153501
0.05109398
0.05009642
0.04848336
0.0462099
0.04322013
0.03941002
0.03457488
0.02829866
0.01987169
0.01523397
0.008264852
0.009174205
0.012415
0.01538089
0.0180497
0.02033084
0.02220014
0.02367992
0.02481246
0.02565159
0.0262499
0.02665657
0.02691719
0.02707327
0.02715857
0.02720844
0.02725443
0.02732158
0.02741533
0.02754014
0.02770827
0.027929
0.02820897
0.02855249
0.02896228
0.02943936
0.02998401
0.0305958
0.03127717
0.03203206
0.03285857
0.03375908
0.03473113
0.03576851
0.03687002
0.03803362
0.03925615
0.040533
0.04185765
0.04322109
0.04461113
0.04601157
0.0474014
0.04875356
0.05003886
0.05120885
0.05220223
0.05294347
0.05332882
0.05330231
0.05274682
0.05158623
0.04977962
0.04730404
0.0441183
0.04012342
0.03511683
0.02869668
0.02020861
0.01542033
0.008668723
0.009169496
0.01235116
0.01522374
0.01779036
0.01998875
0.02179815
0.02323892
0.02435088
0.02518234
0.02578745
0.02621729
0.02651786
0.02672587
0.02687336
0.02698692
0.02708982
0.02720287
0.02734118
0.02751417
0.02772616
0.02799203
0.02832338
0.02872246
0.02919198
0.02973452
0.03035183
0.03104524
0.03181242
0.03264933
0.0335562
0.03453637
0.0355885
0.03670629
0.03788749
0.03912916
0.04042727
0.04177639
0.04316922
0.04459605
0.04604401
0.04749619
0.04893058
0.05031887
0.05162504
0.05280074
0.05378338
0.05450169
0.05485392
0.05474812
0.05406131
0.05272871
0.05076426
0.04816144
0.04487023
0.0407881
0.03570666
0.02921429
0.02063151
0.01560369
0.009040294
0.009168065
0.01228767
0.01503621
0.01747812
0.01958694
0.02134752
0.02277238
0.0239019
0.02478212
0.02545535
0.02596093
0.02633533
0.02661353
0.02682682
0.02699825
0.02715469
0.02731898
0.02751121
0.02774874
0.02804315
0.02839476
0.02880345
0.02927551
0.0298142
0.03042258
0.03110247
0.03185401
0.03267662
0.03356938
0.0345315
0.03556441
0.03666674
0.0378333
0.039061
0.04034599
0.04168356
0.04306765
0.04449044
0.04594186
0.04740884
0.04887438
0.05031626
0.05170561
0.05300226
0.05415858
0.05511425
0.05579662
0.0561027
0.05591681
0.05511676
0.05365027
0.05154067
0.0488144
0.04541766
0.04122808
0.03603724
0.02944159
0.02078722
0.0156748
0.009334398
0.009131926
0.01219322
0.01485737
0.0172086
0.01924949
0.02097492
0.02240165
0.02355897
0.02448108
0.02520076
0.02576008
0.02619824
0.0265502
0.02684505
0.02710864
0.02735885
0.02761651
0.02789973
0.02822027
0.02858538
0.02900005
0.02947188
0.03000632
0.03060631
0.03127286
0.03200725
0.03281021
0.03368144
0.03461982
0.03562432
0.03669434
0.03782835
0.03902317
0.04027517
0.04157981
0.04293188
0.04432495
0.04575097
0.04719972
0.04865809
0.05010915
0.05153089
0.05289444
0.05416237
0.0552919
0.05622678
0.05688054
0.05713588
0.05687597
0.05598635
0.05440996
0.05217158
0.04933593
0.04585192
0.04158705
0.036335
0.02969104
0.02099469
0.01574602
0.009574679
0.009116044
0.01212046
0.01470783
0.01697354
0.01895164
0.02064617
0.02206924
0.02324135
0.02419294
0.02496186
0.02558217
0.0260897
0.02651949
0.02689675
0.02724475
0.02758367
0.02793098
0.02830043
0.02870425
0.02915205
0.02965074
0.03020341
0.03080966
0.03147025
0.0321905
0.0329733
0.03381835
0.03472642
0.03569765
0.0367308
0.03782419
0.03897652
0.04018542
0.04144635
0.04275442
0.04410413
0.04548892
0.0469007
0.04832936
0.04976196
0.05118172
0.05256681
0.05388964
0.05512552
0.05624198
0.05716408
0.05778922
0.05799715
0.05766695
0.05669106
0.05501426
0.0526672
0.04973312
0.04616726
0.04183077
0.0365126
0.02980622
0.0210546
0.01575876
0.009752766
0.009093219
0.01203197
0.01455059
0.01674201
0.01866127
0.02032263
0.02173835
0.02292765
0.02391636
0.02473394
0.02541157
0.02598364
0.02648425
0.02693864
0.02736877
0.02779293
0.02822625
0.02868178
0.02916986
0.02969896
0.03027575
0.03090405
0.03158486
0.03231735
0.03309933
0.03392893
0.03481116
0.03575202
0.03674916
0.0378013
0.0389073
0.0400653
0.04127514
0.04253308
0.04383192
0.0451664
0.04652998
0.04791466
0.04931055
0.05070515
0.05208276
0.0534289
0.05472966
0.05595556
0.05705277
0.05794536
0.05853445
0.05869955
0.05831182
0.05726316
0.05550421
0.05306684
0.05003649
0.04639465
0.04200669
0.03664994
0.0299151
0.02114091
0.01576592
0.009884429
0.009082333
0.01195358
0.01440732
0.01653015
0.0183944
0.02002117
0.02142419
0.02262107
0.02363461
0.02449137
0.02522028
0.02585313
0.02642231
0.02695199
0.027461
0.02796452
0.02847715
0.02901198
0.02957864
0.03018502
0.03083698
0.03153746
0.03228673
0.0330834
0.03392554
0.0348117
0.03574141
0.0367139
0.03773006
0.03879354
0.03990535
0.04106242
0.04226568
0.04351211
0.04479364
0.04610495
0.04743967
0.04879014
0.0501471
0.05150226
0.0528497
0.05417788
0.05546378
0.05667118
0.05774468
0.05860535
0.05915195
0.05926741
0.05883029
0.05772693
0.05589688
0.05337321
0.05026373
0.04656313
0.04213054
0.03673317
0.0299592
0.02114867
0.01575566
0.009972165
0.00906084
0.01188066
0.01427498
0.01633384
0.01814379
0.01973392
0.02112036
0.0223202
0.02335423
0.02424644
0.02502299
0.02571142
0.02634077
0.02693735
0.02751642
0.02809267
0.02867814
0.02928429
0.02992237
0.03060039
0.03132281
0.03209126
0.03290467
0.03376018
0.03465449
0.03558543
0.03655252
0.03755642
0.03859816
0.03967803
0.0407945
0.04194472
0.04313281
0.04436028
0.04561962
0.04690542
0.04821124
0.04953134
0.05086038
0.05219255
0.05351992
0.0548292
0.05609712
0.05728503
0.05833438
0.0591644
0.05967299
0.05974211
0.05925121
0.05808869
0.05620179
0.05362068
0.05044748
0.04669621
0.04222939
0.03680404
0.03000421
0.02116654
0.0157371
0.01003102
0.009057582
0.0118192
0.01415244
0.01614912
0.01790548
0.0194564
0.02082136
0.02201809
0.02306641
0.02398844
0.02480771
0.0255478
0.02623226
0.02688488
0.02752413
0.02816574
0.02881781
0.02949152
0.03019677
0.03094087
0.03172815
0.03255965
0.03343305
0.03434386
0.03528715
0.0362593
0.037259
0.03828717
0.03934592
0.04043663
0.04155747
0.04270076
0.04386971
0.04507752
0.04632157
0.04758983
0.04887479
0.05017185
0.05147756
0.0527878
0.05409536
0.05538633
0.05663575
0.05780295
0.05882743
0.05962696
0.06009901
0.06012641
0.05959038
0.05837639
0.05643045
0.05378674
0.05055661
0.04676407
0.04226759
0.03682063
0.03000481
0.02115822
0.01570217
0.01006914
0.009061047
0.01177627
0.01404459
0.01597646
0.01767583
0.01918374
0.02052244
0.02171056
0.02276734
0.02371334
0.02456981
0.0253576
0.02609588
0.02680251
0.02749629
0.02819157
0.02890257
0.02963608
0.03040082
0.03120451
0.03205157
0.03294213
0.03387244
0.03483602
0.03582592
0.03683697
0.03786714
0.03891742
0.03999055
0.04108898
0.04221185
0.04335109
0.04450757
0.04569707
0.04692366
0.04817566
0.04944277
0.05072033
0.05200598
0.05329668
0.0545857
0.0558589
0.0570904
0.05823793
0.05923918
0.06001048
0.06044859
0.06043657
0.05985654
0.05859707
0.05660667
0.05392008
0.05064913
0.04682536
0.04230566
0.03683475
0.03000802
0.02115258
0.0156792
0.01009352
0.009077449
0.01174258
0.01394549
0.01581152
0.01745226
0.01891402
0.02022203
0.02139591
0.02245447
0.02341689
0.0243025
0.02513005
0.02591683
0.02667792
0.02742637
0.0281744
0.02893448
0.02972129
0.03054076
0.03139899
0.03230048
0.03324567
0.0342298
0.03524429
0.03627969
0.03732886
0.03838871
0.03946011
0.04054627
0.04165039
0.04277331
0.04391237
0.04506392
0.04623751
0.04744574
0.04868176
0.04993279
0.05119348
0.05246189
0.05373573
0.05500873
0.0562666
0.05748258
0.05861299
0.05959397
0.06034057
0.06074897
0.0607027
0.06008197
0.05878041
0.05674597
0.05401639
0.05070782
0.04685568
0.04231607
0.03683131
0.02998866
0.02112241
0.0156362
0.01011366
0.009126582
0.01174015
0.01386026
0.01565327
0.01723172
0.01864426
0.01991779
0.02107242
0.02212649
0.02309802
0.02400475
0.02486365
0.02569042
0.02649899
0.02730124
0.02810702
0.02892477
0.02976138
0.03062774
0.03153464
0.03248594
0.03348178
0.03451676
0.03558036
0.03666042
0.03774736
0.03883675
0.03992933
0.04102897
0.0421401
0.04326502
0.04440264
0.04554923
0.0467131
0.04790778
0.04912886
0.05036486
0.05161051
0.0528639
0.05412299
0.05538169
0.05662555
0.05782706
0.05894133
0.05990306
0.06062609
0.06100601
0.06092683
0.06026829
0.05892845
0.05685651
0.0540923
0.05075357
0.04687894
0.04232216
0.03682703
0.02997808
0.02110939
0.01561484
0.01013374
0.009193587
0.01174354
0.01378677
0.01550503
0.01701849
0.0183785
0.01961336
0.02074361
0.02178727
0.02276145
0.02368265
0.0245664
0.02542695
0.02627684
0.02712678
0.02798561
0.02886042
0.02975676
0.03067888
0.03163198
0.03262561
0.0336663
0.03474845
0.03585918
0.03698304
0.03810753
0.03922654
0.0403405
0.04145405
0.04257292
0.0437011
0.04483893
0.04598279
0.04713986
0.04832368
0.04953174
0.05075418
0.05198615
0.05322588
0.05447148
0.05571697
0.05694768
0.05813547
0.05923433
0.06017767
0.06087824
0.0612311
0.06112068
0.0604274
0.05905121
0.0569437
0.05414741
0.05078245
0.04688843
0.04231653
0.0368076
0.0299475
0.02107238
0.01557262
0.01015748
0.009290154
0.01177416
0.01372694
0.01536474
0.01680971
0.01811417
0.01930703
0.02040904
0.02143794
0.02241019
0.02334127
0.02424558
0.02513608
0.02602403
0.02691884
0.02782799
0.02875717
0.02971086
0.03069125
0.03169995
0.03273858
0.03381691
0.0349397
0.03609376
0.03725978
0.03842127
0.03956983
0.04070538
0.04183328
0.04296061
0.04409292
0.04523193
0.04637483
0.04752766
0.04870288
0.04989954
0.05110968
0.05232905
0.05355605
0.05478894
0.05602181
0.05723984
0.05841425
0.05949807
0.06042354
0.06110241
0.0614293
0.06128908
0.06056315
0.05915358
0.05701445
0.0541906
0.0508034
0.04689287
0.04231089
0.03679514
0.0299315
0.02105683
0.01555476
0.01019338
0.009419603
0.01182488
0.01368239
0.01523539
0.0166084
0.01785417
0.01900193
0.02007251
0.02108342
0.02205057
0.02298863
0.02391098
0.02482942
0.02575394
0.02669261
0.02765146
0.02863481
0.02964501
0.03068258
0.03174626
0.03283452
0.03395158
0.03510772
0.03629871
0.03750304
0.03869959
0.03987674
0.04103341
0.04217555
0.04331154
0.04444849
0.04558966
0.04673312
0.04788354
0.04905175
0.05023826
0.05143741
0.05264507
0.05385997
0.05508063
0.0563013
0.05750696
0.05866832
0.05973748
0.0606456
0.06130358
0.06160567
0.06143715
0.06068047
0.05923969
0.05707136
0.05422275
0.05081665
0.04689219
0.0422984
0.03677257
0.02990041
0.02102114
0.01551809
0.0102317
0.009569545
0.01189758
0.01365139
0.01511579
0.01641402
0.01759898
0.01869993
0.01973764
0.02072937
0.02169052
0.02263498
0.02357509
0.02452142
0.02548253
0.02646495
0.02747307
0.02850943
0.02957422
0.03066653
0.03178403
0.03292356
0.03408146
0.03526739
0.03648951
0.03772683
0.03895456
0.04015774
0.04133399
0.04248954
0.04363373
0.04477486
0.04591789
0.04706446
0.04821504
0.04937551
0.05055187
0.05174104
0.05293782
0.05414109
0.05534982
0.05655848
0.05775198
0.05890054
0.05995539
0.06084675
0.06148469
0.06176318
0.06156793
0.06078256
0.05931308
0.05711848
0.05424831
0.05082638
0.0468909
0.04228954
0.03675886
0.02988464
0.02100712
0.01550492
0.01027923
0.00974855
0.0119905
0.01364286
0.01501088
0.01623062
0.01735259
0.01840555
0.01940998
0.02038275
0.02133861
0.02229058
0.02324982
0.02422544
0.02522434
0.0262511
0.02730808
0.02839601
0.02951374
0.03065868
0.03182639
0.03301283
0.03421276
0.03543121
0.03667812
0.03794164
0.03919527
0.04042067
0.04161387
0.04278121
0.04393294
0.04507839
0.04622362
0.04737113
0.04852086
0.04967695
0.05084524
0.05202408
0.05320958
0.05440119
0.05559814
0.05679503
0.05797667
0.05911281
0.06015392
0.06102928
0.06164824
0.06190451
0.06168417
0.0608721
0.05937609
0.05715748
0.0542681
0.05083258
0.04688692
0.04227711
0.03673919
0.02985873
0.02097716
0.01547578
0.01034337
0.009948265
0.01210865
0.01364467
0.01491675
0.0160563
0.0171149
0.0181206
0.01909322
0.02004898
0.02100177
0.02196348
0.02294388
0.0239504
0.02498809
0.02605959
0.02716571
0.02830474
0.02947353
0.03066735
0.03188278
0.03311327
0.03435317
0.03560266
0.03687158
0.03815629
0.03943027
0.04067305
0.04187952
0.04305613
0.04421381
0.04536269
0.04650954
0.04765726
0.04880556
0.0499576
0.05111845
0.0522873
0.05346166
0.05464168
0.055827
0.05701241
0.05818261
0.05930692
0.06033504
0.06119533
0.06179646
0.06203197
0.06178827
0.06095158
0.05943142
0.05719141
0.05428548
0.05083887
0.04688534
0.04226999
0.03672864
0.02984669
0.02096663
0.01546776
0.01041276
0.010164
0.01223577
0.01366258
0.0148373
0.01589639
0.01689187
0.0178516
0.01879471
0.01973646
0.02068956
0.02166443
0.02266913
0.02370922
0.02478775
0.02590543
0.02706057
0.0282494
0.02946745
0.03070737
0.03196582
0.03323589
0.0345111
0.03578796
0.03707605
0.03837717
0.0396655
0.04091992
0.04213505
0.04331765
0.04447912
0.04562995
0.04677707
0.04792369
0.04906999
0.05021838
0.05137235
0.05253142
0.05369476
0.0548634
0.05603743
0.05721182
0.05837122
0.05948449
0.06050052
0.06134684
0.06193149
0.06214785
0.06188253
0.06102309
0.05948071
0.05722125
0.05430062
0.05084474
0.04688472
0.04226249
0.03671532
0.0298284
0.02094474
0.01544718
0.01050739
0.01039526
0.01237756
0.01369824
0.01477095
0.01574971
0.01668446
0.01760184
0.0185198
0.01945222
0.02041027
0.02140257
0.02243519
0.02351152
0.02463233
0.02579628
0.02699895
0.02823541
0.02949645
0.03078121
0.03207944
0.03338441
0.0346895
0.0359895
0.03729378
0.03860667
0.03990342
0.04116355
0.04238237
0.0435673
0.04473015
0.04588135
0.04702761
0.04817211
0.0493157
0.05046029
0.0516076
0.05275735
0.05391021
0.05506796
0.05623121
0.05739523
0.05854459
0.05964771
0.06065266
0.06148602
0.06205523
0.06225358
0.06196804
0.06108769
0.05952521
0.05724847
0.0543154
0.05085201
0.04688648
0.04226082
0.0367104
0.02982204
0.02093838
0.01544412
0.01059607
0.01062527
0.01251975
0.01374341
0.01471771
0.01561946
0.01649733
0.01737685
0.01827465
0.01920298
0.02017108
0.02118542
0.02224965
0.02336471
0.02452896
0.02573822
0.02698671
0.0282638
0.02956921
0.03089187
0.03222411
0.03355855
0.0348883
0.03620713
0.03752401
0.03884416
0.04014388
0.04140427
0.04262211
0.04380581
0.04496743
0.04611734
0.04726195
0.04840393
0.04954425
0.05068459
0.05182545
0.05296654
0.05410953
0.05525694
0.05640994
0.05756416
0.05870417
0.05979784
0.06079236
0.06161359
0.06216878
0.06235113
0.06204727
0.06114764
0.05956688
0.05727524
0.05433165
0.05086168
0.04689086
0.04226064
0.03670686
0.02981194
0.02092447
0.01543276
0.01070731
0.01087126
0.01267799
0.01380402
0.01468016
0.015507
0.01633234
0.01717973
0.01806361
0.01899397
0.0199776
0.02101836
0.0221175
0.02327339
0.02448188
0.02573521
0.02702181
0.02834216
0.02968425
0.03103967
0.03240024
0.03375827
0.03510672
0.03644
0.03776659
0.0390899
0.04038732
0.04164259
0.04285488
0.04403385
0.04519205
0.04633972
0.04748199
0.04862057
0.04975674
0.05089193
0.05202663
0.0531604
0.05429446
0.05543205
0.05657534
0.05772047
0.05885202
0.05993745
0.06092333
0.06173457
0.06227692
0.06244319
0.06212183
0.0612051
0.05960837
0.05730276
0.05434915
0.05087405
0.04689944
0.04226458
0.03670647
0.02981031
0.02092167
0.01543069
0.01081633
0.01111141
0.01283102
0.0138654
0.01465264
0.01541387
0.01619419
0.01701614
0.01789246
0.01883077
0.01983518
0.02090673
0.02204338
0.02324025
0.02448659
0.02577682
0.0271073
0.02846462
0.02983954
0.03122315
0.03260695
0.03398313
0.03534472
0.03668786
0.03802034
0.03934219
0.04063233
0.04187801
0.04308118
0.04425275
0.04540621
0.04655064
0.04768879
0.04882266
0.04995374
0.05108328
0.05221179
0.05333914
0.05446559
0.05559395
0.05672822
0.05786507
0.0589891
0.0600673
0.06104523
0.06184643
0.06237618
0.06252793
0.06219076
0.0612584
0.05964751
0.05733062
0.05436869
0.05088722
0.04690748
0.04226836
0.0367069
0.02980859
0.0209172
0.01542693
0.01093918
0.0113522
0.0130013
0.01395104
0.01465235
0.01534518
0.01608475
0.01688795
0.01776396
0.01871721
0.01974854
0.0208556
0.02203074
0.02326132
0.02454768
0.02587854
0.02724314
0.02863144
0.03003331
0.03143922
0.03284039
0.03422906
0.03559853
0.03694768
0.03828308
0.03959938
0.04087696
0.0421078
0.04329807
0.04446176
0.04561093
0.04675062
0.0478836
0.04901205
0.05013766
0.05126153
0.05238413
0.05350545
0.05462522
0.05574571
0.05687156
0.05800055
0.05911737
0.06018838
0.06115825
0.06194993
0.0624685
0.06260766
0.06225694
0.06131095
0.05968706
0.05735857
0.05438796
0.05090195
0.04691883
0.04227636
0.03671155
0.02980887
0.02091601
0.01542685
0.0110621
0.01158777
0.01316811
0.01403335
0.01465895
0.01530145
0.0160107
0.01680456
0.01768921
0.01866469
0.01972557
0.02086082
0.02206762
0.02334133
0.02466635
0.02603215
0.02742779
0.0288424
0.03026573
0.03168823
0.03310133
0.03449724
0.03586934
0.03721921
0.03855205
0.0398573
0.04111846
0.04233242
0.04351012
0.04466638
0.04580962
0.04694327
0.04807016
0.04919251
0.0503122
0.05143028
0.05254695
0.0536622
0.05477573
0.05588929
0.05700745
0.05812931
0.05923958
0.06030399
0.06126635
0.062049
0.06255686
0.06268373
0.06232005
0.06136133
0.05972606
0.05738856
0.05441173
0.05092163
0.04693502
0.04228893
0.03672055
0.02981405
0.02091669
0.01542829
0.01118993
0.01180882
0.01333729
0.01412504
0.01468664
0.01528995
0.0159781
0.01677118
0.01766945
0.0186651
0.01974706
0.02091863
0.02216462
0.02347329
0.02483225
0.02622899
0.0276515
0.0290884
0.03052912
0.03196415
0.03338475
0.03478337
0.03615353
0.03750039
0.03882709
0.04011743
0.0413599
0.04255702
0.04372297
0.04487113
0.04600641
0.04713228
0.04825163
0.04936667
0.05047949
0.05159111
0.0527015
0.05381062
0.0549181
0.05602504
0.05713575
0.05825067
0.05935455
0.06041253
0.06136769
0.06214184
0.06263985
0.06275591
0.0623811
0.06141148
0.05976602
0.05741956
0.05443578
0.05094126
0.04695085
0.0423011
0.03672971
0.0298209
0.02092112
0.01543009
0.01132954
0.01203449
0.01350883
0.01422657
0.01473376
0.01529843
0.01597843
0.01677309
0.01768181
0.01870202
0.0198269
0.02103754
0.02232127
0.02366478
0.02505461
0.02647776
0.02792187
0.02937534
0.0308276
0.03226885
0.03369046
0.03508507
0.03645129
0.03779538
0.03911197
0.04038375
0.04160498
0.04278492
0.04393905
0.04507703
0.04620271
0.04731949
0.0484302
0.04953705
0.05064226
0.05174682
0.05285052
0.05395323
0.05505448
0.05615483
0.05725841
0.05836672
0.0594645
0.06051637
0.06146473
0.06223088
0.06271965
0.06282557
0.06244036
0.06146073
0.0598062
0.05745213
0.05446261
0.05096415
0.04697032
0.04231706
0.0367422
0.02983021
0.02092811
0.01543471
0.01146896
0.01223964
0.01367909
0.0143405
0.01480373
0.01534093
0.01601213
0.01682059
0.01775882
0.01881407
0.01997248
0.021218
0.02253512
0.02390883
0.02532476
0.0267693
0.02822984
0.0296947
0.03115321
0.03259568
0.03401389
0.03540083
0.03676186
0.03810086
0.03940154
0.04065037
0.04184875
0.04301163
0.04415357
0.0452802
0.04639532
0.04750226
0.0486038
0.04970209
0.05079945
0.05189684
0.05299379
0.05409013
0.05518524
0.05627929
0.05737624
0.05847838
0.05957039
0.0606164
0.06155817
0.06231662
0.06279658
0.06289302
0.06249829
0.06150961
0.05984681
0.0574855
0.05449014
0.05098745
0.04698985
0.04233285
0.0367546
0.02983945
0.02093457
0.01543733
0.01161399
0.01243798
0.01385304
0.01446846
0.01489808
0.01541832
0.01609396
0.01692189
0.01788902
0.01897825
0.02017154
0.02145082
0.02279882
0.0241993
0.02563716
0.02709845
0.02857041
0.03004146
0.03150089
0.03293954
0.03434921
0.03572952
0.03708701
0.03841435
0.0396926
0.04091503
0.04209112
0.04323784
0.04436618
0.04548033
0.04658402
0.04768048
0.04877239
0.04986183
0.05095118
0.05204131
0.05313157
0.05422164
0.05531081
0.0563988
0.05748947
0.05858574
0.0596722
0.06071249
0.06164785
0.06239886
0.06287046
0.06295807
0.06255462
0.06155776
0.05988754
0.05751967
0.05451888
0.05101211
0.04701099
0.04235064
0.03676932
0.02985126
0.020943
0.01544263
0.01176048
0.01262104
0.0140279
0.01461111
0.01501944
0.01553335
0.01622158
0.01707436
0.01807326
0.01919697
0.02042415
0.02173463
0.02310978
0.02453259
0.02598757
0.02746068
0.02893925
0.03041176
0.03186808
0.03329915
0.03469728
0.03607049
0.03742267
0.03873202
0.03998325
0.04117778
0.04233215
0.04346303
0.04457695
0.04567795
0.04676966
0.0478552
0.04893719
0.0500176
0.0510988
0.05218159
0.05326511
0.05434894
0.05543222
0.05651434
0.057599
0.05868963
0.05977069
0.06080537
0.06173441
0.06247817
0.06294173
0.06302102
0.0626095
0.06160513
0.05992803
0.05755393
0.05454776
0.05103681
0.04703196
0.04236797
0.03678323
0.02986199
0.02095098
0.0154463
0.01190879
0.01279713
0.01420681
0.01477038
0.015169
0.01568613
0.01639395
0.01727601
0.01830857
0.01946638
0.02072542
0.02206384
0.02346206
0.02490264
0.02636997
0.02785007
0.02933038
0.03079952
0.03224749
0.03366538
0.03505648
0.0364284
0.03776741
0.03905123
0.04027196
0.04143953
0.04257365
0.043688
0.04478692
0.04587432
0.04695369
0.04802805
0.04909988
0.05017108
0.05124398
0.05231926
0.05339591
0.0544734
0.05555074
0.05662701
0.0577058
0.05879091
0.05986659
0.06089562
0.06181833
0.0625549
0.06301065
0.06308204
0.06266298
0.06165172
0.05996833
0.05758845
0.05457718
0.05106208
0.04705367
0.04238637
0.03679854
0.02987433
0.02096033
0.01545181
0.01206253
0.01297113
0.01439245
0.01494848
0.01534895
0.01587836
0.01661208
0.01752684
0.01859389
0.01978458
0.02107275
0.02243538
0.02385237
0.0253061
0.02678101
0.02826331
0.02974064
0.03120206
0.03263769
0.03404453
0.03543268
0.03679908
0.03811774
0.03937102
0.04055983
0.04170175
0.04281667
0.04391383
0.04499727
0.04607069
0.04713742
0.04820035
0.04926183
0.05032363
0.05138803
0.05245561
0.0535252
0.05459614
0.05566735
0.05673768
0.05781063
0.0588902
0.05996042
0.06098366
0.06189988
0.06262921
0.06307727
0.06314104
0.06271487
0.06169717
0.0600079
0.0576225
0.05460615
0.05108675
0.04707455
0.04240367
0.03681248
0.0298852
0.0209686
0.01545569
0.01221557
0.01313244
0.01458342
0.01514725
0.01556178
0.01611165
0.01687604
0.01782538
0.01892643
0.02014775
0.02146168
0.02284451
0.02427593
0.02573844
0.02721671
0.02869722
0.03016793
0.03161798
0.03303763
0.0344377
0.03582705
0.03718019
0.03847121
0.03969071
0.04084768
0.04196482
0.04306068
0.04414057
0.04520835
0.04626761
0.04732153
0.04837286
0.04942382
0.05047607
0.05153178
0.05259144
0.05365371
0.05471787
0.0557827
0.05684691
0.05791393
0.05898784
0.0600524
0.06106959
0.0619791
0.06270106
0.06314149
0.0631979
0.06276502
0.06174139
0.06004671
0.05765615
0.05463487
0.05111115
0.04709527
0.04242114
0.03682704
0.02989714
0.02097799
0.01546082
0.01237161
0.01329258
0.01478468
0.01536996
0.01580907
0.01638581
0.01718446
0.01816915
0.01930284
0.020552
0.02188801
0.02328683
0.02472823
0.02619491
0.02767177
0.02914555
0.03060444
0.03203778
0.03345031
0.03485481
0.03623748
0.03756741
0.03882447
0.04000824
0.04113534
0.0422297
0.04330612
0.04436849
0.04542047
0.04646545
0.04750644
0.04854605
0.04958635
0.05062888
0.0516757
0.05272719
0.0537819
0.05483899
0.05589717
0.05695501
0.05801591
0.05908395
0.06014258
0.06115343
0.06205597
0.06277045
0.06320331
0.06325259
0.06281337
0.06178416
0.06008437
0.05768873
0.05466244
0.05113427
0.04711458
0.04243706
0.03683993
0.02990738
0.02098597
0.01546424
0.01253004
0.01344823
0.01499676
0.01561651
0.01608804
0.01670066
0.01753568
0.01855556
0.01971975
0.02099336
0.02234735
0.02375779
0.02520472
0.0266712
0.02814254
0.02960587
0.0310496
0.03247092
0.03388442
0.03529024
0.03665735
0.03795659
0.03917622
0.04032412
0.04142295
0.04249573
0.04355277
0.04459764
0.04563381
0.04666447
0.04769247
0.04872027
0.04974979
0.05078245
0.05182019
0.05286329
0.05391017
0.05495991
0.05601113
0.05706234
0.05811688
0.05917878
0.06023119
0.06123536
0.06213064
0.06283748
0.06326275
0.06330507
0.06285975
0.06182526
0.0601206
0.05772011
0.05468895
0.05115642
0.04713313
0.04245262
0.03685296
0.02991832
0.02099508
0.01546866
0.0126898
0.01360445
0.01521948
0.01588543
0.0163977
0.01705286
0.01792533
0.0189797
0.02017219
0.02146703
0.02283527
0.02425338
0.02570194
0.02716456
0.02862707
0.03007696
0.03150289
0.03291954
0.03434131
0.03574051
0.03708275
0.0383457
0.03952652
0.04063966
0.04171145
0.04276311