/*--------------------------------*- C++ -*----------------------------------*\
| =========                 |                                                 |
| \\      /  F ield         | OpenFOAM: The Open Source CFD Toolbox           |
|  \\    /   O peration     | Version:  2312                                  |
|   \\  /    A nd           | Website:  www.openfoam.com                      |
|    \\/     M anipulation  |                                                 |
\*---------------------------------------------------------------------------*/
FoamFile
{
    version     2.0;
    format      ascii;
    arch        "LSB;label=32;scalar=64";
    class       volScalarField;
    location    "3450";
    object      nut;
}
// * * * * * * * * * * * * * * * * * * * * * * * * * * * * * * * * * * * * * //

dimensions      [0 2 -1 0 0 0 0];

internalField   nonuniform List<scalar> 
12000
(
5.230423e-05
0.0001931548
0.0002014993
0.0002152053
0.0002382079
0.0002604465
0.0002498166
0.0002220686
0.0002183511
0.0002450055
0.0002644281
0.0002389013
0.000209342
0.0002144103
0.000246132
0.0002500035
0.0002170215
0.0002033181
0.000220193
0.0002372465
0.0002222926
0.0002044025
0.0002066248
0.0002191077
0.0002194178
0.0002080139
0.0002017136
0.0002060304
0.0002123308
0.0002090435
0.0002020156
0.000200018
0.0001997595
0.0002045262
0.0002110506
0.0002060018
0.0001895708
0.000181583
0.0001980293
0.0002262766
0.0002122071
0.0001731794
0.0001643969
0.0002034053
0.0002802468
0.0002181542
0.0001409905
0.0001393513
0.0002354144
0.0003629404
0.0001584671
0.0001155312
0.0001667466
0.0002684869
0.0001691415
0.0001106321
0.0001156132
0.000106769
9.443802e-05
7.54012e-05
3.224153e-05
0.0002462834
0.0002903019
0.0003452369
0.0003912022
0.0004495496
0.0005072987
0.0005814483
0.0006654895
0.0007360212
0.0008070129
0.0008885524
0.0009929635
0.001088437
0.001158563
0.001228801
0.001330958
0.001441421
0.00152226
0.001583187
0.001667904
0.001773309
0.001861643
0.001921012
0.001982242
0.002061459
0.002140522
0.002196639
0.002233911
0.00227631
0.002329468
0.002371685
0.002393935
0.002407969
0.002408482
0.002420721
0.002435247
0.002438887
0.002406996
0.002354065
0.002319077
0.002305811
0.002264442
0.002165886
0.002053579
0.001566766
0.001649134
0.001831874
0.001652464
0.001505879
0.0009982677
0.001277867
0.001093132
0.0009296455
0.0007081217
0.0006019233
0.0004189604
0.0002581233
0.000135477
6.798663e-05
3.813426e-05
0.0003487935
0.0004489069
0.0005468329
0.0006780064
0.0008174228
0.0009725091
0.001135898
0.001311567
0.001487527
0.001655762
0.001829002
0.002003987
0.002170381
0.002325889
0.002475832
0.002623639
0.002763525
0.002890388
0.00300816
0.003121343
0.00322786
0.003323873
0.003409968
0.00348941
0.003562672
0.003628216
0.00368535
0.003735439
0.003780048
0.003819405
0.003850866
0.003880024
0.003902424
0.00391923
0.00393073
0.003936487
0.003936891
0.003931003
0.003918328
0.003898067
0.003871791
0.003838001
0.003795765
0.003712123
0.003634643
0.003577078
0.003462612
0.003084404
0.002929698
0.002950808
0.002585318
0.002174984
0.001847299
0.001596955
0.001355027
0.001060695
0.0006036551
0.0002244893
6.771447e-05
3.730026e-05
0.0003773163
0.0005484183
0.0007061979
0.000908831
0.001130071
0.001366961
0.001612574
0.001861949
0.002116583
0.002362989
0.002596846
0.002818162
0.00302241
0.003213139
0.003391036
0.003556409
0.003709641
0.003851262
0.00398163
0.004101687
0.004211644
0.004312164
0.004403597
0.004486308
0.004560501
0.004626416
0.004684298
0.004734266
0.004776267
0.004808749
0.00483506
0.004854287
0.004865806
0.004868968
0.004863716
0.004850252
0.004828567
0.004798125
0.004758081
0.004707605
0.004643961
0.004567393
0.004478701
0.004376049
0.004257612
0.004119922
0.003966182
0.003790813
0.003592426
0.003373113
0.0029687
0.002478411
0.002194213
0.002034539
0.00171208
0.001258838
0.0007779884
0.0003250855
6.707595e-05
3.713004e-05
0.0004094014
0.0006488209
0.0008643028
0.001126315
0.001410513
0.001707457
0.002008523
0.00230518
0.0025921
0.002868025
0.00312867
0.003376454
0.003605066
0.003815529
0.004012541
0.004198476
0.004370211
0.004525501
0.004667101
0.00479711
0.00491629
0.005025377
0.005124545
0.00521408
0.005294349
0.005365697
0.005428384
0.005482574
0.005526032
0.005562987
0.005591658
0.00561258
0.005625184
0.005628907
0.005623424
0.005609195
0.005585927
0.005553207
0.005511917
0.00546053
0.005397866
0.005323014
0.005236263
0.005135841
0.005020221
0.004887288
0.004734422
0.004559167
0.004360044
0.003977001
0.003802275
0.003512646
0.003129019
0.002702609
0.002196178
0.001620742
0.000992514
0.0003982509
6.667032e-05
3.774051e-05
0.0004281105
0.0007298277
0.0009934787
0.001298833
0.001626313
0.001962216
0.002296232
0.002620694
0.002931841
0.003230132
0.003517332
0.003784698
0.004033032
0.00426006
0.004465819
0.004651005
0.004820618
0.004981225
0.005131942
0.005273119
0.005404589
0.005526475
0.005638906
0.005741994
0.005835803
0.005920317
0.005995417
0.006059069
0.006115807
0.006162195
0.006198236
0.006223937
0.006239393
0.006244253
0.006237559
0.006220167
0.006191961
0.00615212
0.006098308
0.006031337
0.005951412
0.005857584
0.005748762
0.005623164
0.005479673
0.005316449
0.005132413
0.004921491
0.004686948
0.004414456
0.004100442
0.00374338
0.003334421
0.002864332
0.002336615
0.001745186
0.001100183
0.0004658496
6.644974e-05
3.827883e-05
0.0004363624
0.0007940694
0.001096401
0.001427599
0.001777931
0.002136443
0.00249485
0.002845682
0.003178474
0.003490469
0.003777499
0.004046589
0.004298367
0.00453311
0.00474953
0.004948952
0.005134371
0.005308513
0.005472821
0.005628097
0.005774657
0.005912543
0.006041648
0.006161769
0.006272626
0.006373872
0.006461584
0.00654359
0.006613962
0.006672679
0.006719527
0.006754117
0.006776714
0.006787056
0.006784748
0.006768597
0.006737999
0.006693392
0.006634822
0.006561812
0.006473869
0.006370355
0.00625046
0.006113301
0.005957644
0.005782539
0.005586061
0.005360711
0.005105759
0.004813823
0.004479468
0.004097617
0.003665148
0.003173509
0.002602663
0.00195107
0.001231678
0.0005201052
6.637299e-05
3.98579e-05
0.0004369225
0.0008387785
0.001172648
0.00152479
0.001895296
0.002270621
0.002639405
0.002993473
0.003331233
0.0036487
0.003944713
0.00422069
0.004477947
0.00471933
0.004946799
0.005160718
0.005362212
0.005552873
0.005734137
0.005906923
0.006071641
0.006228292
0.006376596
0.006516079
0.006646134
0.00676607
0.006873715
0.006972118
0.007058124
0.007131142
0.007190556
0.00723625
0.007267459
0.007283404
0.007283714
0.007268297
0.007236691
0.0071885
0.007123321
0.007040687
0.006940052
0.006820774
0.0066821
0.006523081
0.006342779
0.006139711
0.005911443
0.005655557
0.005369725
0.005049448
0.00469083
0.004285857
0.003824375
0.003298308
0.002702743
0.002033467
0.001298169
0.0005623822
6.608836e-05
4.117436e-05
0.0004324293
0.0008678343
0.001232197
0.001597262
0.001973384
0.002351996
0.002723587
0.003081726
0.003423003
0.00374517
0.004047716
0.004331477
0.004597925
0.004848944
0.005087254
0.005315107
0.005533332
0.005742589
0.005943521
0.006136646
0.006322173
0.006499944
0.006669486
0.006830083
0.006980869
0.007118824
0.007247153
0.007362863
0.007464685
0.007551671
0.007623111
0.007678867
0.007718014
0.007739787
0.0077436
0.007728967
0.007695439
0.007642592
0.007570009
0.007477252
0.007363845
0.007229247
0.007072835
0.006893808
0.006691203
0.006463711
0.006209909
0.00592566
0.005612156
0.005269731
0.00489139
0.004471022
0.003999261
0.003462419
0.002846152
0.002146041
0.001372798
0.0005973634
6.61812e-05
4.243135e-05
0.0004256446
0.000884505
0.001272711
0.001646932
0.00202473
0.002402866
0.002774446
0.003133825
0.003477514
0.003803827
0.004112624
0.004404798
0.004681798
0.00494528
0.005197041
0.005439083
0.005673285
0.005900576
0.00612127
0.006335478
0.006542914
0.006742794
0.006934121
0.007115767
0.007286479
0.007442922
0.007587855
0.00771841
0.007834469
0.007934592
0.008017574
0.008082433
0.008128188
0.008154052
0.008159361
0.008143552
0.008106132
0.008046655
0.007964704
0.007859874
0.007731761
0.00757996
0.007404067
0.007203775
0.006978723
0.006726455
0.006446919
0.006139144
0.005804096
0.005437061
0.005035682
0.004593643
0.004100428
0.003542197
0.002908449
0.002196355
0.001412635
0.0006226031
6.588777e-05
4.378641e-05
0.0004143519
0.0008883805
0.001298267
0.001681265
0.002060067
0.002435887
0.002804334
0.003161413
0.003504672
0.00383314
0.004146936
0.004446945
0.004734531
0.005011319
0.005278903
0.00553861
0.005790933
0.006036327
0.006274678
0.006504899
0.006728078
0.00694511
0.007154471
0.007354659
0.007544188
0.007720588
0.007884701
0.008033336
0.0081642
0.008276348
0.008368871
0.008441
0.00849164
0.008519903
0.00852508
0.00850659
0.008463945
0.008396723
0.008304548
0.008187072
0.008043972
0.007874944
0.007679713
0.007458045
0.007209618
0.00693604
0.006635136
0.006233662
0.005697843
0.005264893
0.004949223
0.004664454
0.004179155
0.003617109
0.002978909
0.002253677
0.001451654
0.000642534
6.597906e-05
4.525246e-05
0.0004005743
0.0008828545
0.001308084
0.001696656
0.002073605
0.002445055
0.002809842
0.003165642
0.003510546
0.003843397
0.004164065
0.004473176
0.004771516
0.005059696
0.005337978
0.005608465
0.005872942
0.006132542
0.006387976
0.006639718
0.006885639
0.007123348
0.007352121
0.007570646
0.007777332
0.007970024
0.008147758
0.008308269
0.008449809
0.008570849
0.008670048
0.00874619
0.008798477
0.008826257
0.008828932
0.008805984
0.008756973
0.008681537
0.008579381
0.008450272
0.008294019
0.008110461
0.007899429
0.007660654
0.007393781
0.007099102
0.006532452
0.005970825
0.005501431
0.005141483
0.004870757
0.004622323
0.004229517
0.003663273
0.003015409
0.002282355
0.001473418
0.0006557489
6.576804e-05
4.658301e-05
0.0003861477
0.0008686831
0.001307522
0.001703592
0.002080937
0.002449244
0.002810195
0.003162727
0.003505551
0.003838021
0.004159955
0.004470584
0.004691844
0.004871136
0.005083861
0.005341369
0.005634627
0.005943705
0.00630977
0.00670328
0.007024462
0.007278301
0.00752314
0.007756907
0.007977577
0.008183221
0.008372012
0.008542085
0.008691723
0.008819396
0.008923779
0.009003758
0.009058294
0.009086504
0.009087666
0.009061197
0.009006638
0.008923633
0.008811919
0.008671321
0.00850174
0.008303153
0.008075602
0.007819137
0.007367828
0.006818881
0.006304707
0.005824593
0.005396948
0.0050502
0.004783735
0.004571051
0.004267361
0.003699599
0.003048915
0.002310134
0.001492684
0.0006662177
6.5799e-05
4.768822e-05
0.0003752952
0.0008544835
0.001303331
0.001705119
0.002082612
0.002447722
0.002804199
0.003152424
0.003491966
0.003822217
0.004141955
0.004371166
0.004556649
0.004762146
0.00496828
0.005188338
0.005433558
0.005738909
0.006071343
0.006422096
0.006778711
0.007163196
0.007570025
0.0079
0.008132222
0.008348804
0.008547683
0.008726482
0.008883625
0.009017451
0.00912649
0.009209471
0.009265298
0.009293035
0.009291931
0.009261405
0.009201027
0.009110507
0.008989677
0.008838486
0.008656989
0.008445329
0.008204041
0.007691437
0.007144406
0.006609409
0.006122654
0.005682515
0.005296369
0.004970876
0.004723547
0.004528821
0.004277422
0.003720981
0.003067516
0.002324504
0.001503025
0.0006720494
6.566823e-05
4.861012e-05
0.0003645991
0.0008361813
0.001289501
0.001697605
0.002076454
0.002439183
0.002791601
0.003135616
0.00347147
0.003798641
0.004108415
0.004323414
0.004534654
0.004733078
0.004927701
0.005130887
0.00535741
0.00560672
0.005896075
0.006211276
0.006541164
0.006887688
0.007259473
0.007660921
0.008083188
0.008473879
0.008681148
0.008867465
0.009030987
0.009169891
0.009282636
0.009367864
0.009424444
0.009451407
0.00944797
0.009413588
0.009347894
0.009250682
0.009121894
0.008961591
0.008770068
0.008438587
0.007983544
0.007493988
0.006992289
0.006495973
0.006016801
0.005578928
0.005207565
0.004908955
0.004676647
0.004479649
0.004247392
0.003736277
0.003081812
0.002337001
0.00151177
0.0006767457
6.562747e-05
4.939302e-05
0.0003548053
0.0008177393
0.001274497
0.001685754
0.002065504
0.00242622
0.002774788
0.003114279
0.003445799
0.003769518
0.004085215
0.004339872
0.004528185
0.004709256
0.004919452
0.005135448
0.0053689
0.005607981
0.005874045
0.006150876
0.00644001
0.006747734
0.007080472
0.007437386
0.007811606
0.008190657
0.008557496
0.008890563
0.009137995
0.009281302
0.009397312
0.009484501
0.009541674
0.009567863
0.009562294
0.00952448
0.009454141
0.009351195
0.009215768
0.00898888
0.008656022
0.008267325
0.007830148
0.00735499
0.006866362
0.006391074
0.005945134
0.005534822
0.005162443
0.004847635
0.004610346
0.004441483
0.004237736
0.003745577
0.003090344
0.002343361
0.00151562
0.0006782131
6.556828e-05
5.000807e-05
0.000345595
0.0007987016
0.001255699
0.001670303
0.002050869
0.002409853
0.002754967
0.003090286
0.003417773
0.003738294
0.004052195
0.004342359
0.004549265
0.00474164
0.004935182
0.005152349
0.005392303
0.005649714
0.005893012
0.006141054
0.006398929
0.006675532
0.006980938
0.007319405
0.007683273
0.008051362
0.008399998
0.008713333
0.008984544
0.009214246
0.009408755
0.009565844
0.009623579
0.009640393
0.00961129
0.009552642
0.009457561
0.00931614
0.009120694
0.008864191
0.008540247
0.008150496
0.007709288
0.007239547
0.006764701
0.006303539
0.005869139
0.005470202
0.005116283
0.004818143
0.00458269
0.004403108
0.004201408
0.003752077
0.003097164
0.002349018
0.001519812
0.0006800684
6.551088e-05
5.05049e-05
0.0003385213
0.0007814841
0.001236081
0.001651123
0.002032879
0.002390757
0.002733033
0.003064686
0.003388496
0.003705986
0.004018007
0.004325478
0.004589994
0.004793042
0.005000614
0.005231039
0.005468528
0.005708911
0.005944977
0.006178271
0.006411608
0.006658067
0.006932643
0.007244277
0.007589962
0.007953189
0.008307857
0.008626654
0.008892369
0.009110609
0.009315011
0.009569631
0.009656845
0.009562812
0.009511271
0.009460941
0.009380746
0.009250929
0.009058251
0.008794498
0.008459461
0.008062705
0.007621261
0.007156381
0.006689936
0.006239564
0.005816076
0.005424616
0.005072522
0.004773266
0.00454222
0.004372689
0.004185194
0.003753644
0.003098424
0.00234994
0.001519945
0.0006799275
6.545915e-05
5.090515e-05
0.0003325068
0.0007652671
0.001215913
0.001631759
0.002012972
0.002369576
0.002709477
0.00303812
0.003358958
0.00367419
0.003985345
0.004293742
0.004600093
0.004890107
0.005107677
0.005327659
0.005570493
0.005816853
0.006054007
0.006268925
0.006475934
0.006691888
0.006936949
0.00722465
0.007554624
0.007910699
0.008265245
0.008588106
0.008857733
0.009074007
0.009272193
0.009538608
0.009688097
0.009599753
0.009500028
0.009436499
0.009357463
0.009229176
0.009033363
0.008762858
0.008419775
0.008015491
0.007569245
0.007104038
0.006641328
0.00619702
0.005780425
0.005396053
0.005050617
0.004756046
0.004525969
0.004355221
0.004170883
0.003755578
0.003100271
0.002351018
0.001521012
0.0006806173
6.541787e-05
5.122279e-05
0.0003285547
0.0007516696
0.001196955
0.001611172
0.001991925
0.002347319
0.002685192
0.003011338
0.003329726
0.003643069
0.003953305
0.004261914
0.004570795
0.004881393
0.005192627
0.005483465
0.005720243
0.005955337
0.006184584
0.006393539
0.00658064
0.006766152
0.006979016
0.007240287
0.007553879
0.007904567
0.008262899
0.00859558
0.008878568
0.009107964
0.009302647
0.009494252
0.009694737
0.009691512
0.009544049
0.009458194
0.009370384
0.009237595
0.009035571
0.008755333
0.008400669
0.007985948
0.007532709
0.007064763
0.006603068
0.006162255
0.005750116
0.005369878
0.005027427
0.004735508
0.004508551
0.004342159
0.004163766
0.003755315
0.003099838
0.002350322
0.001520094
0.0006798405
6.535862e-05
5.149884e-05
0.000325679
0.0007400782
0.001178615
0.001590138
0.001969796
0.002324047
0.002660302
0.002984507
0.003301015
0.003612972
0.003922714
0.004232062
0.004542509
0.004854988
0.005171511
0.005491665
0.005813009
0.006131783
0.0063562
0.006547341
0.006712003
0.006867966
0.007047261
0.007279771
0.007575022
0.007918947
0.008279907
0.008620607
0.008912536
0.009147907
0.00934266
0.009526118
0.009724134
0.009738175
0.009596819
0.0095004
0.009400599
0.009258296
0.009047619
0.008757883
0.00839298
0.007968773
0.00750852
0.007036982
0.006574954
0.006136156
0.005727321
0.005350845
0.005011818
0.004722649
0.004497322
0.004331841
0.004155694
0.00375479
0.003099079
0.002349533
0.00151952
0.0006796788
6.534007e-05
5.176479e-05
0.0003240706
0.0007300008
0.001162043
0.001570139
0.00194805
0.002300952
0.00263575
0.002958408
0.003273542
0.00358464
0.003894356
0.004204742
0.004517365
0.004833312
0.005153229
0.005476725
0.005804448
0.006134375
0.006462772
0.006731084
0.006877834
0.00699399
0.007132263
0.007330928
0.007604863
0.007940706
0.0083041
0.008653173
0.008954064
0.009193423
0.009382894
0.009553979
0.009748187
0.009776822
0.009645051
0.009543168
0.009434067
0.009282924
0.009063799
0.008765021
0.008390532
0.007957403
0.007490358
0.007015003
0.006552058
0.0061145
0.005708108
0.005334531
0.004998335
0.004711737
0.004488796
0.004325747
0.004152303
0.003753927
0.003097935
0.002348036
0.001517988
0.0006786468
6.528081e-05
5.199957e-05
0.0003238809
0.00072191
0.001146619
0.001550645
0.001926443
0.002277977
0.002611603
0.002933213
0.003247603
0.003558531
0.003868912
0.004180985
0.004496394
0.004816199
0.00514083
0.005470006
0.005802844
0.006137401
0.006472366
0.006804853
0.007064898
0.007163288
0.0072519
0.007405015
0.007650179
0.007974105
0.008337876
0.008693762
0.009002281
0.009245228
0.009430795
0.009590198
0.009769891
0.009806707
0.00969066
0.009586629
0.009469878
0.009310676
0.009083607
0.008776379
0.008392986
0.007951486
0.007477874
0.006998557
0.006534273
0.006097409
0.00569295
0.005321892
0.00498827
0.004703933
0.004482738
0.004320927
0.004148685
0.003752695
0.003096457
0.002346433
0.001516644
0.0006781455
6.52776e-05
5.227722e-05
0.0003248562
0.0007160563
0.001133663
0.00153312
0.001906289
0.002256237
0.002588814
0.00290979
0.003224062
0.003535586
0.003847477
0.004162111
0.004481182
0.00480569
0.00513592
0.005471402
0.005810947
0.006152665
0.006494145
0.006832284
0.00716362
0.007351779
0.007409809
0.007511525
0.007718957
0.008025052
0.008385997
0.008746711
0.009061137
0.00930573
0.0094845
0.009627755
0.009787832
0.009828647
0.009737999
0.009626015
0.009503775
0.009338986
0.009105259
0.008790178
0.008398292
0.007948769
0.007468805
0.006985545
0.006519754
0.006083281
0.005680384
0.005311468
0.004980136
0.004697988
0.004478795
0.004318762
0.004147862
0.003751968
0.003095281
0.00234489
0.001515063
0.0006770714
6.522693e-05
5.252613e-05
0.0003262448
0.0007110108
0.001121403
0.001516329
0.001886919
0.00223547
0.002567404
0.002888375
0.003203355
0.003516452
0.003830925
0.004149237
0.00447307
0.004803317
0.005140062
0.005482575
0.005829372
0.006178288
0.006526588
0.006871077
0.00720831
0.007523252
0.007574621
0.007634259
0.007804101
0.008089671
0.008444754
0.008807587
0.009126404
0.009374332
0.009551639
0.009677245
0.009773078
0.009845215
0.009805617
0.009665941
0.009535141
0.009366392
0.009127777
0.008805935
0.008406197
0.007949043
0.007462922
0.00697573
0.006508285
0.006071956
0.005670329
0.005303258
0.004973957
0.004693775
0.004476339
0.004317674
0.004147468
0.003751534
0.003094194
0.002343408
0.001513693
0.0006764314
6.52343e-05
5.279102e-05
0.0003286448
0.000708321
0.001112406
0.001502238
0.001869898
0.002217007
0.002548592
0.002870164
0.00318672
0.003502452
0.003820694
0.004143913
0.004473706
0.00481078
0.005154957
0.005505191
0.005859676
0.006215934
0.006570943
0.006921211
0.007263279
0.007593452
0.007738132
0.007779507
0.007912011
0.00817373
0.008519876
0.008881337
0.009199747
0.009444708
0.009614812
0.009727208
0.009803378
0.009863658
0.009831266
0.009703396
0.009571895
0.009398293
0.009153532
0.008824597
0.008417086
0.007952373
0.007460054
0.006968791
0.006499485
0.006063043
0.005662416
0.005296951
0.004969527
0.00469129
0.00447577
0.00431876
0.004149171
0.003751101
0.003093135
0.002341986
0.001512305
0.0006754669
6.51955e-05
5.309432e-05
0.0003311272
0.0007059413
0.001103492
0.001488999
0.001854096
0.002200208
0.002532096
0.002855155
0.00317438
0.003493993
0.003817328
0.004146778
0.004483771
0.00482876
0.005181236
0.005539789
0.005902226
0.006265733
0.00662702
0.006982769
0.007329085
0.007662337
0.007886553
0.007921452
0.008028457
0.008270997
0.008607728
0.008964895
0.009279203
0.009517601
0.009677274
0.009774644
0.00983546
0.00988423
0.009855651
0.009738418
0.009608414
0.009431841
0.009181773
0.008845971
0.008430652
0.007958248
0.0074596
0.006964196
0.006493016
0.006056431
0.005656697
0.005292647
0.004966858
0.004690308
0.004476463
0.004320799
0.004151367
0.003750966
0.003092522
0.002340882
0.001511106
0.0006748928
6.521062e-05
5.340535e-05
0.0003343772
0.0007013216
0.001097179
0.001478436
0.001841201
0.002186685
0.002519481
0.002844896
0.003167888
0.003492644
0.003822407
0.004159406
0.004504812
0.004858739
0.005220292
0.00558765
0.005958285
0.006329131
0.006696239
0.007056465
0.007406009
0.007741256
0.008018041
0.008055624
0.008150628
0.008382402
0.008712076
0.009062883
0.009368848
0.009596792
0.00974545
0.009831859
0.009878073
0.009907
0.009874354
0.009773464
0.00964766
0.00946907
0.009213894
0.008871044
0.008447529
0.007967046
0.007461841
0.006962208
0.006488991
0.006051762
0.005652328
0.005289382
0.004965224
0.004690465
0.004478383
0.004324159
0.00415496
0.003751216
0.003091947
0.002339987
0.001510108
0.0006740933
6.518535e-05
5.378521e-05
0.0003373319
0.0006893517
0.00109184
0.001468823
0.001829707
0.002175323
0.002510031
0.002839018
0.003167158
0.00349853
0.003836203
0.004182135
0.004537136
0.004900896
0.005272063
0.00564839
0.006026987
0.006403903
0.006776632
0.007140751
0.007492607
0.007828721
0.008130884
0.008176982
0.008272939
0.008503639
0.008830075
0.009173277
0.009466609
0.00967945
0.009814608
0.009890277
0.009924807
0.009931886
0.009895034
0.009809015
0.009686608
0.009506653
0.009247226
0.008897627
0.008465753
0.007976841
0.007464701
0.00696058
0.006485584
0.00604837
0.005650094
0.005288475
0.004965637
0.004692228
0.00448187
0.00432904
0.004159552
0.00375234
0.003092203
0.002339573
0.001509334
0.0006735542
6.520585e-05
5.412085e-05
0.0003408343
0.0006806861
0.001089158
0.001462374
0.001821842
0.002168285
0.002505867
0.002839619
0.003174266
0.003513691
0.003860676
0.0042168
0.004582408
0.004956676
0.005337744
0.00572295
0.00610831
0.006491681
0.006868613
0.00723534
0.007588257
0.007924029
0.008239723
0.008295371
0.008399606
0.008635598
0.008960768
0.009294404
0.009571435
0.009765361
0.009880725
0.009940537
0.009966457
0.009958668
0.009917567
0.009843693
0.009725034
0.00954501
0.009282574
0.008926717
0.008486603
0.007989451
0.007471133
0.006964428
0.006488611
0.006049834
0.005649307
0.005288385
0.00496771
0.004696821
0.004487693
0.004334786
0.004165153
0.003753942
0.00309283
0.002339498
0.001508751
0.0006730354
6.519748e-05
5.45128e-05
0.0003441122
0.0006727215
0.00108646
0.00145674
0.001815539
0.002163773
0.002505458
0.002845427
0.003188162
0.003537223
0.003894982
0.004262513
0.004639597
0.00502485
0.00541581
0.00580858
0.006201507
0.006589968
0.006970156
0.007338362
0.007691112
0.008025247
0.008329565
0.008395962
0.00851957
0.008770229
0.009097662
0.009419474
0.009674792
0.009838476
0.009925644
0.009979432
0.009999888
0.009987247
0.009941922
0.00986445
0.009755452
0.00958136
0.009318211
0.008956935
0.008508793
0.008003505
0.007478369
0.006965199
0.006484025
0.006045585
0.005650137
0.005291394
0.004971293
0.004700574
0.004492923
0.004342708
0.004171875
0.003756024
0.003093827
0.002339529
0.001508413
0.000672594
6.52098e-05
5.489044e-05
0.0003476987
0.0006674432
0.001085758
0.001453763
0.001813328
0.002164722
0.00251193
0.002859595
0.003211901
0.003571987
0.003941676
0.004321387
0.004710234
0.005105554
0.005505108
0.005906695
0.006305631
0.006698111
0.007080365
0.007448812
0.007800165
0.008131501
0.008410044
0.008491975
0.008641571
0.008909192
0.009236434
0.009543747
0.009774288
0.009891669
0.009972243
0.01002003
0.01003506
0.01001762
0.009968122
0.009887096
0.009775133
0.009623004
0.009359375
0.008990923
0.008533153
0.008017675
0.007483591
0.006964767
0.006483536
0.00604711
0.005652944
0.005295188
0.00497606
0.004706144
0.00449825
0.004346438
0.004174858
0.003758359
0.003095176
0.00234002
0.001508355
0.0006723143
6.521658e-05
5.527492e-05
0.0003509277
0.0006607054
0.001083851
0.001453044
0.001813229
0.002168537
0.002522537
0.002879481
0.003243042
0.003615726
0.00399863
0.004391111
0.004790723
0.005196989
0.005606324
0.006014882
0.006418789
0.006814181
0.007197364
0.00756493
0.007913821
0.008241373
0.008479493
0.008576868
0.008766138
0.009065287
0.009397089
0.009677329
0.009840027
0.009946296
0.0100204
0.01006225
0.01007198
0.01004985
0.009996284
0.009911791
0.009796921
0.00965226
0.009395835
0.009024146
0.008557606
0.008033466
0.007493227
0.006971507
0.006488783
0.006052071
0.005657007
0.005299518
0.004980466
0.00471051
0.004503586
0.004353861
0.00418323
0.003761396
0.003096982
0.00234077
0.001508236
0.0006720126
6.522742e-05
5.567361e-05
0.0003542368
0.0006580215
0.001078227
0.00145382
0.001817176
0.002178528
0.002541333
0.002909383
0.003285679
0.00367164
0.004066739
0.00447105
0.004883589
0.00530034
0.00571791
0.006132496
0.006540213
0.006937289
0.007320204
0.007685783
0.008031237
0.008354188
0.008547672
0.008676396
0.008904703
0.009225042
0.009548849
0.00977196
0.009902845
0.01000227
0.01007002
0.01010609
0.01011063
0.01008393
0.0100264
0.00993848
0.009820719
0.009673658
0.0094298
0.009054487
0.008579005
0.008046413
0.007500717
0.006976132
0.006492669
0.006055736
0.005661911
0.005305439
0.004987155
0.004717777
0.004510976
0.004360774
0.004188783
0.00376486
0.003099319
0.00234204
0.001508593
0.0006719304
6.523864e-05
5.602212e-05
0.0003576494
0.0006539358
0.001069629
0.001458126
0.001825888
0.002194438
0.002567447
0.002947783
0.003337044
0.003735417
0.004144828
0.004562804
0.004986661
0.005412946
0.005837846
0.006257438
0.006667874
0.007065531
0.007447117
0.00780973
0.008150839
0.008468505
0.008608506
0.008775056
0.009048527
0.009378001
0.009677613
0.009842993
0.009966753
0.01005948
0.01012105
0.01015148
0.01015097
0.01011981
0.01005839
0.009967159
0.009846589
0.009697154
0.009466847
0.00908794
0.008603932
0.008063084
0.007511589
0.006984228
0.006499889
0.006062897
0.005668918
0.005312203
0.004993588
0.004723998
0.004517476
0.004368098
0.00419626
0.003768753
0.003101976
0.002343576
0.001509184
0.0006719026
6.525125e-05
5.642447e-05
0.0003609724
0.000651642
0.001061784
0.001464056
0.001836385
0.002213897
0.002597745
0.002990313
0.003393718
0.003808754
0.004232998
0.004664201
0.005099197
0.005534267
0.005965463
0.006388871
0.006800765
0.007197727
0.007576717
0.007935118
0.008270684
0.008519177
0.008645709
0.008860937
0.009177728
0.009516731
0.009767653
0.009914763
0.01003154
0.01011774
0.0101733
0.01019828
0.01019287
0.01015737
0.01009215
0.009997615
0.009874196
0.009722335
0.009502217
0.009120359
0.008628495
0.00808006
0.007523263
0.006993102
0.006507735
0.006070618
0.005676736
0.005319971
0.00500112
0.004731284
0.004524653
0.004375208
0.004202783
0.003772902
0.003104914
0.002345388
0.001510023
0.0006721159
6.526239e-05
5.681074e-05
0.0003638903
0.0006497909
0.001054101
0.001472444
0.001851055
0.002237917
0.002634759
0.003042887
0.003462488
0.003892676
0.004331153
0.004774823
0.005220014
0.005662756
0.006099034
0.006525017
0.006937172
0.007332339
0.007707792
0.008061153
0.008390718
0.00853823
0.008701325
0.008979061
0.009330746
0.009659618
0.009846824
0.009986825
0.01009687
0.01017681
0.0102266
0.01024634
0.01023624
0.01019657
0.0101277
0.01002997
0.009903804
0.009749579
0.009536368
0.009150773
0.008651543
0.008096243
0.007534754
0.007002252
0.006516213
0.006079134
0.005685281
0.005328237
0.005008849
0.004738476
0.00453161
0.004382309
0.004209729
0.003777406
0.003108148
0.002347409
0.001510972
0.0006723328
6.527042e-05
5.719397e-05
0.000366845
0.0006487271
0.001048379
0.001483481
0.001869996
0.002268383
0.002679509
0.003103511
0.003539404
0.003985099
0.004437532
0.004892993
0.00534743
0.005796715
0.006236862
0.006664197
0.007075429
0.007467693
0.007838574
0.008185946
0.008425394
0.00855368
0.008779611
0.00911645
0.009484083
0.009763536
0.009925986
0.01005911
0.01016269
0.01023661
0.01028088
0.01029561
0.010281
0.01023732
0.01016491
0.01006409
0.00993522
0.009778642
0.009571317
0.009181547
0.008675174
0.008113397
0.007547481
0.007012716
0.006525927
0.006088722
0.005694687
0.005337126
0.00501696
0.004745824
0.004538502
0.004389124
0.004216314
0.003782055
0.003111516
0.002349557
0.001512025
0.0006725946
6.528266e-05
5.756696e-05
0.0003696203
0.0006484807
0.001044135
0.001497112
0.001893118
0.002304534
0.002731145
0.003171807
0.003624275
0.004085359
0.004551196
0.005017559
0.005480137
0.005934758
0.006377558
0.006805089
0.007214356
0.007602838
0.007968476
0.0083096
0.008415374
0.008582891
0.008883063
0.009269209
0.009636899
0.009849489
0.01000501
0.01013155
0.01022894
0.01029711
0.0103361
0.01034602
0.01032709
0.01027955
0.0102037
0.01009985
0.009968311
0.009809379
0.00960655
0.009212144
0.008698783
0.008130869
0.007560848
0.007024046
0.006536591
0.006099194
0.005704806
0.005346509
0.005025353
0.004753295
0.004545462
0.004396095
0.004223222
0.003786971
0.003115131
0.002351912
0.001513223
0.0006729082
6.528999e-05
5.791857e-05
0.0003725455
0.0006486832
0.001041369
0.001513583
0.001920468
0.002346178
0.002789232
0.003247066
0.003716125
0.004192173
0.004670629
0.005146855
0.005616391
0.006075111
0.006519339
0.006945893
0.007352083
0.007735693
0.008094946
0.008282157
0.008403092
0.008644861
0.009014298
0.009427328
0.009757701
0.009935016
0.01008389
0.01020412
0.01029559
0.01035827
0.01039221
0.01039754
0.01037444
0.01032316
0.01024397
0.01013715
0.01000295
0.00984166
0.009641577
0.009242225
0.008722166
0.008148544
0.007574803
0.007036201
0.006548121
0.006110414
0.005715474
0.005356227
0.005033886
0.004760741
0.004552236
0.004402703
0.0042297
0.003791972
0.00311882
0.002354323
0.001514472
0.0006733014
6.530039e-05
5.827942e-05
0.0003754172
0.0006497915
0.001040106
0.00153281
0.001951823
0.002392957
0.002853228
0.003328523
0.00381397
0.004304361
0.004794506
0.005279477
0.005754765
0.006216373
0.006660865
0.007085358
0.007487484
0.007865348
0.008145647
0.008233116
0.008408602
0.00873299
0.009160298
0.009581258
0.009849431
0.01002008
0.01016259
0.01027679