/*--------------------------------*- C++ -*----------------------------------*\
| =========                 |                                                 |
| \\      /  F ield         | OpenFOAM: The Open Source CFD Toolbox           |
|  \\    /   O peration     | Version:  2312                                  |
|   \\  /    A nd           | Website:  www.openfoam.com                      |
|    \\/     M anipulation  |                                                 |
\*---------------------------------------------------------------------------*/
FoamFile
{
    version     2.0;
    format      ascii;
    arch        "LSB;label=32;scalar=64";
    class       volScalarField;
    location    "3450";
    object      omega;
}
// * * * * * * * * * * * * * * * * * * * * * * * * * * * * * * * * * * * * * //

dimensions      [0 0 -1 0 0 0 0];

internalField   nonuniform List<scalar> 
12000
(
47.49298
20.11561
21.78672
23.38325
24.5569
25.60042
26.49793
27.2896
27.95054
28.54295
29.08274
29.57925
30.01878
30.39004
30.73067
31.04565
31.3404
31.58078
31.78969
31.97541
32.15058
32.29195
32.4018
32.48826
32.56414
32.62103
32.65612
32.66301
32.66498
32.65042
32.62557
32.57544
32.51559
32.43569
32.30085
32.2287
32.16658
32.06437
31.81386
31.46661
31.24522
31.16359
30.95387
30.45049
29.82566
29.50095
29.42992
29.29815
28.07036
27.05456
26.91332
26.79371
25.77348
24.16212
23.47707
22.55008
21.34825
19.8174
18.53048
41.96225
81.05538
23.07788
22.38487
23.26794
23.2866
23.02016
22.6134
22.31507
21.74544
21.0847
20.4853
19.86582
19.20265
18.61342
18.17779
17.73798
17.1888
16.6323
16.27777
16.00628
15.63085
15.18187
14.84891
14.65474
14.44376
14.16191
13.89618
13.7394
13.65595
13.54354
13.38662
13.28589
13.27802
13.29167
13.3465
13.35392
13.34725
13.38029
13.58305
13.88608
14.09739
14.14229
14.34217
14.9621
15.6894
16.12248
16.10889
16.48802
17.92648
19.33183
19.92266
19.99749
21.98618
24.56072
26.70473
28.73665
33.3903
41.59346
56.22554
78.8324
85.58256
23.00095
21.55373
20.94953
19.94162
18.91983
17.94706
17.0182
16.14308
15.19042
14.38097
13.70611
13.10609
12.62198
12.18826
11.7864
11.42829
11.13051
10.88213
10.65351
10.44161
10.26437
10.12543
10.00808
9.89967
9.80638
9.736885
9.688682
9.65142
9.619975
9.600762
9.59484
9.602257
9.631998
9.661626
9.69617
9.746973
9.822089
9.919963
10.02346
10.12229
10.23191
10.3768
10.55708
10.74977
10.94941
11.1941
11.49648
11.82796
12.22829
12.74809
13.47139
14.2547
15.28788
16.60843
18.67868
22.38422
29.54904
48.00055
87.47738
88.14441
22.26332
19.41716
18.50587
17.32162
16.13853
15.01967
13.97158
13.03345
12.26654
11.5816
10.98519
10.46717
10.03471
9.668027
9.349604
9.079558
8.852462
8.652517
8.47821
8.328072
8.20469
8.102487
8.016985
7.946006
7.889435
7.846955
7.817243
7.798762
7.790707
7.787883
7.796532
7.825961
7.866022
7.917353
7.981487
8.060815
8.157123
8.271262
8.403642
8.555094
8.728092
8.926482
9.158148
9.422241
9.720069
10.05543
10.43789
10.87447
11.37958
11.96739
12.65012
13.44064
14.41159
15.73545
17.6059
20.71844
26.77248
42.65944
92.93722
90.03954
21.35412
17.76299
16.67821
15.41857
14.18624
13.05323
12.05291
11.19432
10.48966
9.892383
9.382928
8.934614
8.534147
8.201312
7.918845
7.67955
7.474814
7.294526
7.139069
7.008314
6.900572
6.810095
6.734374
6.672481
6.623748
6.587641
6.56368
6.551476
6.547533
6.551498
6.573017
6.60699
6.653564
6.713183
6.786376
6.87504
6.98032
7.102823
7.243438
7.403528
7.583673
7.782451
8.003748
8.252242
8.528559
8.834735
9.174686
9.557298
9.998346
10.4757
10.99358
11.65414
12.51504
13.64516
15.39438
18.24753
23.88434
39.45677
96.74852
91.80349
20.84909
16.46992
15.23482
13.9848
12.79625
11.73294
10.81242
10.02581
9.356631
8.786988
8.302255
7.899716
7.547121
7.231329
6.9613
6.727701
6.525333
6.352144
6.204517
6.07946
5.973292
5.883839
5.809771
5.750187
5.70438
5.671802
5.652044
5.646499
5.65052
5.667854
5.699187
5.744819
5.805391
5.881895
5.972185
6.078695
6.20557
6.351999
6.518899
6.707752
6.920173
7.15763
7.418833
7.708337
8.029294
8.381912
8.775271
9.211572
9.674498
10.17557
10.75273
11.43857
12.29235
13.4275
15.02304
17.60643
22.68944
36.90958
99.41075
93.44211
20.69726
15.48007
14.10504
12.90929
11.79684
10.80679
9.947955
9.21053
8.579137
8.039275
7.576117
7.178322
6.841652
6.545811
6.279544
6.047305
5.845891
5.672614
5.524151
5.397627
5.290663
5.201516
5.128962
5.0721
5.030252
5.00293
4.992556
4.992612
5.007325
5.036741
5.081232
5.139818
5.213633
5.304828
5.413368
5.53937
5.684531
5.850027
6.036895
6.246247
6.479194
6.73677
7.019961
7.330119
7.667077
8.03529
8.43073
8.845185
9.29003
9.779921
10.33455
10.98063
11.76051
12.77098
14.26442
16.73444
21.63797
35.39726
101.4274
98.92845
20.85619
14.79246
13.23954
12.08286
11.04153
10.1199
9.318348
8.625723
8.028165
7.512645
7.06588
6.677405
6.338677
6.047038
5.791562
5.562785
5.362091
5.187909
5.038293
4.910924
4.803888
4.715711
4.645273
4.591715
4.554387
4.532823
4.527676
4.53632
4.560375
4.59997
4.655001
4.725689
4.812827
4.917187
5.039538
5.180729
5.341819
5.523943
5.728301
5.956151
6.208782
6.487446
6.793343
7.127158
7.491046
7.88235
8.298873
8.743197
9.217175
9.728568
10.28661
10.92089
11.69071
12.69854
14.13763
16.46858
21.05317
33.97916
102.6175
98.18745
21.13696
14.31115
12.57131
11.44836
10.48019
9.623496
8.871541
8.215705
7.644997
7.148265
6.714638
6.33494
6.001219
5.708004
5.452817
5.230625
5.033491
4.860146
4.710074
4.582155
4.4752
4.388035
4.319614
4.269046
4.235615
4.220006
4.21935
4.234633
4.265866
4.313096
4.376764
4.456957
4.553931
4.668415
4.801243
4.953341
5.125754
5.319642
5.536251
5.776898
6.042929
6.335644
6.656252
7.005443
7.383625
7.791215
8.226378
8.691313
9.182747
9.695746
10.24175
10.84391
11.55461
12.48264
13.84677
16.111
20.61385
33.26566
103.6608
97.636
21.55367
14.0361
12.08514
10.95959
10.04126
9.239022
8.535009
7.917628
7.376415
6.900917
6.481647
6.110879
5.782665
5.491817
5.235371
5.010851
4.81583
4.646213
4.49909
4.373509
4.268588
4.183573
4.117679
4.070155
4.040272
4.028527
4.032207
4.052281
4.088606
4.141179
4.210636
4.297113
4.400552
4.52168
4.661347
4.820519
5.000289
5.20187
5.426579
5.675807
5.950981
6.253516
6.5847
6.9462
7.337854
7.760735
8.212212
8.686687
9.183569
9.701347
10.24414
10.83663
11.53637
12.45507
13.79547
15.98869
20.31429
32.45826
104.1665
98.82084
22.12973
13.90301
11.7262
10.58153
9.702959
8.948755
8.286786
7.70253
7.185361
6.727501
6.322088
5.963163
5.644881
5.362532
5.112221
4.891086
4.697494
4.529441
4.384953
4.262351
4.160479
4.078176
4.014617
3.969182
3.941381
3.931285
3.937403
3.96005
3.999085
4.05447
4.126765
4.216147
4.322639
4.44694
4.589888
4.752465
4.935806
5.141198
5.370076
5.62399
5.90457
6.213452
6.552182
6.922061
7.323653
7.75419
8.214103
8.702717
9.217254
9.748429
10.28813
10.85707
11.5242
12.405
13.6923
15.84373
20.12483
32.10959
104.662
100.017
22.8873
13.91812
11.49483
10.30151
9.44584
8.730898
8.104506
7.550409
7.059335
6.62314
6.234516
5.88739
5.577584
5.302062
5.057767
4.841732
4.651669
4.486102
4.343902
4.223545
4.123765
4.043527
3.981913
3.938131
3.911699
3.90243
3.909543
3.933024
3.972798
4.028947
4.101986
4.19231
4.299983
4.425545
4.569747
4.73355
4.918097
5.124719
5.354915
5.610333
5.892726
6.203872
6.545487
6.918764
7.324883
7.763553
8.237817
8.74641
9.274225
9.805022
10.33662
10.8939
11.54136
12.39811
13.67247
15.78949
19.98184
31.69997
104.8669
100.9895
23.64879
14.03645
11.36299
10.10136
9.250394
8.563834
7.971565
7.448942
6.983519
6.566081
6.192394
5.860139
5.565246
5.299662
5.058975
4.843834
4.654186
4.488874
4.346766
4.227011
4.128437
4.049281
3.988537
3.945684
3.920095
3.911326
3.919035
3.943
3.983079
4.039314
4.111974
4.201396
4.308004
4.432417
4.575412
4.737992
4.921364
5.126945
5.35635
5.611381
5.893988
6.206184
6.549906
6.926899
7.341124
7.796211
8.287751
8.80454
9.333268
9.861472
10.38735
10.93305
11.56123
12.39376
13.63995
15.72853
19.89104
31.51326
105.0854
101.6929
24.29033
14.18454
11.2848
9.954461
9.099941
8.43485
7.870068
7.372533
6.928171
6.530728
6.17635
5.860046
5.572142
5.312155
5.079086
4.870236
4.684298
4.52098
4.380326
4.261789
4.163806
4.085329
4.025577
3.983576
3.958389
3.949464
3.956435
3.979429
4.018365
4.073302
4.14444
4.232221
4.337196
4.459936
4.601241
4.762142
4.943895
5.147979
5.376095
5.630145
5.912185
6.224365
6.56867
6.951015
7.377095
7.844566
8.345445
8.867572
9.39665
9.92086
10.43898
10.97474
11.59043
12.40728
13.63669
15.7077
19.83083
31.32895
105.171
102.024
24.94032
14.38918
11.28389
9.862138
8.987087
8.331735
7.787053
7.312008
6.889404
6.51126
6.173062
5.868064
5.592922
5.34384
5.119163
4.917127
4.736625
4.577169
4.438525
4.320518
4.222467
4.1435
4.082813
4.039726
4.013627
4.003943
4.009972
4.031819
4.06923
4.122329
4.191407
4.276887
4.379583
4.500185
4.639295
4.798001
4.97759
5.179581
5.405736
5.658052
5.938695
6.251389
6.601554
6.992894
7.425758
7.897281
8.400746
8.924687
9.453636
9.974138
10.48538
11.01217
11.61595
12.41735
13.63051
15.68247
19.78813
31.23907
105.2527
102.3008
25.59808
14.61784
11.30432
9.805791
8.905527
8.252001
7.721022
7.263661
6.858964
6.497215
6.173552
5.883119
5.620438
5.381442
5.164548
4.969193
4.794482
4.639872
4.504845
4.389207
4.29238
4.213698
4.152552
4.108428
4.080872
4.069481
4.073744
4.09365
4.128921
4.179752
4.246465
4.329424
4.429588
4.547736
4.684404
4.84068
5.017871
5.21753
5.441445
5.692299
5.974105
6.290953
6.646199
7.042294
7.479444
7.954056
8.458083
8.979765
9.505721
10.02375
10.53093
11.04896
11.64154
12.4315
13.63296
15.67542
19.76696
31.18293
105.284
102.4912
26.21809
14.87497
11.36815
9.778966
8.846877
8.188848
7.666285
7.222697
6.833172
6.485964
6.17517
5.897265
5.646307
5.417838
5.209916
5.021517
4.852423
4.702653
4.571963
4.459584
4.364882
4.287233
4.226124
4.181199
4.152222
4.139
4.141245
4.158987
4.192103
4.240652
4.304792
4.384842
4.481993
4.597353
4.731497
4.885487
5.060622
5.258693
5.482056
5.733676
6.017092
6.336134
6.694272
7.093576
7.533524
8.009967
8.514561
9.035092
9.557089
10.06827
10.5678
11.07921
11.66515
12.44543
13.63486
15.66784
19.74205
31.12414
105.2754
102.6601
26.75631
15.12405
11.44944
9.780687
8.807941
8.138178
7.618407
7.184453
6.80727
6.472889
6.174134
5.906354
5.665759
5.447137
5.247574
5.066475
4.903924
4.759779
4.633719
4.52513
4.433317
4.357565
4.297328
4.252301
4.222388
4.207602
4.207973
4.223084
4.253907
4.300104
4.361822
4.439081
4.533094
4.645954
4.778541
4.931252
5.105223
5.302322
5.525099
5.776748
6.060953
6.381494
6.741577
7.142877
7.584398
8.061482
8.565398
9.083938
9.60302
10.11039
10.60421
11.10783
11.68541
12.45831
13.64164
15.66875
19.74073
31.11835
105.1995
102.8773
27.25071
15.38844
11.55066
9.790941
8.780963
8.095854
7.574318
7.14605
6.778095
6.454032
6.165041
5.905711
5.672903
5.463556
5.273378
5.100278
4.944278
4.805793
4.684737
4.58056
4.492366
4.419326
4.360804
4.316483
4.286357
4.270617
4.26951
4.282686
4.311474
4.355558
4.415144
4.490225
4.581841
4.692349
4.82323
4.974821
5.147905
5.344284
5.566612
5.818219
6.10287
6.424349
6.785736
7.188405
7.630908
8.108101
8.610836
9.126603
9.641229
10.14283
10.63051
11.12843
11.70079
12.46822
13.64579
15.66757
19.72898
31.07852
105.1378
102.9706
27.62842
15.622
11.65081
9.813673
8.761505
8.057711
7.530946
7.105118
6.743638
6.427791
6.147387
5.896425
5.670092
5.465228
5.281791
5.116991
4.969002
4.837266
4.721884
4.622594
4.538652
4.469118
4.413205
4.370506
4.341039
4.325128
4.323215
4.335207
4.362496
4.404949
4.46292
4.536758
4.626986
4.735524
4.864722
5.015283
5.187673
5.383568
5.605639
5.85731
6.14244
6.464822
6.827413
7.23131
7.674671
8.151928
8.653597
9.16701
9.678024
10.17485
10.65674
11.14835
11.71474
12.47716
13.65106
15.67075
19.72816
31.06966
105.0127
103.0837
28.02324
15.86339
11.75979
9.843969
8.747973
8.022325
7.487041
7.060602
6.702935
6.393081
6.119423
5.875068
5.655558
5.458095
5.279162
5.118123
4.975869
4.8511
4.742527
4.649184
4.570384
4.505242
4.452897
4.41283
4.385029
4.369914
4.368106
4.379751
4.406347
4.447943
4.505013
4.578003
4.667393
4.774977
4.903182
5.052929
5.224785
5.420397
5.642411
5.894272
6.179877
6.503014
6.866531
7.271279
7.715054
8.191884
8.691944
9.202386
9.709125
10.20074
10.67713
11.1637
11.72598
12.4851
13.65637
15.67419
19.72865
31.05789
104.9469
103.3277
28.36908
16.08702
11.86425
9.874942
8.736166
7.987349
7.441285
7.011749
6.655563
6.349718
6.081274
5.842547
5.628713
5.436611
5.264036
5.109916
4.972122
4.850821
4.747016
4.65966
4.586897
4.527183
4.479482
4.443146
4.418099
4.404817
4.404089
4.416283
4.443039
4.484577
4.541501
4.614346
4.70357
4.810851
4.938601
5.087913
5.259491
5.455001
5.677079
5.929182
6.215233
6.539009
6.903263
7.308629
7.752579
8.228791
8.727156
9.234688
9.737365
10.22403
10.69508
11.17654
11.73455
12.4905
13.65959
15.67591
19.72841
31.05059
104.829
103.4285
28.68386
16.30973
11.97167
9.908611
8.725777
7.951867
7.39279
6.957914
6.601159
6.297596
6.033033
5.799011
5.590274
5.403438
5.236284
5.087378
4.955704
4.840951
4.741891
4.658433
4.590037
4.535756
4.493371
4.461686
4.440398
4.429941
4.431167
4.445103
4.472812
4.515043
4.572516
4.645852
4.735539
4.843125
4.970911
5.120133
5.291675
5.487239
5.709463
5.961817
6.248243
6.572512
6.937288
7.343005
7.786844
8.262158
8.758577
9.26301
9.761545
10.24339
10.70955
11.18674
11.74165
12.49579
13.66429
15.68131
19.73536
31.05061
104.7826
103.6577
28.99622
16.5139
12.06918
9.937512
8.712427
7.913253
7.340012
6.898267
6.539396
6.23675
5.97499
5.744916
5.540819
5.359052
5.197239
5.053817
4.927735
4.81824
4.724653
4.646508
4.583509
4.533908
4.496282
4.469633
4.452831
4.446073
4.450128
4.466409
4.495893
4.539555
4.59825
4.672698
4.763431
4.871834
5.000046
5.149484
5.321239
5.516999
5.739419
5.992005
6.278733
6.603369
6.968498
7.374375
7.817911
8.292167
8.78655
9.287889
9.782386
10.25959
10.72102
11.19402
11.74577
12.49802
13.66545
15.682
19.73542
31.04715
104.6873
103.6632
29.33241
16.73333
12.1735
9.968672
8.69885
7.872611
7.283592
6.833475
6.471143
6.168297
5.908489
5.68179
5.482011
5.305195
5.148761
5.010979
4.890652
4.786799
4.698708
4.625772
4.567445
4.523032
4.491006
4.469151
4.456996
4.454455
4.461962
4.481146
4.513018
4.558679
4.6191
4.695133
4.787568
4.897308
5.026055
5.175854
5.348037
5.54412
5.766766
6.019542
6.306477
6.631346
6.996664
7.402523
7.845583
8.318641
8.810911
9.309173
9.799779
10.27264
10.72984
11.19933
11.74859
12.49913
13.66739
15.68607
19.74287
31.05581
104.6557
103.8168
29.66288
16.92807
12.26429
9.992346
8.67995
7.827035
7.221851
6.762674
6.396153
6.092477
5.834171
5.610596
5.415073
5.243294
5.0924
4.960423
4.846003
4.748079
4.665795
4.598385
4.54517
4.50556
4.478341
4.461833
4.454585
4.456225
4.46779
4.490278
4.524979
4.573088
4.635665
4.713641
4.807862
4.919155
5.049043
5.199541
5.372125
5.568459
5.791269
6.044165
6.331212
6.656194
7.021569
7.427275
7.869742
8.341527
8.831673
9.32693
9.813807
10.28258
10.73587
11.20223
11.74935
12.49951
13.66805
15.6872
19.74386
31.0558
104.5783
104.0174
30.04363
17.1525
12.36499
10.01797
8.659909
7.778765
7.156364
6.687281
6.315872
6.01082
5.753627
5.532941
5.341574
5.174846
5.029608
4.903745
4.795604
4.703923
4.627623
4.565922
4.518063
4.48338
4.460909
4.449183
4.446814
4.453091
4.468605
4.494685
4.532523
4.583383
4.648398
4.728558
4.824733
4.93772
5.06893
5.220276
5.393324
5.589893
5.812805
6.065735
6.352798
6.677797
7.043136
7.448609
7.890422
8.360907
8.848964
9.341342
9.824723
10.28976
10.73957
11.20279
11.74911
12.49954
13.66846
15.69009
19.75155
31.0666
104.5571
104.3066
30.3968
17.34853
12.45246
10.03581
8.633707
7.724877
7.085427
6.606467
6.230163
5.923754
5.667746
5.450088
5.263087
5.101684
4.962449
4.842925
4.741196
4.655845
4.585764
4.530004
4.487693
4.458075
4.440332
4.433194
4.435298
4.44602
4.465683
4.495266
4.536335
4.590083
4.657667
4.740103
4.838289
4.953062
5.085738
5.238036
5.411556
5.608322
5.831272
6.084161
6.371166
6.696113
7.061358
7.466544
7.907669
8.376868
8.862921
9.352566
9.832648
10.29423
10.74051
11.20261
11.74796
12.49854
13.66857
15.6904
19.75249
31.07098
104.5022
104.718
30.81611
17.57037
12.54602
10.05631
8.607777
7.669876
7.012598
6.523311
6.141855
5.833957
5.579103
5.36453
5.182018
5.026087
4.893015
4.779937
4.68483
4.606011
4.542258
4.492446
4.455647
4.431056
4.417917
4.41512
4.421375
4.436139
4.459601
4.492812
4.537021
4.593678
4.663877
4.748625
4.848829
4.965391
5.099557
5.252832
5.426847
5.623807
5.846761
6.099556
6.386447
6.711299
7.076422
7.481314
7.921745
8.389656
8.873715
9.360684
9.837585
10.29566
10.74003
11.19986
11.74428
12.49527
13.6669
15.69107
19.75842
31.08641
104.4982
104.9326
31.1743
17.75729
12.61838
10.06426
8.573441
7.608469
6.934468
6.4356
6.049581
5.740711
5.487488
5.276429
5.098783
4.94867
4.821928
4.715525
4.627106
4.554939
4.497542
4.45371
4.422432
4.402848
4.394217
4.395534
4.405768
4.424244
4.451239
4.487775
4.535157
4.594621
4.667405
4.754466
4.856683
4.974988
5.110587
5.264839
5.43937
5.636515
5.859424
6.112055
6.398762
6.723456
7.088393
7.492894
7.932535
8.399174
8.881475
9.366086
9.840192
10.29573
10.7374
11.19576
11.73968
12.4911
13.66407
15.69006
19.75935
31.08971
104.4859
105.2662
31.59221
17.97871
12.7055
10.0774
8.541265
7.548084
6.856921
6.348294
5.957655
5.647822
5.396266
5.188842
5.016254
4.872161
4.751867
4.652051
4.570205
4.50446
4.453225
4.415187
4.389258
4.374534
4.370243
4.375428
4.389239
4.411075
4.441278
4.480883
4.531168
4.593399
4.668687
4.757985
4.862111
4.982028
5.118923
5.274154
5.449301
5.646632
5.86942
6.121796
6.408244
6.732728
7.097476
7.501733
7.94093
8.406532
8.886895
9.368835
9.840311
10.29366
10.73351
11.19061
11.73428
12.48646
13.66094
15.68968
19.7627
31.10595
104.4996
105.5299
31.957
18.16165
12.77025
10.07911
8.500323
7.480954
6.774129
6.25699
5.862811
5.552981
5.304021
5.100996
4.93399
4.79607
4.682346
4.58925
4.514158
4.454918
4.409822
4.37747
4.356719
4.346641
4.346433
4.355208
4.372239
4.397079
4.430174
4.472578
4.525547
4.590348
4.668021
4.759347
4.865209
4.986589
5.124665
5.280801
5.456615
5.654181
5.876763
6.128822
6.414973
6.739249
7.10385
7.50786
7.946377
8.410671
8.888993
9.369092
9.83866
10.29
10.72839
11.18481
11.72835
12.48084
13.65621
15.68658
19.76232
31.11223
104.5195
105.8053
32.34912
18.37221
12.84926
10.0839
8.462903
7.417329
6.694828
6.169154
5.771499
5.461846
5.215687
5.017121
4.855492
4.723442
4.615955
4.52929
4.460568
4.407472
4.368158
4.341135
4.325226
4.31949
4.32309
4.335163
4.355
4.382403
4.418004
4.462928
4.518459
4.58572
4.665546
4.758737
4.866178
4.988896
5.128059
5.285031
5.461456
5.659319
5.881801
6.133502
6.419294
6.743302
7.107626
7.511149
7.948839
8.41189
8.88905
9.367395
9.835052
10.28471
10.72176
11.17728
11.72057
12.47378
13.65083
15.68354
19.76406
31.12443
104.5505
106.0986
32.71192
18.56583
12.91476
10.08306
8.420457
7.349319
6.612498
6.080055
5.680619
5.372413
5.129619
4.935667
4.779545
4.653729
4.55274
4.472534
4.410009
4.362761
4.328872
4.306826
4.295383
4.293576
4.300518
4.315413
4.337691
4.36738
4.405261
4.452548
4.51046
4.579923
4.661685
4.756554
4.865427
4.989344
5.129488
5.287222
5.464183
5.66236
5.884799
6.136141
6.421541
6.745172
7.109154
7.512312
7.949423
8.411544
8.887106
9.363628
9.829508
10.2777
10.71384
11.16912
11.71273
12.46661
13.64459
15.67887
19.76282
31.12925
104.5834
106.3928
33.01786
18.74917
12.97133
10.07227
8.373984
7.28118
6.532242
5.994149
5.593304
5.286441
5.046923
4.857676
4.707216
4.587566
4.492923
4.418982
4.36247
4.320852
4.292151
4.274763
4.267459
4.269174
4.279078
4.296433
4.320824
4.352566
4.392564
4.44204
4.502081
4.573437
4.656859
4.753161
4.863248
4.988187
5.129162
5.287514
5.464899
5.663322
5.885698
6.136716
6.421823
6.745265
7.109025
7.511673
7.947879
8.408742
8.882885
9.357974
9.822576
10.26976
10.70521
11.16011
11.70367
12.45793
13.63682
15.6725
19.75963
31.13713
104.6103
106.781
33.33908
18.93767
13.03039
10.06366
8.330733
7.21733
6.45679
5.91303
5.510777
5.205613
4.969891
4.785659
4.640884
4.527177
4.438508
4.370392
4.319417
4.282964
4.258948
4.245742
4.2421
4.24695
4.25942
4.278814
4.304948
4.338408
4.380266
4.431679
4.493531
4.566503
4.65134
4.748859
4.859969
4.985762
5.127431
5.286313
5.464063
5.662681
5.884961
6.135611
6.420316
6.743381
7.106722
7.508826
7.944249
8.404057
8.876945
9.350746
9.814219
10.2606
10.69566
11.1506
11.69452
12.44939
13.62906
15.66572
19.7548
31.13766
104.6356
107.1859
33.63553
19.12111
13.08791
10.05385
8.287668
7.154928
6.384107
5.836174
5.433686
5.130784
4.898926
4.719572
4.580224
4.472161
4.389106
4.326401
4.280521
4.248741
4.228926
4.219483
4.219046
4.226577
4.241114
4.262068
4.289604
4.324551
4.368071
4.421182
4.484576
4.558926
4.644971
4.743526
4.855504
4.982012
5.124249
5.283543
5.461551
5.660269
5.882408
6.132705
6.417035
6.739749
7.102707
7.504287
7.938947
8.397745
8.869484
9.342179
9.804768
10.25059
10.68542
11.14038
11.6845
12.43972
13.61996
15.65752
19.74851
31.13722
104.6469
107.6198
33.90527
19.29593
13.14213
10.04265
8.245106
7.094906
6.315295
5.764124
5.361992
5.061741
4.833953
4.659484
4.525408
4.422706
4.344886
4.287149
4.245885
4.21829
4.202236
4.19612
4.198459
4.208088
4.224086
4.246149
4.274797
4.311053
4.356024
4.410546
4.475226
4.550728
4.637783
4.737203
4.849903
4.977001
5.119702
5.279321
5.457518
5.656287
5.878261
6.128206
6.412164
6.734518
7.097074
7.498113
7.932019
8.38986
8.86056
9.332315
9.794231
10.23973
10.67457
11.12978
11.67429
12.43001
13.61093
15.64947
19.74256
31.13762
104.6601
108.0536
34.14595
19.46117
13.1946
10.03228
8.205169
7.038985
6.251721
5.698097
5.296775
4.999353
4.775587
4.605782
4.476638
4.378876
4.305831
4.25259
4.215451
4.191603
4.178861
4.175565
4.180114
4.191252
4.208173
4.230986
4.260516
4.297903
4.344126
4.399815
4.465562
4.542019
4.629911
4.730047
4.84334
4.970918
5.113985
5.27385
5.452171
5.650941
5.872728
6.122326
6.40592
6.72791
7.09005
7.490535
7.923691
8.380618
8.850373
9.321336
9.782758
10.2281
10.66307
11.11856
11.66337
12.41942
13.6007
15.63971
19.73402
31.13497
104.6667
108.4666
34.35051
19.61259
13.24277
10.02192
8.167867
6.987515
6.193823
5.638498
5.238355
4.943837
4.723955
4.558524
4.433922
4.340657
4.271916
4.222693
4.189223
4.168662
4.158814
4.157817
4.163927
4.175886
4.193262
4.216573
4.246854
4.285212
4.332454
4.3891
4.455723
4.532965
4.621542
4.72226
4.836029
4.963981
5.107321
5.267352
5.445731
5.644448
5.866023
6.115279
6.398509
6.720124
7.081825
7.481731
7.914131
8.370179
8.839077
9.309384
9.770482
10.21586
10.65113
11.10705
11.6523
12.40876
13.59052
15.6302
19.7259
31.13068
104.6791
108.8866
34.55123
19.75821
13.28979
10.0136
8.135145
6.94207
6.14281
5.586229
5.187397
4.895674
4.679394
4.517942
4.397416
4.308142
4.243189
4.197479
4.167228
4.149554
4.142216
4.142851
4.149785
4.161958
4.17942
4.203029
4.233925
4.273086
4.321128
4.378533
4.445856
4.523725
4.612847
4.714023
4.828157
4.956385
5.099908
5.260025
5.438393
5.636999
5.858331
6.107239
6.390099
6.711319
7.072547
7.471837
7.903462
8.358651
8.82676
9.29652
9.757425
10.20296
10.63862
11.09499
11.64061
12.39732
13.57926
15.61923
19.7159
31.12478
104.6889
109.292
34.72908
19.89684
13.33727
10.0092
8.107105
6.902781
6.098895
5.541486
5.144016
4.854889
4.641857
4.483941
4.367012
4.28125
4.219634
4.177025
4.149584
4.134387
4.128851
4.130404
4.137417
4.14931
4.166606
4.190365
4.221732
4.261527
4.31019
4.368187
4.436055
4.514411
4.603952
4.705472
4.81987
4.948281
5.091903
5.252031
5.430319
5.628752
5.849802
6.098347
6.380819
6.701613
7.062325
7.460954
7.89178
8.346128
8.813516
9.282843
9.743701
10.18955
10.62574
11.08267
11.62873
12.38574
13.56796
15.60839
19.70622
31.1188
104.704
109.7046
34.88747
20.02579
13.38174
10.00796
8.086128
6.871304
6.063086
5.504855
5.108532
4.821634
4.611393
4.456515
4.342677
4.259934
4.20119
4.161276
4.136344
4.123061
4.118503
4.12009
4.126532
4.137801
4.154781
4.178618
4.210333
4.250568
4.299683
4.358118
4.426393
4.50511
4.594956
4.696716
4.811284
4.939791
5.083432
5.243497
5.421639
5.61984
5.840564
6.088715
6.370768
6.691097
7.051242
7.449166
7.879174
8.332702
8.799437
9.268435
9.729363
10.17563
10.61241
11.06989
11.61632
12.3735
13.5558
15.59643
19.69507
31.11146
104.7153
110.125
35.03302
20.15118
13.43185
10.00939
8.069312
6.846801
6.035064
5.476113
5.080726
4.795687
4.587786
4.435467
4.324248
4.244094
4.187864
4.150352
4.127387
4.115212
4.11074
4.111565
4.116946
4.127364
4.143923
4.167751
4.199695
4.240216
4.289637
4.348375
4.416932
4.495896
4.585943
4.687848
4.8025
4.931024
5.074609
5.234543
5.412476
5.610389
5.830741
6.078465
6.360067
6.67989
7.039423
7.436599
7.86577
8.318498
8.78464
9.2534
9.714504
10.16129
10.59875
11.05686
11.60372
12.36114
13.54359
15.58451
19.68398
31.1034
104.7297
110.549
35.16102
20.26737
13.48492
10.01375
8.056302
6.829441
6.015448
5.45588
5.061035
4.777281
4.571111
4.420772
4.31166
4.233663
4.179579
4.144132
4.122489
4.110524
4.105148
4.104573
4.10857
4.118013
4.134077
4.157798
4.189843
4.230514
4.280111
4.339031
4.407758
4.486866
4.57702
4.678986
4.793642
4.922108
5.065569
5.225306
5.402968
5.600531
5.820466
6.067731
6.348845
6.668118
7.026983
7.423363
7.851671
8.30361
8.769207
9.237801
9.699161
10.14654
10.58472
11.04345
11.59069
12.34822
13.53066
15.57162
19.67152
31.09256
104.7377
110.9858
35.29036
20.38566
13.54601
10.02463
8.050047
6.81761
6.001759
5.441971
5.047791
4.76524
4.560629
4.412106
4.305009
4.2292
4.177335
4.143262
4.121766
4.108799
4.10164
4.099127
4.101495
4.109866
4.125359
4.14886
4.180868
4.221558
4.271209
4.330198
4.398991
4.478146
4.568317
4.670258
4.784843
4.91318
5.056446
5.215918
5.393242
5.590393
5.809859
6.056625
6.337207
6.655871
7.014005
7.409532
7.836947
8.288102
8.753194
9.221684
9.683367
10.13139
10.57034
11.02973
11.57738
12.33508
13.51757
15.55879
19.65945
31.08155
104.7473
111.4141
35.40049
20.49701
13.61082
10.04185
8.050407
6.817121
5.999308
5.438421
5.044024
4.761934
4.558245
4.410895
4.305006
4.230164
4.179198
4.145366
4.123283
4.108886
4.099518
4.09488
4.095582
4.102883
4.117789
4.140991
4.172822
4.213411
4.263007
4.321961
4.390723
4.469834
4.559934
4.661768
4.776205
4.904342
5.047343
5.206481
5.383397
5.580067
5.799007
6.045224
6.325213
6.6432
7.000531
7.395143
7.821632
8.272006
8.736626
9.205068
9.667136
10.11586
10.55561
11.01564
11.56364
12.32137
13.50375
15.54502
19.64635
31.07123
104.7499
111.8518
35.5146
20.61146
13.68256
10.06549
8.056412
6.818916
6.000256
5.439177
5.044764
4.76286
4.559643
4.413145
4.308705
4.236138
4.186108
4.151724
4.127852
4.110777
4.098808
4.091801
4.090845
4.097071
4.111342
4.134159
4.165712
4.206098
4.255537
4.314362
4.383002
4.461981
4.551925
4.653565
4.767782
4.895659
5.038325
5.197057
5.373496
5.569621
5.787973
6.033579
6.312906
6.630141
6.986597
7.380244
7.805784
8.255389
8.719581
9.188032
9.650541
10.10001
10.54056
11.00123
11.54958
12.30739
13.48976
15.53132
19.63399
31.06401
104.7538
112.2786
35.61425
20.72316
13.75977
10.09685
8.071101
6.830412
6.00976
5.447535
5.052713
4.77094
4.568297
4.42286
4.319973
4.247861
4.197177
4.161131
4.134615
4.1144
4.09935
4.089955
4.087335
4.092458
4.106025
4.128363
4.15954
4.199624
4.248813
4.307418
4.37585
4.454617
4.544328
4.645695
4.759626
4.887184
5.029443
5.187697
5.363594
5.559113
5.776818
6.021754
6.300354
6.616764
6.972281
7.364912
7.78948
8.238324
8.702116
9.170613
9.633593
10.08381
10.52517
10.98648
11.53516
12.293
13.47523
15.51674
19.61995
31.05389
104.7569
112.7147
35.71481
20.83397
13.84082
10.13485
8.092808
6.848702
6.026258
5.462762
5.067208
4.785295
4.583181
4.438991
4.336765
4.264028
4.211689
4.173024
4.143151
4.119405
4.101238
4.089429
4.085108
4.089074
4.101854
4.123617
4.154322
4.194012
4.242863
4.301163
4.369305
4.447782
4.537189
4.638233
4.751835
4.878985
5.020741
5.178456
5.353758
5.548617
5.765626
6.009838
6.287646
6.603158
6.957663
7.349226
7.772799
8.220886
8.684303
9.152879
9.616355
10.06734
10.5095
10.97143
11.52046
12.27837
13.46057
15.50227
19.60625
31.04504
104.7619
113.151
35.82598
20.95004
13.9309
10.18583
8.121775
6.871946
6.048648
5.484129
5.087889
4.805912
4.604503
4.461115
4.358472
4.284086
4.229163
4.187016
4.153184
4.125621
4.104257
4.090027
4.084095
4.0869
4.098839
4.119944
4.150093
4.189307
4.23774
4.295659
4.363439
4.441557
4.530594
4.631247
4.744422
4.871093
5.012313
5.169432
5.344075
5.538208
5.754459
5.997887
6.274827
6.589359
6.942777
7.333214
7.75576
8.203081
8.666131
9.134793
9.59876
10.05049
10.4934
10.9559
11.50517
12.26302
13.44497
15.48657
19.59089
31.03267
104.7626
113.585
35.92041
21.0626
14.02546
10.24573
8.157843
6.900901
6.076586
5.511152
5.114426
4.832675
4.632398
4.488826
4.384397
4.307415
4.249034
4.202739
4.164576
4.133081
4.108555
4.091995
4.084397
4.086025
4.097042
4.11739
4.146897
4.185554
4.233491
4.290953
4.358298
4.435985
4.524584
4.624775
4.737454
4.86358
5.004198
5.160658
5.334579
5.527924
5.743354
5.985931
6.261925
6.575391
6.927642
7.316896
7.738383
8.184933
8.647627
9.116395
9.580876
10.03336
10.47705
10.94012
11.48964
12.24742
13.42914
15.47063
19.57582
31.01972
104.7641
114.0313
36.02509
21.17683
14.12589
10.31448
8.201615
6.936207
6.110285
5.543931
5.147132
4.866532
4.666094
4.52072
4.413786
4.333487
4.27095
4.219998
4.177256
4.141784
4.114133
4.095274
4.086031
4.086392
4.096443
4.115948
4.144732
4.182753
4.230116
4.287047
4.353883
4.431068
4.519157
4.618817
4.730931
4.856446
4.996404
5.152146
5.325286
5.517784
5.73233
5.973981
6.248944
6.561258
6.912268
7.300287
7.720694
8.166478
8.628836
9.097733
9.56274
10.01598
10.46042
10.92402
11.47375
12.23145
13.4129
15.45407
19.55931
31.00338
104.7578
114.4733
36.12389
21.29136
14.23238
10.39133
8.252597
6.978078
6.150179
5.58302
5.186903
4.906375
4.704319
4.556391
4.446236
4.361878
4.294557
4.238561
4.191102
4.151674
4.120968
4.099861
4.088866
4.087963
4.096936
4.115562
4.143549
4.180863
4.227581
4.28391
4.350168
4.426784
4.514297
4.613363
4.724849
4.849695
4.988934
5.143903
5.316209
5.507807
5.721409
5.962062
6.235919
6.547005
6.896713
7.283459
7.702773
8.147799
8.609838
9.078877
9.544408
9.99838
10.44354
10.90764
11.45758
12.21521
13.39644
15.43734
19.5424
30.98612
104.7486
114.9222
36.21974
21.40271
14.34108
10.47434
8.311613
7.02601
6.195378
5.628421
5.232798
4.951081
4.746443
4.595297
4.481186
4.392089
4.319496
4.258213
4.205993
4.16266
4.128957
4.105617
4.092919
4.090698
4.098554
4.116169
4.143319
4.179854
4.225861
4.281523
4.347139
4.423123
4.51
4.608413