/*--------------------------------*- C++ -*----------------------------------*\
| =========                 |                                                 |
| \\      /  F ield         | OpenFOAM: The Open Source CFD Toolbox           |
|  \\    /   O peration     | Version:  2312                                  |
|   \\  /    A nd           | Website:  www.openfoam.com                      |
|    \\/     M anipulation  |                                                 |
\*---------------------------------------------------------------------------*/
FoamFile
{
    version     2.0;
    format      ascii;
    arch        "LSB;label=32;scalar=64";
    class       volScalarField;
    location    "3450";
    object      qin;
}
// * * * * * * * * * * * * * * * * * * * * * * * * * * * * * * * * * * * * * //

dimensions      [1 0 -3 0 0 0 0];

internalField   uniform 0;

boundaryField
{
    plate
    {
        type            calculated;
        value           nonuniform List<scalar> 
200
(
2087.773
2075.314
2066.751
2043.518
2007.991
1980.122
1971.901
1980.429
1995.827
2010.238
2019.378
2020.581
2012.755
1997.992
1981.723
1970.455
1968.768
1977.489
1993.618
2011.771
2026.566
2034.943
2037.178
2036.063
2034.965
2036.076
2039.734
2044.773
2049.362
2051.873
2051.531
2048.754
2045.06
2042.515
2042.864
2046.768
2053.536
2061.493
2068.745
2073.954
2076.775
2077.859
2078.474
2079.956
2083.185
2088.291
2094.67
2101.267
2106.986
2111.069
2113.286
2113.923
2113.585
2112.924
2112.409
2112.229
2112.326
2112.542
2112.762
2113.004
2113.412
2114.171
2115.4
2117.075
2119.019
2120.961
2122.63
2123.842
2124.554
2124.849
2124.89
2124.848
2124.843
2124.918
2125.042
2125.145
2125.15
2125.004
2124.692
2124.237
2123.683
2123.083
2122.492
2121.955
2121.512
2121.203
2121.065
2121.142
2121.475
2122.1
2123.041
2124.299
2125.853
2127.653
2129.625
2131.679
2133.718
2135.645
2137.378
2138.85
2140.017
2140.86
2141.384
2141.617
2141.611
2141.433
2141.165
2140.895
2140.705
2140.663
2140.816
2141.184
2141.763
2142.531
2143.454
2144.494
2145.617
2146.787
2147.966
2149.108
2150.159
2151.067
2151.792
2152.326
2152.706
2153.013
2153.352
2153.815
2154.447
2155.214
2156.005
2156.667
2157.058
2157.109
2156.852
2156.412
2155.954
2155.604
2155.391
2155.238
2155.011
2154.619
2154.113
2153.722
2153.808
2154.717
2156.594
2159.24
2162.075
2164.264
2164.973
2163.665
2160.34
2155.597
2150.493
2146.208
2143.605
2142.851
2143.243
2143.393
2141.804
2137.659
2131.508
2125.445
2122.528
2125.575
2135.819
2152.077
2170.92
2187.849
2198.98
2202.524
2199.425
2192.93
2187.271
2185.923
2189.985
2197.279
2202.787
2200.852
2188.753
2169.871
2153.823
2152.075
2171.033
2207.495
2250.352
2287.23
2310.456
2318.055
2311.264
2293.719
2274.913
2273.221
2308.671
2384.016
2474.374
2548.218
2614.236
2731.947
)
;
    }
    riser
    {
        type            calculated;
        value           nonuniform List<scalar> 
200
(
3753.673
3789.164
3879.283
4056.668
4275.518
4449.85
4542.689
4556.477
4516.53
4487.45
4518.829
4583.908
4638.522
4696.123
4794.939
4929.738
5049.624
5111.905
5117.56
5098.64
5084.776
5083.427
5084.79
5078.586
5064.287
5048.927
5039.999
5041.931
5058.085
5093.332
5151.567
5230.001
5317.612
5400.086
5465.727
5508.331
5527.465
5527.635
5516.683
5503.009
5492.518
5487.024
5484.911
5483.318
5480.211
5475.326
5469.936
5465.956
5464.961
5467.507
5472.972
5479.929
5486.814
5492.554
5496.853
5500.08
5502.89
5505.82
5509.044
5512.356
5515.324
5517.526
5518.727
5518.97
5518.541
5517.847
5517.272
5517.066
5517.306
5517.912
5518.7
5519.455
5520.009
5520.278
5520.281
5520.125
5519.976
5520.019
5520.413
5521.262
5522.593
5524.355
5526.428
5528.629
5530.72
5532.427
5533.459
5533.521
5532.348
5529.738
5525.594
5519.961
5513.04
5505.188
5496.892
5488.727
5481.289
5475.145
5470.77
5468.508
5468.545
5470.897
5475.414
5481.807
5489.666
5498.5
5507.786
5517.007
5525.699
5533.479
5540.078
5545.341
5549.229
5551.794
5553.159
5553.486
5552.958
5551.768
5550.112
5548.199
5546.246
5544.474
5543.084
5542.224
5541.957
5542.24
5542.929
5543.823
5544.726
5545.523
5546.204
5546.865
5547.653
5548.685
5549.978
5551.425
5552.839
5554.041
5554.952
5555.631
5556.236
5556.904
5557.611
5558.084
5557.859
5556.475
5553.759
5550.07
5546.365
5543.983
5544.185
5547.577
5553.65
5560.686
5566.177
5567.75
5564.334
5557.117
5549.739
5547.369
5554.722
5573.673
5601.525
5630.94
5651.873
5654.866
5634.318
5590.382
5528.843
5459.331
5392.667
5338.146
5301.216
5282.085
5275.992
5275.308
5272.777
5265.388
5258.174
5264.392
5298.456
5363.739
5441.397
5489.405
5461.661
5340.664
5158.135
4981.841
4870.274
4829.952
4825.212
4840.91
4916.193
5060.914
5146.91
4978.827
4584.434
4288.715
4213.016
4218.899
)
;
    }
    topAndBottom
    {
        type            calculated;
        value           nonuniform List<scalar> 
120
(
6007.58
5411.684
5021.859
4782.234
4608.719
4479.429
4387.929
4321.458
4267.894
4221.856
4182.91
4151.42
4126.476
4106.206
4088.838
4073.298
4059.153
4046.305
4034.74
4024.376
4014.983
4006.165
3997.436
3988.37
3978.732
3968.498
3957.784
3946.737
3935.466
3924.044
3912.559
3901.169
3890.123
3879.733
3870.299
3862.005
3854.823
3848.471
3842.465
3836.281
3829.539
3822.138
3814.272
3806.352
3798.906
3792.458
3787.338
3783.339
3779.38
3773.54
3763.797
3749.36
3731.779
3714.662
3701.384
3691.827
3681.348
3664.309
3643.136
3623.017
4023.374
4037.821
4044.829
4051.645
4040.405
4000.698
3949.422
3910.329
3893.602
3895.585
3907.993
3923.564
3936.762
3943.431
3941.164
3929.789
3911.229
3888.795
3866.242
3846.865
3832.798
3824.663
3821.678
3822.128
3824
3825.537
3825.561
3823.536
3819.437
3813.558
3806.319
3798.15
3789.434
3780.487
3771.529
3762.639
3753.701
3744.399
3734.31
3723.104
3710.773
3697.758
3684.876
3673.053
3662.979
3654.853
3648.268
3642.247
3635.418
3626.401
3614.442
3600.029
3584.987
3571.592
3560.889
3551.277
3539.146
3521.772
3502.706
3484.11
)
;
    }
    frontAndBack
    {
        type            empty;
    }
}


// ************************************************************************* //
