/*--------------------------------*- C++ -*----------------------------------*\
| =========                 |                                                 |
| \\      /  F ield         | OpenFOAM: The Open Source CFD Toolbox           |
|  \\    /   O peration     | Version:  2312                                  |
|   \\  /    A nd           | Website:  www.openfoam.com                      |
|    \\/     M anipulation  |                                                 |
\*---------------------------------------------------------------------------*/
FoamFile
{
    version     2.0;
    format      ascii;
    arch        "LSB;label=32;scalar=64";
    class       volVectorField;
    location    "3450";
    object      U;
}
// * * * * * * * * * * * * * * * * * * * * * * * * * * * * * * * * * * * * * //

dimensions      [0 1 -1 0 0 0 0];

internalField   nonuniform List<vector> 
12000
(
(-0.02980962 0.07085757 0)
(-0.07295139 0.07729551 0)
(-0.1224489 0.08348669 0)
(-0.1758234 0.07857422 0)
(-0.2231774 0.06818681 0)
(-0.2685234 0.07430332 0)
(-0.3151522 0.09202447 0)
(-0.365155 0.09403592 0)
(-0.4082564 0.06421143 0)
(-0.4422634 0.04751456 0)
(-0.4748483 0.05811243 0)
(-0.5102901 0.07830658 0)
(-0.5482614 0.0639513 0)
(-0.576124 0.03013607 0)
(-0.5968723 0.02300139 0)
(-0.6188002 0.0499518 0)
(-0.6470887 0.05939282 0)
(-0.6708839 0.0328795 0)
(-0.6864958 0.01136698 0)
(-0.6995317 0.02442191 0)
(-0.7175561 0.04168647 0)
(-0.7353672 0.03171354 0)
(-0.7478076 0.01077614 0)
(-0.7558014 0.008341756 0)
(-0.7652457 0.01970324 0)
(-0.7758428 0.02215703 0)
(-0.7847027 0.01053001 0)
(-0.7894759 -0.0002312356 0)
(-0.7926783 0.002028601 0)
(-0.7968154 0.009507189 0)
(-0.8016063 0.006921118 0)
(-0.803626 -0.0005581608 0)
(-0.8036876 -0.005712863 0)
(-0.8021735 -0.01150353 0)
(-0.7992084 -0.002019431 0)
(-0.7997249 0.01085668 0)
(-0.7995409 0.008624069 0)
(-0.7966597 -0.02232386 0)
(-0.7843141 -0.04676386 0)
(-0.7703825 -0.02483601 0)
(-0.7646455 0.01734586 0)
(-0.7637045 0.009041464 0)
(-0.7509471 -0.05494014 0)
(-0.7260754 -0.08808025 0)
(-0.6980574 -0.0265201 0)
(-0.6925242 0.06043077 0)
(-0.6909547 0.02396888 0)
(-0.6699258 -0.1178872 0)
(-0.6165174 -0.1467148 0)
(-0.5848961 0.002570903 0)
(-0.5767739 0.06852221 0)
(-0.5546001 -0.0837056 0)
(-0.4928868 -0.1825888 0)
(-0.4369911 -0.07433698 0)
(-0.4026541 -0.001966571 0)
(-0.3541641 -0.08813376 0)
(-0.2860306 -0.156842 0)
(-0.2075979 -0.1317649 0)
(-0.1195315 -0.1134998 0)
(-0.0488056 -0.1278354 0)
(-0.03005328 0.2108419 0)
(-0.07236524 0.2016169 0)
(-0.1217989 0.2089618 0)
(-0.1640159 0.2093601 0)
(-0.2108704 0.1988611 0)
(-0.2525702 0.1889372 0)
(-0.2915128 0.1830554 0)
(-0.3178844 0.1767065 0)
(-0.3545757 0.1539507 0)
(-0.3858847 0.1460602 0)
(-0.4188838 0.1366603 0)
(-0.442499 0.1333142 0)
(-0.4625718 0.1241482 0)
(-0.4846972 0.1101554 0)
(-0.5104142 0.09974236 0)
(-0.5311445 0.09495487 0)
(-0.54419 0.08988865 0)
(-0.5565995 0.08045664 0)
(-0.5734026 0.0710179 0)
(-0.5897269 0.06539916 0)
(-0.599952 0.06140949 0)
(-0.606956 0.05542735 0)
(-0.6162093 0.0480499 0)
(-0.6270158 0.04224352 0)
(-0.6351222 0.0382676 0)
(-0.6397575 0.03418288 0)
(-0.6439027 0.02893215 0)
(-0.6494263 0.02358728 0)
(-0.6548601 0.01952956 0)
(-0.6577424 0.01651427 0)
(-0.6584021 0.0130504 0)
(-0.659527 0.007910296 0)
(-0.6605664 0.002359369 0)
(-0.6610394 -0.002338416 0)
(-0.6608383 -0.004603982 0)
(-0.656306 -0.0094679 0)
(-0.6484775 -0.01464016 0)
(-0.6422898 -0.02167899 0)
(-0.6410291 -0.02782716 0)
(-0.6396678 -0.03175953 0)
(-0.6293022 -0.03523407 0)
(-0.6117749 -0.04262631 0)
(-0.5994015 -0.05369817 0)
(-0.5969848 -0.06292917 0)
(-0.5915822 -0.06988523 0)
(-0.5671914 -0.07621253 0)
(-0.5270935 -0.08572102 0)
(-0.5103184 -0.09523201 0)
(-0.507997 -0.1064866 0)
(-0.4958498 -0.121518 0)
(-0.4436421 -0.1391852 0)
(-0.397642 -0.1515309 0)
(-0.384374 -0.1649808 0)
(-0.3707095 -0.1850794 0)
(-0.3225363 -0.2225803 0)
(-0.2606938 -0.2477122 0)
(-0.2284598 -0.2697941 0)
(-0.175139 -0.3313031 0)
(-0.1110953 -0.3594812 0)
(-0.046433 -0.3737274 0)
(-0.02919955 0.3573701 0)
(-0.0572717 0.3439295 0)
(-0.1023971 0.3388602 0)
(-0.1342568 0.3305482 0)
(-0.1698024 0.3154102 0)
(-0.2015087 0.2973512 0)
(-0.2311389 0.2794274 0)
(-0.2615228 0.2623681 0)
(-0.2821585 0.2569716 0)
(-0.3147285 0.2291746 0)
(-0.3364028 0.2134919 0)
(-0.3587708 0.1984816 0)
(-0.3772021 0.1825768 0)
(-0.3948966 0.1671122 0)
(-0.4120153 0.1535538 0)
(-0.4277181 0.1417473 0)
(-0.4414299 0.1301263 0)
(-0.4541351 0.1183528 0)
(-0.4665363 0.1073873 0)
(-0.478104 0.09788491 0)
(-0.4881578 0.08887702 0)
(-0.496987 0.07966695 0)
(-0.5052572 0.07062438 0)
(-0.5129756 0.06245564 0)
(-0.5196894 0.05500464 0)
(-0.5252638 0.04762826 0)
(-0.5299896 0.04012086 0)
(-0.5340976 0.03283671 0)
(-0.5374249 0.0260865 0)
(-0.5395961 0.01966999 0)
(-0.5411169 0.01285552 0)
(-0.5416373 0.007775979 0)
(-0.5414739 -0.001215379 0)
(-0.5404827 -0.008648062 0)
(-0.5383187 -0.01568117 0)
(-0.5349651 -0.02295642 0)
(-0.5306411 -0.03106088 0)
(-0.5255905 -0.04025298 0)
(-0.519985 -0.04977174 0)
(-0.5131621 -0.0587219 0)
(-0.5044126 -0.06763035 0)
(-0.4939867 -0.07805889 0)
(-0.483006 -0.09018839 0)
(-0.4716261 -0.1029461 0)
(-0.4588505 -0.1152464 0)
(-0.4437478 -0.1280517 0)
(-0.4266712 -0.1432597 0)
(-0.4087048 -0.1602489 0)
(-0.3884435 -0.1776836 0)
(-0.3666726 -0.1934428 0)
(-0.3433006 -0.2128591 0)
(-0.3207383 -0.2312749 0)
(-0.2917462 -0.2470817 0)
(-0.2636122 -0.2669662 0)
(-0.2254183 -0.3081638 0)
(-0.1911338 -0.3538125 0)
(-0.152859 -0.3991633 0)
(-0.1159056 -0.4478302 0)
(-0.06877971 -0.508779 0)
(-0.02964659 -0.5370705 0)
(-0.02084865 0.459708 0)
(-0.04477268 0.4358856 0)
(-0.07644129 0.4248336 0)
(-0.1014826 0.4102635 0)
(-0.127667 0.3921398 0)
(-0.1517813 0.372026 0)
(-0.1752226 0.3521375 0)
(-0.1975435 0.3320424 0)
(-0.2182258 0.3131914 0)
(-0.2335158 0.2960364 0)
(-0.25476 0.2711983 0)
(-0.2715238 0.2523616 0)
(-0.2906148 0.2302582 0)
(-0.306264 0.2118422 0)
(-0.3211927 0.1955398 0)
(-0.3350156 0.1806021 0)
(-0.3474002 0.1665916 0)
(-0.3591375 0.1529915 0)
(-0.3704395 0.1397462 0)
(-0.3809178 0.127202 0)
(-0.3902666 0.1153149 0)
(-0.3984167 0.1040507 0)
(-0.4057676 0.09320568 0)
(-0.4123331 0.08279468 0)
(-0.4180466 0.07276814 0)
(-0.4228935 0.06300305 0)
(-0.426952 0.053399 0)
(-0.4302733 0.04394575 0)
(-0.4326863 0.03470679 0)
(-0.4347012 0.0256272 0)
(-0.4358286 0.01874087 0)
(-0.4359942 0.008216518 0)
(-0.4351949 -0.001733592 0)
(-0.4339693 -0.01153774 0)
(-0.4318215 -0.02141417 0)
(-0.4288168 -0.03154376 0)
(-0.4249262 -0.0421539 0)
(-0.42021 -0.05326668 0)
(-0.4147364 -0.06487276 0)
(-0.4083722 -0.07696889 0)
(-0.4009315 -0.08968159 0)
(-0.3921936 -0.1032915 0)
(-0.3829333 -0.1176051 0)
(-0.3729001 -0.1331334 0)
(-0.3615075 -0.1498228 0)
(-0.3487136 -0.1675578 0)
(-0.3345275 -0.1864725 0)
(-0.3194672 -0.2070208 0)
(-0.3019955 -0.2292057 0)
(-0.2850675 -0.2466596 0)
(-0.2665541 -0.2686671 0)
(-0.2447806 -0.2992223 0)
(-0.2180635 -0.3385028 0)
(-0.1898202 -0.3764834 0)
(-0.160627 -0.4134979 0)
(-0.1331806 -0.4508405 0)
(-0.1051483 -0.4938354 0)
(-0.07711523 -0.5479513 0)
(-0.04626073 -0.6101223 0)
(-0.01819897 -0.6446889 0)
(-0.01521492 0.542432 0)
(-0.0357071 0.5132125 0)
(-0.05995713 0.4966846 0)
(-0.08057054 0.4777093 0)
(-0.1013124 0.4560385 0)
(-0.1205206 0.432361 0)
(-0.1390383 0.4077606 0)
(-0.1558377 0.3824768 0)
(-0.1727008 0.3564752 0)
(-0.1863463 0.3349579 0)
(-0.2013287 0.3159804 0)
(-0.212294 0.299706 0)
(-0.2280145 0.2759488 0)
(-0.2404064 0.25399 0)
(-0.2528303 0.23396 0)
(-0.2638434 0.2150716 0)
(-0.2746892 0.1971067 0)
(-0.2834892 0.1835579 0)
(-0.2927092 0.168625 0)
(-0.3004494 0.1543742 0)
(-0.3081691 0.1383687 0)
(-0.3146544 0.1239725 0)
(-0.3205757 0.1105139 0)
(-0.3257473 0.09770504 0)
(-0.3302143 0.08536208 0)
(-0.3339874 0.07335608 0)
(-0.3370939 0.06159279 0)
(-0.3395308 0.05000652 0)
(-0.3414145 0.03854412 0)
(-0.3425477 0.02947413 0)
(-0.3429444 0.01731759 0)
(-0.3424044 0.005627668 0)
(-0.3415389 -0.006053912 0)
(-0.3400309 -0.01786231 0)
(-0.3377354 -0.02989507 0)
(-0.335004 -0.04218139 0)
(-0.331699 -0.05506181 0)
(-0.3275144 -0.06853269 0)
(-0.32261 -0.08260379 0)
(-0.3169357 -0.09735957 0)
(-0.310648 -0.1129225 0)
(-0.3029108 -0.1294451 0)
(-0.2956142 -0.143697 0)
(-0.2860807 -0.1635553 0)
(-0.2764127 -0.1836789 0)
(-0.2655238 -0.2047167 0)
(-0.2539475 -0.2271764 0)
(-0.2409795 -0.2508032 0)
(-0.2275463 -0.2735482 0)
(-0.2146913 -0.2970173 0)
(-0.1950301 -0.3302112 0)
(-0.1766349 -0.3644573 0)
(-0.1577445 -0.3984588 0)
(-0.1392579 -0.4332244 0)
(-0.1199493 -0.4714083 0)
(-0.09946281 -0.5141588 0)
(-0.07777056 -0.562133 0)
(-0.05590922 -0.6166613 0)
(-0.0335026 -0.6811761 0)
(-0.01227373 -0.7215058 0)
(-0.01085892 0.6057169 0)
(-0.02690378 0.5727292 0)
(-0.04455095 0.5519633 0)
(-0.0600235 0.5300101 0)
(-0.07535387 0.5058967 0)
(-0.08967896 0.4801847 0)
(-0.103562 0.4536758 0)
(-0.1167793 0.4269572 0)
(-0.1298289 0.4005031 0)
(-0.1423021 0.3751935 0)
(-0.1536031 0.3510255 0)
(-0.1649168 0.3286533 0)
(-0.172237 0.3090026 0)
(-0.1836575 0.2852892 0)
(-0.1928519 0.2631405 0)
(-0.202013 0.2426658 0)
(-0.2106482 0.2232976 0)
(-0.218396 0.2052683 0)
(-0.2251853 0.1881015 0)
(-0.2312153 0.171525 0)
(-0.2367481 0.155347 0)
(-0.241926 0.1396779 0)
(-0.2465645 0.1246159 0)
(-0.2506307 0.1100928 0)
(-0.2541258 0.09602971 0)
(-0.2570572 0.08234896 0)
(-0.2594407 0.06898031 0)
(-0.2612858 0.05586328 0)
(-0.262694 0.04293657 0)
(-0.2633108 0.03018407 0)
(-0.2632416 0.01732519 0)
(-0.2627891 0.004296252 0)
(-0.2620485 -0.008900417 0)
(-0.2609769 -0.02246125 0)
(-0.2591285 -0.03639927 0)
(-0.2570519 -0.0485133 0)
(-0.2541551 -0.06387423 0)
(-0.2508939 -0.07933357 0)
(-0.2470656 -0.09521271 0)
(-0.2427155 -0.1117177 0)
(-0.2378205 -0.1289953 0)
(-0.232458 -0.147093 0)
(-0.2261242 -0.1663819 0)
(-0.2189521 -0.187073 0)
(-0.2114516 -0.2088652 0)
(-0.20353 -0.2320479 0)
(-0.1937797 -0.2561989 0)
(-0.1856497 -0.2796461 0)
(-0.1744952 -0.3074175 0)
(-0.1610941 -0.3402414 0)
(-0.1477281 -0.3740571 0)
(-0.1338964 -0.4087214 0)
(-0.119621 -0.4454828 0)
(-0.1045299 -0.4844557 0)
(-0.08866528 -0.5258338 0)
(-0.07236116 -0.5700844 0)
(-0.05589664 -0.618252 0)
(-0.03975769 -0.6722098 0)
(-0.02347815 -0.733818 0)
(-0.008661157 -0.7731974 0)
(-0.008021627 0.652891 0)
(-0.02034454 0.6162968 0)
(-0.03314578 0.5917965 0)
(-0.04442312 0.5672998 0)
(-0.05551475 0.5410991 0)
(-0.06596654 0.5136327 0)
(-0.07615159 0.4856353 0)
(-0.08600552 0.4577031 0)
(-0.09564725 0.4302969 0)
(-0.1050321 0.4038388 0)
(-0.1138385 0.378295 0)
(-0.1221895 0.3534164 0)
(-0.1305938 0.330416 0)
(-0.1358287 0.310121 0)
(-0.1442265 0.2871382 0)
(-0.1507895 0.2649774 0)
(-0.1573563 0.2440788 0)
(-0.1632679 0.2242247 0)
(-0.1686134 0.2051757 0)
(-0.1734224 0.1868236 0)
(-0.1777495 0.1690486 0)
(-0.1816426 0.1518864 0)
(-0.1850978 0.135315 0)
(-0.1881124 0.1192833 0)
(-0.1906883 0.1037283 0)
(-0.1928295 0.08858081 0)
(-0.1945413 0.07376967 0)
(-0.1958269 0.05922454 0)
(-0.1966959 0.04486873 0)
(-0.197129 0.03065542 0)
(-0.197085 0.01637496 0)
(-0.1967948 0.002038087 0)
(-0.1963143 -0.01081727 0)
(-0.1953351 -0.02594477 0)
(-0.1940992 -0.04105925 0)
(-0.1922466 -0.056405 0)
(-0.1898664 -0.07231153 0)
(-0.1873016 -0.08874905 0)
(-0.1843542 -0.1058299 0)
(-0.1810179 -0.1236648 0)
(-0.1772596 -0.1423763 0)
(-0.1730503 -0.162086 0)
(-0.1683463 -0.1828848 0)
(-0.1631395 -0.205055 0)
(-0.157707 -0.2285988 0)
(-0.1507324 -0.2534982 0)
(-0.1452452 -0.2788894 0)
(-0.1362933 -0.3085983 0)
(-0.1275579 -0.3403785 0)
(-0.1180447 -0.3733758 0)
(-0.1083893 -0.4078318 0)
(-0.09821 -0.443971 0)
(-0.08749883 -0.4818345 0)
(-0.07634799 -0.5215558 0)
(-0.06484121 -0.5634249 0)
(-0.05306889 -0.6079508 0)
(-0.04111886 -0.6560866 0)
(-0.02924649 -0.7096809 0)
(-0.01745279 -0.7714672 0)
(-0.006144686 -0.8137638 0)
(-0.005704514 0.6889686 0)
(-0.01481783 0.6489154 0)
(-0.02371969 0.6209894 0)
(-0.03166288 0.5945288 0)
(-0.03946469 0.5670969 0)
(-0.04690836 0.5389244 0)
(-0.05418851 0.5104813 0)
(-0.06128409 0.482149 0)
(-0.06822404 0.4542305 0)
(-0.0749662 0.4269443 0)
(-0.08141847 0.4003685 0)
(-0.08767442 0.3744411 0)
(-0.09327006 0.3492422 0)
(-0.09948111 0.3253036 0)
(-0.1026781 0.3038809 0)
(-0.1084624 0.2810653 0)
(-0.1128752 0.258687 0)
(-0.1173602 0.2373756 0)
(-0.1213863 0.2170697 0)
(-0.1250507 0.1975478 0)
(-0.1283482 0.1787266 0)
(-0.1313012 0.1605497 0)
(-0.1339143 0.1429681 0)
(-0.1361927 0.1259267 0)
(-0.1381419 0.1093635 0)
(-0.1397676 0.09321188 0)
(-0.141076 0.07740183 0)
(-0.1420729 0.06186023 0)
(-0.1427646 0.04650888 0)
(-0.1431606 0.03126864 0)
(-0.1432129 0.01604701 0)
(-0.143185 0.002185211 0)
(-0.1427928 -0.01331467 0)
(-0.1419335 -0.02899316 0)
(-0.1409356 -0.04490585 0)
(-0.1396424 -0.06112559 0)
(-0.1380769 -0.07787584 0)
(-0.1362549 -0.09519844 0)
(-0.1341555 -0.1132081 0)
(-0.1317703 -0.13202 0)
(-0.1290849 -0.1517607 0)
(-0.1260848 -0.1725631 0)
(-0.1227373 -0.194566 0)
(-0.1190755 -0.2179034 0)
(-0.1147629 -0.2427521 0)
(-0.1107492 -0.268905 0)
(-0.104945 -0.2978944 0)
(-0.09936948 -0.3286087 0)
(-0.0933052 -0.360868 0)
(-0.08690891 -0.3950051 0)
(-0.08001979 -0.4309465 0)
(-0.07259813 -0.4686465 0)
(-0.06467061 -0.5080651 0)
(-0.0563087 -0.5492293 0)
(-0.04761677 -0.5923292 0)
(-0.03871495 -0.6378036 0)
(-0.02973263 -0.686481 0)
(-0.02086273 -0.7398756 0)
(-0.01224313 -0.799819 0)
(-0.004257923 -0.8400487 0)
(-0.004021116 0.7149594 0)
(-0.01034875 0.6719858 0)
(-0.01636343 0.6413862 0)
(-0.02148175 0.6134907 0)
(-0.02646359 0.5852131 0)
(-0.03117026 0.5562579 0)
(-0.03584127 0.527087 0)
(-0.04047956 0.4981252 0)
(-0.04508122 0.4696261 0)
(-0.04961219 0.4417444 0)
(-0.05402155 0.4145614 0)
(-0.05830587 0.3881101 0)
(-0.06245835 0.3624829 0)
(-0.06620073 0.3375857 0)
(-0.07048492 0.3138648 0)
(-0.07267956 0.2922133 0)
(-0.07608707 0.2703202 0)
(-0.0794944 0.2484554 0)
(-0.08242247 0.2272306 0)
(-0.08525768 0.2067437 0)
(-0.08778558 0.1869583 0)
(-0.09003966 0.1678391 0)
(-0.09202832 0.1493406 0)
(-0.09377224 0.131411 0)
(-0.09528349 0.1139885 0)
(-0.09656763 0.09700788 0)
(-0.09762997 0.08039932 0)
(-0.09847544 0.06409066 0)
(-0.09910965 0.04800604 0)
(-0.0995372 0.032066 0)
(-0.09978411 0.01619203 0)
(-0.09977054 0.001334237 0)
(-0.09948822 -0.01475591 0)
(-0.09904559 -0.03105289 0)
(-0.09841991 -0.04761054 0)
(-0.09759389 -0.06453511 0)
(-0.09656663 -0.08194024 0)
(-0.09533999 -0.09993227 0)
(-0.09390585 -0.1186291 0)
(-0.0922574 -0.1381549 0)
(-0.09038613 -0.1586434 0)
(-0.08828569 -0.1802396 0)
(-0.08592706 -0.203103 0)
(-0.08345953 -0.2274237 0)
(-0.08036283 -0.2533824 0)
(-0.07758762 -0.2810215 0)
(-0.07411366 -0.3106479 0)
(-0.07057895 -0.3421022 0)
(-0.0666599 -0.3755667 0)
(-0.06230864 -0.4110473 0)
(-0.05746278 -0.4484507 0)
(-0.05210116 -0.4875549 0)
(-0.04628913 -0.528117 0)
(-0.040158 -0.57004 0)
(-0.03384664 -0.6134778 0)
(-0.02746325 -0.6588677 0)
(-0.02110224 -0.7070764 0)
(-0.01487329 -0.7597354 0)
(-0.008857215 -0.8190888 0)
(-0.00310144 -0.8606717 0)
(-0.002545532 0.7338352 0)
(-0.00712086 0.6874403 0)
(-0.01069917 0.6539276 0)
(-0.01395707 0.6243601 0)
(-0.01687287 0.5949868 0)
(-0.01962536 0.5659048 0)
(-0.0224172 0.5371545 0)
(-0.02519753 0.5085912 0)
(-0.02799926 0.4803561 0)
(-0.03078889 0.452545 0)
(-0.03356794 0.4252462 0)
(-0.03635396 0.398548 0)
(-0.03913994 0.3725407 0)
(-0.04189725 0.3472724 0)
(-0.04446832 0.3226573 0)
(-0.0471136 0.29899 0)
(-0.04908524 0.2767893 0)
(-0.05064248 0.2551519 0)
(-0.05253488 0.233614 0)
(-0.05421899 0.2125933 0)
(-0.05586976 0.1921987 0)
(-0.05743389 0.1724753 0)
(-0.05888666 0.1534557 0)
(-0.06019944 0.1350788 0)
(-0.0613686 0.117221 0)
(-0.06239049 0.09980578 0)
(-0.06326805 0.08275793 0)
(-0.06400588 0.0660057 0)
(-0.06461091 0.04947642 0)
(-0.06508314 0.0330929 0)
(-0.06545174 0.01677659 0)
(-0.06561676 0.001158241 0)
(-0.06559193 -0.01535951 0)
(-0.06547413 -0.03207109 0)
(-0.06523517 -0.04906787 0)
(-0.06487252 -0.06645071 0)
(-0.06438231 -0.08432806 0)
(-0.06376141 -0.1028109 0)
(-0.06300553 -0.1220168 0)
(-0.06211044 -0.1420686 0)
(-0.06107174 -0.1630936 0)
(-0.0598844 -0.1852221 0)
(-0.05855273 -0.2085821 0)
(-0.05703098 -0.2333106 0)
(-0.05550384 -0.2594152 0)
(-0.05359173 -0.2875236 0)
(-0.05170331 -0.3177981 0)
(-0.04951157 -0.3501712 0)
(-0.04708523 -0.3847111 0)
(-0.04427395 -0.4214572 0)
(-0.04096557 -0.4602354 0)
(-0.03710185 -0.5006506 0)
(-0.03283009 -0.5422461 0)
(-0.02834128 -0.5848313 0)
(-0.02380164 -0.6286672 0)
(-0.01924638 -0.6743096 0)
(-0.01472047 -0.7226474 0)
(-0.01028064 -0.7752087 0)
(-0.006026904 -0.8338289 0)
(-0.002048311 -0.8743425 0)
(-0.001818049 0.7470604 0)
(-0.004109829 0.6977593 0)
(-0.006369624 0.6623277 0)
(-0.007018295 0.6317937 0)
(-0.00812453 0.6022581 0)
(-0.009793416 0.572742 0)
(-0.01083365 0.5433716 0)
(-0.0121964 0.5143231 0)
(-0.01353099 0.4857083 0)
(-0.0149451 0.4576509 0)
(-0.01638841 0.4303853 0)
(-0.01785433 0.4039277 0)
(-0.01929954 0.378124 0)
(-0.02070788 0.3529457 0)
(-0.02206451 0.3283743 0)
(-0.02338083 0.3043728 0)
(-0.02467839 0.2810535 0)
(-0.02555475 0.2587956 0)
(-0.0266612 0.2373862 0)
(-0.02771138 0.2166084 0)
(-0.0288576 0.1964249 0)
(-0.02999685 0.1767765 0)
(-0.03130314 0.1575202 0)
(-0.03242511 0.1387153 0)
(-0.03353376 0.1204089 0)
(-0.03455208 0.1025562 0)
(-0.03548485 0.08510115 0)
(-0.03632586 0.06798939 0)
(-0.03707005 0.05114075 0)
(-0.03771501 0.03445523 0)
(-0.03828859 0.0178457 0)
(-0.03870434 0.001653055 0)
(-0.03898486 -0.0151117 0)
(-0.03920875 -0.03207777 0)
(-0.03935405 -0.04933588 0)
(-0.03942358 -0.06698684 0)
(-0.03941682 -0.08513643 0)
(-0.03933389 -0.1038963 0)
(-0.03917459 -0.1233852 0)
(-0.03893818 -0.1437289 0)
(-0.0386229 -0.1650608 0)
(-0.03822242 -0.1875211 0)
(-0.03774572 -0.2112565 0)
(-0.03705543 -0.2364143 0)
(-0.03653981 -0.2631605 0)
(-0.03534606 -0.2918327 0)
(-0.03435764 -0.3224024 0)
(-0.03333376 -0.355183 0)
(-0.03189524 -0.3904606 0)
(-0.03013153 -0.4283997 0)
(-0.02787393 -0.4688253 0)
(-0.02516293 -0.5107169 0)
(-0.02214401 -0.5529906 0)
(-0.01899647 -0.5956138 0)
(-0.01585 -0.6393115 0)
(-0.01277628 -0.6846847 0)
(-0.009756564 -0.7326099 0)
(-0.006823105 -0.7846258 0)
(-0.004042215 -0.8426516 0)
(-0.001400627 -0.8836763 0)
(-0.0006827245 0.7555434 0)
(-0.002148141 0.702661 0)
(-0.001636113 0.6635395 0)
(-0.001684596 0.6317949 0)
(-0.001136056 0.6023111 0)
(-0.0003671859 0.573421 0)
(-0.000266128 0.5447288 0)
(-0.0002470482 0.5164771 0)
(-0.0005601302 0.4886617 0)
(-0.0009603891 0.4612762 0)
(-0.00191131 0.4341581 0)
(-0.002593055 0.4073769 0)
(-0.003525701 0.3811745 0)
(-0.0045269 0.3556147 0)
(-0.00559291 0.3308173 0)
(-0.00669282 0.3068033 0)
(-0.007695866 0.2835351 0)
(-0.008878107 0.2611032 0)
(-0.009677391 0.2396067 0)
(-0.01043587 0.2188178 0)
(-0.01105651 0.1986566 0)
(-0.01170322 0.1790713 0)
(-0.01208121 0.160025 0)
(-0.01275714 0.1413801 0)
(-0.01338634 0.1231518 0)
(-0.01407954 0.1053063 0)
(-0.01478336 0.0877888 0)
(-0.01554746 0.07050764 0)
(-0.01625395 0.05342553 0)
(-0.01694998 0.03650173 0)
(-0.01762479 0.01966182 0)
(-0.01821354 0.003031043 0)
(-0.01871452 -0.01390723 0)
(-0.01921025 -0.03104777 0)
(-0.0196592 -0.04848016 0)
(-0.02007271 -0.06629839 0)
(-0.02044759 -0.08461113 0)
(-0.02078453 -0.1035301 0)
(-0.02108456 -0.1231749 0)
(-0.02134876 -0.1436735 0)
(-0.0215778 -0.1651644 0)
(-0.02177107 -0.1877978 0)
(-0.02192557 -0.2117387 0)
(-0.02203954 -0.2371599 0)
(-0.02203794 -0.2643101 0)
(-0.02210198 -0.2932467 0)
(-0.02198279 -0.3240885 0)
(-0.02129268 -0.3574701 0)
(-0.02067168 -0.39381 0)
(-0.01959654 -0.4330256 0)
(-0.01818472 -0.4744504 0)
(-0.01653488 -0.5170676 0)
(-0.01461416 -0.559932 0)
(-0.01255947 -0.6027934 0)
(-0.01046294 -0.6464176 0)
(-0.008434601 -0.6917866 0)
(-0.006431312 -0.7397555 0)
(-0.004472482 -0.7917917 0)
(-0.002612708 -0.8496415 0)
(-0.0008815462 -0.8902456 0)
(-0.0005740894 0.7598907 0)
(-0.0004950031 0.7030431 0)
(2.469347e-05 0.6627151 0)
(0.001204303 0.6303003 0)
(0.002368216 0.6003766 0)
(0.003696324 0.5715219 0)
(0.004863283 0.5432765 0)
(0.006005498 0.5154697 0)
(0.007037452 0.4880567 0)
(0.00785785 0.4610013 0)
(0.008849485 0.4344449 0)
(0.009088949 0.4086077 0)
(0.009119301 0.3834718 0)
(0.008875835 0.3588576 0)
(0.008177056 0.3345005 0)
(0.00753379 0.3104467 0)
(0.006726714 0.2870253 0)
(0.005895121 0.2642643 0)
(0.005095788 0.2421423 0)
(0.004346305 0.2207647 0)
(0.003643822 0.2001753 0)
(0.003018914 0.1803018 0)
(0.002335941 0.1610915 0)
(0.001800194 0.142499 0)
(0.001240248 0.1243748 0)
(0.0006931744 0.1066517 0)
(0.0001159645 0.08926723 0)
(-0.000396014 0.07215241 0)
(-0.001021275 0.05519243 0)
(-0.001643831 0.03833589 0)
(-0.002306037 0.02151835 0)
(-0.002954353 0.004709105 0)
(-0.003597711 -0.01225091 0)
(-0.004241972 -0.02941075 0)
(-0.004912169 -0.04688898 0)
(-0.005562019 -0.0647662 0)
(-0.006210145 -0.08314131 0)
(-0.006849 -0.1021229 0)
(-0.007479391 -0.1218281 0)
(-0.008101913 -0.1423837 0)
(-0.0087176 -0.1639278 0)
(-0.009327885 -0.1866113 0)
(-0.00993084 -0.2106025 0)
(-0.01054471 -0.236085 0)
(-0.01114826 -0.2632439 0)
(-0.0117128 -0.2924878 0)
(-0.01200873 -0.3242927 0)
(-0.01226208 -0.3586787 0)
(-0.01186495 -0.3957429 0)
(-0.01137167 -0.4355051 0)
(-0.01078477 -0.4774672 0)
(-0.009879548 -0.520816 0)
(-0.008767421 -0.5643681 0)
(-0.007527296 -0.607475 0)
(-0.006230833 -0.6509982 0)
(-0.004974984 -0.6962247 0)
(-0.003757613 -0.7439701 0)
(-0.002589133 -0.7956858 0)
(-0.001511096 -0.8531282 0)
(-0.0005284323 -0.893948 0)
(-0.0002373501 0.7632258 0)
(2.002528e-05 0.7025723 0)
(0.001556087 0.6596333 0)
(0.003438106 0.6260412 0)
(0.005487875 0.5957269 0)
(0.00752369 0.5667886 0)
(0.009444345 0.5386046 0)
(0.01121804 0.5109495 0)
(0.01284216 0.48384 0)
(0.01418486 0.4574422 0)
(0.01526661 0.4318317 0)
(0.01618744 0.4068963 0)
(0.01690629 0.3824924 0)
(0.01737313 0.3584375 0)
(0.0179125 0.3347081 0)
(0.01795107 0.3114277 0)
(0.0177287 0.2885223 0)
(0.01744952 0.2660345 0)
(0.01698152 0.2441747 0)
(0.01642316 0.2229986 0)
(0.01580162 0.2024983 0)
(0.01515002 0.1826229 0)
(0.01448597 0.1633054 0)
(0.01383525 0.1445519 0)
(0.01319797 0.1263358 0)
(0.01256237 0.1085279 0)
(0.01191511 0.09104915 0)
(0.01121408 0.07387599 0)
(0.01052311 0.05695603 0)
(0.00979974 0.04017108 0)
(0.00905481 0.02342767 0)
(0.008293464 0.006639569 0)
(0.007519667 -0.01021274 0)
(0.006700465 -0.02732657 0)
(0.005864433 -0.04476886 0)
(0.005005523 -0.06262197 0)
(0.004135004 -0.08098072 0)
(0.003249856 -0.09994992 0)
(0.002350678 -0.1196434 0)
(0.001436002 -0.1401855 0)
(0.0005040943 -0.1617139 0)
(-0.0004534484 -0.184381 0)
(-0.001440494 -0.2083468 0)
(-0.002437276 -0.2337499 0)
(-0.003385077 -0.2610025 0)
(-0.004228383 -0.2906404 0)
(-0.004937525 -0.3229259 0)
(-0.005427498 -0.3580638 0)
(-0.005818213 -0.3959638 0)
(-0.00591456 -0.4363594 0)
(-0.005599448 -0.4789085 0)
(-0.005297631 -0.5227243 0)
(-0.004780039 -0.5666778 0)
(-0.004164339 -0.6100181 0)
(-0.003411577 -0.6536077 0)
(-0.002692086 -0.698825 0)
(-0.002020314 -0.7465661 0)
(-0.001380995 -0.7982846 0)
(-0.0007966487 -0.8556856 0)
(-0.0002800192 -0.8963482 0)
(-7.132562e-05 0.76493 0)
(0.0008467486 0.6998647 0)
(0.002991098 0.6545045 0)
(0.005456155 0.6200072 0)
(0.008102893 0.589553 0)
(0.01069145 0.5608666 0)
(0.01314677 0.5331529 0)
(0.01540458 0.5061288 0)
(0.01742894 0.4797298 0)
(0.01920708 0.4539355 0)
(0.02075775 0.4287404 0)
(0.02207996 0.4041978 0)
(0.02317686 0.3801867 0)
(0.0240328 0.3566028 0)
(0.02462308 0.3335278 0)
(0.02502116 0.3108707 0)
(0.02546919 0.2885596 0)
(0.02537668 0.2666874 0)
(0.02526976 0.2452465 0)
(0.02494783 0.2243428 0)
(0.02451138 0.2040207 0)
(0.02398449 0.1842609 0)
(0.02339364 0.1650244 0)
(0.02276143 0.1462956 0)
(0.02210751 0.1280741 0)
(0.02143694 0.1103522 0)
(0.02074251 0.0930876 0)
(0.02000822 0.07610381 0)
(0.01922854 0.05926097 0)
(0.01840138 0.04252523 0)
(0.01752903 0.02582916 0)
(0.01661515 0.009096887 0)
(0.01567929 -0.0077578 0)
(0.01470371 -0.02467884 0)
(0.01366644 -0.04207316 0)
(0.01261664 -0.05986888 0)
(0.01154103 -0.07816946 0)
(0.01044303 -0.09707898 0)
(0.009320589 -0.1167087 0)
(0.008167092 -0.1371787 0)
(0.006974359 -0.1586195 0)
(0.005746411 -0.1811602 0)
(0.004500817 -0.2050303 0)
(0.003293084 -0.2306025 0)
(0.002165114 -0.2582295 0)
(0.001161139 -0.2882169 0)
(0.0002779716 -0.3208445 0)
(-0.0004768097 -0.3563159 0)
(-0.00111453 -0.3947331 0)
(-0.001568237 -0.4358863 0)
(-0.001961277 -0.4790542 0)
(-0.002066208 -0.523322 0)
(-0.001902395 -0.5677319 0)
(-0.001605402 -0.6115354 0)
(-0.001269214 -0.6552141 0)
(-0.0009233752 -0.7002637 0)
(-0.0006422278 -0.7478252 0)
(-0.0003962578 -0.7993516 0)
(-0.0002035334 -0.8565573 0)
(-9.207769e-05 -0.8974331 0)
(0.0001288898 0.7653598 0)
(0.001364087 0.6957366 0)
(0.003801542 0.6479154 0)
(0.00664398 0.6124325 0)
(0.009674352 0.5817367 0)
(0.01267246 0.5532077 0)
(0.01554771 0.5258922 0)
(0.01823275 0.4994232 0)
(0.02069022 0.4736698 0)
(0.02289913 0.4485891 0)
(0.02484638 0.4241728 0)
(0.02653128 0.4004372 0)
(0.02793404 0.3772774 0)
(0.02906364 0.3544713 0)
(0.02992224 0.3319003 0)
(0.03058781 0.3096527 0)
(0.03091863 0.2879039 0)
(0.03123445 0.266592 0)
(0.03122014 0.2457049 0)
(0.03103516 0.2253014 0)
(0.03066709 0.2053779 0)
(0.03016333 0.1859114 0)
(0.02955842 0.1668853 0)
(0.02888133 0.1483021 0)
(0.02815518 0.1301667 0)
(0.02739609 0.1124678 0)
(0.02661917 0.09517417 0)
(0.02581799 0.07822696 0)
(0.02498226 0.06154613 0)
(0.02409608 0.04502178 0)
(0.02315769 0.02851192 0)
(0.02216979 0.01191722 0)
(0.0211287 -0.004820231 0)
(0.02003331 -0.02157662 0)
(0.01886745 -0.03887475 0)
(0.01766901 -0.05659586 0)
(0.01643593 -0.07482847 0)
(0.01517241 -0.09366608 0)
(0.01387545 -0.113208 0)
(0.01254398 -0.133556 0)
(0.01118059 -0.1548646 0)
(0.009802441 -0.1773835 0)
(0.008438978 -0.2013863 0)
(0.007125643 -0.2271534 0)
(0.005890063 -0.2550189 0)
(0.00475382 -0.2853197 0)
(0.003737207 -0.3183137 0)
(0.002849767 -0.354139 0)
(0.002083728 -0.3927895 0)
(0.001419952 -0.4341088 0)
(0.0008522768 -0.4777098 0)
(0.0004496821 -0.5227193 0)
(0.0001185568 -0.5677768 0)
(3.331603e-05 -0.6118198 0)
(-3.996594e-06 -0.6555405 0)
(2.07554e-06 -0.700572 0)
(-6.547395e-06 -0.7481263 0)
(-7.820181e-06 -0.7996443 0)
(-1.960371e-05 -0.8568237 0)
(-4.649038e-05 -0.8976099 0)
(0.0001274989 0.7650075 0)
(0.001584511 0.6909922 0)
(0.004276429 0.6406973 0)
(0.007337693 0.6041629 0)
(0.01062852 0.5731843 0)
(0.01389529 0.5448039 0)
(0.01704347 0.5178955 0)
(0.01999799 0.4919946 0)
(0.02271859 0.4669016 0)
(0.02518276 0.4425279 0)
(0.02737974 0.4188342 0)
(0.02931896 0.3958046 0)
(0.03099867 0.3733822 0)
(0.03240964 0.3513669 0)
(0.03353103 0.3296137 0)
(0.03436689 0.3081318 0)
(0.03491191 0.2869564 0)
(0.0352591 0.2662026 0)
(0.03528306 0.2459706 0)
(0.03512997 0.2261445 0)
(0.03476321 0.2066866 0)
(0.03423782 0.1875765 0)
(0.03358764 0.1688097 0)
(0.03284812 0.1504053 0)
(0.03204814 0.1323969 0)
(0.0312063 0.1148078 0)
(0.03033089 0.0976241 0)
(0.02942198 0.08078091 0)
(0.02847781 0.06418305 0)
(0.02749844 0.04772777 0)
(0.0264829 0.03131437 0)
(0.0254341 0.01486054 0)
(0.02433124 -0.00169811 0)
(0.02316238 -0.01824455 0)
(0.02191181 -0.03537828 0)
(0.02061258 -0.05297111 0)
(0.01928247 -0.07109562 0)
(0.01792171 -0.08982698 0)
(0.0165276 -0.1092678 0)
(0.01510442 -0.1295539 0)
(0.01366494 -0.1508591 0)
(0.01222714 -0.1734087 0)
(0.01081236 -0.1974869 0)
(0.009445199 -0.2234206 0)
(0.008154739 -0.2515433 0)
(0.006964031 -0.282157 0)
(0.005887788 -0.3154966 0)
(0.004934028 -0.3516942 0)
(0.004107164 -0.3907399 0)
(0.003407749 -0.432433 0)
(0.002828346 -0.4762779 0)
(0.00235052 -0.5214217 0)
(0.001970368 -0.566738 0)
(0.001696303 -0.6112168 0)
(0.001485429 -0.6551904 0)
(0.001284248 -0.7002426 0)
(0.001043128 -0.7478013 0)
(0.0007820487 -0.7993087 0)
(0.0004830075 -0.8564888 0)
(0.0001382676 -0.8974306 0)
(0.0001437487 0.7644927 0)
(0.001664141 0.6857171 0)
(0.00441617 0.6328873 0)
(0.007596627 0.5952584 0)
(0.01102269 0.5639522 0)
(0.01444024 0.535698 0)
(0.0177438 0.5092002 0)
(0.02085372 0.4838859 0)
(0.02372611 0.459483 0)
(0.02633658 0.4358512 0)
(0.02867533 0.4129102 0)
(0.03074705 0.3906071 0)
(0.03256661 0.3688966 0)
(0.03412633 0.3476661 0)
(0.03540375 0.3267424 0)
(0.03637087 0.3060726 0)
(0.03704274 0.2857328 0)
(0.03737681 0.2657952 0)
(0.03751607 0.2462272 0)
(0.03736889 0.2269982 0)
(0.03701464 0.2080663 0)
(0.03646817 0.1893886 0)
(0.03577095 0.1709488 0)
(0.03496281 0.1527708 0)
(0.03407941 0.1349071 0)
(0.03314726 0.1174096 0)
(0.03218145 0.1002975 0)
(0.03118591 0.08353855 0)
(0.03015725 0.06704836 0)
(0.02909151 0.05070749 0)
(0.02798872 0.03439284 0)
(0.02685679 0.01802444 0)
(0.025686 0.001614533 0)
(0.02447917 -0.01468662 0)
(0.02318312 -0.03163417 0)
(0.02182436 -0.04914254 0)
(0.02044295 -0.06720104 0)
(0.01904128 -0.08586063 0)
(0.01761936 -0.1052255 0)
(0.01617947 -0.1254469 0)
(0.01473062 -0.1467256 0)
(0.01328906 -0.169315 0)
(0.01187615 -0.1935106 0)
(0.01051497 -0.2196326 0)
(0.00922722 -0.2480032 0)
(0.00803084 -0.2789118 0)
(0.006938328 -0.3125748 0)
(0.005955621 -0.3491024 0)
(0.005082379 -0.3884723 0)
(0.00431557 -0.4304987 0)
(0.003654074 -0.4747152 0)
(0.003099014 -0.5202478 0)
(0.002643508 -0.5658529 0)
(0.00226972 -0.6104497 0)
(0.001930947 -0.6543877 0)
(0.001593884 -0.6993275 0)
(0.001238045 -0.7467877 0)
(0.000881218 -0.7982053 0)
(0.0005168811 -0.8552971 0)
(0.0001329169 -0.8961586 0)
(7.330839e-05 0.7638238 0)
(0.001582109 0.6804824 0)
(0.004362503 0.6250372 0)
(0.007574003 0.5862269 0)
(0.01104502 0.5545446 0)
(0.01451508 0.5263954 0)
(0.01787667 0.5002976 0)
(0.02104831 0.4755667 0)
(0.02398498 0.4518537 0)
(0.02666077 0.4289641 0)
(0.02906443 0.406778 0)
(0.0311944 0.3852123 0)
(0.03306054 0.3642003 0)
(0.03467013 0.3436819 0)
(0.03600773 0.3236072 0)
(0.03705298 0.3038526 0)
(0.03778654 0.2843477 0)
(0.03821075 0.2651485 0)
(0.03835115 0.2463014 0)
(0.03822844 0.2277686 0)
(0.03786784 0.2094506 0)
(0.03729687 0.1912794 0)
(0.03655392 0.1732293 0)
(0.03568224 0.1553284 0)
(0.03472257 0.1376491 0)
(0.03370653 0.120273 0)
(0.03265362 0.1032498 0)
(0.03157228 0.08657039 0)
(0.03046335 0.07016368 0)
(0.02932407 0.0539132 0)
(0.02815099 0.03768908 0)
(0.02694224 0.02139716 0)