/*--------------------------------*- C++ -*----------------------------------*\
| =========                 |                                                 |
| \\      /  F ield         | OpenFOAM: The Open Source CFD Toolbox           |
|  \\    /   O peration     | Version:  2312                                  |
|   \\  /    A nd           | Website:  www.openfoam.com                      |
|    \\/     M anipulation  |                                                 |
\*---------------------------------------------------------------------------*/
FoamFile
{
    version     2.0;
    format      ascii;
    arch        "LSB;label=32;scalar=64";
    class       volScalarField;
    location    "4200";
    object      ILambda_0_0;
}
// * * * * * * * * * * * * * * * * * * * * * * * * * * * * * * * * * * * * * //

dimensions      [1 0 -3 0 0 0 0];

internalField   nonuniform List<scalar> 
12000
(
1595.505
743.2401
695.5615
746.0131
756.3939
745.9384
734.7166
727.5558
723.6987
721.7121
720.5807
720.0434
720.6089
722.9567
727.0608
731.7975
735.4047
736.4352
734.4909
730.2761
725.0475
719.9127
715.4167
711.5623
708.1067
704.8635
701.8347
699.1681
697.0314
695.497
694.4888
693.7991
693.1576
692.283
690.97
689.1653
686.9719
684.5697
682.1168
679.7355
677.552
675.7749
674.5776
673.9432
673.6649
673.6484
674.0504
674.9094
675.8423
676.3871
676.3764
676.076
675.2756
673.6044
671.034
667.5803
662.6531
655.5791
645.3755
624.1839
2525.405
1212.323
699.5014
675.0441
733.8732
752.1049
743.395
732.0328
725.3792
722.3553
720.9128
720.0841
719.9923
721.3192
724.4805
728.9558
733.2997
735.8501
735.6031
732.6487
727.9491
722.7127
717.8139
713.5691
709.8781
706.5219
703.3896
700.5372
698.1135
696.2424
694.9361
694.0683
693.4121
692.691
691.6498
690.1408
688.1735
685.8842
683.4455
681.0056
678.6891
676.6684
675.1417
674.1993
673.725
673.5542
673.7166
674.3266
675.2279
676.0033
676.3026
676.1937
675.688
674.5073
672.4567
669.5463
665.4837
659.6268
652.1459
631.6562
2984.333
1887.465
979.0127
664.8599
676.6809
733.0755
748.9893
740.1789
729.4314
723.6222
721.3037
720.2666
719.7729
720.2585
722.4003
726.2352
730.7933
734.4685
735.8467
734.4025
730.6335
725.6388
720.4986
715.8496
711.8265
708.2769
705.0271
702.0343
699.3871
697.2173
695.5988
694.4871
693.7201
693.0535
692.2171
690.9945
689.2989
687.1924
684.8279
682.3711
679.9611
677.7499
675.9313
674.6636
673.9374
673.5975
673.5655
673.9259
674.6776
675.5428
676.1117
676.2427
675.9811
675.192
673.6367
671.2409
667.8852
662.9533
657.6285
638.8945
3152.531
2484.096
1475.233
824.783
646.2667
684.7211
735.3889
746.3732
736.8804
727.0546
722.2163
720.4857
719.7819
719.7144
720.9069
723.8433
728.1186
732.4258
735.1854
735.3516
732.8611
728.5026
723.3889
718.4168
714.0073
710.1722
706.7518
703.6276
700.8073
698.3891
696.473
695.0814
694.1246
693.4124
692.6913
691.7099
690.3
688.434
686.2118
683.7938
681.3358
678.9863
676.925
675.341
674.3184
673.7683
673.5595
673.6962
674.2365
675.0565
675.801
676.1828
676.1578
675.6814
674.5631
672.6546
669.9048
665.6889
661.9297
645.5189
3167.254
2883.33
2035.862
1175.727
725.0261
642.1748
695.6531
738.2247
743.7434
733.6752
724.9725
721.0924
719.8466
719.492
719.9847
721.9607
725.5657
729.9772
733.7149
735.3966
734.4035
731.0636
726.3278
721.2274
716.4574
712.2657
708.5952
705.3074
702.3348
699.7151
697.5369
695.8612
694.6637
693.8191
693.1159
692.3014
691.1545
689.561
687.5441
685.2296
682.7771
680.3415
678.092
676.2232
674.8849
674.0767
673.6771
673.6154
673.9305
674.6069
675.4069
675.9975
676.2107
676.0033
675.2551
673.7942
671.5862
667.9657
665.2637
651.3171
3123.042
3083.419
2521.632
1649.58
959.2459
666.4188
648.7771
707.2415
740.3934
740.9072
730.6745
723.1988
720.1888
719.3733
719.4537
720.6324
723.382
727.4398
731.6618
734.5721
735.1091
733.0784
729.097
724.162
719.1627
714.6042
710.6094
707.094
703.9529
701.158
698.7575
696.8178
695.3596
694.3197
693.5434
692.806
691.8665
690.5438
688.7769
686.6306
684.2451
681.779
679.3979
677.2916
675.6451
674.5419
673.9165
673.6626
673.7634
674.2436
674.987
675.7029
676.1345
676.175
675.7419
674.6788
672.9605
669.877
667.8564
656.2306
3079.518
3147.638
2865.43
2142.929
1333.213
809.007
637.9163
661.7177
717.8607
741.415
737.8878
727.9535
721.7127
719.4686
719.0908
719.7246
721.664
725.0823
729.3181
733.0472
734.9558
734.3686
731.4639
727.0364
722.0387
717.1927
712.8421
709.0305
705.673
702.6982
700.1024
697.9289
696.2155
694.946
694.0244
693.2731
692.463
691.3755
689.8751
687.9502
685.6958
683.26
680.8068
678.5191
676.5954
675.182
674.2909
673.8284
673.7263
673.9944
674.5991
675.3398
675.9372
676.2054
676.0496
675.3346
674.0536
671.4786
669.8995
660.3061
3050.177
3108.101
3042.836
2564.186
1786.156
1086.745
711.9631
630.5673
677.3973
726.5236
741.213
734.7977
725.5515
720.4857
718.9282
719.0467
720.3426
723.0388
726.9377
731.0554
734.0432
734.8663
733.2444
729.6457
724.9401
719.9763
715.3098
711.1607
707.528
704.3399
701.5517
699.1686
697.2194
695.712
694.5983
693.7545
692.9871
692.072
690.8221
689.1494
687.0843
684.7428
682.2802
679.873
677.72
676.0063
674.8196
674.1172
673.8102
673.8679
674.2877
674.9605
675.6452
676.1043
676.1969
675.7883
674.8917
672.8024
671.5339
663.6455
3228.669
3162.45
3107.526
2842.562
2224.416
1469.555
903.1756
655.8095
636.9747
693.2208
732.8298
739.9504
731.7697
723.4855
719.5068
718.5989
719.2943
721.3126
724.6732
728.8059
732.5249
734.5987
734.3367
731.8155
727.6986
722.8491
717.9823
713.507
709.5553
706.1063
703.1037
700.5182
698.3527
696.6161
695.2888
694.2952
693.489
692.668
691.6229
690.2044
688.3701
686.1837
683.777
681.3159
678.9932
677.0117
675.5197
674.5438
674.0131
673.8624
674.0788
674.6151
675.3001
675.8911
676.1986
676.0628
675.5017
673.869
672.8525
666.3663
2221.381
3157.98
3241.545
3049.681
2586.996
1888.268
1205.139
774.0331
629.546
651.1431
707.4453
736.774
737.889
728.9163
721.7622
718.7919
718.5369
719.8775
722.6033
726.4533
730.5459
733.6306
734.7
733.4216
730.1598
725.6828
720.7899
716.0587
711.7797
708.0272
704.7728
701.9717
699.5987
697.6467
696.1039
694.927
694.0165
693.2091
692.3022
691.1098
689.5233
687.5415
685.2541
682.8068
680.3811
678.1826
676.3989
675.1266
674.3435
673.976
673.9834
674.3419
674.9489
675.5976
676.0727
676.1768
675.909
674.6965
673.9118
668.5782
1288.119
2574.214
3196.969
3222.079
2892.185
2291.765
1578.571
996.5504
690.2688
624.0123
668.5935
719.0717
738.5841
735.2958
726.3105
720.3821
718.3736
718.8005
720.8139
724.1492
728.2532
732.037
734.3143
734.3656
732.1864
728.3463
723.6419
718.7778
714.2061
710.1283
706.5823
703.5362
700.9484
698.7898
697.0393
695.6668
694.6079
693.7434
692.8989
691.8799
690.5301
688.782
686.6691
684.3025
681.8441
679.4919
677.4527
675.8801
674.8168
674.212
674.0047
674.1645
674.635
675.2644
675.8448
676.1487
676.1364
675.3034
674.7453
670.3717
2031.49
2041.937
2791.168
3199.465
3115.2
2658.173
1982.689
1309.03
841.3684
642.5177
631.7976
686.2459
727.713
738.6216
732.4095
723.996
719.3454
718.2856
719.4257
722.0822
725.8569
729.95
733.1895
734.5565
733.6377
730.6989
726.4317
721.606
716.8216
712.4261
708.5573
705.2288
702.4033
700.0349
698.0844
696.5175
695.2879
694.3134
693.4588
692.5455
691.3948
689.8844
687.985
685.7593
683.3388
680.9037
678.6632
676.8093
675.4494
674.5814
674.1458
674.0956
674.3916
674.9341
675.5491
676.0009
676.2051
675.7088
675.3742
671.8169
1687.115
1935.006
2430.433
2987.7
3187.334
2947.653
2379.67
1683.3
1086.26
733.4667
621.7138
647.0902
702.1706
733.425
737.3102
729.4413
722.0098
718.6614
718.5524
720.4118
723.6191
727.6144
731.4362
733.9498
734.3704
732.5732
729.022
724.4595
719.5945
714.9269
710.7228
707.0743
703.9754
701.3787
699.2278
697.4725
696.0666
694.9505
694.0266
693.1481
692.1393
690.8439
689.1749
687.1376
684.8204
682.3757
680.0012
677.9066
676.2528
675.0991
674.4141
674.142
674.2409
674.645
675.2249
675.762
676.1373
675.9326
675.8139
672.966
1329.296
1755.263
2155.937
2697.999
3098.943
3113.119
2724.935
2082.497
1411.241
911.8547
665.098
619.7441
665.5395
715.3109
736.531
735.0762
726.5783
720.3973
718.3504
719.1827
721.7197
725.328
729.3039
732.6268
734.2974
733.7932
731.2345
727.2105
722.4617
717.6204
713.0996
709.1031
705.6883
702.8291
700.4628
698.5205
696.9418
695.6714
694.6381
693.7316
692.7987
691.6735
690.2265
688.4055
686.2466
683.8628
681.4278
679.151
677.2283
675.7794
674.822
674.3111
674.1967
674.4268
674.9113
675.4669
675.959
675.9965
676.0784
673.8574
1129.471
1514.382
1907.826
2400.35
2894.674
3133.869
2973.094
2461.943
1788.164
1177.364
783.3652
628.0173
629.7866
684.0876
725.2417
737.4824
732.3052
723.9793
719.2099
718.4355
720.1634
723.2777
727.0938
730.8166
733.4647
734.2398
732.8762
729.6818
725.3093
720.4619
715.694
711.3469
707.576
704.4078
701.7935
699.6525
697.9034
696.4787
695.3162
694.335
693.4144
692.4008
691.144
689.544
687.5812
685.3201
682.8988
680.51
678.3642
676.6301
675.3838
674.613
674.2691
674.3008
674.643
675.153
675.7015
675.9254
676.1831
674.5204
1049.363
1297.642
1663.772
2114.417
2628.503
3024.173
3094.151
2775.014
2177.244
1513.558
986.7423
695.6412
614.2818
646.427
700.7696
731.9749
736.7705
729.3232
721.7718
718.4932
718.9277
721.4558
724.9913
728.7995
732.0637
733.9215
733.8054
731.6757
727.969
723.3536
718.478
713.8251
709.6781
706.1511
703.2394
700.8689
698.9408
697.3647
696.0688
694.9859
694.0263
693.0629
691.9471
690.549
688.7988
686.7077
684.3682
681.9425
679.6362
677.6482
676.1108
675.0608
674.4683
674.282
674.4475
674.8567
675.3994
675.7484
676.1465
674.9789
1030.873
1148.34
1440.226
1844.366
2339.476
2818.989
3083.072
2984.058
2532.861
1889.327
1270.532
839.8751
642.0395
616.7694
665.6156
714.4954
735.8091
734.8775
726.3969
720.0517
718.2754
719.8136
722.9944
726.7539
730.3393
732.9831
733.9948
733.0356
730.2469
726.1411
721.3707
716.5251
712.0248
708.1038
704.837
702.1862
700.0513
698.3181
696.891
695.6974
694.6656
693.6988
692.6672
691.4325
689.8883
687.9948
685.793
683.4031
681.0085
678.8178
677.0065
675.6671
674.8063
674.3827
674.3456
674.6099
675.0887
675.4985
675.9922
675.2545
1036.209
1067.422
1260.97
1598.872
2051.727
2556.808
2957.108
3069.611
2812.63
2263.601
1614.283
1066.022
733.9205
615.3912
629.4608
684.5205
724.8326
737.2088
732.2511
723.7395
718.8841
718.5581
721.0499
724.6916
728.4583
731.628
733.5413
733.7029
731.9781
728.6396
724.2346
719.383
714.6177
710.3056
706.6349
703.64
701.2476
699.3332
697.7722
696.4686
695.3501
694.3415
693.3404
692.2192
690.8538
689.1633
687.1373
684.8468
682.4385
680.1106
678.0632
676.4396
675.2957
674.6152
674.3534
674.4386
674.8033
675.2111
675.7487
675.3695
1045.321
1035.842
1137.856
1391.36
1782.243
2270.591
2746.2
3032.856
2986.343
2593.063
1984.603
1364.55
902.6272
663.86
608.7208
647.5446
701.3309
731.8092
736.7144
729.2886
721.5164
718.302
719.3127
722.5648
726.4468
730.0067
732.6052
733.7301
733.0785
730.6811
726.8967
722.2792
717.4098
712.7708
708.6804
705.2807
702.5629
700.419
698.7044
697.29
696.083
695.0128
694.0007
692.9414
691.7131
690.2099
688.3769
686.2337
683.8809
681.4887
679.2606
677.3772
675.9465
674.9919
674.4849
674.3635
674.573
674.9213
675.4486
675.3486
1050.787
1031.359
1067.454
1232.573
1545.324
1986.226
2483.613
2891.683
3041.113
2840.616
2341.102
1711.698
1148.466
779.4649
623.5119
615.7316
667.3968
715.0496
735.7513
734.8764
726.3276
719.8462
718.3049
720.4799
724.2647
728.1566
731.3187
733.237
733.5621
732.1618
729.1897
725.054
720.2994
715.4693
711
707.1618
704.048
701.6049
699.6923
698.1523
696.8574
695.7204
694.6724
693.6318
692.4934
691.145
689.5008
687.5336
685.2932
682.9087
680.5674
678.4677
676.7627
675.5242
674.7531
674.4015
674.4226
674.6618
675.1264
675.2198
1052.379
1037.081
1036.585
1125.192
1352.17
1723.768
2200.204
2673.816
2981.54
2981.971
2643.859
2073.209
1457.892
970.3888
693.1064
606.3468
631.0881
686.475
725.295
737.1567
732.2132
723.6403
718.8002
718.8583
721.9744
726.0439
729.7253
732.3361
733.5127
733.0642
730.9955
727.5437
723.1415
718.3174
713.5799
709.321
705.7608
702.9401
700.7607
699.0563
697.6632
696.4602
695.3673
694.3167
693.225
691.9901
690.5124
688.7286
686.6399
684.3271
681.9442
679.687
677.7387
676.2191
675.1703
674.5675
674.3727
674.461
674.8163
675.0137
1053.865
1043.673
1029.098
1062.855
1208.255
1498.049
1921.971
2410.308
2826.081
3008.828
2860.555
2410.246
1804.928
1232.693
831.194
638.4949
606.0909
650.5294
703.1627
732.1254
736.6024
729.1845
721.4311
718.4025
719.8952
723.6917
727.7955
731.073
733.0236
733.441
732.2714
729.6205
725.7777
721.1853
716.3544
711.76
707.7486
704.4851
701.9558
700.0216
698.4981
697.2228
696.0848
695.011
693.9346
692.7721
691.4267
689.8146
687.8969
685.7047
683.3482
681.0011
678.8576
677.0765
675.7457
674.8748
674.4405
674.3432
674.5499
674.7627
1058.854
1050.068
1033.565
1034.677
1112.277
1317.995
1668.958
2130.7
2601.598
2928.387
2971.692
2686.247
2155.142
1549.641
1041.959
728.9841
609.7562
617.1296
670.8594
716.5915
735.8907
734.6772
726.1757
719.8363
718.632
721.3217
725.5178
729.4207
732.1399
733.3679
733.0441
731.2218
728.0744
723.9219
719.2094
714.4312
710.0279
706.2952
703.3386
701.0899
699.3761
698.0032
696.8167
695.7177
694.6398
693.5167
692.2661
690.8
689.0527
687.0116
684.7386
682.3705
680.0925
678.0864
676.4831
675.3344
674.6411
674.3287
674.3549
674.4992
1065.033
1050.581
1037.227
1026.383
1057.187
1186.797
1455.165
1860.112
2337.817
2759.897
2972.778
2873.213
2471.498
1893.619
1317.782
888.1457
659.8851
600.8621
634.7366
689.8555
726.4659
737.1126
731.9347
723.4893
718.9262
719.4268
723.0251
727.3394
730.8367
732.8886
733.3738
732.3526
729.9531
726.3905
722.0034
717.2373
712.569
708.4003
704.97
702.3205
700.3334
698.8103
697.5566
696.4309
695.3467
694.2431
693.0545
691.7018
690.1085
688.2295
686.0807
683.7541
681.408
679.2284
677.3782
675.953
674.9871
674.4347
674.2552
674.254
1091.602
1079.322
1052.449
1028.176
1029.209
1099.444
1287.618
1617.842
2063.108
2529.793
2873.275
2955.902
2720.784
2230.436
1639.216
1116.487
770.8233
618.821
606.1239
655.1644
706.1316
732.9025
736.3913
728.8626
721.3424
718.7099
720.6923
724.8833
729.0524
731.981
733.3025
733.0593
731.4005
728.5004
724.599
720.0477
715.2922
710.7882
706.8917
703.7777
701.4258
699.6741
698.309
697.1435
696.0522
694.9604
693.8114
692.5411
691.0756
689.3524
687.3502
685.1146
682.7652
680.4731
678.4171
676.7309
675.4879
674.676
674.2705
674.0558
968.4059
1014.486
1059.886
1049.107
1027.351
1049.217
1165.897
1415.617
1801.271
2266.854
2693.258
2933.145
2879.06
2525.113
1977.471
1403.043
949.6308
687.338
600.1931
620.5186
675.6309
718.9823
736.2924
734.3362
725.8628
719.8678
719.1432
722.3107
726.7747
730.5692
732.8131
733.3828
732.4507
730.2224
726.8959
722.7273
718.08
713.3975
709.1079
705.5126
702.7184
700.6453
699.0974
697.8566
696.7496
695.6683
694.5485
693.3367
691.971
690.3852
688.5341
686.4225
684.1257
681.785
679.5766
677.6601
676.1472
675.064
674.4175
673.9301
1850.033
1040.803
971.7773
1026.638
1034.797
1031.829
1088.111
1258.781
1569.444
1997.874
2458.872
2816.449
2934.963
2747.808
2299.002
1726.055
1193.27
818.1637
633.5154
598.4226
639.8673
694.2349
728.2259
737.1877
731.5169
723.2426
719.1212
720.139
724.1518
728.5873
731.8225
733.3131
733.144
731.5789
728.8511
725.1689
720.8019
716.1253
711.5758
707.5444
704.2691
701.7874
699.9664
698.5875
697.4374
696.3613
695.2679
694.1018
692.8121
691.3401
689.6305
687.6584
685.4564
683.1267
680.8261
678.7236
676.9621
675.6057
674.7094
673.8998
2518.538
1449.47
996.7669
966.8753
1014.619
1027.73
1048.439
1148.944
1378.585
1744.802
2197.626
2626.548
2890.339
2878.509
2571.194
2056.056
1487.719
1015.006
720.6406
604.3232
608.345
660.8947
709.8312
734.0574
736.2105
728.4294
721.2129
719.0904
721.5797
726.0845
730.2254
732.7672
733.4786
732.6092
730.4755
727.317
723.3469
718.8493
714.2092
709.8485
706.11
703.1624
700.9757
699.374
698.1279
697.0366
695.9663
694.8411
693.6124
692.2319
690.6461
688.8136
686.7325
684.4632
682.1306
679.896
677.9212
676.3025
675.1551
673.9842
2859.008
1997.055
1242.958
965.7434
967.8132
1009.542
1029.895
1081.941
1234.451
1523.945
1934.737
2388.983
2758.34
2909.432
2767.707
2360.702
1809.464
1271.456
870.4736
653.8487
594.441
625.4651
681.2042
721.8875
736.9198
733.9838
725.4761
719.8933
719.7085
723.33
727.9857
731.6139
733.3788
733.3212
731.8066
729.1714
725.6487
721.4569
716.896
712.3564
708.2337
704.8125
702.1884
700.2705
698.8514
697.702
696.6403
695.5533
694.3789
693.0737
691.5922
689.8888
687.9389
685.7654
683.4549
681.1462
679.0048
677.1483
675.7587
674.199
2979.633
2467.885
1654.587
1107.887
947.572
970.8065
1009.524
1044.267
1136.232
1345.857
1691.15
2130.088
2559.938
2844.871
2872.193
2610.056
2129.046
1570.979
1083.439
759.4202
613.4376
598.7082
646.0913
699.1948
730.3401
737.3953
731.0808
722.9568
719.321
720.8682
725.2501
729.7485
732.7
733.651
732.8615
730.7658
727.6958
723.8735
719.5258
714.969
710.5898
706.7458
703.6541
701.3385
699.6562
698.3814
697.2944
696.2356
695.1124
693.8738
692.4804
690.8907
689.07
687.0127
684.7674
682.4406
680.1864
678.129
676.5175
674.5559
2987.524
2776.409
2106.713
1402.62
1020.161
940.1677
975.5288
1016.206
1074.448
1214.152
1482.393
1874.113
2320.139
2699.125
2879.83
2781.071
2415.713
1888.981
1350.204
927.0634
679.6449
594.4904
612.4422
667.3731
713.9463
735.4597
736.1183
727.9921
721.0686
719.465
722.4368
727.2057
731.2868
733.4525
733.5916
732.1255
729.5164
726.0763
722.018
717.5813
713.0946
708.93
705.3942
702.6321
700.6001
699.1156
697.9466
696.8903
695.8113
694.6351
693.3195
691.8288
690.1274
688.1933
686.0429
683.7465
681.435
679.2234
677.4217
675.0609
2949.35
2928.768
2492.503
1790.853
1219.505
966.8045
940.3539
982.9184
1032.702
1123.932
1317.101
1641.085
2064.609
2493.463
2796.907
2860.55
2642.103
2196.412
1652.273
1154.195
803.2176
627.5726
591.9981
631.6358
687.2673
725.088
737.7319
733.7103
725.1068
719.9129
720.241
724.27
729.0773
732.5371
733.8592
733.2188
731.1417
728.0867
724.3397
720.1098
715.6512
711.2975
707.3929
704.1828
701.7384
699.9574
698.6306
697.5305
696.4767
695.3575
694.1142
692.7113
691.1172
689.3034
687.2641
685.0356
682.7184
680.4043
678.454
675.714
2901.417
2970.174
2758.915
2187.69
1529.521
1091.294
937.7628
945.8148
995.1252
1062.658
1195.495
1444.748
1816.713
2252.731
2638.915
2846.327
2788.179
2464.159
1964.336
1428.919
987.3711
710.7138
598.8045
601.2212
653.0524
704.4543
732.6666
737.7572
730.7322
722.7059
719.5086
721.5283
726.225
730.7653
733.4588
733.9232
732.5566
729.9388
726.5039
722.5128
718.1766
713.7631
709.6
705.9901
703.1101
700.9608
699.3928
698.183
697.1177
696.0418
694.8659
693.544
692.0462
690.3448
688.4215
686.2858
684.0067
681.6419
679.5905
676.5081
2857.93
2948.873
2901.73
2521.385
1896.109
1323.334
1006.01
925.4346
955.8857
1015.177
1109.579
1290.785
1594.803
2001.902
2427.599
2746.697
2843.772
2667.429
2257.968
1731.096
1226.673
851.6756
646.7986
588.603
617.9403
674.2389
718.2276
737.0217
736.1708
727.6552
720.9651
719.8073
723.1858
728.1697
732.1931
734.0311
733.6589
731.6325
728.5449
724.7947
720.6229
716.2471
711.9432
708.0199
704.7269
702.169
700.2838
698.8874
697.7555
696.6946
695.5759
694.3298
692.9205
691.3221
689.5123
687.4826
685.2742
682.9059
680.8031
677.4296
2826.145
2907.464
2951.475
2755.579
2253.49
1636.841
1167.833
953.1328
924.6914
971.4246
1046.461
1176.411
1410.019
1762.841
2187.457
2578.29
2809.33
2789.248
2505.949
2035.063
1506.924
1050.841
746.9095
607.6726
592.2859
638.6039
693.4811
728.3696
738.6752
733.5813
724.8447
719.9652
720.7117
725.0661
729.9903
733.3072
734.2503
733.0882
730.4751
726.9876
722.986
718.6982
714.3496
710.2148
706.5704
703.6034
701.3482
699.6894
698.4224
697.3319
696.2492
695.0708
693.7442
692.2406
690.5379
688.618
686.5018
684.1688
682.0615
678.4588
2789.438
2843.809
2933.416
2887.043
2551.444
1984.095
1419.368
1056.208
924.2036
932.73
994.3257
1092.329
1265.24
1551.649
1942.268
2362.989
2694.897
2822.383
2686.243
2313.453
1806.776
1300.11
904.337
671.1696
588.972
605.5203
660.3919
709.7185
735.0287
738.2391
730.5287
722.5573
719.7069
722.0927
727.0275
731.5949
734.0759
734.1255
732.2373
729.1129
725.2939
721.1052
716.7675
712.5111
708.5978
705.2588
702.6139
700.6324
699.1584
697.9796
696.8978
695.7716
694.5206
693.1052
691.5021
689.6898
687.6766
685.4079
683.3365
679.5716
2877.462
2858.881
2890.68
2922.024
2755.117
2311.508
1732.16
1245.64
980.7876
913.0235
948.5856
1027.094
1155.85
1376.95
1712.067
2124.561
2517.817
2769.516
2784.834
2541.228
2100.747
1583.418
1116.718
787.9169
621.3239
586.1807
624.5189
681.211
722.4371
738.6038
736.3408
727.458
720.9457
720.1283
723.8057
728.9426
732.915
734.4856
733.6749
731.1346
727.5741
723.4911
719.1807
714.8597
710.7565
707.1067
704.0867
701.7479
700.0037
698.6714
697.5422
696.4411
695.254
693.9201
692.4096
690.6992
688.792
686.6063
684.6019
680.7416
2203.031
2834.203
2924.845
2935.938
2866.807
2572.684
2059.945
1509.793
1113.251
934.2932
915.3645
972.58
1072.574
1239.521
1510.783
1885.46
2299.839
2642.002
2797.023
2699.045
2362.892
1878.766
1373.66
960.5331
700.538
593.4743
594.9545
646.1494
699.6419
731.5539
739.6429
733.5695
724.7077
720.0711
721.1237
725.7042
730.7037
733.9046
734.5379
732.9225
729.8092
725.8868
721.6071
717.2416
713.0027
709.1065
705.7507
703.0497
700.9908
699.4428
698.2095
697.0952
695.9519
694.69
693.2652
691.6502
689.8465
687.7531
685.8368
681.9422
1600.032
2457.378
2872.375
2961.427
2933.814
2755.779
2356.003
1815.753
1323.208
1017.791
910.5541
928.6184
1006.002
1133.723
1344.828
1663.928
2063.978
2457.713
2727.336
2775.505
2570.369
2161.259
1657.752
1184.18
833.2091
639.7808
583.3705
611.3571
667.9713
714.8534
737.3022
738.7592
730.4381
722.5085
719.9196
722.5602
727.6503
732.226
734.5379
734.245
731.8959
728.2901
724.079
719.6709
715.3174
711.2219
707.5775
704.5328
702.1385
700.3251
698.93
697.7553
696.6263
695.4216
694.0744
692.5477
690.842
688.8434
687.0265
683.1487
1956.998
2047.022
2593.552
2903.034
2971.5
2879.968
2595.655
2122.77
1592.178
1174.121
954.0729
904.6258
951.5658
1050.943
1213.26
1471.71
1831.311
2238.249
2588.285
2768.129
2706.307
2406.496
1946.777
1446.617
1019.526
734.5473
602.2824
586.7552
632.0097
688.216
726.5
740.1259
736.5648
727.3622
720.9913
720.4202
724.2939
729.5224
733.4472
734.8057
733.6271
730.624
726.6068
722.18
717.7121
713.4363
709.5396
706.1801
703.4504
701.3396
699.7318
698.446
697.2937
696.1243
694.8435
693.3976
691.783
689.8766
688.1622
684.3402
2320.408
1969.966
2279.354
2713.53
2939.907
2953.7
2776.321
2399.308
1888.917
1397.454
1061.28
916.7828
912.7868
984.2952
1110.069
1313.131
1618.081
2005.725
2398.195
2683.119
2761.681
2593.738
2216.646
1729.514
1252.52
882.1768
662.8625
584.1435
599.6297
654.1677
705.7271
734.6124
740.5875
733.6227
724.6514
720.2007
721.4626
726.182
731.2191
734.3266
734.7121
732.7093
729.137
724.789
720.2194
715.7606
711.6249
707.9733
704.9189
702.4954
700.6362
699.191
697.9731
696.8107
695.5806
694.2064
692.6756
690.856
689.2414
685.5007
2507.232
2110.283
2099.994
2460.57
2810.113
2960.093
2897.91
2628.411
2181.636
1667.511
1235.912
981.5489
900.8708
932.63
1028.112
1186.163
1433.877
1779.583
2178.323
2534.009
2736.042
2708.405
2444.513
2010.715
1518.494
1080.666
772.7486
615.3791
581.2831
618.4404
675.7358
719.8749
739.4919
739.2923
730.4152
722.5117
720.1116
722.9145
728.0921
732.6613
734.8418
734.2709
731.5199
727.4656
722.867
718.2278
713.8455
709.9062
706.5349
703.793
701.6556
700.0097
698.6834
697.4948
696.295
694.9815
693.5266
691.7873
690.266
686.62
2545.2
2294.784
2086.313
2248.6
2607.705
2881.639
2950.934
2800.363
2445.614
1957.142
1468.294
1108.769
930.6249
901.9539
963.2065
1085.262
1281.47
1574.071
1949.673
2339.404
2637.113
2743.658
2611.621
2267.021
1798.492
1321.238
934.2819
690.2963
588.6205
589.7263
640.1914
695.236
730.4581
741.614
736.8306
727.3266
721.0539
720.6471
724.635
729.9085
733.7914
734.986
733.5033
730.0892
725.6412
720.8721
716.2359
711.994
708.2988
705.2309
702.7959
700.9154
699.4407
698.1903
696.9966
695.7301
694.3431
692.6775
691.2414
687.694
2482.405
2444.256
2188.497
2142.336
2395.55
2726.508
2923.711
2904.842
2662.914
2239.598
1738.74
1297.705
1014.746
903.6918
916.7775
1005.046
1158.402
1396.961
1730.022
2120.075
2479.34
2700.957
2705.536
2477.089
2070.547
1589.001
1143.493
814.7529
632.6666
578.7631
605.8191
662.4939
711.7443
737.6014
741.5455
733.7355
724.6385
720.3087
721.6962
726.4864
731.5354
734.5719
734.7642
732.4349
728.4489
723.6959
718.8362
714.2737
710.2301
706.8163
704.0618
701.9168
700.2568
698.909
697.6944
696.459
695.1314
693.5337
692.1752
688.7237
2130.095
2464.474
2337.028
2160.085
2241.256
2533.44
2817.226
2931.259
2818.709
2491.686
2022.882
1537.04
1158.998
950.6841
896.1351
943.6
1059.902
1249.861
1531.721
1895.819
2281.515
2589.51
2721.559
2624.077
2312.367
1864.521
1390.001
989.1492
721.862
596.8614
581.9364
626.374
683.5642
724.8057
741.659
739.8775
730.4569
722.5333
720.243
723.1285
728.3422
732.8981
734.9823
734.1911
731.0953
726.6321
721.6627
716.791
712.3692
708.5736
705.4667
703.0232
701.1413
699.6601
698.3955
697.1729
695.8956
694.3617
693.0745
689.7148
1866.359
2304.493
2409.054
2253.203
2184.582
2358.812
2655.281
2876.742
2900.25
2693.603
2295.828
1807.664
1359.836
1052.508
912.305
904.2574
982.3161
1130.18
1360.859
1682.619
2063.749
2424.609
2663.088
2697.736
2504.133
2126.091
1657.859
1207.677
860.3038
654.0949
579.3829
594.4607
648.7509
702.1833
734.3405
743.1266
737.1739
727.3488
721.1047
720.777
724.808
730.0921
733.9421
735.0164
733.2882
729.5165
724.6727
719.5754
714.7679
710.5477
707.0398
704.2525
702.1058
700.4517
699.1051
697.8745
696.6375
695.1644
693.9449
690.6755
1764.304
2084.139
2354.464
2336.225
2213.543
2249.342
2481.163
2754.983
2900.932
2828.766
2534.276
2086.3
1604.766
1211.797
976.1796
895.117
925.8211
1034.216
1218.16
1490.858
1844.32
2224.988
2540.768
2695.597
2631.044
2352.437
1927.265
1458.459
1046.493
757.4414
608.972
576.5385
613.0189
670.8849
717.6299
740.55
742.5676
733.9371
724.6661
720.3725
721.8003
726.6023
731.6445
734.6314
734.6799
732.0822
727.7324
722.606
717.4675
712.7962
708.8305
705.6384
703.1709
701.2955
699.8286
698.5643
697.3551
695.9413
694.7878
691.6142
1753.068
1907.346
2210.361
2347.081
2275.85
2218.215
2340.38
2597.638
2826.717
2886.202
2717.732
2348.56
1874.629
1422.708
1094.485
926.4044
895.3045
960.2514
1101.405
1325.174
1637.189
2009.658
2370.443
2622.971
2685.191
2525.47
2176.953
1724.617
1272.839
909.1941
679.6891
583.3779
584.6935
634.768
691.2711
729.5983
743.8275
740.554
730.5853
722.571
720.298
723.1864
728.39
732.9276
734.9461
733.9874
730.604
725.7789
720.4675
715.3719
710.9028
707.2345
704.3738
702.2134
700.5758
699.2436
698.0447
696.6874
695.5999
692.5366
1775.082
1806.752
2043.676
2274.987
2313.878
2241.989
2260.311
2444.978
2699.287
2865.072
2830.579
2571.223
2146.493
1671.613
1267.064
1006.812
899.0476
910.3871
1008.432
1186.007
1450.933
1795.035
2170.274
2491.625
2666.338
2632.648
2386.939
1986.207
1526.084
1105.951
796.9316
625.1135
573.8631
600.4657
657.3945
708.9176
738.1097
744.6795
737.6225
727.444
721.1431
720.8006
724.8039
730.0652
733.8885
734.88
732.961
728.8879
723.6932
718.2933
713.32
709.1109
705.7715
703.2439
701.3676
699.9191
698.7026
697.3947
696.3725
693.4433
1797.464
1769.627
1906.033
2149.31
2294.244
2277.756
2239.847
2330.539
2551.9
2778.196
2865.577
2734.56
2396.338
1939.125
1486.131
1140.298
945.8915
890.4323
939.4888
1072.145
1289.347
1593.132
1957.748
2317.412
2581.404
2668.44
2541.136
2222.725
1788.663
1338.426
961.1213
709.4659
591.0269
576.9058
620.861
679.1248
723.2776
743.4255
743.6602
734.2444
724.7449
720.3938
721.7721
726.5256
731.5392
734.4917
734.4387
731.6288
726.9707
721.5133
716.1187
711.3409
707.4394
704.4466
702.2421
700.6086
699.3307
698.0549
697.0929
694.3276
1817.221
1769.357
1817.978
2012.144
2216.417
2286.595
2254.09
2268.657
2418.875
2651.05
2827.335
2825.468
2601.658
2202.546
1737.142
1324.315
1042.143
908.096
898.0573
983.1747
1153.298
1411.269
1747.394
2117.437
2442.744
2634.584
2629.353
2415.793
2040.829
1592.209
1166.992
840.124
645.4248
574.2806
589.1218
643.3568
698.7004
734.1705
745.9659
741.3198
730.8087
722.6326
720.2814
723.0903
728.2345
732.742
734.7169
733.6369
730.0234
724.8911
719.2779
713.9777
709.46
705.901
703.26
701.3483
699.9426
698.6644
697.7477
695.1746
1840.542
1786.285
1776.578
1896.486
2103.105
2249.329
2269.234
2251.467
2323.896
2515.223
2733.166
2840.892
2744.513
2438.439
2000.54
1549.57
1189.284
970.4236
890.0683
920.9074
1042.926
1253.118
1549.729
1907.543
2265.705
2539.107
2648.242
2551.481
2263.197
1849.389
1403.754
1015.62
743.3328
602.5828
571.5279
607.4224
665.9368
715.3265
741.6994
746.2402
738.1666
727.6147
721.1758
720.7259
724.6286
729.8278
733.6212
734.5578
732.4976
728.1817
722.6899
717.0254
711.902
707.6976
704.5034
702.1975
700.5705
699.2309
698.3285
695.9637
1873.036
1811.076
1768.948
1818.091
1984.083
2169.226
2258.209
2255.762
2273.042
2398.778
2609.586
2789.833
2814.981
2625.592
2253.928
1800.845
1382.881
1081.462
922.0991
889.456
959.3274
1120.406
1371.487
1700.707
2066.136
2394.436
2601.074
2621.829
2439.205
2090.794
1656.165
1228.961
886.6531
669.9393
578.1398
579.4449
629.1205
687.088
728.6048
746.1706
744.7887
734.6425
724.8739
720.3801
721.6226
726.2642
731.2192
734.1409
734.0195
731.0502
726.1436
720.4085
714.7928
709.9188
706.0689
703.2394
701.2708
699.7806
698.8388
696.6722
1920.844
1842.444
1782.06
1777.682
1883.3
2064.683
2209.771
2254.938
2255.477
2317.912
2485.122
2692.15
2813.93
2748.453
2474.728
2058.48
1612.507
1240.686
999.3614
894.2495
905.2406
1014.545
1216.694
1506.532
1858.443
2215.142
2496.494
2625.316
2557.048
2298.416
1906.341
1468.128
1072.099
781.0475
618.2028
568.9799
594.905
651.9894
705.7683
738.4585
748.0214
742.1378
731.1088
722.7167
720.2025
722.8533
727.8839
732.3392
734.2807
733.1172
729.3298
723.9516
718.0885
712.6141
708.0515
704.575
702.1256
700.3642
699.3015
697.2823
1982.617
1883.655
1808.23
1767.949
1813.235
1958.423
2128.937
2229.778
2250.529
2273.531
2382.203
2573.777
2753.599
2800.431
2643.447
2300.472
1862.388
1442.204
1124.012
940.5651
884.7948
937.6456
1087.987
1331.644
1654.514
2015.901
2346.681
2566.297
2610.734
2457.567
2135.987
1717.403
1291.169
936.0252
698.5509
585.7091