/*--------------------------------*- C++ -*----------------------------------*\
| =========                 |                                                 |
| \\      /  F ield         | OpenFOAM: The Open Source CFD Toolbox           |
|  \\    /   O peration     | Version:  2312                                  |
|   \\  /    A nd           | Website:  www.openfoam.com                      |
|    \\/     M anipulation  |                                                 |
\*---------------------------------------------------------------------------*/
FoamFile
{
    version     2.0;
    format      ascii;
    arch        "LSB;label=32;scalar=64";
    class       volScalarField;
    location    "4200";
    object      ILambda_2_0;
}
// * * * * * * * * * * * * * * * * * * * * * * * * * * * * * * * * * * * * * //

dimensions      [1 0 -3 0 0 0 0];

internalField   nonuniform List<scalar> 
12000
(
2702.815
2105.602
1648.333
1313.966
1077.012
913.8876
805.5786
737.4431
698.1964
678.985
672.8796
674.7349
681.1077
689.9366
699.9686
710.1929
719.5576
727.0444
731.9344
734.0151
733.5786
731.2321
727.65
723.3988
718.8823
714.3733
710.0687
706.1249
702.6641
699.7635
697.4409
695.646
694.2671
693.1397
692.0728
690.8949
689.4951
687.8384
685.9488
683.8909
681.7592
679.6948
677.8596
676.371
675.2473
674.463
674.0443
674.0328
674.3512
674.8071
675.1914
675.4401
675.4373
674.9834
673.924
672.1547
669.4743
665.2259
660.4343
645.2141
3173.145
3157.281
2991.241
2728.74
2420.265
2103.586
1803.795
1535.792
1307.011
1119.658
972.3538
861.3709
781.6498
727.6781
694.1534
676.3471
670.1841
672.1636
679.2697
688.959
699.2127
708.5862
716.1979
721.6445
724.8743
726.0618
725.5112
723.5902
720.6864
717.1746
713.3917
709.6178
706.0636
702.8668
700.0905
697.7258
695.7049
693.9249
692.2759
690.6608
689.0062
687.2662
685.4359
683.5605
681.7221
679.9986
678.4395
677.0912
676.0178
675.2708
674.8444
674.6683
674.6773
674.7999
674.9294
674.9204
674.752
673.964
673.7587
669.4084
3138.238
3190.972
3230.654
3224.155
3155.358
3023.409
2837.576
2612.397
2364.067
2108.063
1857.721
1623.496
1412.711
1229.698
1076.203
951.9518
855.2111
783.281
732.8684
700.3765
682.1449
674.6598
674.7304
679.6135
687.0773
695.4073
703.372
710.1649
715.336
718.7203
720.3674
720.4746
719.3268
717.2471
714.5567
711.5438
708.4415
705.416
702.5667
699.9349
697.517
695.2772
693.1626
691.1218
689.1237
687.1626
685.2478
683.3962
681.6388
680.0243
678.6097
677.4331
676.5137
675.8578
675.4573
675.2605
675.2592
675.2717
675.5593
675.4728
3114.945
3125.654
3152.488
3190.05
3225.118
3242.303
3228.421
3174.885
3078.437
2940.772
2767.534
2567.052
2349.052
2123.505
1899.7
1685.61
1487.53
1309.958
1155.643
1025.743
920.0509
837.2533
775.2135
731.2524
702.4116
685.6806
678.1782
677.2845
680.7271
686.6268
693.5094
700.2901
706.2379
710.9248
714.1688
715.9741
716.4745
715.881
714.4377
712.3878
709.9497
707.3027
704.5803
701.8709
699.225
696.6671
694.2075
691.8488
689.5908
687.4364
685.3985
683.4996
681.7665
680.2264
678.9065
677.8215
676.9913
676.3904
676.021
675.9
3083.871
3088.236
3094.689
3108.097
3131.096
3162.351
3196.622
3225.967
3241.406
3234.534
3198.796
3130.258
3027.915
2893.574
2731.424
2547.419
2348.579
2142.308
1935.807
1735.6
1547.202
1374.909
1221.717
1089.337
978.2954
888.0989
817.4351
764.3883
726.6521
701.7259
687.0845
680.3169
679.2295
681.9161
686.795
692.6189
698.462
703.6899
707.9186
710.9668
712.8074
713.5208
713.2542
712.187
710.5036
708.3756
705.9516
703.3538
700.6774
697.9934
695.3528
692.7933
690.3449
688.0332
685.8808
683.9105
682.1447
680.578
679.3486
677.7657
3054.894
3058.369
3061.589
3065.21
3071.241
3082.222
3100.07
3125.114
3155.579
3187.625
3215.818
3233.883
3235.547
3215.326
3169.159
3094.81
2992.029
2862.485
2709.527
2537.809
2352.856
2160.61
1967.004
1777.587
1597.23
1429.92
1278.64
1145.336
1030.956
935.5434
858.3712
798.1033
752.9627
720.8975
699.7339
687.3078
681.5717
680.6731
683.0068
687.2409
692.3219
697.4619
702.1128
705.9322
708.7453
710.5056
711.2581
711.1073
710.1908
708.6591
706.6599
704.3293
701.7864
699.1318
696.4478
693.8025
691.2511
688.7934
686.7428
683.5876
3047.491
3044.507
3043.509
3043.963
3045.462
3048.199
3053.09
3061.552
3075.01
3094.332
3119.351
3148.597
3179.263
3207.41
3228.352
3237.148
3229.132
3200.387
3148.131
3070.965
2968.968
2843.665
2697.87
2535.433
2360.936
2179.358
1995.748
1814.927
1641.237
1478.355
1329.165
1195.705
1079.166
979.942
897.7217
831.6065
780.2441
741.966
714.9202
697.1911
686.9017
682.2945
681.7903
684.0254
687.8696
692.4269
697.0228
701.183
704.6045
707.1254
708.6935
709.3376
709.1412
708.2203
706.7087
704.7367
702.4513
699.8778
697.5758
693.391
3087.536
3067.773
3048.2
3030.771
3016.684
3006.409
3000.002
2997.473
2999.03
3005.144
3016.425
3033.383
3056.138
3084.154
3116.047
3149.539
3181.525
3208.284
3225.766
3229.947
3217.18
3184.511
3129.94
3052.577
2952.717
2831.807
2692.329
2537.62
2371.635
2198.691
2023.209
1849.468
1681.396
1522.4
1375.248
1242.001
1123.994
1021.86
935.5906
864.6252
807.9531
764.2283
731.8832
709.2347
694.5792
686.2718
682.7878
682.7664
685.0374
688.6324
692.7835
696.9116
700.6078
703.6089
705.7772
707.0548
707.5093
707.0675
706.3828
703.454
3198.655
3266.911
3297.868
3299.022
3279.039
3245.754
3205.6
3163.536
3123.213
3087.242
3057.471
3035.208
3021.367
3016.504
3020.776
3033.855
3054.825
3082.105
3113.429
3145.901
3176.119
3200.373
3214.881
3216.057
3200.764
3166.541
3111.784
3035.855
2939.12
2822.924
2689.491
2541.774
2383.271
2217.813
2049.353
1881.758
1718.629
1563.151
1417.979
1285.171
1166.155
1061.739
972.1442
897.0775
835.8081
787.263
750.1231
722.9174
704.1094
692.1727
685.6525
683.2134
683.6716
686.0139
689.4078
693.1833
696.8774
700.0519
702.6465
704.6104
1127.925
1605.626
2021.775
2369.295
2647.339
2859.462
3012.206
3113.871
3173.514
3200.184
3202.392
3187.802
3163.075
3133.835
3104.689
3079.27
3060.277
3049.502
3047.839
3055.295
3071.016
3093.335
3119.865
3147.633
3173.254
3193.136
3203.71
3201.658
3184.123
3148.896
3094.548
3020.52
2927.142
2815.607
2687.888
2546.609
2394.889
2236.166
2074.014
1911.964
1753.348
1601.161
1457.956
1325.774
1206.107
1099.893
1007.537
928.9629
863.6731
810.8281
769.327
737.891
715.1413
699.6708
690.1011
685.1433
683.5956
684.5281
686.5032
691.513
817.6808
751.1087
822.6266
1000.264
1247.537
1531.364
1824.503
2106.144
2361.681
2582.08
2763.006
2903.861
3006.834
3076.043
3116.797
3134.988
3136.616
3127.417
3112.595
3096.622
3083.094
3074.642
3072.883
3078.414
3090.855
3108.926
3130.575
3153.141
3173.546
3188.507
3194.76
3189.267
3169.416
3133.176
3079.222
3007.006
2916.78
2809.568
2687.1
2551.7
2406.157
2253.566
2097.175
1940.229
1785.822
1636.781
1495.56
1364.177
1244.163
1136.558
1041.915
960.3346
891.5174
834.8258
789.3465
753.9916
727.4819
708.6213
696.1104
686.9103
2881.143
2466.198
2083.429
1768.522
1543.392
1415.708
1381.679
1429.522
1542.708
1702.711
1891.165
2091.397
2289.38
2474.216
2638.241
2776.858
2888.19
2972.617
3032.275
3070.55
3091.599
3099.92
3099.98
3095.902
3091.219
3088.693
3090.196
3096.663
3108.091
3123.606
3141.576
3159.76
3175.497
3185.9
3188.065
3179.272
3157.158
3119.87
3066.175
2995.529
2908.103
2804.765
2687.022
2556.931
2416.985
2269.978
2118.871
1966.649
1816.198
1670.185
1530.973
1400.541
1280.45
1171.813
1075.302
991.1499
919.3405
858.6739
812.6484
757.1624
1276.488
1677.988
1911.714
2001.13
1983.679
1899.74
1786.657
1675.371
1588.8
1541.498
1540.289
1585.509
1672.543
1793.431
1938.366
2096.997
2259.465
2417.148
2563.14
2692.481
2802.187
2891.117
2959.738
3009.808
3044.023
3065.659
3078.224
3085.149
3089.517
3093.854
3099.98
3108.921
3120.885
3135.296
3150.882
3165.798
3177.792
3184.376
3183.018
3171.315
3147.165
3108.893
3055.369
2986.063
2901.084
2801.167
2687.626
2562.283
2427.372
2285.421
2139.135
1991.27
1844.518
1701.399
1564.204
1434.757
1315.187
1203.963
1114.891
985.6046
993.4864
1048.089
1188.855
1365.092
1533.528
1665.927
1749.089
1782.226
1773.452
1736.165
1685.811
1637.313
1603.272
1592.896
1611.574
1660.964
1739.467
1842.924
1965.432
2100.161
2240.097
2378.667
2510.21
2630.29
2735.853
2825.253
2898.158
2955.374
2998.602
3030.167
3052.732
3069.026
3081.596
3092.602
3103.661
3115.75
3129.155
3143.492
3157.758
3170.44
3179.64
3183.235
3179.035
3164.942
3139.099
3100.015
3046.661
2978.542
2895.72
2798.824
2689.005
2567.887
2437.479
2300.065
2158.179
2014.115
1871.551
1727.638
1608.182
1408.59
1028.443
997.3086
985.8473
1012.199
1079.378
1178.564
1294.586
1410.917
1513.345
1592.16
1642.959
1666.39
1667.203
1652.94
1632.51
1614.874
1607.961
1617.905
1648.612
1701.637
1776.33
1870.167
1979.22
2098.672
2223.339
2348.145
2468.516
2580.67
2681.808
2770.189
2845.121
2906.854
2956.431
2995.474
3025.971
3050.039
3069.719
3086.785
3102.603
3118.027
3133.346
3148.283
3162.03
3173.331
3180.588
3181.986
3175.637
3159.718
3132.599
3092.958
3039.873
2972.885
2892.035
2797.846
2691.418
2573.839
2448.526
2310.555
2192.587
1966.27
1049.679
1040.01
1020.845
999.0742
985.3378
989.3812
1017.019
1068.974
1141.255
1226.543
1315.977
1400.883
1474.161
1531.184
1570.189
1592.203
1600.6
1600.422
1597.59
1598.123
1607.451
1629.886
1668.284
1723.901
1796.421
1884.135
1984.228
2093.123
2206.854
2321.424
2433.114
2538.743
2635.835
2722.721
2798.556
2863.268
2917.454
2962.225
2999.039
3029.511
3055.239
3077.642
3097.831
3116.513
3133.937
3149.879
3163.67
3174.252
3180.267
3180.161
3172.306
3155.116
3127.167
3087.274
3034.699
2968.645
2890.764
2794.597
2710.027
2518.735
1054.302
1053.947
1050.532
1041.495
1026.636
1008.731
992.8344
984.8508
989.9753
1011.48
1050.095
1103.988
1169.219
1240.513
1312.163
1378.893
1436.578
1482.71
1516.608
1539.355
1553.539
1562.825
1571.462
1583.767
1603.664
1634.305
1677.817
1735.17
1806.172
1889.568
1983.232
2084.401
2189.957
2296.69
2401.549
2501.853
2595.441
2680.771
2756.948
2823.707
2881.337
2930.571
2972.456
3008.201
3039.029
3066.049
3090.137
3111.851
3131.38
3148.526
3162.715
3173.044
3178.353
3177.29
3168.519
3150.353
3122.802
3079.729
3040.74
2925.812
1056.139
1056.066
1056.275
1055.8
1053.016
1046.42
1035.459
1021.053
1005.61
992.5996
985.8427
988.7606
1003.735
1031.69
1071.955
1122.394
1179.76
1240.194
1299.772
1355.033
1403.388
1443.402
1474.902
1498.926
1517.536
1533.532
1550.108
1570.496
1597.632
1633.888
1680.872
1739.323
1809.092
1889.205
1977.991
2073.257
2172.496
2273.087
2372.5
2468.464
2559.095
2642.985
2719.24
2787.474
2847.757
2900.539
2946.541
2986.644
3021.762
3052.737
3080.236
3104.681
3126.2
3144.586
3159.392
3169.632
3175.059
3171.771
3168.355
3129.431
1055.177
1055.354
1055.594
1056.09
1056.692
1056.771
1055.303
1051.202
1043.757
1033.003
1019.892
1006.252
994.5442
987.487
987.6198
996.8951
1016.369
1046.037
1084.835
1130.791
1181.303
1233.484
1284.531
1332.064
1374.392
1410.683
1441.02
1466.359
1488.384
1509.301
1531.586
1557.727
1589.98
1630.164
1679.512
1738.584
1807.245
1884.71
1969.63
2060.229
2154.454
2250.14
2345.164
2437.586
2525.759
2608.4
2684.637
2754.002
2816.407
2872.079
2921.484
2965.232
3003.982
3038.341
3068.828
3095.636
3119.141
3138.293
3154.504
3165.484
1052.494
1052.91
1053.262
1053.646
1054.195
1054.996
1055.942
1056.632
1056.386
1054.401
1049.974
1042.733
1032.829
1021.024
1008.677
997.6053
989.8582
987.4399
992.0274
1004.733
1025.944
1055.271
1091.591
1133.198
1178.011
1223.836
1268.62
1310.68
1348.887
1382.769
1412.544
1439.075
1463.756
1488.36
1514.849
1545.176
1581.106
1624.057
1674.983
1734.309
1801.909
1877.132
1958.872
2045.668
2135.819
2227.515
2318.957
2408.478
2494.623
2576.226
2652.438
2722.738
2786.916
2845.02
2897.313
2944.176
2985.997
3023.732
3054.232
3096.806
1050.869
1050.767
1050.785
1050.917
1051.157
1051.546
1052.167
1053.077
1054.214
1055.331
1055.99
1055.613
1053.589
1049.411
1042.826
1033.957
1023.37
1012.072
1001.438
993.0618
988.5721
989.4319
996.7511
1011.145
1032.653
1060.736
1094.34
1132.022
1172.122
1212.95
1252.979
1291.002
1326.259
1358.502
1388.015
1415.564
1442.318
1469.719
1499.343
1532.746
1571.327
1616.205
1668.126
1727.416
1793.954
1867.196
1946.227
2029.83
2116.585
2204.965
2293.437
2380.553
2465.023
2545.782
2621.989
2693.174
2758.613
2820.1
2869.108
2945.098
1054.482
1052.97
1051.744
1050.825
1050.187
1049.79
1049.616
1049.692
1050.071
1050.789
1051.82
1053.026
1054.14
1054.765
1054.419
1052.609
1048.926
1043.152
1035.348
1025.91
1015.582
1005.408
996.646
990.635
988.6505
991.7581
1000.689
1015.758
1036.825
1063.313
1094.282
1128.529
1164.726
1201.568
1237.908
1272.872
1305.952
1337.042
1366.45
1394.853
1423.233
1452.774
1484.753
1520.423
1560.903
1607.084
1659.561
1718.58
1784.033
1855.464
1932.108
2012.952
2096.799
2182.364
2268.29
2353.489
2436.057
2518.245
2585.207
2697.78
1063.677
1060.926
1058.374
1056.119
1054.211
1052.662
1051.456
1050.567
1049.984
1049.717
1049.786
1050.214
1050.991
1052.049
1053.236
1054.299
1054.894
1054.613
1053.043
1049.834
1044.777
1037.877
1029.399
1019.882
1010.126
1001.126
993.9859
989.812
989.5968
994.116
1003.847
1018.92
1039.107
1063.854
1092.342
1123.578
1156.503
1190.103
1223.512
1256.1
1287.527
1317.779
1347.163
1376.272
1405.931
1437.115
1470.868
1508.203
1550.023
1597.044
1649.742
1708.31
1772.65
1842.393
1916.851
1995.394
2076.066
2161.857
2233.986
2367.318
1075.333
1072.196
1068.682
1064.902
1061.026
1057.244
1053.727
1050.609
1047.984
1045.907
1044.408
1043.497
1043.173
1043.421
1044.207
1045.462
1047.069
1048.84
1050.515
1051.766
1052.22
1051.501
1049.285
1045.359
1039.676
1032.4
1023.919
1014.844
1005.967
998.2036
992.5093
989.7947
990.8371
996.2068
1006.215
1020.886
1039.965
1062.947
1089.137
1117.724
1147.868
1178.781
1209.812
1240.504
1270.638
1300.255
1329.645
1359.323
1389.982
1422.426
1457.508
1496.054
1538.792
1586.315
1638.954
1697.084
1759.67
1830.502
1891.479
2016.321
1083.69
1086.851
1091.209
1095.318
1098.122
1099.064
1098.004
1095.101
1090.698
1085.232
1079.16
1072.915
1066.875
1061.347
1056.565
1052.69
1049.811
1047.948
1047.048
1046.981
1047.536
1048.425
1049.294
1049.748
1049.391
1047.864
1044.902
1040.376
1034.332
1027.012
1018.851
1010.46
1002.578
996.0157
991.587
990.0358
991.972
997.8185
1007.778
1021.822
1039.698
1060.97
1085.06
1111.315
1139.072
1167.726
1196.787
1225.928
1255.017
1284.122
1313.514
1343.634
1375.058
1408.463
1444.498
1484.032
1526.829
1576.853
1619.829
1716.051
1034.287
965.993
927.5121
913.124
916.1771
930.6256
951.4552
974.7626
997.7013
1018.365
1035.638
1049.035
1058.54
1064.471
1067.353
1067.815
1066.52
1064.102
1061.132
1058.085
1055.326
1053.098
1051.512
1050.552
1050.078
1049.849
1049.548
1048.819
1047.317
1044.749
1040.923
1035.786
1029.443
1022.174
1014.416
1006.738
999.8019
994.3059
990.9286
990.2724
992.8146
998.8705
1008.572
1021.867
1038.528
1058.186
1080.375
1104.576
1130.272
1157.004
1184.408
1212.256
1240.47
1269.148
1298.491
1329.041
1360.601
1396.461
1426.153
1494.277
2771.438
2373.706
2027.58
1737.49
1503.117
1321.026
1185.744
1090.631
1028.589
992.6201
976.2236
973.6626
980.1043
991.6649
1005.381
1019.131
1031.519
1041.752
1049.509
1054.815
1057.938
1059.286
1059.33
1058.535
1057.311
1055.975
1054.724
1053.629
1052.64
1051.603
1050.296
1048.459
1045.845
1042.263
1037.61
1031.906
1025.31
1018.115
1010.741
1003.704
997.5806
992.9595
990.4
990.3856
993.2891
999.3467
1008.646
1021.127
1036.597
1054.756
1075.233
1097.624
1121.534
1146.627
1172.602
1199.445
1226.566
1256.227
1280.156
1331.964
3007.304
2987.259
2879.445
2706.25
2492.542
2260.505
2028.121
1808.863
1611.92
1442.68
1303.361
1193.702
1111.644
1053.947
1016.732
995.9103
987.5172
987.9452
994.0868
1003.405
1013.946
1024.308
1033.579
1041.263
1047.185
1051.412
1054.16
1055.72
1056.395
1056.445
1056.061
1055.339
1054.285
1052.823
1050.826
1048.144
1044.641
1040.229
1034.902
1028.748
1021.967
1014.862
1007.827
1001.325
995.8496
991.8956
989.92
990.3103
993.3584
999.2443
1008.028
1019.657
1033.971
1050.745
1069.661
1090.525
1112.605
1137.359
1157.838
1200.85
2969.612
3001.629
3026.738
3024.919
2983.948
2899.885
2775.402
2617.671
2436.397
2242.18
2045.236
1854.526
1677.231
1518.529
1381.601
1267.805
1176.954
1107.655
1057.663
1024.207
1004.29
994.9232
993.3155
996.9963
1003.892
1012.358
1021.168
1029.482
1036.791
1042.85
1047.605
1051.129
1053.555
1055.031
1055.678
1055.573
1054.742
1053.165
1050.791
1047.567
1043.456
1038.467
1032.673
1026.224
1019.352
1012.363
1005.625
999.5501
994.5625
991.0764
989.4664
990.0456
993.045
998.6115
1006.772
1017.562
1030.558
1046.81
1061.102
1093.571
2944.544
2952.48
2970.415
2995.599
3020.359
3034.971
3030.194
2998.978
2937.353
2844.657
2723.227
2577.784
2414.65
2240.967
2063.966
1890.377
1725.979
1575.331
1441.645
1326.791
1231.405
1155.069
1096.526
1053.918
1025.012
1007.41
998.7235
996.7086
999.3673
1005.006
1012.258
1020.084
1027.74
1034.734
1040.78
1045.739
1049.569
1052.282
1053.911
1054.488
1054.033
1052.558
1050.068
1046.581
1042.142
1036.836
1030.799
1024.227
1017.373
1010.541
1004.077
998.3443
993.7104
990.5274
989.0935
989.7089
992.3861
997.9602
1003.531
1020.9
2922.096
2925.176
2929.635
2938.546
2953.784
2974.89
2998.908
3020.887
3034.766
3034.397
3014.472
2971.204
2902.714
2809.147
2692.543
2556.52
2405.848
2245.969
2082.521
1920.911
1765.978
1621.74
1491.247
1376.529
1278.625
1197.672
1133.045
1083.52
1047.452
1022.937
1007.973
1000.586
998.9283
1001.354
1006.458
1013.091
1020.353
1027.573
1034.274
1040.137
1044.96
1048.627
1051.078
1052.292
1052.268
1051.028
1048.615
1045.097
1040.575
1035.189
1029.119
1022.593
1015.875
1009.264
1003.073
997.6522
993.2316
990.416
988.4013
990.7729
2892.536
2897.647
2901.834
2905.687
2910.637
2918.475
2930.687
2947.837
2969.129
2992.312
3013.885
3029.527
3034.635
3024.884
2996.721
2947.748
2876.945
2784.742
2672.937
2544.5
2403.29
2253.722
2100.433
1947.957
1800.462
1661.528
1534.011
1419.965
1320.635
1236.497
1167.351
1112.431
1070.541
1040.186
1019.706
1007.388
1001.561
1000.669
1003.321
1008.319
1014.665
1021.559
1028.379
1034.661
1040.07
1044.378
1047.44
1049.178
1049.566
1048.623
1046.411
1043.028
1038.612
1033.338
1027.414
1021.088
1014.606
1008.277
1002.633
995.5283
2862.472
2867.757
2872.88
2877.565
2881.734
2885.717
2890.319
2896.705
2906.102
2919.405
2936.837
2957.717
2980.38
3002.258
3020.095
3030.257
3029.109
3013.373
2980.456
2928.696
2857.512
2767.443
2660.094
2537.994
2404.392
2263.012
2117.797
1972.659
1831.261
1696.83
1572.034
1458.897
1358.769
1272.349
1199.733
1140.495
1093.79
1058.459
1033.134
1016.34
1006.58
1002.404
1002.465
1005.551
1010.611
1016.755
1023.256
1029.537
1035.159
1039.799
1043.24
1045.351
1046.079
1045.431
1043.477
1040.319
1036.155
1030.98
1026.023
1016.529
2833.79
2838.469
2843.279
2848.152
2852.915
2857.378
2861.441
2865.248
2869.271
2874.286
2881.237
2891.039
2904.344
2921.319
2941.49
2963.651
2985.885
3005.674
3020.089
3026.037
3020.536
3000.978
2965.359
2912.458
2841.936
2754.368
2651.198
2534.629
2407.466
2272.93
2134.453
1995.476
1859.268
1728.772
1606.483
1494.374
1393.855
1305.771
1230.435
1167.685
1116.952
1077.351
1047.763
1026.924
1013.497
1006.143
1003.571
1004.585
1008.102
1013.179
1019.015
1024.95
1030.462
1035.154
1038.753
1041.06
1042.074
1041.467
1040.495
1034.826
2810.493
2813.804
2817.664
2822.078
2826.943
2832.08
2837.243
2842.166
2846.661
2850.712
2854.539
2858.613
2863.619
2870.355
2879.594
2891.92
2907.564
2926.275
2947.235
2969.037
2989.74
3006.982
3018.143
3020.552
3011.696
2989.424
2952.124
2898.853
2829.414
2744.376
2645.036
2533.339
2411.744
2283.081
2150.382
2016.714
1885.031
1758.035
1638.071
1527.053
1426.419
1337.12
1259.632
1193.994
1139.863
1096.578
1063.231
1038.74
1021.916
1011.527
1006.349
1005.21
1007.024
1010.815
1015.734
1021.049
1026.23
1030.639
1034.41
1036.691
2794.677
2791.863
2788.3
2785.212
2783.474
2783.561
2785.597
2789.42
2794.664
2800.859
2807.535
2814.314
2820.993
2827.593
2834.374
2841.801
2850.477
2861.031
2873.996
2889.672
2908.007
2928.514
2950.226
2971.701
2991.087
3006.226
3014.797
3014.488
3003.16
2979.015
2940.731
2887.565
2819.414
2736.829
2640.985
2533.612
2416.894
2293.347
2165.678
2036.653
1908.963
1785.107
1667.298
1557.39
1456.831
1366.647
1287.437
1219.402
1162.378
1115.891
1079.213
1051.421
1031.46
1018.2
1010.482
1007.184
1007.185
1009.667
1012.951
1020.016
2831.902
2882.849
2910.645
2919.822
2915.63
2902.862
2885.521
2866.734
2848.768
2833.103
2820.547
2811.371
2805.466
2802.484
2801.984
2803.55
2806.884
2811.854
2818.508
2827.044
2837.747
2850.891
2866.641
2884.947
2905.453
2927.446
2949.825
2971.124
2989.574
3003.191
3009.903
3007.683
2994.69
2969.4
2930.715
2878.043
2811.348
2731.16
2638.551
2535.078
2422.698
2303.671
2180.441
2055.523
1931.389
1810.366
1694.549
1585.735
1485.372
1394.538
1313.927
1243.868
1184.348
1135.049
1095.389
1064.611
1041.7
1025.854
1015.422
1009.698
1482.196
1792.131
2063.123
2290.78
2474.607
2616.852
2721.632
2794.188
2840.255
2865.558
2875.445
2874.634
2867.076
2855.912
2843.502
2831.503
2820.994
2812.61
2806.683
2803.37
2802.751
2804.9
2809.911
2817.898
2828.955
2843.098
2860.196
2879.906
2901.614
2924.407
2947.064
2968.091
2985.769
2998.245
3003.633
3000.123
2986.102
2960.25
2921.638
2869.784
2804.698
2726.886
2637.329
2537.438
2428.987
2314.02
2194.765
2073.526
1952.592
1834.141
1720.167
1612.41
1512.312
1420.987
1339.209
1267.393
1205.748
1153.478
1113.653
1066.187
1274.67
1238.11
1290.963
1411.968
1577.219
1765.272
1958.635
2144.074
2312.418
2458.105
2578.588
2673.688
2744.948
2795.049
2827.303
2845.242
2852.307
2851.637
2845.944
2837.466
2827.976
2818.834
2811.058
2805.399
2802.415
2802.518
2806.006
2813.062
2823.746
2837.956
2855.393
2875.531
2897.584
2920.502
2942.985
2963.516
2980.421
2991.946
2996.341
2991.964
2977.364
2951.378
2913.195
2862.412
2799.062
2723.621
2636.99
2540.454
2435.628
2324.378
2208.746
2090.859
1972.85
1856.764
1744.525
1637.714
1538.268
1444.916
1369.938
1259.529
2520.259
2216.64
1953.137
1748.797
1613.294
1547.619
1546.13
1598.804
1693.27
1816.483
1956.005
2100.882
2242.15
2373.044
2488.984
2587.378
2667.33
2729.288
2774.674
2805.552
2824.32
2833.479
2835.451
2832.465
2826.494
2819.225
2812.072
2806.19
2802.504
2801.723
2804.359
2810.721
2820.911
2834.805
2852.039
2871.994
2893.799
2916.333
2938.259
2958.067
2974.129
2984.772
2988.36
2983.373
2968.49
2942.656
2905.147
2855.609
2794.083
2721.01
2637.214
2543.869
2442.452
2334.665
2222.439
2107.53
1992.908
1876.091
1778.783
1613.459
2672.623
2661.423
2578.57
2441.997
2275.339
2102.008
1942.12
1810.936
1718.296
1668.783
1662.385
1695.464
1761.829
1853.789
1963.092
2081.697
2202.355
2318.992
2426.904
2522.811
2604.775
2672.045
2724.847
2764.153
2791.462
2808.592
2817.513
2820.214
2818.607
2814.458
2809.349
2804.654
2801.523
2800.874
2803.386
2809.486
2819.345
2832.863
2849.671
2869.127
2890.332
2912.152
2933.255
2952.159
2967.294
2977.066
2979.934
2974.481
2959.481
2933.966
2897.27
2849.071
2789.409
2718.669
2637.671
2547.193
2449.873
2341.667
2248.678
2067.855
2584.991
2624.486
2655.774
2662.326
2634.087
2568.678
2470.356
2348.143
2213.755
2079.645
1957.371
1856.444
1783.644
1742.762
1734.695
1757.804
1808.435
1881.533
1971.254
2071.529
2176.543
2281.089
2380.822
2472.382
2553.43
2622.602
2679.404
2724.076
2757.44
2780.742
2795.514
2803.445
2806.276
2805.716
2803.373
2800.704
2798.969
2799.208
2802.207
2808.484
2818.272
2831.516
2847.87
2866.709
2887.149
2908.078
2928.201
2946.086
2960.23
2969.12
2971.3
2965.441
2950.402
2925.265
2889.478
2842.433
2785.451
2713.453
2649.696
2502.371
2490.961
2518.268
2550.814
2586.495
2619.051
2640.395
2642.928
2621.255
2573.18
2499.97
2405.998
2297.984
2184.043
2072.688
1971.934
1888.571
1827.671
1792.323
1783.604
1800.721
1841.306
1901.791
1977.821
2064.664
2157.582
2252.137
2344.425
2431.23
2510.104
2579.383
2638.156
2686.183
2723.803
2751.823
2771.397
2783.926
2790.947
2794.045
2794.772
2794.581
2794.764
2796.409
2800.359
2807.188
2817.18
2830.321
2846.303
2864.539
2884.183
2904.171
2923.261
2940.087
2953.222
2961.222
2962.77
2956.373
2941.954
2914.678
2889.514
2806.569
2324.354
2381.806
2430.624
2474.238
2515.448
2555.052
2591.554
2621.557
2640.624
2644.309
2629.107
2593.147
2536.567
2461.562
2372.16
2273.779
2172.661
2075.253
1987.632
1915.01
1861.378
1829.289
1819.798
1832.522
1865.816
1917.022
1982.755
2059.209
2142.443
2228.64
2314.306
2396.433
2472.598
2541.009
2600.511
2650.558
2691.152
2722.765
2746.249
2762.746
2773.589
2780.213
2784.072
2786.56
2788.949
2792.325
2797.551
2805.225
2815.664
2828.892
2844.642
2862.371
2881.287
2900.376
2918.496
2934.216
2946.709
2952.708
2957.504
2938.642
1776.5
1896.404
2008.479
2110.721
2202.787
2285.513
2360.181
2427.762
2488.353
2540.964
2583.638
2613.816
2628.834
2626.449
2605.31
2565.287
2507.638
2434.994
2351.177
2260.891
2169.339
2081.792
2003.192
1937.799
1888.924
1858.762
1848.326
1857.475
1885.029
1928.935
1986.482
2054.532
2129.747
2208.799
2288.557
2366.23
2439.473
2506.46
2565.906
2617.066
2659.708
2694.053
2720.711
2740.601
2754.864
2764.781
2771.685
2776.885
2781.596
2786.874
2793.57
2802.289
2813.366
2826.851
2842.529
2859.865
2878.212
2896.521
2913.063
2933.228
1692.7
1695.046
1724.477
1775.827
1842.834
1919.765
2002.007
2086.173
2169.87
2251.315
2328.948
2401.115
2465.898
2521.091
2564.325
2593.299
2606.062
2601.304
2578.596
2538.548
2482.856
2414.242
2336.283
2253.173
2169.421
2089.538
2017.73
1957.64
1912.132
1883.165
1871.728
1877.85
1900.676
1938.59
1989.376
2050.398
2118.786
2191.61
2266.048
2339.518
2409.782
2475.028
2533.909
2585.557
2629.572
2665.989
2695.221
2717.998
2735.286
2748.215
2757.99
2765.82
2772.847
2780.073
2788.324
2798.21
2809.934
2824.342
2837.546
2865.514
1761.854
1736.004
1713.949
1701.742
1703.325
1720.323
1752.488
1798.332
1855.694
1922.16
1995.301
2072.776
2152.321
2231.677
2308.515
2380.395
2444.782
2499.137
2541.058
2568.471
2579.829
2574.293
2551.866
2513.465
2460.913
2396.852
2324.595
2247.915
2170.803
2097.221
2030.859
1974.925
1931.977
1903.813
1891.411
1894.929
1913.76
1946.618
1991.669
2046.667
2109.118
2176.424
2246.03
2315.547
2382.857
2446.191
2504.182
2555.885
2600.785
2638.771
2670.099
2695.334
2715.286
2730.939
2743.368
2753.704
2762.845
2772.473
2780.192
2799.431
1801.114
1790.892
1775.278
1755.8
1735.466
1717.864
1706.399
1703.815
1711.975
1731.824
1763.476
1806.369
1859.426
1921.189
1989.907
2063.598
2140.067
2216.927
2291.633
2361.532
2423.961
2476.369
2516.474
2542.419
2552.929
2547.433
2526.144
2490.091
2441.081
2381.608
2314.716
2243.817
2172.491
2104.274
2042.468
1989.958
1949.078
1921.507
1908.221
1909.484
1924.881
1953.388
1993.472
2043.207
2100.408
2162.757
2227.936
2293.737
2358.164
2419.508
2476.407
2527.875
2573.312
2612.497
2645.546
2672.91
2695.132
2713.597
2726.904
2746.334
1817.022
1814.235
1809.612
1801.898
1790.411
1775.366
1757.878
1739.76
1723.241
1710.661
1704.197
1705.665
1716.405
1737.221
1768.385
1809.668
1860.375
1919.397
1985.244
2056.081
2129.774
2203.935
2276
2343.321
2403.288
2453.465
2491.732
2516.431
2526.481
2521.476
2501.732
2468.292
2422.883
2367.825
2305.906
2240.225
2174.017
2110.479
2052.601
2003.018
1963.886
1936.797
1922.726
1922.022
1934.424
1959.121
1994.829
2039.889
2092.377
2150.22
2211.312
2273.614
2335.25
2394.587
2450.27
2501.348
2546.933
2587.681
2619.208
2662.419
1819.893
1818.768
1817.68
1816.18
1813.486
1808.732
1801.219
1790.626
1777.139
1761.487
1744.881
1728.889
1715.278
1705.849
1702.292
1706.058
1718.272
1739.676
1770.591
1810.908
1860.084
1917.151
1980.732
2049.082
2120.126
2191.535
2260.813
2325.406
2382.83
2430.801
2467.374
2491.06
2500.927
2496.672
2478.652
2447.881
2405.977
2355.082
2297.748
2236.797
2175.172
2115.786
2061.374
2014.362
1976.764
1950.097
1935.336
1932.899
1942.653
1963.965
1995.76
2036.607
2084.808
2138.518
2195.789
2254.86
2313.5
2372.173
2420.594
2498.224
1832.19
1827.661
1824.077
1821.415
1819.456
1817.783
1815.804
1812.819
1808.127
1801.17
1791.654
1779.629
1765.535
1750.181
1734.7
1720.457
1708.945
1701.679
1700.088
1705.425
1718.687
1740.556
1771.351
1810.996
1859
1914.453
1976.043
2042.084
2110.576
2179.274
2245.789
2307.699
2362.668
2408.579
2443.646
2466.527
2476.405
2473.044
2456.81
2428.661
2390.101
2343.098
2289.988
2233.349
2175.871
2120.221
2068.917
2024.211
1987.992
1961.714
1946.35
1942.372
1949.757
1968.029
1996.256
2033.363
2077.192
2128.925
2174.598
2264.924
1860.179
1851.489
1843.716
1837.004
1831.42
1826.951
1823.486
1820.781
1818.446
1815.958
1812.724
1808.155
1801.758
1793.217
1782.463
1769.721
1755.515
1740.654
1726.185
1713.329
1703.406
1697.749
1697.625
1704.153
1718.233
1740.488
1771.204
1810.297
1857.285
1911.285
1971.022
2034.871
2100.906
2166.984
2230.84
2290.192
2342.863
2386.891
2420.639
2442.891
2452.917
2450.525
2436.072
2410.452
2375.051
2331.675
2282.464
2229.777
2176.08
2123.829
2075.349
2032.741
1997.782
1971.878
1955.964
1950.697
1955.548
1972.675
1991.043
2050.646
1903.794
1891.167
1879.355
1868.475
1858.611
1849.828
1842.186
1835.718
1830.398
1826.113
1822.638
1819.628
1816.641
1813.172
1808.708
1802.79
1795.083
1785.431
1773.897
1760.793
1746.675
1732.328
1718.73
1707
1698.337
1693.95
1694.99
1702.474
1717.22
1739.787
1770.414
1808.992
1855.028
1907.651
1965.62
2027.365
2091.042
2154.616
2215.948
2272.901
2323.447
2365.772
2398.371
2420.135
2430.405
2429.016
2416.306
2393.099
2360.67
2320.675
2275.071
2226.024
2175.801
2126.668
2080.77
2040.13
2006.171
1981.207
1962.998
1960.554
1966.381
1949.587
1933.523
1918.316
1904.046
1890.771
1878.543
1867.416
1857.449
1848.693
1841.168
1834.841
1829.604
1825.256
1821.501
1817.958
1814.19
1809.738
1804.173
1797.146
1788.435
1777.986
1765.944
1752.665
1738.714
1724.853
1712.004
1701.211
1693.585
1690.244
1692.246
1700.524
1715.819
1738.624
1769.128
1807.185
1852.289
1903.575
1959.833
2019.551
2080.971
2142.163
2201.117
2255.833
2304.424
2345.212
2376.811
2398.202
2408.783
2408.407
2397.385
2376.475
2346.842
2310.002
2267.756
2222.059
2175.162
2128.247
2088.251
2031.203
2037.393
2019.745
2001.914
1984.171
1966.755
1949.865
1933.655
1918.25
1903.757
1890.27
1877.881
1866.668
1856.694
1847.984
1840.515
1834.197
1828.859
1824.251
1820.045
1815.861
1811.286
1805.916
1799.397
1791.46
1781.965
1770.926
1758.538
1745.181
1731.423
1718.004
1705.804
1695.811
1689.068
1686.617