/*--------------------------------*- C++ -*----------------------------------*\
| =========                 |                                                 |
| \\      /  F ield         | OpenFOAM: The Open Source CFD Toolbox           |
|  \\    /   O peration     | Version:  2312                                  |
|   \\  /    A nd           | Website:  www.openfoam.com                      |
|    \\/     M anipulation  |                                                 |
\*---------------------------------------------------------------------------*/
FoamFile
{
    version     2.0;
    format      ascii;
    arch        "LSB;label=32;scalar=64";
    class       volScalarField;
    location    "4200";
    object      k;
}
// * * * * * * * * * * * * * * * * * * * * * * * * * * * * * * * * * * * * * //

dimensions      [0 2 -2 0 0 0 0];

internalField   nonuniform List<scalar> 
12000
(
0.002026555
0.00455217
0.005521144
0.006508264
0.00728622
0.007984652
0.008622879
0.009228569
0.009758082
0.0102193
0.01064461
0.01105441
0.01143343
0.01175788
0.01205181
0.01232605
0.01258136
0.01280517
0.01300673
0.0131903
0.01334412
0.01346529
0.01357277
0.01367433
0.01375168
0.01379386
0.0138226
0.01384666
0.01385203
0.01384978
0.01380826
0.01376748
0.01370785
0.0136324
0.01358766
0.01350169
0.01332653
0.01304309
0.01273041
0.01261453
0.0125646
0.01240415
0.01189705
0.01128065
0.01102577
0.01096595
0.01091133
0.01009495
0.009243269
0.008913267
0.008910142
0.008402201
0.007320072
0.006859627
0.006343771
0.005716893
0.004902642
0.004265579
0.003671443
0.003470646
0.002227722
0.005611631
0.006444193
0.007546812
0.008739251
0.009719521
0.01058197
0.01177571
0.01332596
0.01474553
0.01565441
0.01651049
0.01781325
0.01910216
0.02003393
0.02077562
0.02168942
0.02258418
0.02330692
0.02407452
0.0249675
0.02568292
0.0261009
0.02662238
0.02736331
0.02798855
0.02834743
0.02868937
0.02917197
0.02963626
0.03002764
0.03036461
0.0306239
0.03084615
0.03110818
0.0313549
0.0315508
0.03161806
0.03163635
0.03169733
0.0316418
0.03144028
0.03132118
0.03103761
0.0309282
0.03003252
0.02908894
0.02847427
0.02781206
0.02701983
0.02505653
0.02335005
0.02210757
0.02062379
0.0183587
0.0151727
0.01231919
0.009223263
0.00672394
0.006357109
0.003399597
0.007141051
0.008644158
0.01034034
0.01247486
0.01455653
0.01652724
0.01833341
0.02017745
0.02182856
0.02307443
0.02414998
0.02522763
0.02632766
0.0272756
0.02808579
0.02883157
0.02952851
0.03016411
0.03076016
0.03134593
0.03190217
0.03239507
0.03284405
0.03330041
0.03377063
0.03421162
0.03460688
0.03498893
0.03538311
0.03578675
0.03615248
0.03653038
0.0369234
0.03728112
0.03764416
0.03802521
0.03839098
0.03868001
0.03886938
0.03903206
0.03924065
0.03949214
0.03959307
0.03956982
0.03938403
0.03912566
0.03881767
0.03828896
0.03749234
0.03649463
0.03535475
0.03378693
0.0317263
0.02900964
0.02562498
0.02145955
0.01580853
0.009322234
0.008545827
0.004224893
0.007631778
0.009798528
0.01215499
0.01481954
0.01736644
0.01970535
0.02182492
0.02375795
0.02551904
0.02692504
0.02805965
0.02901287
0.0298179
0.03054654
0.03116684
0.03172806
0.03223574
0.03269509
0.03313194
0.03356094
0.0339788
0.03438078
0.0347744
0.03517115
0.03557238
0.03597097
0.03636448
0.03675815
0.037156
0.03752295
0.03790143
0.03831806
0.03872474
0.03911807
0.03950558
0.03988655
0.04025651
0.0406021
0.04091517
0.04119168
0.04142891
0.04161781
0.04174164
0.04179355
0.04176829
0.04161121
0.04132387
0.04089089
0.04024072
0.03939387
0.03818753
0.03639911
0.03412389
0.03142178
0.0282184
0.02416443
0.01900184
0.01238032
0.01023948
0.005008186
0.008105085
0.01088826
0.01380858
0.0168388
0.01961246
0.02202386
0.02405772
0.02576221
0.02720406
0.02843824
0.02951009
0.03042007
0.03103877
0.03149697
0.03189753
0.03226358
0.03261183
0.03294764
0.03328489
0.03363367
0.03399154
0.03435903
0.03473138
0.03511003
0.03549687
0.03589191
0.03629763
0.03671665
0.03712202
0.03753347
0.03798298
0.03844385
0.03891143
0.03938009
0.03985953
0.04034692
0.04082999
0.04130441
0.04176529
0.04220791
0.04262929
0.04301278
0.04333634
0.04359305
0.04376352
0.04382152
0.04374615
0.0435481
0.04317338
0.04235577
0.04102581
0.03936789
0.03739967
0.03493631
0.03172537
0.02747475
0.02178088
0.01422594
0.01144452
0.005711328
0.008412856
0.01155486
0.01475148
0.0179019
0.02070883
0.02309061
0.02505502
0.02665253
0.02792675
0.02892613
0.029713
0.0303994
0.03099841
0.03144785
0.03177464
0.03204493
0.03229555
0.03254991
0.03281134
0.03308184
0.03336437
0.03366179
0.0339841
0.03433566
0.03471743
0.03512892
0.03556688
0.03602804
0.03650794
0.03701029
0.03753497
0.03808562
0.03866246
0.03924278
0.03983166
0.04044444
0.04106664
0.04168976
0.04230714
0.04291101
0.04349197
0.04403924
0.04453591
0.04493885
0.04524229
0.04541419
0.04546231
0.04532476
0.04482136
0.04395933
0.04275857
0.0411978
0.03916967
0.03653956
0.03317065
0.02886891
0.02327635
0.01583923
0.01239635
0.006340936
0.008676057
0.01203771
0.015347
0.01849129
0.02122555
0.02348912
0.02531897
0.0267823
0.02794448
0.02887392
0.02956917
0.03008415
0.03049484
0.03085566
0.03113261
0.03133462
0.03151832
0.03170616
0.03191262
0.03214548
0.03241036
0.03271163
0.0330526
0.03343481
0.03385831
0.03432226
0.03482526
0.0353655
0.03594133
0.03655252
0.03718911
0.03785406
0.03855325
0.0392792
0.04002504
0.04078937
0.04156795
0.04235381
0.04313853
0.04391151
0.04465946
0.04536561
0.0460087
0.04656496
0.04700051
0.04731906
0.04743738
0.04728772
0.04684224
0.04607034
0.04492094
0.04333139
0.0412312
0.03853128
0.03509537
0.03069031
0.02489059
0.01703917
0.01309525
0.006920046
0.008885154
0.01233197
0.01561706
0.01865347
0.02127533
0.02347862
0.0252739
0.02668067
0.02775827
0.02855098
0.02914733
0.02958251
0.02989893
0.03014544
0.03037461
0.03058153
0.03075965
0.03094307
0.03114947
0.03139104
0.03167532
0.03200712
0.03238911
0.03282236
0.03330679
0.03384163
0.03442576
0.03505711
0.03573325
0.03645216
0.03721116
0.03800917
0.03884329
0.0397096
0.04060338
0.04151952
0.04245178
0.0433922
0.04433072
0.04525477
0.04614866
0.04699311
0.0477648
0.04843254
0.04898594
0.04937019
0.04948797
0.04933772
0.04886437
0.04802236
0.04676518
0.04504179
0.04278857
0.03991931
0.0363067
0.0317407
0.0258332
0.01796682
0.01363505
0.007633421
0.009067892
0.01249991
0.01570406
0.01864614
0.02120081
0.02330262
0.02498315
0.02630833
0.02732534
0.02808831
0.0286546
0.02907059
0.02937801
0.02961345
0.02981361
0.03002164
0.03024035
0.03046296
0.03070981
0.03099427
0.03132635
0.03171149
0.03215227
0.03264963
0.03320327
0.03381182
0.03447272
0.03519191
0.03596581
0.03679082
0.03766758
0.03859106
0.03955188
0.04054694
0.04157167
0.04262018
0.04368506
0.04475698
0.04582424
0.04687233
0.04788329
0.04883623
0.0497025
0.05046362
0.05107098
0.05145878
0.05157618
0.05139966
0.05087132
0.04994516
0.04857636
0.0467188
0.04431802
0.04129905
0.03754328
0.03284121
0.02678878
0.01871567
0.01402095
0.007824869
0.009186431
0.0125878
0.01569432
0.01851891
0.0209544
0.02297614
0.0246075
0.02589835
0.02690083
0.02766776
0.02824968
0.02869177
0.02903433
0.02931192
0.02955436
0.02979069
0.03004842
0.03033407
0.03064264
0.03098324
0.03136081
0.0317978
0.03229728
0.03286077
0.03348895
0.03418175
0.03493853
0.03575035
0.03661632
0.03753424
0.03850803
0.03953323
0.04059749
0.04169695
0.04282646
0.04397939
0.04514741
0.04632009
0.04748444
0.04862447
0.04972073
0.05074943
0.05168563
0.05248671
0.05310551
0.05348935
0.05358533
0.05335022
0.05272686
0.05167083
0.05014581
0.04811731
0.04554114
0.0423503
0.03843171
0.03358139
0.02740634
0.01926183
0.0143097
0.008003754
0.009249188
0.01262196
0.01562366
0.01831276
0.02064367
0.02259788
0.02419987
0.02548869
0.0265116
0.02731676
0.02795006
0.0284531
0.02886273
0.02921063
0.02952375
0.02981308
0.030114
0.03044511
0.03081817
0.03123596
0.03171047
0.03223532
0.03281765
0.03346078
0.034166
0.03493307
0.03576054
0.03664597
0.03758686
0.03858038
0.0396299
0.04073119
0.04187223
0.04304832
0.04425361
0.04548086
0.04672103
0.04796286
0.04919239
0.05039234
0.05154147
0.05261366
0.0535779
0.05439308
0.05501118
0.05537905
0.05543308
0.05511839
0.05438183
0.0531846
0.05150183
0.04931196
0.04658185
0.0432493
0.03920221
0.03423504
0.02794913
0.01968528
0.01449264
0.008924273
0.009333332
0.01261389
0.01552672
0.01810633
0.02034821
0.02224673
0.02382313
0.02511414
0.02616288
0.02701296
0.02770589
0.02828212
0.02877606
0.02921486
0.02961346
0.03000983
0.0304099
0.03083297
0.03129207
0.03179701
0.03235116
0.03295656
0.03361562
0.0343311
0.0351046
0.0359364
0.03682567
0.03777077
0.03876962
0.03981963
0.04092254
0.04207456
0.04326584
0.04449101
0.04574373
0.04701619
0.04829879
0.04957969
0.05084423
0.05207423
0.05324714
0.0543353
0.05530472
0.05611446
0.05671086
0.05703015
0.05702815
0.05662396
0.05576044
0.05441825
0.05258954
0.05025932
0.04739775
0.04394304
0.03978239
0.03471016
0.02833045
0.01999402
0.01463102
0.009031965
0.009365797
0.01259434
0.01537421
0.01783361
0.01998794
0.02184057
0.02340591
0.02471827
0.02581586
0.02673822
0.02752136
0.02819432
0.02878421
0.02932157
0.02983857
0.03034385
0.03085228
0.03138013
0.0319405
0.03254309
0.03319037
0.03387998
0.03461305
0.03539603
0.03623019
0.03711532
0.03805183
0.03903955
0.04007706
0.04116238
0.04229553
0.04347377
0.04469001
0.04593836
0.04721181
0.04850214
0.04979925
0.05109086
0.05236199
0.05359426
0.05476477
0.05584497
0.05679786
0.0575787
0.0581396
0.05841804
0.05834705
0.0578422
0.05685455
0.05537744
0.05342801
0.05099281
0.0480313
0.04448149
0.0402308
0.03507359
0.02861311
0.02019996
0.01469352
0.009199099
0.009372143
0.01254964
0.01524735
0.01762091
0.01971375
0.02153639
0.02310722
0.02445191
0.02560062
0.02658291
0.02742693
0.02816603
0.02884088
0.02947751
0.03009586
0.03070998
0.031331
0.03196649
0.03262541
0.03331594
0.03404465
0.03481475
0.03562752
0.03648072
0.03737002
0.03829787
0.03927151
0.04029154
0.04135631
0.04246465
0.04361514
0.04480595
0.04603282
0.04728928
0.04856786
0.04985976
0.05115444
0.05243908
0.05369815
0.0549127
0.05605962
0.05711117
0.05803562
0.05879712
0.05934125
0.05958721
0.05945698
0.05887316
0.05778022
0.05617583
0.05410953
0.05157695
0.04852739
0.04489682
0.04057195
0.0353469
0.02882548
0.0203594
0.01474588
0.009392477
0.009372253
0.01249742
0.01513069
0.01743361
0.01947337
0.02127137
0.02284501
0.02421303
0.0253977
0.02642351
0.0273224
0.0281332
0.02889327
0.02962516
0.03034217
0.03105254
0.0317663
0.03249407
0.03324381
0.03402042
0.03482614
0.03566395
0.03653661
0.03744488
0.03838847
0.03936702
0.04037933
0.04142579
0.04251085
0.04363603
0.0447981
0.04599629
0.04722739
0.04848375
0.0497586
0.05104286
0.05232565
0.05359376
0.05483114
0.0560194
0.05714183
0.05817781
0.0590914
0.05983679
0.06035535
0.06057255
0.06039905
0.05974628
0.05856171
0.05684881
0.05465906
0.05202297
0.04889837
0.04520168
0.04081637
0.03553461
0.02895905
0.02044135
0.01474958
0.009569457
0.009375616
0.01245019
0.01502373
0.01726331
0.01925425
0.02102502
0.02259245
0.02397304
0.02518684
0.02625822
0.02721474
0.02809459
0.02893582
0.02975267
0.03055375
0.03134913
0.03214888
0.03296161
0.03379135
0.03464017
0.03551163
0.03640857
0.03733299
0.03828659
0.03927077
0.04028694
0.04133626
0.04241933
0.04353491
0.04467859
0.04584323
0.04703366
0.04825605
0.04950218
0.05076486
0.05203456
0.05330114
0.05455314
0.05577701
0.05695648
0.05807169
0.05909631
0.05999508
0.06072065
0.0612105
0.0613871
0.06116384
0.06045384
0.05919464
0.05738297
0.05508847
0.05237108
0.04918395
0.04543065
0.04099441
0.03566813
0.02905504
0.02050318
0.01475068
0.009708363
0.009392032
0.01241381
0.01493382
0.01711738
0.019063
0.02080492
0.02236116
0.0237477
0.02498331
0.02609056
0.02709522
0.0280317
0.02893543
0.02982439
0.03070484
0.031583
0.03246376
0.03334991
0.03424612
0.0351567
0.03608515
0.03703357
0.03800389
0.03899833
0.04001884
0.04106704
0.04214408
0.04325031
0.04438431
0.04554106
0.04670948
0.04789184
0.04910315
0.05034345
0.05160092
0.05286429
0.0541229
0.05536571
0.05657991
0.0577498
0.05885502
0.05986806
0.06075153
0.06145591
0.06191754
0.06205804
0.06179003
0.06102364
0.05970086
0.05781887
0.05544362
0.0526593
0.04941938
0.04561855
0.04114026
0.03577736
0.02913255
0.02054025
0.01473236
0.009819781
0.009408538
0.01238374
0.01485724
0.01699075
0.01889289
0.02060462
0.02214631
0.02353448
0.02478715
0.02592514
0.02697181
0.0279588
0.02892
0.02986904
0.03081347
0.03175677
0.03270189
0.03365193
0.03460901
0.03557523
0.03655271
0.03754453
0.03855394
0.03958348
0.04063538
0.04171139
0.04281249
0.0439383
0.04508649
0.04625226
0.04742873
0.04860988
0.04980729
0.05103672
0.05228934
0.05354731
0.05479914
0.05603438
0.05724086
0.05840282
0.0594992
0.06050146
0.06137104
0.06205697
0.06249406
0.06260307
0.06229735
0.06148471
0.06010513
0.05815434
0.05570413
0.05285342
0.0495624
0.04572063
0.04120689
0.03581368
0.02914635
0.02054189
0.0146956
0.009899942
0.00943962
0.01237966
0.01480214
0.01688477
0.01874294
0.02042226
0.0219456
0.02333054
0.02459487
0.0257581
0.02684111
0.02786987
0.02887398
0.02987114
0.03087034
0.03187006
0.03287126
0.03387492
0.03488224
0.03589491
0.03691517
0.03794591
0.03899017
0.04005082
0.04113031
0.04223046
0.04335214
0.04449479
0.04565595
0.04683075
0.04801219
0.04919232
0.05038242
0.05160244
0.05284719
0.05409926
0.05534605
0.05657649
0.05777826
0.05893549
0.06002654
0.06102172
0.06188089
0.06255144
0.0629668
0.06304693
0.06270575
0.06185043
0.06042302
0.05842031
0.05591532
0.05301138
0.04967967
0.04580942
0.04127228
0.03585788
0.02916336
0.02054587
0.01466871
0.009974121
0.009490265
0.01238723
0.01476289
0.01679592
0.01860968
0.02025453
0.02175661
0.02313486
0.0244071
0.02559167
0.02670712
0.02777191
0.02881098
0.02984798
0.03088474
0.03192743
0.03297252
0.03401964
0.03506901
0.03612141
0.03717856
0.03824321
0.03931844
0.04040715
0.04151183
0.04263428
0.04377526
0.04493409
0.04610831
0.04729324
0.04848185
0.0496648
0.05085207
0.05206569
0.05330467
0.05455345
0.05579886
0.05702891
0.05823067
0.05938772
0.06047759
0.06146937
0.06232147
0.06297969
0.06337623
0.06343035
0.06305661
0.06216153
0.06068848
0.05863563
0.05607918
0.0531276
0.04975787
0.04585787
0.04129638
0.03586275
0.02916142
0.02052901
0.01461734
0.0100227
0.009561999
0.0124246
0.01474544
0.01672537
0.01849206
0.02009983
0.02157734
0.02294485
0.02422019
0.02542053
0.02656241
0.0276608
0.02873163
0.02979476
0.03086305
0.03193454
0.03301318
0.03409486
0.03517836
0.03626396
0.03735308
0.03844798
0.03955145
0.04066631
0.04179502
0.04293929
0.04409974
0.04527563
0.04646459
0.04766228
0.04886182
0.0500527
0.05124248
0.0524541
0.05369103
0.05493997
0.05618727
0.05742018
0.058625
0.05978454
0.06087533
0.06186519
0.06271102
0.06335722
0.06373486
0.06376281
0.06335647
0.06242285
0.06090758
0.0588109
0.05621104
0.0532194
0.04981911
0.04589663
0.04131447
0.0358661
0.02915438
0.02051416
0.01458639
0.01009631
0.009669646
0.01248901
0.01474794
0.01667071
0.01838756
0.01995555
0.02140535
0.02275823
0.02403193
0.02524259
0.02640506
0.0275324
0.02863505
0.02972335
0.03081131
0.031908
0.03300904
0.03411429
0.03522443
0.03633756
0.0374543
0.03857629
0.03970588
0.04084564
0.04199788
0.04316422
0.04434518
0.04553979
0.04674543
0.04795768
0.04917077
0.05037886
0.05157982
0.05278961
0.05402556
0.05527911
0.05653196
0.0577703
0.05898009
0.06014348
0.06123604
0.06222429
0.06306375
0.06369751
0.06405578
0.06405718
0.06361784
0.06264598
0.06108948
0.05895097
0.05631148
0.05328519
0.04985791
0.04591489
0.04131637
0.03585488
0.02912945
0.02048101
0.01453226
0.01014274
0.009802775
0.01258072
0.01477303
0.01663393
0.01829713
0.01982185
0.02124017
0.02257389
0.02384046
0.02505501
0.02623086
0.0273794
0.02850961
0.02962791
0.03073834
0.03184849
0.03296708
0.03409345
0.03522335
0.03635882
0.03749942
0.03864569
0.03979962
0.04096337
0.04213891
0.04332768
0.04453012
0.04574519
0.04697019
0.04820069
0.049431
0.0506556
0.05187055
0.05308901
0.05432974
0.05558785
0.05684649
0.05809125
0.059307
0.06047483
0.06156918
0.06255537
0.06338767
0.0640081
0.06434624
0.06432104
0.06384677
0.06283785
0.06124238
0.05906573
0.05639135
0.05333528
0.04988542
0.04592583
0.04131602
0.03584414
0.02911233
0.02046057
0.01450267
0.01021562
0.009972614
0.01270356
0.01482027
0.0166127
0.01821854
0.01969679
0.02108011
0.02239033
0.02364432
0.02485617
0.02603781
0.02719913
0.02834792
0.02948979
0.03062832
0.03176568
0.03290293
0.0340429
0.03519054
0.03634544
0.03750676
0.03867569
0.03985257
0.04103913
0.04223726
0.0434484
0.04467286
0.0459095
0.04715555
0.04840669
0.04965737
0.05090133
0.05213262
0.05336288
0.05461174
0.05587663
0.05714207
0.05839354
0.05961515
0.060787
0.06188239
0.06286545
0.06368931
0.06429509
0.06461198
0.06455944
0.06405013
0.06300456
0.06137121
0.05915847
0.05645249
0.05337086
0.04990142
0.04592613
0.04130351
0.03582088
0.02908034
0.02042355
0.01445324
0.01029807
0.01017876
0.01285616
0.01489311
0.01661397
0.01815639
0.01958348
0.02092742
0.02220942
0.02344549
0.02464853
0.02582919
0.02699603
0.02815568
0.0293129
0.03047085
0.03163137
0.03279536
0.03396329
0.03513543
0.03631147
0.03749267
0.03868164
0.03988111
0.04109107
0.04231219
0.0435457
0.04479213
0.04605058
0.04731831
0.04859089
0.04986263
0.05112702
0.05237728
0.05362262
0.05488153
0.05615374
0.05742588
0.0586836
0.05991029
0.06108504
0.06218008
0.06315845
0.06397223
0.06456181
0.06485611
0.06477521
0.06423255
0.06315078
0.06148108
0.05923487
0.05650084
0.05339759
0.04991247
0.04592612
0.04129427
0.03580522
0.02906076
0.02040314
0.01442845
0.01034733
0.01040408
0.01303599
0.0149868
0.01662803
0.01810637
0.01948002
0.02078158
0.02203183
0.02324587
0.02443556
0.02561039
0.02677783
0.02794354
0.02911151
0.03028431
0.0314634
0.03264946
0.03384262
0.03504261
0.03624904
0.03746168
0.03868056
0.03990552
0.04113738
0.04237961
0.04363477
0.04490276
0.04618244
0.04747122
0.04876482
0.05005756
0.05134275
0.05261269
0.05387388
0.05514347
0.05642332
0.05770192
0.05896498
0.06019542
0.06137151
0.06246454
0.06343651
0.06423862
0.06481065
0.06508144
0.06497175
0.06439596
0.0632789
0.06157444
0.05929704
0.05653784
0.05341602
0.049917
0.04591956
0.04127865
0.03578184
0.02903071
0.02036869
0.01438658
0.01062114
0.01067304
0.01324836
0.01510939
0.01666724
0.01807445
0.01939016
0.02064566
0.02186067
0.02304927
0.02422228
0.02538813
0.02655333
0.0277227
0.02889951
0.03008576
0.03128246
0.03248982
0.03370753
0.03493493
0.03617123
0.03741544
0.03866681
0.03992431
0.04118728
0.04245503
0.04372981
0.04501612
0.04631459
0.04762245
0.04893506
0.05024652
0.05155069
0.05284282
0.05412213
0.05539953
0.05668517
0.05797045
0.05923831
0.06047113
0.06164689
0.06273621
0.06370021
0.06448929
0.06504278
0.06528954
0.06515108
0.06454293
0.06339201
0.06165492
0.05934915
0.05656807
0.05343104
0.04992123
0.04591573
0.04126894
0.035768
0.02901444
0.02035213
0.01436791
0.01102187
0.01097975
0.01347444
0.01525403
0.01672324
0.01805695
0.01931239
0.0205198
0.02169769
0.0228591
0.02401384
0.0251694
0.02633142
0.02750389
0.02868936
0.02988918
0.03110377
0.03233279
0.03357537
0.03483026
0.03609601
0.03737113
0.03865397
0.03994314
0.04123728
0.0425352
0.0438358
0.04514049
0.04645378
0.04777698
0.04910587
0.05043427
0.05175579
0.05306551
0.05436094
0.0556501
0.05694275
0.0582323
0.05950285
0.06073652
0.0619106
0.06299489
0.06394971
0.0647248
0.06525916
0.06548182
0.06531503
0.06467559
0.06349244
0.0617248
0.05939304
0.05659266
0.05344294
0.0499237
0.04591034
0.04125711
0.03575039
0.02899164
0.0203255
0.01433579
0.01123211
0.01128933
0.013718
0.01542081
0.01679903
0.01805797
0.01925056
0.02040777
0.02154706
0.02268039
0.02381647
0.02496179
0.02612103
0.02729727
0.02849225
0.02970651
0.03093977
0.03219097
0.03345852
0.0347405
0.03603503
0.03733994
0.03865318
0.03997189
0.04129515
0.0426213
0.04394886
0.04527652
0.04660539
0.04793981
0.04928064
0.05062257
0.05195897
0.05328402
0.05459362
0.05589371
0.05719321
0.05848651
0.05975866
0.06099185
0.06216293
0.063241
0.06418565
0.06494606
0.06546101
0.06565981
0.06546544
0.06479611
0.06358267
0.06178686
0.05943183
0.056615
0.05345529
0.04992903
0.04590962
0.0412525
0.03574269
0.02898226
0.02031454
0.0143236
0.01132234
0.01160289
0.01397337
0.0155982
0.01688939
0.01806966
0.01920126
0.02030939
0.02141101
0.02251725
0.02363587
0.02477233
0.02593028
0.0271118
0.02831765
0.02954751
0.03080024
0.03207402
0.03336659
0.03467542
0.03599765
0.03733047
0.03867024
0.04001683
0.04136711
0.04271918
0.04407131
0.04542196
0.04676967
0.04811592
0.0494648
0.05081575
0.05216284
0.0534997
0.05482138
0.0561317
0.0574375
0.05873353
0.060006
0.0612374
0.06240425
0.06347502
0.06440867
0.06515394
0.06564954
0.0658251
0.06560426
0.06490664
0.06366484
0.06184303
0.05946698
0.05663599
0.05346838
0.04993653
0.04591224
0.04125004
0.03573627
0.0289698
0.02029729
0.01430002
0.01144264
0.01192141
0.01424026
0.01578882
0.01699685
0.01809916
0.01916842
0.02022839
0.02129412
0.0223755
0.02347913
0.02460929
0.02576845
0.02695754
0.02817625
0.0294232
0.0306963
0.03199289
0.03330989
0.03464428
0.03599224
0.03734946
0.0387156
0.04008697
0.04146111
0.04283589
0.04420937
0.04557986
0.04694579
0.0483057
0.04966175
0.05101767
0.052371
0.05371579
0.0550466
0.05636517
0.05767591
0.05897356
0.06024523
0.06147367
0.06263519
0.06369778
0.06461985
0.06534973
0.06582605
0.06597883
0.06573245
0.06500818
0.06374026
0.061895
0.05950055
0.05665767
0.05348394
0.04994771
0.04591925
0.0412538
0.03573609
0.02896798
0.02029318
0.01429338
0.01157755
0.01224703
0.01451783
0.01599092
0.01711724
0.01814378
0.01915416
0.02016818
0.02120091
0.02226062
0.0233525
0.02447947
0.02564262
0.02684159
0.02807485
0.02933996
0.03063384
0.03195293
0.03329343
0.03464984
0.03602057
0.03740282
0.03879205
0.04018531
0.04158012
0.04297425
0.04436573
0.04575278
0.0471338
0.0485073
0.04987188
0.05123034
0.05258597
0.05393474
0.05527138
0.05659574
0.05790971
0.05920766
0.06047736
0.06170177
0.06285695
0.06391037
0.06482
0.06553408
0.06599161
0.06612307
0.06585312
0.06510422
0.06381206
0.06194511
0.05953396
0.05668103
0.0535027
0.04996261
0.0459298
0.04126085
0.0357403
0.02896656
0.02028896
0.01427866
0.01172936
0.01257719
0.01480723
0.01620694
0.01725176
0.0182032
0.01915655
0.02012922
0.02113355
0.02217605
0.02326028
0.02438766
0.02555788
0.02676924
0.02801896
0.02930358
0.03061819
0.03195715
0.03331796
0.03469767
0.03609026
0.03749243
0.03890094
0.04031265
0.04172481
0.04313505
0.04454131
0.04594173
0.0473347
0.04871871
0.05009235
0.05145522
0.05281017
0.05415902
0.05549799
0.05682548
0.05814083
0.05943778
0.06070447
0.06192387
0.0630719
0.06411591
0.06501372
0.06571319
0.06615257
0.06626242
0.06596878
0.06519638
0.06388243
0.06199702
0.05957173
0.05670925
0.05352585
0.04998206
0.0459457
0.04127367
0.03575033
0.02897422
0.02029033
0.01427735
0.01188467
0.01290567
0.01510455
0.01643478
0.01740189
0.01828201
0.01918321
0.02012184
0.02110064
0.02212935
0.02321063
0.02434322
0.02552461
0.02675073
0.0280163
0.02931513
0.03064737
0.03200865
0.03339148
0.03479076
0.03620208
0.03762191
0.03904667
0.04047331
0.04189915
0.04332184
0.04473931
0.04614972
0.04755141
0.04894288
0.05032272
0.05168964
0.05304457
0.05439073
0.05572854
0.05705606
0.05837048
0.05966488
0.06092764
0.06214167
0.0632825
0.06431689
0.06520196
0.06588542
0.06630626
0.0663958
0.06608041
0.06528616
0.0639515
0.06204804
0.05960884
0.0567377
0.05355044
0.05000392
0.04596424
0.04128879
0.03576126
0.0289804
0.02029287
0.01427222
0.01206946
0.01323917
0.01541047
0.01667088
0.01756414
0.01837935
0.01923407
0.02013845
0.02110395
0.02212968
0.02321082
0.02434602
0.02553377
0.02677146
0.02805387
0.02937666
0.03073034
0.03210976
0.03350966
0.03492506
0.03635184
0.0377859
0.03922376
0.04066237
0.04209905
0.04353144
0.04495747
0.04637527
0.04778319
0.04917969
0.05056338
0.05193298
0.0532873
0.05462915
0.05596304
0.0572878
0.05859926
0.05988978
0.06114734
0.06235437
0.06348617
0.06450928
0.06538085
0.06604868
0.06645208
0.06652272
0.06618712
0.06537206
0.06401694
0.06209585
0.05964477
0.05676824
0.05357909
0.05003056
0.04598812
0.04130966
0.0357791
0.02899477
0.02030224
0.01427235
0.01219309
0.01355731
0.01571993
0.0169225
0.01774822
0.01850035
0.01931115
0.02018888
0.02113667
0.02215316
0.02323859
0.02438835
0.02559534
0.02685233
0.02815367
0.02949277
0.03086254
0.03225682
0.03367047
0.03509885
0.03653769
0.03798295
0.03943105
0.04087888
0.0423237
0.04376311
0.04519501
0.04661758
0.04802915
0.04942821
0.05081335
0.05218324
0.05353664
0.05487467
0.05620204
0.05752102
0.05882727
0.06011201
0.06136262
0.06256129
0.06368314
0.06469464
0.06555278
0.06620533
0.0665916
0.06664377
0.06628929
0.06545596
0.06408403
0.06214812
0.05968507
0.05680128
0.05361007
0.05005972
0.0460141
0.04133281
0.03579834
0.02900896
0.02031148
0.01427037
0.01253324
0.01389401
0.01604129
0.01718557
0.0179464
0.01864716
0.01942374
0.02028145
0.02122081
0.0222391
0.02333155
0.0244915
0.02571129
0.02698309
0.02829936
0.02965273
0.03103622
0.03244359
0.03386948
0.03530916
0.036758
0.03821203
0.0396677
0.04112193
0.04257208
0.04401583
0.04545117
0.04687614
0.04828905
0.04968835
0.05107274
0.05244098
0.05379195
0.05512479
0.05644401
0.05775523
0.0590543
0.06033171
0.06157436
0.06276401
0.06387545
0.0648749
0.06571938
0.0663568
0.06672677
0.06676191
0.06639007
0.06553961
0.06415169
0.06220231
0.05972973
0.05684044
0.05364647
0.05009324
0.04604381
0.04135889
0.03582243
0.02903033
0.02032666
0.01427586
0.01246807
0.01419857
0.01635796
0.01745301
0.01815751
0.01881367
0.01955923
0.02040148
0.02133681
0.02235924
0.02346107
0.02463357
0.02586762
0.02715425
0.02848484
0.02985167
0.03124777
0.03266703
0.03410374
0.03555279
0.03700963
0.03847035
0.03993155
0.04139026
0.04284374
0.0442896
0.04572577
0.04715059
0.0485625
0.04996001
0.05134177
0.05270649
0.05405298
0.05538008
0.0566915
0.05799343
0.05928364
0.06055228
0.06178567
0.06296519
0.0640654
0.06505243
0.06588326
0.06650585
0.06685977
0.06687848
0.06649008
0.06562353
0.06422069
0.06225849
0.05977634
0.05688171
0.05368597
0.05013103
0.04607863
0.04138956
0.0358463
0.02904767
0.0203398
0.01427746
0.01240034
0.01448138
0.01667482
0.01773133
0.01838774
0.0190088
0.01973119
0.02056475
0.02150123
0.02253134
0.0236447
0.02483062
0.02607861
0.02737883
0.02872226
0.03010103
0.03150811
0.03293698
0.03438178
0.03583737
0.03729944
0.0387641
0.04022795
0.04168798
0.04314175
0.04458705
0.04602187
0.04744448
0.04885332
0.05024701
0.05162413
0.05298333
0.05432336
0.05564305
0.05694564
0.0582374
0.05951736
0.06077565
0.06199834
0.06316656
0.06425462
0.06522854
0.06604527
0.06665292
0.06699094
0.06699383
0.06658967
0.06570791
0.06429105
0.06231687
0.05982575
0.05692578
0.0537277
0.05017036
0.04611488
0.04142357
0.03587886
0.02907611
0.02035875
0.01428575
0.0128541
0.0147941
0.0169995
0.01802415
0.01864172
0.01923607
0.0199419
0.02077198
0.02171331
0.02275321
0.02387894
0.02507817
0.02633939
0.02765215
0.02900712
0.03039604
0.03181157
0.03324719
0.03469722
0.03615679
0.03762154
0.0390877
0.0405519
0.04201126
0.04346338
0.04490616
0.04633778
0.04775645
0.04916052
0.05054847
0.05191892
0.05327058
0.05460225
0.05591282
0.05720518
0.05848559
0.05975395
0.06100047
0.06221113
0.06336686
0.06444186
0.06540204
0.06620438
0.0667971
0.06711971
0.06710731
0.06668816
0.06579213
0.06436219
0.06237682
0.05987728
0.05697225
0.05377185
0.0502119
0.04615248
0.04145665
0.03590683
0.02909928
0.02037678
0.01429113
0.01317547
0.01510453
0.01732842
0.01833115
0.01891881
0.01949368
0.02018861
0.02101945
0.02196849
0.02301989
0.02415872
0.02537123
0.02664501
0.02796906
0.02933378
0.03073081
0.03215279
0.03359333
0.03504682
0.03650835
0.03797367
0.03943914
0.04090166
0.04235858
0.04380744
0.04524606
0.0466725
0.04808504
0.04948211
0.05086227
0.05222417
0.05356655
0.05488825
0.05618822
0.05746916
0.05873729
0.05999295
0.0612265
0.06242393
0.06356615
0.06462729
0.06557322
0.06636093
0.06693876
0.0672464
0.06721926
0.06678584
0.06587631
0.06443404
0.06243811
0.05993057
0.0570207
0.05381813
0.05025593
0.04619341
0.04149452
0.03594133
0.02912911
0.02039956
0.01430207
0.01340387
0.01540093
0.01765866
0.0186523
0.01922026
0.01978355
0.0204732
0.02130874
0.02226792
0.02333194
0.02448399
0.02570911
0.02699422
0.02832794
0.02970053
0.03110359
0.03252984
0.03397299
0.03542762
0.03688897
0.03835297
0.03981602
0.04127516
0.04272764
0.04417109
0.04560343
0.04702277
0.04842742
0.04981583
0.05118659
0.05253838
0.05386999
0.05518032
0.05646836
0.05773679
0.05899175
0.06023377
0.0614533
0.0626365
0.06376434
0.06481095
0.06574221
0.06651514
0.06707818
0.06737121
0.06732985
0.06688282
0.06596052
0.06450661
0.06250065
0.05998537
0.05707062
0.05386557
0.05030063
0.0462342
0.04153104
0.03597294
0.02915485
0.02041845
0.01430734
0.01359509
0.01568554
0.01799276
0.01899016
0.0195481
0.02010692
0.0207962
0.02163965
0.0226107
0.02368792
0.02485283
0.02608956
0.02738451
0.0287261
0.0301046
0.03151166
0.03294014
0.03438391
0.03583763
0.03729681
0.0387575
0.04021628
0.04167012
0.04311637
0.04455271
0.0459771
0.04738767
0.04878277
0.0501609
0.05152069
0.05286086
0.05418027
0.05547787
0.05675274
0.05800765
0.05924868
0.06047622
0.06168085
0.06284895
0.06396165
0.06499317
0.0659094
0.0666674
0.06721574
0.06749444
0.0674393
0.06697921
0.06604472
0.06457972
0.06256418
0.06004145
0.05712188
0.05391419
0.05034656
0.0462766
0.04156969
0.03600737
0.02918407
0.0204403
0.01431628
0.01380706
0.01596483
0.01833174
0.01934523
0.01990296
0.02046434
0.02115754
0.02201144
0.02299551
0.02408596
0.02526298
0.02651001
0.02781315
0.02916078
0.03054325
0.03195237
0.03338118
0.03482373
0.03627486
0.03773018
0.03918583
0.04063851
0.04208528
0.04352358
0.04495111
0.04636586
0.04776602
0.04914998
0.05051629
0.05186362
0.05319076
0.05449664
0.05578029
0.05704085
0.05828132
0.05950766
0.06071995
0.06190888
0.06306112
0.06415803
0.06517394
0.06607482
0.06681778
0.06735146
0.06761608
0.06754751
0.06707481
0.0661286
0.06465293
0.06262808
0.06009795
0.05717336
0.05396269
0.05039188
0.04631779
0.04160646
0.03603935
0.02921064
0.02046
0.0143212
0.013882
0.01623188
0.018677
0.01972025
0.02028768
0.02085757
0.02155784
0.02242384
0.02342139
0.02452462
0.02571274
0.02696868
0.02827842
0.0296304
0.03101511
0.03242452
0.03385188
0.03529142
0.03673824
0.03818804
0.03963709
0.04108208
0.04252015
0.0439488
0.04536583