/*--------------------------------*- C++ -*----------------------------------*\
| =========                 |                                                 |
| \\      /  F ield         | OpenFOAM: The Open Source CFD Toolbox           |
|  \\    /   O peration     | Version:  2312                                  |
|   \\  /    A nd           | Website:  www.openfoam.com                      |
|    \\/     M anipulation  |                                                 |
\*---------------------------------------------------------------------------*/
FoamFile
{
    version     2.0;
    format      ascii;
    arch        "LSB;label=32;scalar=64";
    class       volScalarField;
    location    "4200";
    object      qin;
}
// * * * * * * * * * * * * * * * * * * * * * * * * * * * * * * * * * * * * * //

dimensions      [1 0 -3 0 0 0 0];

internalField   uniform 0;

boundaryField
{
    plate
    {
        type            calculated;
        value           nonuniform List<scalar> 
200
(
2237.008
2199.766
2176.433
2150.696
2119.125
2093.72
2084.45
2090.127
2102.307
2114.293
2122.436
2123.081
2114.139
2098.903
2084.515
2076.771
2078.075
2088.542
2106.038
2125.454
2140.416
2147
2146.175
2143.254
2144.654
2153.421
2167.011
2180.161
2189.873
2196.393
2200.076
2200.035
2196.633
2192.826
2191.291
2191.814
2193.413
2197.485
2206.012
2217.274
2226.29
2229.784
2228.659
2225.856
2223.986
2225.116
2230.637
2240.111
2250.938
2259.876
2264.876
2265.573
2262.633
2257.182
2250.789
2245.492
2243.242
2244.921
2249.665
2255.174
2258.953
2259.715
2258.011
2255.736
2254.907
2256.526
2260.158
2264.362
2267.604
2269.086
2269.041
2268.419
2268.227
2268.933
2270.251
2271.367
2271.41
2269.886
2266.877
2262.954
2258.891
2255.362
2252.751
2251.132
2250.391
2250.38
2251.013
2252.263
2254.086
2256.343
2258.789
2261.145
2263.211
2264.959
2266.536
2268.187
2270.118
2272.388
2274.864
2277.268
2279.282
2280.661
2281.307
2281.281
2280.755
2279.95
2279.07
2278.272
2277.659
2277.291
2277.201
2277.396
2277.858
2278.547
2279.406
2280.374
2281.399
2282.446
2283.494
2284.523
2285.503
2286.391
2287.146
2287.75
2288.231
2288.673
2289.193
2289.904
2290.86
2292.021
2293.251
2294.361
2295.18
2295.624
2295.732
2295.645
2295.529
2295.482
2295.479
2295.374
2294.991
2294.254
2293.299
2292.495
2292.345
2293.284
2295.447
2298.516
2301.722
2304.036
2304.484
2302.495
2298.133
2292.139
2285.74
2280.267
2276.7
2275.258
2275.233
2275.177
2273.487
2269.215
2262.796
2256.263
2252.715
2255.119
2264.906
2281.026
2299.996
2317.023
2327.789
2330.139
2324.98
2316.003
2308.284
2306.182
2311.195
2320.665
2328.284
2326.925
2313.073
2290.464
2269.915
2264.22
2280.692
2316.527
2360.548
2399.702
2424.982
2432.964
2424.245
2403.113
2380.67
2377.072
2413.41
2492.192
2587.504
2667.206
2741.495
2869.302
)
;
    }
    riser
    {
        type            calculated;
        value           nonuniform List<scalar> 
200
(
4558.815
4478.492
4482.613
4553.714
4675.363
4795.574
4899.27
4915.601
4769.621
4635.924
4747.172
4951.984
4984.377
4965.716
5135.271
5409.252
5554.585
5510.56
5386.724
5307.994
5334.952
5455.538
5578.673
5595.355
5513.712
5438.402
5382.233
5292.397
5260.845
5445.991
5790.392
6045.326
6084.205
6055.917
6182.063
6445.422
6619.007
6612.363
6539.572
6433.946
6237.167
6049.872
6048.891
6213.758
6367.456
6392.079
6289.359
6117.555
5938.813
5791.624
5683.191
5611.978
5589.901
5633.556
5737.017
5865.164
5976.835
6051.783
6096.894
6131.514
6168.415
6205.244
6229.45
6229.722
6204.856
6165.096
6126.541
6102.781
6098.544
6108.5
6121.271
6125.886
6116.857
6095.387
6066.921
6037.336
6010.336
5987.226
5968.401
5954.935
5948.953
5952.597
5966.426
5988.385
6014.025
6037.856
6055.142
6063.286
6062.273
6054.179
6042.095
6029.035
6017.193
6007.728
6000.953
5996.701
5994.666
5994.589
5996.312
5999.744
6004.837
6011.572
6019.961
6030.014
6041.658
6054.626
6068.365
6082.009
6094.452
6104.51
6111.128
6113.562
6111.497
6105.064
6094.781
6081.445
6066.018
6049.534
6033.042
6017.574
6004.109
5993.53
5986.553
5983.644
5984.943
5990.226
5998.93
6010.244
6023.264
6037.149
6051.256
6065.186
6078.731
6091.753
6104.05
6115.262
6124.895
6132.421
6137.44
6139.784
6139.521
6136.834
6131.854
6124.551
6114.806
6102.658
6088.65
6074.065
6060.862
6051.233
6046.849
6048.075
6053.515
6060.18
6064.394
6063.237
6056.027
6045.199
6036.016
6034.954
6047.193
6074.093
6111.761
6151.444
6181.772
6192.007
6175.098
6129.574
6060.003
5976.11
5890.694
5816.514
5762.732
5732.019
5719.531
5714.75
5706.431
5689.765
5673.131
5678.458
5729.188
5829.35
5947.355
6020.404
5987.561
5834.441
5610.485
5396.525
5247.867
5168.209
5144.477
5195.022
5354.769
5569.19
5660.3
5442.503
4960.898
4568.817
4429.337
4488.22
)
;
    }
    topAndBottom
    {
        type            calculated;
        value           nonuniform List<scalar> 
120
(
7023.23
6246.594
5710.447
5387.421
5171.664
5010.193
4883.082
4780.125
4695.06
4625.327
4570.523
4529.492
4498.786
4473.651
4450.201
4426.784
4403.822
4382.73
4364.813
4350.632
4339.867
4331.543
4324.438
4317.489
4310.03
4301.787
4292.708
4282.776
4271.926
4260.098
4247.355
4233.976
4220.474
4207.507
4195.724
4185.576
4177.159
4170.163
4163.948
4157.759
4150.966
4143.249
4134.642
4125.506
4116.469
4108.321
4101.724
4096.679
4091.957
4085.051
4073.114
4054.76
4031.711
4008.667
3990.411
3977.407
3964.22
3943.718
3918.93
3901.459
5903.858
5925.285
5921.408
5813.285
5572.858
5266.635
4994.073
4809.64
4708.89
4658.631
4631.101
4624.239
4658.994
4754.407
4900.35
5052.174
5152.518
5162.934
5082.259
4941.318
4781.434
4633.153
4507.376
4400.005
4302.698
4211.316
4128.118
4058.882
4008.449
3977.588
3962.256
3954.866
3946.626
3930.022
3900.707
3858.332
3806.162
3749.76
3695.34
3648.451
3613.371
3593.14
3589.82
3604.553
3637.274
3686.363
3748.578
3819.416
3893.699
3966.152
4032.06
4088.185
4133.564
4169.122
4195.631
4211.208
4212.374
4194.805
4172.305
4115.12
)
;
    }
    frontAndBack
    {
        type            empty;
    }
}


// ************************************************************************* //
