/*--------------------------------*- C++ -*----------------------------------*\
| =========                 |                                                 |
| \\      /  F ield         | OpenFOAM: The Open Source CFD Toolbox           |
|  \\    /   O peration     | Version:  2312                                  |
|   \\  /    A nd           | Website:  www.openfoam.com                      |
|    \\/     M anipulation  |                                                 |
\*---------------------------------------------------------------------------*/
FoamFile
{
    version     2.0;
    format      ascii;
    arch        "LSB;label=32;scalar=64";
    class       volScalarField;
    location    "4200";
    object      qr;
}
// * * * * * * * * * * * * * * * * * * * * * * * * * * * * * * * * * * * * * //

dimensions      [1 0 -3 0 0 0 0];

internalField   uniform 0;

boundaryField
{
    plate
    {
        type            calculated;
        value           nonuniform List<scalar> 
200
(
-7375.578
-7534.857
-7637.011
-7634.532
-7560.044
-7498.213
-7496.662
-7637.471
-7781.836
-609.8384
-768.1637
-7571.603
-1029.406
-1113.287
-1184.442
-1222.185
-1233.829
-1230.335
-1209.299
-1181.176
-1161.596
-1168.083
-1199.294
-1238.943
-1258.402
-1248.849
-7224.911
-7158.961
-7109.49
-7051.485
-6973.311
-6877.573
-6787.569
-6702.553
-6633.627
-6589.675
-6587.774
-1928.103
-1996.907
-6201.181
-6078.263
-5841.743
-5558.622
-4971.604
-3162.012
-3129.405
-3340.773
-3426.645
-3460.711
-3459.739
-3499.994
-3593.396
-3738.989
-3946.991
-4176.308
-4357.28
-4433.836
-4398.966
-4288.804
-4166.176
-4090.224
-4084.685
-4134.377
-4201.07
-4246.062
-4249.489
-4215.976
-4166.915
-4126.19
-4107.623
-4110.509
-4123.178
-4132.279
-4129.828
-4116.992
-4102.11
-4095.496
-4104.083
-4128.525
-4163.508
-4200.565
-4231.692
-4252.001
-4260.464
-4258.88
-4250.157
-4236.841
-4220.683
-4203.024
-4185.474
-4170.135
-4159.142
-4153.765
-4153.653
-4156.769
-4160.099
-4160.879
-4157.687
-4150.941
-4142.557
-4135.061
-4130.535
-4129.94
-4132.984
-4138.512
-4145.107
-4151.635
-4157.461
-4162.441
-4166.655
-4170.25
-4173.263
-4175.721
-4177.618
-4179.103
-4180.341
-4181.596
-4182.977
-4184.568
-4186.227
-4187.868
-4189.277
-4190.42
-4191.132
-4191.426
-4191.082
-4190.09
-4188.23
-4185.669
-4182.397
-4178.747
-4174.868
-4170.796
-4166.371
-4161.367
-4155.745
-4149.906
-4144.791
-4141.734
-4141.986
-4146.132
-4153.621
-4162.701
-4170.875
-4175.747
-4175.879
-4171.302
-4163.41
-4154.356
-4146.24
-4140.513
-4137.846
-4138.421
-4142.328
-4149.621
-4159.977
-4172.104
-4183.494
-4190.819
-4191.184
-4183.712
-4170.666
-4156.926
-4147.884
-4146.585
-4151.911
-4158.548
-4159.192
-4148.358
-4127.408
-4104.402
-4093.517
-4103.547
-4133.624
-4171.013
-4196.588
-4193.517
-4156.85
-4099.312
-4047.763
-4027.815
-4047.116
-4092.272
-4141.89
-4176.67
-4189.739
-4175.913
-4135.679
-4072.632
-4006.643
-3979.93
-4001.931
-4080.22
-4172.25
-4266.789
-1981.851
-7891.646
358.684
-9385.132
-9466.282
)
;
    }
    riser
    {
        type            calculated;
        value           nonuniform List<scalar> 
200
(
2776.033
2707.825
2705.549
2745.157
2816.158
2888.552
2959.87
2971.589
2855.756
2749.286
2839.988
3003.863
3022.983
2995.205
3117.249
3324.719
3431.301
3389.736
3288.939
3227.673
3251.831
3350.261
3449.423
3461.772
3394.702
3333.695
3288.625
3215.377
3187.805
3334.604
3608.925
3808.328
3830.802
3799.506
3896.252
4107.192
4246.996
4241.625
4183.588
4099.199
3939.873
3787.174
3785.801
3919.727
4044.603
4064.387
3980.963
3841.759
3696.731
3576.866
3488.242
3429.957
3411.835
3447.247
3531.194
3635.117
3725.707
3786.626
3823.404
3851.597
3881.47
3911.158
3930.598
3930.713
3910.526
3878.285
3846.994
3827.67
3824.178
3832.224
3842.585
3846.35
3839.054
3821.662
3798.584
3774.578
3752.64
3733.818
3718.435
3707.373
3702.371
3705.187
3716.289
3734.026
3754.795
3774.155
3788.277
3795.072
3794.549
3788.411
3779.179
3769.292
3760.513
3753.747
3749.194
3746.659
3745.829
3746.433
3748.288
3751.284
3755.357
3760.49
3766.708
3774.053
3782.517
3791.945
3801.95
3811.895
3820.935
3828.154
3832.721
3834.044
3831.863
3826.271
3817.669
3806.684
3794.076
3780.667
3767.293
3754.776
3743.895
3735.35
3729.71
3727.345
3728.369
3732.609
3739.622
3748.764
3759.31
3770.573
3782.019
3793.304
3804.24
3814.711
3824.558
3833.518
3841.216
3847.252
3851.306
3853.229
3853.046
3850.872
3846.794
3840.796
3832.818
3822.944
3811.654
3799.991
3789.501
3781.872
3778.357
3779.181
3783.204
3788.083
3790.987
3789.713
3783.809
3775.206
3767.949
3766.944
3776.063
3796.309
3824.836
3855.3
3879.487
3889.569
3880.156
3849.592
3800.419
3739.099
3674.849
3617.535
3574.834
3549.673
3538.983
3534.87
3528.382
3515.241
3501.367
3503.565
3540.515
3616.678
3709.261
3770.552
3752.603
3642.072
3474.933
3312.747
3198.618
3135.839
3114.514
3150.571
3274.465
3447.637
3532.983
3381.019
3018.831
2718.419
2609.166
2654.652
)
;
    }
    topAndBottom
    {
        type            calculated;
        value           nonuniform List<scalar> 
120
(
3076.236
2563.699
2183.57
1963.379
1816.925
1709.462
1626.561
1562.079
1508.48
1463.681
1431.579
1412.055
1398.786
1388.104
1378.124
1368.269
1358.789
1349.791
1342.524
1338.142
1336.826
1337.639
1339.023
1339.968
1340.09
1339.346
1337.645
1334.894
1331.199
1326.529
1320.903
1314.541
1307.881
1301.497
1295.945
1291.622
1288.623
1286.67
1285.179
1283.47
1281.008
1277.518
1273.03
1267.866
1262.646
1258.118
1254.881
1252.923
1251.175
1247.421
1239.085
1224.904
1206.436
1187.968
1173.816
1164.394
1154.969
1140.694
1136.957
1256.454
3255.909
3500.752
3522.961
3429.299
3213.57
2938.228
2693.148
2527.395
2436.995
2392.162
2367.877
2362.086
2393.541
2479.553
2611.295
2748.682
2839.887
2850.002
2777.842
2651.297
2507.85
2375.19
2263.105
2167.69
2081.198
1999.791
1925.587
1863.983
1819.514
1792.941
1780.575
1775.471
1769.591
1756.203
1731.483
1695.13
1650.021
1601.172
1554.362
1514.764
1486.204
1471.001
1470.805
1487.054
1520.447
1569.436
1630.099
1698.078
1769.736
1841.087
1907.528
1964.806
2013.244
2054.844
2090.107
2117.357
2135.59
2142.591
2157.072
2165.572
)
;
    }
    frontAndBack
    {
        type            empty;
    }
}


// ************************************************************************* //
