# Region type : patch riser
# Faces        : 200
# Area         : 6.7000000e-01
# Scale factor : 1.0000000e+00
# Time         	areaAverage(T)
3100           	3.8271274e+02
3200           	3.8275118e+02
3300           	3.8277850e+02
