# Region type : patch riser
# Faces        : 200
# Area         : 6.7000000e-01
# Scale factor : 1.0000000e+00
# Time         	areaAverage(T)
5200           	3.9484700e+02
5300           	3.9488594e+02
5400           	3.9487430e+02
5500           	3.9493455e+02
5600           	3.9496150e+02
5700           	3.9494091e+02
5800           	3.9499854e+02
5900           	3.9502104e+02
