/*--------------------------------*- C++ -*----------------------------------*\
| =========                 |                                                 |
| \\      /  F ield         | OpenFOAM: The Open Source CFD Toolbox           |
|  \\    /   O peration     | Version:  2312                                  |
|   \\  /    A nd           | Website:  www.openfoam.com                      |
|    \\/     M anipulation  |                                                 |
\*---------------------------------------------------------------------------*/
FoamFile
{
    version     2.0;
    format      ascii;
    arch        "LSB;label=32;scalar=64";
    class       volScalarField;
    location    "3000";
    object      alphat;
}
// * * * * * * * * * * * * * * * * * * * * * * * * * * * * * * * * * * * * * //

dimensions      [1 -1 -1 0 0 0 0];

internalField   nonuniform List<scalar> 
12000
(
5.007139e-05
0.0001524801
0.0001643757
0.0001789768
0.0001846273
0.0001851553
0.0001873907
0.0001896862
0.0001932878
0.0001904878
0.0001817804
0.0001810763
0.0001879769
0.0001917171
0.0001832025
0.0001745795
0.0001757988
0.0001825305
0.0001820853
0.0001748244
0.0001709042
0.0001729993
0.000175119
0.0001727975
0.0001684953
0.0001666224
0.000168248
0.0001701785
0.0001679934
0.0001632346
0.0001618094
0.0001644096
0.0001660801
0.0001649013
0.0001611475
0.0001559871
0.0001544383
0.0001631009
0.0001763683
0.0001656185
0.000142128
0.0001412953
0.0001732914
0.0001865657
0.0001447992
0.0001313023
0.0001600362
0.0001858691
0.0001488712
0.0001310069
0.0001488755
0.0001642665
0.0001446921
0.0001277838
0.0001352456
0.0001297676
0.0001083348
8.648068e-05
8.10816e-05
6.525801e-05
3.162824e-05
0.0001920825
0.0002263128
0.0002796444
0.0003297828
0.0003712083
0.0004208309
0.0004737939
0.0005294723
0.0005899495
0.0006572624
0.0007246159
0.0007890905
0.0008509376
0.0009197129
0.0009924128
0.001060194
0.001118224
0.001176863
0.001241623
0.001306364
0.001362746
0.001413784
0.001466426
0.001521197
0.001571908
0.001613812
0.001649538
0.001686852
0.001727747
0.001762255
0.001783115
0.001796683
0.001812875
0.001830345
0.001842901
0.001844753
0.001831907
0.001810331
0.001800018
0.001798182
0.001777611
0.001720165
0.001662305
0.001538248
0.001584465
0.00149974
0.001409002
0.001310457
0.001240568
0.001124857
0.001007857
0.0008943827
0.0007685545
0.0006482756
0.0005202012
0.0003740206
0.0002226885
0.0001231827
5.778599e-05
3.035679e-05
0.0002981849
0.0003680858
0.0004528284
0.0005487889
0.000660706
0.000781383
0.0009072623
0.001037673
0.001166692
0.001297436
0.001425902
0.001549798
0.001668748
0.001783095
0.001892958
0.001995357
0.002090349
0.002179337
0.00226285
0.002340255
0.002411102
0.002476015
0.002535612
0.002589937
0.002638706
0.002681902
0.002716669
0.002726351
0.002782948
0.002807495
0.002733968
0.00278064
0.002843721
0.002821852
0.002873205
0.002875172
0.002852118
0.0027525
0.002807093
0.00285073
0.002834917
0.002815032
0.002763679
0.002757927
0.002716511
0.002667983
0.002605577
0.002476644
0.002359758
0.002175782
0.00200463
0.001856084
0.001467565
0.001192684
0.001096206
0.0008797732
0.0005389088
0.0002022858
5.827742e-05
2.913941e-05
0.0003131337
0.0004365648
0.0005578468
0.0007058037
0.0008739206
0.001055779
0.001240514
0.00142862
0.00161356
0.001789079
0.001954499
0.002109069
0.002254342
0.002388453
0.002513665
0.002629884
0.002737467
0.002837053
0.002929101
0.003013701
0.003091144
0.003161767
0.003225845
0.003283618
0.003335271
0.003380964
0.003420821
0.00345492
0.003483101
0.003449007
0.003522432
0.003534551
0.003540996
0.003542321
0.003537607
0.003527546
0.003511715
0.003489805
0.003460838
0.003425363
0.003383272
0.003333297
0.003275695
0.003208198
0.003130296
0.003040477
0.002937053
0.002819472
0.002685895
0.002534689
0.002366401
0.002026806
0.001825393
0.001671447
0.001364913
0.001017138
0.0006365761
0.0002768324
5.70189e-05
2.852892e-05
0.0003323161
0.0005074883
0.000671194
0.0008669906
0.001079502
0.001298941
0.001515847
0.001725472
0.001928709
0.002124264
0.002311482
0.002488875
0.002656903
0.002812441
0.002953184
0.003082286
0.003201094
0.003310209
0.003410436
0.003502136
0.003586062
0.003662687
0.003732191
0.003794702
0.00385041
0.003899518
0.003942202
0.00397869
0.004008444
0.004030227
0.004049172
0.004062207
0.004069328
0.004070433
0.004065293
0.004053751
0.004036114
0.00401219
0.003981656
0.003944324
0.003901104
0.003849727
0.003790267
0.003722045
0.003644338
0.003555789
0.003454983
0.003339214
0.003206091
0.003051681
0.002872969
0.002654816
0.002390905
0.002083964
0.001726118
0.00130824
0.0008296628
0.0003430639
5.662088e-05
2.857233e-05
0.0003378498
0.0005599706
0.0007553063
0.0009779769
0.001214118
0.001454298
0.001692918
0.001926074
0.002153148
0.002368349
0.002569521
0.002756731
0.002927669
0.003083405
0.00322866
0.003363412
0.003488428
0.003604299
0.003712061
0.003812443
0.003905947
0.003992674
0.004072678
0.00414599
0.004212618
0.004272545
0.004325717
0.004372041
0.004409503
0.004443016
0.004468854
0.004487203
0.004498174
0.004501827
0.004497966
0.004485906
0.004465676
0.004438446
0.004403238
0.00435901
0.004304108
0.00423953
0.004164991
0.004079095
0.00398088
0.003869233
0.003742678
0.003600349
0.00344011
0.003254935
0.003041245
0.002796045
0.002513194
0.002185414
0.001805144
0.001368633
0.0008822286
0.0003884028
5.599413e-05
2.911523e-05
0.0003408372
0.0005968212
0.0008173387
0.001057499
0.001311908
0.001571244
0.001826569
0.002072142
0.002302497
0.002519447
0.002722176
0.002910959
0.003087545
0.003252675
0.00340643
0.003549442
0.003682872
0.003807963
0.003925785
0.004037069
0.004142223
0.004241366
0.004334437
0.004421266
0.004501619
0.004575224
0.004641788
0.004698345
0.004750669
0.004794633
0.004830122
0.004856829
0.00487464
0.004883908
0.004884558
0.004876242
0.004858693
0.00482986
0.004790395
0.004740741
0.00468051
0.00460912
0.004525891
0.004430023
0.004320625
0.004196835
0.004058088
0.003902446
0.003725837
0.003522936
0.003294136
0.003032553
0.002735308
0.002391992
0.001992344
0.001525665
0.0009899427
0.0004328134
5.596794e-05
2.97551e-05
0.0003340165
0.0006237166
0.000866459
0.001119259
0.001380978
0.001644686
0.0019037
0.002152426
0.002387412
0.002607991
0.002813991
0.003005964
0.003185467
0.0033549
0.003515778
0.003668204
0.003813119
0.003950921
0.00408199
0.004207104
0.004326651
0.004440716
0.004549135
0.004651555
0.004747502
0.004836429
0.004917756
0.004990239
0.00505524
0.005111071
0.005157259
0.005193435
0.005219683
0.005235216
0.005239383
0.00523198
0.005212961
0.005182157
0.00513917
0.005083611
0.005015018
0.004932839
0.004836442
0.004725097
0.00459826
0.004455356
0.004294737
0.004114041
0.003911381
0.003684576
0.003432009
0.003149277
0.002830317
0.00246371
0.002043507
0.001561108
0.001019433
0.0004583379
5.55321e-05
3.074691e-05
0.0003224341
0.0006354066
0.0008975592
0.001158438
0.001424532
0.001690589
0.001950895
0.002201014
0.00243832
0.002661838
0.002871632
0.003068479
0.003253575
0.003428419
0.003595416
0.00375585
0.003910817
0.004060896
0.004206077
0.004346512
0.00448218
0.004612852
0.004738097
0.004857328
0.004969831
0.005074826
0.005169567
0.005257292
0.005335069
0.005402159
0.005457972
0.005502232
0.005534642
0.005554637
0.005561747
0.005555613
0.005535933
0.005502399
0.005454676
0.005392396
0.005315146
0.005222475
0.00511386
0.00498883
0.004846684
0.004686139
0.004505623
0.004303755
0.004079337
0.003828788
0.003556132
0.003247093
0.002927348
0.002559195
0.002133374
0.001639873
0.001076084
0.0004852814
5.562003e-05
3.160979e-05
0.0003116928
0.0006418766
0.0009208994
0.001187384
0.001453534
0.001717666
0.001975877
0.002224753
0.002462144
0.002687201
0.002900136
0.003101811
0.00329345
0.003476301
0.003652137
0.003822287
0.003988219
0.004150678
0.004310047
0.004466188
0.004618688
0.004766915
0.004909811
0.005046231
0.005175041
0.005295108
0.005404434
0.005503901
0.005591953
0.005668543
0.005732721
0.005783778
0.005821041
0.005843983
0.005852169
0.005845235
0.005822854
0.005784711
0.005730479
0.005659806
0.005572316
0.00546762
0.00534537
0.005205022
0.005045809
0.004866795
0.004667187
0.004446164
0.004202403
0.003797424
0.003423743
0.003146613
0.002916453
0.002599591
0.002163772
0.001660799
0.001092371
0.0004984339
5.530569e-05
3.262294e-05
0.0002981149
0.0006388105
0.0009307033
0.001201198
0.001466797
0.001729131
0.001985437
0.002232964
0.002470111
0.002696503
0.002912547
0.003119207
0.003317812
0.003509838
0.003696746
0.003879754
0.004059808
0.004236925
0.004410873
0.004581002
0.004746211
0.004905808
0.005061053
0.00521041
0.005352442
0.005485784
0.005608849
0.005721224
0.005821135
0.005906942
0.005978108
0.006034168
0.006074563
0.006098779
0.006106423
0.006097171
0.006070741
0.006026858
0.005965228
0.005885505
0.00578725
0.005670119
0.005534344
0.005379406
0.005204694
0.005009677
0.004793037
0.00449341
0.004036348
0.003643218
0.003342628
0.003111522
0.002908884
0.002639653
0.002203874
0.001697849
0.001119946
0.0005127853
5.540537e-05
3.347652e-05
0.0002848443
0.0006283046
0.0009321836
0.001207476
0.001471988
0.001730455
0.001982724
0.002227718
0.002464444
0.002692444
0.002911978
0.003123994
0.003329849
0.003530907
0.003728282
0.003922077
0.00411112
0.004298107
0.004483272
0.00466649
0.004847439
0.005025117
0.005196436
0.005360482
0.005515943
0.005661396
0.00579532
0.005916507
0.00602358
0.006115382
0.006190979
0.006249609
0.006290721
0.006313995
0.006319152
0.006305944
0.006274157
0.006223602
0.006154114
0.00606556
0.005957861
0.00583073
0.005683173
0.005514951
0.005325926
0.005116046
0.004792733
0.004330015
0.003911164
0.003567492
0.003290295
0.003067143
0.002878212
0.002654125
0.002221783
0.001710372
0.001129167
0.0005196145
5.518771e-05
3.421093e-05
0.0002739888
0.0006174922
0.000929604
0.001208584
0.001471927
0.001727178
0.001976095
0.002218307
0.002453333
0.002681183
0.002902519
0.003118206
0.003329049
0.003535609
0.003738251
0.003902949
0.004061637
0.004235222
0.004437402
0.004676548
0.004943128
0.005137977
0.005322335
0.005498528
0.005664747
0.005819467
0.005961205
0.006088608
0.006200441
0.006295675
0.00637348
0.00643324
0.006474447
0.00649663
0.006499443
0.006482628
0.006445985
0.006389343
0.006312549
0.006215449
0.006097879
0.005959642
0.005800667
0.005620862
0.005420112
0.005094605
0.004659435
0.004232911
0.003847387
0.003521831
0.003254503
0.003042479
0.002864244
0.002653554
0.002238331
0.001726042
0.001141467
0.000526444
5.523966e-05
3.471037e-05
0.0002636249
0.0006039032
0.0009217875
0.001204185
0.001467214
0.001719846
0.001965265
0.002204259
0.002437116
0.002664354
0.002886611
0.003104634
0.003319145
0.003527496
0.003682717
0.003813135
0.003935981
0.004067426
0.004223067
0.004414671
0.004645825
0.00492731
0.005264577
0.005611417
0.005785588
0.005947626
0.006095665
0.006228559
0.006344565
0.006442882
0.00652264
0.00658314
0.006623844
0.006644335
0.006644299
0.006623522
0.006581858
0.006519206
0.0064355
0.006330691
0.006204744
0.006057633
0.005889343
0.005699862
0.00539365
0.004951483
0.00452414
0.004137801
0.003792904
0.003489654
0.003230192
0.003016662
0.002838071
0.002637126
0.002246903
0.001733197
0.001146321
0.0005294847
5.513084e-05
3.496248e-05
0.0002544892
0.0005892801
0.0009105832
0.001195732
0.001458526
0.001708728
0.001950859
0.002186832
0.002417619
0.002643921
0.002866462
0.003086037
0.0033033
0.003518195
0.003680307
0.003796705
0.003891316
0.003987373
0.004105927
0.004261866
0.00446142
0.004708522
0.005007557
0.005355045
0.00572764
0.006052696
0.006205491
0.006342488
0.006461456
0.006561751
0.006642482
0.006702939
0.006742601
0.00676107
0.006758064
0.006733417
0.006687049
0.006618936
0.006529101
0.006417602
0.00628452
0.006129961
0.005954054
0.005694727
0.005291596
0.004864371
0.004450965
0.004073823
0.003745968
0.00346071
0.003211671
0.003001148
0.002827367
0.002633448
0.0022547
0.001739662
0.001151174
0.0005322863
5.512518e-05
3.514011e-05
0.0002467208
0.0005750258
0.0008971881
0.001184319
0.001447053
0.001695267
0.001934482
0.002167536
0.002396023
0.002621042
0.002843524
0.003064245
0.003283756
0.003502149
0.003715428
0.003825741
0.003895539
0.003956767
0.004037636
0.00415951
0.004333764
0.004564774
0.004851453
0.005182766
0.00554084
0.005902972
0.006230016
0.006432343
0.006553495
0.006655101
0.006736267
0.006796295
0.006834686
0.006851073
0.006845209
0.006816986
0.006766391
0.006693483
0.006598378
0.006481236
0.00634225
0.006181642
0.005980908
0.005622533
0.005211379
0.004795236
0.004402971
0.004045925
0.003721012
0.00343106
0.003184323
0.002983509
0.002816536
0.002627018
0.002257676
0.001742587
0.001153134
0.0005329598
5.50902e-05
3.519314e-05
0.0002398325
0.0005609602
0.0008825896
0.001170716
0.001433346
0.001679952
0.001916677
0.00214711
0.002373435
0.002597157
0.002819433
0.003041161
0.003262894
0.003484267
0.003705158
0.003888127
0.003952758
0.003980703
0.004023838
0.00411441
0.004266128
0.004482345
0.004760606
0.005091826
0.005457106
0.005826857
0.006168161
0.006448629
0.0066236
0.0067263
0.00680772
0.006867206
0.006904311
0.006918719
0.006910237
0.006878825
0.006824544
0.006747543
0.006648034
0.006526285
0.006382601
0.006217319
0.005934879
0.005564901
0.005155691
0.004746121
0.004362845
0.004015507
0.003703773
0.003425223
0.003179567
0.002973295
0.00280249
0.002617439
0.002261522
0.001745892
0.001155585
0.0005344713
5.506119e-05
3.526222e-05
0.0002346161
0.0005486563
0.0008679095
0.00115604
0.001418293
0.001663486
0.001898082
0.002126244
0.002350686
0.002573315
0.002795546
0.003018394
0.003242411
0.003468149
0.003693463
0.00391792
0.004028896
0.004034092
0.004038305
0.004095635
0.004225824
0.004430789
0.004704806
0.005036798
0.00540818
0.005790699
0.00614819
0.006446565
0.006663272
0.006779656
0.00686117
0.006920033
0.006955862
0.00696841
0.006957551
0.006923318
0.006865854
0.006785399
0.006682265
0.006556823
0.006409492
0.006213906
0.005904806
0.005525181
0.005114929
0.004710485
0.004334116
0.003992245
0.003682902
0.00340534
0.003163456
0.002962834
0.002797692
0.002615626
0.002262333
0.001746612
0.001156129
0.0005345633
5.504059e-05
3.526024e-05
0.0002303256
0.0005372656
0.0008531965
0.001140585
0.001402265
0.001646256
0.001879136
0.002105503
0.002328535
0.002550509
0.002773086
0.002997387
0.003223957
0.003452669
0.003683761
0.003913511
0.004117611
0.004112991
0.004079177
0.004101459
0.004209774
0.004404984
0.004678058
0.005015243
0.005396203
0.005791121
0.00616235
0.006472349
0.006695908
0.006819811
0.00690114
0.006959209
0.006993684
0.007004412
0.006991354
0.006954597
0.006894371
0.006811002
0.006704897
0.006576523
0.006426392
0.006209178
0.005890056
0.005504085
0.005091993
0.004689098
0.004316242
0.003978638
0.003673433
0.003398699
0.003157134
0.00295491
0.002788386
0.002608815
0.002263334
0.001747443
0.001156525
0.0005346757
5.503194e-05
3.516509e-05
0.0002270977
0.0005277079
0.0008394945
0.00112528
0.00138604
0.001628921
0.001860452
0.002085533
0.002307721
0.00252962
0.002753107
0.002979399
0.003209026
0.003441765
0.003676598
0.00391272
0.004145501
0.004197476
0.004136689
0.004121969
0.004206985
0.00439332
0.004667561
0.005012172
0.005404406
0.005812372
0.006195831
0.006514707
0.006740824
0.006851142
0.006931821
0.006988774
0.007021724
0.007030582
0.007015387
0.006976298
0.00691362
0.006827758
0.0067192
0.006588492
0.006436223
0.006211091
0.005884003
0.005491522
0.005076289
0.004673307
0.004302131
0.003966717
0.003663538
0.003390685
0.003151229
0.002951426
0.002787214
0.002609174
0.002263834
0.001747705
0.001156632
0.0005347148
5.502009e-05
3.516156e-05
0.0002254325
0.0005195989
0.000826628
0.001110208
0.001369799
0.001611711
0.001842322
0.002066729
0.00228879
0.002511378
0.002736544
0.002965563
0.003198897
0.003436144
0.003676018
0.003916405
0.004155494
0.004281702
0.004203046
0.004154451
0.004216894
0.004395434
0.004672817
0.005027173
0.005432465
0.005854126
0.006248209
0.006568084
0.006773852
0.006877015
0.006956547
0.007012022
0.007043214
0.007050093
0.007032765
0.006991456
0.006926541
0.006838493
0.006727868
0.006595276
0.006441356
0.006218483
0.005885955
0.005487246
0.005067921
0.004663413
0.004292611
0.003958612
0.003657132
0.003385658
0.003146975
0.00294746
0.002783611
0.002606846
0.002264087
0.001747797
0.001156481
0.0005344782
5.501532e-05
3.519829e-05
0.000224214
0.0005130301
0.0008151636
0.001096119
0.001354334
0.001595403
0.001825509
0.002049869
0.002272569
0.002496689
0.002724392
0.002956945
0.003194676
0.003436929
0.003682111
0.003927819
0.004171027
0.004360543
0.004267147
0.004190613
0.004235172
0.004409016
0.004691872
0.005057875
0.005477213
0.005911812
0.006313319
0.006628342
0.006798232
0.006899998
0.006977881
0.007031497
0.00706067
0.007065423
0.007045917
0.007002441
0.006935426
0.006845406
0.006732986
0.006598824
0.006443595
0.006228807
0.005892614
0.005487888
0.005063978
0.004657127
0.004285818
0.003952449
0.003652107
0.003381881
0.003144414
0.002945998
0.00278313
0.002607093
0.002264555
0.001747957
0.001156409
0.0005343587
5.501468e-05
3.519118e-05
0.000223911
0.0005074321
0.0008046249
0.001082755
0.001339545
0.001580006
0.001810132
0.002035199
0.002259443
0.002486068
0.002717275
0.002954243
0.003197089
0.00344486
0.003695647
0.003946731
0.004194636
0.004419403
0.004315369
0.00422085
0.00425537
0.004429725
0.004721682
0.005101904
0.005536297
0.005981972
0.006386195
0.006691423
0.006822149
0.006921922
0.006997673
0.007049061
0.007075954
0.007078417
0.007056663
0.007011031
0.006942
0.006850148
0.00673612
0.006600605
0.006444298
0.006240729
0.005902452
0.005492337
0.005063645
0.004653857
0.004281438
0.003948228
0.003648637
0.003379189
0.003142269
0.002944433
0.002782442
0.002607229
0.002264914
0.001747988
0.001156159
0.0005340978
5.501398e-05
3.516821e-05
0.0002243665
0.0005034955
0.0007957682
0.001071011
0.001326451
0.001566624
0.001797342
0.002023906
0.002250643
0.002480803
0.002716523
0.002958785
0.003207373
0.003460964
0.003717256
0.003973202
0.004225555
0.00447042
0.00435631
0.004249661
0.004280755
0.004460753
0.004765232
0.005161805
0.005612526
0.006068328
0.00646532
0.006725699
0.006846753
0.006943991
0.007017173
0.007065995
0.007090364
0.007090383
0.007066303
0.007018505
0.006947507
0.006853915
0.006738404
0.006601678
0.006444445
0.006252836
0.005913627
0.005498983
0.005065557
0.004652507
0.004278604
0.003945183
0.003646052
0.003377486
0.003141753
0.002944677
0.002783071
0.002608438
0.002265644
0.001748261
0.001156066
0.0005338885
5.50207e-05
3.524594e-05
0.0002250646
0.0005002948
0.0007879304
0.001060264
0.001314487
0.001554776
0.001786772
0.002015741
0.002246014
0.002480787
0.002722037
0.002970452
0.003225434
0.003485237
0.003747174
0.004007738
0.004263388
0.00450067
0.00437475
0.00426525
0.004302419
0.004495711
0.004818217
0.005234242
0.005701355
0.006163647
0.006547825
0.006754607
0.006872635
0.006966898
0.007037151
0.007083129
0.007104773
0.007102216
0.007075741
0.007025765
0.006952828
0.006857561
0.00674065
0.006602808
0.006444734
0.006265155
0.005926272
0.005508272
0.005070287
0.004653838
0.004278407
0.003944692
0.00364625
0.003378112
0.003140299
0.002943196
0.00278489
0.002611459
0.002266431
0.001748499
0.001155919
0.0005336684
5.502787e-05
3.532491e-05
0.0002261761
0.0004980407
0.0007815255
0.001051452
0.00130494
0.001545964
0.001780046
0.002012407
0.002247302
0.002487768
0.00273548
0.002990678
0.003252286
0.003518102
0.003785068
0.004049732
0.004308013
0.00451716
0.004383365
0.004281557
0.004333168
0.004544038
0.004886623
0.005322946
0.0058047
0.006269445
0.006635438
0.006785514
0.006900089
0.006991021
0.007058062
0.007100979
0.007119742
0.00711451
0.007085593
0.007033431
0.006958583
0.006861693
0.006743452
0.00660457
0.006445735
0.006267582
0.005938115
0.005517967
0.005075147
0.004655232
0.004278321
0.003944274
0.003644993
0.003374439
0.003138996
0.002945835
0.002787672
0.002613917
0.002267471
0.001748958
0.001155881
0.0005334192
5.503521e-05
3.54997e-05
0.0002273613
0.0004961051
0.0007759609
0.001043775
0.001296945
0.001539358
0.00177642
0.002013236
0.002253901
0.002501164
0.00275624
0.00301887
0.003287525
0.003559634
0.003831173
0.004098987
0.004359088
0.004537542
0.004389566
0.00429197
0.004362668
0.00460315
0.004979043
0.005444088
0.005941868
0.006393035
0.006684849
0.006818308
0.006929097
0.007016479
0.007080125
0.007119839
0.00713562
0.007127652
0.007096265
0.007041919
0.006965185
0.006866711
0.006747187
0.006607311
0.006447753
0.006269124
0.005949597
0.005527381
0.005080023
0.004657456
0.004279324
0.003942457
0.003640409
0.003374133
0.003142851
0.002949667
0.002790768
0.002616549
0.002268644
0.001749532
0.00115592
0.0005332203
5.504773e-05
3.556986e-05
0.0002289754
0.0004953621
0.0007719691
0.001038175
0.00129175
0.001536434
0.001777489
0.002019854
0.002267337
0.0025222
0.002785116
0.003055312
0.003330754
0.003607689
0.003883653
0.004154023
0.004414953
0.004526124
0.004371355
0.004301676
0.004405956
0.004673934
0.005076728
0.005565371
0.006074294
0.006507748
0.006722907
0.006852636
0.006959634
0.007043343
0.007103473
0.00713989
0.007152628
0.007141891
0.007108029
0.007051515
0.006972924
0.006872903
0.006752132
0.006611294
0.006451035
0.006271934
0.00596133
0.005537162
0.005085674
0.004658792
0.004276296
0.003940183
0.003643861
0.003378863
0.003146335
0.00295189
0.002792829
0.002618684
0.002270289
0.001750531
0.00115626
0.0005331351
5.505958e-05
3.579023e-05
0.0002307052
0.0004947487
0.0007688911
0.001034224
0.00128886
0.00153663
0.001782716
0.002031781
0.002287104
0.002550359
0.002821667
0.003099708
0.003380989
0.003663473
0.003942639
0.004214462
0.004475146
0.004492094
0.004344406
0.004309958
0.004452367
0.00475279
0.005175461
0.005680528
0.006193656
0.006607931
0.006763258
0.006888651
0.006991563
0.007071504
0.007128106
0.007161196
0.007170869
0.00715736
0.007121042
0.007062386
0.006981972
0.006880437
0.006758449
0.006616668
0.006455712
0.006276127
0.005971935
0.005545554
0.005089079
0.004657352
0.004274672
0.003942392
0.0036478
0.003382524
0.00314903
0.002954449
0.002795562
0.002621633
0.002272021
0.001751503
0.001156499
0.0005329445
5.507162e-05
3.58915e-05
0.0002323553
0.0004944073
0.0007664897
0.001031504
0.001288272
0.001540542
0.001793102
0.002050027
0.002314039
0.002586315
0.002866369
0.003151092
0.003439133
0.003725966
0.004007562
0.004279971
0.004539591
0.004451174
0.004315695
0.004322885
0.004503698
0.004839912
0.00529475
0.005817063
0.006320676
0.006662402
0.006805144
0.006926253
0.007025041
0.007101038
0.007153953
0.007183711
0.00719036
0.007174128
0.007135382
0.007074627
0.006992425
0.006889408
0.006766225
0.00662351
0.006461851
0.006281755
0.005982404
0.005552179
0.005090009
0.004657076
0.004277193
0.003946352
0.003651445
0.003386103
0.003152272
0.002957237
0.002798238
0.00262438
0.002274137
0.001752887
0.001157094
0.0005329068
5.508975e-05
3.613422e-05
0.000234284
0.0004923591
0.0007662642
0.001032015
0.001291955
0.001549586
0.001809306
0.002074791
0.002348284
0.002630047
0.002917466
0.003210088
0.003503497
0.003793688
0.004076585
0.004348344
0.004556918
0.00440434
0.004292895
0.004348375
0.004575486
0.004950848
0.005436617
0.005969685
0.006450143
0.006709737
0.006848101
0.006964943
0.007059644
0.007131776
0.007181088
0.007207508
0.00721113
0.007192203
0.007151098
0.007088278
0.007004327
0.006899857
0.006775493
0.006631846
0.006469468
0.006288834
0.005990405
0.005555075
0.005091166
0.004659424
0.004280878
0.003950213
0.003655705
0.003390063
0.003155647
0.002960172
0.002801106
0.002627371
0.002276419
0.001754345
0.001157673
0.0005328251
5.510549e-05
3.642808e-05
0.0002365144
0.0004871112
0.0007664827
0.001033532
0.001297606
0.001561785
0.001830178
0.002105837
0.002389405
0.002679153
0.002975819
0.003275053
0.00357297
0.00386543
0.004148397
0.004418181
0.004501674
0.004347167
0.004279213
0.00438095
0.004654033
0.005068005
0.005580651
0.006122563
0.00657654
0.006757989
0.006891989
0.007004602
0.007095259
0.007163575
0.007209334
0.007232488
0.007233151
0.007211578
0.007168148
0.007103343
0.00701769
0.006911785
0.006786258
0.006641672
0.006478555
0.00629734
0.005996826
0.005559407
0.005093919
0.004662366
0.004284186
0.003954456
0.003660157
0.003394181
0.003159157
0.00296318
0.00280399
0.002630395
0.002278992
0.001756073
0.001158506
0.0005329304
5.513105e-05
3.621419e-05
0.0002383561
0.0004826202
0.0007682226
0.001037855
0.00130696
0.001579248
0.00185716
0.002141732
0.002434637
0.002735449
0.00304023
0.003345416
0.003646948
0.003940701
0.004222805
0.004489842
0.00443289
0.004286006
0.004270343
0.004429336
0.004749861
0.005201974
0.005737784
0.006270682
0.006656841
0.006807043
0.006936688
0.007045107
0.007131776
0.007196344
0.007238622
0.007258581
0.007256355
0.007232205
0.00718651
0.007119747
0.007032456
0.006925187
0.00679848
0.006652949
0.006489051
0.006307192
0.006004578
0.005563456
0.005096183
0.004664678
0.004287893
0.003959122
0.003665045
0.003398622
0.003162857
0.002966275
0.002806893
0.002633424
0.002281493
0.001757916
0.001159393
0.0005330583
5.514746e-05
3.722851e-05
0.0002382832
0.0004791496
0.0007712285
0.001044108
0.001320403
0.001600695
0.001887799
0.002184173
0.00248822
0.002797972
0.003109916
0.003419991
0.003723964
0.00401776
0.004297688
0.004502992
0.004350722
0.004237898
0.004278583
0.004492061
0.004858269
0.005345776
0.005899315
0.006414076
0.006710823
0.006856559
0.006981945
0.007086265
0.007169043
0.00722996
0.007268851
0.007285708
0.007280675
0.007254022
0.007206124
0.007137449
0.007048523
0.006939901
0.006812099
0.006665583
0.00650089
0.006318339
0.00601039
0.005565455
0.005097625
0.004667327
0.004292009
0.003964205
0.003670252
0.003403252
0.003166624
0.002969346
0.002809737
0.002636431
0.00228429
0.00175968
0.001160478
0.0005332762
5.517337e-05
3.828088e-05
0.0002402625
0.000476662
0.0007755551
0.001052507
0.001335177
0.001625519
0.0019248
0.002232577
0.002547167
0.002865562
0.003183833
0.003497682
0.003802847
0.004095382
0.004371814
0.004424472
0.004269749
0.004203559
0.004304563
0.004571151
0.004981069
0.005499767
0.006063138
0.006552234
0.006764852
0.006906333
0.007027581
0.007127927
0.007206935
0.007264315
0.007299928
0.007313781
0.00730603
0.007276947
0.007226905
0.007156361
0.007065824
0.006955825
0.006826885
0.006679488
0.006513962
0.006330695
0.006015645
0.005567212
0.005099025
0.004670161
0.004296553
0.003969763
0.003675847
0.003408129
0.003170505
0.002972433
0.002812551
0.002639421
0.002287008
0.001761574
0.001161516
0.000533619
5.518956e-05
3.875695e-05
0.0002425737
0.0004747605
0.0007811986
0.001063409
0.00135474
0.001655914
0.001966888
0.002286159
0.002610901
0.002937307
0.003261049
0.003577714
0.003883138
0.004173609
0.004445967
0.00432989
0.004192346
0.004188402
0.004350746
0.004668104
0.005118376
0.005662725
0.006223195
0.006661903
0.006818884
0.006956248
0.007073492
0.007169998
0.007245365
0.007299332
0.007331782
0.007342737
0.007332361
0.007300931
0.007248813
0.007176453
0.007084344
0.006972995
0.0068429
0.006694509
0.006528202
0.006344204
0.006020978
0.005568591
0.005100323
0.004673271
0.004301556
0.003975753
0.00368174
0.003413138
0.003174368
0.002975392
0.002815183
0.002642268
0.002289693
0.001763481
0.001162601
0.0005339509
5.52116e-05
3.879211e-05
0.0002445486
0.0004734821
0.0007881963
0.001076804
0.001377765
0.001690549
0.002013662
0.002344293
0.002678579
0.003012043
0.003340039
0.003658098
0.003962162
0.00424869
0.004377769
0.004228992
0.004136766
0.004194042
0.004412112
0.004776652
0.005264319
0.005829771
0.006374547
0.006720035
0.00687289
0.007006248
0.007119613
0.007212412
0.00728427
0.007334951
0.007364356
0.00737252
0.007359615
0.007325919
0.00727179
0.007197664
0.007104014
0.006991323
0.006860055
0.006710627
0.006543382
0.00635857
0.006025528
0.005569218
0.005101391
0.004676587
0.004306961
0.003982131
0.003687905
0.003418276
0.003178232
0.002978256
0.002817676
0.002645015
0.002292343
0.001765484
0.001163743
0.0005344251
5.52246e-05
3.892113e-05
0.0002463787
0.0004729178
0.0007930352
0.001092647
0.001404069
0.001729072
0.002064507
0.002406202
0.002749345
0.00308893
0.003420129
0.003738546
0.004040348
0.004322305
0.004275608
0.00413574
0.0041002
0.004220622
0.004492091
0.004899711
0.005419219
0.005997078
0.00651857
0.006777643
0.0069266
0.007056152
0.007165815
0.007255068
0.007323567
0.0073711
0.007397584
0.007403069
0.007387733
0.007351852
0.00729578
0.007219937
0.007124779
0.007010763
0.006878325
0.006727848
0.00655964
0.006373916
0.006029523
0.005569286
0.005102349
0.004680159
0.004312756
0.003988846
0.003694264
0.003423453
0.003182007
0.002980933
0.002819912
0.002647552
0.002295381
0.001767735
0.001165088
0.0005349224
5.524053e-05
3.909142e-05
0.0002482148
0.0004728517
0.0007928305
0.001111405
0.001433776
0.001771242
0.002118826
0.00247099
0.002822063
0.003166626
0.003499765
0.003817196
0.004115288
0.004293031
0.004164086
0.00406172
0.00408948
0.004267184
0.004586371
0.005032349
0.005577984
0.006160198
0.006652463
0.006834738
0.006979986
0.007105914
0.007212046
0.007297914
0.007363203
0.007407723
0.007431411
0.007434325
0.007416652
0.007378665
0.007320712
0.0072432
0.007146563
0.007031237
0.006897627
0.006746084
0.006576883
0.006390204
0.006033114
0.005568957
0.005103321
0.004684059
0.004318971
0.003995901
0.003700808
0.003428664
0.003185695
0.002983446
0.002821968
0.00264997
0.002298291
0.001769846
0.001166338
0.0005353972
5.525369e-05
3.927358e-05
0.0002500904
0.0004732632
0.0007930959
0.001132597
0.001466411
0.001816437
0.002175881
0.002537876
0.002895982
0.003244466
0.003578403
0.00389366
0.004186802
0.004185565
0.004057116
0.00400817
0.004097896
0.004328854
0.004692078
0.005173819
0.00574145
0.006313205
0.006731207
0.006891444
0.007033092
0.007155538
0.007258287
0.007340916
0.007403134
0.00744477
0.007465776
0.007466224
0.007446301
0.007406282
0.007346505
0.007267365
0.007169275
0.007052648
0.006917862
0.006765237
0.006595017
0.006407351
0.006036352
0.005568333
0.00510437
0.004688287
0.004325554
0.004003222
0.003707465
0.003433844
0.003189251
0.002985767
0.002823811
0.002652206
0.002301199
0.001772017
0.00116765
0.0005358765
5.526907e-05
3.945385e-05
0.0002520536
0.0004741984
0.0007941874
0.001156444
0.001502089
0.001864528
0.002235175
0.002605988
0.002969913
0.003320998
0.003654324
0.003965857
0.00416798
0.004068536
0.003971645
0.003982898