/*--------------------------------*- C++ -*----------------------------------*\
| =========                 |                                                 |
| \\      /  F ield         | OpenFOAM: The Open Source CFD Toolbox           |
|  \\    /   O peration     | Version:  2312                                  |
|   \\  /    A nd           | Website:  www.openfoam.com                      |
|    \\/     M anipulation  |                                                 |
\*---------------------------------------------------------------------------*/
FoamFile
{
    version     2.0;
    format      ascii;
    arch        "LSB;label=32;scalar=64";
    class       volScalarField;
    location    "3000";
    object      ILambda_12_0;
}
// * * * * * * * * * * * * * * * * * * * * * * * * * * * * * * * * * * * * * //

dimensions      [1 0 -3 0 0 0 0];

internalField   nonuniform List<scalar> 
12000
(
648.7597
643.2212
644.721
645.2382
646.0367
646.6728
647.1739
647.5774
648.005
648.5663
649.3173
650.2619
651.3801
652.6467
654.0222
655.426
656.7188
657.7191
658.2547
658.2221
657.6212
656.5472
655.1505
653.5845
651.9668
650.3636
648.7962
647.2563
645.7222
644.1668
642.5601
640.8687
639.0561
637.0843
634.9149
632.5071
629.8137
626.7897
623.4159
619.6964
615.6189
611.1224
606.1439
600.6839
594.7651
588.3363
581.3039
573.6549
565.4283
556.598
547.0908
536.8905
526.023
514.4714
502.1911
489.1824
475.5197
461.3312
446.9264
432.7135
650.7694
652.643
652.6139
652.6408
652.5247
652.3302
652.0712
651.7308
651.2625
650.6104
649.7269
648.5776
647.1348
645.373
643.273
640.8338
638.0835
635.0787
631.8899
628.5786
625.1797
621.6943
618.0958
614.3428
610.3923
606.2085
601.7657
597.0474
592.0428
586.7455
581.152
575.2625
569.0813
562.6166
555.8811
548.8934
541.6793
534.27
526.6932
518.9717
511.1354
503.235
495.3307
487.4687
479.69
472.0628
464.6799
457.6178
450.9394
444.7308
439.103
434.1583
429.9901
426.7094
424.444
423.3148
423.4198
424.8319
427.5412
431.4315
639.0838
635.9579
633.7599
631.125
628.3133
625.268
621.9887
618.4631
614.6852
610.6554
606.381
601.874
597.1504
592.2289
587.1311
581.8797
576.4963
570.9971
565.3907
559.678
553.8549
547.9163
541.8604
535.6915
529.4211
523.0667
516.6511
510.2006
503.7441
497.3126
490.939
484.6576
478.504
472.5147
466.7265
461.1762
455.8998
450.9316
446.3041
442.0488
438.1962
434.7743
431.806
429.309
427.2977
425.7823
424.7645
424.2361
424.1816
424.5783
425.392
426.5753
428.0686
429.8006
431.6849
433.6192
435.4871
437.1638
438.5254
439.4794
587.771
579.9982
575.6534
570.3523
565.1043
559.6941
554.188
548.5914
542.9254
537.2086
531.4601
525.6988
519.9429
514.2097
508.5155
502.8756
497.3042
491.8158
486.4255
481.1502
476.0087
471.0219
466.2116
461.6004
457.2104
453.0629
449.1778
445.5732
442.2654
439.2683
436.5936
434.25
432.2436
430.577
429.2497
428.2577
427.5933
427.2458
427.2007
427.44
427.9424
428.6829
429.6336
430.764
432.0412
433.4301
434.8945
436.3979
437.9045
439.3793
440.7902
442.1089
443.3126
444.3853
445.3199
446.1198
446.8015
447.3953
447.9468
448.5127
515.1314
506.5633
502.1764
496.8967
491.941
487.0406
482.2785
477.6543
473.1863
468.8871
464.7697
460.8457
457.126
453.6208
450.3396
447.291
444.4832
441.9237
439.6191
437.5747
435.7943
434.2799
433.0312
432.0457
431.3186
430.8428
430.6093
430.6067
430.8221
431.2403
431.845
432.6182
433.5406
434.5921
435.7519
436.9988
438.3115
439.6688
441.0503
442.4364
443.8087
445.1505
446.4471
447.686
448.8575
449.9545
450.9731
451.9124
452.775
453.5661
454.2943
454.9704
455.6075
456.2201
456.8234
457.4318
458.0587
458.7147
459.408
460.1455
458.2104
453.0869
450.7932
448.0751
445.732
443.5705
441.6405
439.9312
438.4452
437.1807
436.1354
435.3059
434.6877
434.2752
434.0616
434.0392
434.199
434.531
435.0239
435.6655
436.4427
437.3414
438.3471
439.4447
440.6192
441.8552
443.1378
444.4524
445.7849
447.1219
448.4511
449.761
451.0416
452.284
453.4808
454.6262
455.7158
456.7468
457.7181
458.63
459.4842
460.2839
461.0333
461.7377
462.4031
463.0362
463.6438
464.2326
464.8092
465.3794
465.9481
466.5194
467.0956
467.6782
468.267
468.8607
469.4575
470.0561
470.6576
471.2693
437.8142
437.147
437.1608
437.2007
437.4367
437.8083
438.3197
438.9572
439.7115
440.5716
441.5268
442.5657
443.6772
444.8498
446.072
447.3326
448.6205
449.9251
451.2361
452.5438
453.8391
455.114
456.361
457.5736
458.7464
459.8749
460.9556
461.9861
462.9647
463.891
464.7652
465.5885
466.3629
467.0908
467.7753
468.42
469.0286
469.605
470.1533
470.6774
471.181
471.6675
472.1398
472.6004
473.0512
473.4934
473.9277
474.3541
474.7722
475.1808
475.5786
475.9641
476.3353
476.6908
477.029
477.3493
477.6516
477.9377
478.2124
478.4876
446.3293
448.089
449.1628
450.4446
451.7175
453.0162
454.3221
455.629
456.929
458.2151
459.4806
460.7198
461.9273
463.0986
464.2295
465.317
466.3583
467.3518
468.2961
469.1908
470.0359
470.8321
471.5805
472.2829
472.9411
473.5575
474.1346
474.675
475.1817
475.6573
476.1046
476.5262
476.9245
477.3017
477.6598
478.0002
478.3244
478.6331
478.9269
479.2061
479.4706
479.7201
479.9539
480.1714
480.3717
480.5538
480.7169
480.8601
480.9828
481.0846
481.1651
481.2246
481.2633
481.2818
481.2813
481.2632
481.2294
481.1835
481.1316
481.0866
464.4291
466.3212
467.3114
468.4803
469.5569
470.6009
471.5948
472.541
473.4377
474.285
475.0829
475.8322
476.5338
477.1891
477.7995
478.367
478.8936
479.3814
479.8326
480.2495
480.6343
480.9891
481.3161
481.6172
481.8942
482.1486
482.3818
482.5951
482.7893
482.9651
483.123
483.2634
483.3864
483.4918
483.5796
483.6494
483.7008
483.7335
483.7471
483.7411
483.7153
483.6694
483.6033
483.5171
483.4108
483.2849
483.1398
482.9762
482.7949
482.5967
482.3829
482.1547
481.9133
481.6601
481.3967
481.1247
480.8462
480.5648
480.2865
480.0235
479.3498
480.4311
480.9702
481.599
482.1525
482.6712
483.1462
483.5813
483.978
484.3381
484.6635
484.9563
485.2182
485.4511
485.6565
485.8362
485.9914
486.1235
486.2336
486.3226
486.3915
486.4408
486.471
486.4826
486.4758
486.4507
486.4076
486.3463
486.2669
486.1694
486.0536
485.9196
485.7674
485.597
485.4085
485.2021
484.9782
484.737
484.479
484.2047
483.9148
483.6099
483.291
482.9587
482.6141
482.2581
481.8918
481.5161
481.1322
480.7412
480.3444
479.943
479.5383
479.1316
478.7241
478.3174
477.9136
477.5157
477.1297
476.7666
487.9748
488.2913
488.4603
488.644
488.7909
488.9137
489.0097
489.0806
489.1273
489.1508
489.152
489.1317
489.0907
489.0297
488.9492
488.8496
488.7315
488.5952
488.4411
488.2693
488.0803
487.8742
487.6514
487.412
487.1565
486.8852
486.5984
486.2965
485.98
485.6494
485.3053
484.9484
484.5791
484.1984
483.8069
483.4055
482.995
482.5762
482.15
481.7174
481.2792
480.8364
480.3899
479.9407
479.4898
479.038
478.5865
478.1361
477.688
477.2433
476.8031
476.3688
475.9415
475.5226
475.1132
474.715
474.3298
473.9609
473.6136
473.2981
491.3818
491.1755
491.0982
490.981
490.8527
490.7052
490.5395
490.3557
490.154
489.9349
489.6987
489.446
489.1772
488.8927
488.5932
488.279
487.9507
487.609
487.2545
486.8877
486.5095
486.1205
485.7214
485.3131
484.8963
484.4719
484.0408
483.6037
483.1616
482.7153
482.2658
481.8139
481.3605
480.9065
480.4528
480.0002
479.5497
479.102
478.6581
478.2187
477.7848
477.357
476.9363
476.5235
476.1195
475.725
475.3409
474.9682
474.6078
474.2607
473.9281
473.6109
473.3104
473.0276
472.7636
472.5196
472.2974
472.0999
471.9319
471.8028
491.0348
490.4796
490.2367
489.9177
489.6048
489.2765
488.937
488.5856
488.2228
487.8494
487.4658
487.0729
486.6715
486.2623
485.8462
485.4241
484.9969
484.5656
484.1311
483.6942
483.256
482.8174
482.3794
481.9429
481.5087
481.0779
480.6512
480.2295
479.8136
479.4043
479.0023
478.6085
478.2234
477.8479
477.4824
477.1278
476.7846
476.4533
476.1347
475.8292
475.5373
475.2597
474.9969
474.7494
474.5176
474.3021
474.1035
473.9223
473.7591
473.6146
473.4894
473.3842
473.2996
473.2364
473.1951
473.1764
473.1815
473.2129
473.275
473.3771
488.3853
487.6611
487.3452
486.9413
486.5576
486.1663
485.7735
485.3781
484.981
484.583
484.1847
483.7872
483.3911
482.9975
482.6073
482.2212
481.8403
481.4653
481.0971
480.7365
480.3842
480.041
479.7077
479.3848
479.0731
478.7732
478.4856
478.2109
477.9495
477.7018
477.4684
477.2494
477.0454
476.8565
476.6831
476.5254
476.3836
476.2581
476.1488
476.056
475.9799
475.9206
475.8783
475.8529
475.8447
475.8538
475.8803
475.9243
475.9862
476.0662
476.1645
476.2816
476.4176
476.5729
476.7477
476.9426
477.1584
477.3972
477.6637
477.9678
485.2493
484.5739
484.2998
483.9514
483.6323
483.3152
483.0059
482.7032
482.4077
482.12
481.8406
481.5701
481.3092
481.0583
480.8182
480.5895
480.3725
480.1679
479.9761
479.7975
479.6326
479.4816
479.3449
479.2228
479.1156
479.0236
478.9467
478.8853
478.8394
478.8091
478.7943
478.7952
478.8115
478.8433
478.8905
478.953
479.0307
479.1234
479.2311
479.3534
479.4903
479.6417
479.8073
479.9869
480.1805
480.3878
480.6089
480.8436
481.092
481.3542
481.6302
481.9201
482.2241
482.5422
482.8748
483.222
483.5846
483.9647
484.3669
484.8017
483.4813
483.0422
482.9055
482.7261
482.5767
482.4364
482.309
482.1933
482.0894
481.9974
481.9175
481.8499
481.7949
481.7525
481.7231
481.7069
481.7039
481.7144
481.7384
481.776
481.8272
481.8919
481.9703
482.0623
482.1677
482.2866
482.4188
482.5641
482.7223
482.8932
483.0766
483.2721
483.4795
483.6984
483.9286
484.1696
484.4213
484.6831
484.9548
485.2361
485.5265
485.8257
486.1334
486.4493
486.773
487.1043
487.443
487.7889
488.1419
488.5018
488.8688
489.2427
489.6237
490.0116
490.4066
490.8089
491.2191
491.6392
492.0738
492.5334
484.3134
484.2004
484.2422
484.2783
484.3374
484.4081
484.4916
484.5866
484.6928
484.8101
484.9382
485.0769
485.2262
485.3859
485.556
485.7364
485.9269
486.1275
486.3379
486.5579
486.7874
487.0261
487.2737
487.53
487.7947
488.0676
488.3483
488.6364
488.9317
489.2336
489.5419
489.856
490.1755
490.5
490.829
491.1622
491.4989
491.8389
492.1816
492.5267
492.8737
493.2222
493.5719
493.9223
494.2731
494.6242
494.9751
495.3259
495.6764
496.0265
496.3762
496.7257
497.0751
497.4244
497.7739
498.1238
498.4751
498.8298
499.1926
499.5738
488.0055
488.1968
488.3982
488.6254
488.8639
489.1123
489.3691
489.6332
489.904
490.181
490.4638
490.752
491.0453
491.3434
491.646
491.953
492.2641
492.5789
492.8973
493.2188
493.5432
493.87
494.1991
494.53
494.8624
495.1961
495.5305
495.8654
496.2004
496.5351
496.869
497.2018
497.5331
497.8624
498.1895
498.514
498.8355
499.1537
499.4683
499.779
500.0855
500.3878
500.6855
500.9786
501.2669
501.5505
501.8294
502.1038
502.3739
502.6399
502.9022
503.1614
503.4177
503.6719
503.9245
504.1762
504.4283
504.6833
504.9462
505.2267
493.9262
494.3144
494.6126
494.9546
495.2959
495.6427
495.9912
496.3406
496.6903
497.0396
497.388
497.7352
498.0807
498.4244
498.766
499.1052
499.4418
499.7757
500.1065
500.4342
500.7583
501.0788
501.3953
501.7077
502.0159
502.3195
502.6186
502.9128
503.202
503.486
503.7647
504.0379
504.3055
504.5673
504.8233
505.0734
505.3176
505.5559
505.7882
506.0147
506.2354
506.4505
506.6601
506.8644
507.0637
507.2583
507.4486
507.635
507.8182
507.9987
508.1771
508.3542
508.5306
508.7072
508.8847
509.0641
509.2467
509.4352
509.6343
509.8538
500.9122
501.3527
501.6692
502.0316
502.3853
502.7392
503.0887
503.4335
503.7728
504.1062
504.4333
504.7539
505.0678
505.3749
505.6752
505.9686
506.2553
506.5351
506.8083
507.0746
507.3343
507.5872
507.8335
508.0732
508.3064
508.5333
508.7539
508.9683
509.1767
509.379
509.5755
509.7662
509.9513
510.131
510.3052
510.4743
510.6384
510.7977
510.9525
511.1028
511.249
511.3914
511.5301
511.6656
511.798
511.9278
512.0555
512.1813
512.3059
512.4297
512.5533
512.6773
512.8024
512.929
513.0577
513.1894
513.3251
513.4671
513.6203
513.7946
507.7833
508.1545
508.4289
508.739
509.0388
509.3351
509.624
509.9054
510.1786
510.4436
510.7001
510.9481
511.1879
511.4194
511.6429
511.8586
512.0669
512.2679
512.4618
512.6491
512.8297
513.0041
513.1723
513.3346
513.4913
513.6426
513.7887
513.9299
514.0662
514.1979
514.3251
514.448
514.5667
514.6814
514.7921
514.899
515.0022
515.1019
515.1981
515.291
515.3807
515.4672
515.5508
515.6315
515.7095
515.785
515.8583
515.9295
515.9991
516.0673
516.1345
516.2013
516.2679
516.3349
516.4027
516.472
516.5437
516.6202
516.7066
516.8138
513.7972
514.043
514.2515
514.4808
514.7034
514.9212
515.132
515.3353
515.5307
515.7181
515.8975
516.0692
516.2332
516.3898
516.5394
516.6822
516.8184
516.9485
517.0728
517.1913
517.3044
517.4123
517.515
517.6129
517.706
517.7946
517.8788
517.9587
518.0343
518.1057
518.1729
518.236
518.2951
518.35
518.4008
518.4476
518.4903
518.5289
518.5635
518.5942
518.6208
518.6435
518.6624
518.6776
518.6892
518.6973
518.7024
518.7047
518.7046
518.7024
518.6989
518.6944
518.6896
518.6851
518.6817
518.68
518.6815
518.6887
518.7071
518.7482
518.7442
518.8638
519.0088
519.1609
519.3112
519.4567
519.5963
519.7293
519.8552
519.974
520.0857
520.1903
520.2879
520.3788
520.4633
520.5414
520.6135
520.6798
520.7405
520.7957
520.8456
520.8903
520.9299
520.9645
520.9942
521.0191
521.0392
521.0548
521.0657
521.0721
521.074
521.0714
521.0644
521.053
521.0373
521.0175
520.9935
520.9656
520.934
520.8986
520.8599
520.8179
520.773
520.7255
520.6757
520.624
520.571
520.5171
520.463
520.4093
520.3568
520.3062
520.2583
520.214
520.174
520.1394
520.1116
520.0933
520.0898
520.1119
522.672
522.6781
522.7652
522.8478
522.932
523.0113
523.0852
523.1527
523.2134
523.2672
523.314
523.3538
523.3868
523.4131
523.433
523.4466
523.4543
523.4563
523.4528
523.444
523.4301
523.4113
523.3877
523.3595
523.327
523.2903
523.2497
523.2053
523.1574
523.1061
523.0516
522.9941
522.9339
522.8711
522.8061
522.739
522.6701
522.5998
522.5283
522.456
522.3831
522.3099
522.237
522.1645
522.093
522.0229
521.9546
521.8887
521.8258
521.7664
521.7112
521.6607
521.6157
521.5766
521.5443
521.5193
521.5028
521.4971
521.5071
521.5422
525.634
525.533
525.5649
525.5819
525.6033
525.62
525.6319
525.6379
525.6378
525.6313
525.6186
525.5997
525.5749
525.5445
525.5087
525.468
525.4227
525.3731
525.3197
525.2627
525.2024
525.1391
525.0731
525.0047
524.9342
524.8619
524.7881
524.713
524.6369
524.56
524.4825
524.4047
524.3268
524.2489
524.1712
524.094
524.0174
523.9416
523.8667
523.7928
523.7203
523.649
523.5793
523.5112
523.4448
523.3804
523.3181
523.2581
523.2008
523.1463
523.095
523.0471
523.0031
522.9632
522.9277
522.8971
522.8723
522.8553
522.8507
522.8675
527.7381
527.5478
527.536
527.5011
527.4744
527.4442
527.4109
527.3734
527.3316
527.2853
527.2346
527.1798
527.1211
527.0589
526.9936
526.9255
526.855
526.7824
526.7081
526.6324
526.5554
526.4775
526.3988
526.3195
526.2398
526.1599
526.0798
525.9998
525.9198
525.8398
525.76
525.6802
525.6006
525.521
525.4414
525.3618
525.282
525.2021
525.122
525.0415
524.9607
524.8795
524.7978
524.7156
524.633
524.55
524.4668
524.3836
524.3007
524.2184
524.1371
524.0572
523.9794
523.9042
523.8323
523.7643
523.7018
523.6472
523.6057
523.5873
529.2578
529.0146
528.979
528.916
528.8647
528.8112
528.7564
528.6991
528.639
528.5759
528.5098
528.4409
528.3694
528.2955
528.2193
528.1413
528.0615
527.9802
527.8975
527.8136
527.7285
527.6423
527.555
527.4666
527.3772
527.2868
527.1953
527.1029
527.0093
526.9146
526.8188
526.7217
526.6235
526.5241
526.4236
526.3219
526.2193
526.1157
526.0114
525.9066
525.8015
525.6964
525.5918
525.488
525.3856
525.2852
525.1875
525.0934
525.0038
524.9199
524.8426
524.7732
524.7132
524.6638
524.6265
524.6029
524.5954
524.6072
524.6442
524.7173
530.4623
530.1906
530.1417
530.0626
529.9969
529.9291
529.8605
529.7894
529.7156
529.6388
529.559
529.4762
529.3906
529.3024
529.2117
529.1188
529.024
528.9274
528.8292
528.7296
528.6289
528.5271
528.4245
528.3213
528.2178
528.1143
528.011
527.9083
527.8064
527.7059
527.607
527.5102
527.4161
527.3252
527.2381
527.1554
527.0779
527.0063
526.9415
526.8842
526.8356
526.7965
526.7679
526.7511
526.7472
526.7573
526.7829
526.8253
526.8861
526.9666
527.0685
527.1934
527.3428
527.5182
527.7214
527.9539
528.2177
528.5162
528.8548
529.2433
531.4116
531.1152
531.0537
530.9602
530.8817
530.8017
530.7219
530.6407
530.5581
530.4739
530.3885
530.302
530.2151
530.1281
530.0417
529.9563
529.8727
529.7915
529.7132
529.6385
529.5681
529.5026
529.4428
529.3893
529.343
529.3047
529.2752
529.2553
529.2459
529.2477
529.2619
529.2891
529.3304
529.3868
529.459
529.5482
529.6553
529.7811
529.9267
530.0929
530.2806
530.4908
530.7243
530.9817
531.2641
531.572
531.9062
532.2675
532.6563
533.0735
533.5193
533.9943
534.4988
535.0331
535.5972
536.1912
536.8154
537.4715
538.1629
538.8984
532.3039
532.0326
531.992
531.9258
531.8797
531.8374
531.8011
531.7695
531.743
531.722
531.7071
531.699
531.6985
531.7066
531.7242
531.7523
531.7916
531.8433
531.9081
531.9869
532.0806
532.1899
532.3158
532.459
532.6202
532.8002
532.9996
533.219
533.4591
533.7202
534.0029
534.3075
534.6343
534.9835
535.3553
535.7498
536.1668
536.6064
537.0682
537.5519
538.0571
538.5833
539.1299
539.6961
540.281
540.8838
541.5035
542.1391
542.7894
543.4533
544.1294
544.8164
545.5129
546.2174
546.9283
547.6441
548.3636
549.0868
549.8165
550.5615
534.1602
534.0723
534.1455
534.2196
534.319
534.4323
534.5604
534.7026
534.859
535.03
535.2161
535.4179
535.636
535.8711
536.1236
536.3942
536.6832
536.991
537.3178
537.6639
538.0293
538.4139
538.8177
539.2405
539.682
540.1418
540.6193
541.114
541.6252
542.1519
542.6933
543.2484
543.816
544.3948
544.9837
545.5811
546.1856
546.7956
547.4095
548.0256
548.6421
549.2573
549.8693
550.4762
551.0763
551.6678
552.2488
552.8177
553.3728
553.9127
554.4357
554.9406
555.4261
555.8909
556.334
556.7546
557.1525
557.5289
557.888
558.2403
538.5909
538.858
539.1312
539.4473
539.7843
540.1406
540.5141
540.9037
541.3087
541.7286
542.163
542.6115
543.0737
543.5492
544.0375
544.5379
545.0497
545.572
546.104
546.6447
547.1928
547.7471
548.3065
548.8696
549.4349
550.001
550.5664
551.1295
551.6886
552.2421
552.7884
553.3258
553.8527
554.3674
554.8682
555.3537
555.8224
556.2726
556.7032
557.1128
557.5003
557.8645
558.2045
558.5195
558.8089
559.0723
559.3094
559.5202
559.7048
559.8636
559.9973
560.1066
560.1925
560.2562
560.2992
560.323
560.3302
560.3244
560.3119
560.3046
546.176
546.769
547.2047
547.7132
548.2247
548.748
549.2771
549.8107
550.347
550.8846
551.4223
551.9589
552.4932
553.0239
553.55
554.0701
554.583
555.0874
555.582
556.0656
556.5367
556.9942
557.4367
557.8633
558.2726
558.6637
559.0354
559.387
559.7174
560.026
560.3122
560.5753
560.815
561.0309
561.223
561.3912
561.5356
561.6565
561.7543
561.8296
561.883
561.9155
561.9279
561.9215
561.8975
561.8574
561.8028
561.7354
561.6572
561.57
561.476
561.3773
561.2761
561.1747
561.0753
560.9803
560.8925
560.8156
560.7559
560.7236
555.2407
555.8708
556.2977
556.7908
557.2676
557.7402
558.2016
558.6507
559.0858
559.5055
559.909
560.2954
560.6639
561.0139
561.3447
561.6559
561.947
562.2176
562.4673
562.6959
562.9033
563.0893
563.2541
563.3977
563.5204
563.6225
563.7045
563.7668
563.81
563.8348
563.8421
563.8327
563.8076
563.7677
563.7142
563.6483
563.571
563.4838
563.3878
563.2844
563.1748
563.0604
562.9425
562.8224
562.7013
562.5805
562.4613
562.3449
562.2324
562.125
562.0238
561.9296
561.8433
561.7658
561.6976
561.6392
561.5918
561.5572
561.5396
561.5482
562.9378
563.2846
563.5383
563.8212
564.0838
564.3319
564.5609
564.7703
564.9594
565.1281
565.2764
565.4046
565.513
565.6021
565.6723
565.7244
565.7588
565.7764
565.7778
565.7637
565.7351
565.6927
565.6375
565.5704
565.4924
565.4042
565.307
565.2016
565.089
564.9701
564.8457
564.7168
564.5842
564.4487
564.311
564.1718
564.0318
563.8915
563.7515
563.6122
563.474
563.3372
563.2021
563.069
562.9379
562.8091
562.6826
562.5587
562.4375
562.3191
562.2037
562.0913
561.9823
561.8768
561.7751
561.6774
561.5849
561.4996
561.4263
561.3752
567.5443
567.5011
567.5471
567.582
567.6092
567.623
567.6224
567.6072
567.5775
567.5339
567.477
567.4077
567.3268
567.2352
567.1337
567.0233
566.9049
566.7792
566.647
566.5091
566.3663
566.2192
566.0686
565.9151
565.7593
565.6016
565.4426
565.2828
565.1226
564.9622
564.8021
564.6426
564.4839
564.3262
564.1699
564.015
563.8619
563.7106
563.5616
563.4149
563.2708
563.1298
562.992
562.858
562.7283
562.6034
562.4842
562.3715
562.2663
562.1698
562.0832
562.0079
561.9456
561.8978
561.8664
561.8533
561.8612
561.8939
561.9577
562.0636
569.2514
568.9206
568.8284
568.6989
568.5784
568.451
568.3184
568.1796
568.0352
567.8855
567.7311
567.5728
567.4113
567.2472
567.0812
566.914
566.7461
566.5781
566.4106
566.2441
566.079
565.916
565.7553
565.5976
565.4433
565.2928
565.1465
565.005
564.8688
564.7382
564.614
564.4965
564.3866
564.2847
564.1917
564.1082
564.0351
563.9732
563.9235
563.8869
563.8645
563.8574
563.8667
563.8936
563.9395
564.0057
564.0936
564.2047
564.3406
564.5027
564.6927
564.912
565.1623
565.445
565.7614
566.113
566.5014
566.9294
567.4018
567.9277
569.2467
568.7988
568.6613
568.4789
568.3179
568.1574
568.0001
567.8448
567.6919
567.5417
567.3949
567.2521
567.114
566.9812
566.8544
566.7345
566.6219
566.5175
566.4218
566.3357
566.2598
566.1948
566.1415
566.1005
566.0728
566.0589
566.0596
566.0758
566.1082
566.1575
566.2246
566.3102
566.4151
566.5401
566.6859
566.8531
567.0426
567.2548
567.4904
567.7499
568.0338
568.3424
568.676
569.0348
569.419
569.8285
570.2633
570.7233
571.2082
571.7175
572.2508
572.8073
573.3863
573.9867
574.6075
575.2473
575.9052
576.5813
577.2782
578.0032
569.0717
568.7035
568.6255
568.5178
568.4397
568.3714
568.3157
568.2714
568.2389
568.2187
568.2113
568.2174
568.2377
568.2729
568.3237
568.3907
568.4746
568.5759
568.6951
568.8329
568.9896
569.1657
569.3616
569.5777
569.814
570.0709
570.3485
570.6467
570.9656
571.3049
571.6645
572.044
572.4431
572.8611
573.2974
573.7514
574.222
574.7084
575.2094
575.7238
576.2503
576.7875
577.3339
577.8879
578.4477
579.0116
579.5779
580.1448
580.7104
581.273
581.8306
582.3815
582.9239
583.456
583.9761
584.4826
584.9746
585.4524
585.9191
586.384
570.6181
570.5431
570.635
570.7349
570.8654
571.0143
571.1823
571.3681
571.5717
571.793
572.0319
572.2887
572.5631
572.8553
573.1651
573.4923
573.8366
574.1976
574.5748
574.9679
575.376
575.7984
576.2344
576.683
577.1432
577.6139
578.0938
578.5816
579.0761
579.5757
580.079
580.5844
581.0901
581.5947
582.0963
582.5931
583.0836
583.5657
584.0379
584.4984
584.9454
585.3773
585.7926
586.1896
586.5671
586.9238
587.2586
587.5706
587.8589
588.1231
588.3627
588.5775
588.7676
588.9332
589.0748
589.1929
589.289
589.3659
589.4292
589.4902
575.3046
575.6104
575.9029
576.2438
576.6028
576.9788
577.3688
577.7713
578.1849
578.6087
579.0416
579.4827
579.9309
580.3852
580.8444
581.3073
581.7727
582.2392
582.7055
583.1702
583.6319
584.0891
584.5404
584.9843
585.4192
585.8437
586.2563
586.6557
587.0403
587.4088
587.76
588.0926
588.4056
588.6977
588.9682
589.2162
589.4409
589.6418
589.8184
589.9705
590.0977
590.2002
590.2781
590.3317
590.3614
590.3681
590.3526
590.3159
590.2594
590.1843
590.0924
589.9852
589.8648
589.733
589.592
589.4439
589.2915
589.1387
588.9919
588.8624
582.577
583.0805
583.4558
583.891
584.3235
584.7595
585.1933
585.6233
586.0477
586.4651
586.8741
587.2735
587.662
588.0385
588.4019
588.7509
589.0847
589.402
589.7021
589.984
590.2469
590.49
590.7127
590.9144
591.0945
591.2528
591.3889
591.5027
591.5941
591.6631
591.71
591.7349
591.7384
591.7209
591.6831
591.6257
591.5496
591.4557
591.3451
591.2189
591.0785
590.925
590.7599
590.5846
590.4007
590.2098
590.0135
589.8136
589.6117
589.4098
589.2094
589.0125
588.8208
588.636
588.4597
588.2937
588.1399
588.0015
587.8837
587.7965
589.8462
590.1971
590.4641
590.7642
591.0492
591.3229
591.5805
591.8212
592.0437
592.2472
592.4313
592.5955
592.7396
592.8635
592.967
593.0501
593.1129
593.1557
593.1786
593.1822
593.1667
593.1328
593.0811
593.0122
592.9269
592.8261
592.7105
592.5813
592.4394
592.2858
592.1216
591.9481
591.7663
591.5774
591.3827
591.1833
590.9803
590.7751
590.5688
590.3624
590.1572
589.9541
589.7542
589.5586
589.3681
589.1836
589.0062
588.8367
588.6758
588.5244
588.3831
588.2528
588.134
588.0273
587.9333
587.8524
587.7855
587.7349
587.7047
587.7043
594.517
594.486
594.5395
594.5833
594.618
594.6378
594.6413
594.628
594.5981
594.5517
594.4894
594.4118
594.3196
594.2136
594.0947
593.9637
593.8215
593.6692
593.5076
593.3378
593.1608
592.9775
592.7891
592.5964
592.4004
592.2021
592.0025
591.8024
591.6027
591.4042
591.2077
591.0139
590.8235
590.6371
590.4554
590.2787
590.1076
589.9424
589.7835
589.6312
589.4856
589.3469
589.2153
589.0909
588.9736
588.8637
588.7611
588.666
588.5784
588.4983
588.4259
588.3614
588.3047
588.2563
588.2161
588.1845
588.1622
588.1512
588.156
588.1865
595.9834
595.6156
595.5013
595.3473
595.2021
595.0489
594.8897
594.724
594.5521
594.3748
594.1928
594.0069
593.818
593.6269
593.4344
593.2412
593.0482
592.8561
592.6655
592.4772
592.2915
592.1092
591.9306
591.7563
591.5864
591.4214
591.2615
591.1069
590.9578
590.8142
590.6762
590.5439
590.4171
590.2959
590.1801
590.0697
589.9643
589.864
589.7685
589.6776
589.5912
589.509
589.431
589.3569
589.2868
589.2205
589.1581
589.0998
589.0456
588.9959
588.9508
588.9108
588.8764
588.8481
588.8264
588.8119
588.8059
588.8108
588.8314
588.8783
595.5512
595.0506
594.8857
594.6726
594.4832
594.2943
594.1093
593.9266
593.7466
593.5696
593.3957
593.2253
593.0587
592.8963
592.7382
592.5848
592.436
592.2922
592.1533
592.0195
591.8906
591.7668
591.6479
591.5338
591.4245
591.3197
591.2193
591.1232
591.0312
590.9431
590.8587
590.7779
590.7004
590.6262
590.555
590.4868
590.4215
590.359
590.2993
590.2423
590.1882
590.1369
590.0887
590.0436
590.0019
589.9639
589.93
589.9007
589.8764
589.8577
589.8452
589.8397
589.8419
589.8526
589.8726
589.9028
589.9445
590.0002
590.0748
590.1783
594.847
594.376
594.2408
594.0618
593.9115
593.7652
593.6263
593.4926
593.3639
593.2401
593.121
593.0064
592.8964
592.7907
592.6894
592.5923
592.4994
592.4105
592.3255
592.2442
592.1667
592.0927
592.0222
591.9549
591.891
591.8302
591.7724
591.7178
591.6662
591.6176
591.572
591.5295
591.4902
591.454
591.4212
591.3918
591.3661
591.3441
591.3261
591.3123
591.3029
591.2983
591.2986
591.3042
591.3155
591.3328
591.3566
591.3873
591.4255
591.4716
591.5263
591.5901
591.6636
591.7475
591.8423
591.9488
592.0679
592.2019
592.3552
592.5372
594.6826
594.2935
594.2059
594.0825
593.9862
593.8942
593.8091
593.7288
593.6529
593.5812
593.5134
593.4493
593.389
593.3323
593.2792
593.2297
593.1837
593.1413
593.1024
593.0671
593.0355
593.0074
592.9831
592.9625
592.9457
592.9329
592.924
592.9192
592.9187
592.9224
592.9305
592.9432
592.9605
592.9826
593.0096
593.0415
593.0786
593.121
593.1686
593.2217
593.2804
593.3447
593.4146
593.4904
593.5722
593.6599
593.754
593.8544
593.9614
594.0752
594.196
594.3241
594.4598
594.6034
594.7552
594.9154
595.0848
595.2653
595.4613
595.6819
595.1979
594.8944
594.8502
594.7809
594.7358
594.6957
594.6622
594.6336
594.6095
594.5897
594.5741
594.5626
594.5554
594.5523
594.5534
594.5588
594.5685
594.5826
594.6011
594.6241
594.6515
594.6835
594.72
594.7611
594.8068
594.857
594.9118
594.9712
595.035
595.1032
595.1759
595.2528
595.3339
595.4191
595.5083
595.6013
595.698
595.7982
595.9017
596.0085
596.1183
596.2308
596.3461
596.4637
596.5837
596.706
596.8303
596.9567
597.0852
597.2158
597.3484
597.4834
597.6207
597.7607
597.9034
598.0491
598.1985
598.3537
598.519
598.7041
596.4592
596.2509
596.2536
596.2446
596.2569
596.2757
596.3012
596.332
596.3678
596.4082
596.4531
596.5023
596.5559
596.6137
596.6756
596.7415
596.8114
596.8852
596.9627
597.0438
597.1283
597.216
597.3069
597.4005
597.4969
597.5957
597.6966
597.7995
597.9041
598.01
598.1171
598.2249
598.3332
598.4418
598.5502
598.6582
598.7655
598.8718
598.9767
599.0801
599.1816
599.2809
599.3779
599.4723
599.5639
599.6528
599.7387
599.8218
599.9021
599.9796
600.0545
600.1272
600.1978
600.2668
600.3344
600.4012
600.468
600.537
600.613
600.7064
598.5742
598.4595
598.5088
598.5572
598.6233
598.6955
598.7732
598.8548
598.9399
599.0278
599.1184
599.2113
599.3062
599.4029
599.501
599.6003
599.7006
599.8015
599.9027
600.0039
600.1049
600.2051
600.3045
600.4025
600.4989
600.5934
600.6856
600.7752
600.8619
600.9453
601.0252
601.1012
601.1731
601.2406
601.3034
601.3613
601.4141
601.4615
601.5034
601.5396
601.5701
601.5946
601.6131
601.6257
601.6323
601.6331
601.6281
601.6177
601.602
601.5815
601.5565
601.5274
601.495
601.4596
601.422
601.3827
601.3429
601.305
601.2741
601.2607
601.3678
601.2984
601.369
601.4401
601.5253
601.6134
601.7034
601.7939
601.8842
601.9736
602.0617
602.1481
602.2325
602.3145
602.3937
602.47
602.5428
602.612
602.6773
602.7383
602.7947
602.8463
602.8929
602.934
602.9697
602.9995
603.0233
603.0409
603.0522
603.0569
603.0549
603.0461
603.0305
603.0078
602.9781
602.9412
602.8973
602.8463
602.7882
602.7231
602.6511
602.5723
602.4869
602.3949
602.2968
602.1927
602.0831
601.9683
601.8488
601.7251
601.5978
601.4676
601.335
601.201
601.0661
600.9311
600.7974
600.6673
600.5459
600.4439
604.2235
604.1115
604.157
604.1935
604.2419
604.2889
604.3341
604.376
604.4138
604.4471
604.4754
604.4985
604.5161
604.5279
604.5338
604.5335
604.5269
604.5139
604.4942
604.4678
604.4345
604.3943
604.347
604.2926
604.2311
604.1625
604.0867
604.0037
603.9135
603.8163
603.712
603.6007
603.4826
603.3576
603.2259
603.0878
602.9432
602.7924
602.6355
602.4729
602.3046
602.131
601.9522
601.7687
601.5807
601.3887
601.193
600.9942
600.7927
600.5891
600.3841
600.1784
599.9725
599.7674
599.5637
599.3622
599.164
598.9717
598.7901
598.6294
606.3525
606.117
606.0953
606.0482
606.0137
605.975
605.9326
605.8847
605.8311
605.7713
605.7051
605.6324
605.553
605.467
605.3742
605.2748
605.1685
605.0556
604.9361
604.8098
604.677
604.5377
604.3919
604.2398
604.0814
603.917
603.7465
603.5701
603.3881
603.2004
603.0073
602.8089
602.6054
602.397
602.1838
601.9661
601.744
601.5177
601.2875
601.0535
600.816
600.5752
600.3315
600.085
599.836
599.585
599.3323
599.0783
598.8235
598.5684
598.3135
598.0594
597.8067
597.5562
597.3084
597.0639
596.824
596.5908
596.3691
596.1687
607.2208
606.8279
606.7217
606.5734
606.4415
606.3047
606.1648
606.0199
605.8698
605.7142
605.5531
605.3865
605.2143
605.0367
604.8537
604.6654
604.4718
604.2731
604.0694
603.8608
603.6474
603.4293
603.2067
602.9796
602.7482
602.5126
602.273
602.0295
601.7822
601.5312
601.2767
601.0187
600.7575
600.4932
600.2257