/*--------------------------------*- C++ -*----------------------------------*\
| =========                 |                                                 |
| \\      /  F ield         | OpenFOAM: The Open Source CFD Toolbox           |
|  \\    /   O peration     | Version:  2312                                  |
|   \\  /    A nd           | Website:  www.openfoam.com                      |
|    \\/     M anipulation  |                                                 |
\*---------------------------------------------------------------------------*/
FoamFile
{
    version     2.0;
    format      ascii;
    arch        "LSB;label=32;scalar=64";
    class       volScalarField;
    location    "3000";
    object      k;
}
// * * * * * * * * * * * * * * * * * * * * * * * * * * * * * * * * * * * * * //

dimensions      [0 2 -2 0 0 0 0];

internalField   nonuniform List<scalar> 
12000
(
0.002566775
0.005173443
0.006200282
0.007213888
0.008010414
0.008728151
0.009347591
0.009907496
0.01041339
0.01087551
0.01129015
0.01166231
0.01200021
0.01230942
0.0125922
0.01284087
0.01306186
0.01325828
0.01343837
0.01359469
0.01372891
0.01384018
0.01393648
0.01401457
0.01407648
0.01411835
0.01414659
0.01416093
0.01416397
0.01415281
0.01413019
0.01409421
0.01405292
0.01400347
0.01394733
0.01387968
0.01377474
0.01359781
0.01341131
0.01330308
0.01324599
0.01305548
0.01268094
0.01237323
0.01227953
0.01210901
0.01162377
0.01117572
0.01092765
0.01062083
0.01008896
0.00951261
0.009046459
0.008505378
0.007851788
0.007103919
0.006377302
0.005455531
0.004962704
0.004607536
0.002683596
0.006469428
0.00730758
0.008428076
0.009402016
0.01048137
0.01167703
0.01283747
0.01397611
0.01517718
0.01643154
0.01761774
0.01867327
0.01963836
0.02066671
0.0217102
0.02264821
0.02342216
0.02416543
0.0249464
0.02569942
0.02634659
0.02691416
0.02746652
0.02801548
0.02851745
0.0289415
0.02929943
0.02964641
0.03000293
0.0303271
0.03058267
0.03076496
0.0309233
0.03112113
0.03131361
0.03145432
0.03153557
0.03154118
0.03156035
0.031551
0.03150847
0.0314204
0.03126614
0.03101361
0.03057332
0.03026437
0.02987977
0.02925138
0.02815803
0.0271473
0.02610984
0.02467424
0.022838
0.02093247
0.01869819
0.01535763
0.01140937
0.008456866
0.00812161
0.003923474
0.008308088
0.009846184
0.01160416
0.01340531
0.01535201
0.0171169
0.01889648
0.02046088
0.02179614
0.02314199
0.02437426
0.02552011
0.02650957
0.02745642
0.02834133
0.02914921
0.02986017
0.03048693
0.03105797
0.03159078
0.03207789
0.0325095
0.0328945
0.03324912
0.03357986
0.03388039
0.03414195
0.03436534
0.03457162
0.0347755
0.03497544
0.03513049
0.03529029
0.03546117
0.03562358
0.03580877
0.03601479
0.03619105
0.03633341
0.03648742
0.03672574
0.03700036
0.03720486
0.03734565
0.03749884
0.03767503
0.03772052
0.03768649
0.03750583
0.03717129
0.03655538
0.03546943
0.0339571
0.03153723
0.02812753
0.02408241
0.01884468
0.01162325
0.01067589
0.004602678
0.008455989
0.0104521
0.01261843
0.01491014
0.01723562
0.01944122
0.02137144
0.02316137
0.02467498
0.02592061
0.02698579
0.0278947
0.02867949
0.02937575
0.03001502
0.0305824
0.03109443
0.03156324
0.03198565
0.03237049
0.03272181
0.03304447
0.03334119
0.03361481
0.03386758
0.03410034
0.03431372
0.03450945
0.03468961
0.03485862
0.03499587
0.03513512
0.03531247
0.03548113
0.03565081
0.03582923
0.03602456
0.03623594
0.03645711
0.03668879
0.03693979
0.03720606
0.03749951
0.03777411
0.03802711
0.03823135
0.03835432
0.03838247
0.03828256
0.03804152
0.03766221
0.03682072
0.03515616
0.03289481
0.03015139
0.02641641
0.02116906
0.01431456
0.01224285
0.005267823
0.008604835
0.01111409
0.01372678
0.01637488
0.01882155
0.02093395
0.02263144
0.02400105
0.02522656
0.02631244
0.02722703
0.02797318
0.02864141
0.02922525
0.02970639
0.03012378
0.030495
0.03082223
0.03109824
0.03134233
0.03157411
0.03179745
0.03200459
0.03219579
0.03237502
0.03254539
0.03271065
0.0328775
0.03302148
0.03316772
0.03335199
0.033549
0.03376721
0.03400955
0.03427704
0.03457203
0.03490631
0.03528199
0.0356973
0.03615562
0.03666719
0.03719243
0.03774693
0.0383408
0.03894767
0.03954008
0.04009266
0.04049879
0.04081921
0.04095355
0.0406568
0.0397602
0.03837712
0.03641932
0.03360245
0.02964212
0.02411371
0.01625417
0.01339326
0.005806075
0.008575887
0.01136427
0.01414604
0.01682987
0.01918782
0.02115197
0.02275163
0.02406343
0.02518463
0.02608942
0.02683287
0.02744104
0.02786316
0.02815872
0.02841427
0.02863189
0.02882016
0.02898059
0.02912781
0.02927207
0.02941869
0.02956726
0.02971849
0.02987495
0.03003958
0.0302152
0.0304047
0.0306109
0.03083596
0.03108631
0.03136647
0.03167843
0.03202796
0.03242283
0.03286723
0.03334373
0.03386477
0.03446069
0.03511656
0.03582424
0.03657162
0.03736541
0.0381852
0.03902649
0.03986993
0.04068899
0.04143553
0.04210451
0.0425723
0.04261887
0.04224273
0.04139285
0.03996195
0.03779634
0.03476233
0.03064279
0.02504578
0.01737599
0.0141516
0.006314399
0.008507664
0.01141018
0.01422976
0.01687384
0.01919196
0.02112394
0.02265892
0.02384664
0.02472954
0.0253993
0.02590262
0.02628843
0.0266066
0.02683047
0.02695798
0.02703817
0.02709279
0.02714159
0.02719545
0.02726238
0.02734759
0.02745418
0.02758466
0.02774146
0.02792698
0.02814363
0.02839389
0.02868059
0.02900653
0.0293758
0.02979317
0.03025436
0.03075647
0.03131702
0.03194486
0.03263654
0.03338879
0.03419465
0.0350606
0.03598931
0.03697588
0.03801096
0.0390808
0.0401664
0.04124301
0.04228135
0.0432648
0.04408291
0.04460394
0.04475424
0.0444902
0.04366816
0.0421809
0.0399224
0.03675985
0.03248084
0.02666214
0.01856875
0.01473889
0.006757974
0.008405584
0.01138996
0.01420699
0.01680646
0.01901943
0.02081778
0.02222753
0.02329647
0.02408141
0.02464588
0.02503314
0.02528381
0.02544567
0.02556062
0.02563781
0.02566819
0.02566973
0.02566169
0.02566474
0.02569219
0.02575256
0.02585103
0.02599107
0.02617521
0.02640554
0.02668398
0.0270124
0.02739276
0.02782713
0.02831762
0.02886636
0.029473
0.0301407
0.03087079
0.03166403
0.03252199
0.03344627
0.03443757
0.03549387
0.03661148
0.03778398
0.03900126
0.04024843
0.04150487
0.04275486
0.04396382
0.04503515
0.045884
0.04643542
0.04658382
0.04623706
0.04525802
0.04354513
0.04101762
0.03758474
0.03306821
0.02709339
0.019021
0.01509585
0.007190121
0.008301533
0.01128899
0.01405008
0.01656313
0.01870533
0.02044151
0.02179191
0.02280178
0.02352772
0.02402779
0.02435004
0.02453783
0.0246229
0.02464514
0.02464233
0.02463181
0.02462166
0.02461783
0.02462747
0.02466527
0.02474203
0.02486587
0.02504228
0.02527469
0.02556505
0.02591479
0.02632519
0.02679749
0.02733267
0.0279312
0.02859522
0.02932726
0.03012669
0.03099236
0.03192501
0.03292492
0.0339915
0.03512308
0.03631652
0.03756679
0.03886627
0.04020464
0.04156563
0.0429344
0.04427225
0.04551827
0.04661593
0.04749713
0.04807273
0.04821508
0.04780845
0.04671261
0.04484997
0.04218182
0.03864002
0.03404463
0.02798584
0.01974659
0.01539467
0.0075436
0.008196826
0.01117265
0.01388693
0.01631847
0.01837544
0.02002919
0.02131202
0.02227695
0.02297878
0.02346462
0.02377837
0.02396103
0.02404719
0.02406813
0.02405403
0.02402852
0.02401725
0.02403186
0.02407778
0.02416219
0.02429225
0.02447274
0.0247078
0.0250018
0.02535789
0.0257777
0.02626209
0.02681128
0.02742736
0.02811434
0.02887406
0.02970599
0.03060611
0.03157351
0.03260762
0.03370742
0.03487113
0.03609588
0.03737734
0.03870923
0.04008292
0.04148614
0.04290579
0.04431373
0.04567459
0.0469401
0.04805365
0.04893544
0.04948525
0.04956631
0.0490282
0.04773807
0.04567255
0.04284063
0.0391577
0.03441592
0.02821593
0.01990816
0.01554818
0.007891258
0.008106115
0.0110452
0.01366777
0.01599418
0.0179758
0.01959698
0.02087245
0.02183669
0.02253821
0.02303003
0.02336014
0.02357002
0.0236922
0.02375632
0.02378976
0.02381341
0.0238457
0.02390125
0.02399265
0.02412407
0.02429931
0.02452483
0.02481445
0.02516761
0.02558677
0.02607409
0.02663113
0.02725888
0.02795586
0.02871862
0.02955101
0.03045359
0.03142257
0.03245647
0.03355398
0.03471328
0.03593181
0.03720596
0.03853063
0.03989872
0.04130048
0.04272279
0.04414787
0.04555089
0.04689692
0.04814525
0.0492356
0.05008958
0.05058805
0.05060444
0.04996065
0.04855344
0.04637427
0.04345431
0.03970358
0.03490877
0.02866952
0.02031132
0.01569118
0.008133377
0.007987119
0.01088432
0.01344216
0.01569249
0.01761535
0.01919323
0.02044312
0.02141217
0.02214381
0.02268115
0.02306122
0.02332059
0.02349646
0.02362075
0.02371872
0.0238073
0.02389284
0.02400299
0.02414907
0.02434112
0.02458745
0.02489443
0.02525788
0.02568312
0.0261716
0.02672496
0.02734397
0.02802881
0.02877882
0.02959311
0.03047249
0.03141791
0.03242666
0.03349573
0.03462343
0.03580748
0.03704485
0.0383315
0.03966202
0.04102916
0.04242306
0.04383052
0.04523226
0.04660492
0.04791703
0.04912728
0.05018098
0.05100282
0.05146414
0.05141512
0.05069023
0.04918856
0.04689659
0.04387052
0.04002524
0.03513671
0.02880193
0.02037005
0.01575349
0.008344377
0.007890922
0.01074444
0.01324346
0.01541626
0.01726871
0.01880615
0.02005298
0.02104005
0.02180666
0.02238692
0.02282066
0.02314424
0.0233887
0.02358086
0.02374617
0.02390742
0.02408899
0.0242932
0.02453139
0.02481098
0.02513584
0.02550915
0.0259366
0.02642125
0.02696491
0.02756925
0.02823508
0.0289625
0.02975126
0.03060064
0.03150988
0.03247852
0.03350493
0.0345866
0.03572111
0.0369058
0.03813732
0.03941145
0.0407228
0.04206437
0.04342704
0.04479872
0.04616318
0.04749693
0.04876783
0.04993782
0.05096177
0.05175299
0.05216987
0.05206077
0.05126857
0.04969109
0.04731714
0.04420893
0.04029966
0.0353708
0.02901253
0.02056696
0.01580563
0.008469452
0.007796756
0.0105959
0.01303554
0.01513533
0.01693259
0.01844143
0.01968239
0.02068214
0.02147334
0.02209602
0.02258676
0.02297632
0.02329283
0.02356358
0.02381173
0.02406075
0.02432712
0.02462144
0.02495173
0.02532339
0.02573966
0.02620147
0.02670687
0.02725338
0.02784649
0.02849476
0.02919775
0.02995642
0.03077093
0.03164093
0.0325657
0.03354391
0.03457441
0.03565489
0.0367822
0.03795353
0.03916553
0.04041402
0.04169371
0.04299787
0.04431775
0.045642
0.04695559
0.04823823
0.0494679
0.05061854
0.05162819
0.05238573
0.05275199
0.05258113
0.05172719
0.0500876
0.04764371
0.04445891
0.04048891
0.03551045
0.02909593
0.02059592
0.01583188
0.008518744
0.007696522
0.0104511
0.01283353
0.01486453
0.01660568
0.01808071
0.01931101
0.0203225
0.02114644
0.02181512
0.02235886
0.02280933
0.02319423
0.02353956
0.02386873
0.0242033
0.02455946
0.0249474
0.02537319
0.02583967
0.02634745
0.02689538
0.02748093
0.02810144
0.02875559
0.029444
0.03017506
0.03095685
0.03178836
0.03266906
0.03359794
0.0345737
0.03559618
0.03666344
0.03777171
0.03891833
0.04010012
0.04131313
0.04255246
0.04381194
0.0450837
0.04635771
0.04762076
0.04885887
0.05005906
0.05118849
0.05217079
0.05289411
0.05321884
0.05299706
0.05208878
0.05039305
0.04789093
0.04465089
0.04063688
0.03562596
0.02918932
0.02066069
0.01583778
0.008542625
0.007608921
0.01031312
0.01263637
0.01460193
0.01628881
0.01772886
0.01894544
0.01996372
0.02081201
0.02151955
0.02211537
0.02262621
0.02307949
0.02349891
0.02390685
0.02432324
0.02476755
0.02524934
0.02577235
0.02633597
0.02693683
0.02757036
0.02823196
0.02891825
0.02962794
0.03036183
0.03112295
0.03191799
0.03275526
0.03363697
0.03456146
0.03552704
0.03653404
0.03758081
0.03866331
0.03977917
0.04092552
0.04209885
0.04329481
0.04450797
0.04573162
0.04695729
0.04817516
0.04937958
0.05055859
0.05166437
0.05261593
0.05330226
0.05359074
0.05333321
0.05238353
0.05063886
0.0480861
0.04479722
0.04074388
0.03570046
0.0292308
0.02068191
0.01584148
0.008529794
0.007526881
0.0101843
0.01244558
0.01434603
0.01597793
0.01738027
0.01857884
0.01959851
0.02046558
0.02120695
0.02184924
0.02241814
0.02293729
0.02342937
0.0239142
0.02441249
0.0249399
0.02551163
0.02613024
0.02679067
0.02748427
0.028202
0.02893632
0.02968242
0.03043878
0.03120718
0.03199216
0.03280005
0.03363848
0.03451411
0.03542817
0.03637849
0.03736561
0.03838816
0.03944208
0.0405253
0.04163539
0.04276933
0.04392341
0.0450931
0.04627287
0.04745599
0.04863915
0.04982056
0.05097816
0.05206076
0.05298529
0.05363964
0.0538909
0.05359527
0.05261168
0.05083674
0.04824985
0.04492155
0.04083599
0.03576916
0.02928213
0.02071337
0.01583501
0.008521308
0.007459109
0.01006682
0.01226314
0.01409752
0.01567307
0.01703459
0.01821041
0.01922563
0.02010535
0.0208749
0.02155922
0.02218225
0.02276636
0.02333175
0.02389649
0.02447388
0.02508093
0.02573562
0.02644445
0.02719846
0.02798233
0.02878101
0.02958326
0.03038286
0.03117854
0.03197327
0.03277334
0.03358693
0.03442254
0.03528804
0.03618746
0.03711926
0.038084
0.03908082
0.04010597
0.04115752
0.04223346
0.0433313
0.04444798
0.04557976
0.04672226
0.04787183
0.04902874
0.05018928
0.05132759
0.05238986
0.05329162
0.05392089
0.05414547
0.05382103
0.05280338
0.05099021
0.04836582
0.04500587
0.0408959
0.03580895
0.02930162
0.02071533
0.01582294
0.008496396
0.007409856
0.009963301
0.01208811
0.01385455
0.01537179
0.01668963
0.01783874
0.01884479
0.01973236
0.02052566
0.02124824
0.0219224
0.0225686
0.02320494
0.02384674
0.02450597
0.02519277
0.02592382
0.02671597
0.02755824
0.02842812
0.02930333
0.03016813
0.03101476
0.03184253
0.03265625
0.03346439
0.03427735
0.03510562
0.0359586
0.03684148
0.03775387
0.0386947
0.03966507
0.04066333
0.04168584
0.04273121
0.04379762
0.04488262
0.04598321
0.04709588
0.04821905
0.04935435
0.05049611
0.05161688
0.05266117
0.05354314
0.05415014
0.05435025
0.0540007
0.05295859
0.05112154
0.04847139
0.04508314
0.04094929
0.03584311
0.02931946
0.02071945
0.01581148
0.008454764
0.007364609
0.009874793
0.01192572
0.01362086
0.01507703
0.01634798
0.01746671
0.01845966
0.0193512
0.02016471
0.02092247
0.02164515
0.02235122
0.02305646
0.0237735
0.0245116
0.02527787
0.02608505
0.02695286
0.0278762
0.02882625
0.02977234
0.0306935
0.03158046
0.0324336
0.03325997
0.03407066
0.03487849
0.03569597
0.0365346
0.03740052
0.03829303
0.03921139
0.0401572
0.04112978
0.04212606
0.04314501
0.04418514
0.04524444
0.04632035
0.04740988
0.04851224
0.04962961
0.05075588
0.05186259
0.05289287
0.05375965
0.05434949
0.05453006
0.05415839
0.05309143
0.05122795
0.04855251
0.04514294
0.04099163
0.03587025
0.02933257
0.02071998
0.01579938
0.008439483
0.007363707
0.009802083
0.01177074
0.01339157
0.01478509
0.01600775
0.01709441
0.01807233
0.01896588
0.01979781
0.0205892
0.02135905
0.02212361
0.02289666
0.02368804
0.02450443
0.02534858
0.02622889
0.02716496
0.0281612
0.02918388
0.03019376
0.03116417
0.03208443
0.03295633
0.03378961
0.0345982
0.03539762
0.03620321
0.03702783
0.03787696
0.03875028
0.03964764
0.04057117
0.04152089
0.04249434
0.04349089
0.04450939
0.04554812
0.04660475
0.04767652
0.04876253
0.04986499
0.05097837
0.05207365
0.05309278
0.05394747
0.05452329
0.0546876
0.05429766
0.05321116
0.05132733
0.04863101
0.0452009
0.04103165
0.0358944
0.02934154
0.02071544
0.0157882
0.008438109
0.007376693
0.009751367
0.01163106
0.0131737
0.01450177
0.01567419
0.01672722
0.01768886
0.01858348
0.0194332
0.02025789
0.02107479
0.02189808
0.02273829
0.02360217
0.02449322
0.02541268
0.02636226
0.02736123
0.0284233
0.02951061
0.03057597
0.03158751
0.03253356
0.03341782
0.03425302
0.03505609
0.03584522
0.03663876
0.03745025
0.03828349
0.039139
0.04001735
0.04092108
0.04185077
0.04280468
0.04378254
0.04478348
0.04580595
0.04684772
0.047906
0.04897934
0.05006966
0.05117264
0.05225896
0.05326956
0.05411489
0.05467944
0.05482991
0.05442332
0.05331808
0.0514144
0.04869883
0.04525179
0.04106805
0.03591759
0.02935226
0.02071533
0.01578078
0.008434348
0.007413626
0.009714244
0.01150103
0.0129632
0.01422543
0.01534806
0.01636841
0.01731497
0.01821196
0.01908068
0.01993957
0.02080374
0.0216855
0.0225919
0.02352707
0.02449122
0.0254814
0.02649549
0.02755337
0.02867482
0.02981808
0.03092932
0.03197263
0.03293622
0.03382624
0.03465871
0.03545362
0.03623157
0.03701331
0.03781244
0.03863095
0.03947025
0.04033166
0.04121807
0.04213055
0.04306804
0.04403057
0.04501749
0.04602734
0.04705789
0.0481062
0.04916998
0.05025069
0.05134547
0.05242494
0.0534292
0.05426747
0.05482312
0.05496219
0.05454144
0.0534201
0.05149882
0.04876546
0.0453021
0.04110372
0.03593925
0.0293601
0.02071212
0.0157731
0.008432585
0.007471165
0.009699098
0.01138805
0.01276709
0.01396239
0.01503542
0.01602424
0.01695753
0.01785908
0.0187491
0.01964429
0.02055756
0.02149738
0.02246822
0.02347054
0.0245024
0.02556008
0.02663461
0.02774746
0.02892235
0.03011317
0.03126051
0.03232591
0.03329866
0.03418787
0.03501297
0.03579718
0.03656449
0.03733623
0.03812343
0.03892834
0.03975309
0.04059964
0.04147113
0.04236907
0.043293
0.0442432
0.04521917
0.04621952
0.04724194
0.04828324
0.04934018
0.05041364
0.05150223
0.05257668
0.0535764
0.0544094
0.05495784
0.05508703
0.05465321
0.05351655
0.0515786
0.04882887
0.04535114
0.04114005
0.03596318
0.02937172
0.0207122
0.01577085
0.008460356
0.00755491
0.009700645
0.01128654
0.01258097
0.01371061
0.0147367
0.01569736
0.0166211
0.01753094
0.01844571
0.01937981
0.02034393
0.02134277
0.02237759
0.02344558
0.02454132
0.02565827
0.0267877
0.0279526
0.02917563
0.03040537
0.03157817
0.03265513
0.03362813
0.03451005
0.03532383
0.03609555
0.03685209
0.03761436
0.03839028
0.03918277
0.0399946
0.04082831
0.0416872
0.04257312
0.04348614
0.04442672
0.04539446
0.04638799
0.04740489
0.04844176
0.04949437
0.0505628
0.05164699
0.05271797
0.0537146
0.05454372
0.05508635
0.05520717
0.05476233
0.05361273
0.05165845
0.04889161
0.04540045
0.04117663
0.03598674
0.02938275
0.02071221
0.01576843
0.0084958
0.007647744
0.009717107
0.01120393
0.01241338
0.01347813
0.01445995
0.01539648
0.01631525
0.01723787
0.01818088
0.01915676
0.02017212
0.02122886
0.0223239
0.02345262
0.02460809
0.0257793
0.02695944
0.02817316
0.02943793
0.03069669
0.03188377
0.03296207
0.0339272
0.03479624
0.03559554
0.03635364
0.03709948
0.03785283
0.03861842
0.03939992
0.04020066
0.04102364
0.04187228
0.04274867
0.04365333
0.04458681
0.04554876
0.04653773
0.04755119
0.04858552
0.04963613
0.05070237
0.05178387
0.05285297
0.05384803
0.05467463
0.05521273
0.05532642
0.0548707
0.05370575
0.05173545
0.04895581
0.04545323
0.04121802
0.03601589
0.02939845
0.02071445
0.01576889
0.008560152
0.007766891
0.009744396
0.01113066
0.01225906
0.0132631
0.01420495
0.01512209
0.0160411
0.01698157
0.01795809
0.01897919
0.02004725
0.02116044
0.02231432
0.02349769
0.02470456
0.02592287
0.02714751
0.028405
0.02970603
0.03098619
0.03217764
0.03324683
0.03419545
0.03504569
0.0358277
0.03657356
0.03731158
0.03805666
0.03881324
0.03958544
0.04037707
0.04119148
0.04203212
0.04290128
0.04379986
0.04472848
0.04568676
0.0466732
0.04768512
0.04871866
0.04976899
0.0508347
0.051915
0.05298344
0.05397775
0.05480237
0.05533646
0.05544259
0.05497394
0.05379445
0.05181134
0.04901967
0.04550559
0.0412587
0.03604461
0.02941491
0.02071861
0.01577238
0.008606698
0.007889502
0.00979374
0.01107818
0.01212351
0.0130698
0.01397763
0.01488205
0.0158071
0.01677068
0.01778373
0.01885026
0.01996912
0.02113583
0.02233902
0.02357564
0.02482957
0.02608824
0.02735348
0.02865326
0.02998349
0.03127326
0.03245825
0.03351118
0.03443925
0.0352689
0.03603332
0.03676749
0.03749816
0.03823518
0.03898338
0.03974733
0.04053116
0.04133849
0.04217278
0.04303647
0.04393073
0.04485622
0.04581251
0.046798
0.04780985
0.04884399
0.04989531
0.05096172
0.05204201
0.05311077
0.05410531
0.0549288
0.05545787
0.05555436
0.05507528
0.05388586
0.05189214
0.04908871
0.04556286
0.04130423
0.03607805
0.02943573
0.02072701
0.01577938
0.008696603
0.008033775
0.00984882
0.01103753
0.01200888
0.01290283
0.01378075
0.01467766
0.01561589
0.01660866
0.01766127
0.01877398
0.01994351
0.02115718
0.02241325
0.02369514
0.02498895
0.02628048
0.02758136
0.02891995
0.03027166
0.0315613
0.03273045
0.03376088
0.03466544
0.03547373
0.03622096
0.0369435
0.03766601
0.03839467
0.0391347
0.03989096
0.04066787
0.04146926
0.04229854
0.04315818
0.0440496
0.0449734
0.04592908
0.04691491
0.0479279
0.04896374
0.05001706
0.0510852
0.0521666
0.05323667
0.05423202
0.05505375
0.05557715
0.05566551
0.05517729
0.05397772
0.05197246
0.04915694
0.04561945
0.04134916
0.03611087
0.02945577
0.02073379
0.01578618
0.008761057
0.008166957
0.009911974
0.01101235
0.01191068
0.01275927
0.01361818
0.01451806
0.01547642
0.01650122
0.01759505
0.01875538
0.01996849
0.02123473
0.02253605
0.02385798
0.02518539
0.0265031
0.02783353
0.02920554
0.03057
0.03185003
0.03299531
0.03399621
0.03487229
0.03565696
0.03638841
0.0371015
0.0378155
0.03853609
0.03926864
0.04001821
0.04078937
0.04158612
0.04241177
0.04326882
0.04415878
0.0450822
0.04603848
0.04702576
0.04804086
0.04907928
0.05013536
0.051206
0.05228942
0.0533615
0.05435739
0.05517659
0.05569481
0.05577628
0.05527969
0.05407059
0.05205482
0.04922801
0.04567924
0.04139787
0.03614841
0.02948164
0.02074677
0.01579843
0.008870892
0.008324096
0.009989622
0.01100987
0.01184267
0.01265288
0.01349889
0.0144066
0.01538771
0.01644742
0.01758395
0.01878249
0.02004633
0.02135615
0.02269667
0.02405188
0.02540569
0.02674845
0.02810995
0.02950801
0.0308746
0.03213438
0.03324757
0.03421414
0.03505989
0.03582137
0.03653844
0.03724299
0.03794883
0.03866191
0.03938783
0.04013174
0.04089828
0.0416916
0.042515
0.04337083
0.04426059
0.04518478
0.04614267
0.04713226
0.04815022
0.04919185
0.05025132
0.05132522
0.05241154
0.05348571
0.05448164
0.05529833
0.05581183
0.05588663
0.05538204
0.05416377
0.05213757
0.04929935
0.04573905
0.04144609
0.03618464
0.02950515
0.02075717
0.01580937
0.008998661
0.008472717
0.01006583
0.01101275
0.01179202
0.01257472
0.01341487
0.01433667
0.01534912
0.01644728
0.01761678
0.01886564
0.02017221
0.02152063
0.02289401
0.02427527
0.02564784
0.02701588
0.02841176
0.02982635
0.03118361
0.03241419
0.0334895
0.03441907
0.03523386
0.03597261
0.03667592
0.03737236
0.0380705
0.03877658
0.03949646
0.04023546
0.04099826
0.04178912
0.04261127
0.04346688
0.04435739
0.0452832
0.04624348
0.04723611
0.0482576
0.04930304
0.05036627
0.05144362
0.05253286
0.05360899
0.05460506
0.05541954
0.05592838
0.05599669
0.05548437
0.0542573
0.05222111
0.04937187
0.04580037
0.04149655
0.03622433
0.02953396
0.02077463
0.01582607
0.009004679
0.008620927
0.01014979
0.01103717
0.01177375
0.01253408
0.01337973
0.01432156
0.0153553
0.01648589
0.01770836
0.01900023
0.02034585
0.02172791
0.0231285
0.02453002
0.02591537
0.02730571
0.02873353
0.03015672
0.0314939
0.03268645
0.03371886
0.03460938
0.0353935
0.03611222
0.0368041
0.03749211
0.03818292
0.03888275
0.03959743
0.04033232
0.04109218
0.04188138
0.04270311
0.04355932
0.04445136
0.04537951
0.04634279
0.0473389
0.04836415
0.04941342
0.05048036
0.05156122
0.0526536
0.05373191
0.05472814
0.0555401
0.05604403
0.05610578
0.0555859
0.05435037
0.05230451
0.04944439
0.04586155
0.04154632
0.03626255
0.02956013
0.02078856
0.01583924
0.009320734
0.008772415
0.01024221
0.01107972
0.01177826
0.0125361
0.01338426
0.01434191
0.01541708
0.01659179
0.01785297
0.01918241
0.02056137
0.0219709
0.02339229
0.02480762
0.02620698
0.02762337
0.02907541
0.03049451
0.03180096
0.03294915
0.03393603
0.03478737
0.03554203
0.03624285
0.03692489
0.03760449
0.03828822
0.03898232
0.03969259
0.04042432
0.04118215
0.04197051
0.04279255
0.04365003
0.04454418
0.04547509
0.04644163
0.04744136
0.04847038
0.04952349
0.05059418
0.05167866
0.05277442
0.05385477
0.05485069
0.05565965
0.05615835
0.05621353
0.05568634
0.05444273
0.0523876
0.0495169
0.04592297
0.04159679
0.03630227
0.02958954
0.02080787
0.01585681
0.009651156
0.008929073
0.01034289
0.01113952
0.01180869
0.01255467
0.01342288
0.01441888
0.01553165
0.01674646
0.01804526
0.01940815
0.02081489
0.0222455
0.02368078
0.02510256
0.02652005
0.02796889
0.02943426
0.03083617
0.03210213
0.03320108
0.03414139
0.0349548
0.03568213
0.03636651
0.03703925
0.03771094
0.03838816
0.03907716
0.03978369
0.04051298
0.04126958
0.04205784
0.04288082
0.04374008
0.04463669
0.04557064
0.04654064
0.04754409
0.04857696
0.04963384
0.05070806
0.0517959
0.05289484
0.05397691
0.05497208
0.05577759
0.05627076
0.05631935
0.05578509
0.0545338
0.05246979
0.04958875
0.04598374
0.04164649
0.03634093
0.02961714
0.02082516
0.01587098
0.009843756
0.009076435
0.01045105
0.0112181
0.0118704
0.01262446
0.01351621
0.0145448
0.01569524
0.01694779
0.01828104
0.01967333
0.02110343
0.02255087
0.02399629
0.02542099
0.02685551
0.02833494
0.02980298
0.0311755
0.03239329
0.03344018
0.03433428
0.03511193
0.03581523
0.03648554
0.03714922
0.03781336
0.03848459
0.03916908
0.03987251
0.04059997
0.0413559
0.04214458
0.04296894
0.04383031
0.04472966
0.04566679
0.04664027
0.04764733
0.04868382
0.04974419
0.05082162
0.05191259
0.05301453
0.05409803
0.055092
0.05589362
0.05638086
0.05642286
0.05588176
0.05462321
0.05255074
0.04965968
0.0460438
0.04169589
0.03638
0.02964616
0.02084475
0.01588746
0.00992956
0.009209901
0.01056788
0.01131861
0.01196462
0.0127337
0.01365409
0.01471807
0.01590548
0.01719268
0.01855575
0.01997153
0.02141796
0.02287427
0.02432111
0.02575879
0.02722457
0.02872244
0.03017749
0.03150953
0.03267379
0.03366743
0.03451639
0.03526036
0.03594314
0.03660223
0.03725688
0.03791385
0.03857956
0.03926007
0.03996092
0.04068707
0.04144279
0.04223229
0.0430583
0.04392199
0.04482415
0.04576443
0.04674126
0.04775171
0.04879151
0.04985498
0.05093523
0.05202895
0.05313359
0.05421805
0.05521023
0.0560074
0.05648833
0.05652377
0.05597613
0.05471072
0.05263017
0.0497293
0.04610266
0.0417441
0.03641807
0.02967437
0.02086393
0.01590122
0.01004328
0.009340487
0.01069546
0.01144146
0.01209264
0.01288359
0.01383639
0.01493656
0.01615924
0.01747771
0.01886629
0.02030093
0.02175922
0.02322055
0.02466566
0.02611862
0.02761736
0.0291232
0.03055225
0.03183487
0.03294234
0.03388349
0.03469013
0.03540368
0.03606813
0.03671694
0.03736321
0.03801357
0.03867433
0.03935142
0.04005021
0.04077552
0.04153145
0.04232207
0.04314996
0.04401607
0.04492103
0.04586433
0.04684424
0.04785773
0.04890037
0.04996641
0.05104889
0.05214482
0.05325169
0.05433652
0.05532623
0.05611836
0.05659267
0.05662154
0.05606766
0.05479589
0.05270776
0.0497974
0.04616012
0.04179139
0.03645582
0.02970287
0.0208836
0.01591589
0.01017128
0.009470243
0.01083391
0.01158555
0.01225509
0.01307357
0.01406133
0.01519718
0.01645226
0.01779761
0.01920637
0.02065406
0.02211837
0.02357885
0.02503054
0.02651013
0.02803298
0.0295314
0.03092194
0.03214922
0.03319915
0.03409006
0.03485781
0.03554426
0.03619238
0.03683158
0.03747002
0.03811429
0.0387706
0.03944472
0.04014187
0.04086668
0.04162309
0.04241499
0.04324479
0.04411325
0.04502083
0.04596685
0.04694946
0.04796548
0.04901039
0.05007837
0.05116241
0.05225991
0.05336845
0.05445298
0.05543951
0.056226
0.05669335
0.05671564
0.05615576
0.054878
0.0527827
0.04986321
0.04621547
0.04183666
0.03649169
0.02972977
0.02090239
0.01592992
0.01030595
0.009598671
0.01098334
0.01175287
0.01245139
0.0133026
0.01432724
0.01549788
0.01678253
0.01815073
0.01957505
0.02103096
0.02249644
0.02395146
0.02541617
0.02693019
0.02846588
0.02994262
0.03128474
0.03245258
0.03344501
0.03428765
0.03501942
0.03568307
0.0363181
0.03694778
0.03757875
0.03821738
0.03886968
0.03954123
0.04023706
0.0409616
0.0417186
0.0425118
0.04334343
0.04421402
0.04512389
0.04607221
0.04705699
0.04807494
0.04912145
0.05019065
0.0512755
0.05237388
0.05348345
0.05456696
0.05554955
0.05632983
0.05678996
0.0568057
0.0562401
0.05495678
0.05285476
0.04992648
0.04626859
0.0418801
0.0365263
0.02975603
0.02092101
0.01594438
0.01044364
0.009727612
0.01114672
0.01194689
0.01268268
0.01356978
0.01463122
0.01583417
0.01714436
0.01853058
0.01996537
0.0214246
0.02288673
0.02434472
0.0258343
0.0273759
0.02890907
0.03035048
0.03163704
0.03274401
0.03368089
0.03447866
0.0351779
0.03582172
0.03644554
0.03706631
0.03769036
0.03832382
0.03897251
0.0396418
0.04033653
0.04106092
0.04181854
0.04261294
0.04344616
0.04431857
0.0452303
0.04618039
0.04716671
0.04818588
0.04923325
0.05030288
0.05138775
0.05248623
0.05359611
0.05467781
0.05565576
0.05642929
0.05688199
0.05689126
0.05632026
0.05503185
0.0529236
0.04998696
0.0463192
0.04192135
0.03655907
0.0297809
0.02093903
0.01595844
0.01058243
0.009857745
0.01132459
0.01216747
0.01294742
0.01387259
0.01497043
0.01620333
0.01753544
0.01893534
0.020376
0.02183408
0.02328859
0.02475837
0.02628356
0.02784153
0.029357
0.03075209
0.03197844
0.03302484
0.03390914
0.03466591
0.0353362
0.03596232
0.03657576
0.0371882
0.03780578
0.03843446
0.03907985
0.0397471
0.04044086
0.04116513
0.04192328
0.04271868
0.04355317
0.04442695
0.04533999
0.04629121
0.04727835
0.04829798
0.04934536
0.0504146
0.05149867
0.05259646
0.05370586
0.05478497
0.05575755
0.05652389
0.05696903
0.05697198
0.05639596
0.05510294
0.05298896
0.0500444
0.04636714
0.04196029
0.03659
0.02980441
0.02095611
0.01597157
0.01072193
0.009992055
0.01152023
0.01241717
0.01324693
0.01421072
0.01534236
0.01660092
0.01794998
0.01935866
0.02080076
0.02225334
0.02370985
0.02520546
0.02676038
0.02832
0.02980394
0.03114499
0.03230922
0.03329676
0.0341319
0.03485148
0.03549603
0.03610629
0.03670998
0.03731457
0.03792607
0.03855026
0.03919255
0.03985788
0.04055067
0.04127472
0.04203318
0.04282923
0.04366454
0.04453913
0.04545282
0.04640441
0.04739155
0.04841071
0.04945719
0.05052508
0.05160757
0.0527041
0.05381219
0.05488787
0.05585442
0.05661319
0.0570508
0.05704764
0.056467
0.05516991
0.05305075
0.05009873
0.04641228
0.04199681
0.03661893
0.02982645
0.02097234
0.01598404
0.01086326
0.01013159
0.01173344
0.01269466
0.01357776
0.01457924
0.01574265
0.01702419
0.01838727
0.01980141
0.02124115
0.02268464
0.02415257
0.02568497
0.02725874
0.02880462
0.03024586
0.03152777
0.03262955
0.03356047
0.03434955
0.03503519
0.03565786
0.03625502
0.03684916
0.03744621
0.03805194
0.03867189
0.03931121
0.03997463
0.04066635
0.04138995
0.04214838
0.04294464
0.04378021
0.04465495
0.04556854
0.04651964
0.04750583
0.04852353
0.04956801
0.0506335
0.05171384
0.05280888
0.05391467
0.05498599
0.0559459
0.05669679
0.05712703
0.05711802
0.05653323
0.05523261
0.05310882
0.05014979
0.04645449
0.04203072
0.03664569
0.02984679
0.02098743
0.01599534
0.01100907
0.01027963
0.01196753
0.01300091
0.0139388
0.01497813
0.01616893
0.01746832
0.01883951
0.02025341
0.02168585
0.02313391
0.02463147
0.02619356
0.02777168
0.02929022
0.03068023
0.03190016
0.03294057
0.03381791
0.03456451
0.03521946
0.03582297