/*--------------------------------*- C++ -*----------------------------------*\
| =========                 |                                                 |
| \\      /  F ield         | OpenFOAM: The Open Source CFD Toolbox           |
|  \\    /   O peration     | Version:  2312                                  |
|   \\  /    A nd           | Website:  www.openfoam.com                      |
|    \\/     M anipulation  |                                                 |
\*---------------------------------------------------------------------------*/
FoamFile
{
    version     2.0;
    format      ascii;
    arch        "LSB;label=32;scalar=64";
    class       volScalarField;
    location    "3000";
    object      qin;
}
// * * * * * * * * * * * * * * * * * * * * * * * * * * * * * * * * * * * * * //

dimensions      [1 0 -3 0 0 0 0];

internalField   uniform 0;

boundaryField
{
    plate
    {
        type            calculated;
        value           nonuniform List<scalar> 
200
(
1832.862
1833.573
1830.089
1805.653
1767.147
1736.155
1724.831
1730.227
1742.851
1755.532
1764.46
1766.763
1760.293
1745.679
1727.373
1711.882
1704.418
1706.514
1715.922
1728.362
1739.906
1748.776
1755.559
1761.748
1767.914
1773.236
1776.632
1777.863
1777.351
1775.62
1773.656
1773.326
1776.215
1781.926
1788.426
1794.135
1798.849
1802.822
1806.164
1809.389
1813.549
1819.201
1825.664
1831.667
1836.485
1840.188
1843.102
1845.494
1847.744
1850.427
1853.927
1858.005
1861.85
1864.595
1865.849
1865.88
1865.415
1865.239
1865.809
1867.109
1868.781
1870.419
1871.809
1872.983
1874.11
1875.317
1876.552
1877.579
1878.101
1877.957
1877.243
1876.298
1875.541
1875.266
1875.521
1876.118
1876.756
1877.175
1877.264
1877.067
1876.701
1876.248
1875.682
1874.878
1873.7
1872.105
1870.221
1868.336
1866.828
1866.045
1866.203
1867.333
1869.294
1871.835
1874.673
1877.552
1880.279
1882.723
1884.801
1886.46
1887.669
1888.419
1888.727
1888.639
1888.222
1887.555
1886.72
1885.796
1884.857
1883.976
1883.221
1882.659
1882.345
1882.317
1882.589
1883.151
1883.972
1885
1886.171
1887.411
1888.643
1889.792
1890.798
1891.625
1892.278
1892.802
1893.275
1893.775
1894.351
1894.988
1895.599
1896.057
1896.251
1896.167
1895.942
1895.862
1896.288
1897.523
1899.663
1902.504
1905.564
1908.222
1909.933
1910.447
1909.903
1908.767
1907.62
1906.879
1906.612
1906.514
1906.087
1904.933
1903.016
1900.744
1898.817
1897.882
1898.145
1899.132
1899.74
1898.633
1894.877
1888.573
1881.182
1875.299
1873.837
1878.916
1890.935
1908.292
1927.928
1946.422
1961.096
1970.612
1974.928
1974.902
1971.913
1967.588
1963.406
1960.022
1956.721
1951.829
1944.462
1936.669
1933.978
1942.975
1966.878
2002.301
2040.214
2071.021
2090.014
2098.529
2099.82
2094.864
2085.571
2083.655
2109.515
2171.227
2246.695
2302.292
2335.35
2383.317
)
;
    }
    riser
    {
        type            calculated;
        value           nonuniform List<scalar> 
200
(
2584.825
2695.333
2756.853
2842.245
2943.816
3043.935
3118.603
3152.326
3139.526
3090.328
3034.565
3004.849
3012.375
3050.988
3113.9
3192.075
3272.367
3349.859
3428.2
3503.459
3561.409
3594.594
3613.729
3634.513
3657.039
3671.274
3691.449
3766.966
3925.524
4110.218
4216.653
4221.502
4201.516
4193.781
4171.492
4170.562
4268.948
4443.449
4585.739
4636.922
4627.736
4612.949
4612.666
4619.454
4629.54
4651.811
4693.706
4748.696
4799.793
4831.661
4837.982
4821.126
4788.252
4745.733
4694.916
4634.786
4569.252
4509.024
4465.603
4445.168
4447.828
4469.938
4505.658
4547.565
4588.038
4621.592
4646.425
4663.797
4675.752
4683.101
4685.11
4680.81
4670.563
4656.606
4642.217
4630.174
4621.5
4615.174
4608.84
4600.045
4587.361
4570.914
4552.195
4533.371
4516.48
4502.859
4492.963
4486.5
4482.71
4480.636
4479.306
4477.846
4475.593
4472.201
4467.736
4462.686
4457.868
4454.221
4452.564
4453.387
4456.744
4462.262
4469.261
4476.93
4484.5
4491.369
4497.173
4501.789
4505.303
4507.952
4510.058
4511.962
4513.966
4516.274
4518.963
4521.965
4525.083
4528.035
4530.494
4532.146
4532.732
4532.101
4530.259
4527.391
4523.869
4520.238
4517.156
4515.288
4515.185
4517.176
4521.297
4527.287
4534.639
4542.703
4550.82
4558.454
4565.307
4571.391
4577.057
4582.945
4589.836
4598.399
4608.869
4620.754
4632.724
4642.808
4648.955
4649.809
4645.456
4637.777
4630.137
4626.391
4629.452
4639.956
4655.614
4671.658
4682.355
4683.016
4671.572
4648.925
4617.905
4581.48
4541.372
4498.059
4452.288
4407.184
4369.273
4347.098
4347.563
4371.996
4414.53
4464.186
4509.599
4543.524
4564.196
4572.454
4566.638
4539.939
4484.197
4398.79
4297.194
4203.585
4140.062
4115.004
4122.735
4152.972
4196.003
4233.09
4227.591
4145.753
3996.407
3835.621
3716.668
3656.226
3661.531
3732.381
3803.883
3774.043
3636.8
3346.267
)
;
    }
    topAndBottom
    {
        type            calculated;
        value           nonuniform List<scalar> 
120
(
1712.462
1812.587
2033.6
2278.243
2454.773
2544.583
2583.917
2615.122
2661.544
2727.031
2803.516
2878.571
2941.903
2989.436
3023.313
3048.625
3069.775
3088.765
3105.658
3119.943
3131.568
3141.147
3149.542
3157.338
3164.562
3170.786
3175.496
3178.481
3180.045
3180.93
3182.043
3184.121
3187.496
3192.029
3197.176
3202.122
3205.923
3207.663
3206.664
3202.718
3196.258
3188.285
3179.987
3172.183
3164.94
3157.654
3149.593
3140.511
3130.881
3121.568
3113.202
3105.667
3098.091
3089.443
3079.454
3069.011
3059.306
3049.774
3039.693
3019.799
2108.048
2111.122
2115.612
2132.653
2178.471
2245.391
2304.154
2328.548
2314.758
2278.773
2240.216
2209.811
2188.812
2177.374
2183.441
2223.343
2311.888
2449.671
2618.045
2785.343
2919.831
3001.547
3027.158
3006.987
2957.744
2895.54
2831.893
2773.032
2721.27
2676.965
2639.967
2610.219
2587.72
2572.227
2563.012
2558.801
2557.907
2558.525
2559.094
2558.617
2556.805
2553.949
2550.571
2547.042
2543.378
2539.26
2534.189
2527.633
2519.168
2508.78
2497.351
2487.013
2480.824
2481.546
2490.084
2505.073
2523.4
2545.895
2564.43
2623.108
)
;
    }
    frontAndBack
    {
        type            empty;
    }
}


// ************************************************************************* //
