# Region type : patch riser
# Faces        : 200
# Area         : 6.7000000e-01
# Scale factor : 1.0000000e+00
# Time         	areaAverage(T)
1600           	3.6863328e+02
1700           	3.6864471e+02
1800           	3.6865808e+02
1900           	3.6867426e+02
2000           	3.6869164e+02
