# Region type : patch plate
# Faces        : 200
# Area         : 6.7000000e-01
# Scale factor : 1.0000000e+00
# Time         	areaAverage(T)
5200           	6.0877849e+02
5300           	6.0713326e+02
5400           	6.1041524e+02
5500           	6.0797895e+02
5600           	6.0659922e+02
5700           	6.1000229e+02
5800           	6.0756697e+02
5900           	6.0626807e+02
