/*--------------------------------*- C++ -*----------------------------------*\
| =========                 |                                                 |
| \\      /  F ield         | OpenFOAM: The Open Source CFD Toolbox           |
|  \\    /   O peration     | Version:  2312                                  |
|   \\  /    A nd           | Website:  www.openfoam.com                      |
|    \\/     M anipulation  |                                                 |
\*---------------------------------------------------------------------------*/
FoamFile
{
    version     2.0;
    format      ascii;
    arch        "LSB;label=32;scalar=64";
    class       volScalarField;
    location    "3450";
    object      alphat;
}
// * * * * * * * * * * * * * * * * * * * * * * * * * * * * * * * * * * * * * //

dimensions      [1 -1 -1 0 0 0 0];

internalField   nonuniform List<scalar> 
12000
(
4.143681e-05
0.0001573115
0.0001646329
0.0001759059
0.0001947237
0.0002129118
0.0002042298
0.0001815525
0.000178521
0.0002003227
0.0002162144
0.0001953534
0.0001711935
0.000175351
0.00020131
0.0002044945
0.0001775334
0.0001663409
0.0001801671
0.0001941441
0.0001819305
0.0001673117
0.0001691553
0.0001794018
0.0001796844
0.000170374
0.0001652425
0.0001688092
0.0001740039
0.0001713432
0.0001656158
0.0001640116
0.0001638341
0.0001677796
0.0001731726
0.0001690753
0.0001556365
0.0001491256
0.0001626843
0.0001859556
0.0001744645
0.0001424443
0.0001352857
0.0001674635
0.0002308452
0.0001798158
0.0001162987
0.0001150287
0.0001944544
0.0003000461
0.0001311525
9.573249e-05
0.0001383364
0.0002230703
0.0001407974
9.23035e-05
9.672607e-05
8.96493e-05
7.975218e-05
6.429872e-05
2.552993e-05
0.0002002907
0.0002367169
0.00028147
0.0003187616
0.0003660673
0.0004128223
0.000472861
0.0005408686
0.0005978463
0.0006551422
0.000720971
0.0008053121
0.0008823517
0.0009388059
0.0009953513
0.001077751
0.001166855
0.001231953
0.001280944
0.001349208
0.001434218
0.001505415
0.001553199
0.001602516
0.001666407
0.001730192
0.001775448
0.001805502
0.001839743
0.001882722
0.001916893
0.001934961
0.00194643
0.001947026
0.001957159
0.001969196
0.001972485
0.001947089
0.001904721
0.00187692
0.001866762
0.001833916
0.001754806
0.001664586
0.001270662
0.001338282
0.001487631
0.001343041
0.001225068
0.0008130019
0.001042054
0.0008927731
0.000760628
0.0005806105
0.0004948635
0.0003456913
0.000214071
0.0001132572
5.76538e-05
3.015458e-05
0.0002831164
0.0003653724
0.0004448822
0.0005510364
0.0006636038
0.0007886343
0.0009201562
0.001061398
0.001202667
0.001337516
0.001476271
0.001616312
0.001749329
0.001873504
0.001993156
0.002111069
0.0022226
0.002323662
0.002417437
0.002507556
0.002592357
0.002668765
0.002737257
0.002800462
0.002858764
0.002910934
0.002956416
0.002996312
0.00303188
0.003063305
0.003088466
0.003111841
0.003129882
0.003143535
0.003153026
0.003158004
0.003158781
0.003154608
0.003145093
0.003129596
0.003109387
0.003083266
0.003050495
0.002984579
0.002923751
0.002879106
0.002788842
0.002486157
0.00236359
0.002383094
0.002090457
0.001761182
0.001498413
0.001298121
0.001104472
0.0008676901
0.0004964647
0.0001863126
5.726102e-05
2.943121e-05
0.0003057256
0.000445668
0.0005735683
0.0007371934
0.0009153588
0.001105709
0.001302667
0.001502268
0.001705722
0.001902231
0.0020884
0.002264302
0.002426373
0.00257752
0.002718335
0.0028491
0.002970148
0.00308193
0.003184751
0.003279382
0.003366006
0.003445162
0.003517138
0.003582233
0.003640616
0.003692485
0.003738039
0.003777379
0.003810467
0.003836071
0.003856857
0.0038721
0.003881337
0.003884042
0.003880165
0.003869867
0.003853141
0.003829565
0.003798465
0.003759184
0.003709538
0.003649724
0.003580367
0.003500007
0.003407177
0.003299091
0.003178294
0.00304029
0.002883917
0.002710771
0.002388733
0.001997216
0.00177141
0.001646085
0.001388955
0.001024983
0.0006368704
0.0002686131
5.660566e-05
2.922984e-05
0.000331158
0.0005265002
0.0007009629
0.0009121475
0.001140487
0.001378427
0.001619074
0.001855629
0.002083886
0.002302924
0.0025094
0.002705332
0.002885757
0.003051574
0.003206596
0.003352763
0.003487614
0.00360938
0.003720288
0.003822031
0.003915237
0.004000509
0.004077993
0.004147927
0.004210611
0.004266325
0.004315283
0.004357624
0.004391576
0.004420502
0.00444299
0.004459477
0.004469535
0.004472708
0.004468734
0.004457976
0.004440204
0.004415097
0.004383361
0.004343788
0.004295443
0.004237605
0.0041705
0.004092724
0.004003059
0.003899809
0.003780867
0.003644232
0.003488667
0.003185944
0.003050133
0.002822253
0.002518736
0.002180392
0.00177675
0.001316002
0.0008101812
0.0003281279
5.617746e-05
2.963797e-05
0.0003457175
0.0005914499
0.0008047334
0.001050522
0.001313173
0.001581744
0.001848038
0.002106005
0.002352751
0.002588762
0.002815553
0.003026202
0.003221451
0.003399579
0.003560695
0.003705418
0.003837782
0.003963043
0.004080517
0.0041905
0.004292879
0.004387769
0.004475284
0.004555524
0.004628549
0.004694352
0.00475285
0.004802435
0.004846713
0.004882958
0.004911186
0.004931415
0.004943729
0.004947845
0.004943004
0.00492988
0.004908387
0.004877879
0.004836511
0.004784927
0.004723294
0.004650861
0.004566765
0.004469588
0.004358432
0.004231818
0.004088856
0.003924658
0.003741778
0.003528708
0.003282471
0.003001662
0.002678953
0.002306601
0.001886981
0.00141455
0.000896465
0.0003831053
5.592773e-05
2.998528e-05
0.000351816
0.0006427124
0.0008871386
0.001153455
0.001434038
0.001720211
0.002005444
0.002283866
0.00254722
0.002793446
0.003019343
0.003230646
0.003427944
0.003611543
0.003780495
0.003935922
0.004080256
0.004215703
0.004343434
0.004464111
0.004578001
0.004685156
0.004785502
0.004878892
0.004965114
0.0050439
0.005112156
0.005176083
0.005231
0.005276896
0.005313613
0.005340854
0.005358829
0.005367331
0.005366045
0.005354032
0.005330816
0.005296749
0.005251871
0.005195812
0.005128185
0.005048491
0.004956088
0.004850276
0.004730067
0.004594692
0.004442593
0.004267771
0.004069579
0.003842034
0.003580649
0.00328116
0.002940807
0.002552391
0.002099311
0.001579561
0.001002399
0.0004271743
5.581782e-05
3.11439e-05
0.0003517172
0.0006781023
0.0009479061
0.001230882
0.001527358
0.001826608
0.002119669
0.002400147
0.002666933
0.002916985
0.003149513
0.003365774
0.003566921
0.003755305
0.003932556
0.004099029
0.004255671
0.004403788
0.004544553
0.004678721
0.004806638
0.004928323
0.005043568
0.005152011
0.005253184
0.005346549
0.005430399
0.00550715
0.005574317
0.005631443
0.005678051
0.005714053
0.00573885
0.005751823
0.005752682
0.005741355
0.005717482
0.005680755
0.00563086
0.005567433
0.005490049
0.005398203
0.005291299
0.005168584
0.005029304
0.004872266
0.004695513
0.004497075
0.004275023
0.00402566
0.00374571
0.003428549
0.003065756
0.002650469
0.002178236
0.001644941
0.001055643
0.0004614804
5.554472e-05
3.208285e-05
0.0003475632
0.0007008047
0.0009951487
0.001288386
0.001589139
0.001890731
0.002185706
0.002469088
0.002738312
0.002991733
0.003229085
0.003451159
0.003659235
0.003854905
0.004040403
0.00421758
0.004387145
0.004549668
0.004705694
0.004855664
0.004999768
0.005137903
0.00526971
0.005394639
0.005512015
0.005619465
0.005719527
0.005809848
0.005889431
0.005957538
0.006013614
0.006057557
0.006088636
0.006106251
0.006109938
0.006099317
0.006074038
0.006033772
0.005978192
0.005906961
0.005819706
0.005716005
0.005595363
0.005457148
0.005300586
0.005124628
0.004928112
0.004707709
0.004464277
0.004197955
0.003902987
0.003574242
0.003203926
0.002780694
0.002292507
0.001735028
0.001115678
0.0004898635
5.559571e-05
3.296703e-05
0.0003415889
0.0007134925
0.001026999
0.001327521
0.001629474
0.001930494
0.002225245
0.002509382
0.00278028
0.003036745
0.003278803
0.003507292
0.003723472
0.003928753
0.004124644
0.004312798
0.004494757
0.004671304
0.004842724
0.005009139
0.00517035
0.005325762
0.005474604
0.005616003
0.00574898
0.005870918
0.005983999
0.006085969
0.00617674
0.006255184
0.006320355
0.006371483
0.006407797
0.006428674
0.006433595
0.006422118
0.006393857
0.006348466
0.006285621
0.006205007
0.006106309
0.00598921
0.005853393
0.005698613
0.005524576
0.005329323
0.00511279
0.004874162
0.00461413
0.004328803
0.004016062
0.003670561
0.003283563
0.002843612
0.002341773
0.001775019
0.001147586
0.0005103173
5.532603e-05
3.391993e-05
0.0003320233
0.0007158635
0.001046778
0.001354322
0.001657008
0.001956062
0.002248172
0.00253032
0.002800711
0.003058717
0.003304569
0.003539092
0.003763474
0.003979103
0.004187324
0.004389257
0.004585351
0.004776017
0.004961208
0.005140102
0.00531359
0.005482403
0.005645358
0.005801286
0.005949026
0.006086639
0.006214797
0.00633099
0.006433416
0.006521334
0.006594032
0.006650908
0.006691097
0.006713903
0.006718767
0.006705233
0.006672923
0.006621507
0.006550694
0.006460213
0.006349812
0.006219255
0.006068322
0.005896826
0.005704505
0.005492619
0.005259426
0.004946782
0.004527595
0.00419007
0.003945807
0.00372607
0.003345697
0.002902984
0.002397877
0.001820857
0.001178941
0.0005264662
5.538155e-05
3.495179e-05
0.0003204985
0.0007106742
0.001053869
0.001365887
0.001667067
0.001962582
0.002251711
0.002532769
0.002804384
0.003065779
0.003316978
0.003558598
0.003791369
0.004015872
0.004232397
0.00444269
0.004648229
0.004849966
0.005048507
0.005244267
0.005435594
0.005620626
0.005798812
0.005969135
0.006130353
0.006280778
0.006419652
0.006545199
0.006656043
0.006750981
0.00682896
0.006889023
0.006930541
0.006953002
0.006955936
0.006938937
0.006901664
0.006843834
0.006765219
0.00666564
0.00654495
0.006403022
0.006239721
0.006054832
0.005848068
0.005619642
0.00517612
0.004736595
0.004370213
0.004090776
0.003882364
0.003691703
0.003385425
0.002939522
0.002426832
0.001843691
0.001196373
0.0005371528
5.518498e-05
3.587467e-05
0.0003084941
0.0006985526
0.00105259
0.001370619
0.001672119
0.001965111
0.002251155
0.002529575
0.002799497
0.003060545
0.003312704
0.003555487
0.003726975
0.003865055
0.004029649
0.004229723
0.004458088
0.00469897
0.004984922
0.005292592
0.005543248
0.005740928
0.005931722
0.006114017
0.006286232
0.006446852
0.006594443
0.006727537
0.006844783
0.006944974
0.007027068
0.007090187
0.007133513
0.00715635
0.007158131
0.0071384
0.007096799
0.00703305
0.006946953
0.00683837
0.006707226
0.006553501
0.006377226
0.006178433
0.00582594
0.005396394
0.00499446
0.004619578
0.004286354
0.004017419
0.003812404
0.003650287
0.003415335
0.002968338
0.002453515
0.0018659
0.001211843
0.000545621
5.519262e-05
3.662208e-05
0.0002993831
0.0006864257
0.001048377
0.001370977
0.001672605
0.00196305
0.002245523
0.002520506
0.002787805
0.003047078
0.00329749
0.003475528
0.003618659
0.003777616
0.003937038
0.004107491
0.004297886
0.004535865
0.004795278
0.00506921
0.005347853
0.005648597
0.005967105
0.006225219
0.006406536
0.006575784
0.006731342
0.006871339
0.00699453
0.007099605
0.007185405
0.007250928
0.007295308
0.007317809
0.007317842
0.00729495
0.0072488
0.007179166
0.007085918
0.006969019
0.006828514
0.006664511
0.006477424
0.006076351
0.005648218
0.005229707
0.004849466
0.004506242
0.004205922
0.003953853
0.003764052
0.00361626
0.003423151
0.002985298
0.002468307
0.001877356
0.00122012
0.0005503189
5.506651e-05
3.722956e-05
0.0002904146
0.000671015
0.001036403
0.001364041
0.001666773
0.001955339
0.002234594
0.002506236
0.00277061
0.003027442
0.003269936
0.003436703
0.003600325
0.003753684
0.003904
0.00406112
0.00423675
0.004430456
0.004655874
0.004901777
0.005159372
0.005430219
0.005721138
0.00603561
0.006366676
0.006673082
0.006835283
0.006981238
0.007109494
0.007218611
0.007307373
0.007374707
0.00741972
0.007441649
0.007439879
0.007413984
0.007363675
0.007288796
0.007189301
0.00706524
0.00691684
0.006658312
0.006302499
0.005919616
0.005527299
0.005139375
0.004765126
0.004423671
0.004135047
0.003904308
0.003726441
0.003576818
0.003399
0.002997476
0.002479713
0.001887357
0.001227142
0.00055411
5.501847e-05
3.77318e-05
0.0002821842
0.0006555115
0.001023483
0.001353601
0.001657062
0.001944047
0.002220257
0.00248832
0.002749266
0.00300337
0.00325059
0.003448903
0.00359432
0.003733928
0.003896606
0.004063879
0.004244998
0.004430624
0.004637647
0.00485327
0.005078728
0.005319001
0.005579169
0.005858584
0.006151841
0.006449121
0.006737012
0.006998545
0.007192901
0.007305531
0.007396907
0.007465826
0.007511345
0.007532701
0.007529285
0.007500716
0.007446776
0.007367401
0.00726269
0.007086149
0.006826298
0.00652262
0.006180893
0.005809366
0.005427364
0.005056049
0.004708084
0.004388451
0.004098998
0.003855355
0.00367348
0.003546266
0.003391227
0.003004898
0.002486531
0.001892443
0.00123022
0.0005552755
5.495833e-05
3.81068e-05
0.0002744414
0.0006395542
0.001007521
0.001340252
0.001644363
0.001929984
0.002203467
0.002468234
0.002725995
0.002977575
0.003223377
0.003449924
0.003610111
0.003758684
0.003908167
0.004076378
0.00426265
0.004462772
0.004651828
0.004844748
0.005045571
0.005261334
0.005499989
0.005764899
0.006050033
0.006338714
0.006612312
0.006858352
0.007071468
0.007252142
0.007405343
0.007529318
0.007575314
0.007589322
0.007567405
0.007522452
0.007449039
0.007339359
0.00718735
0.006987456
0.006734619
0.006430099
0.006085179
0.005717915
0.005346783
0.004986617
0.004647757
0.004337105
0.004062263
0.003831833
0.00365139
0.003515594
0.003362155
0.003010115
0.002491999
0.001896981
0.001233589
0.0005567681
5.490294e-05
3.839284e-05
0.0002684168
0.0006250793
0.0009909112
0.001323901
0.001628944
0.001913693
0.002184936
0.002446806
0.002701664
0.002950852
0.00319517
0.003435466
0.003641377
0.003798402
0.003958986
0.004137674
0.004321989
0.004508663
0.004692027
0.004873335
0.005054837
0.005246871
0.005461268
0.005705077
0.005975927
0.006260817
0.006539199
0.006789578
0.006998406
0.007170095
0.007331114
0.007531877
0.007601104
0.007527878
0.007488313
0.00744992
0.007388235
0.007287698
0.00713787
0.00693226
0.006670676
0.006360627
0.006015515
0.005652082
0.005287577
0.004935926
0.004605682
0.004300928
0.004027501
0.003796142
0.003619161
0.003491339
0.003349222
0.003011405
0.002493023
0.001897721
0.001233682
0.0005566387
5.485604e-05
3.86064e-05
0.0002632515
0.0006114301
0.0009738729
0.001307397
0.001611964
0.001895692
0.002165052
0.002424543
0.002677054
0.002924463
0.003168105
0.003409136
0.003648229
0.003874158
0.004042622
0.004213022
0.00440155
0.004592946
0.004777185
0.004944023
0.005104801
0.005272833
0.005464019
0.00568902
0.005947539
0.006226838
0.006505164
0.006758778
0.006970723
0.007140899
0.007297057
0.007507128
0.007625395
0.007556675
0.0074792
0.007430434
0.007369679
0.007270361
0.007118075
0.006907154
0.006639235
0.006323256
0.005974359
0.005610668
0.005249111
0.00490225
0.004577451
0.004278299
0.004010139
0.003782485
0.003606257
0.003477441
0.003337824
0.003013
0.002494528
0.001898592
0.001234538
0.0005571909
5.481903e-05
3.875872e-05
0.0002597368
0.000599899
0.0009578215
0.001289912
0.001594051
0.001876792
0.002144533
0.002402041
0.002652614
0.002898533
0.003141457
0.003382665
0.003623769
0.003866005
0.004108601
0.004335006
0.004518723
0.004701221
0.00487924
0.005041413
0.005186545
0.00533064
0.005496516
0.005700755
0.005946425
0.006221529
0.006502877
0.006764262
0.006986759
0.007167297
0.007320731
0.007471953
0.007630379
0.007628686
0.007513659
0.007447339
0.007379695
0.00727685
0.007119689
0.006901114
0.00662408
0.00629988
0.005945472
0.005579623
0.005218868
0.004874765
0.004553485
0.004257594
0.003991784
0.003766214
0.003592446
0.003467081
0.003332193
0.003012837
0.002494205
0.001898034
0.001233783
0.000556543
5.476726e-05
3.888119e-05
0.0002570826
0.0005899892
0.0009422819
0.001272073
0.001575259
0.001857049
0.002123484
0.002379441
0.002628518
0.00287334
0.003115878
0.003357685
0.003600044
0.003843788
0.004090591
0.004340199
0.004590745
0.004839318
0.005013552
0.005161727
0.005289235
0.005410117
0.00554962
0.005731273
0.005962562
0.006232396
0.006515861
0.006783601
0.007013176
0.007198454
0.007351975
0.007496815
0.007653324
0.007665247
0.007555054
0.00748044
0.007403376
0.00729306
0.007129101
0.006903058
0.006617967
0.006286299
0.005926367
0.005557688
0.005196672
0.004854161
0.00453549
0.004242571
0.003979465
0.003756065
0.003583575
0.003458916
0.003325801
0.003012466
0.002493619
0.001897402
0.001233308
0.0005563978
5.474897e-05
3.899804e-05
0.0002554399
0.0005813066
0.0009281755
0.00125507
0.001556765
0.001837421
0.002102661
0.002357366
0.002605339
0.002849474
0.003091994
0.003334633
0.003578732
0.003825246
0.004074767
0.00432706
0.004582696
0.004840129
0.005096454
0.005305541
0.005419014
0.005508622
0.0056159
0.005770982
0.005985559
0.006249091
0.006534526
0.006808904
0.007045576
0.007234031
0.007383432
0.007518565
0.007672103
0.007695538
0.007592916
0.007514022
0.007429656
0.007312396
0.0071418
0.006908649
0.006616015
0.006277322
0.00591204
0.005540353
0.005178616
0.004837084
0.004520342
0.004229712
0.003968841
0.00374747
0.003576863
0.003454126
0.003323151
0.003011818
0.00249272
0.001896194
0.001232053
0.0005555382
5.469585e-05
3.909393e-05
0.0002549238
0.0005742244
0.0009150037
0.001238482
0.001538377
0.001817869
0.002082126
0.002335963
0.002583322
0.002827308
0.003070351
0.003314333
0.003560657
0.003810252
0.004063542
0.004320374
0.004580111
0.004841268
0.005102851
0.005362612
0.005565452
0.005641165
0.005709434
0.00582874
0.006020746
0.006274966
0.006560755
0.006840546
0.007083265
0.007274586
0.007420951
0.007546923
0.007689065
0.007718965
0.007628744
0.007548182
0.007457812
0.007334224
0.007157386
0.006917591
0.006617951
0.006272667
0.005902211
0.005527402
0.00516461
0.004823626
0.004508411
0.004219771
0.003960933
0.003741348
0.003572117
0.00345035
0.003320317
0.003010871
0.00249155
0.0018949
0.001230949
0.0005551121
5.468915e-05
3.922495e-05
0.0002553295
0.0005689362
0.0009038193
0.001223475
0.001521149
0.001799287
0.002062644
0.002315929
0.00256316
0.002807597
0.003051827
0.003297842
0.003547082
0.003800431
0.004058192
0.004320064
0.004585166
0.00485205
0.005118855
0.005383161
0.005642263
0.005788785
0.00583308
0.005912021
0.006074409
0.006314665
0.006598291
0.006881932
0.007129347
0.007322006
0.00746306
0.007576358
0.00770309
0.007736164
0.007665959
0.007579157
0.007484485
0.007356514
0.007174448
0.006928477
0.006622153
0.006270551
0.005895089
0.005517171
0.005153189
0.004812515
0.004498532
0.004211585
0.003954556
0.0037367
0.003569051
0.003448689
0.003319711
0.003010322
0.002490617
0.001893649
0.00122965
0.0005542152
5.464231e-05
3.933834e-05
0.0002560577
0.0005643009
0.0008932054
0.001209068
0.001504548
0.00178147
0.002044238
0.00229746
0.002545209
0.002790866
0.003037129
0.003286058
0.003539085
0.003797006
0.004059967
0.004327455
0.004598356
0.004871003
0.005143276
0.00541268
0.005676525
0.005922986
0.005962151
0.006008073
0.006140965
0.006365141
0.006644214
0.006929576
0.007180492
0.007375816
0.007515756
0.007615198
0.0076914
0.007749151
0.007719157
0.007610576
0.007509183
0.007378111
0.00719221
0.006940925
0.006628421
0.006270806
0.005890492
0.005509472
0.005144184
0.004803622
0.004490642
0.004205152
0.003949728
0.003733426
0.003567164
0.003447881
0.003319442
0.003010002
0.002489751
0.001892445
0.001228519
0.0005536723
5.464378e-05
3.946735e-05
0.0002575777
0.0005615435
0.0008852041
0.001196824
0.001489825
0.001765484
0.002027883
0.002281514
0.002530462
0.002778175
0.003027407
0.003280222
0.003537982
0.003801338
0.004070222
0.004343875
0.004620921
0.004899447
0.005177102
0.005451158
0.00571891
0.005977465
0.006090197
0.006121852
0.006225448
0.00643093
0.006703032
0.006987365
0.007238007
0.007431037
0.007565345
0.007654425
0.007715181
0.007763626
0.007739327
0.007640062
0.007538138
0.007403262
0.007212535
0.006955674
0.006637052
0.006273484
0.005888282
0.00550405
0.005137292
0.004796639
0.004484448
0.004200224
0.003946283
0.003731518
0.003566774
0.0034488
0.003320842
0.003009673
0.002488901
0.001891284
0.00122737
0.0005528615
5.46061e-05
3.962848e-05
0.0002591613
0.0005590388
0.000877282
0.001185271
0.001476078
0.001750821
0.002013362
0.002268095
0.002519104
0.002769854
0.003023101
0.003280848
0.003544323
0.003813972
0.004089467
0.004369756
0.004653159
0.004937491
0.005220191
0.005498665
0.005769863
0.006030941
0.00620638
0.006233043
0.006316665
0.006507129
0.006771881
0.007052887
0.007300345
0.00748825
0.007614386
0.007691672
0.007740373
0.007779783
0.007758508
0.00766764
0.007566915
0.007429719
0.007234828
0.006972569
0.006647803
0.006278176
0.005887984
0.005500484
0.005132244
0.004791476
0.004479987
0.00419688
0.00394423
0.003730798
0.003567379
0.003450469
0.003322625
0.003009574
0.002488403
0.001890375
0.001226372
0.0005523685
5.4613e-05
3.979863e-05
0.0002613442
0.0005547712
0.0008714399
0.001175859
0.001464653
0.001738766
0.002001921
0.00225844
0.002512372
0.002767155
0.003025472
0.003289192
0.003559339
0.00383609
0.00411881
0.00440612
0.004696072
0.004986282
0.005273666
0.005555766
0.005829605
0.006092351
0.006309258
0.006338139
0.006412406
0.006594468
0.006853726
0.007129775
0.007370711
0.007550428
0.00766793
0.007736622
0.007773858
0.007797674
0.00777322
0.007695239
0.007597842
0.007459078
0.007260181
0.006992382
0.006661166
0.006285174
0.005889813
0.005498976
0.005129127
0.004787848
0.004476594
0.004194356
0.003942993
0.003730978
0.003568953
0.003453185
0.003325517
0.003009776
0.002487929
0.00188963
0.001225535
0.0005516893
5.45853e-05
4.002291e-05
0.0002632962
0.0005447087
0.0008663857
0.001167216
0.001454351
0.001728432
0.001992993
0.002252257
0.002510204
0.002770185
0.003034741
0.003305527
0.003583282
0.003867841
0.004158209
0.004452669
0.004748985
0.005044072
0.005335981
0.005621244
0.005897001
0.006160524
0.006397494
0.006433174
0.006508275
0.006689559
0.006946324
0.007216435
0.007447471
0.007615342
0.007722254
0.007782523
0.00781059
0.007817233
0.007789489
0.007723236
0.007628534
0.007488715
0.007286487
0.007013384
0.006675589
0.006292957
0.005892128
0.00549775
0.005126496
0.004785226
0.004474885
0.004193695
0.003943373
0.003732426
0.003571768
0.003457105
0.0033292
0.003010671
0.002488118
0.001889271
0.001224877
0.0005512226
5.459519e-05
4.021737e-05
0.0002656766
0.0005372785
0.0008634492
0.001161098
0.001446943
0.00172154
0.001988265
0.002251214
0.002514248
0.00278056
0.003052464
0.003331311
0.00361747
0.003910371
0.004208613
0.00451015
0.004811882
0.005112148
0.005407461
0.005694874
0.005971561
0.006234906
0.00648261
0.006525897
0.00660759
0.006793101
0.00704892
0.007311548
0.007529798
0.00768282
0.007774189
0.007822008
0.007843324
0.007838287
0.007807216
0.007750543
0.007658813
0.007518958
0.007314376
0.007036356
0.006692077
0.006302955
0.005897258
0.005500843
0.005128943
0.004786441
0.004474316
0.004193676
0.003945067
0.003736117
0.003576436
0.003461708
0.003333683
0.003011945
0.002488602
0.001889183
0.001224374
0.0005507726
5.458032e-05
4.045592e-05
0.0002678841
0.0005304236
0.000860506
0.001155635
0.001440784
0.00171666
0.001986521
0.002254305
0.002523676
0.002797571
0.003077977
0.003365845
0.003661095
0.003962713
0.004268822
0.004576398
0.004884177
0.005188541
0.005486512
0.005775182
0.006051827
0.006313972
0.00655281
0.006604642
0.00670165
0.006898757
0.007156403
0.00740977
0.007610974
0.007740237
0.007809451
0.007852554
0.00786959
0.007860754
0.007826376
0.007766887
0.007682782
0.007547616
0.007342489
0.007060213
0.006709614
0.006314084
0.005903013
0.005501497
0.005125366
0.004783128
0.004475022
0.004196105
0.003947948
0.003739131
0.003580623
0.003468043
0.003339058
0.003013598
0.00248938
0.001889179
0.00122407
0.0005503868
5.458268e-05
4.068673e-05
0.0002703366
0.0005257088
0.0008591493
0.001152289
0.001437879
0.001716119
0.001990239
0.002264024
0.002540903
0.002823477
0.003113297
0.003410796
0.003715363
0.004024973
0.004337923
0.004652524
0.00496512
0.005272737
0.005572423
0.005861372
0.006137005
0.006397031
0.006615673
0.006679809
0.006797328
0.007007832
0.007265371
0.007507371
0.007689118
0.007781985
0.007846036
0.007884439
0.007897227
0.00788463
0.007846987
0.007784716
0.007698289
0.007580439
0.00737495
0.007087031
0.006728854
0.006325294
0.005907167
0.005501192
0.005125017
0.004784372
0.00447728
0.004199145
0.00395176
0.003743581
0.003584879
0.003471021
0.003341434
0.00301545
0.002490437
0.001889545
0.001223994
0.0005501351
5.45809e-05
4.092461e-05
0.0002725135
0.0005198642
0.0008568506
0.001150738
0.001436656
0.001717856
0.001997239
0.002278279
0.002563998
0.002856495
0.003156745
0.00346434
0.003777437
0.004095732
0.004416458
0.004736626
0.005053218
0.005363212
0.005663715
0.005952056
0.006225835
0.006482964
0.006669885
0.006746248
0.006895037
0.00713039
0.007391558
0.007612299
0.007740711
0.007824865
0.007883848
0.007917604
0.007926242
0.007909973
0.007869139
0.007804153
0.007715451
0.007603497
0.007403697
0.007113238
0.006748157
0.006337774
0.005914797
0.00550654
0.005129191
0.004788324
0.004480523
0.004202599
0.003955274
0.003747061
0.003589131
0.00347694
0.003348114
0.003017858
0.002491858
0.001890118
0.001223868
0.0005498676
5.458354e-05
4.117568e-05
0.00027476
0.0005172278
0.0008516309
0.001150381
0.001438644
0.001724489
0.002010726
0.002300464
0.002596191
0.002899146
0.00320902
0.003525971
0.003849303
0.00417592
0.004503201
0.004828192
0.005147863
0.005459264
0.005759638
0.006046496
0.00631765
0.006571236
0.006723124
0.006824216
0.007003769
0.007255834
0.007510753
0.007686591
0.007790009
0.007868805
0.007922819
0.007952044
0.007956611
0.007936766
0.007892825
0.007825156
0.007734191
0.007620358
0.00743047
0.007137166
0.006765043
0.006348
0.005920723
0.005510208
0.005132277
0.004791238
0.004484419
0.004207303
0.003960589
0.003752838
0.003595009
0.003482441
0.003352529
0.003020602
0.002493703
0.001891109
0.001224129
0.0005497818
5.458786e-05
4.139107e-05
0.0002770897
0.0005135031
0.0008440848
0.001152827
0.00144441
0.001735812
0.002030009
0.002329378
0.002635295
0.002948026
0.003269198
0.003596951
0.00392925
0.004263438
0.00459656
0.004925566
0.005247454
0.00555939
0.005858796
0.006143398
0.00641121
0.006660711
0.006770606
0.006901516
0.007116644
0.007375938
0.007611863
0.007742325
0.007840168
0.007913723
0.007962889
0.007987703
0.007988314
0.00796497
0.007917987
0.007847723
0.007754557
0.007638865
0.007459664
0.007163538
0.006784702
0.006361154
0.005929307
0.005516607
0.005137989
0.004796907
0.004489969
0.004212663
0.003965688
0.003757771
0.003600168
0.003488262
0.003358478
0.003023685
0.0024958
0.001892312
0.001224579
0.000549742
5.459472e-05
4.164734e-05
0.0002793539
0.0005111994
0.0008371574
0.001156567
0.001451597
0.00174995
0.002052609
0.002361566
0.002678608
0.003004472
0.003337352
0.003675563
0.004016687
0.004357854
0.004696002
0.005028084
0.005351193
0.005662657
0.005960095
0.006241457
0.006504981
0.006700147
0.006799523
0.006968779
0.007218026
0.007484854
0.007682519
0.007798644
0.00789102
0.007959468
0.008003932
0.008024471
0.008021247
0.007994504
0.00794454
0.007871683
0.007776285
0.007658692
0.007487529
0.007189087
0.006804066
0.006374541
0.005938516
0.00552361
0.005144185
0.004803008
0.00449615
0.004218807
0.003971648
0.00376354
0.003605855
0.0034939
0.003363653
0.003026965
0.002498118
0.001893734
0.001225229
0.0005498994
5.460137e-05
4.189289e-05
0.0002813093
0.0005092569
0.0008303839
0.00116226
0.001462094
0.001767702
0.002080526
0.002401699
0.002731483
0.003069288
0.003413402
0.003761471
0.004110676
0.004457944
0.004800159
0.00513434
0.005457726
0.00576785
0.006062577
0.006340046
0.006598919
0.00671474
0.006842939
0.00706141
0.007338145
0.007597044
0.007744631
0.007855195
0.007942307
0.008005845
0.008045793
0.008062232
0.008055328
0.008025321
0.00797249
0.007897138
0.007799584
0.007680139
0.007514426
0.007213047
0.006822225
0.006387293
0.005947571
0.005530823
0.005150871
0.004809728
0.004502896
0.004225335
0.003977753
0.003769223
0.003611355
0.003499521
0.003369156
0.003030522
0.002500668
0.001895321
0.001225966
0.0005500594
5.460604e-05
4.213692e-05
0.0002832979
0.0005079451
0.0008251813
0.001170055
0.001475975
0.001790558
0.002114563
0.002448199
0.0027908
0.003140826
0.003495956
0.003853351
0.004209887
0.004562367
0.004907694
0.005243008
0.005565739
0.00587365
0.00616485
0.006437677
0.006625748
0.006726522
0.006904198
0.007169198
0.007458517
0.007678589
0.00780674
0.007911927
0.007993974
0.008052803
0.008088425
0.008100937
0.008090503
0.008057356
0.008001755
0.007923975
0.007824302
0.007703012
0.007541944
0.007237282
0.006840836
0.006400802
0.005957594
0.005539064
0.005158525
0.004817285
0.004510314
0.004232347
0.003984151
0.003775019
0.003616794
0.003504905
0.003374364
0.00303419
0.002503321
0.001897007
0.001226784
0.0005502553
5.461446e-05
4.237412e-05
0.0002851528
0.0005072867
0.0008211662
0.001179906
0.001493166
0.001817912
0.002154046
0.002500765
0.002856406
0.003218558
0.003584269
0.003950289
0.004313286
0.004670027
0.005017508
0.005353045
0.0056743
0.005979305
0.00626645
0.00653443
0.006617454
0.006749146
0.00698526
0.00728908
0.007578484
0.007746009
0.007868746
0.00796878
0.008045982
0.008100311
0.008131799
0.008140549
0.008126726
0.008090549
0.008032258
0.007952102
0.007850335
0.007727197
0.007569679
0.007261371
0.006859422
0.006414554
0.005968112
0.00554798
0.005166919
0.004825532
0.004518285
0.004239739
0.003990762
0.003780902
0.003622277
0.003510404
0.003379821
0.003038064
0.002506167
0.001898856
0.001227718
0.0005504926
5.461865e-05
4.259624e-05
0.0002871281
0.0005069923
0.000818338
0.001192007
0.001513703
0.001849608
0.002198625
0.00255883
0.002927524
0.003301468
0.003677142
0.004050968
0.004419495
0.004779523
0.005128194
0.00546303
0.005781934
0.006083176
0.006365368
0.006512388
0.006607407
0.006797549
0.007088178
0.00741318
0.007673276
0.007813098
0.007930639
0.008025741
0.008098316
0.008148346
0.008175879
0.008181024
0.00816394
0.008124831
0.008063922
0.007981431
0.007877585
0.007752593
0.007597243
0.007285043
0.00687782
0.006428457
0.005979086
0.005557538
0.005175989
0.004834362
0.004526682
0.004247386
0.003997474
0.003786757
0.003627603
0.003515606
0.003384929
0.003042002
0.002509069
0.001900748
0.001228692
0.000550794
5.462511e-05
4.282587e-05
0.0002890672
0.0005074185
0.0008167136
0.001206288
0.001537405
0.001885361
0.002247871
0.002621789
0.003003375
0.003388622
0.003773526
0.004154278
0.004527386
0.004889748
0.005238693
0.005571977
0.005887754
0.006184547
0.006404726
0.006473395
0.006611377