/*--------------------------------*- C++ -*----------------------------------*\
| =========                 |                                                 |
| \\      /  F ield         | OpenFOAM: The Open Source CFD Toolbox           |
|  \\    /   O peration     | Version:  2312                                  |
|   \\  /    A nd           | Website:  www.openfoam.com                      |
|    \\/     M anipulation  |                                                 |
\*---------------------------------------------------------------------------*/
FoamFile
{
    version     2.0;
    format      ascii;
    arch        "LSB;label=32;scalar=64";
    class       volScalarField;
    location    "3450";
    object      G;
}
// * * * * * * * * * * * * * * * * * * * * * * * * * * * * * * * * * * * * * //

dimensions      [1 0 -3 0 0 0 0];

internalField   nonuniform List<scalar> 
12000
(
15185.04
14028.1
13544.11
13273.28
13073.48
12888.36
12721.57
12593.04
12509.74
12462.96
12438.81
12424.92
12411.45
12390.92
12359.03
12315.36
12262.91
12206.91
12153.24
12106.98
12071.38
12047.25
12033.11
12025.94
12022.21
12018.76
12013.35
12004.75
11992.59
11977.04
11958.54
11937.65
11914.88
11890.72
11865.48
11839.32
11812.2
11783.91
11753.99
11722
11687.94
11652.55
11617.2
11583.36
11551.63
11521.84
11493.57
11465.75
11436.36
11402.28
11361.86
11316.2
11267.79
11218.1
11167.08
11111.39
11044.14
10956.96
10847.11
10674.1
16320.74
15563.06
15026.33
14632.74
14270.92
13935.64
13674.75
13500.98
13389.19
13307.14
13233.12
13156.16
13072.11
12981.64
12889
12799.99
12719.88
12652.04
12597.52
12555.16
12521.97
12493.79
12466.23
12435.6
12399.52
12357.17
12309.02
12256.33
12200.65
12143.48
12086.01
12029.15
11973.54
11919.67
11867.93
11818.63
11771.91
11727.62
11685.32
11644.35
11604.18
11564.68
11526.33
11490
11456.6
11426.58
11399.66
11374.68
11349.67
11321.96
11288.78
11248.14
11199.92
11146.04
11089.47
11031.67
10970.23
10896.65
10808.02
10691.39
16657.24
16121.64
15631.06
15239.26
14892.95
14579.45
14324.35
14130.84
13979.38
13848.57
13725.02
13603.35
13484.25
13372.07
13271.8
13186.49
13116.29
13058.99
13011.07
12968.52
12927.34
12884.08
12836.26
12782.74
12723.69
12660.33
12594.38
12527.57
12461.36
12396.75
12334.31
12274.31
12216.79
12161.73
12109.09
12058.85
12010.97
11965.23
11921.14
11878
11835.02
11791.65
11747.85
11704.21
11661.74
11621.4
11583.52
11547.6
11512.43
11476.15
11436.16
11389.69
11335.33
11274.46
11211.25
11150.21
11091.56
11026.4
10952.37
10859.48
16511.91
16202.05
15764.73
15371.18
15108.63
14923.98
14748.08
14556.26
14360.28
14178.36
14019.33
13882.97
13765.2
13661.25
13566.58
13477.29
13390.85
13306.43
13224.57
13146.22
13072.12
13002.61
12937.78
12877.83
12823.08
12773.84
12730.24
12692.03
12658.56
12628.87
12601.82
12576.23
12551.01
12525.27
12498.33
12469.8
12439.48
12407.21
12372.79
12335.86
12295.95
12252.66
12206
12156.68
12106.12
12055.84
12006.73
11958.76
11911.16
11862.55
11810.77
11753.37
11689.33
11620.54
11551.39
11485.16
11420.37
11349.27
11280.71
11191.99
16093.97
16039.58
15710.95
15333.29
15126.41
15048.28
14966.66
14818.85
14623.31
14423.01
14247.29
14105.47
13993.34
13900.23
13814.17
13725.77
13630.39
13528.17
13422.43
13317.64
13217.94
13126.55
13045.69
12976.75
12920.35
12876.34
12843.83
12821.28
12806.74
12798.02
12792.92
12789.38
12785.61
12780.19
12772.06
12760.58
12745.41
12726.44
12703.7
12677.13
12646.53
12611.54
12572.03
12528.42
12481.84
12433.63
12384.64
12335.02
12284.45
12232.41
12178.1
12120.72
12060.34
11998.27
11935.73
11871.52
11803.61
11731.94
11678.84
11607
15781.95
15934.29
15756.97
15431.88
15197.82
15097.97
15050.51
14975.69
14849.76
14688.96
14519.59
14361.43
14224.04
14108.52
14010.74
13924.67
13844.78
13767.05
13689.05
13609.61
13528.65
13447.12
13366.72
13289.55
13217.54
13152.11
13093.95
13043.06
12998.9
12960.58
12927.07
12897.34
12870.43
12845.57
12822.12
12799.61
12777.69
12756.11
12734.62
12712.83
12690.04
12665.19
12637.21
12605.41
12569.85
12531.18
12490.29
12448.09
12405.45
12363.23
12322.24
12283
12245.34
12207.5
12165.53
12115.06
12058.06
12004.98
11981.06
11946.53
15814.35
16029.65
15942.81
15650.32
15318.11
15093.4
15006.58
14988.68
14959.62
14880.65
14753.04
14596.11
14431.04
14274.72
14138.59
14028.51
13944.84
13883.02
13835.24
13792.67
13747.67
13695.16
13632.94
13561.2
13481.63
13396.61
13308.6
13219.84
13132.25
13047.44
12966.73
12891.23
12821.83
12759.24
12703.91
12656.01
12615.41
12581.7
12554.14
12531.58
12512.4
12494.52
12475.74
12454.23
12429.08
12400.63
12370.37
12340.5
12313.23
12290.4
12273.17
12261.59
12253.31
12242.65
12222.19
12188.77
12151.09
12126.23
12130.85
12133.22
18140.45
17388.18
16938.13
16469.89
15941.62
15504.5
15262.97
15183.67
15165.56
15127.8
15038.78
14901.01
14730.01
14543.97
14360.78
14196.07
14060.43
13957.4
13883.68
13831.27
13790.42
13752.03
13709.13
13657.3
13594.45
13520.4
13436.28
13344.1
13246.37
13145.75
13044.9
12946.33
12852.32
12764.79
12685.25
12614.66
12553.44
12501.45
12458
12421.87
12391.35
12364.38
12338.83
12312.91
12285.74
12257.9
12231.39
12209.01
12193.22
12185.45
12185.77
12192.33
12200.26
12201.69
12189.69
12165.63
12143.09
12138.15
12155.11
12170.76
16683.26
16484.79
16338.58
16118.35
15754.71
15355.79
15072.06
14954.14
14948.48
14971.98
14968.74
14918.57
14822.05
14688.15
14529.87
14362.87
14202.91
14062.6
13949.23
13864.42
13805.14
13765.28
13737.33
13713.75
13688.05
13655.45
13613.07
13559.85
13496.15
13423.36
13343.43
13258.61
13171.15
13083.14
12996.37
12912.22
12831.67
12755.3
12683.28
12615.56
12551.88
12491.93
12435.37
12381.91
12331.67
12285.53
12245.26
12212.98
12190.27
12177.48
12173.23
12173.84
12173.1
12163.92
12143.38
12117.65
12100.1
12098.9
12109.11
12111.83
15378.74
15601.09
15697.97
15706.19
15565.27
15286.71
14994.94
14808.53
14753.16
14778.9
14821.95
14841.96
14823.81
14765.67
14670.87
14546.08
14401.42
14249.58
14103.77
13975.41
13872.24
13797.45
13749.74
13724.33
13714.42
13712.73
13712.66
13709.02
13698.21
13678.18
13648.08
13607.91
13558.19
13499.72
13433.35
13359.97
13280.5
13195.93
13107.4
13016.35
12924.52
12833.89
12746.35
12663.43
12586.22
12515.58
12452.46
12397.9
12352.71
12316.71
12287.88
12261.82
12232.84
12197.45
12158.51
12124.95
12104.81
12095.41
12088.43
12067.12
15229.28
15384.06
15470.8
15514.86
15480.1
15307.09
15038.13
14790.92
14650.54
14619.23
14648.03
14687.91
14712.49
14712.78
14685.14
14625.97
14533.28
14409.91
14264.57
14110.29
13961.43
13830.56
13726.34
13652.7
13609.06
13591.4
13593.57
13608.63
13629.86
13651.45
13668.78
13678.46
13678.13
13666.29
13642.09
13605.24
13556
13495.2
13424.22
13345.14
13260.56
13173.38
13086.28
13001.3
12919.5
12841.24
12766.64
12696.14
12630.48
12569.84
12512.51
12454.8
12393.64
12330.79
12274.38
12233.16
12207.45
12185.6
12161.09
12119.9
15259.73
15331.53
15388.45
15414.09
15403.59
15299.5
15082.52
14823.45
14621.18
14521.78
14505.7
14528.83
14559.84
14587.12
14606.82
14612.21
14592.7
14538.82
14447.07
14321.62
14172.97
14015.12
13862.57
13727.74
13619.31
13541.52
13494.31
13474.14
13475.25
13490.85
13514.18
13539.24
13561.13
13576.23
13582.11
13577.47
13561.93
13535.9
13500.44
13457.09
13407.67
13354.03
13297.6
13239.18
13178.73
13115.64
13049.35
12979.98
12908.33
12834.85
12758.58
12677.88
12593.85
12513.4
12447.14
12400.65
12367.55
12332.48
12293.79
12238.26
15319.77
15320.85
15361.47
15380.86
15366.06
15287.97
15115.32
14874.52
14645.43
14494.75
14432.38
14426.44
14442.6
14465.35
14493.41
14526.09
14555.89
14569.96
14555.53
14504.6
14415.9
14294.73
14151.39
13998.88
13850.44
13717.28
13607.16
13523.68
13466.63
13432.77
13417.03
13413.65
13417.16
13423.03
13428
13430.15
13428.66
13423.52
13415.14
13404.03
13390.51
13374.49
13355.4
13332.2
13303.49
13267.71
13223.65
13170.74
13108.9
13037.98
12957.68
12869.31
12778.45
12695.07
12628.25
12578.33
12535.51
12486.32
12435.81
12362.8
15303.89
15265.8
15300.15
15337.67
15337.23
15277.84
15138.14
14923.02
14687.42
14502.93
14405.12
14379.25
14387.77
14403.02
14418.08
14437.95
14466.68
14500.96
14530.99
14544.57
14531.15
14484.51
14403.89
14293.84
14163.02
14022.28
13882.6
13753.29
13640.86
13548.6
13476.84
13423.66
13385.87
13359.96
13342.76
13331.87
13325.74
13323.45
13324.42
13328.06
13333.43
13339.18
13343.62
13344.85
13340.98
13330.18
13310.68
13280.69
13238.33
13182.03
13112.07
13032.75
12952.92
12882.32
12825.13
12776.1
12725.67
12665.42
12607.9
12514.09
15157.44
15140.31
15181.94
15246.98
15285.11
15263.81
15163.83
14980.12
14746.99
14533.51
14398.74
14353.76
14366.08
14393.01
14409.81
14414.86
14418.73
14431.21
14454.68
14484.02
14509.43
14519.99
14506.34
14462.7
14387.85
14285.14
14161.64
14026.65
13889.97
13760.34
13644.42
13546.24
13467.34
13407.23
13364.07
13335.31
13318.28
13310.46
13309.66
13313.92
13321.44
13330.56
13339.77
13347.8
13353.56
13355.89
13353
13341.99
13319.21
13282
13231.52
13174.4
13120.38
13076.03
13039.4
13001.33
12954.81
12896.42
12844.29
12742.55
15061.12
15058.81
15096.33
15167.84
15236.96
15261.56
15212.24
15071.35
14852.44
14613.46
14429.02
14342.01
14341.54
14382.45
14421.16
14437.63
14434.84
14426.17
14423.75
14432.96
14452.21
14474.87
14491.54
14492.31
14468.85
14416.21
14333.83
14225.62
14099.11
13963.96
13830.19
13706.65
13599.92
13513.72
13448.97
13404.24
13376.47
13361.82
13356.35
13356.52
13359.53
13363.43
13367.16
13370.49
13373.63
13376.5
13377.75
13374.2
13361.79
13338.33
13306.61
13274.56
13250.5
13236.46
13225.76
13208.23
13179.99
13140.82
13109.28
13026.71
15013.93
15027.42
15059.64
15120.32
15199.04
15259.96
15263.87
15177.94
14993.83
14748.72
14516.61
14365.44
14317.26
14344.76
14399.67
14444.02
14463.43
14462.15
14451.65
14442.15
14439.25
14443.81
14452.66
14459.6
14456.7
14436.12
14391.96
14321.8
14227.32
14114.04
13990.22
13865.28
13748.18
13646.05
13563.27
13501.28
13458.88
13432.92
13419.2
13413.38
13411.62
13411.13
13410.4
13409.08
13407.56
13405.96
13403.09
13396.21
13382.58
13362.33
13340.47
13325.06
13321.62
13328.19
13336.46
13338.31
13332.71
13320.67
13315.65
13271.96
15033.55
15054.07
15079.42
15120.81
15188.9
15264.81
15308.39
15276.48
15142.88
14919.95
14664.47
14451.6
14332.59
14310.78
14351.45
14410.55
14457.71
14482.32
14487.11
14479.52
14466.49
14452.91
14441.43
14432.35
14423.45
14410.32
14387.38
14349.36
14292.8
14217.05
14124.55
14020.48
13911.74
13805.7
13708.97
13626.46
13560.79
13512.34
13479.5
13459.36
13448.42
13443.34
13441.43
13440.83
13440.17
13437.91
13431.82
13419.59
13400.62
13378.05
13358.59
13349.01
13351.43
13361.7
13373.13
13381.87
13389.43
13396.87
13409.73
13400.78
15141.31
15142.84
15152.73
15172.48
15219
15288.23
15348.03
15355.05
15273.85
15095.06
14849.38
14600.8
14414.82
14324.31
14319.13
14362.69
14417.47
14460.53
14484.59
14491.29
14484.9
14469.63
14449.39
14427.85
14407.89
14390.59
14374.67
14356.63
14331.65
14294.93
14242.99
14174.59
14091.15
13996.58
13896.51
13797.39
13705.34
13625.27
13560.26
13511.41
13478.04
13458.17
13448.99
13447.14
13448.72
13449.33
13444.78
13432.59
13413.87
13393.57
13378.05
13370.99
13370.96
13373.43
13375.42
13378.15
13385.19
13396.87
13412.05
13415.96
15208.54
15213.59
15219.66
15230.43
15260.45
15313.33
15370.95
15400.2
15365.19
15241.29
15032.96
14782.3
14553.15
14397.79
14331.84
14335.1
14372.08
14413.18
14443.64
14460.45
14465.49
14461.02
14448.96
14431.81
14412.99
14396.18
14383.88
14376.27
14370.75
14362.5
14345.58
14314.33
14264.83
14195.78
14108.91
14008.73
13901.72
13795.15
13695.98
13609.86
13540.59
13489.83
13457
13439.23
13431.59
13427.91
13422.68
13413.37
13401.69
13392.08
13387.83
13387.91
13387.55
13382.85
13374.83
13368.75
13369.28
13375.33
13382.46
13379.57
15292.52
15294.13
15293.83
15298.04
15313.31
15344.42
15387.68
15424.92
15425
15354.26
15195.82
14967.58
14721.09
14516.24
14389.76
14341.43
14344.52
14367.58
14390.18
14405.62
14414.98
14420.53
14422.91
14421.83
14417.7
14412.34
14408.4
14407.96
14411.38
14416.62
14419.38
14413.94
14394.38
14355.9
14295.91
14214.72
14115.52
14003.96
13887.24
13773.09
13668.74
13579.84
13509.56
13457.89
13421.71
13396.17
13377.08
13363.18
13356.28
13358.46
13368.28
13379.62
13385.11
13381.67
13372.89
13365.63
13363.92
13365.04
13364.44
13351.04
15450.27
15415.14
15394.43
15384.09
15380.48
15387.14
15410.92
15446.65
15469.63
15442.39
15333.6
15139.97
14895.75
14658.61
14479.49
14378.44
14342.44
14342.26
14352.34
14360.63
14366.6
14373.86
14384.48
14397.54
14410.6
14421.77
14430.65
14438.15
14445.52
14453.31
14460.6
14464.78
14461.84
14447.04
14415.91
14365.18
14293.62
14202.45
14095.41
13978.37
13858.52
13743.05
13637.77
13546.02
13468.52
13404.75
13354.92
13321.07
13305.64
13308.25
13323.25
13341.07
13353.24
13357.25
13356.89
13357.58
13361.06
13363.47
13361.87
13347.39
15500.49
15470.12
15447.71
15431.22
15416.22
15407.71
15418.39
15451.43
15488.96
15495.1
15431.59
15279.16
15053.43
14802.27
14582.94
14433.54
14358.62
14336.34
14337.72
14342.99
14346.23
14350.47
14360.27
14377.05
14398.63
14421.1
14440.99
14456.43
14467.27
14474.46
14479.23
14482.18
14482.74
14478.9
14467.38
14444.19
14405.51
14348.57
14272.54
14178.91
14071.34
13954.82
13834.56
13715.21
13600.95
13496.48
13407.8
13341.31
13301.03
13285.56
13287.69
13297.6
13307.9
13316.45
13325.05
13335.34
13346
13353.21
13355.86
13350.52
15594.13
15543.89
15511.12
15483.42
15457.25
15438.26
15438.73
15464.7
15505.11
15530.58
15502.94
15392.7
15197.49
14949.64
14704.05
14511.72
14396.45
14349.77
14344.17
14352.32
14359.15
14362.68
14367.62
14378.54
14396.39
14418.63
14441.23
14460.56
14474.5
14482.66
14486.04
14486.32
14485.1
14483.07
14479.56
14472.36
14458.04
14432.67
14392.64
14335.49
14260.18
14167.04
14057.66
13935.08
13804.59
13674.37
13554.75
13455.52
13382.25
13334.32
13306.17
13291.28
13285.42
13287.07
13295.1
13306.83
13318.39
13327.12
13333.2
13338.87
15537.78
15527
15510.23
15486.45
15462.21
15444.75
15442.93
15462.61
15499.54
15534.41
15534.99
15467.52
15314.47
15089.45
14836.81
14612.42
14457.09
14380.18
14362.67
14374.09
14389.71
14398.63
14401.58
14404.17
14410.95
14423.06
14438.73
14454.94
14468.89
14478.82
14484.26
14485.89
14485.11
14483.46
14481.99
14480.71
14478.33
14472.32
14459.19
14434.91
14395.2
14336.11
14254.86
14151.38
14029.77
13898.6
13769.05
13651.26
13551.02
13469.11
13403.78
13353.86
13319.59
13300.59
13293.64
13293.11
13294.21
13296
13299.36
13309.14
15555.28
15552.11
15537.7
15511.48
15485.9
15468.18
15462.39
15472.11
15498.12
15531.54
15549.47
15519.3
15413.18
15226.32
14986.48
14745.08
14553.35
14438.9
14397.47
14402.64
14423.85
14440.51
14445.91
14443.17
14438.54
14436.73
14439.47
14446.12
14454.89
14463.87
14471.55
14477.12
14480.48
14482.2
14483.21
14484.41
14486.26
14488.31
14488.81
14484.42
14470.18
14440.25
14389.44
14315.43
14220.38
14110.81
13995.19
13880.57
13770.73
13667.18
13571.93
13488.99
13422.7
13374.32
13340.39
13315.08
13294.62
13279.79
13272.06
13274.72
15588.13
15588.65
15573.6
15544.05
15515.05
15494.24
15482.91
15482.22
15495.48
15521.96
15548.62
15548.21
15488.52
15349.97
15141.36
14901.58
14683.38
14528.59
14450.71
14434.64
14450.69
14471.4
14481.56
14478.7
14467.76
14455.16
14445.45
14440.58
14440.59
14444.53
14451.06
14458.77
14466.41
14473.14
14478.68
14483.35
14487.83
14492.66
14497.51
14500.42
14497.55
14483.82
14454.61
14407.7
14344.26
14267.96
14182.62
14090.12
13990.66
13885.15
13777.61
13674.9
13583.57
13506.3
13441.18
13384.75
13335.88
13296.74
13270.11
13253.55
15675.04
15657.47
15631.53
15594.72
15558.45
15529.59
15509.15
15497.44
15498.39
15515.83
15544.68
15565.01
15545.51
15457.34
15291.79
15070.55
14839.36
14647.37
14524.83
14472.89
14469.75
14486.23
14499.99
14501.32
14491.04
14474.8
14458.31
14445.2
14437.05
14434.09
14435.85
14441.41
14449.53
14458.81
14468.04
14476.48
14483.96
14490.58
14496.06
14499.13
14497.37
14487.94
14468.88
14440.16
14403.31
14359.73
14308.75
14247.34
14172.16
14082.68
13982.67
13878.74
13776.91
13680.22
13589.04
13503.5
13425.62
13358.52
13307.74
13260.65
15797.76
15742.75
15698.48
15653.47
15610.24
15571.86
15540.45
15517.82
15508.27
15517.11
15544.11
15576.48
15587.5
15544.83
15426.55
15236.37
15006.95
14787.07
14619.33
14522.41
14487.86
14490.56
14504.14
14511.63
14507.78
14495.21
14479.13
14463.8
14451.6
14443.45
14439.6
14439.94
14444.02
14450.99
14459.76
14469.17
14478.21
14485.87
14490.92
14491.77
14486.89
14475.7
14459.34
14440.44
14421.46
14402.46
14379.86
14347.74
14300.87
14237.47
14159.59
14071.05
13975.12
13873.83
13769.15
13664.26
13563.67
13470.71
13395.27
13309.49
15794.59
15748.14
15707.66
15669.02
15630.85
15591.85
15555.65
15527.31
15512.18
15515.56
15539.65
15577.66
15609.44
15604.2
15532.37
15382.07
15169.9
14937.21
14732.33
14589.24
14515.63
14495.68
14503.24
14515.58
14520.53
14516.01
14505.36
14492.76
14480.96
14471.12
14463.64
14458.79
14456.83
14457.91
14461.82
14467.94
14475.1
14481.51
14484.93
14483.16
14475.07
14461.66
14446.21
14433.03
14424.91
14421.03
14416.78
14405.89
14383.43
14347.3
14297.5
14234.21
14157.06
14066.16
13963.77
13854.28
13743.23
13633.06
13538.96
13413.52
15808.93
15755.26
15714.29
15679.71
15647.4
15611.7
15575.23
15544.43
15525.37
15523.02
15540.74
15576.57
15617.59
15638.17
15606.6
15499.74
15317.88
15089.63
14861.52
14677.69
14561.7
14510.93
14504.25
14516.14
14527.95
14531.74
14527.75
14519.5
14510.12
14501.07
14492.66
14484.92
14478.23
14473.33
14470.94
14471.27
14473.61
14476.12
14476.22
14471.64
14461.75
14448.5
14435.98
14428.45
14427.86
14432.57
14438.18
14439.99
14434.88
14421.37
14397.95
14361.89
14309.87
14240.17
14154.17
14055.54
13949.22
13835.72
13735.11
13579.31
15772.92
15728.36
15696
15668.53
15644.34
15617.24
15587.45
15559.8
15539.8
15532.24
15541.46
15569.33
15609.95
15644.96
15645.24
15581.58
15440.2
15234.08
15001.06
14788.39
14632.44
14545.46
14515.94
14519.73
14533.53
14543.14
14544.43
14539.41
14531.57
14523.16
14514.74
14506.08
14497.18
14488.62
14481.37
14476.12
14472.61
14469.42
14464.52
14456.46
14445.64
14434.68
14427.39
14426.62
14432.54
14442.61
14453.28
14462.01
14467.9
14470.3
14467.06
14454.05
14426.77
14382.5
14321.39
14245.25
14157.37
14055.73
13963.55
13795.89
15712.88
15686.87
15669.01
15650.51
15634.17
15616.78
15596.77
15575.52
15556.67
15544.65
15544.62
15561.22
15594.35
15633.45
15655.32
15629.88
15533.51
15363.57
15144.31
14918.85
14730.86
14606.55
14547.28
14534.91
14544.64
14556.69
14561.44
14558.04
14549.78
14540
14530.31
14520.78
14511.04
14501.1
14491.36
14482.19
14473.34
14463.89
14452.89
14440.46
14428.48
14420.13
14418.36
14424.05
14435.43
14449.28
14463
14475.9
14488.52
14500.71
14510.23
14513.1
14505.35
14484.48
14449.76
14401.02
14339.83
14261.84
14190.76
14033.41
15668.73
15657.12
15652.04
15641.5
15630.64
15620.07
15607.92
15592.56
15575.24
15559.72
15551.47
15556.57
15578.78
15614.3
15647.32
15651.12
15597.44
15470.85
15280.16
15058.41
14849.97
14691.59
14598.54
14562.82
14562.26
14573.44
14580.83
14579.11
14569.98
14557.53
14544.92
14533.36
14522.69
14512.35
14501.76
14490.32
14477.3
14462.1
14445.02
14427.94
14414.2
14407.35
14409.26
14419.06
14433.66
14449.71
14465.55
14481.47
14498.32
14515.75
14531.68
14543.2
14547.97
14544.53
14531.91
14508.8
14475.59
14426.53
14383.01
14254.78
15627.21
15634.75
15642.52
15640.5
15634.26
15627.37
15619.32
15607.45
15591.32
15573.77
15559.92
15556.1
15567.9
15596.25
15632.36
15655.44
15637.34
15554.4
15401.14
15197.07
14981.05
14795.15
14667.23
14602.06
14584.46
14590.68
14600.09
14601.62
14593.52
14579.37
14563.62
14549.13
14536.7
14525.62
14514.41
14501.38
14485.13
14465.28
14443.25
14422.33
14406.78
14399.98
14402.77
14413.15
14427.73
14443.8
14460.51
14478.35
14497.54
14517.04
14534.94
14549.65
14560.58
14567.52
14569.94
14566.33
14556.74
14535.19
14518.44
14429.81
15641.51
15651.07
15661.15
15662.27
15656.78
15648.63
15639.13
15626.53
15609.75
15590.5
15572.97
15562.82
15566
15586.12
15619.92
15653.2
15661.37
15617.3
15504.44
15328.04
15116.76
14912.11
14751.03
14651.65
14609.54
14604.74
14613.87
14619.96
14616.08
14603.3
14586.3
14569.39
14554.71
14541.99
14529.34
14514.37
14495.32
14472.15
14447.12
14424.24
14407.79
14400.32
14401.66
14409.47
14420.98
14434.64
14450.33
14468.23
14487.59
14506.61
14523.61
14538.04
14550.55
14561.93
14572.33
14580.86
14587.73
14587.59
14591.29
14543.06
15683.73
15688.48
15694.75
15695.55
15688.99
15677.37
15663.42
15647.5
15628.99
15608.58
15589.04
15574.85
15571.46
15583.69
15612.19
15648.76
15674.19
15661.9
15588.39
15446.14
15250.97
15038.39
14849.39
14713.8
14640.07
14616.32
14620.07
14629.85
14632.64
14625.1
14610.25
14592.91
14576.41
14561.33
14546.08
14528.29
14506.48
14481.24
14455.38
14432.88
14417.1
14409.26
14408.25
14411.91
14418.63
14428.1
14440.73
14456.23
14473.08
14489.16
14503.11
14515.07
14526.26
14537.94
14550.91
14565.18
14581.07
14594.29
14609.7
14594.69
15742.61
15737.39
15735.67
15733.37
15725.04
15710.04
15691.25
15671.19
15650.52
15629.34
15608.89
15592.11
15583.55
15588.33
15609.61
15644.22
15678.84
15690.28
15652.25
15547.38
15378.23
15170.08
14962.37
14792.77
14682.66
14631.55
14622.15
14631.44
14640.87
14641.33
14632.21
14617.22
14600.18
14582.66
14563.98
14542.63
14518.09
14491.83
14466.96
14446.81
14433.25
14425.95
14423.1
14422.97
14425.06
14429.96
14438.2
14449.12
14460.93
14471.8
14480.93
14488.88
14496.93
14506.44
14518.62
14534.06
14552.87
14571.68
14590.54
14597.1
15799.82
15784.01
15773.6
15766.96
15757.35
15741.08
15719.68
15696.68
15674.22
15652.54
15631.77
15613.3
15600.47
15598.15
15610.97
15639.62
15676.49
15703.42
15694.89
15627.46
15491.85
15300.78
15086.92
14890.56
14743.59
14658.4
14626.88
14628.42
14641.08
14649.81
14648.75
14638.71
14622.85
14603.52
14581.39
14556.5
14529.76
14503.54
14480.92
14464.2
14453.68
14447.75
14444.27
14442.01
14441.15
14442.51
14446.32
14451.64
14456.97
14461.23
14464.41
14467.36
14471.31
14477.56
14487.34
14501.28
14518.82
14537.24
14553.73
14569.79
15833.88
15814.47
15799.19
15789.22
15779.7
15765.24
15745.01
15721.93
15698.96
15677.14
15656.24
15636.58
15620.22
15611.36
15615.24
15635.29
15668.84
15703.46
15717.05
15683.96
15585.96
15423.03
15217.15
15005.62
14826.52
14704.27
14642.53
14627.28
14636.56
14650.61
14657.63
14653.95
14640.78
14620.7
14595.96
14568.51
14540.81
14515.86
14496.32
14483.24
14475.64
14471.28
14468.17
14465.55
14463.78
14463.25
14463.58
14463.71
14462.67
14460.36
14457.54
14455.4
14455.2
14458.14
14465.19
14476.43
14490.44
14504.9
14516.35
14532.68
15855.95
15835.3
15817.68
15804.76
15795.27
15784.02
15767.86
15747.51
15725.56
15703.78
15682.46
15661.51
15642.03
15627.25
15622.33
15632.34
15658.49
15693.93
15721.59
15716.96
15656.55
15529.29
15344.65
15132.05
14930.39
14773.01
14675.95
14635.14
14632.46
14645.99
14658.47
14660.83
14651.09
14631.4
14605.4
14577.03
14550.1
14527.82
14511.92
14502.2
14496.85
14493.66
14491.19
14489.17
14487.72
14486.52
14484.56
14480.73
14474.7
14467.17
14459.49
14453.2
14449.68
14450.03
14454.7
14462.95
14472.65
14481.92
14488.28
14500.01
15865.4
15847.46
15830.69
15816.13
15806.32
15798.16
15787.29
15771.73
15752.42
15731.27
15709.38
15687.02
15664.78
15644.96
15632.06
15631.79
15648.06
15678.88
15712.81
15728.96
15702.28
15613.7
15460.51
15261.03
15049.69
14864.18
14731.23
14658.43
14635.12
14640.55
14653.7
14660.08
14653.7
14635.33
14609.54
14581.95
14557.4
14538.83
14526.84
14520.03
14516.17
14513.52
14511.41
14509.87
14508.73
14507.02
14503.35
14496.81
14487.56
14476.78
14466.14
14457.36
14451.92
14450.7
14453.49
14458.75
14464.19
14468.57
14471.18
14477.34
15872.85
15858.59
15844.14
15829.04
15818.21
15811.42
15804.78
15794.25
15778.53
15758.72
15736.46
15712.75
15688.23
15664.42
15644.87
15635.05
15640.42
15662.77
15696.1
15724.58
15724.77
15673.24
15557.18
15382.75
15175.75
14973.01
14808.51
14701.15
14650.23
14639.7
14647.47
14654.71
14651.01
14634.86
14610.75
14585.31
14564
14549.36
14540.92
14536.4
14533.48
14530.95
14528.71
14526.95
14525.2
14522.2
14516.67
14508.07
14496.98
14484.75
14473.06
14463.59
14457.65
14455.69
14456.81
14459.05
14460.55
14460.94
14461.2
14462.94
15884.8
15873.35
15861.19
15846.35
15834.03
15826.42
15821.43
15814.47
15802.26
15784.38
15762.31
15737.7
15711.6
15685.09
15660.62
15642.8
15637.57
15649.26
15676.6
15709.31
15727.78
15707.8
15629.66
15488.25
15298.37
15091.35
14903.76
14763.58
14680.97
14647.58
14643.61
14647.91
14646.01
14633.14
14612.39
14590.26
14572.34
14560.87
14554.85
14551.72
14549.3
14546.72
14544.06
14541.35
14537.91
14532.62
14524.68
14514.14
14501.93
14489.4
14478.03
14469.18
14463.69
14461.32
14460.62
14459.69
14457.55
14454.78
14453.38
14451.96
15901.75
15892.16
15881.59
15867.54
15853.82
15843.79
15837.64
15831.81
15822.07
15806.34
15785.18
15760.43
15733.65
15705.81
15678.41
15654.79
15640.42
15640.99
15658.84
15688.98
15716.92
15720.53
15676.81
15571.76
15408.77
15210.25
15010.56
14843.07
14727.93
14666.52
14644.66
14641.79
14640.49
14632.12
14616.74
14599.24
14584.6
14575.06
14569.88
14566.95
14564.5
14561.78
14558.58
14554.51
14548.77
14540.61
14529.95
14517.47
14504.39
14492.05
14481.63
14473.96
14469.1
14466.07
14463.15
14458.94
14453.47
14448.02
14444.87
14440.54
15924.53
15914.77
15904.31
15890.83
15875.97
15862.86
15853.47
15846.26
15837.35
15823.45
15803.79
15779.73
15753.13
15725.14
15696.62
15669.61
15648.41
15638.93
15645.85
15668.68
15698.37
15716.88
15701.17
15631.58
15501.33
15322.16
15122.1
14935.49
14790.05
14697.48
14652.16
14637.33
14634.62
14631.46
14623.48
14612.24
14601.22
14592.69
14586.94
14583.04
14579.93
14576.83
14572.99
14567.47
14559.43
14548.58
14535.47
14521.34
14507.64
14495.66
14486.24
14479.54
14474.81
14470.48
14464.95
14457.57
14449.18
14441.26
14435.89
14427.9
15947.89
15936.99
15925.68
15912.36
15896.83
15881.05
15867.76
15857.5
15847.79
15835.07
15817.25
15794.67
15769
15741.69
15713.38
15685.07
15659.65
15642.3
15638.77
15651.89
15677.68
15703.17
15707.86
15669.71
15574.17
15422.22
15232.7
15036.61
14865.74
14741.23
14667.78
14635.64
14628.04
14629.38
14630.02
14626.74
14620.36
14612.94
14606.08
14600.51
14596.16
14592.27
14587.56
14580.67
14570.76
14557.93
14543.21
14528.17
14514.35
14502.91
14494.28
14487.96
14482.52
14476.21
14467.9
14457.75
14446.97
14436.71
14428.79
14416
15967.96
15955.46
15942.9
15929.27
15913.48
15896.07
15879.45
15865.6
15853.94
15841.59
15825.65
15805.14
15781.04
15754.87
15727.48
15699.32
15671.96
15649.33
15637.14
15640.25
15658.86
15685.2
15702.9
15690.39
15628.25
15508.05
15338.08
15142.52
14953.29
14798.7
14694.09
14639.12
14621.47
14624.3
14633
14638.71
14638.49
14633.4
14626.13
14619.04
14613.19
14608.06
14602.16
14593.96
14582.72
14568.84
14553.61
14538.65
14525.45
14514.86
14506.83
14500.25
14493.39
14484.76
14473.91
14461.63
14449.09
14436.7
14426.28
14408.04
15982.22
15968.06
15954.38
15940.14
15924.38
15906.48
15887.84
15870.92
15856.84
15844.1
15829.76
15811.65
15789.63
15764.93
15738.7
15711.38
15683.68
15658.14
15639.66
15633.93
15644.13
15667.2
15691.61
15698.31
15665.87
15578.67
15434.75
15249.18
15050.37
14870.43
14734.15
14651.62
14617.57
14616.49
14630.23
14644.45
14651.69
14650.94
14645.02
14637.45
14630.34
14623.71
14616.32
14606.8
14594.69
14580.58
14565.81
14551.9
14540.04
14530.64
14523.09
14515.86
14507.31
14496.53
14483.82
14470.21
14456.55
14442.42
14430
14406.67
15989.59
15974.24
15960.01
15945.21
15929.63
15912.11
15892.9
15874.07
15857.76
15844.1
15830.82
15815.08
15795.5
15772.6
15747.65
15721.39
15694.22
15667.55
15645.08
15632.37
15634.38
15651.82
15677.94
15697.46
15689.38
15633.57
15519.34
15351.95
15153.35
14955.73
14790.51
14677.77
14620.97
14608.76
14622.03
14642.23
14657.2
14662.76
14660.48
14654.08
14646.42
14638.36
14629.33
14618.56
14605.92
14592.15
14578.52
14566.28
14556.2
14548.11
14540.9
14532.9
14522.87
14510.61
14496.96
14482.86
14468.69
14453.4
14439.74
14412.68
15992.11
15975.8
15961.52
15946.36
15930.97
15914.2
15895.47
15875.97
15858.09
15843.22
15830.31
15816.54
15799.54
15778.8
15755.33
15730.21
15703.94
15677.27
15652.67
15634.91
15629.68
15640.36
15664.35
15690.69
15700.62
15672.24
15588.51
15445.57
15257.13
15051.86
14864.02
14721.57
14637.16
14606.14
14611.59
14633.06
14654.36
14667.27
14670.69
14667.27
14660.11
14651.01
14640.49
14628.63
14615.78
14602.76
14590.65
14580.33
14572.03
14565.03
14557.88
14549.11
14538.07
14525.21
14511.54
14497.64
14483.47
14467.68
14453.57
14424.73
15991.7
15974.77
15960.84
15945.68
15930.45
15914.38
15896.61
15877.45
15858.81
15842.78
15829.57
15817.08
15802.48
15784.22
15762.61
15738.81
15713.63
15687.56
15662.12
15641.02
15629.75
15633.26
15652.25
15679.97
15701.1
15694.43
15639.4
15524.8
15355.62
15154.03
14953.02
14785.06
14671.04
14614.65
14604.31
14620.63
14644.87
14664.59
14674.79
14675.83
14670.29
14660.8
14649.19
14636.61
14623.95
14612.07
14601.72
14593.28
14586.39
14579.94
14572.46
14562.93
14551.37
14538.6
14525.49
14512.18
14498.33
14482.63
14468.67
14439.97
15990.29
15973.15
15959.77
15944.91
15929.83
15914.22
15897.42
15879.13
15860.5
15843.6
15829.66
15817.66
15804.98
15789.3
15769.99
15747.87
15723.94
15698.79
15673.34
15650.18
15634.08
15630.48
15642.39
15666.78
15692.43
15700.74
15670.45
15585.49
15442.75
15256.05
15053.3
14867.5
14725.5
14639.73
14606.43
14610.33
14632.31
14656.38
14673.04
14679.27
14676.32
14667.26
14655.17
14642.38
14630.39
14620.04
14611.64
14604.93
14598.99
14592.5
14584.29
14574.01
14562.22
14549.85
14537.45
14524.74
14511.29
14496.02
14482.46
14455.25
15989.47
15972.43
15959.52
15945.1
15930.2
15914.8
15898.72
15881.46
15863.38
15846.06
15831.23
15819.03
15807.58
15794.27
15777.53
15757.47
15735.03
15710.98
15685.99
15661.73
15641.89
15631.6
15635.13
15652.49
15676.66
15693.02
15682.08
15625.51
15513.68
15351.41
15158.68
14965.13
14800.44
14684.74
14623.4
14607.86
14621.21
14645.36
14666.57
14677.82
14678.15
14670.4
14658.58
14646.16
14635.28
14626.76
14620.41
14615.24
14609.88
14602.99
14593.93
14582.99
14571.1
14559.1
14547.15
14534.75
14521.52
14506.71
14493.5
14468.32
15989.65
15973.05
15960.45
15946.45
15931.76
15916.5
15900.9
15884.6
15867.4
15850.15
15834.57
15821.71
15810.7
15799.19
15784.94
15767.18
15746.47
15723.67
15699.42
15674.75
15652.16
15635.92
15630.6
15638.43
15656.37
15674.5
15676.85
15645.29
15565.73
15434.54
15262.24
15071.95
14892.73
14750.2