/*--------------------------------*- C++ -*----------------------------------*\
| =========                 |                                                 |
| \\      /  F ield         | OpenFOAM: The Open Source CFD Toolbox           |
|  \\    /   O peration     | Version:  2312                                  |
|   \\  /    A nd           | Website:  www.openfoam.com                      |
|    \\/     M anipulation  |                                                 |
\*---------------------------------------------------------------------------*/
FoamFile
{
    version     2.0;
    format      ascii;
    arch        "LSB;label=32;scalar=64";
    class       volScalarField;
    location    "3450";
    object      ILambda_7_0;
}
// * * * * * * * * * * * * * * * * * * * * * * * * * * * * * * * * * * * * * //

dimensions      [1 0 -3 0 0 0 0];

internalField   nonuniform List<scalar> 
12000
(
1928.189
1939.171
1933.58
1935.175
1916.98
1861.326
1791.115
1738.69
1715.183
1712.661
1720.043
1731.15
1743.518
1755.496
1765.37
1771.779
1774.138
1772.788
1768.932
1764.304
1760.558
1758.645
1758.533
1759.409
1760.193
1760.041
1758.609
1756.03
1752.705
1749.068
1745.424
1741.9
1738.477
1735.062
1731.556
1727.896
1724.07
1720.109
1716.072
1712.022
1708.01
1704.055
1700.139
1696.221
1692.252
1688.202
1684.071
1679.9
1675.76
1671.736
1667.899
1664.283
1660.876
1657.622
1654.447
1651.25
1647.99
1644.377
1641.279
1634.859
1963.184
1935.037
1934.216
1933.434
1882.35
1800.633
1737.78
1712.813
1713.235
1722.619
1734.028
1746.387
1758.763
1769.251
1776.197
1778.919
1777.713
1773.713
1768.678
1764.439
1762.189
1762.04
1763.145
1764.264
1764.385
1763.075
1760.476
1757.054
1753.315
1749.605
1746.059
1742.648
1739.26
1735.78
1732.135
1728.307
1724.331
1720.267
1716.187
1712.147
1708.172
1704.251
1700.341
1696.386
1692.345
1688.212
1684.022
1679.846
1675.774
1671.889
1668.24
1664.823
1661.584
1658.435
1655.283
1652.028
1648.644
1644.867
1641.602
1634.999
1954.018
1922.067
1942.738
1920.349
1840.806
1763.236
1724.746
1717.71
1722.862
1731.33
1742.139
1754.522
1766.159
1774.879
1779.639
1780.353
1777.689
1773.061
1768.34
1765.132
1764.091
1764.752
1765.964
1766.56
1765.859
1763.79
1760.716
1757.135
1753.448
1749.863
1746.411
1743.016
1739.571
1735.992
1732.238
1728.321
1724.289
1720.21
1716.147
1712.14
1708.195
1704.281
1700.347
1696.343
1692.244
1688.067
1683.871
1679.736
1675.752
1671.983
1668.456
1665.14
1661.961
1658.819
1655.624
1652.288
1648.806
1644.94
1641.601
1634.984
1913.718
1933.525
1952.515
1885.17
1790.573
1734.454
1719.861
1722.798
1729.736
1739.307
1751.562
1764.165
1774.418
1780.897
1783.267
1781.85
1777.706
1772.622
1768.512
1766.547
1766.688
1767.926
1768.961
1768.852
1767.299
1764.546
1761.089
1757.391
1753.739
1750.226
1746.81
1743.391
1739.872
1736.189
1732.33
1728.329
1724.247
1720.158
1716.113
1712.135
1708.208
1704.286
1700.314
1696.252
1692.096
1687.889
1683.707
1679.639
1675.764
1672.129
1668.731
1665.515
1662.385
1659.235
1655.981
1652.552
1648.964
1645.007
1641.603
1634.999
1892.289
1968.696
1936.598
1827.598
1748.931
1724.554
1725.126
1729.986
1737.137
1748.248
1761.308
1772.897
1781.01
1785.096
1785.229
1782.056
1777.065
1772.276
1769.332
1768.721
1769.729
1771.035
1771.472
1770.484
1768.148
1764.908
1761.267
1757.585
1754.018
1750.569
1747.159
1743.685
1740.071
1736.279
1732.323
1728.255
1724.149
1720.071
1716.059
1712.111
1708.191
1704.244
1700.218
1696.094
1691.893
1687.679
1683.543
1679.571
1675.825
1672.325
1669.04
1665.893
1662.777
1659.586
1656.247
1652.713
1649.024
1644.995
1641.556
1635.019
1931.614
1991.805
1877.638
1768.028
1729.952
1728.506
1731.638
1735.739
1744.913
1758.028
1770.839
1780.509
1786.252
1788.046
1786.172
1781.675
1776.464
1772.544
1770.989
1771.522
1772.925
1773.85
1773.462
1771.62
1768.676
1765.147
1761.455
1757.831
1754.333
1750.908
1747.464
1743.911
1740.192
1736.295
1732.257
1728.145
1724.036
1719.984
1716.007
1712.078
1708.147
1704.155
1700.067
1695.886
1691.658
1687.468
1683.41
1679.558
1675.949
1672.576
1669.383
1666.277
1663.143
1659.885
1656.446
1652.805
1649.028
1644.951
1641.508
1635.075
2029.818
1947.99
1792.208
1734.967
1733.027
1735.459
1735.843
1741.961
1754.435
1768.232
1779.362
1786.657
1790.117
1789.794
1786.219
1780.962
1776.203
1773.585
1773.399
1774.68
1775.982
1776.192
1774.907
1772.339
1768.987
1765.326
1761.659
1758.103
1754.648
1751.214
1747.712
1744.065
1740.238
1736.245
1732.143
1728.01
1723.917
1719.902
1715.955
1712.03
1708.068
1704.018
1699.866
1695.641
1691.414
1687.28
1683.326
1679.609
1676.139
1672.877
1669.748
1666.648
1663.468
1660.121
1656.575
1652.833
1648.986
1644.89
1641.474
1635.174
2107.145
1816.06
1735.318
1738.471
1741.981
1737.881
1739.661
1750.636
1765.117
1777.647
1786.403
1791.445
1792.799
1790.522
1785.658
1780.313
1776.604
1775.476
1776.382
1777.899
1778.668
1777.987
1775.876
1772.775
1769.196
1765.508
1761.896
1758.394
1754.952
1751.483
1747.902
1744.151
1740.217
1736.142
1731.998
1727.867
1723.807
1719.83
1715.902
1711.961
1707.949
1703.833
1699.624
1695.378
1691.183
1687.134
1683.308
1679.733
1676.39
1673.215
1670.118
1666.993
1663.74
1660.291
1656.638
1652.809
1648.919
1644.832
1641.477
1635.326
1835.822
1744.677
1751.092
1752.543
1742.158
1738.366
1746.892
1761.585
1775.417
1785.567
1792.055
1795.073
1794.376
1790.367
1784.809
1780.101
1777.864
1778.128
1779.652
1780.893
1780.837
1779.255
1776.484
1773.047
1769.374
1765.715
1762.157
1758.687
1755.234
1751.708
1748.032
1744.169
1740.136
1735.998
1731.838
1727.732
1723.714
1719.768
1715.839
1711.861
1707.785
1703.603
1699.354
1695.116
1690.985
1687.05
1683.364
1679.928
1676.694
1673.576
1670.478
1667.298
1663.952
1660.395
1656.643
1652.749
1648.842
1644.796
1641.53
1635.531
1749.702
1765.424
1764.174
1748.124
1738.577
1743.653
1757.776
1772.688
1784.21
1792.016
1796.576
1797.6
1794.88
1789.576
1784.099
1780.673
1780.036
1781.313
1782.888
1783.44
1782.446
1780.086
1776.86
1773.247
1769.561
1765.948
1762.433
1758.973
1755.486
1751.881
1748.097
1744.122
1740.005
1735.829
1731.681
1727.615
1723.638
1719.708
1715.756
1711.722
1707.575
1703.338
1699.073
1694.876
1690.84
1687.038
1683.497
1680.187
1677.035
1673.942
1670.81
1667.55
1664.1
1660.438
1656.603
1652.668
1648.776
1644.798
1641.644
1635.787
1769.225
1772.675
1755.877
1741.239
1741.511
1753.85
1769.444
1782.367
1791.429
1797.337
1800.066
1798.974
1794.445
1788.566
1783.986
1782.227
1782.971
1784.688
1785.791
1785.423
1783.55
1780.608
1777.111
1773.431
1769.77
1766.2
1762.714
1759.245
1755.701
1751.997
1748.093
1744.015
1739.838
1735.655
1731.54
1727.521
1723.575
1719.638
1715.642
1711.538
1707.324
1703.051
1698.803
1694.678
1690.763
1687.105
1683.703
1680.498
1677.397
1674.295
1671.1
1667.743
1664.184
1660.427
1656.53
1652.584
1648.738
1644.852
1641.825
1636.087
1778.654
1766.459
1747.003
1740.854
1749.977
1765.691
1780.046
1790.396
1797.451
1801.717
1802.441
1799.197
1793.406
1787.853
1784.819
1784.734
1786.348
1787.895
1788.164
1786.845
1784.266
1780.946
1777.313
1773.623
1769.998
1766.467
1762.994
1759.494
1755.866
1752.044
1748.022
1743.859
1739.653
1735.491
1731.425
1727.449
1723.514
1719.547
1715.486
1711.309
1707.042
1702.761
1698.563
1694.542
1690.764
1687.252
1683.972
1680.845
1677.762
1674.618
1671.337
1667.872
1664.209
1660.374
1656.443
1652.516
1648.741
1644.966
1642.072
1636.42
1781.088
1755.798
1741.979
1746.535
1761.544
1777.227
1788.983
1797.053
1802.58
1805.118
1803.581
1798.455
1792.27
1787.92
1786.724
1787.942
1789.772
1790.655
1789.947
1787.805
1784.73
1781.193
1777.503
1773.829
1770.243
1766.744
1763.267
1759.706
1755.969
1752.018
1747.89
1743.673
1739.47
1735.353
1731.338
1727.39
1723.441
1719.42
1715.285
1711.041
1706.745
1702.489
1698.373
1694.479
1690.848
1687.471
1684.291
1681.209
1678.11
1674.897
1671.513
1667.939
1664.184
1660.293
1656.357
1652.479
1648.799
1645.144
1642.381
1636.77
1769.658
1745.775
1744.243
1757.268
1773.848
1787.175
1796.284
1802.766
1806.912
1807.345
1803.479
1797.161
1791.61
1789.076
1789.574
1791.462
1792.892
1792.832
1791.2
1788.438
1785.051
1781.399
1777.695
1774.051
1770.507
1767.028
1763.518
1759.865
1755.997
1751.921
1747.712
1743.476
1739.307
1735.246
1731.274
1727.331
1723.341
1719.249
1715.038
1710.746
1706.451
1702.254
1698.25
1694.498
1691.011
1687.753
1684.643
1681.572
1678.426
1675.122
1671.627
1667.948
1664.119
1660.202
1656.291
1652.487
1648.919
1645.388
1642.74
1637.121
1752.266
1744.1
1753.35
1769.879
1784.866
1795.25
1802.464
1807.835
1810.27
1808.202
1802.379
1795.92
1791.922
1791.367
1793.028
1794.88
1795.478
1794.425
1792.047
1788.867
1785.297
1781.589
1777.894
1774.293
1770.79
1767.308
1763.729
1759.952
1755.946
1751.764
1747.51
1743.292
1739.177
1735.169
1731.22
1727.254
1723.202
1719.031
1714.756
1710.441
1706.181
1702.076
1698.205
1694.6
1691.246
1688.081
1685.009
1681.915
1678.695
1675.286
1671.679
1667.909
1664.031
1660.115
1656.259
1652.552
1649.104
1645.69
1643.134
1637.458
1745.87
1749.999
1765.318
1781.872
1793.958
1801.892
1808.016
1812.212
1812.321
1807.697
1800.816
1795.376
1793.464
1794.561
1796.645
1797.871
1797.453
1795.532
1792.62
1789.178
1785.502
1781.774
1778.111
1774.562
1771.084
1767.563
1763.876
1759.955
1755.821
1751.567
1747.308
1743.136
1739.082
1735.114
1731.161
1727.145
1723.015
1718.769
1714.451
1710.146
1705.956
1701.97
1698.244
1694.782
1691.541
1688.438
1685.369
1682.222
1678.909
1675.387
1671.676
1667.834
1663.934
1660.051
1656.275
1652.68
1649.352
1646.04
1643.545
1637.764
1746.43
1760.387
1778.026
1792.253
1801.232
1807.699
1813.146
1815.55
1812.813
1806.181
1799.511
1796.017
1796.177
1798.23
1800.004
1800.259
1798.867
1796.287
1793.025
1789.421
1785.686
1781.968
1778.358
1774.858
1771.373
1767.768
1763.941
1759.875
1755.64
1751.355
1747.128
1743.018
1739.017
1735.064
1731.078
1726.992
1722.781
1718.473
1714.141
1709.882
1705.793
1701.945
1698.367
1695.034
1691.879
1688.805
1685.706
1682.481
1679.061
1675.428
1671.627
1667.738
1663.846
1660.024
1656.348
1652.874
1649.658
1646.426
1643.953
1638.026
1754.82
1773.081
1789.685
1800.506
1807.21
1813.203
1817.668
1817.376
1811.805
1804.344
1799.171
1798.018
1799.708
1801.886
1802.821
1802.026
1799.845
1796.815
1793.328
1789.621
1785.864
1782.187
1778.64
1775.165
1771.628
1767.898
1763.917
1759.724
1755.428
1751.154
1746.983
1742.936
1738.969
1735.003
1730.958
1726.79
1722.505
1718.161
1713.849
1709.669
1705.705
1702.005
1698.568
1695.342
1692.242
1689.163
1686.004
1682.682
1679.15
1675.416
1671.546
1667.638
1663.783
1660.046
1656.486
1653.131
1650.011
1646.829
1644.338
1638.232
1767.602
1785.345
1799.433
1806.897
1812.688
1818.571
1821.015
1817.378
1809.805
1803.046
1800.247
1801.18
1803.54
1805.125
1804.985
1803.27
1800.526
1797.203
1793.567
1789.798
1786.057
1782.445
1778.951
1775.46
1771.821
1767.936
1763.807
1759.523
1755.213
1750.982
1746.878
1742.882
1738.921
1734.912
1730.79
1726.539
1722.199
1717.85
1713.594
1709.523
1705.701
1702.148
1698.836
1695.69
1692.61
1689.493
1686.25
1682.82
1679.179
1675.36
1671.447
1667.55
1663.759
1660.127
1656.689
1653.444
1650.396
1647.232
1644.681
1638.374
1777.542
1797.57
1807.108
1812.073
1818.322
1823.393
1822.509
1815.721
1807.716
1803.037
1802.779
1805.017
1807.161
1807.721
1806.544
1804.14
1801.024
1797.502
1793.761
1789.972
1786.284
1782.743
1779.27
1775.709
1771.927
1767.881
1763.631
1759.302
1755.016
1750.85
1746.809
1742.839
1738.854
1734.778
1730.572
1726.25
1721.881
1717.563
1713.394
1709.455
1705.782
1702.368
1699.157
1696.058
1692.965
1689.782
1686.438
1682.896
1679.158
1675.276
1671.348
1667.49
1663.786
1660.272
1656.954
1653.803
1650.798
1647.616
1644.965
1638.451
1792.926
1807.678
1811.827
1817.182
1824.275
1826.749
1821.804
1813.174
1806.553
1804.671
1806.395
1808.935
1810.209
1809.644
1807.639
1804.771
1801.405
1797.735
1793.929
1790.167
1786.555
1783.068
1779.565
1775.883
1771.936
1767.744
1763.416
1759.086
1754.856
1750.759
1746.763
1742.79
1738.753
1734.595
1730.307
1725.936
1721.572
1717.318
1713.266
1709.472
1705.946
1702.651
1699.512
1696.427
1693.29
1690.017
1686.562
1682.913
1679.096
1675.178
1671.265
1667.472
1663.872
1660.48
1657.273
1654.194
1651.198
1647.963
1645.177
1638.461
1809.041
1812.238
1815.614
1823.605
1829.641
1827.642
1819.305
1810.926
1807.048
1807.791
1810.47
1812.429
1812.546
1811.009
1808.43
1805.256
1801.7
1797.918
1794.098
1790.402
1786.869
1783.394
1779.802
1775.962
1771.85
1767.547
1763.189
1758.898
1754.737
1750.701
1746.723
1742.716
1738.606
1734.361
1730.005
1725.615
1721.291
1717.135
1713.219
1709.575
1706.183
1702.983
1699.883
1696.778
1693.569
1690.192
1686.624
1682.881
1679.008
1675.083
1671.213
1667.506
1664.021
1660.748
1657.637
1654.599
1651.578
1648.256
1645.308
1638.411
1813.79
1814.978
1821.699
1830.788
1832.724
1825.865
1816.221
1810.109
1809.364
1811.82
1814.367
1815.223
1814.23
1811.988
1809.037
1805.635
1801.922
1798.074
1794.294
1790.688
1787.207
1783.685
1779.954
1775.94
1771.687
1767.32
1762.977
1758.749
1754.659
1750.661
1746.671
1742.604
1738.407
1734.082
1729.684
1725.308
1721.059
1717.026
1713.259
1709.758
1706.48
1703.345
1700.251
1697.096
1693.794
1690.304
1686.63
1682.812
1678.91
1675.007
1671.205
1667.599
1664.232
1661.069
1658.03
1655.003
1651.923
1648.484
1645.355
1638.309
1818.584
1818.709
1829.753
1836.484
1832.48
1822.401
1814.039
1811.309
1813.078
1816.024
1817.645
1817.282
1815.432
1812.734
1809.52
1805.921
1802.087
1798.235
1794.54
1791.019
1787.538
1783.907
1780.004
1775.825
1771.473
1767.091
1762.797
1758.644
1754.61
1750.622
1746.59
1742.442
1738.157
1733.77
1729.361
1725.035
1720.893
1717.001
1713.383
1710.012
1706.821
1703.717
1700.597
1697.366
1693.957
1690.355
1686.589
1682.72
1678.818
1674.965
1671.251
1667.755
1664.502
1661.431
1658.436
1655.387
1652.216
1648.637
1645.32
1638.165
1814.137
1826.992
1838.627
1838.681
1829.289
1818.968
1813.849
1814.383
1817.424
1819.785
1820.139
1818.75
1816.334
1813.334
1809.893
1806.121
1802.226
1798.436
1794.845
1791.37
1787.821
1784.033
1779.951
1775.64
1771.238
1766.884
1762.661
1758.577
1754.575
1750.566
1746.465
1742.227
1737.864
1733.442
1729.058
1724.817
1720.805
1717.063
1713.586
1710.322
1707.188
1704.082
1700.906
1697.579
1694.058
1690.351
1686.513
1682.621
1678.749
1674.969
1671.356
1667.973
1664.821
1661.82
1658.84
1655.736
1652.446
1648.711
1645.207
1637.994
1822.314
1838.136
1843.645
1836.511
1824.94
1817.216
1815.923
1818.629
1821.623
1822.771
1821.928
1819.829
1817.061
1813.815
1810.158
1806.261
1802.384
1798.699
1795.194
1791.701
1788.023
1784.052
1779.808
1775.411
1771.009
1766.714
1762.568
1758.536
1754.536
1750.476
1746.289
1741.962
1737.542
1733.118
1728.795
1724.669
1720.802
1717.209
1713.856
1710.672
1707.561
1704.421
1701.164
1697.73
1694.098
1690.303
1686.418
1682.532
1678.715
1675.027
1671.524
1668.247
1665.179
1662.22
1659.224
1656.034
1652.606
1648.705
1645.029
1637.811
1832.903
1846.666
1843.656
1831.882
1821.611
1817.926
1819.742
1823.15
1825.139
1824.946
1823.216
1820.69
1817.664
1814.173
1810.328
1806.387
1802.595
1799.025
1795.554
1791.971
1788.12
1783.967
1779.601
1775.169
1770.808
1766.59
1762.511
1758.505
1754.474
1750.338
1746.058
1741.657
1737.209
1732.82
1728.592
1724.603
1720.887
1717.431
1714.179
1711.043
1707.921
1704.719
1701.364
1697.818
1694.086
1690.224
1686.32
1682.467
1678.729
1675.146
1671.753
1668.569
1665.562
1662.616
1659.572
1656.272
1652.69
1648.624
1644.799
1637.633
1847.096
1849.948
1839.382
1827.126
1820.657
1820.925
1824.388
1827.204
1827.777
1826.488
1824.219
1821.421
1818.139
1814.407
1810.444
1806.546
1802.879
1799.391
1795.881
1792.149
1788.106
1783.798
1779.36
1774.942
1770.649
1766.509
1762.478
1758.464
1754.374
1750.147
1745.779
1741.326
1736.886
1732.568
1728.463
1724.623
1721.055
1717.718
1714.537
1711.415
1708.251
1704.964
1701.501
1697.848
1694.033
1690.13
1686.236
1682.441
1678.798
1675.326
1672.035
1668.927
1665.954
1662.991
1659.872
1656.442
1652.698
1648.476
1644.534
1637.476
1856.078
1846.78
1833.742
1824.414
1822.408
1825.394
1828.93
1830.38
1829.635
1827.646
1825.075
1822.029
1818.469
1814.541
1810.558
1806.774
1803.227
1799.756
1796.134
1792.214
1787.99
1783.572
1779.114
1774.749
1770.537
1766.463
1762.449
1758.396
1754.223
1749.9
1745.461
1740.989
1736.595
1732.381
1728.418
1724.731
1721.296
1718.053
1714.91
1711.769
1708.537
1705.149
1701.576
1697.827
1693.953
1690.036
1686.179
1682.464
1678.927
1675.564
1672.363
1669.308
1666.34
1663.331
1660.113
1656.538
1652.635
1648.272
1644.253
1637.356
1853.182
1841.797
1829.618
1824.477
1826.271
1830.296
1832.71
1832.637
1830.974
1828.622
1825.823
1822.486
1818.659
1814.63
1810.724
1807.082
1803.608
1800.075
1796.284
1792.167
1787.795
1783.32
1778.89
1774.602
1770.469
1766.436
1762.406
1758.284
1754.015
1749.606
1745.122
1740.668
1736.356
1732.272
1728.462
1724.92
1721.598
1718.418
1715.28
1712.09
1708.769
1705.272
1701.594
1697.769
1693.86
1689.959
1686.162
1682.542
1679.115
1675.854
1672.725
1669.697
1666.706
1663.624
1660.287
1656.561
1652.508
1648.026
1643.978
1637.289
1851.837
1836.261
1827.33
1827.172
1831.313
1834.718
1835.464
1834.201
1832.065
1829.505
1826.429
1822.77
1818.751
1814.737
1810.974
1807.454
1803.976
1800.307
1796.316
1792.02
1787.552
1783.072
1778.707
1774.504
1770.433
1766.409
1762.329
1758.117
1753.752
1749.277
1744.783
1740.386
1736.186
1732.25
1728.592
1725.18
1721.944
1718.793
1715.628
1712.364
1708.939
1705.333
1701.565
1697.687
1693.772
1689.912
1686.196
1682.679
1679.359
1676.186
1673.107
1670.079
1667.038
1663.86
1660.391
1656.514
1652.325
1647.757
1643.731
1637.287
1844.54
1831.53
1828.46
1832.055
1836.352
1838.071
1837.322
1835.408
1833.067
1830.272
1826.846
1822.904
1818.815
1814.918
1811.311
1807.849
1804.283
1800.425
1796.233
1791.801
1787.291
1782.854
1778.573
1774.448
1770.411
1766.36
1762.203
1757.893
1753.444
1748.932
1744.466
1740.16
1736.098
1732.317
1728.803
1725.497
1722.315
1719.159
1715.939
1712.581
1709.047
1705.34
1701.501
1697.596
1693.703
1689.908
1686.286
1682.874
1679.651
1676.548
1673.495
1670.441
1667.325
1664.032
1660.423
1656.402
1652.102
1647.482
1643.531
1637.362
1837.495
1830.501
1832.595
1837.546
1840.398
1840.323
1838.663
1836.509
1833.993
1830.854
1827.066
1822.953
1818.926
1815.199
1811.707
1808.215
1804.489
1800.421
1796.056
1791.542
1787.044
1782.682
1778.49
1774.421
1770.383
1766.273
1762.02
1757.613
1753.104
1748.592
1744.194
1740.009
1736.099
1732.47
1729.081
1725.853
1722.691
1719.499
1716.199
1712.736
1709.096
1705.303
1701.417
1697.513
1693.668
1689.956
1686.434
1683.123
1679.982
1676.927
1673.875
1670.77
1667.558
1664.136
1660.385
1656.234
1651.853
1647.223
1643.401
1637.521
1833.42
1832.948
1838.25
1842.377
1843.178
1841.839
1839.838
1837.576
1834.761
1831.206
1827.138
1823.003
1819.133
1815.568
1812.112
1808.504
1804.572
1800.303
1795.814
1791.276
1786.835
1782.564
1778.447
1774.403
1770.328
1766.132
1761.778
1757.291
1752.754
1748.281
1743.984
1739.943
1736.19
1732.702
1729.412
1726.228
1723.052
1719.797
1716.4
1712.829
1709.092
1705.234
1701.328
1697.453
1693.677
1690.059
1686.638
1683.416
1680.339
1677.309
1674.234
1671.057
1667.73
1664.172
1660.283
1656.023
1651.594
1646.999
1643.358
1637.768
1832.383
1838.419
1843.928
1845.827
1844.936
1843.069
1841.013
1838.536
1835.287
1831.347
1827.151
1823.131
1819.45
1815.985
1812.47
1808.678
1804.529
1800.096
1795.542
1791.033
1786.678
1782.496
1778.427
1774.372
1770.228
1765.932
1761.483
1756.942
1752.415
1748.019
1743.852
1739.968
1736.366
1732.998
1729.777
1726.603
1723.383
1720.043
1716.54
1712.866
1709.048
1705.15
1701.251
1697.428
1693.739
1690.22
1686.893
1683.745
1680.709
1677.68
1674.56
1671.293
1667.84
1664.14
1660.124
1655.781
1651.346
1646.831
1643.418
1638.102
1837.482
1844.684
1848.102
1847.921
1846.226
1844.313
1842.154
1839.27
1835.548
1831.358
1827.202
1823.375
1819.852
1816.394
1812.734
1808.722
1804.376
1799.833
1795.274
1790.836
1786.576
1782.464
1778.411
1774.308
1770.071
1765.672
1761.148
1756.588
1752.11
1747.825
1743.808
1740.083
1736.619
1733.342
1730.155
1726.958
1723.668
1720.228
1716.619
1712.853
1708.977
1705.065
1701.2
1697.45
1693.856
1690.436
1687.191
1684.096
1681.079
1678.03
1674.846
1671.473
1667.885
1664.046
1659.918
1655.525
1651.128
1646.74
1643.594
1638.516
1844.015
1849.787
1850.743
1849.319
1847.492
1845.6
1843.115
1839.704
1835.603
1831.348
1827.359
1823.732
1820.286
1816.738
1812.873
1808.64
1804.141
1799.552
1795.039
1790.694
1786.522
1782.451
1778.375
1774.194
1769.854
1765.362
1760.791
1756.251
1751.86
1747.713
1743.857
1740.283
1736.932
1733.715
1730.528
1727.278
1723.897
1720.351
1716.642
1712.803
1708.895
1704.996
1701.187
1697.524
1694.029
1690.699
1687.52
1684.457
1681.436
1678.346
1675.084
1671.594
1667.867
1663.895
1659.677
1655.272
1650.96
1646.742
1643.891
1638.997
1850.68
1853.25
1852.313
1850.56
1848.87
1846.789
1843.771
1839.858
1835.562
1831.414
1827.646
1824.163
1820.692
1816.971
1812.876
1808.453
1803.861
1799.285
1794.855
1790.608
1786.5
1782.433
1778.299
1774.021
1769.578
1765.017
1760.435
1755.953
1751.682
1747.692
1743.996
1740.555
1737.289
1734.096
1730.876
1727.548
1724.065
1720.415
1716.621
1712.731
1708.816
1704.955
1701.221
1697.654
1694.255
1691.002
1687.868
1684.814
1681.769
1678.623
1675.269
1671.656
1667.79
1663.696
1659.416
1655.041
1650.863
1646.852
1644.31
1639.524
1855.484
1855.152
1853.532
1851.973
1850.265
1847.704
1844.086
1839.83
1835.546
1831.612
1828.043
1824.608
1821.014
1817.07
1812.754
1808.193
1803.574
1799.06
1794.729
1790.567
1786.49
1782.389
1778.17
1773.786
1769.255
1764.654
1760.101
1755.716
1751.591
1747.764
1744.218
1740.885
1737.668
1734.465
1731.183
1727.761
1724.172
1720.427
1716.566
1712.651
1708.755
1704.954
1701.308
1697.838
1694.526
1691.333
1688.222
1685.157
1682.069
1678.853
1675.399
1671.66
1667.659
1663.461
1659.152
1654.853
1650.853
1647.08
1644.841
1640.069
1857.849
1856.466
1854.938
1853.521
1851.453
1848.24
1844.128
1839.756
1835.644
1831.946
1828.498
1825.003
1821.212
1817.031
1812.534
1807.899
1803.312
1798.892
1794.659
1790.553
1786.469
1782.301
1777.98
1773.495
1768.899
1764.297
1759.813
1755.557
1751.593
1747.928
1744.511
1741.254
1738.05
1734.803
1731.438
1727.912
1724.221
1720.396
1716.493
1712.579
1708.726
1705.002
1701.45
1698.073
1694.833
1691.679
1688.57
1685.474
1682.33
1679.033
1675.474
1671.608
1667.482
1663.203
1658.902
1654.727
1650.946
1647.428
1645.469
1640.598
1859.433
1857.764
1856.538
1854.97
1852.267
1848.42
1844.034
1839.754
1835.892
1832.38
1828.945
1825.296
1821.268
1816.87
1812.252
1807.61
1803.1
1798.784
1794.629
1790.544
1786.415
1782.156
1777.729
1773.159
1768.532
1763.969
1759.59
1755.486
1751.69
1748.173
1744.857
1741.64
1738.414
1735.097
1731.632
1728.002
1724.221
1720.337
1716.416
1712.528
1708.74
1705.104
1701.647
1698.351
1695.165
1692.028
1688.901
1685.759
1682.546
1679.162
1675.494
1671.505
1667.268
1662.936
1658.688
1654.683
1651.154
1647.891
1646.167
1641.072
1860.375
1859.31
1858.221
1856.106
1852.654
1848.358
1843.949
1839.899
1836.275
1832.853
1829.323
1825.454
1821.186
1816.619
1811.948
1807.357
1802.949
1798.728
1794.621
1790.516
1786.313
1781.949
1777.423
1772.795
1768.176
1763.691
1759.449
1755.512
1751.877
1748.485
1745.237
1742.021
1738.743
1735.335
1731.765
1728.036
1724.183
1720.264
1716.351
1712.511
1708.802
1705.26
1701.891
1698.661
1695.507
1692.367
1689.205
1686.004
1682.716
1679.239
1675.462
1671.356
1667.028
1662.68
1658.528
1654.737
1651.48
1648.454
1646.897
1641.448
1861.703
1861.124
1859.679
1856.768
1852.69
1848.218
1843.983
1840.204
1836.741
1833.295
1829.582
1825.466
1820.987
1816.318
1811.66
1807.159
1802.858
1798.709
1794.61
1790.452
1786.151
1781.681
1777.075
1772.424
1767.853
1763.483
1759.401
1755.634
1752.145
1748.846
1745.627
1742.379
1739.021
1735.511
1731.838
1728.026
1724.121
1720.192
1716.31
1712.538
1708.918
1705.469
1702.176
1698.993
1695.849
1692.686
1689.476
1686.209
1682.839
1679.265
1675.379
1671.169
1666.776
1662.452
1658.445
1654.901
1651.92
1649.095
1647.616
1641.682
1863.478
1862.859
1860.674
1856.979
1852.541
1848.148
1844.186
1840.632
1837.223
1833.647
1829.698
1825.341
1820.708
1816.007
1811.418
1807.026
1802.817
1798.704
1794.576
1790.334
1785.927
1781.36
1776.703
1772.068
1767.586
1763.362
1759.452
1755.847
1752.476
1749.235
1746.006
1742.695
1739.241
1735.625
1731.859
1727.981
1724.05
1720.135
1716.306
1712.615
1709.089
1705.724
1702.491
1699.332
1696.178
1692.977
1689.71
1686.37
1682.914
1679.242
1675.252
1670.954
1666.53
1662.275
1658.456
1655.183
1652.462
1649.779
1648.272
1641.73
1865.417
1864.241
1861.144
1856.88
1852.385
1848.235
1844.546
1841.122
1837.652
1833.87
1829.664
1825.107
1820.391
1815.724
1811.237
1806.953
1802.806
1798.69
1794.498
1790.156
1785.642
1781
1776.328
1771.752
1767.395
1763.338
1759.6
1756.137
1752.851
1749.627
1746.356
1742.958
1739.399
1735.682
1731.838
1727.917
1723.983
1720.105
1716.347
1712.746
1709.309
1706.017
1702.822
1699.666
1696.484
1693.234
1689.904
1686.489
1682.945
1679.172
1675.085
1670.722
1666.307
1662.169
1658.575
1655.581
1653.083
1650.464
1648.81
1641.556
1867.284
1865.053
1861.166
1856.672
1852.355
1848.501
1845.012
1841.603
1837.975
1833.94
1829.497
1824.802
1820.077
1815.495
1811.122
1806.924
1802.803
1798.647
1794.365
1789.914
1785.307
1780.621
1775.974
1771.497
1767.294
1763.414
1759.838
1756.487
1753.248
1750.003
1746.659
1743.16
1739.495
1735.689
1731.788
1727.848
1723.934
1720.114
1716.438
1712.929
1709.575
1706.336
1703.158
1699.984
1696.759
1693.453
1690.059
1686.567
1682.93
1679.058
1674.886
1670.489
1666.129
1662.154
1658.811
1656.083
1653.748
1651.1
1649.171
1641.132
1868.559
1865.298
1860.961
1856.536
1852.509
1848.91
1845.514
1842.012
1838.156
1833.861
1829.228
1824.472
1819.802
1815.332
1811.065
1806.919
1802.784
1798.556
1794.17
1789.613
1784.937
1780.244
1775.666
1771.323
1767.294
1763.588
1760.15
1756.875
1753.642
1750.343
1746.905
1743.299
1739.536
1735.658
1731.722
1727.787
1723.916
1720.168
1716.582
1713.162
1709.875
1706.669
1703.486
1700.275
1696.999
1693.635
1690.176
1686.605
1682.874
1678.905
1674.666
1670.272
1666.015
1662.246
1659.166
1656.669
1654.416
1651.632
1649.302
1640.439
1869.165
1865.173
1860.744
1856.569
1852.834
1849.401
1845.986
1842.302
1838.18
1833.652
1828.901
1824.159
1819.589
1815.236
1811.047
1806.915
1802.73
1798.407
1793.911
1789.265
1784.552
1779.894
1775.425
1771.245
1767.396
1763.849
1760.517
1757.277
1754.013
1750.633
1747.089
1743.377
1739.53
1735.603
1731.655
1727.748
1723.939
1720.274
1716.779
1713.437
1710.198
1707.002
1703.793
1700.534
1697.202
1693.781
1690.257
1686.605
1682.777
1678.718
1674.437
1670.09
1665.987
1662.454
1659.629
1657.306
1655.034
1652.005
1649.155
1639.476
1869.197
1864.911
1860.661
1856.791
1853.28
1849.906
1846.371
1842.44
1838.054
1833.35
1828.562
1823.896
1819.446
1815.194
1811.046
1806.888
1802.624
1798.194
1793.595
1788.885
1784.174
1779.595
1775.27
1771.269
1767.596
1764.182
1760.916
1757.671
1754.342
1750.862
1747.209
1743.403
1739.491
1735.536
1731.601
1727.742
1724.008
1720.433
1717.023
1713.744
1710.532
1707.322
1704.071
1700.756
1697.368
1693.893
1690.305
1686.569
1682.642
1678.506
1674.217
1669.965
1666.06
1662.782
1660.182
1657.951
1655.549
1652.165
1648.693
1638.259
1868.895
1864.724
1860.77
1857.166
1853.786
1850.365
1846.624
1842.416
1837.803
1833.003
1828.254
1823.702
1819.369
1815.184
1811.038
1806.821
1802.458
1797.918
1793.234
1788.495
1783.829
1779.37
1775.215
1771.398
1767.88
1764.564
1761.323
1758.035
1754.616
1751.026
1747.27
1743.386
1739.431
1735.473
1731.572
1727.778
1724.129
1720.643
1717.308
1714.071
1710.862
1707.619
1704.312
1700.94
1697.5
1693.975
1690.322
1686.497
1682.475
1678.281
1674.023
1669.916
1666.247
1663.223
1660.794
1658.556
1655.903
1652.066
1647.894
1636.823
1868.593
1864.706
1861.047
1857.637
1854.29
1850.724
1846.717
1842.241
1837.47
1832.659
1828.006
1823.58
1819.34
1815.185
1811.002
1806.7
1802.227
1797.587
1792.845
1788.118
1783.542
1779.236
1775.266
1771.623
1768.232
1764.972
1761.714
1758.353
1754.828
1751.128
1747.282
1743.339
1739.365
1735.425
1731.577
1727.862
1724.302
1720.9
1717.622
1714.406
1711.176
1707.882
1704.515
1701.088
1697.603
1694.029
1690.307
1686.39
1682.281
1678.057
1673.875
1669.961
1666.552
1663.759
1661.423
1659.065
1656.042
1651.671
1646.753
1635.223
1868.424
1864.866
1861.452
1858.15
1854.734
1850.938
1846.643
1841.949
1837.107
1832.359
1827.832
1823.52
1819.338
1815.172
1810.922
1806.516
1801.934
1797.213
1792.451
1787.78
1783.334
1779.206
1775.421
1771.93
1768.628
1765.382
1762.07
1758.611
1754.974
1751.173
1747.254
1743.276
1739.306
1735.406
1731.626
1727.997
1724.526
1721.195
1717.955
1714.733
1711.461
1708.107
1704.68
1701.205
1697.681
1694.057
1690.261
1686.251
1682.07
1677.852
1673.795
1670.113
1666.969
1664.359
1662.021
1659.419
1655.917
1650.959
1645.289
1633.535
1868.449
1865.178
1861.936
1858.648
1855.064
1850.982
1846.419
1841.588
1836.763
1832.129
1827.731
1823.503
1819.338
1815.126
1810.784
1806.268
1801.587
1796.816
1792.076
1787.506
1783.223
1779.283
1775.671
1772.3
1769.043
1765.769
1762.375
1758.804
1755.057
1751.17
1747.2
1743.211
1739.266
1735.423
1731.723
1728.184
1724.794
1721.517
1718.291
1715.04
1711.71
1708.29
1704.809
1701.297
1697.737
1694.06
1690.184
1686.085
1681.855
1677.685
1673.8
1670.378
1667.481
1664.984
1662.532
1659.564
1655.494
1649.926
1643.544
1631.852
1868.656
1865.596
1862.45
1859.076
1855.236
1850.854
1846.086
1841.213
1836.476
1831.978
1827.687
1823.504
1819.318
1815.032
1810.583
1805.957
1801.201
1796.418
1791.746
1787.317
1783.218
1779.465
1776
1772.708
1769.453
1766.116
1762.617
1758.932
1755.086
1751.132
1747.136
1743.158
1739.258
1735.485
1731.872
1728.42
1725.099
1721.855
1718.616
1715.315
1711.917
1708.434
1704.91
1701.368
1697.774
1694.037
1690.076
1685.899
1681.652
1677.577
1673.905
1670.752
1668.061
1665.585
1662.898
1659.452
1654.751
1648.589
1641.582
1630.286
1868.984
1866.087
1862.946
1859.376
1855.227
1850.579
1845.7
1840.875
1836.268
1831.896
1827.678
1823.501
1819.26
1814.878
1810.317
1805.596
1800.796
1796.047
1791.487
1787.23
1783.323
1779.74
1776.386
1773.129
1769.836
1766.406
1762.791
1758.997
1755.069
1751.073
1747.073