/*--------------------------------*- C++ -*----------------------------------*\
| =========                 |                                                 |
| \\      /  F ield         | OpenFOAM: The Open Source CFD Toolbox           |
|  \\    /   O peration     | Version:  2312                                  |
|   \\  /    A nd           | Website:  www.openfoam.com                      |
|    \\/     M anipulation  |                                                 |
\*---------------------------------------------------------------------------*/
FoamFile
{
    version     2.0;
    format      ascii;
    arch        "LSB;label=32;scalar=64";
    class       volScalarField;
    location    "3450";
    object      ILambda_14_0;
}
// * * * * * * * * * * * * * * * * * * * * * * * * * * * * * * * * * * * * * //

dimensions      [1 0 -3 0 0 0 0];

internalField   nonuniform List<scalar> 
12000
(
740.9906
698.9662
701.1256
699.8231
698.739
697.2493
695.9928
695.3132
695.1934
695.4109
695.7293
695.9643
695.988
695.7291
695.1812
694.399
693.4793
692.5337
691.6602
690.9232
690.3443
689.9044
689.5556
689.2387
688.9002
688.5036
688.0314
687.4819
686.8639
686.1912
685.4772
684.7311
683.9536
683.1354
682.257
681.3126
680.3063
679.2376
678.0767
676.791
675.3939
673.9412
672.4839
670.9955
669.3748
667.6081
665.7807
663.8718
661.7008
659.083
656.1761
653.2262
650.1411
646.5064
641.8321
635.0851
624.1915
606.0628
577.209
535.7758
707.624
695.9029
699.3582
697.1936
696.2524
695.4481
695.1885
695.2915
695.5415
695.7417
695.7605
695.5271
695.0289
694.3074
693.4451
692.5417
691.6886
690.9494
690.3501
689.8802
689.5021
689.1646
688.8179
688.4238
687.9615
687.4257
686.8221
686.1622
685.4574
684.7158
683.9388
683.1206
682.2504
681.3165
680.3127
679.2353
678.0751
676.8189
675.4655
674.0374
672.5625
671.042
669.438
667.7038
665.8334
663.8418
661.6974
659.3409
656.7706
654.0473
651.0728
647.3445
641.9348
633.5721
620.6956
601.8643
576.8413
548.1327
522.3431
509.5489
697.6381
696.2791
696.851
695.4242
695.1849
695.1207
695.3351
695.5404
695.592
695.4057
694.9639
694.2987
693.481
692.6027
691.7535
691.0007
690.3774
689.8814
689.4823
689.1342
688.7886
688.4053
687.959
687.4402
686.8518
686.2034
685.5063
684.769
683.9943
683.1788
682.314
681.389
680.3941
679.3225
678.1701
676.9324
675.6071
674.1992
672.7215
671.1813
669.5656
667.8447
665.9946
664.0184
661.9363
659.7467
657.4076
654.8273
651.782
647.7619
641.8601
632.8843
619.6757
601.5558
578.9294
553.9689
530.8562
514.8976
510.1148
515.8769
695.6674
695.7421
695.2812
694.9642
695.1517
695.3143
695.4117
695.2827
694.9066
694.3042
693.5384
692.6924
691.8526
691.089
690.442
689.9186
689.4967
689.1358
688.7897
688.4171
687.9888
687.4904
686.9206
686.2868
685.5997
684.8682
684.0968
683.2841
682.4237
681.5059
680.521
679.4608
678.3202
677.0967
675.7893
674.3987
672.928
671.3803
669.7526
668.0343
666.2146
664.2953
662.2923
660.2113
658.0028
655.508
652.4026
648.1323
641.8769
632.6367
619.5074
602.1121
581.05
558.2097
536.7399
520.4217
512.3503
513.3557
521.1697
531.541
695.2339
695.1142
694.9462
695.1065
695.218
695.1379
694.8344
694.2976
693.5887
692.7822
691.9606
691.1944
690.5297
689.9821
689.5377
689.1625
688.8134
688.4489
688.0372
687.5596
687.0105
686.3941
685.7196
684.9963
684.2299
683.421
682.5652
681.6544
680.6793
679.6314
678.5046
677.2954
676.002
674.624
673.1615
671.6153
669.9862
668.2751
666.4848
664.6237
662.7016
660.7094
658.5757
656.1093
652.9439
648.5071
642.0378
632.691
619.7661
603.0459
583.1468
561.7213
541.3574
525.0839
515.5077
513.8273
519.216
529.1075
540.5101
551.6508
695.0757
694.949
694.9891
694.9832
694.7331
694.2685
693.6202
692.8579
692.0617
691.3008
690.6253
690.0579
689.5932
689.2037
688.8502
688.4919
688.0952
687.6379
687.1103
686.5132
685.8538
685.1411
684.3817
683.5781
682.7277
681.8242
680.859
679.8236
678.7109
677.516
676.2358
674.8688
673.4144
671.874
670.2514
668.5544
666.7952
664.987
663.1354
661.2151
659.1309
656.6673
653.4429
648.8936
642.3117
632.9624
620.2862
604.1688
585.2057
564.8489
545.3108
529.1688
518.7201
515.2687
518.6321
527.161
538.3815
550.0031
560.7004
570.1347
695.0105
694.7751
694.6081
694.212
693.6223
692.9117
692.1458
691.3972
690.7177
690.1355
689.653
689.2497
688.891
688.5377
688.1547
687.7171
687.2115
686.6353
685.9934
685.2937
684.5435
683.7469
682.9032
682.0076
681.0526
680.0296
678.9308
677.75
676.4827
675.1264
673.6809
672.149
670.5378
668.8602
667.1334
665.3734
663.581
661.7173
659.6677
657.1989
653.9248
649.3008
642.6714
633.3855
620.9798
605.4027
587.2215
567.7284
548.8572
532.869
521.8423
517.1078
518.8295
525.9253
536.4149
548.0836
559.1573
568.6375
576.1513
581.5927
694.7072
694.0899
693.6082
692.9351
692.2059
691.4756
690.7978
690.2064
689.7093
689.2931
688.9285
688.5788
688.2085
687.7901
687.307
686.7532
686.1309
685.447
684.7087
683.9212
683.0856
682.1987
681.2539
680.2431
679.1578
677.9906
676.7359
675.3908
673.9554
672.4343
670.838
669.183
667.4894
665.7735
664.0311
662.2123
660.1876
657.7123
654.4012
649.7325
643.0985
633.9158
621.7895
606.7048
589.1965
570.4284
552.121
536.2944
524.8556
519.1312
519.4969
525.2512
534.8097
546.1674
557.4513
567.3304
575.1208
580.6119
583.8225
584.9432
693.9272
692.8867
692.258
691.5287
690.8605
690.2634
689.7552
689.3277
688.9569
688.6095
688.2507
687.8511
687.3909
686.8609
686.2606
685.5951
684.8715
684.0955
683.2696
682.3922
681.4578
680.4588
679.3863
678.2321
676.99
675.6565
674.2327
672.7248
671.1462
669.5159
667.856
666.1811
664.482
662.6995
660.6935
658.2127
654.877
650.1874
643.5788
634.5232
622.6766
608.0459
591.1311
572.9897
555.1725
539.5093
527.7654
521.247
520.4684
525.0019
533.5778
544.4173
555.6835
565.8858
574.0955
579.9335
583.4084
584.751
584.3515
582.7766
692.752
691.4981
690.9267
690.3008
689.7875
689.3487
688.9718
688.6255
688.2768
687.8952
687.4583
686.9535
686.3773
685.7329
685.0266
684.2645
683.4501
682.5831
681.6594
680.6717
679.6114
678.4699
677.2404
675.9195
674.509
673.0169
671.4585
669.855
668.2287
666.5924
664.9314
663.179
661.1877
658.7033
655.3533
650.6612
644.0994
635.1853
623.6141
609.405
593.0239
575.4371
558.0561
542.5554
530.5809
523.4095
521.6491
525.0771
532.6793
542.8907
553.9656
564.353
572.9581
579.2256
583.0669
584.7171
584.612
583.3248
581.5326
579.9272
691.465
690.2516
689.8329
689.3522
688.9725
688.6242
688.2838
687.9189
687.505
687.0263
686.4762
685.8554
685.1691
684.4232
683.6221
682.7667
681.8539
680.8774
679.8291
678.7002
677.4839
676.177
674.7821
673.3084
671.7728
670.1977
668.605
667.0048
665.3778
663.6508
661.6713
659.1852
655.8292
651.1485
644.6485
635.8847
624.5827
610.768
594.8737
577.7871
560.802
545.4627
533.3121
525.5939
522.9801
525.406
532.0676
541.5957
552.3585
562.8023
571.7281
578.4328
582.7051
584.7223
584.9219
583.8945
582.3077
580.8389
580.087
580.4434
690.317
689.279
688.9895
688.6038
688.2733
687.9204
687.5282
687.0756
686.5529
685.9579
685.2941
684.5669
683.7809
682.9383
682.0372
681.0723
680.036
678.9202
677.7182
676.4272
675.0502
673.5977
672.0874
670.5419
668.9824
667.4161
665.8192
664.1136
662.1437
659.6574
656.3021
651.6434
645.2163
636.6082
625.5688
612.1258
596.6813
580.0528
563.4329
548.2541
535.969
527.7863
524.4226
525.9368
531.7005
540.5209
550.8888
561.2827
570.4444
577.5545
582.2801
584.7137
585.2547
584.4863
583.0713
581.6627
580.8192
580.9252
582.126
584.3042
689.397
688.5209
688.2762
687.9001
687.5304
687.0998
686.6046
686.0366
685.3973
684.6909
683.9221
683.0938
682.2053
681.2527
680.2294
679.1277
677.9415
676.6683
675.3119
673.883
672.3999
670.8851
669.3579
667.8231
666.2527
664.5651
662.6031
660.1183
656.7693
652.1414
645.7957
637.3471
626.5641
613.474
598.4494
582.2456
565.9667
550.9475
538.5601
529.9783
525.949
526.63
531.5409
539.6473
549.5637
559.8224
569.1386
576.6052
581.7781
584.6536
585.5696
585.0802
583.8346
582.4752
581.5482
581.4304
582.2839
584.0546
586.5224
589.4054
688.6443
687.8268
687.5414
687.1006
686.6338
686.0902
685.4765
684.7925
684.0427
683.2303
682.3559
681.4166
680.407
679.3205
678.1516
676.8984
675.5646
674.1615
672.7072
671.2233
669.7275
668.2218
666.6749
665.0025
663.0475
660.5664
657.2291
652.6396
646.3826
638.0962
627.5641
614.8109
600.1814
584.3748
568.4169
553.556
541.0918
532.1633
527.5381
527.4541
531.5569
538.9542
548.3811
558.4366
567.8337
575.6017
581.1991
584.5237
585.8385
585.6521
584.5911
583.2873
582.2866
581.9792
582.5586
584.024
586.2338
588.9953
592.1681
595.7346
687.9286
687.0504
686.6698
686.1211
685.5345
684.8711
684.1417
683.3465
682.4874
681.5625
680.5677
679.4974
678.347
677.1149
675.8054
674.4294
673.0047
671.5517
670.0862
668.6075
667.0819
665.4233
663.4756
661.001
657.681
653.1369
646.9748
638.8528
628.5663
616.1361
601.8803
586.4475
570.7931
556.0884
543.5675
534.3352
529.1727
528.3836
531.7216
538.422
547.3353
557.1345
566.5475
574.5609
580.5503
584.3183
586.0456
586.1841
585.3296
584.1012
583.0466
582.5741
582.9153
584.1231
586.1142
588.7476
591.9137
595.5974
599.8897
604.9259
687.1253
686.0972
685.602
684.9307
684.2231
683.4434
682.6002
681.6902
680.7108
679.6574
678.526
677.3159
676.0312
674.6829
673.2879
671.8653
670.429
668.976
667.4703
665.8251
663.8863
661.4221
658.1252
653.6335
647.5717
639.6153
629.5692
617.449
603.5477
588.4678
573.1014
558.5503
545.9887
536.4887
530.8393
529.3984
532.0133
538.0341
546.4202
555.922
565.295
573.4995
579.8428
584.039
586.1837
586.6646
586.0386
584.9096
583.8272
583.2177
583.3478
584.3215
586.1105
588.6149
591.7371
595.4403
599.7585
604.753
610.4324
616.6779
686.153
684.9283
684.3209
683.5256
682.6996
681.8017
680.8372
679.8
678.6875
677.4991
676.2392
674.9184
673.5528
672.1599
670.752
669.3239
667.8379
666.207
664.2795
661.83
658.5623
654.129
648.1721
640.3818
630.5705
618.748
605.1836
590.4378
575.3453
560.945
548.3563
538.6196
532.5277
530.4834
532.4156
537.7772
545.6304
554.8036
564.0885
572.4328
579.089
583.6909
586.2503
587.0852
586.7076
585.7017
584.6183
583.9007
583.8473
584.6061
586.1982
588.5643
591.6212
595.313
599.6282
604.5708
610.0921
616.0187
622.0213
627.677
684.9746
683.5367
682.8235
681.9014
680.9523
679.927
678.8315
677.6633
676.4272
675.1332
673.7962
672.4326
671.0527
669.6493
668.1836
666.5687
664.6557
662.2255
658.9924
654.623
648.7742
641.1495
631.5669
620.03
606.7865
592.3577
577.5265
563.2747
550.6709
540.725
534.2306
531.6276
532.9159
537.6412
544.9612
553.7821
562.9378
571.3742
578.3008
583.2807
586.245
587.4401
587.3276
586.4671
585.4076
584.6092
584.3989
584.9631
586.3651
588.5826
591.5516
595.2068
599.5018
604.3956
609.8066
615.5534
621.3192
626.6701
631.1408
634.3903
683.5759
681.9184
681.0984
680.0421
678.9638
677.81
676.5951
675.3258
674.0164
672.6815
671.3294
669.9514
668.5073
666.9108
665.0157
662.6094
659.4158
655.1142
649.3755
641.9144
632.5538
621.2912
608.3534
594.2264
579.6458
565.5408
552.9333
542.8036
535.9432
532.8229
533.5046
537.6175
544.4083
552.859
561.8499
570.334
577.4887
582.8152
586.1693
587.7255
587.8914
587.1966
586.1851
585.3308
584.9882
585.378
586.6001
588.6643
591.5268
595.122
599.3805
604.2255
609.546
615.1566
620.7666
625.9883
630.3959
633.6261
635.4875
636.0485
681.9431
680.0603
679.131
677.9425
676.7494
675.4985
674.2143
672.9066
671.5822
670.2301
668.8093
667.2337
665.3601
662.9817
659.8316
655.6009
649.9729
642.6726
633.5269
622.5271
609.8812
596.0428
581.7036
567.7448
555.1447
544.8549
537.6624
534.0634
534.1741
537.6987
543.9667
552.0338
560.8292
569.32
576.661
582.3007
586.0253
587.9393
588.3935
587.8832
586.9425
586.0564
585.6043
585.8388
586.8927
588.8043
591.5484
595.0638
599.2689
604.0619
609.3064
614.8076
620.2931
625.4164
629.7981
633.1034
635.1339
635.8952
635.6132
634.6856
680.0622
677.9633
676.9416
675.6551
674.3982
673.1118
671.8136
670.4873
669.0907
667.5382
665.6889
663.3416
660.238
656.0801
650.5626
643.4196
634.4816
623.7341
611.3677
597.8059
583.7007
569.8885
557.3067
546.8789
539.3859
535.3443
534.9175
537.8777
543.6312
551.3046
559.8776
568.3373
575.8243
581.7428
585.8159
588.0807
588.8301
588.5214
587.6739
586.7793
586.2395
586.3367
587.2345
588.9969
591.6161
595.0374
599.1732
603.9062
609.0818
614.4949
619.881
624.9231
629.2816
632.6527
634.8406
635.8209
635.7635
635.0017
633.9507
633.0014
677.951
675.6892
674.6241
673.3015
672.0335
670.7276
669.355
667.826
666.0026
663.6884
660.6331
656.5488
651.1405
644.1509
635.4137
624.9089
612.8111
599.516
585.6387
571.9743
559.4214
548.8765
541.1121
536.6614
535.7287
538.1477
543.3959
550.6681
558.9955
567.3896
574.9841
581.1468
585.5446
588.1504
589.1993
589.1073
588.3743
587.4945
586.8881
586.8654
587.6186
589.2365
591.7279
595.045
599.0982
603.7614
608.868
614.2054
619.5128
624.4912
628.8303
632.254
634.5762
635.753
635.9087
635.319
634.3498
633.369
632.6599
632.3646
675.6965
673.3652
672.3005
670.9554
669.6118
668.1011
666.3034
664.0223
661.0154
657.0039
651.7028
644.8625
636.3193
626.0488
614.21
601.1734
587.5197
574.0051
561.4917
550.8489
542.8401
538.0109
536.6019
538.502
543.2549
550.1206
558.1822
566.4793
574.145
580.5181
585.2155
588.1504
589.5007
589.6386
589.0405
588.198
587.5462
587.4202
588.04
589.5182
591.8803
595.0862
599.0465
603.63
608.6636
613.9303
619.1721
624.1022
628.4301
631.9002
634.3371
635.6868
636.0402
635.625
634.7605
633.7855
632.9793
632.503
632.3812
632.5288
673.4247
671.06
669.9203
668.367
666.5998
664.3456
661.3854
657.4443
652.2472
645.5513
637.1959
627.1516
615.5637
602.7789
589.3455
575.9833
563.5194
552.797
544.5686
539.3894
537.5315
538.9338
543.2017
549.6575
557.4359
565.6079
573.3109
579.8619
584.8337
588.0841
589.7352
590.1141
589.67
588.8869
588.2104
587.9975
588.4945
589.8377
592.0696
595.1589
599.0182
603.5137
608.4687
613.665
618.8482
623.7404
628.0654
631.5819
634.1222
635.626
636.1604
635.9149
635.1681
634.2295
633.3716
632.7716
632.4836
632.4476
632.5348
632.6125
671.1316
668.5077
666.9508
664.6602
661.7505
657.8715
652.7739
646.2166
638.0422
628.2167
616.8724
604.3333
591.1178
577.9109
565.5062
554.7209
546.2957
540.7928
538.5114
539.4362
543.2295
549.2735
556.7541
564.7757
572.4851
579.1829
584.4041
587.9553
589.9049
590.5339
590.2609
589.5583
588.8775
588.5942
588.9789
590.1915
592.2923
595.2605
599.0121
603.4126
608.2837
613.4079
618.5348
623.3952
627.7235
631.2884
633.9266
635.5725
636.2744
636.1915
635.5678
634.6851
633.805
633.1155
632.699
632.5301
632.5054
632.4928
632.386
632.1491
668.4036
664.8193
662.1745
658.2864
653.2907
646.8608
638.8603
629.2456
618.1375
605.8386
592.8386
579.7896
567.4528
556.62
548.019
542.2164
539.5355
540.0019
543.3316
548.9634
556.1339
563.9829
571.6701
578.4854
583.9314
587.768
590.012
590.8982
590.8118
590.2095
589.5443
589.2068
589.4899
590.5765
592.5457
595.3886
599.0267
603.3263
608.109
613.1587
618.2299
623.061
627.3957
631.0102
633.7437
635.5242
636.3839
636.457
635.9585
635.1447
634.2642
633.5101
632.9866
632.7001
632.5773
632.5041
632.3722
632.1181
631.7452
631.3239
664.2016
658.4544
653.8781
647.4836
639.6602
630.2428
619.3633
607.2982
594.511
581.6217
569.3604
558.4937
549.7358
543.6558
540.5975
540.6241
543.5012
548.7218
555.5725
563.2293
570.8685
577.7739
583.4208
587.5267
590.0595
591.2078
591.3215
590.838
590.2076
589.8321
590.0243
590.9898
592.8271
595.5411
599.0605
603.2543
607.945
612.9183
617.9333
622.7359
627.0779
630.7419
633.5679
635.4777
636.4885
636.7124
636.3393
635.6029
634.7387
633.9406
633.3287
632.9357
632.7169
632.5798
632.4229
632.1739
631.8132
631.3796
630.9575
630.6513
656.9609
647.6806
640.5574
631.204
620.5629
608.7181
596.14
583.4104
571.2306
560.3417
551.4437
545.1065
541.6915
541.296
543.7318
548.5437
555.0669
562.5146
570.0826
577.0525
582.8772
587.2361
590.0506
591.4639
591.7893
591.4414
590.8638
590.4663
590.5789
591.4287
593.1344
595.7163
599.1123
603.1959
607.7915
612.687
617.6458
622.4201
626.7691
630.4807
633.396
635.4301
636.5865
636.9573
636.7096
636.0566
635.221
634.3956
633.7118
633.2241
632.913
632.7071
632.5165
632.2663
631.9229
631.5035
631.0709
630.717
630.5394
630.6186
645.1528
631.477
621.9057
610.0851
597.7413
585.161
573.067
562.1648
553.1412
546.5647
542.812
542.0113
544.0174
548.4241
554.6141
561.8385
569.3145
576.3252
582.3057
586.9007
589.9887
591.6681
592.2144
592.0172
591.5098
591.1059
591.1504
591.8906
593.4656
595.9126
599.1809
603.1503
607.6481
612.4648
617.3674
622.1136
626.4687
630.2255
633.2257
635.3788
636.6756
637.1898
637.0675
636.5028
635.7058
634.8665
634.1253
633.5543
633.1564
632.8806
632.6491
632.3891
632.0578
631.657
631.2318
630.8597
630.6333
630.6439
630.9701
631.6669
628.1637
610.4703
599.5485
586.8459
574.8871
563.9653
554.8292
548.0283
543.9551
542.7648
544.3524
548.3584
554.2114
561.2003
568.5657
575.5956
581.7105
586.5251
589.8771
591.8218
592.5965
592.5632
592.1418
591.7469
591.7352
592.3727
593.8189
596.1291
599.2658
603.1169
607.5144
612.2514
617.0979
621.8162
626.1765
629.9757
633.056
635.322
636.7533
637.407
637.4097
636.9375
636.1877
635.3464
634.5604
633.9167
633.4383
633.0933
632.8173
632.5411
632.2163
631.8324
631.4202
631.0449
630.7919
630.7522
631.0117
631.646
632.7194
634.2781
607.0595
587.3214
576.981
565.6996
556.5261
549.4963
545.1194
543.5527
544.7326
548.3427
553.856
560.5993
567.8376
574.8664
581.0956
586.1131
589.7188
591.9265
592.935
593.0771
592.7566
592.3855
592.3298
592.8722
594.1927
596.365
599.3668
603.096
607.3904
612.0465
616.8371
621.5278
625.8926
629.7314
632.8868
635.2592
636.8185
637.607
637.7335
637.3569
636.6616
635.829
635.0096
634.3032
633.7505
633.338
633.0151
632.7184
632.3962
632.0278
631.6309
631.2594
630.9918
630.9178
631.1259
631.6972
632.7021
634.2002
636.2379
638.8381
584.7304
566.1694
558.5493
550.9129
546.3244
544.3723
545.1573
548.3747
553.5465
560.035
567.1312
574.1403
580.4645
585.6683
589.5167
591.9835
593.2295
593.5568
593.3508
593.0179
592.9305
593.3865
594.5851
596.6197
599.484
603.0878
607.2763
611.8501
616.5848
621.2482
625.6169
629.493
632.7189
635.1914
636.8719
637.7897
638.0376
637.7586
637.1243
636.3098
635.4677
634.708
634.0872
633.609
633.2372
632.9159
632.5927
632.2385
631.8593
631.4971
631.2228
631.1235
631.2901
631.8076
632.7502
634.1779
636.1343
638.6409
641.6912
645.2425
565.1756
551.247
547.8681
545.1668
545.6467
548.4523
553.2843
559.5082
566.4485
573.4201
579.8205
585.1939
589.2732
591.9942
593.4796
594.0005
593.9213
593.6402
593.5337
593.9126
594.9944
596.8922
599.6172
603.0926
607.1723
611.6622
616.3404
620.9767
625.3491
629.2605
632.5529
635.1195
636.9145
637.9559
638.3223
638.1418
637.5737
636.786
635.9315
635.1279
634.4453
633.9035
633.4809
633.1306
632.8019
632.4598
632.0996
631.7516
631.4777
631.3608
631.4925
631.9614
632.8455
634.207
636.0884
638.507
641.4486
644.8608
648.6519
652.7013
552.1477
545.2795
546.4303
548.5315
553.0904
559.0198
565.7941
572.7092
579.1675
584.6935
588.9912
591.9598
593.6852
594.4062
594.4649
594.2489
594.1357
594.4473
595.4185
597.1816
599.7664
603.1107
607.0787
611.4824
616.1032
620.7121
625.0879
629.0332
632.3886
635.0441
636.9473
638.1064
638.5875
638.5055
638.0078
637.2548
636.3978
635.5599
634.8226
634.2204
633.7458
633.3623
633.0228
632.6893
632.3478
632.0175
631.7502
631.6228
631.7258
632.1504
632.9784
634.275
636.0837
638.4211
641.2712
644.5795
648.2504
652.1495
656.1171
660.0005
547.7658
548.4454
553.09
558.5501
565.1874
572.0117
578.5117
584.1713
588.6738
591.882
593.8461
594.7724
594.9788
594.8402
594.7329
594.9877
595.8552
597.4869
599.9314
603.1424
606.9958
611.3109
615.8727
620.4536
624.8321
628.8098
632.2254
634.9652
636.9708
638.2418
638.8335
638.8489
638.4244
637.7126
636.8622
635.9998
635.2156
634.5573
634.0307
633.6105
633.2551
632.9254
632.6009
632.2902
632.0347
631.9037
631.9845
632.3694
633.1439
634.3768
636.1137
638.372
641.1362
644.3535
647.9312
651.7384
655.6146
659.3854
662.8872
666.0067
551.7534
558.3996
564.6424
571.3374
577.8685
583.6336
588.3267
591.7639
593.9635
595.098
595.4606
595.4109
595.3218
595.5307
596.3024
597.807
600.1121
603.1882
606.9243
611.1481
615.649
620.2006
624.5809
628.5899
632.0633
634.8835
636.9862
638.3636
639.0614
639.1721
638.8222
638.1568
637.3209
636.4429
635.6202
634.911
634.3338
633.8742
633.4978
633.1667
632.8558
632.565
632.3252
632.1969
632.2622
632.613
633.3372
634.5079
636.1742
638.3554
641.0372
644.1689
647.6619
651.3915
655.2039
658.9285
662.3964
665.4608
668.0198
670.0461
561.6479
571.3046
577.163
583.1149
587.959
591.6115
594.0405
595.3837
595.9089
595.9584
595.8992
596.0732
596.7578
598.1406
600.3082
603.2488
606.8652
610.9948
615.4323
619.953
624.3341
628.3731
631.9023
634.7996
636.9952
638.474
639.2735
639.4769
639.2019
638.5864
637.7716
636.8863
636.033
635.2788
634.6534
634.1529
633.7511
633.4129
633.1109
632.8381
632.6157
632.495
632.5515
632.8743
633.5527
634.6635
636.2604
638.3662
640.9689
644.0198
647.4337
651.0917
654.8468
658.5353
661.9916
665.0664
667.644
669.6564
671.0939
672.017
573.84
583.3365
587.4509
591.474
594.0796
595.6345
596.3243
596.4812
596.4627
596.6126
597.2192
598.4863
600.5193
603.3243
606.8191
610.8518
615.2233
619.7109
624.0913
628.159
631.7422
634.714
636.9988
638.5748
639.4719
639.7653
639.5648
639.0017
638.2133
637.328
636.4517
635.6589
634.9887
634.4474
634.0165
633.6658
633.3672
633.1087
632.9033
632.7932
632.846
633.1467
633.7841
634.8382
636.3671
638.3986
640.9244
643.8987
647.2393
650.8312
654.5332
658.1879
661.6346
664.7253
667.3402
669.4015
670.881
671.8021
672.2367
672.3032
584.9296
591.9751
593.9645
595.9007
596.705
596.9835
597.0115
597.1475
597.6848
598.8428
600.7447
603.4148
606.7865
610.7196
615.022
619.4741
623.8516
627.9464
631.5821
634.6262
636.9972
638.6669
639.6581
640.0387
639.9118
639.4027
638.645
637.7659
636.8739
636.049
635.3385
634.7575
634.2957
633.9279
633.6272
633.3785
633.188
633.0894
633.1423
633.426
634.0275
635.0283
636.4911
638.4488
640.8985
643.7985
647.0699
650.6012
654.2551
657.8789
661.3163
664.4214
667.0733
669.1884
670.7289
671.7056
672.1743
672.2274
671.9833
671.5761
592.8093
596.5913
596.9743
597.5068
597.5434
597.6816
598.1544
599.2098
600.9842
603.5205
606.7679
610.5987
614.8288
619.2422
623.6145
627.7343
631.4206
634.5351
636.9899
638.7503
639.8325
640.2979
640.2434
639.7891
639.0652
638.1976
637.2962
636.4457
635.6998
635.0815
634.5881
634.2
633.8925
633.6489
633.4703
633.3828
633.4383
633.7095
634.2801
635.2319
636.631
638.5159
640.8896
643.7159
646.9201
650.3942
654.0042
657.6006
661.0303
664.1491
666.8357
669.0026
670.6052
671.6452
672.1683
672.2569
672.0193
671.576
671.0479
670.5456
597.095
598.2352
598.0352
598.2435
598.6284
599.5918
601.2391
603.6427
606.7644
610.4901
614.6444
619.0155
623.3793
627.5217
631.2566
634.4395
636.9761
638.8248
639.9955
640.5434
640.56
640.1609
639.473
638.6209
637.7158
636.8454
636.0691
635.4167
634.8922
634.4816
634.1633
633.9201
633.7498
633.672
633.7313
633.9936
634.5384
635.4461
636.7852
638.5992
640.8974
643.6499
646.7874
650.206
653.7748
657.3467
660.7705
663.9033
666.6231
668.8397
670.503
671.6069
672.189
672.3239
672.1129
671.6717
671.1169
670.5542
670.0701
669.7271
598.8628
598.8719
599.1281
600.0061
601.5144
603.7866
606.7787
610.396
614.4701
618.7948
623.1465
627.3084
631.0895
634.3389
636.9553
638.8904
640.1475
640.7763
640.8629
640.519
639.8686
639.0354
638.131
637.2459
636.4441
635.7609
635.2065
634.7721
634.4397
634.1928
634.0266
633.956
634.0189
634.2748
634.7979
635.6666
636.9502
638.6964
640.9205
643.5994
646.6701
650.0337
653.5626
657.112
660.5318
663.6794
666.4319
668.6967
670.419
671.5865
672.2291
672.4142
672.2373
671.8102
671.2478
670.655
670.1178
669.6967
669.4262
669.3189
599.9331
600.4666
601.8505
603.964
606.819
610.3218
614.3094
618.5823
622.917
627.0947
630.919
634.2327
636.9273
638.9472
640.2894
640.9976
641.1534
640.8647
640.2532
639.4414
638.5415
637.6463
636.8233
636.1129
635.5305
635.0721
634.7232
634.4687
634.3025
634.2359
634.301
634.5514
635.0559
635.8898
637.1225
638.8045
640.9566
643.5625
646.5661
649.8741
653.3633
656.8911
660.3081
663.4716
666.2571
668.5694
670.3497
671.5803
672.2844
672.5226
672.3844
671.9779
671.4161
670.805
670.2324
669.761
669.4255
669.2345
669.1773
669.2353
602.0502
604.272
606.9173
610.2797
614.1715
618.3828
622.6939
626.882
630.7458
634.1211
636.8919
638.9954
640.4215
641.2084
641.4329
641.1996
640.6279
639.8397
638.9477
638.0463
637.2063
636.4722
635.8639
635.382
635.0152
634.7502
634.5804
634.5143
634.5795
634.8241
635.3119
636.1146
637.3005
638.922
641.0047
643.5386
646.4746
649.7259
653.1741
656.6795
660.094
663.2738
666.0927
668.4524
670.2903
671.5836
672.3499
672.6435
672.5485
672.1681
671.6134
670.9907
670.3905
669.8794
669.496
669.251
669.1325
669.1136
669.163
669.2593
606.2638
610.5089
614.059
618.2142
622.485
626.6747
630.572
634.005
636.8496
639.035
640.5442
641.4092
641.7023
641.5247
640.994
640.2311
639.3495
638.4453
637.592
636.8376
636.206
635.7016
635.3165
635.0389
634.8624
634.7936
634.8566
635.0945
635.5666
636.3408
637.4836
639.0486
641.0649
643.5284
646.3967
649.5899
652.995
656.4761
659.8865
663.0818
665.9337
668.3406
670.2356
671.5914
672.4202
672.7709
672.7223
672.3734
671.8325
671.2051
670.5836
670.0383
669.613
669.3232
669.1602
669.0971
669.0986
669.1296
669.1657
669.2033
612.6682
618.4523
622.2583
626.4982
630.4032
633.8884
636.8021
639.0671
640.6582
641.6008
641.9624
641.8409
641.3519
640.616
639.747
638.8428
637.9792
637.2076
636.5551
636.0296
635.6261
635.3346
635.1492
635.075
635.1333
635.3634
635.82
636.5676
637.6707
639.183
641.1364
643.5317
646.3331
649.4673
652.8274
656.2817
659.6854
662.8943
665.7779
668.2311
670.1827
671.6004
672.4916
672.9001
672.9001
672.5865
672.0648
671.4395
670.8037
670.2305
669.768
669.4371
669.2338
669.1347
669.1046
669.1062
669.1074
669.0886
669.0472
669.0028
620.5087
626.8079
630.1815
633.8038
636.7529
639.0963
640.7654
641.7846
642.2144
642.1493
641.7028
640.9949
640.1402
639.2381
638.3669
637.5805
636.9093
636.3643
635.9427
635.6366
635.4404
635.3584
635.4098
635.6304
636.0714
636.7937
637.8596
639.3227
641.2167
643.5467
646.2827
649.3578
652.6713
656.0964
659.4909
662.711
665.6244
668.1227
670.1301
671.6093
672.5627
673.0294
673.079
672.8031
672.3046
671.6866
671.0426
670.4479
669.9539
669.5861
669.3452
669.2118
669.1536
669.1331
669.116
669.0778
669.0073
668.9083
668.7997
668.716
628.5452
634.2043
636.6366
639.1585
640.8684
641.9661
642.461
642.452
642.0482
641.3693
640.5301
639.6317
638.7547
637.9555
637.2675
636.7042
636.2652
635.9439
635.7356
635.6439
635.6862
635.8957
636.3204
637.018
638.0487
639.4653
641.3032
643.5707
646.2431
649.2596
652.5256
655.9193
659.3019
662.5305
665.4715
668.0134
670.0758
671.6165
672.6323
673.1576
673.258
673.0216
672.549
671.9422
671.2949
670.6839
670.1636
669.7633
669.4881
669.3226
669.2372
669.1959
669.164
669.1144
669.0319
668.9149
668.7749
668.6333
668.5197
668.4701
635.5132
639.6288
640.9144
642.1806
642.7048
642.7554
642.3915
641.7416
640.9184
640.0247
639.1431
638.3327
637.6293
637.0487
636.5928
636.2564
636.035
635.9321
635.9635
636.1603
636.5676
637.2405
638.2373
639.6098
641.3943
643.602
646.2128
649.1714
652.3892
655.7496
659.1175
662.3515
665.3175
667.901
670.0175
671.6192
672.6979
673.2827
673.4351
673.2399
672.7956
672.2032
671.5565
670.9338
670.3918
669.9633
669.6571
669.4618
669.3506
669.2894
669.2434
669.1841
669.094
668.9681
668.8141
668.6493
668.4976
668.3854
668.3398
668.388
640.5195
642.6783
642.9208
643.0898
642.7366
642.1184
641.3084
640.4197
639.5338
638.7128
637.9948
637.3979
636.9256
636.5739
636.339
636.2237
636.2428
636.4255
636.8145
637.4626
638.4261
639.7562
641.4897
643.6402
646.1913
649.0931
652.2624
655.5879
658.9383
662.1746
665.1624
667.7848
669.9535
671.6156
672.7572
673.4024
673.608
673.4557
673.0418
672.4665
671.8237
671.193
670.6335
670.1807
669.8471
669.6245
669.4892
669.409
669.3497
669.2819
669.1859
669.0541
668.8916
668.7133
668.5408
668.3981
668.3084
668.291
668.3619
668.5356
643.2563
643.5732
643.091
642.5228
641.7059
640.8224
639.9297
639.098
638.3653
637.7522
637.2637
636.8967
636.6478
636.5194
636.5252
636.6927
637.0627
637.6857
638.6165
639.9055
641.5899
643.6854
646.1789
649.025
652.146
655.4353
658.7661
662.0015
665.0076
667.6661
669.8847
671.6058
672.81
673.5159
673.7758
673.6678
673.286
672.7297
672.0933
671.4576
670.8837
670.4102
670.0523
669.8051
669.6477
669.5498
669.4782
669.403
669.3027
669.1674
668.9994
668.8115
668.6242
668.4608
668.3435
668.2907
668.3145
668.4216
668.6148
668.8982
643.9896
642.9666
642.1473
641.2489
640.3381
639.4932
638.7433
638.1132
637.6078
637.2252
636.9618
636.8197
636.8115
636.963
637.3132
637.9109
638.8094
640.0583
641.6953
643.7377
646.1754
648.9674
652.0404
655.2929
658.602
661.8338
664.8551
667.5464
669.8124
671.5909
672.857
673.6239
673.939
673.8766
673.5284
672.9928
672.3644
671.7255
671.1396
670.6476
670.2679
669.9983
669.8206
669.7063
669.6233
669.5415
669.4384
669.3019
669.1316
668.938
668.7398
668.5598
668.4207
668.3415
668.3345
668.405
668.5517
668.769
669.0505
669.396
643.363
641.6486
640.8146
639.9087
639.1372
638.4852
637.9604
637.5607
637.2818
637.1251
637.1021
637.2369
637.5669
638.1391
639.0056
640.2152
641.8061
643.7969
646.1805
648.9195
651.9451
655.1603
658.4464
661.6721
664.7057
667.4268
669.7375
671.5714
672.8985
673.7266
674.0978
674.0825
673.7696
673.2563
672.6376
671.9971
671.4005
670.8915
670.4915
670.2009
670.004
669.8742
669.7803
669.6926
669.5875
669.4512
669.2811
669.0854
668.8807
668.6885
668.5317
668.4299
668.3971
668.4397
668.5562
668.739
668.9768
669.2573
669.5717
669.922
642.1176
640.2759
639.6107
638.8755
638.3306
637.9071
637.6103
637.4373
637.3982
637.5156
637.8247
638.3712
639.2057
640.3766
641.9222
643.8628
646.1936
648.8805
651.8591
655.0367
658.2984
661.516
664.5591
667.307
669.6597
671.547
672.934
673.823
674.2512
674.2845
674.0089
673.5201
672.9129
672.2725
671.6666
671.1418
670.7224
670.4117
670.1963
670.0514
669.9468
669.8531
669.7461
669.6107
669.4424
669.247
669.0393
668.8393
668.6692
668.549
668.4939
668.5116
668.6025
668.7595
668.9704
669.2202
669.4941
669.7807
670.075
670.3855
640.8495
639.2272
638.7816
638.2716
637.9569
637.7602
637.7029
637.801
638.0883
638.6086
639.411
640.5434
642.0445
643.9357
646.2145
648.8501
651.782
654.9215
658.1575
661.3649
664.4148
667.1866
669.5786
671.5169
672.9623
673.9119
674.3976
674.4809
674.2445
673.7822