/*--------------------------------*- C++ -*----------------------------------*\
| =========                 |                                                 |
| \\      /  F ield         | OpenFOAM: The Open Source CFD Toolbox           |
|  \\    /   O peration     | Version:  2312                                  |
|   \\  /    A nd           | Website:  www.openfoam.com                      |
|    \\/     M anipulation  |                                                 |
\*---------------------------------------------------------------------------*/
FoamFile
{
    version     2.0;
    format      ascii;
    arch        "LSB;label=32;scalar=64";
    class       volScalarField;
    location    "3450";
    object      ILambda_5_0;
}
// * * * * * * * * * * * * * * * * * * * * * * * * * * * * * * * * * * * * * //

dimensions      [1 0 -3 0 0 0 0];

internalField   nonuniform List<scalar> 
12000
(
1902.508
1909.812
1918.294
1927.39
1936.395
1944.551
1951.095
1955.327
1956.704
1954.932
1950.033
1942.363
1932.583
1921.596
1910.445
1900.204
1891.865
1886.235
1883.86
1884.981
1889.524
1897.111
1907.111
1918.703
1930.953
1942.891
1953.587
1962.219
1968.121
1970.82
1970.048
1965.747
1958.052
1947.266
1933.826
1918.263
1901.163
1883.126
1864.738
1846.532
1828.976
1812.45
1797.242
1783.545
1771.463
1761.013
1752.144
1744.748
1738.672
1733.735
1729.742
1726.496
1723.808
1721.504
1719.434
1717.467
1715.536
1713.438
1711.692
1707.954
1957.061
1968.452
1976.875
1981.652
1982.191
1978.117
1969.428
1956.622
1940.728
1923.211
1905.806
1890.295
1878.292
1871.053
1869.343
1873.364
1882.754
1896.649
1913.789
1932.653
1951.614
1969.082
1983.633
1994.115
1999.706
1999.957
1994.786
1984.453
1969.504
1950.71
1928.993
1905.345
1880.767
1856.201
1832.483
1810.31
1790.214
1772.559
1757.541
1745.202
1735.453
1728.095
1722.85
1719.385
1717.342
1716.362
1716.1
1716.245
1716.529
1716.735
1716.699
1716.311
1715.508
1714.273
1712.629
1710.617
1708.341
1705.753
1703.504
1699.278
1994.811
1989.832
1980.778
1967.38
1950.08
1930.109
1909.361
1890.089
1874.525
1864.521
1861.285
1865.237
1876
1892.482
1913.042
1935.703
1958.365
1979.021
1995.928
2007.734
2013.555
2012.999
2006.142
1993.475
1975.817
1954.219
1929.862
1903.962
1877.682
1852.066
1827.989
1806.127
1786.942
1770.691
1757.437
1747.082
1739.393
1734.04
1730.634
1728.754
1727.982
1727.924
1728.227
1728.593
1728.788
1728.639
1728.036
1726.928
1725.31
1723.221
1720.727
1717.921
1714.903
1711.783
1708.667
1705.652
1702.83
1700.245
1698.135
1695.437
1960.472
1941.202
1919.07
1896.03
1875.198
1859.764
1852.192
1853.766
1864.463
1883.069
1907.471
1935.016
1962.872
1988.362
2009.208
2023.709
2030.824
2030.183
2022.027
2007.11
1986.569
1961.786
1934.25
1905.433
1876.694
1849.201
1823.881
1801.403
1782.173
1766.354
1753.896
1744.578
1738.047
1733.87
1731.567
1730.654
1730.667
1731.192
1731.874
1732.43
1732.651
1732.398
1731.598
1730.235
1728.341
1725.982
1723.25
1720.252
1717.102
1713.911
1710.785
1707.818
1705.09
1702.666
1700.593
1698.91
1697.613
1696.773
1696.176
1696.33
1885.94
1862.922
1845.522
1839.179
1846.082
1865.45
1894.418
1928.983
1964.817
1997.904
2024.965
2043.693
2052.815
2052.049
2041.954
2023.746
1999.082
1969.853
1937.995
1905.336
1873.477
1843.724
1817.041
1794.052
1775.057
1760.074
1748.889
1741.114
1736.245
1733.713
1732.936
1733.353
1734.457
1735.813
1737.069
1737.963
1738.316
1738.029
1737.071
1735.468
1733.287
1730.628
1727.607
1724.351
1720.984
1717.625
1714.38
1711.342
1708.585
1706.168
1704.131
1702.503
1701.294
1700.506
1700.127
1700.146
1700.51
1701.286
1702.057
1704.244
1828.398
1833.09
1862.935
1908.004
1958.296
2005.656
2044.257
2070.565
2083.071
2081.922
2068.494
2044.976
2013.989
1978.273
1940.432
1902.76
1867.126
1834.926
1807.076
1784.048
1765.928
1752.487
1743.266
1737.65
1734.939
1734.416
1735.39
1737.235
1739.415
1741.5
1743.166
1744.192
1744.454
1743.91
1742.583
1740.549
1737.92
1734.828
1731.417
1727.83
1724.2
1720.649
1717.281
1714.182
1711.418
1709.039
1707.075
1705.544
1704.451
1703.789
1703.544
1703.695
1704.213
1705.068
1706.224
1707.648
1709.279
1711.168
1712.843
1716.12
1884.025
1989.628
2065.92
2112.758
2132.699
2129.798
2108.859
2074.875
2032.619
1986.35
1939.628
1895.236
1855.171
1820.693
1792.414
1770.415
1754.357
1743.611
1737.358
1734.695
1734.706
1736.524
1739.379
1742.618
1745.722
1748.304
1750.107
1750.987
1750.897
1749.867
1747.986
1745.385
1742.216
1738.645
1734.832
1730.93
1727.076
1723.387
1719.957
1716.86
1714.152
1711.867
1710.026
1708.634
1707.688
1707.175
1707.075
1707.365
1708.014
1708.993
1710.266
1711.797
1713.548
1715.479
1717.548
1719.716
1721.922
1724.202
1726.136
1729.39
2313.621
2260.527
2196.523
2126.783
2056.316
1989.152
1928.19
1875.267
1831.293
1796.424
1770.232
1751.881
1740.274
1734.185
1732.364
1733.616
1736.863
1741.173
1745.786
1750.112
1753.728
1756.36
1757.867
1758.214
1757.45
1755.689
1753.084
1749.812
1746.06
1742.01
1737.831
1733.672
1729.664
1725.908
1722.487
1719.458
1716.86
1714.714
1713.027
1711.797
1711.01
1710.648
1710.689
1711.106
1711.871
1712.953
1714.32
1715.937
1717.767
1719.774
1721.916
1724.152
1726.44
1728.737
1731.001
1733.194
1735.266
1737.232
1738.827
1741.111
1972.844
1906.407
1851.21
1807.509
1774.674
1751.59
1736.874
1729.028
1726.549
1728.01
1732.126
1737.783
1744.059
1750.226
1755.743
1760.24
1763.496
1765.417
1766.008
1765.355
1763.599
1760.915
1757.5
1753.553
1749.268
1744.825
1740.383
1736.077
1732.017
1728.289
1724.955
1722.056
1719.614
1717.638
1716.125
1715.063
1714.435
1714.217
1714.386
1714.915
1715.777
1716.943
1718.383
1720.065
1721.956
1724.02
1726.217
1728.509
1730.852
1733.204
1735.522
1737.765
1739.894
1741.874
1743.675
1745.275
1746.652
1747.809
1748.682
1749.584
1752.543
1742.562
1737.67
1736.945
1739.279
1743.63
1749.093
1754.917
1760.512
1765.435
1769.38
1772.163
1773.703
1774.003
1773.134
1771.216
1768.404
1764.872
1760.803
1756.379
1751.77
1747.132
1742.603
1738.294
1734.298
1730.682
1727.492
1724.758
1722.49
1720.69
1719.346
1718.441
1717.955
1717.864
1718.142
1718.764
1719.704
1720.936
1722.433
1724.165
1726.103
1728.212
1730.455
1732.793
1735.185
1737.586
1739.954
1742.245
1744.419
1746.44
1748.275
1749.9
1751.297
1752.459
1753.385
1754.082
1754.568
1754.858
1755.01
1754.904
1757.07
1759.694
1763.054
1766.751
1770.368
1773.548
1776.018
1777.596
1778.182
1777.749
1776.334
1774.025
1770.944
1767.239
1763.07
1758.602
1753.994
1749.391
1744.923
1740.7
1736.809
1733.313
1730.257
1727.664
1725.542
1723.888
1722.685
1721.914
1721.55
1721.568
1721.94
1722.643
1723.65
1724.939
1726.484
1728.259
1730.236
1732.383
1734.667
1737.048
1739.486
1741.935
1744.352
1746.691
1748.91
1750.969
1752.837
1754.485
1755.895
1757.059
1757.976
1758.656
1759.117
1759.385
1759.492
1759.477
1759.377
1759.239
1759.089
1758.927
1772.048
1775.553
1778.454
1780.484
1781.472
1781.351
1780.14
1777.928
1774.851
1771.075
1766.783
1762.163
1757.394
1752.639
1748.043
1743.725
1739.778
1736.268
1733.238
1730.706
1728.674
1727.129
1726.048
1725.402
1725.159
1725.288
1725.76
1726.546
1727.623
1728.967
1730.557
1732.371
1734.382
1736.563
1738.882
1741.303
1743.783
1746.279
1748.744
1751.132
1753.396
1755.496
1757.394
1759.063
1760.483
1761.642
1762.543
1763.195
1763.617
1763.84
1763.899
1763.835
1763.691
1763.515
1763.349
1763.236
1763.202
1763.314
1763.443
1764.121
1787.837
1788.063
1786.795
1784.234
1780.641
1776.28
1771.401
1766.236
1760.993
1755.852
1750.965
1746.452
1742.4
1738.867
1735.883
1733.454
1731.566
1730.19
1729.29
1728.823
1728.748
1729.025
1729.622
1730.508
1731.661
1733.061
1734.69
1736.531
1738.564
1740.767
1743.111
1745.561
1748.078
1750.617
1753.13
1755.567
1757.879
1760.021
1761.953
1763.644
1765.071
1766.224
1767.101
1767.716
1768.09
1768.254
1768.25
1768.122
1767.917
1767.686
1767.476
1767.332
1767.291
1767.384
1767.634
1768.055
1768.638
1769.433
1770.17
1771.849
1787.291
1781.396
1775.391
1769.433
1763.659
1758.191
1753.133
1748.568
1744.559
1741.142
1738.329
1736.11
1734.454
1733.32
1732.655
1732.405
1732.521
1732.957
1733.675
1734.649
1735.857
1737.286
1738.926
1740.766
1742.795
1744.997
1747.347
1749.814
1752.36
1754.939
1757.5
1759.991
1762.357
1764.548
1766.521
1768.238
1769.676
1770.821
1771.673
1772.245
1772.561
1772.657
1772.577
1772.37
1772.09
1771.791
1771.524
1771.336
1771.27
1771.356
1771.617
1772.066
1772.705
1773.525
1774.509
1775.631
1776.847
1778.162
1779.312
1781.239
1763.689
1758.94
1754.457
1750.346
1746.697
1743.575
1741.023
1739.049
1737.632
1736.731
1736.288
1736.241
1736.53
1737.102
1737.919
1738.952
1740.185
1741.612
1743.23
1745.04
1747.039
1749.217
1751.558
1754.034
1756.606
1759.228
1761.846
1764.4
1766.832
1769.085
1771.109
1772.862
1774.316
1775.456
1776.282
1776.806
1777.057
1777.075
1776.907
1776.609
1776.24
1775.859
1775.522
1775.281
1775.178
1775.249
1775.515
1775.989
1776.67
1777.548
1778.601
1779.799
1781.105
1782.477
1783.868
1785.229
1786.514
1787.673
1788.631
1789.623
1750.894
1747.678
1744.937
1742.807
1741.322
1740.446
1740.103
1740.199
1740.642
1741.352
1742.271
1743.364
1744.615
1746.023
1747.598
1749.352
1751.296
1753.431
1755.748
1758.223
1760.82
1763.49
1766.174
1768.805
1771.318
1773.647
1775.735
1777.534
1779.011
1780.148
1780.945
1781.416
1781.593
1781.52
1781.251
1780.848
1780.377
1779.901
1779.484
1779.18
1779.035
1779.084
1779.352
1779.847
1780.569
1781.503
1782.625
1783.9
1785.288
1786.741
1788.21
1789.645
1790.994
1792.21
1793.251
1794.074
1794.663
1794.927
1795.079
1794.283
1744.002
1743.116
1742.995
1743.461
1744.314
1745.394
1746.596
1747.866
1749.192
1750.595
1752.108
1753.771
1755.619
1757.671
1759.934
1762.389
1765.003
1767.723
1770.483
1773.207
1775.819
1778.243
1780.411
1782.268
1783.775
1784.912
1785.677
1786.087
1786.178
1786
1785.615
1785.092
1784.503
1783.92
1783.411
1783.036
1782.844
1782.87
1783.139
1783.659
1784.424
1785.418
1786.611
1787.965
1789.434
1790.968
1792.513
1794.016
1795.424
1796.687
1797.761
1798.608
1799.197
1799.503
1799.513
1799.21
1798.623
1797.641
1796.731
1794.088
1746.97
1749.368
1751.381
1753.055
1754.484
1755.79
1757.095
1758.509
1760.119
1761.978
1764.108
1766.501
1769.116
1771.891
1774.747
1777.592
1780.333
1782.88
1785.152
1787.085
1788.632
1789.77
1790.498
1790.837
1790.827
1790.527
1790.006
1789.343
1788.619
1787.914
1787.303
1786.85
1786.606
1786.61
1786.883
1787.432
1788.248
1789.31
1790.582
1792.021
1793.577
1795.194
1796.815
1798.382
1799.842
1801.143
1802.242
1803.099
1803.685
1803.978
1803.962
1803.632
1802.99
1802.044
1800.812
1799.308
1797.587
1795.547
1793.773
1789.952
1762.274
1762.641
1763.015
1763.631
1764.632
1766.083
1767.987
1770.304
1772.959
1775.857
1778.885
1781.925
1784.861
1787.583
1789.997
1792.028
1793.626
1794.764
1795.445
1795.695
1795.561
1795.113
1794.431
1793.604
1792.724
1791.88
1791.153
1790.614
1790.317
1790.3
1790.583
1791.171
1792.049
1793.189
1794.552
1796.086
1797.736
1799.442
1801.14
1802.772
1804.28
1805.613
1806.726
1807.582
1808.153
1808.417
1808.363
1807.987
1807.294
1806.295
1805.008
1803.455
1801.666
1799.672
1797.509
1795.206
1792.829
1790.295
1788.154
1784.158
1767.147
1768.368
1770.392
1773.04
1776.119
1779.455
1782.893
1786.294
1789.531
1792.489
1795.073
1797.207
1798.842
1799.958
1800.562
1800.689
1800.397
1799.767
1798.891
1797.871
1796.81
1795.808
1794.953
1794.321
1793.969
1793.936
1794.238
1794.876
1795.829
1797.063
1798.529
1800.172
1801.926
1803.727
1805.507
1807.204
1808.758
1810.117
1811.237
1812.082
1812.624
1812.847
1812.742
1812.307
1811.549
1810.484
1809.13
1807.515
1805.666
1803.619
1801.408
1799.072
1796.649
1794.176
1791.692
1789.23
1786.839
1784.466
1782.512
1779.254
1778.414
1783.301
1787.624
1791.501
1794.979
1798.048
1800.665
1802.782
1804.358
1805.375
1805.842
1805.799
1805.31
1804.463
1803.364
1802.126
1800.863
1799.686
1798.693
1797.963
1797.558
1797.514
1797.846
1798.548
1799.593
1800.937
1802.524
1804.288
1806.159
1808.063
1809.929
1811.691
1813.288
1814.667
1815.786
1816.609
1817.114
1817.285
1817.116
1816.61
1815.778
1814.636
1813.207
1811.519
1809.603
1807.495
1805.231
1802.85
1800.39
1797.892
1795.391
1792.925
1790.527
1788.228
1786.055
1784.03
1782.177
1780.47
1779.113
1777.122
1803.629
1805.135
1806.828
1808.446
1809.764
1810.635
1810.986
1810.814
1810.166
1809.129
1807.817
1806.359
1804.887
1803.524
1802.382
1801.548
1801.088
1801.039
1801.413
1802.195
1803.349
1804.822
1806.547
1808.449
1810.448
1812.463
1814.419
1816.246
1817.881
1819.273
1820.38
1821.171
1821.626
1821.733
1821.49
1820.904
1819.988
1818.763
1817.253
1815.487
1813.5
1811.326
1809.005
1806.574
1804.074
1801.544
1799.022
1796.545
1794.145
1791.855
1789.701
1787.705
1785.886
1784.259
1782.83
1781.605
1780.581
1779.744
1779.127
1778.422
1810.147
1813.116
1814.765
1815.29
1814.925
1813.903
1812.445
1810.76
1809.034
1807.433
1806.093
1805.119
1804.582
1804.52
1804.939
1805.814
1807.098
1808.723
1810.608
1812.667
1814.808
1816.944
1818.993
1820.882
1822.549
1823.944
1825.027
1825.772
1826.162
1826.192
1825.864
1825.188
1824.182
1822.867
1821.272
1819.427
1817.367
1815.128
1812.748
1810.268
1807.726
1805.162
1802.615
1800.122
1797.715
1795.427
1793.285
1791.311
1789.524
1787.937
1786.559
1785.391
1784.432
1783.675
1783.109
1782.719
1782.484
1782.39
1782.376
1782.525
1825.661
1822.477
1819.374
1816.464
1813.848
1811.616
1809.851
1808.615
1807.95
1807.868
1808.351
1809.354
1810.808
1812.626
1814.71
1816.957
1819.263
1821.532
1823.678
1825.626
1827.314
1828.695
1829.737
1830.416
1830.725
1830.662
1830.235
1829.46
1828.356
1826.948
1825.267
1823.343
1821.211
1818.909
1816.473
1813.945
1811.362
1808.765
1806.192
1803.68
1801.264
1798.974
1796.839
1794.881
1793.118
1791.565
1790.229
1789.112
1788.21
1787.517
1787.02
1786.702
1786.544
1786.523
1786.615
1786.797
1787.039
1787.322
1787.586
1787.949
1812.905
1811.856
1810.972
1810.394
1810.229
1810.55
1811.38
1812.701
1814.456
1816.558
1818.902
1821.378
1823.873
1826.285
1828.524
1830.517
1832.205
1833.549
1834.522
1835.111
1835.314
1835.138
1834.598
1833.712
1832.504
1831.001
1829.234
1827.234
1825.036
1822.674
1820.188
1817.615
1814.995
1812.366
1809.768
1807.238
1804.809
1802.515
1800.383
1798.437
1796.695
1795.17
1793.871
1792.798
1791.948
1791.313
1790.878
1790.625
1790.535
1790.583
1790.744
1790.991
1791.298
1791.64
1791.992
1792.331
1792.639
1792.886
1793.087
1793.124
1816.381
1816.201
1816.56
1817.547
1819.128
1821.193
1823.595
1826.177
1828.787
1831.293
1833.588
1835.591
1837.244
1838.514
1839.382
1839.847
1839.917
1839.607
1838.937
1837.931
1836.616
1835.02
1833.172
1831.102
1828.844
1826.432
1823.901
1821.289
1818.635
1815.977
1813.353
1810.803
1808.361
1806.06
1803.929
1801.992
1800.267
1798.769
1797.503
1796.472
1795.671
1795.089
1794.712
1794.521
1794.493
1794.603
1794.826
1795.132
1795.496
1795.89
1796.289
1796.671
1797.016
1797.305
1797.527
1797.666
1797.723
1797.662
1797.587
1797.065
1821.285
1823.7
1826.625
1829.791
1832.939
1835.872
1838.456
1840.613
1842.305
1843.525
1844.284
1844.604
1844.516
1844.049
1843.236
1842.104
1840.682
1838.998
1837.079
1834.951
1832.645
1830.192
1827.624
1824.979
1822.293
1819.606
1816.957
1814.385
1811.926
1809.615
1807.481
1805.55
1803.841
1802.367
1801.134
1800.144
1799.39
1798.862
1798.542
1798.411
1798.444
1798.613
1798.893
1799.253
1799.666
1800.104
1800.543
1800.959
1801.332
1801.645
1801.885
1802.041
1802.106
1802.076
1801.951
1801.729
1801.424
1801
1800.622
1799.619
1836.959
1841.192
1844.415
1846.749
1848.33
1849.282
1849.706
1849.686
1849.287
1848.556
1847.532
1846.239
1844.701
1842.934
1840.957
1838.788
1836.45
1833.968
1831.373
1828.699
1825.983
1823.266
1820.587
1817.988
1815.507
1813.181
1811.04
1809.112
1807.416
1805.965
1804.766
1803.818
1803.114
1802.641
1802.38
1802.31
1802.403
1802.633
1802.968
1803.379
1803.838
1804.315
1804.786
1805.228
1805.62
1805.947
1806.196
1806.357
1806.424
1806.393
1806.266
1806.044
1805.733
1805.338
1804.868
1804.329
1803.739
1803.064
1802.488
1801.241
1857.028
1856.324
1855.521
1854.641
1853.672
1852.593
1851.375
1849.994
1848.432
1846.676
1844.724
1842.579
1840.257
1837.778
1835.173
1832.476
1829.728
1826.973
1824.255
1821.619
1819.106
1816.757
1814.603
1812.674
1810.989
1809.561
1808.397
1807.494
1806.842
1806.428
1806.23
1806.224
1806.381
1806.671
1807.063
1807.524
1808.026
1808.54
1809.039
1809.501
1809.907
1810.24
1810.489
1810.645
1810.704
1810.663
1810.525
1810.292
1809.97
1809.566
1809.089
1808.549
1807.954
1807.314
1806.64
1805.938
1805.223
1804.461
1803.828
1802.562
1854.091
1854.032
1853.624
1852.867
1851.765
1850.33
1848.586
1846.56
1844.287
1841.809
1839.169
1836.416
1833.6
1830.773
1827.985
1825.287
1822.725
1820.339
1818.164
1816.23
1814.555
1813.153
1812.027
1811.172
1810.579
1810.228
1810.098
1810.159
1810.383
1810.735
1811.184
1811.696
1812.24
1812.787
1813.312
1813.79
1814.204
1814.538
1814.782
1814.927
1814.971
1814.912
1814.754
1814.501
1814.159
1813.738
1813.247
1812.695
1812.093
1811.451
1810.778
1810.083
1809.374
1808.658
1807.941
1807.225
1806.521
1805.791
1805.195
1804.018
1857.895
1856.2
1854.124
1851.754
1849.158
1846.394
1843.509
1840.551
1837.566
1834.603
1831.708
1828.928
1826.307
1823.884
1821.693
1819.76
1818.104
1816.736
1815.656
1814.858
1814.329
1814.048
1813.989
1814.123
1814.415
1814.832
1815.338
1815.899
1816.484
1817.063
1817.609
1818.101
1818.519
1818.85
1819.083
1819.213
1819.236
1819.154
1818.971
1818.692
1818.326
1817.881
1817.369
1816.799
1816.183
1815.53
1814.852
1814.157
1813.452
1812.745
1812.041
1811.344
1810.656
1809.98
1809.316
1808.66
1808.02
1807.353
1806.811
1805.7
1852.578
1849.713
1846.794
1843.848
1840.897
1837.972
1835.112
1832.36
1829.762
1827.36
1825.192
1823.287
1821.666
1820.341
1819.314
1818.578
1818.116
1817.907
1817.921
1818.127
1818.488
1818.968
1819.531
1820.14
1820.764
1821.371
1821.936
1822.436
1822.855
1823.178
1823.397
1823.507
1823.506
1823.398
1823.186
1822.879
1822.484
1822.012
1821.475
1820.883
1820.248
1819.581
1818.892
1818.19
1817.483
1816.778
1816.081
1815.394
1814.722
1814.064
1813.421
1812.791
1812.173
1811.563
1810.959
1810.352
1809.749
1809.1
1808.569
1807.423
1844.078
1841.556
1838.893
1836.212
1833.614
1831.18
1828.971
1827.033
1825.394
1824.071
1823.066
1822.368
1821.959
1821.812
1821.896
1822.171
1822.601
1823.145
1823.764
1824.42
1825.08
1825.713
1826.294
1826.8
1827.215
1827.527
1827.727
1827.814
1827.786
1827.647
1827.404
1827.065
1826.64
1826.139
1825.575
1824.96
1824.304
1823.62
1822.918
1822.206
1821.493
1820.786
1820.09
1819.409
1818.744
1818.098
1817.469
1816.857
1816.258
1815.67
1815.089
1814.509
1813.927
1813.336
1812.733
1812.11
1811.473
1810.769
1810.186
1808.894
1838.096
1835.332
1832.866
1830.76
1829.036
1827.691
1826.709
1826.068
1825.737
1825.679
1825.854
1826.22
1826.734
1827.352
1828.034
1828.741
1829.438
1830.097
1830.69
1831.197
1831.604
1831.9
1832.078
1832.136
1832.077
1831.905
1831.628
1831.255
1830.797
1830.267
1829.675
1829.035
1828.358
1827.656
1826.94
1826.218
1825.498
1824.787
1824.089
1823.41
1822.75
1822.11
1821.49
1820.889
1820.303
1819.729
1819.164
1818.602
1818.038
1817.468
1816.885
1816.286
1815.665
1815.018
1814.342
1813.63
1812.893
1812.072
1811.388
1809.891
1831.393
1830.532
1829.905
1829.541
1829.431
1829.553
1829.875
1830.36
1830.968
1831.662
1832.401
1833.149
1833.873
1834.545
1835.14
1835.639
1836.029
1836.301
1836.449
1836.475
1836.38
1836.171
1835.858
1835.449
1834.958
1834.396
1833.777
1833.112
1832.414
1831.695
1830.964
1830.232
1829.504
1828.789
1828.09
1827.411
1826.753
1826.118
1825.504
1824.91
1824.333
1823.769
1823.213
1822.662
1822.11
1821.552
1820.982
1820.397
1819.79
1819.158
1818.497
1817.805
1817.077
1816.313
1815.513
1814.672
1813.803
1812.846
1812.048
1810.354
1833.81
1834.031
1834.376
1834.862
1835.469
1836.162
1836.903
1837.652
1838.375
1839.041
1839.625
1840.106
1840.473
1840.715
1840.831
1840.82
1840.688
1840.441
1840.09
1839.646
1839.121
1838.528
1837.881
1837.193
1836.475
1835.739
1834.995
1834.252
1833.518
1832.798
1832.097
1831.418
1830.763
1830.131
1829.522
1828.934
1828.363
1827.806
1827.257
1826.713
1826.168
1825.617
1825.054
1824.475
1823.875
1823.251
1822.598
1821.914
1821.196
1820.442
1819.652
1818.826
1817.963
1817.064
1816.132
1815.164
1814.176
1813.107
1812.217
1810.39
1839.356
1840.234
1841.1
1841.945
1842.739
1843.454
1844.065
1844.556
1844.916
1845.139
1845.226
1845.181
1845.01
1844.724
1844.333
1843.852
1843.292
1842.668
1841.993
1841.28
1840.542
1839.789
1839.032
1838.28
1837.539
1836.815
1836.113
1835.435
1834.782
1834.154
1833.549
1832.966
1832.401
1831.849
1831.306
1830.767
1830.227
1829.679
1829.12
1828.544
1827.946
1827.324
1826.672
1825.989
1825.273
1824.522
1823.736
1822.914
1822.057
1821.165
1820.242
1819.287
1818.305
1817.296
1816.264
1815.208
1814.146
1813.014
1812.076
1810.197
1847.055
1847.974
1848.671
1849.18
1849.517
1849.696
1849.727
1849.622
1849.391
1849.048
1848.606
1848.077
1847.476
1846.817
1846.112
1845.375
1844.616
1843.848
1843.078
1842.317
1841.57
1840.843
1840.139
1839.462
1838.811
1838.186
1837.587
1837.008
1836.448
1835.902
1835.364
1834.829
1834.292
1833.748
1833.19
1832.615
1832.017
1831.393
1830.74
1830.054
1829.335
1828.58
1827.791
1826.966
1826.108
1825.217
1824.294
1823.344
1822.367
1821.366
1820.344
1819.304
1818.248
1817.179
1816.1
1815.01
1813.923
1812.78
1811.837
1809.975
1854.154
1854.272
1854.221
1854.036
1853.737
1853.336
1852.845
1852.277
1851.644
1850.957
1850.229
1849.472
1848.697
1847.915
1847.136
1846.367
1845.615
1844.884
1844.18
1843.503
1842.854
1842.233
1841.637
1841.064
1840.508
1839.967
1839.433
1838.902
1838.368
1837.826
1837.269
1836.693
1836.094
1835.467
1834.81
1834.119
1833.394
1832.634
1831.838
1831.006
1830.142
1829.245
1828.318
1827.364
1826.385
1825.385
1824.366
1823.332
1822.284
1821.226
1820.16
1819.089
1818.013
1816.935
1815.857
1814.776
1813.706
1812.588
1811.667
1809.861
1857.613
1857.364
1856.95
1856.418
1855.798
1855.11
1854.374
1853.604
1852.815
1852.019
1851.227
1850.447
1849.686
1848.95
1848.242
1847.564
1846.916
1846.296
1845.704
1845.134
1844.583
1844.046
1843.516
1842.989
1842.458
1841.916
1841.36
1840.783
1840.181
1839.55
1838.888
1838.191
1837.459
1836.69
1835.885
1835.045
1834.172
1833.266
1832.331
1831.37
1830.385
1829.38
1828.358
1827.323
1826.276
1825.222
1824.162
1823.1
1822.036
1820.973
1819.911
1818.852
1817.796
1816.744
1815.697
1814.651
1813.618
1812.541
1811.655
1809.915
1860.025
1859.378
1858.628
1857.826
1857.002
1856.175
1855.356
1854.556
1853.78
1853.034
1852.32
1851.64
1850.992
1850.375
1849.786
1849.22
1848.674
1848.141
1847.616
1847.092
1846.562
1846.022
1845.465
1844.887
1844.281
1843.646
1842.977
1842.273
1841.532
1840.754
1839.94
1839.089
1838.205
1837.289
1836.345
1835.374
1834.381
1833.368
1832.34
1831.3
1830.25
1829.194
1828.135
1827.075
1826.016
1824.96
1823.908
1822.861
1821.82
1820.785
1819.757
1818.734
1817.717
1816.706
1815.7
1814.696
1813.704
1812.668
1811.817
1810.139
1860.862
1860.137
1859.366
1858.59
1857.83
1857.096
1856.392
1855.719
1855.079
1854.469
1853.886
1853.326
1852.785
1852.257
1851.735
1851.214
1850.686
1850.146
1849.588
1849.007
1848.397
1847.756
1847.08
1846.368
1845.618
1844.83
1844.004
1843.142
1842.247
1841.319
1840.363
1839.382
1838.379
1837.358
1836.322
1835.275
1834.22
1833.16
1832.098
1831.037
1829.979
1828.925
1827.877
1826.836
1825.803
1824.778
1823.761
1822.752
1821.751
1820.758
1819.771
1818.791
1817.815
1816.844
1815.878
1814.911
1813.956
1812.956
1812.134
1810.504
1861.731
1861.13
1860.486
1859.841
1859.212
1858.607
1858.027
1857.469
1856.928
1856.401
1855.88
1855.358
1854.83
1854.289
1853.729
1853.143
1852.529
1851.881
1851.198
1850.476
1849.716
1848.917
1848.08
1847.206
1846.298
1845.358
1844.391
1843.398
1842.384
1841.353
1840.309
1839.254
1838.193
1837.128
1836.063
1834.999
1833.939
1832.885
1831.838
1830.799
1829.769
1828.749
1827.738
1826.736
1825.745
1824.762
1823.787
1822.821
1821.861
1820.908
1819.96
1819.017
1818.077
1817.14
1816.206
1815.27
1814.343
1813.371
1812.571
1810.975
1863.187
1862.681
1862.141
1861.6
1861.068
1860.546
1860.029
1859.51
1858.984
1858.443
1857.881
1857.293
1856.674
1856.02
1855.329
1854.598
1853.827
1853.017
1852.167
1851.281
1850.36
1849.408
1848.428
1847.423
1846.399
1845.358
1844.304
1843.241
1842.173
1841.103
1840.033
1838.966
1837.904
1836.848
1835.801
1834.763
1833.734
1832.716
1831.708
1830.71
1829.722
1828.745
1827.777
1826.817
1825.867
1824.923
1823.987
1823.057
1822.133
1821.213
1820.296
1819.383
1818.471
1817.56
1816.65
1815.736
1814.828
1813.872
1813.086
1811.505
1864.965
1864.583
1864.135
1863.653
1863.145
1862.613
1862.054
1861.465
1860.841
1860.179
1859.479
1858.737
1857.954
1857.13
1856.267
1855.367
1854.433
1853.467
1852.474
1851.458
1850.422
1849.371
1848.308
1847.237
1846.163
1845.086
1844.012
1842.941
1841.877
1840.82
1839.771
1838.733
1837.705
1836.687
1835.681
1834.685
1833.7
1832.725
1831.759
1830.804
1829.857
1828.918
1827.988
1827.064
1826.148
1825.237
1824.331
1823.43
1822.533
1821.638
1820.745
1819.853
1818.96
1818.065
1817.168
1816.264
1815.364
1814.411
1813.626
1812.033
1867.168
1866.745
1866.229
1865.652
1865.027
1864.358
1863.646
1862.891
1862.094
1861.256
1860.379
1859.464
1858.515
1857.536
1856.53
1855.501
1854.454
1853.392
1852.321
1851.242
1850.161
1849.079
1848
1846.926
1845.859
1844.8
1843.751
1842.712
1841.684
1840.667
1839.662
1838.667
1837.683
1836.709
1835.745
1834.791
1833.846
1832.91
1831.982
1831.061
1830.147
1829.24
1828.34
1827.444
1826.554
1825.668
1824.785
1823.904
1823.025
1822.146
1821.266
1820.384
1819.497
1818.605
1817.707
1816.798
1815.888
1814.919
1814.12
1812.484
1869
1868.437
1867.768
1867.027
1866.23
1865.385
1864.497
1863.57
1862.608
1861.615
1860.596
1859.554
1858.496
1857.424
1856.343
1855.257
1854.169
1853.082
1851.999
1850.921
1849.852
1848.792
1847.742
1846.703
1845.675
1844.658
1843.653
1842.659
1841.675
1840.702
1839.739
1838.786
1837.842
1836.906
1835.978
1835.058
1834.146
1833.24
1832.34
1831.447
1830.559
1829.676
1828.797
1827.922
1827.05
1826.179
1825.308
1824.437
1823.564
1822.688
1821.806
1820.917
1820.02
1819.113
1818.196
1817.262
1816.324
1815.319
1814.49
1812.785
1870.176
1869.438
1868.591
1867.674
1866.709
1865.706
1864.675
1863.621
1862.551
1861.468
1860.377
1859.283
1858.188
1857.095
1856.008
1854.928
1853.856
1852.794
1851.744
1850.704
1849.676
1848.66
1847.655
1846.662
1845.679
1844.707
1843.744
1842.791
1841.846
1840.911
1839.983
1839.063
1838.15
1837.244
1836.344
1835.451
1834.563
1833.68
1832.803
1831.929
1831.058
1830.19
1829.323
1828.457
1827.59
1826.721
1825.849
1824.971
1824.087
1823.195
1822.293
1821.379
1820.453
1819.512
1818.555
1817.579
1816.596
1815.542
1814.67
1812.88
1870.624
1869.717
1868.72
1867.675
1866.602
1865.513
1864.416
1863.315
1862.215
1861.118
1860.027
1858.945
1857.871
1856.809
1855.758
1854.718
1853.691
1852.675
1851.671
1850.678
1849.695
1848.723
1847.76
1846.807
1845.862
1844.926
1843.997
1843.076
1842.163
1841.256
1840.355
1839.461
1838.572
1837.689
1836.81
1835.936
1835.065
1834.197
1833.331
1832.466
1831.601
1830.734
1829.865
1828.992
1828.113
1827.228
1826.334
1825.431
1824.516
1823.589
1822.648
1821.691
1820.718
1819.728
1818.721
1817.692
1816.655
1815.545
1814.627
1812.755
1870.432
1869.456
1868.409
1867.329
1866.238
1865.144
1864.055
1862.972
1861.899
1860.836
1859.784
1858.745
1857.718
1856.702
1855.699
1854.706
1853.724
1852.752
1851.789
1850.836
1849.89
1848.953
1848.024
1847.102
1846.186
1845.278
1844.376
1843.48
1842.59
1841.705
1840.825
1839.949
1839.077
1838.208
1837.341
1836.475
1835.609
1834.742
1833.873
1833.001
1832.123
1831.24
1830.349
1829.449
1828.539
1827.618
1826.684
1825.737
1824.775
1823.798
1822.804
1821.794
1820.767
1819.722
1818.661
1817.58
1816.493
1815.335
1814.377
1812.444
1870.063
1869.087
1868.049
1866.989
1865.926
1864.868
1863.819
1862.781
1861.755
1860.741
1859.738
1858.746
1857.764
1856.792
1855.83
1854.876
1853.93
1852.992
1852.062
1851.138
1850.222
1849.312
1848.408
1847.51
1846.618
1845.731
1844.849
1843.972
1843.098
1842.227
1841.358
1840.491
1839.623
1838.755
1837.884
1837.011
1836.132
1835.248
1834.356
1833.456
1832.546
1831.626
1830.694
1829.749
1828.791
1827.819
1826.832
1825.83
1824.813
1823.781
1822.733
1821.671
1820.593
1819.501
1818.396
1817.274
1816.152
1814.963
1813.981
1812.018
1869.741
1868.803
1867.809
1866.797
1865.785
1864.778
1863.78
1862.792
1861.812
1860.842
1859.88
1858.927
1857.981
1857.042
1856.111
1855.186
1854.268
1853.357
1852.451
1851.551
1850.657
1849.769
1848.885
1848.005
1847.129
1846.256
1845.385
1844.516
1843.646
1842.776
1841.903
1841.027
1840.146
1839.259
1838.366
1837.464
1836.552
1835.63
1834.696
1833.75
1832.791
1831.819
1830.833
1829.833
1828.819
1827.791
1826.75
1825.695
1824.628
1823.548
1822.456
1821.354
1820.241
1819.118
1817.988
1816.847
1815.71
1814.512
1813.523
1811.565
1869.598
1868.718
1867.78
1866.82
1865.856
1864.893
1863.936
1862.984
1862.039
1861.101
1860.169
1859.244
1858.324
1857.411
1856.504
1855.603
1854.707
1853.817
1852.931
1852.049
1851.171
1850.296
1849.423
1848.551
1847.679
1846.806
1845.931
1845.052
1844.169
1843.279
1842.383
1841.478
1840.563
1839.638
1838.701
1837.752
1836.79
1835.815
1834.826
1833.824
1832.809
1831.78
1830.739
1829.686
1828.621
1827.546
1826.461
1825.367
1824.264
1823.155
1822.039
1820.917
1819.791
1818.66
1817.526
1816.386
1815.255
1814.067
1813.088
1811.157
1869.69
1868.851
1867.949
1867.024
1866.091
1865.159
1864.229
1863.305
1862.386
1861.472
1860.564
1859.662
1858.765
1857.873
1856.986
1856.103
1855.223
1854.346
1853.471
1852.597
1851.723
1850.848
1849.97
1849.088
1848.202
1847.309
1846.409
1845.501
1844.582
1843.653
1842.713
1841.76
1840.794
1839.815
1838.822
1837.816
1836.797
1835.765
1834.721
1833.665
1832.599
1831.523
1830.438
1829.345
1828.247
1827.142
1826.034
1824.921
1823.807
1822.69
1821.571
1820.452
1819.332
1818.212
1817.092
1815.969
1814.856
1813.69
1812.73
1810.838
1869.923
1869.113
1868.241
1867.343
1866.436
1865.529
1864.624
1863.724
1862.827
1861.935
1861.048
1860.164
1859.284
1858.406
1857.529
1856.653
1855.777
1854.9
1854.019
1853.135
1852.246
1851.35
1850.447
1849.534
1848.612
1847.679
1846.734
1845.776
1844.806
1843.822
1842.825
1841.814
1840.79
1839.753