/*--------------------------------*- C++ -*----------------------------------*\
| =========                 |                                                 |
| \\      /  F ield         | OpenFOAM: The Open Source CFD Toolbox           |
|  \\    /   O peration     | Version:  2312                                  |
|   \\  /    A nd           | Website:  www.openfoam.com                      |
|    \\/     M anipulation  |                                                 |
\*---------------------------------------------------------------------------*/
FoamFile
{
    version     2.0;
    format      ascii;
    arch        "LSB;label=32;scalar=64";
    class       volScalarField;
    location    "3450";
    object      ILambda_15_0;
}
// * * * * * * * * * * * * * * * * * * * * * * * * * * * * * * * * * * * * * //

dimensions      [1 0 -3 0 0 0 0];

internalField   nonuniform List<scalar> 
12000
(
762.969
703.2795
701.1629
700.6131
699.8462
698.3351
696.6869
695.5476
695.1004
695.1671
695.4848
695.833
696.0463
696.0075
695.6608
695.0202
694.1605
693.193
692.2349
691.3813
690.6872
690.1608
689.7685
689.4509
689.1443
688.7978
688.3811
687.8833
687.3075
686.6653
685.972
685.2425
684.4872
683.7063
682.8699
681.9604
680.9862
679.9751
678.9078
677.7146
676.3614
674.8978
673.442
672.036
670.5097
668.7546
666.9383
665.2124
663.4205
661.0812
658.1814
655.1253
651.9485
648.134
643.4888
638.1303
632.132
624.687
609.2714
564.2448
741.181
697.1126
701.0024
700.0327
698.8834
697.2605
695.877
695.1336
694.9992
695.2308
695.5832
695.8666
695.9441
695.7327
695.2166
694.4455
693.5174
692.5496
691.6486
690.8867
690.2918
689.8471
689.5032
689.1972
688.8719
688.4881
688.0266
687.4849
686.8713
686.2001
685.4871
684.7449
683.9762
683.166
682.2898
681.3464
680.3535
679.3125
678.1754
676.8907
675.4758
674.0184
672.5876
671.1153
669.4666
667.6811
665.9222
664.1565
662.0718
659.4278
656.4361
653.3044
649.7733
645.4839
640.5936
635.489
629.3171
616.3601
584.2734
530.4123
724.9159
694.9055
700.9764
699.22
697.8661
696.332
695.3007
694.9214
695.0246
695.3512
695.6844
695.8647
695.786
695.4029
694.7376
693.8699
692.9122
691.978
691.1559
690.4925
689.9892
689.6095
689.2947
688.9842
688.6303
688.2052
687.6996
687.1177
686.4717
685.7774
685.0493
684.2943
683.5045
682.6598
681.7479
680.779
679.7615
678.6693
677.4503
676.0911
674.6512
673.2083
671.7563
670.191
668.4686
666.6996
664.944
663.0123
660.6278
657.7849
654.7044
651.3437
647.3957
642.8811
638.2535
632.9921
622.702
598.1166
555.4999
518.0679
713.817
694.9568
700.6664
698.2458
696.8982
695.6045
694.9513
694.8742
695.1362
695.4925
695.7579
695.8039
695.5582
695.0141
694.2284
693.3027
692.3532
691.4813
690.7521
690.1857
689.7606
689.4264
689.122
688.7932
688.4033
687.9352
687.3877
686.7702
686.0976
685.3856
684.6444
683.8723
683.0544
682.1746
681.2329
680.2393
679.1827
678.0215
676.7237
675.3176
673.8748
672.4276
670.9166
669.2683
667.5215
665.7639
663.9206
661.7503
659.1143
656.1263
652.8744
649.1878
645.0035
640.698
636.1132
628.0654
609.086
573.7713
534.0752
521.9421
706.86
695.8404
699.953
697.2348
696.0667
695.0987
694.7973
694.9458
695.2922
695.6206
695.7782
695.6687
695.2568
694.5728
693.7019
692.7574
691.8498
691.0607
690.4294
689.9512
689.5868
689.2785
688.9679
688.6103
688.18
687.6692
687.0834
686.4357
685.7421
685.0155
684.2595
683.4645
682.6148
681.7029
680.7347
679.7085
678.5957
677.3589
675.9993
674.5711
673.1256
671.6452
670.0621
668.3621
666.6117
664.8138
662.8008
660.3799
657.5413
654.3864
650.8822
646.9699
642.9178
638.8041
632.4887
617.9783
589.0456
550.458
525.2702
536.9483
702.8319
696.6746
698.9309
696.3069
695.4233
694.805
694.7956
695.0901
695.4547
695.7069
695.7268
695.4525
694.8867
694.0927
693.1751
692.2486
691.409
690.7142
690.1774
689.7731
689.4501
689.1492
688.8191
688.4254
687.9529
687.4017
686.7822
686.1099
685.3996
684.6589
683.8839
683.0612
682.1795
681.2388
680.2408
679.1688
677.9882
676.6824
675.2829
673.8441
672.3804
670.8461
669.2015
667.4762
665.7046
663.7974
661.5679
658.914
655.8817
652.5129
648.8066
644.9602
641.1675
636.1049
625.1231
601.9238
566.6945
534.6943
529.2473
555.9912
700.631
697.0686
697.7832
695.5462
694.985
694.6935
694.8997
695.2653
695.5913
695.7291
695.5926
695.1567
694.4598
693.5916
692.6656
691.7883
691.0345
690.4364
689.984
689.6358
689.3349
689.0257
688.666
688.2321
687.7179
687.1299
686.482
685.79
685.0649
684.3078
683.5091
682.6564
681.7446
680.7747
679.738
678.6074
677.3573
675.9981
674.5754
673.123
671.6224
670.0302
668.344
666.597
664.7584
662.6831
660.2216
657.3447
654.102
650.5486
646.861
643.284
639.0824
630.8019
612.6022
581.8695
547.5774
529.8245
542.0663
572.1668
699.414
696.9705
696.6892
694.9936
694.7412
694.7232
695.0645
695.4353
695.6759
695.672
695.3728
694.79
693.9932
693.0889
692.1894
691.3848
690.7256
690.219
689.8359
689.5247
689.2283
688.898
688.5019
688.0263
687.4728
686.8527
686.1817
685.4732
684.7329
683.9556
683.1298
682.247
681.3056
680.3013
679.2146
678.0185
676.7071
675.3112
673.8717
672.3941
670.8455
669.2044
667.4883
665.6974
663.7378
661.4551
658.7558
655.6531
652.2257
648.6554
645.2158
641.5778
635.2933
621.293
595.4401
561.851
536.1748
535.1933
557.8271
581.596
698.6311
696.5108
695.777
694.6523
694.6632
694.8489
695.2492
695.5694
695.6889
695.5278
695.0719
694.3671
693.5066
692.6034
691.7591
691.0421
690.4778
690.0513
689.7197
689.4269
689.1199
688.759
688.3227
687.8063
687.2173
686.5703
685.8802
685.1565
684.3984
683.5972
682.7427
681.8302
680.8567
679.809
678.663
677.403
676.0437
674.6229
673.163
671.6485
670.0517
668.3728
666.6213
664.7463
662.6163
660.1005
657.1585
653.8551
650.3752
647.0147
643.7208
638.8549
628.2518
607.1711
576.1888
546.2771
534.217
547.0621
571.2212
584.0985
697.9844
695.8798
695.1108
694.4997
694.7124
695.0266
695.4189
695.6439
695.6181
695.2968
694.7014
693.9068
693.0202
692.1509
691.3828
690.7598
690.2835
689.9217
689.6228
689.3315
689.0018
688.604
688.1265
687.5718
686.9521
686.2829
685.5764
684.8363
684.0573
683.2295
682.3459
681.4024
680.3904
679.2901
678.0815
676.7659
675.3717
673.9295
672.4412
670.884
669.2454
667.5317
665.7203
663.7135
661.3719
658.606
655.4404
652.0439
648.7236
645.6153
641.7105
633.7539
617.0294
589.7351
558.5486
538.1807
540.3581
560.5155
579.3645
582.6943
697.3578
695.2507
694.7001
694.4986
694.8462
695.216
695.5446
695.6418
695.4586
694.9861
694.2779
693.4297
692.5526
691.7435
691.0642
690.5336
690.1331
689.8181
689.5339
689.2298
688.8685
688.4306
687.9129
687.324
686.6785
685.9906
685.2681
684.5095
683.7066
682.8509
681.9371
680.9584
679.8997
678.7407
677.4728
676.113
674.6922
673.2257
671.7018
670.1031
668.4278
666.6677
664.7576
662.5707
659.9857
656.9766
653.6736
650.376
647.3436
644.0474
638.0715
625.1163
601.9684
571.7204
545.9651
538.188
551.1172
571.5438
582.4945
581.5456
696.7437
694.7434
694.516
694.606
695.0229
695.3828
695.6047
695.5534
695.2132
694.609
693.8209
692.9558
692.1192
691.3889
690.8024
690.3562
690.0156
689.7293
689.4437
689.1153
688.7168
688.238
687.683
687.0645
686.3976
685.693
684.9534
684.1734
683.3445
682.4596
681.5128
680.4923
679.3798
678.1611
676.842
675.4482
674.0029
672.5067
670.9447
669.3082
667.5927
665.7587
663.7028
661.2925
658.4548
655.2658
651.9936
648.969
646.0182
641.458
631.6168
612.6227
584.8187
556.3693
540.3793
544.5793
562.5776
578.4616
583.0073
582.8142
696.183
694.4177
694.5098
694.7787
695.2047
695.4995
695.5847
695.3769
694.8913
694.1834
693.3513
692.5033
691.731
691.0898
690.593
690.2182
689.9201
689.645
689.3444
688.9836
688.545
688.0268
687.4387
686.7953
686.1098
685.3887
684.63
683.8262
682.9695
682.0534
681.0685
679.9992
678.8291
677.555
676.1943
674.7723
673.3005
671.7707
670.1716
668.4975
666.7251
664.7769
662.5263
659.8668
656.8149
653.5866
650.5369
647.7448
644.1384
636.759
621.6241
597.1516
568.2581
546.2839
541.6895
554.3055
571.9544
581.8405
583.3601
586.2191
695.7239
694.2822
694.6258
694.9769
695.3589
695.5461
695.4778
695.1171
694.5078
693.7294
692.8887
692.0866
691.3948
690.8448
690.4285
690.1093
689.8358
689.5567
689.2305
688.8321
688.3531
687.7988
687.1821
686.5177
685.8152
685.0764
684.296
683.4663
682.5799
681.6287
680.5996
679.4761
678.2491
676.9271
675.5326
674.0841
672.5826
671.018
669.3829
667.6625
665.8021
663.6915
661.2074
658.312
655.1551
652.0769
649.3206
646.3054
640.7842
629.033
608.2785
580.6572
555.0127
542.5972
548.092
564.3373
578.2137
583.2746
584.8686
591.4125
695.4006
694.3113
694.8103
695.1658
695.4599
695.5105
695.2845
694.7852
694.081
693.2675
692.4505
691.7159
691.1127
690.6493
690.3001
690.019
689.7536
689.4575
689.0981
688.6598
688.1423
687.5559
686.9151
686.2322
685.5127
684.7544
683.9501
683.0924
682.1733
681.1818
680.1026
678.923
677.6437
676.2816
674.8578
673.3817
671.8483
670.2495
668.5746
666.7864
664.7951
662.4756
659.7482
656.6929
653.6037
650.8143
648.1187
643.9269
634.9971
617.9678
592.7977
565.6093
546.9869
544.7928
556.9978
572.6231
581.718
584.3117
588.1572
599.0589
695.2252
694.4603
695.0167
695.3168
695.4894
695.388
695.0116
694.3971
693.6313
692.8168
692.0501
691.397
690.8829
690.496
690.1978
689.9376
689.6654
689.3423
688.9452
688.4671
687.9144
687.3004
686.6389
685.9389
685.2013
684.4212
683.5909
682.7026
681.7465
680.7089
679.5758
678.3418
677.0168
675.6209
674.1692
672.6638
671.0984
669.4643
667.7361
665.8447
663.6738
661.1173
658.19
655.1204
652.2713
649.7049
646.402
639.7133
626.1514
604.1238
577.168
554.2438
544.7633
551.1337
565.9883
578.3639
583.562
586.2289
593.8255
609.3298
695.1888
694.6782
695.2065
695.4078
695.4369
695.1813
694.6718
693.9716
693.1787
692.3936
691.6968
691.1312
690.7005
690.3762
690.112
689.8564
689.5653
689.2083
688.7714
688.2556
687.6717
687.0342
686.3544
685.6371
684.8796
684.0755
683.2167
682.2942
681.2959
680.2077
679.0199
677.736
676.3718
674.9457
673.466
671.9308
670.3334
668.6562
666.8478
664.8071
662.4162
659.6365
656.622
653.718
651.1599
648.3966
643.3994
632.8815
614.2799
588.9083
563.6001
547.9329
547.6052
559.3921
573.4315
581.8225
585.1283
590.1179
602.1075
620.4337
695.2665
694.9158
695.3508
695.4241
695.2996
694.899
694.2816
693.5285
692.7413
692.0101
691.3951
690.9163
690.558
690.2804
690.0332
689.7684
689.449
689.0538
688.5775
688.0273
687.4167
686.7588
686.0616
685.3258
684.5464
683.7158
682.8254
681.8643
680.8189
679.6773
678.437
677.1088
675.7106
674.256
672.7483
671.1839
669.5506
667.8111
665.882
663.6452
661.0238
658.0985
655.1649
652.5509
650.0664
646.2723
638.2912
623.0831
600.2127
574.2541
553.9125
546.8821
553.8615
567.5491
578.7039
583.9929
587.8059
596.5954
612.0944
629.4207
695.4244
695.1317
695.4293
695.3582
695.0815
694.555
693.8599
693.0873
692.3342
691.6745
691.1457
690.7468
690.4469
690.1992
689.9536
689.6679
689.3136
688.8788
688.3655
687.7849
687.1511
686.4748
685.7599
685.004
684.2003
683.3406
682.4146
681.4099
680.3135
679.1185
677.8299
676.4631
675.0343
673.5524
672.0177
670.4226
668.7406
666.9054
664.8076
662.3465
659.5386
656.6113
653.9206
651.5342
648.5337
642.5617
630.4896
610.6381
585.4578
562.112
549.0624
550.2123
561.5625
574.2817
582.1276
586.2289
592.6048
605.2952
621.7845
634.3455
695.6248
695.2939
695.4301
695.2097
694.7926
694.1661
693.426
692.6651
691.9687
691.3905
690.9457
690.6153
690.3579
690.1237
689.8663
689.551
689.1583
688.6845
688.1374
687.5304
686.8763
686.1823
685.4487
684.6705
683.8399
682.9474
681.9814
680.9286
679.7794
678.5333
677.2015
675.8006
674.344
672.8365
671.2749
669.6412
667.8843
665.9084
663.6023
660.9316
658.049
655.2915
652.891
650.3601
645.8947
636.5596
619.907
596.5732
571.8476
553.9361
548.9669
556.3439
569.0012
579.1778
584.7033
589.786
599.7134
614.8039
629.1503
635.4439
695.8319
695.3809
695.349
694.9843
694.4473
693.7512
692.9984
692.2757
691.6516
691.1578
690.7893
690.5131
690.2817
690.0462
689.7662
689.4153
688.9831
688.4727
687.8956
687.2657
686.5929
685.8809
685.1268
684.3239
683.4633
682.5339
681.523
680.4191
679.2173
677.9241
676.5542
675.1235
673.6416
672.1098
670.5169
668.8251
666.9539
664.7922
662.2692
659.4666
656.6708
654.1996
651.8976
648.4922
641.4239
627.8867
607.1019
582.4302
561.0704
550.3365
552.6449
563.5292
575.1493
582.673
587.6748
595.3413
608.3412
623.2981
633.2712
634.5064
696.0144
695.3813
695.1883
694.6928
694.0626
693.3291
692.593
691.9291
691.3857
690.9731
690.6691
690.4312
690.2099
689.9603
689.6495
689.26
688.7892
688.2455
687.6423
686.992
686.3011
685.5699
684.7932
683.9627
683.0681
682.0972
681.0376
679.8811
678.6293
677.2938
675.8909
674.434
672.9292
671.3712
669.7334
667.9505
665.9192
663.5463
660.8517
658.0551
655.4981
653.2609
650.5419
645.2548
634.5623
616.6939
593.2314
569.9005
554.2494
551.0039
558.604
570.3558
579.8117
585.7367
592.0228
602.7161
617.0631
629.4476
634.6096
633.3316
696.1483
695.2924
694.9559
694.3502
693.6572
692.9172
692.2227
691.6313
691.1703
690.8303
690.5764
690.3607
690.1352
689.8613
689.5143
689.0854
688.5783
688.0051
687.3791
686.7098
686.0005
685.2483
684.4462
683.5846
682.6518
681.635
680.5238
679.3156
678.0177
676.6454
675.2142
673.7347
672.2071
670.614
668.9049
666.9881
664.7606
662.1937
659.4351
656.8055
654.5337
652.2073
648.2419
640.0068
625.1396
603.7252
579.8111
560.4086
551.7058
554.9068
565.3221
576.0708
583.4966
589.411
598.0854
610.9881
624.4821
632.9287
634.3798
632.7116
696.2169
695.1191
694.664
693.9735
693.2491
692.5304
691.8961
691.3843
691.0013
690.7219
690.5023
690.2934
690.0516
689.7457
689.3599
688.8925
688.3526
687.7535
687.1069
686.4192
685.6903
684.9148
684.0842
683.1873
682.2116
681.1452
679.9818
678.7245
677.3859
675.9822
674.5273
673.0268
671.4712
669.823
668.0048
665.9129
663.4842
660.7984
658.1265
655.7726
653.623
650.5735
644.353
632.3525
613.5104
590.2041
568.3618
554.7847
552.9697
560.6703
571.6619
580.6455
587.0701
594.3774
605.4738
618.9327
629.7858
634.2805
633.6789
632.4736
696.2116
694.8722
694.3278
693.5805
692.8546
692.1803
691.6183
691.1866
690.8726
690.6392
690.4382
690.2224
689.9545
689.6118
689.1864
688.6832
688.1141
687.492
686.8263
686.1197
685.3693
684.5677
683.7047
682.7681
681.7452
680.6271
679.4128
678.1109
676.7372
675.3076
673.8321
672.3084
670.7103
668.9753
667.0061
664.718
662.1325
659.4562
657.011
654.8935
652.4229
647.7674
638.3457
622.3147
600.548
577.5738
560.0571
553.1233
557.0106
566.9943
577.0941
584.5921
591.3419
600.7256
613.3028
625.5261
632.8993
634.3644
633.0281
632.1674
696.131
694.5668
693.9642
693.1886
692.4877
691.8745
691.3906
691.0337
690.7764
690.5735
690.3762
690.1418
689.8409
689.4589
688.9953
688.4595
687.8645
687.2218
686.5372
685.8106
685.0362
684.2049
683.3052
682.3243
681.2511
680.0812
678.8191
677.4784
676.0756
674.6244
673.1284
671.5717
669.9057
668.0443
665.8929
663.4266
660.7841
658.2644
656.094
653.9401
650.4295
643.2063
629.9876
610.4096
587.4902
567.1739
555.4808
554.8552
562.5884
572.9749
581.6883
588.6353
596.7474
607.9889
620.5783
630.2472
634.2603
633.8816
632.4642
631.6047
695.98
694.2202
693.5899
692.813
692.1587
691.6173
691.2108
690.9193
690.7042
690.5164
690.3095
690.0475
689.7089
689.2874
688.7881
688.2232
687.6053
686.9431
686.2393
685.4904
684.6889
683.8239
682.8829
681.8537
680.7289
679.509
678.2043
676.8307
675.4042
673.9334
672.4111
670.802
669.0332
667.0092
664.6725
662.0976
659.535
657.2743
655.2472
652.5144
647.0701
636.484
619.4688
597.5908
575.6802
559.9527
554.5594
558.9857
568.602
578.2439
585.9146
593.3784
603.2278
615.3826
626.5363
633.0897
634.4662
633.2018
631.8773
630.9671
695.7683
693.8506
693.2209
692.4666
691.8745
691.4091
691.0742
690.8357
690.6475
690.4603
690.2327
689.9364
689.5582
689.0985
688.5669
687.9762
687.3373
686.656
685.9314
685.1577
684.3252
683.4219
682.4352
681.3553
680.1793
678.9135
677.5721
676.1716
674.7249
673.232
671.6693
669.9784
668.0695
665.8649
663.3841
660.8163
658.4624
656.4376
654.1814
650.0993
641.8425
627.5203
607.427
585.0739
566.2815
556.2943
556.6688
564.4075
574.331
582.9181
590.3592
599.0817
610.3091
622.0995
630.8055
634.3828
634.0216
632.455
631.2634
630.6308
695.509
693.4757
692.8712
692.1588
691.6382
691.2474
690.9744
690.7744
690.598
690.3987
690.1417
689.807
689.3891
688.8939
688.3333
687.7195
687.0609
686.3597
685.6121
684.8101
683.9424
682.9963
681.9606
680.8293
679.6048
678.2984
676.9263
675.5037
674.0369
672.5125
670.8861
669.0781
667.0015
664.6329
662.0971
659.6701
657.5775
655.5667
652.4634
646.1628
634.4647
616.6446
594.8584
574.0904
560.0466
556.0026
560.8665
570.1866
579.5186
587.4099
595.4635
605.6031
617.3052
627.5394
633.3904
634.5755
633.2591
631.6978
630.7901
631.04
695.2172
693.1116
692.552
691.8956
691.45
691.1273
690.9035
690.7269
690.5482
690.3262
690.0338
689.659
689.203
688.6754
688.089
687.4541
686.7758
686.0531
685.2796
684.4452
683.5377
682.5448
681.4583
680.2769
679.0084
677.6673
676.2702
674.8276
673.3353
671.7617
670.0401
668.0827
665.8358
663.3646
660.8969
658.7091
656.7795
654.325
649.5834
640.2923
624.9936
604.5832
582.9338
565.6397
557.199
558.427
566.1658
575.7447
584.3009
592.1876
601.3662
612.4836
623.542
631.4134
634.5511
634.0856
632.3771
631.0295
630.7685
632.6836
694.9083
692.772
692.2716
691.6797
691.3067
691.042
690.8532
690.6852
690.492
690.2391
689.9076
689.4928
689.0013
688.4448
687.8351
687.18
686.4812
685.7346
684.9315
684.0603
683.1086
682.0664
680.9291
679.7008
678.3937
677.0239
675.6054
674.1408
672.6105
670.9613
669.1112
666.988
664.6062
662.1352
659.8553
657.902
655.8294
652.2614
645.0636
632.3258
613.8724
592.3474
572.7698
560.3055
557.452
562.682
571.7715
580.9039
589.0336
597.5687
607.8742
619.1147
628.5274
633.7326
634.6614
633.2372
631.5179
630.6523
631.6185
636.0163
694.5973
692.4672
692.0349
691.5104
691.2033
690.9839
690.8152
690.6422
690.4243
690.1348
689.7627
689.3097
688.7859
688.2034
687.5723
686.897
686.1758
685.402
684.5651
683.6527
682.6536
681.5608
680.3747
679.1043
677.7644
676.3706
674.9312
673.4366
671.8473
670.0911
668.0875
665.8117
663.373
661.024
658.9912
657.099
654.3563
648.8882
638.5852
622.4411
601.8896
581.0494
565.2152
558.1801
560.1457
567.8886
577.2173
585.8062
594.0874
603.602
614.5448
624.9187
632.0316
634.7239
634.0964
632.2658
630.8493
630.8953
633.7922
641.1997
694.2976
692.2048
691.8436
691.3847
691.1329
690.9447
690.7816
690.5918
690.3414
690.012
689.5997
689.1112
688.5583
687.9524
687.3006
686.604
685.8578
685.053
684.1779
683.2205
682.1718
681.0291
679.7979
678.4906
677.1233
675.7081
674.2437
672.7035
671.0275
669.1349
666.9736
664.5977
662.2126
660.0824
658.2306
656.0182
651.9052
643.7915
630.099
611.1738
590.0519
571.6913
560.7067
558.9098
564.453
573.3682
582.3836
590.755
599.6808
610.058
620.8304
629.4854
634.0802
634.7214
633.1746
631.3702
630.6285
632.1778
637.5977
647.8583
694.0201
691.9886
691.6969
691.2972
691.088
690.9163
690.7456
690.5291
690.241
689.8705
689.4198
688.899
688.3201
687.6922
687.0195
686.2995
685.5249
684.6849
683.7675
682.7622
681.6636
680.4735
679.2017
677.8631
676.4723
675.0346
673.5346
671.9257
670.1328
668.0874
665.7974
663.4123
661.1934
659.2956
657.3789
654.2657
648.0225
636.7468
619.8892
599.3533
579.4034
564.9832
559.2288
561.8372
569.5913
578.7455
587.4108
596.0382
605.7917
616.5093
626.2299
632.6363
634.8861
634.0739
632.1568
630.779
631.2113
634.8781
642.9913
655.1054
693.7734
691.8196
691.5911
691.2411
691.0602
690.891
690.7012
690.4507
690.1219
689.7109
689.2247
688.6747
688.0719
687.4228
686.7278
685.9816
685.1747
684.2953
683.3323
682.2777
681.1302
679.8964
678.5892
677.2241
675.8112
674.3448
672.7912
671.0852
669.1514
666.9623
664.6112
662.3287
660.3426
658.5478
656.1197
651.3948
642.3645
627.8107
608.5652
587.9663
570.8337
561.2336
560.3783
566.1934
574.9823
583.9443
592.5531
601.7915
612.1634
622.4593
630.4018
634.4157
634.7594
633.0969
631.2876
630.7934
632.9774
639.1491
649.4863
661.8483
693.5632
691.696
691.521
691.2088
691.0417
690.8621
690.6439
690.3545
689.9841
689.5346
689.0158
688.4395
687.8143
687.1434
686.4239
685.648
684.8047
683.8823
682.8713
681.7674
680.5738
679.3008
677.9633
676.5748
675.1371
673.629
671.997
670.1665
668.0855
665.7968
663.4839
661.4002
659.61
657.6047
654.0466
646.9958
634.8002
617.3597
596.9793
577.9819
564.9247
560.3377
563.5095
571.2837
580.3253
589.0976
598.0256
607.9355
618.3839
627.4727
633.2137
635.0316
634.0322
632.0738
630.8433
631.7644
636.1889
644.7842
656.2594
667.1658
693.3926
691.6136
691.4799
691.1922
691.025
690.8239
690.5704
690.2395
689.8282
689.3429
688.7948
688.1942
687.5469
686.8527
686.1059
685.2964
684.4129
683.4445
682.3845
681.2328
679.9967
678.6895
677.326
675.9143
674.4436
672.8734
671.1352
669.1631
666.9577
664.6495
662.4817
660.627
658.84
656.1229
650.732
640.7993
625.4842
606.0602
586.0856
570.1793
561.8724
561.8578
567.9124
576.6172
585.5759
594.4123
603.8936
614.1935
624.003
631.2685
634.7301
634.7796
633.0224
631.2873
631.1456
634.0024
640.8478
651.2152
662.3983
670.5658
693.2618
691.5663
691.4603
691.1834
691.0035
690.7722
690.4787
690.1055
689.6554
689.1374
688.5626
687.9389
687.2689
686.5492
685.7714
684.9246
683.9974
682.9812
681.8727
680.6758
679.4017
678.0651
676.678
675.2387
673.7195
672.0616
670.1938
668.085
665.8133
663.5887
661.6393
659.9228
657.7634
653.6943
645.818
632.7665
614.8719
594.772
576.7725
565.0226
561.4996
565.1682
572.9731
581.954
590.8539
600.038
610.0308
620.171
628.6445
633.7562
635.1591
633.9839
632.0353
631.0446
632.5171
637.6524
646.6295
657.6505
667.1693
672.0613
693.1689
691.5472
691.4544
691.1753
690.9719
690.7037
690.3679
689.9535
689.4673
688.9196
688.3199
687.6733
686.979
686.2308
685.4184
684.5307
683.5573
682.4925
681.337
680.0987
678.7914
677.4292
676.0175
674.5401
672.9503
671.1785
669.1724
666.9634
664.715
662.6696
660.927
659.0942
656.0188
649.9198
639.1129
623.1408
603.6711
584.4048
569.7121
562.6101
563.3477
569.6175
578.2761
587.271
596.3201
605.9794
616.1478
625.4619
632.0813
635.0198
634.7893
632.9688
631.3812
631.6671
635.1896
642.5964
652.9274
663.2914
670.2046
672.084
693.1102
691.5481
691.4547
691.1615
690.926
690.6167
690.238
689.7845
689.2653
688.6903
688.0668
687.3965
686.6756
685.8954
685.0449
684.1131
683.092
681.9792
680.7794
679.5042
678.1683
676.782
675.3395
673.8063
672.1199
670.2163
668.0889
665.8503
663.7268
661.905
660.2224
657.8436
653.206
644.5002
630.6662
612.4434
592.7343
575.7632
565.261
562.7075
566.8172
574.6659
583.6302
592.6696
602.0644
612.0732
621.8709
629.7441
634.2604
635.2711
633.9427
632.0573
631.3817
633.4341
639.2039
648.4313
658.9973
667.5469
671.558
671.288
693.0803
691.5612
691.4541
691.1367
690.8627
690.5104
690.0899
689.6
689.0506
688.4502
687.8029
687.1073
686.3568
685.5411
684.6491
683.671
682.6017
681.4426
680.2022
678.8948
677.5336
676.1209
674.6345
673.022
671.216
669.1816
666.9827
664.8097
662.8896
661.2333
659.2983
655.8003
648.9634
637.3227
620.8008
601.408
582.9181
569.4165
563.4343
564.8469
571.3153
579.9624
589.0236
598.2649
608.0407
618.0248
626.8365
632.8386
635.2847
634.7967
632.951
631.5772
632.3418
636.4986
644.3477
654.5397
664.1498
670.1728
671.6277
670.3073
693.073
691.5786
691.4468
691.0969
690.7806
690.3848
689.9248
689.4014
688.8242
688.1991
687.5272
686.804
686.0206
685.166
684.2296
683.2039
682.087
680.8843
679.608
678.2728
676.8869
675.4392
673.8893
672.1724
670.2359
668.1005
665.9108
663.8979
662.1905
660.4974
657.8351
652.5812
643.0552
628.5199
610.0899
590.8675
574.9414
565.6246
563.9549
568.4608
576.3684
585.3525
594.5347
604.0942
614.0578
623.4839
630.7718
634.7259
635.3714
633.9198
632.1511
631.8507
634.4899
640.8102
650.1656
660.2346
667.9245
671.2945
670.9794
669.5614
693.0815
691.5932
691.4276
691.0394
690.6788
690.2409
689.744
689.1899
688.5865
687.9368
687.2386
686.4848
685.6652
684.7686
683.7858
682.7119
681.5492
680.3069
678.9995
677.6392
676.2243
674.7263
673.0885
671.2488
669.1937
667.0192
664.935
663.1376
661.536
659.4407
655.462
647.8699
635.447
618.4836
599.2791
581.6182
569.2768
564.3338
566.3553
573.0121
581.6789
590.8271
600.2353
610.0692
619.8229
628.1281
633.5408
635.526
634.8087
632.9803
631.8789
633.1556
637.9023
646.0818
656.0471
664.9303
670.1862
671.3128
670.1435
669.1812
693.0991
691.5989
691.3929
690.9625
690.5575
690.0797
689.5489
688.9663
688.3375
687.6622
686.9355
686.148
685.2889
684.3476
683.3169
682.1957
680.9902
679.7131
678.3787
676.9925
675.5377
673.968
672.2196
670.2546
668.1232
665.9973
664.1005
662.4885
660.7363
657.7294
651.8218
641.4974
626.3476
607.8253
589.1707
574.294
566.0993
565.2365
570.1034
578.0858
587.1186
596.4391
606.1166
615.9804
625.0113
631.7294
635.1531
635.4635
633.924
632.3244
632.4463
635.6636
642.4488
651.826
661.3687
668.2802
671.1146
670.7359
669.4661
669.0704
693.1192
691.5907
691.3401
690.8658
690.4177
689.9027
689.3406
688.7311
688.0768
687.3744
686.6162
685.7919
684.8902
683.902
682.8233
681.6567
680.4126
679.1055
677.7459
676.3273
674.8152
673.1499
671.2782
669.2114
667.0761
665.0914
663.4086
661.8248
659.5109
655.0011
646.649
633.5044
616.2065
597.29
580.4966
569.2784
565.2992
567.8739
574.7141
583.4271
592.6743
602.22
612.0576
621.5417
629.3394
634.1892
635.7452
634.8311
633.065
632.2877
634.0947
639.3786
647.7854
657.4539
665.6422
670.2354
671.099
670.0095
669.0629
669.0423
693.1358
691.5649
691.2677
690.7493
690.2604
689.711
689.1199
688.4842
687.8036
687.0718
686.2792
685.4147
684.4677
683.4316
682.3056
681.0971
679.8193
678.4858
677.0983
675.6343
674.0422
672.2621
670.2747
668.1603
666.1118
664.3318
662.7902
660.9279
657.5199
650.932
639.8422
624.1683
605.6609
587.6413
573.8082
566.6728
566.5493
571.7498
579.8225
588.9249
598.3724
608.1221
617.8376
626.455
632.6191
635.5431
635.5506
633.9628
632.5825
633.1623
636.9368
644.102
653.41
662.41
668.6187
671.009
670.5865
669.408
668.8731
668.9499
693.1439
691.519
691.1754
690.6138
690.0869
689.5059
688.8872
688.2253
687.5168
686.7528
685.9226
685.0149
684.0207
682.9363
681.7655
680.5195
679.2128
677.8534
676.4294
674.9002
673.2059
671.3058
669.238
667.1561
665.2781
663.6962
662.0892
659.4999
654.4169
645.3117
631.5134
613.9849
595.4442
579.5442
569.408
566.3231
569.4045
576.4264
585.2071
594.5573
604.2082
613.9997
623.1814
630.4729
634.7852
635.9442
634.8698
633.2126
632.8035
635.146
640.9083
649.4492
658.7674
666.2962
670.3148
670.9686
669.9471
669.0162
668.765
668.7523
693.1393
691.4517
691.0634
690.4607
689.8985
689.288
688.6426
687.9537
687.215
686.416
685.5448
684.5912
683.5486
682.4173
681.2054
679.927
678.5941
677.2042
675.7281
674.1113
672.3006
670.2986
668.2148
666.255
664.5879
663.0866
661.062
657.2018
649.9183
638.1058
621.9997
603.6055
586.2751
573.4717
567.3347
567.8913
573.4044
581.5811
590.7667
600.3246
610.1023
619.6272
627.8173
633.443
635.8974
635.637
634.0439
632.9297
633.9913
638.2915
645.7549
654.9187
663.3713
668.9447
670.9613
670.5051
669.3988
668.7849
668.6333
668.5114
693.1188
691.3627
690.9325
690.291
689.6964
689.058
688.3857
687.6683
686.8968
686.0593
685.1443
684.1428
683.0519
681.8764
680.6283
679.3218
677.9616
676.53
674.981
673.257
671.3334
669.2761
667.2611
665.4933
663.9932
662.3186
659.4
653.7113
643.8707
629.4918
611.8321
593.7429
578.7515
569.6538
567.4001
570.9496
578.1533
587.0176
596.4681
606.1906
615.8908
624.7425
631.5309
635.3303
636.1256
634.9312
633.4297
633.4247
636.2954
642.4733
651.0661
659.997
666.9041
670.4205
670.8995
669.927
669.0069
668.6179
668.4514
668.3404
693.0803
691.2523
690.7839
690.1061
689.4813
688.8157
688.1159
687.3677
686.5604
685.6812
684.7196
683.6693
682.5318
681.3163
680.0371
678.7041
677.3097
675.8188
674.1752
672.3364
670.3289
668.2891
666.4267
664.8633
663.368
661.1292
656.7729
648.7888
636.3045
619.8575
601.6657
585.0667
573.2731
568.0766
569.2619
575.0714
583.3631
592.6389
602.2866
612.0501
621.3477
629.0997
634.2028
636.2176
635.7273
634.1742
633.3689
634.9245
639.7096
647.3935
656.3537
664.2651
669.2643
670.9602
670.4704
669.4115
668.7364
668.447
668.2693
668.3404
693.0226
691.1217
690.6188
689.9071
689.2537
688.561
687.8321
687.0505
686.204
685.28
684.2699
683.1714
681.9906
680.7402
679.4334
678.0709
676.6287
675.0572
673.3037
671.3631
669.3286
667.392
665.7334
664.2913
662.5032
659.2055
652.8879
642.3392
627.4564
609.7589
592.1858
578.1091
570.0057
568.5262
572.5115
579.8977
588.8561
598.3988
608.1591
617.727
626.2257
632.5151
635.8259
636.2927
635.0217
633.7216
634.1474
637.5277
644.0561
652.6298
661.1504
667.4764
670.5504
670.8773
669.9339
669.0131
668.5235
668.267
668.1737
668.5536
692.945
690.9723
690.4386
689.6949
689.0139
688.2931
687.5329
686.7147
685.8257
684.8544
683.7953
682.6507
681.4312
680.1507
678.8164
677.4151
675.9061
674.2344
672.3711
670.3682
668.3851
666.6254
665.1516
663.6246
661.1215
656.2324
647.553
634.4541
617.7557
599.846
584.0103
573.202
568.8917
570.6611
576.7538
585.1687
594.5359
604.2503
613.9602
622.9979
630.3036
634.8997
636.5061
635.8268
634.3602
633.9005
635.9513
641.1739
649.0056
657.7162
665.1013
669.5818
670.9976
670.47
669.4375
668.712
668.3301
668.1274
668.2374
668.95
692.8478
690.8055
690.2444
689.4701
688.7614
688.011
687.2167
686.3585
685.4239
684.4037
683.2965
682.1097
680.8567
679.5486
678.1817
676.7259
675.1292
673.3477
671.3974
669.3978
667.5488
665.9941
664.5817
662.6334
658.9123
651.9518
640.7308
625.4224
607.7742
590.7712
577.6081
570.4549
569.6986
574.0925
581.6614
590.7199
600.3427
610.1072
619.5056
627.6313
633.4268
636.2737
636.4497
635.1478
634.0921
634.9662
638.8282
645.6415
654.1353
662.2341
668.0204
670.7027
670.8923
669.9602
669.0314
668.4704
668.1653
668.097
668.4837
669.4471
692.7317
690.6231
690.0372
689.2328
688.4956
687.7132
686.8816
685.98
684.9973
683.9281
682.7757
681.5516
680.2692
678.932
677.5209
675.9907
674.2902
672.4072
670.4195
668.5042
666.8485
665.4456
663.8469
661.032
655.5815
646.2212
632.5697
615.7063
598.1493
583.0997
573.2491
569.7744
572.0891
578.4541
586.9973
596.4526
606.209
615.8281
624.5771
631.4299
635.5354
636.7663
635.9417
634.6076
634.5234
637.0606
642.6685
650.5817
659.0081
665.8874
669.8995
671.0677
670.4966
669.4749
668.7098
668.2718
668.0739
668.2235
668.8781
669.9471
692.5975
690.4265
689.8174
688.9827
688.2154
687.398
686.5256
685.5775
684.5456
683.4288
682.2355
680.9792
679.6688
678.295
676.8222
675.1983
673.3909
671.4394
669.4863
667.731
666.2701
664.8557
662.701
658.5177
650.9096
639.0591
623.4036
605.8849
589.4964
577.24