/*--------------------------------*- C++ -*----------------------------------*\
| =========                 |                                                 |
| \\      /  F ield         | OpenFOAM: The Open Source CFD Toolbox           |
|  \\    /   O peration     | Version:  2312                                  |
|   \\  /    A nd           | Website:  www.openfoam.com                      |
|    \\/     M anipulation  |                                                 |
\*---------------------------------------------------------------------------*/
FoamFile
{
    version     2.0;
    format      ascii;
    arch        "LSB;label=32;scalar=64";
    class       surfaceScalarField;
    location    "3450";
    object      phi;
}
// * * * * * * * * * * * * * * * * * * * * * * * * * * * * * * * * * * * * * //

dimensions      [1 0 -1 0 0 0 0];

oriented        oriented;

internalField   nonuniform List<scalar> 
23740
(
-0.0001339135
0.0001337745
-0.0002672136
0.0001333004
-0.000407428
0.0001402145
-0.0005454374
0.0001380095
-0.0006732639
0.0001278265
-0.0007991707
0.0001259068
-0.0009307523
0.0001315813
-0.001059871
0.0001291187
-0.001163973
0.0001041016
-0.001256308
9.233445e-05
-0.001349118
9.280925e-05
-0.00145009
0.0001009721
-0.001539949
8.985818e-05
-0.001606957
6.70069e-05
-0.00166549
5.853285e-05
-0.00173461
6.911975e-05
-0.001805961
7.135022e-05
-0.001860233
5.427141e-05
-0.001899674
3.944026e-05
-0.001942594
4.291967e-05
-0.001991909
4.93144e-05
-0.002033702
4.179323e-05
-0.002061988
2.828502e-05
-0.002086278
2.429008e-05
-0.002114084
2.780542e-05
-0.002141166
2.708076e-05
-0.002160235
1.906863e-05
-0.002171602
1.136636e-05
-0.002182081
1.04783e-05
-0.002194704
1.262131e-05
-0.002204401
9.696516e-06
-0.002208099
3.696751e-06
-0.002206891
-1.210084e-06
-0.002200455
-6.437116e-06
-0.002197505
-2.952392e-06
-0.00219856
1.051681e-06
-0.002195933
-2.628751e-06
-0.002175231
-2.070471e-05
-0.002139827
-3.540648e-05
-0.002112892
-2.693801e-05
-0.002104347
-8.548857e-06
-0.002088326
-1.602388e-05
-0.00203662
-5.170915e-05
-0.001964593
-7.203007e-05
-0.001918554
-4.604244e-05
-0.00191126
-7.296819e-06
-0.001882129
-2.913275e-05
-0.001780476
-0.0001016542
-0.001659412
-0.000121064
-0.001603356
-5.605579e-05
-0.001570202
-3.315295e-05
-0.001458098
-0.0001121031
-0.001291654
-0.0001664407
-0.001167291
-0.0001243602
-0.00105977
-0.000107517
-0.0008979844
-0.0001617817
-0.0006920595
-0.0002059198
-0.0004680085
-0.0002240415
-0.0002391193
-0.0002288701
-0.000239116
-0.0001344388
0.0002682139
-0.0002648989
0.0002637609
-0.000389451
0.000264767
-0.0005120656
0.0002606242
-0.000632239
0.0002479998
-0.0007406909
0.0002343585
-0.0008317314
0.0002226216
-0.0009142167
0.0002116036
-0.001007734
0.000197618
-0.001095456
0.0001800561
-0.001170863
0.000168216
-0.001229096
0.0001592041
-0.001286147
0.0001469085
-0.001351699
0.0001325579
-0.001414221
0.0001210544
-0.00145824
0.0001131373
-0.001491873
0.0001049834
-0.001532187
9.458452e-05
-0.001577508
8.475999e-05
-0.001612224
7.763563e-05
-0.001634349
7.143795e-05
-0.0016566
6.404416e-05
-0.001684434
5.611779e-05
-0.001709662
4.951776e-05
-0.001726012
4.415381e-05
-0.001737605
3.86736e-05
-0.001751063
3.252526e-05
-0.001766203
2.650456e-05
-0.001777162
2.143598e-05
-0.00178153
1.698764e-05
-0.001783993
1.21582e-05
-0.001787591
7.29288e-06
-0.00178918
3.761778e-07
-0.001790247
-5.371522e-06
-0.001783495
-9.707806e-06
-0.001767022
-1.542451e-05
-0.001747901
-2.175372e-05
-0.001738966
-2.964328e-05
-0.001737258
-3.711901e-05
-0.00172129
-4.290997e-05
-0.001681387
-4.845668e-05
-0.001640396
-5.701964e-05
-0.001623619
-6.849078e-05
-0.0016166
-7.90542e-05
-0.001574873
-8.777354e-05
-0.001485668
-9.65047e-05
-0.001406237
-0.0001085652
-0.001385834
-0.0001220579
-0.001371134
-0.0001357642
-0.001277642
-0.0001495473
-0.001143097
-0.0001676957
-0.001071373
-0.0001838234
-0.001039521
-0.0001982882
-0.0009475268
-0.0002163498
-0.0008015983
-0.00025344
-0.0006750988
-0.0002882744
-0.0005590564
-0.0003219525
-0.000406715
-0.0003763708
-0.0002124718
-0.0004230974
-0.0004515857
-0.0001117699
0.0003799843
-0.0002201257
0.0003721172
-0.0003208511
0.0003654927
-0.0004144723
0.0003542455
-0.0005043179
0.0003378454
-0.0005890328
0.0003190732
-0.000667041
0.0003006294
-0.0007377117
0.0002822739
-0.000810592
0.0002704977
-0.0008796731
0.0002491366
-0.00094074
0.0002292821
-0.0009946088
0.0002130721
-0.0010426
0.000194899
-0.001088973
0.0001789304
-0.001132705
0.0001647846
-0.001171652
0.0001520842
-0.001206603
0.0001399334
-0.001240023
0.0001280041
-0.001271886
0.0001166219
-0.001300473
0.0001062221
-0.001325382
9.634584e-05
-0.001348049
8.67104e-05
-0.0013693
7.736772e-05
-0.001388394
6.861101e-05
-0.001404596
6.035522e-05
-0.001418201
5.227747e-05
-0.001429915
4.423783e-05
-0.001439783
3.637164e-05
-0.001447177
2.88282e-05
-0.001451736
2.154531e-05
-0.001454612
1.503294e-05
-0.001455004
7.682501e-06
-0.001453443
-1.1869e-06
-0.001449519
-9.29762e-06
-0.001441977
-1.725306e-05
-0.001431936
-2.546871e-05
-0.001419438
-3.425493e-05
-0.001405332
-4.375341e-05
-0.001388804
-5.365092e-05
-0.001368104
-6.3614e-05
-0.001342643
-7.392185e-05
-0.00131437
-8.529721e-05
-0.001285167
-9.769723e-05
-0.001253191
-0.0001110338
-0.001216144
-0.0001248239
-0.00117325
-0.0001394013
-0.001126271
-0.0001555462
-0.00107513
-0.0001731996
-0.001018727
-0.0001921662
-0.0009596496
-0.0002086239
-0.000898943
-0.0002284001
-0.000831639
-0.0002511246
-0.0007525538
-0.00027737
-0.0006626196
-0.000306279
-0.00057071
-0.0003453431
-0.0004728832
-0.0003860936
-0.0003652962
-0.0004295303
-0.0002598556
-0.0004817996
-0.0001367308
-0.000546209
-0.0005883151
-8.538962e-05
0.0004653745
-0.0001660176
0.0004527456
-0.0002414149
0.0004408903
-0.0003117809
0.0004246116
-0.0003789689
0.0004050334
-0.0004434414
0.0003835456
-0.0005045968
0.0003617845
-0.0005620422
0.0003397189
-0.0006095104
0.0003179654
-0.0006596512
0.0002992768
-0.0007089129
0.0002785433
-0.0007573668
0.0002615254
-0.0008020631
0.0002395947
-0.0008434008
0.0002202674
-0.0008814826
0.0002028658
-0.0009161083
0.0001867093
-0.0009476856
0.0001715102
-0.0009782712
0.0001585891
-0.001006833
0.0001451836
-0.001033066
0.0001324544
-0.001055965
0.0001192435
-0.001076381
0.0001071261
-0.00109467
9.565633e-05
-0.001110772
8.471249e-05
-0.001124596
7.417838e-05
-0.001136254
6.39345e-05
-0.001145907
5.389014e-05
-0.001153546
4.400881e-05
-0.001159025
3.430683e-05
-0.001163261
2.578074e-05
-0.001165065
1.683477e-05
-0.001163837
6.453558e-06
-0.001161325
-3.700464e-06
-0.0011568
-1.382502e-05
-0.001149957
-2.409758e-05
-0.001140841
-3.458702e-05
-0.001129483
-4.561541e-05
-0.001116084
-5.715534e-05
-0.001100521
-6.921664e-05
-0.001082304
-8.183396e-05
-0.001061112
-9.511721e-05
-0.001037088
-0.0001093244
-0.001012006
-0.0001227814
-0.0009836503
-0.0001393925
-0.0009517226
-0.0001567538
-0.0009160639
-0.0001750618
-0.000877014
-0.0001945973
-0.0008346124
-0.0002156016
-0.0007896815
-0.0002370969
-0.0007418476
-0.0002564569
-0.0006874353
-0.0002828108
-0.0006243014
-0.000314256
-0.0005521113
-0.0003495568
-0.0004740561
-0.0003843301
-0.0003987656
-0.0004206289
-0.0003248613
-0.0004599924
-0.0002490603
-0.0005053247
-0.0001706446
-0.0005602065
-8.978253e-05
-0.0006270607
-0.0006780966
-6.63552e-05
0.0005317301
-0.000130538
0.0005169287
-0.0001904984
0.0005008508
-0.000246945
0.0004810583
-0.0003004529
0.0004585413
-0.0003512054
0.000434298
-0.0003987514
0.0004093303
-0.0004431281
0.0003840953
-0.0004838533
0.0003586902
-0.0005205185
0.0003359417
-0.0005568081
0.0003148325
-0.0005916577
0.0002963746
-0.0006276957
0.0002756322
-0.0006611658
0.0002537371
-0.0006920553
0.0002337548
-0.0007204256
0.0002150791
-0.000746296
0.0001973802
-0.0007701157
0.0001824085
-0.0007922028
0.0001672703
-0.0008124939
0.0001527451
-0.0008308739
0.000137623
-0.0008472297
0.0001234815
-0.0008616647
0.0001100907
-0.0008742213
9.72685e-05
-0.0008849349
8.48914e-05
-0.0008938624
7.286127e-05
-0.0009010725
6.109949e-05
-0.0009066104
4.95459e-05
-0.000910441
3.813666e-05
-0.0009125866
2.792553e-05
-0.0009120232
1.627031e-05
-0.0009102656
4.694785e-06
-0.0009070557
-6.911596e-06
-0.0009021121
-1.876992e-05
-0.0008952922
-3.0919e-05
-0.0008875397
-4.234107e-05
-0.0008776229
-5.553402e-05
-0.00086571
-6.907011e-05
-0.0008518413
-8.308738e-05
-0.0008359478
-9.772958e-05
-0.000817934
-0.0001131331
-0.0007979251
-0.0001293351
-0.0007755938
-0.0001451146
-0.0007507695
-0.0001642187
-0.0007235634
-0.0001839613
-0.0006938294
-0.0002047969
-0.0006614883
-0.0002269391
-0.0006278536
-0.0002492366
-0.00059203
-0.0002729202
-0.0005487205
-0.0002997656
-0.0004997144
-0.0003318155
-0.0004492884
-0.0003646804
-0.0004000599
-0.0003987831
-0.0003497913
-0.0004345961
-0.0002969821
-0.000473435
-0.0002407527
-0.0005162182
-0.0001819824
-0.0005640904
-0.0001228945
-0.0006192881
-6.364739e-05
-0.0006863002
-0.0007417433
-4.935683e-05
0.0005810872
-9.721298e-05
0.0005647851
-0.0001416722
0.0005453101
-0.0001835722
0.0005229584
-0.0002232741
0.0004982431
-0.0002610975
0.0004721213
-0.0002972219
0.0004454545
-0.0003319574
0.0004188306
-0.0003659775
0.0003927101
-0.0003977892
0.0003677531
-0.0004268937
0.0003439367
-0.0004517132
0.0003211938
-0.0004769248
0.0003008435
-0.0005031098
0.0002799217
-0.0005277009
0.0002583455
-0.0005507781
0.0002381559
-0.0005724756
0.0002190774
-0.0005912645
0.000201197
-0.0006080952
0.0001841006
-0.000622995
0.0001676446
-0.0006370275
0.000151655
-0.0006497799
0.0001362334
-0.0006610818
0.0001213922
-0.0006708881
0.0001070743
-0.0006792073
9.321003e-05
-0.0006860746
7.9728e-05
-0.0006915358
6.655998e-05
-0.0006956329
5.364238e-05
-0.0006984051
4.090817e-05
-0.0006988276
2.834722e-05
-0.0006982347
1.567667e-05
-0.0006964707
2.929905e-06
-0.0006941593
-9.223953e-06
-0.0006903384
-2.259176e-05
-0.0006851401
-3.61183e-05
-0.000678553
-4.892933e-05
-0.0006705711
-6.351714e-05
-0.0006612464
-7.839607e-05
-0.0006505531
-9.378206e-05
-0.0006384604
-0.0001098237
-0.0006249467
-0.0001266482
-0.0006099233
-0.0001443599
-0.0005919223
-0.0001631168
-0.0005729187
-0.0001832234
-0.0005523701
-0.0002045109
-0.0005299286
-0.0002272391
-0.0005063367
-0.0002505316
-0.0004799662
-0.0002756071
-0.000448832
-0.0003040543
-0.0004132785
-0.0003353185
-0.0003772726
-0.0003678205
-0.0003402138
-0.000401738
-0.00030138
-0.0004376153
-0.0002603067
-0.0004756674
-0.0002175216
-0.0005162179
-0.0001738539
-0.0005598832
-0.0001300524
-0.0006078886
-8.666842e-05
-0.0006626675
-4.447877e-05
-0.0007284842
-0.0007862215
-3.711902e-05
0.0006182064
-7.256123e-05
0.0006002273
-0.0001049704
0.0005777193
-0.0001353419
0.0005533298
-0.0001641543
0.0005270555
-0.0001917759
0.0004997428
-0.0002184474
0.0004721259
-0.0002443286
0.0004447117
-0.0002694898
0.0004178711
-0.0002936267
0.0003918897
-0.0003164787
0.0003667885
-0.0003377152
0.0003424301
-0.0003561269
0.000319255
-0.0003743838
0.0002981783
-0.0003931681
0.0002771296
-0.0004107238
0.0002557113
-0.0004269452
0.0002352985
-0.0004416129
0.0002158644
-0.0004548311
0.0001973184
-0.0004666906
0.0001795038
-0.0004773599
0.0001623239
-0.0004868837
0.0001457568
-0.0004952583
0.0001297664
-0.0005024843
0.0001142998
-0.0005085702
9.929542e-05
-0.0005135299
8.46872e-05
-0.0005173774
7.040691e-05
-0.0005201211
5.638551e-05
-0.0005217632
4.254969e-05
-0.0005222488
2.883224e-05
-0.0005216744
1.510168e-05
-0.0005207282
1.983063e-06
-0.0005187364
-1.121643e-05
-0.0005157791
-2.554985e-05
-0.0005119022
-3.999598e-05
-0.0005061568
-5.467549e-05
-0.0004997863
-6.988852e-05
-0.000492562
-8.562123e-05
-0.0004843605
-0.0001019845
-0.0004750986
-0.0001190865
-0.0004647004
-0.0001370473
-0.0004530723
-0.0001559888
-0.0004401551
-0.0001760348
-0.0004260121
-0.0001973671
-0.0004104172
-0.0002201064
-0.0003936571
-0.0002439996
-0.0003745617
-0.0002696271
-0.0003519516
-0.0002982173
-0.0003275461
-0.0003284596
-0.0003025053
-0.0003603589
-0.0002763942
-0.000393931
-0.0002488406
-0.0004292907
-0.0002199642
-0.0004664906
-0.0001899681
-0.0005056622
-0.0001590683
-0.0005471162
-0.0001274998
-0.0005914498
-9.558803e-05
-0.000639798
-6.381337e-05
-0.0006944387
-3.262365e-05
-0.0007596697
-0.0008188448
-2.677086e-05
0.0006449773
-5.209329e-05
0.0006255498
-7.489414e-05
0.0006005202
-9.622878e-05
0.0005746644
-0.0001166182
0.0005474448
-0.0001363048
0.0005194293
-0.0001554242
0.0004912452
-0.0001740436
0.000463331
-0.000192136
0.0004359634
-0.0002095595
0.0004093131
-0.0002262123
0.0003834412
-0.0002421103
0.0003583279
-0.0002569482
0.0003340927
-0.0002695229
0.0003107528
-0.0002817014
0.0002893079
-0.0002943001
0.0002683097
-0.0003062505
0.0002472487
-0.0003172479
0.0002268615
-0.0003272582
0.0002073285
-0.0003362879
0.0001885332
-0.000344392
0.0001704277
-0.0003515986
0.0001529631
-0.0003579244
0.0001360919
-0.0003633847
0.0001197597
-0.0003679947
0.0001039051
-0.0003717711
8.84632e-05
-0.0003747307
7.336608e-05
-0.0003768892
5.854355e-05
-0.0003782618
4.392185e-05
-0.0003788548
2.942483e-05
-0.0003787279
1.497429e-05
-0.0003783631
1.617807e-06
-0.0003765312
-1.30488e-05
-0.0003741693
-2.791226e-05
-0.0003711622
-4.30037e-05
-0.0003674194
-5.841884e-05
-0.000363005
-7.430348e-05
-0.0003578898
-9.073695e-05
-0.0003520464
-0.0001078284
-0.0003454409
-0.0001256926
-0.0003380342
-0.0001444545
-0.0003297755
-0.000164248
-0.0003205925
-0.0001852184
-0.0003104431
-0.0002075169
-0.000299204
-0.0002313458
-0.0002865057
-0.0002566982
-0.0002718306
-0.0002843024
-0.0002564342
-0.0003136136
-0.0002401681
-0.0003447256
-0.0002227547
-0.000377772
-0.0002039625
-0.0004127228
-0.0001837641
-0.0004494885
-0.0001622744
-0.0004879796
-0.0001397164
-0.0005282193
-0.0001163775
-0.000570454
-9.258084e-05
-0.000615245
-6.869371e-05
-0.0006636834
-4.518988e-05
-0.0007179401
-2.276516e-05
-0.0007820913
-0.0008416096
-1.876636e-05
0.0006637437
-3.606699e-05
0.0006428504
-5.110561e-05
0.0006155588
-6.483075e-05
0.0005883895
-7.775432e-05
0.0005603684
-9.028158e-05
0.0005319565
-0.0001026523
0.0005036159
-0.0001148963
0.0004755749
-0.0001269639
0.0004480309
-0.0001387555
0.0004211046
-0.0001501833
0.0003948688
-0.0001612259
0.0003693704
-0.00017181
0.0003446766
-0.0001818574
0.0003208001
-0.0001903256
0.0002977759
-0.0001982828
0.0002762668
-0.0002066043
0.00025557
-0.0002148402
0.0002350971
-0.0002224723
0.0002149604
-0.00022941
0.0001954707
-0.0002356197
0.0001766371
-0.0002411174
0.0001584606
-0.0002459498
0.0001409239
-0.0002501616
0.0001239713
-0.0002537748
0.0001075179
-0.000256805
9.149311e-05
-0.0002592658
7.582654e-05
-0.0002611711
6.044854e-05
-0.0002625371
4.528746e-05
-0.0002633806
3.026807e-05
-0.0002637214
1.531472e-05
-0.0002632693
1.165342e-06
-0.0002623358
-1.398269e-05
-0.0002609369
-2.931147e-05
-0.0002590434
-4.489759e-05
-0.0002566246
-6.083796e-05
-0.0002536904
-7.723806e-05
-0.0002502263
-9.420143e-05
-0.0002462149
-0.0001118402
-0.0002416354
-0.0001302725
-0.0002364662
-0.000149624
-0.0002306869
-0.0001700276
-0.0002242826
-0.000191623
-0.0002172226
-0.0002145771
-0.0002096156
-0.000238953
-0.0002012268
-0.0002650871
-0.0001922657
-0.0002932635
-0.0001825191
-0.0003233602
-0.0001717231
-0.0003555214
-0.0001596953
-0.0003897996
-0.0001463124
-0.0004261054
-0.0001316212
-0.0004641792
-0.0001158739
-0.0005037264
-9.942489e-05
-0.0005446677
-8.259226e-05
-0.0005872858
-6.564277e-05
-0.0006321935
-4.881656e-05
-0.0006805084
-3.234916e-05
-0.0007344057
-1.64677e-05
-0.0007979705
-0.0008580771
-1.275317e-05
0.0006764969
-2.398946e-05
0.0006540868
-3.332159e-05
0.000624891
-4.160053e-05
0.0005966685
-4.922314e-05
0.000567991
-5.661217e-05
0.0005393455
-6.400119e-05
0.0005110048
-7.139633e-05
0.00048297
-7.877819e-05
0.0004554127
-8.611249e-05
0.0004284388
-9.342651e-05
0.0004021827
-0.000100742
0.0003766858
-0.0001079891
0.0003519236
-0.0001150793
0.0003278902
-0.0001218656
0.0003045621
-0.0001275828
0.0002819839
-0.0001324139
0.000260401
-0.0001369858
0.0002396689
-0.0001414829
0.0002194574
-0.0001458393
0.0001998269
-0.0001500096
0.0001808073
-0.0001539291
0.0001623799
-0.0001575167
0.0001445113
-0.0001607387
0.0001271931
-0.0001635808
0.0001103598
-0.0001660452
9.395734e-05
-0.0001681406
7.792166e-05
-0.0001698823
6.219005e-05
-0.0001712851
4.668999e-05
-0.0001723563
3.133904e-05
-0.0001731002
1.605838e-05
-0.000173232
1.296936e-06
-0.0001730678
-1.414721e-05
-0.0001726036
-2.977586e-05
-0.0001718256
-4.567582e-05
-0.0001707216
-6.194223e-05
-0.0001692834
-7.867648e-05
-0.0001675006
-9.598444e-05
-0.0001653624
-0.0001139786
-0.0001628572
-0.0001327779
-0.0001599738
-0.0001525076
-0.0001567029
-0.0001732987
-0.0001530406
-0.0001952854
-0.0001490087
-0.0002186092
-0.0001446094
-0.0002433524
-0.0001397075
-0.0002699891
-0.0001343516
-0.0002986194
-0.0001283753
-0.0003293365
-0.0001215663
-0.0003623303
-0.0001136043
-0.0003977615
-0.000104215
-0.0004354944
-9.349488e-05
-0.0004748991
-8.193945e-05
-0.0005152815
-7.002787e-05
-0.0005565788
-5.797028e-05
-0.0005993429
-4.589263e-05
-0.0006442705
-3.391759e-05
-0.0006924825
-2.221282e-05
-0.0007461091
-1.110697e-05
-0.0008090746
-0.0008691839
-7.863624e-06
0.0006843606
-1.402058e-05
0.0006602439
-1.790547e-05
0.000628776
-2.083255e-05
0.0005995956
-2.40966e-05
0.0005712551
-2.757832e-05
0.0005428272
-3.09905e-05
0.000514417
-3.449708e-05
0.0004864765
-3.81386e-05
0.0004590542
-4.19045e-05
0.0004322046
-4.573485e-05
0.000406013
-4.955651e-05
0.0003805073
-5.329807e-05
0.000355665
-5.691588e-05
0.0003315079
-6.041412e-05
0.0003080602
-6.374959e-05
0.0002853192
-6.666998e-05
0.0002633213
-6.929709e-05
0.0002422959
-7.201157e-05
0.0002221717
-7.488599e-05
0.0002027012
-7.791522e-05
0.0001838364
-8.106545e-05
0.00016553
-8.420458e-05
0.0001476503
-8.717159e-05
0.00013016
-8.994263e-05
0.0001131307
-9.249609e-05
9.651063e-05
-9.481804e-05
8.024345e-05
-9.689304e-05
6.426488e-05
-9.871852e-05
4.85153e-05
-0.0001002984
3.291876e-05
-0.0001016403
1.740013e-05
-0.0001025172
2.173653e-06
-0.0001032027
-1.346184e-05
-0.0001036934
-2.928534e-05
-0.0001039873
-4.538214e-05
-0.0001040839
-6.184575e-05
-0.0001039835
-7.877705e-05
-0.0001036858
-9.62822e-05
-0.0001031901
-0.0001144745
-0.0001024928
-0.0001334753
-0.0001015858
-0.0001534148
-0.0001004515
-0.0001744331
-9.905504e-05
-0.000196682
-9.735122e-05
-0.0002203131
-9.514622e-05
-0.0002455574
-9.25636e-05
-0.0002725718
-8.980892e-05
-0.0003013741
-8.660458e-05
-0.0003325408
-8.251883e-05
-0.000366416
-7.72747e-05
-0.0004030055
-7.078425e-05
-0.0004419847
-6.324271e-05
-0.0004824405
-5.508236e-05
-0.0005234416
-4.677156e-05
-0.0005648893
-3.854582e-05
-0.0006075682
-3.043558e-05
-0.0006523802
-2.248896e-05
-0.0007004285
-1.4788e-05
-0.0007538091
-7.467193e-06
-0.0008163942
-0.000876651
-3.755431e-06
0.0006881163
-5.20547e-06
0.0006616942
-4.617688e-06
0.0006281884
-3.472212e-06
0.0005984503
-2.052233e-06
0.0005698352
-9.80465e-07
0.0005417555
-6.514663e-07
0.000514088
-1.047119e-06
0.0004868721
-2.136327e-06
0.0004601433
-3.843054e-06
0.0004339113
-5.90659e-06
0.0004080764
-8.173938e-06
0.0003827746
-1.070983e-05
0.0003582008
-1.346235e-05
0.0003342603
-1.631251e-05
0.0003109103
-1.916485e-05
0.0002881715
-2.198273e-05
0.000266139
-2.452372e-05
0.0002448368
-2.665448e-05
0.0002243024
-2.845791e-05
0.0002045045
-3.00312e-05
0.0001854095
-3.144467e-05
0.0001669433
-3.289294e-05
0.0001490985
-3.451425e-05
0.0001317812
-3.626555e-05
0.0001148819
-3.811432e-05
9.83593e-05
-4.002883e-05
8.215784e-05
-4.195219e-05
6.618813e-05
-4.381794e-05
5.038094e-05
-4.560554e-05
3.470625e-05
-4.729912e-05
1.90936e-05
-4.871077e-05
3.585196e-06
-5.003959e-05
-1.213312e-05
-5.128347e-05
-2.804156e-05
-5.242925e-05
-4.423645e-05
-5.347646e-05
-6.079863e-05
-5.442528e-05
-7.782832e-05
-5.527789e-05
-9.542968e-05
-5.603724e-05
-0.0001137152
-5.670596e-05
-0.0001328066
-5.728451e-05
-0.0001528363
-5.776847e-05
-0.0001739492
-5.814438e-05
-0.0001963061
-5.837686e-05
-0.0002200807
-5.846038e-05
-0.0002454739
-5.828471e-05
-0.0002727474
-5.743872e-05
-0.0003022201
-5.585473e-05
-0.0003341248
-5.350702e-05
-0.0003687637
-5.02842e-05
-0.0004062283
-4.631509e-05
-0.0004459537
-4.165353e-05
-0.0004871019
-3.638067e-05
-0.0005287142
-3.087283e-05
-0.0005703969
-2.54413e-05
-0.0006129994
-2.007278e-05
-0.0006577483
-1.478304e-05
-0.0007057177
-9.631924e-06
-0.0007589594
-4.770882e-06
-0.0008212542
-0.0008814218
-1.616076e-06
0.0006897327
-6.463405e-07
0.0006607247
1.681018e-06
0.0006258612
4.821035e-06
0.0005953104
8.181125e-06
0.0005664751
1.149194e-05
0.0005384447
1.460231e-05
0.0005109776
1.747421e-05
0.0004840002
2.007798e-05
0.0004575395
2.231949e-05
0.0004316697
2.382743e-05
0.0004065684
2.432883e-05
0.0003822731
2.390087e-05
0.0003586287
2.267435e-05
0.0003354868
2.093393e-05
0.0003126506
1.890998e-05
0.0002901953
1.673688e-05
0.0002683121
1.45584e-05
0.0002470152
1.24969e-05
0.0002263638
1.057702e-05
0.0002064243
8.780267e-06
0.0001872062
7.073195e-06
0.0001686503
5.494708e-06
0.0001506769
4.011928e-06
0.0001332639
2.548987e-06
0.0001163447
1.087873e-06
9.982034e-05
-3.739056e-07
8.361955e-05
-1.892742e-06
6.770689e-05
-3.510168e-06
5.199829e-05
-5.203576e-06
3.639959e-05
-6.949716e-06
2.083967e-05
-8.62761e-06
5.26302e-06
-1.034482e-05
-1.041598e-05
-1.207924e-05
-2.630721e-05
-1.381378e-05
-4.250197e-05
-1.553316e-05
-5.90793e-05
-1.723328e-05
-7.612825e-05
-1.891236e-05
-9.375065e-05
-2.057133e-05
-0.0001120563
-2.221292e-05
-0.0001311651
-2.384032e-05
-0.0001512089
-2.545671e-05
-0.0001723328
-2.706723e-05
-0.0001946956
-2.868993e-05
-0.000218458
-3.025371e-05
-0.0002439101
-3.150397e-05
-0.0002714972
-3.215153e-05
-0.0003015725
-3.195888e-05
-0.0003343174
-3.09843e-05
-0.0003697382
-2.950934e-05
-0.0004077032
-2.752501e-05
-0.0004479379
-2.49413e-05
-0.0004896855
-2.181435e-05
-0.000531841
-1.844304e-05
-0.000573768
-1.508329e-05
-0.0006163589
-1.17913e-05
-0.00066104
-8.603954e-06
-0.0007089047
-5.568296e-06
-0.0007619945
-2.765967e-06
-0.0008240557
-0.0008841877
-3.610231e-07
0.0006900941
2.084113e-06
0.0006582799
6.666681e-06
0.0006212789
1.203127e-05
0.000589946
1.751849e-05
0.0005609881
2.28089e-05
0.0005331544
2.77461e-05
0.0005060405
3.222555e-05
0.0004795208
3.614157e-05
0.0004536235
3.938198e-05
0.0004284293
4.199759e-05
0.0004039527
4.408724e-05
0.0003801834
4.570593e-05
0.00035701
4.691481e-05
0.0003342778
4.75109e-05
0.0003120545
4.735638e-05
0.0002903498
4.66687e-05
0.0002689997
4.559414e-05
0.0002480897
4.421142e-05
0.0002277465
4.261859e-05
0.0002080171
4.090786e-05
0.0001889169
3.915284e-05
0.0001704053
3.740032e-05
0.0001524294
3.56851e-05
0.0001349791
3.399664e-05
0.0001180332
3.229181e-05
0.0001015251
3.05159e-05
8.539542e-05
2.86798e-05
6.954296e-05
2.680031e-05
5.387774e-05
2.486666e-05
3.833319e-05
2.2876e-05
2.283029e-05
2.084724e-05
7.291745e-06
1.876436e-05
-8.333133e-06
1.657008e-05
-2.411297e-05
1.433606e-05
-4.026798e-05
1.20595e-05
-5.680277e-05
9.744439e-06
-7.381321e-05
7.391661e-06
-9.13979e-05
4.999164e-06
-0.0001096638
2.561387e-06
-0.0001287273
6.908264e-08
-0.0001487166
-2.495123e-06
-0.0001697686
-5.119425e-06
-0.0001920713
-7.707681e-06
-0.0002158697
-1.009016e-05
-0.0002415277
-1.213438e-05
-0.0002694529
-1.378093e-05
-0.000299926
-1.494694e-05
-0.0003331513
-1.549897e-05
-0.0003691861
-1.533394e-05
-0.0004078681
-1.459406e-05
-0.0004486777
-1.34766e-05
-0.0004908028
-1.197611e-05
-0.0005333414
-1.013569e-05
-0.0005756083
-8.208491e-06
-0.0006182859
-6.363057e-06
-0.0006628852
-4.606449e-06
-0.0007106609
-2.94844e-06
-0.000763652
-1.431642e-06
-0.0008255718
-0.0008856192
8.687608e-07
0.0006892259
5.095896e-06
0.0006540532
1.130384e-05
0.0006150713
1.825458e-05
0.0005829955
2.527936e-05
0.0005539634
3.202994e-05
0.0005264039
3.831105e-05
0.0004997594
4.399195e-05
0.0004738399
4.900999e-05
0.0004486054
5.338604e-05
0.0004240532
5.714998e-05
0.0004001887
6.029095e-05
0.0003770424
6.279819e-05
0.0003545026
6.466808e-05
0.0003324078
6.600745e-05
0.000310715
6.693927e-05
0.0002894179
6.731932e-05
0.0002686196
6.710647e-05
0.0002483025
6.643751e-05
0.0002284154
6.539968e-05
0.0002090549
6.408773e-05
0.0001902288
6.258129e-05
0.0001719117
6.093796e-05
0.0001540727
5.921585e-05
0.0001367012
5.745501e-05
0.000119794
5.56435e-05
0.0001033366
5.374823e-05
8.729065e-05
5.17449e-05
7.154627e-05
4.96235e-05
5.599912e-05
4.737834e-05
4.057833e-05
4.502301e-05
2.51856e-05
4.257668e-05
9.738048e-06
4.007538e-05
-5.831844e-06
3.740637e-05
-2.144398e-05
3.466738e-05
-3.7529e-05
3.186596e-05
-5.400136e-05
2.900436e-05
-7.095162e-05
2.608006e-05
-8.84736e-05
2.308373e-05
-0.0001066675
1.9996e-05
-0.0001256396
1.68056e-05
-0.0001455262
1.354472e-05
-0.0001665078
1.029677e-05
-0.0001888233
7.209946e-06
-0.0002127829
4.403094e-06
-0.0002387208
1.905483e-06
-0.0002669553
-2.641318e-07
-0.0002977563
-2.104264e-06
-0.0003313112
-3.598084e-06
-0.0003676923
-4.70449e-06
-0.0004067617
-5.313658e-06
-0.0004480685
-5.298849e-06
-0.0004908175
-4.73695e-06
-0.0005339032
-3.857846e-06
-0.0005764873
-2.934081e-06
-0.0006192095
-2.114141e-06
-0.0006637049
-1.399779e-06
-0.000711375
-8.036459e-07
-0.0007642477
-3.604847e-07
-0.0008260145
-0.0008859797
1.700438e-06
0.0006875262
6.826333e-06
0.0006489278
1.398082e-05
0.0006079172
2.194246e-05
0.0005750341
3.003695e-05
0.0005458691
3.789651e-05
0.0005185444
4.530448e-05
0.0004923515
5.212782e-05
0.0004670165
5.829405e-05
0.0004424391
6.376394e-05
0.0004185832
6.851443e-05
0.0003954382
7.254825e-05
0.0003730085
7.583543e-05
0.0003512154
7.838528e-05
0.0003298579
8.028948e-05
0.0003088108
8.159258e-05
0.0002881147
8.237078e-05
0.0002678413
8.265389e-05
0.0002480193
8.236622e-05
0.000228703
8.157297e-05
0.0002098481
8.037465e-05
0.0001914271
7.887101e-05
0.0001734153
7.714588e-05
0.0001557978
7.526753e-05
0.0001385795
7.328758e-05
0.0001217739
7.12412e-05
0.000105383
6.915e-05
8.938184e-05
6.698826e-05
7.3708e-05
6.471091e-05
5.827646e-05
6.230185e-05
4.298738e-05
5.976037e-05
2.772709e-05
5.708849e-05
1.240992e-05
5.427886e-05
-3.022213e-06
5.129297e-05
-1.84581e-05
4.818553e-05
-3.442156e-05
4.498335e-05
-5.079918e-05
4.16985e-05
-6.766676e-05
3.832953e-05
-8.510464e-05
3.487109e-05
-0.0001032091
3.132475e-05
-0.0001220932
2.771163e-05
-0.0001419131
2.409669e-05
-0.0001628928
2.057204e-05
-0.0001852987
1.721341e-05
-0.0002094243
1.408473e-05
-0.0002355921
1.124384e-05
-0.0002641144
8.729912e-06
-0.0002952424
6.548368e-06
-0.0003291296
4.658705e-06
-0.0003658026
3.030688e-06
-0.0004051336
1.708371e-06
-0.0004467461
7.570834e-07
-0.0004898662
2.242328e-07
-0.0005333702
3.786718e-08
-0.0005763008
1.001677e-08
-0.0006191815
-6.204827e-09
-0.0006636885
-1.207725e-08
-0.0007113689
-1.174564e-08
-0.0007642475
-1.507097e-09
-0.000826024
-0.0008859811
2.080156e-06
0.0006854465
7.757636e-06
0.0006432508
1.551821e-05
0.000600157
2.413898e-05
0.0005664136
3.29396e-05
0.0005370687
4.152418e-05
0.00050996
4.965409e-05
0.0004842216
5.718513e-05
0.0004594855
6.403715e-05
0.0004355871
7.017327e-05
0.0004124471
7.558894e-05
0.0003900224
8.031101e-05
0.0003682863
8.433588e-05
0.0003471904
8.760934e-05
0.0003265844
9.010507e-05
0.0003063149
9.186298e-05
0.0002863567
9.294612e-05
0.0002667581
9.335959e-05
0.0002476058
9.314677e-05
0.0002289158
9.238461e-05
0.0002106102
9.115707e-05
0.0001926546
8.956008e-05
0.0001750123
8.768869e-05
0.0001576691
8.562744e-05
0.0001406407
8.343882e-05
0.0001239625
8.115673e-05
0.0001076651
7.879161e-05
9.174696e-05
7.633929e-05
7.616032e-05
7.379622e-05
6.081952e-05
7.116489e-05
4.561872e-05
6.844058e-05
3.04514e-05
6.560993e-05
1.524057e-05
6.262655e-05
-3.882855e-08
5.94321e-05
-1.526365e-05
5.607463e-05
-3.106409e-05
5.261734e-05
-4.734188e-05
4.907805e-05
-6.412746e-05
4.545476e-05
-8.148134e-05
4.174744e-05
-9.950173e-05
3.797863e-05
-0.0001183244
3.419284e-05
-0.0001381273
3.043859e-05
-0.0001591386
2.677424e-05
-0.0001816343
2.327375e-05
-0.0002059238
2.000611e-05
-0.0002323245
1.702016e-05
-0.0002611285
1.434544e-05
-0.0002925677
1.199794e-05
-0.0003267821
9.984965e-06
-0.0003637896
8.30035e-06
-0.000403449
6.90776e-06
-0.0004453535
5.774772e-06
-0.0004887331
4.901236e-06
-0.0005324966
4.275076e-06
-0.0005756745
3.739076e-06
-0.0006186453
3.143342e-06
-0.0006630926
2.482443e-06
-0.0007107077
1.743909e-06
-0.0007635086
9.112209e-07
-0.0008251908
-0.0008850698
2.157928e-06
0.0006832893
8.016066e-06
0.0006373932
1.603659e-05
0.0005921369
2.499138e-05
0.0005574591
3.41761e-05
0.0005278842
4.316959e-05
0.0005009666
5.171398e-05
0.0004756773
5.965348e-05
0.0004515459
6.690085e-05
0.0004283397
7.341687e-05
0.000405931
7.919852e-05
0.0003842407
8.427299e-05
0.0003632117
8.866964e-05
0.0003427937
9.235108e-05
0.0003229028
9.523462e-05
0.0003034313
9.729829e-05
0.000284293
9.857018e-05
0.0002654862
9.911756e-05
0.0002470583
9.901943e-05
0.0002290139
9.830955e-05
0.0002113201
9.70632e-05
0.0001939009
9.537516e-05
0.0001767003
9.334994e-05
0.0001596944
9.108728e-05
0.0001429034
8.866857e-05
0.0001263812
8.614781e-05
0.0001101858
8.354945e-05
9.434532e-05
8.087287e-05
7.88369e-05
7.810679e-05
6.358561e-05
7.52455e-05
4.848001e-05
7.229552e-05
3.340139e-05
6.926844e-05
1.826766e-05
6.613991e-05
3.089709e-06
6.284651e-05
-1.197025e-05
5.934399e-05
-2.756156e-05
5.574354e-05
-4.374142e-05
5.208324e-05
-6.046716e-05
4.836964e-05
-7.776773e-05
4.460532e-05
-9.57374e-05
4.080472e-05
-0.0001145238
3.700114e-05
-0.0001343237
3.324442e-05
-0.0001553818
2.959328e-05
-0.0001779832
2.610668e-05
-0.0002024372
2.283679e-05
-0.0002290546
1.982378e-05
-0.0002581155
1.709191e-05
-0.0002898358
1.464849e-05
-0.0003243387
1.248871e-05
-0.0003616298
1.060643e-05
-0.0004015667
9.0026e-06
-0.0004437496
7.673133e-06
-0.0004874036
6.578315e-06
-0.0005314018
5.642952e-06
-0.0005747391
4.750822e-06
-0.0006177531
3.826147e-06
-0.0006621677
2.882226e-06
-0.0007097636
1.928182e-06
-0.0007625542
9.648827e-07
-0.000824227
-0.0008841049
1.880229e-06
0.00068141
7.806227e-06
0.0006314678
1.590502e-05
0.0005840386
2.496561e-05
0.0005483988
3.428081e-05
0.0005185692
4.342161e-05
0.0004918259
5.21254e-05
0.0004669735
6.023244e-05
0.0004434389
6.765188e-05
0.0004209202
7.433992e-05
0.0003992428
8.028566e-05
0.0003782948
8.550212e-05
0.0003579952
9.001778e-05
0.0003382779