/*--------------------------------*- C++ -*----------------------------------*\
| =========                 |                                                 |
| \\      /  F ield         | OpenFOAM: The Open Source CFD Toolbox           |
|  \\    /   O peration     | Version:  2312                                  |
|   \\  /    A nd           | Website:  www.openfoam.com                      |
|    \\/     M anipulation  |                                                 |
\*---------------------------------------------------------------------------*/
FoamFile
{
    version     2.0;
    format      ascii;
    arch        "LSB;label=32;scalar=64";
    class       volScalarField;
    location    "3450";
    object      qr;
}
// * * * * * * * * * * * * * * * * * * * * * * * * * * * * * * * * * * * * * //

dimensions      [1 0 -3 0 0 0 0];

internalField   uniform 0;

boundaryField
{
    plate
    {
        type            calculated;
        value           nonuniform List<scalar> 
200
(
-3879.776
-4051.804
-4202.961
-4141.474
-3951.292
-3801.042
-3744.275
-5350.846
-4320.359
-3518.89
-3497.888
-3540.483
-3601.287
-3625.834
-3566.798
-3535.622
-3512.741
-3506.434
-3541.696
-3539.136
-3551.733
-3629.474
-3642.939
-3704.404
-3662.123
-3670.909
-3679.005
-3717.875
-3785.479
-3772.574
-3787.345
-3775.764
-3751.887
-3736.555
-3712.038
-3713.888
-3723.421
-3739.348
-3755.793
-3762.061
-3767.493
-3769.188
-3771.053
-3773.987
-3776.124
-3778.009
-3777.638
-3775.034
-3771.017
-3766.437
-3763.037
-3761.294
-3761.062
-3761.932
-3763.132
-3764.36
-3765.633
-3767.005
-3768.572
-3769.962
-3770.804
-3770.674
-3769.172
-3766.455
-3762.864
-3759.159
-3755.925
-3753.502
-3752.015
-3751.251
-3750.954
-3750.761
-3750.548
-3750.312
-3750.041
-3749.837
-3749.65
-3749.445
-3749.207
-3748.782
-3748.153
-3747.265
-3746.202
-3745.034
-3743.784
-3742.526
-3741.325
-3740.28
-3739.39
-3738.668
-3738.11
-3737.669
-3737.309
-3736.939
-3736.512
-3736.028
-3735.459
-3734.855
-3734.236
-3733.684
-3733.175
-3732.707
-3732.263
-3731.865
-3731.509
-3731.173
-3730.874
-3730.62
-3730.445
-3730.304
-3730.212
-3730.1
-3729.971
-3729.776
-3729.542
-3729.269
-3729.044
-3728.855
-3728.798
-3728.873
-3729.128
-3729.543
-3730.06
-3730.655
-3731.112
-3731.493
-3731.51
-3731.434
-3730.863
-3730.329
-3729.674
-3729.022
-3728.432
-3727.796
-3727.047
-3726.114
-3725.097
-3724.299
-3724.152
-3725.133
-3727.431
-3730.908
-3734.905
-3738.459
-3740.577
-3740.564
-3738.298
-3734.209
-3729.18
-3724.158
-3719.955
-3717.108
-3715.902
-3716.483
-3718.831
-3722.738
-3727.483
-3731.924
-3734.639
-3734.52
-3731.278
-3725.937
-3720.505
-3717.213
-3717.343
-3720.524
-3724.556
-3726.277
-3723.066
-3714.86
-3704.973
-3699.027
-3701.706
-3713.707
-3730.528
-3744.072
-3746.022
-3732.235
-3706.232
-3679.209
-3664.593
-3669.098
-3688.078
-3710.443
-3725.614
-3730.908
-3725.73
-3711.837
-3685.974
-3657.917
-3644.21
-3656.253
-3690.156
-3724.571
-3741.08
-3780.494
-4909.48
-324.8637
-7481.018
-7600.213
)
;
    }
    riser
    {
        type            calculated;
        value           nonuniform List<scalar> 
200
(
2151.603
2177.053
2243.217
2371.235
2525.389
2645.668
2709.919
2719.425
2688.907
2667.072
2693.041
2743.846
2782.023
2818.291
2885.446
2982.075
3069.769
3115.609
3119.911
3106.552
3097.183
3096.652
3097.112
3091.086
3078.837
3066.255
3059.062
3060.262
3071.895
3097.372
3139.632
3196.739
3260.628
3320.884
3369.081
3400.688
3415.193
3415.607
3407.518
3397.121
3388.896
3384.296
3382.189
3380.471
3377.651
3373.553
3369.156
3365.914
3365.022
3366.887
3371.018
3376.304
3381.54
3385.911
3389.202
3391.701
3393.909
3396.221
3398.751
3401.316
3403.579
3405.216
3406.06
3406.158
3405.744
3405.138
3404.635
3404.426
3404.57
3405.003
3405.587
3406.156
3406.577
3406.782
3406.775
3406.63
3406.471
3406.439
3406.664
3407.235
3408.182
3409.478
3411.037
3412.721
3414.351
3415.721
3416.61
3416.798
3416.087
3414.325
3411.442
3407.466
3402.542
3396.928
3390.976
3385.103
3379.741
3375.298
3372.118
3370.448
3370.421
3372.046
3375.218
3379.729
3385.287
3391.544
3398.128
3404.673
3410.847
3416.376
3421.064
3424.795
3427.534
3429.314
3430.214
3430.351
3429.856
3428.868
3427.536
3426.013
3424.463
3423.052
3421.931
3421.215
3420.954
3421.123
3421.614
3422.281
3422.97
3423.584
3424.106
3424.596
3425.155
3425.874
3426.772
3427.785
3428.786
3429.656
3430.336
3430.867
3431.352
3431.874
3432.398
3432.708
3432.461
3431.321
3429.182
3426.337
3423.515
3421.729
3421.906
3424.476
3429.021
3434.221
3438.173
3439.1
3436.232
3430.496
3424.664
3422.633
3427.945
3442.029
3462.943
3485.363
3501.974
3505.853
3492.747
3462.411
3418.576
3367.849
3318.024
3276.203
3247.029
3231.31
3225.938
3225.237
3223.423
3217.734
3211.537
3214.817
3238.966
3287.634
3347.807
3388.171
3372.768
3286.121
3150.392
3016.993
2931.937
2900.848
2895.476
2904.113
2960.151
3076.741
3156.298
3040.997
2745.54
2519.945
2462.325
2465.858
)
;
    }
    topAndBottom
    {
        type            calculated;
        value           nonuniform List<scalar> 
120
(
2239.925
1892.21
1641.479
1494.322
1384.268
1306.433
1255.687
1222.024
1196.039
1175.299
1158.659
1145.199
1136.018
1131.153
1127.244
1122.861
1118.596
1114.961
1112.307
1109.778
1107.257
1104.905
1102.522
1099.674
1095.939
1091.324
1086.108
1080.548
1074.727
1068.727
1062.63
1056.58
1050.796
1045.552
1041.116
1037.661
1035.162
1033.36
1031.819
1030.069
1027.768
1024.813
1021.37
1017.82
1014.64
1012.3
1011.086
1010.826
1010.553
1008.534
1002.936
993.0498
980.2931
967.9289
958.9869
953.3751
947.0825
936.702
937.8374
1062.922
1585.219
1811.331
1840.787
1849.974
1840.455
1805.03
1759.147
1724.241
1709.496
1711.623
1723.167
1737.609
1749.973
1756.512
1755.05
1745.437
1729.41
1709.95
1690.437
1673.846
1662.106
1655.781
1654.157
1655.682
1658.532
1661.119
1662.378
1661.828
1659.452
1655.52
1650.41
1644.502
1638.146
1631.62
1625.23
1619.131
1613.217
1607.065
1600.245
1592.637
1584.407
1575.946
1567.723
1560.296
1554.798
1552.039
1551.239
1550.769
1549.219
1546.934
1543.829
1539.073
1533.668
1531.555
1534.679
1541.229
1548.486
1556.27
1575.742
1619.211
)
;
    }
    frontAndBack
    {
        type            empty;
    }
}


// ************************************************************************* //
