/*--------------------------------*- C++ -*----------------------------------*\
| =========                 |                                                 |
| \\      /  F ield         | OpenFOAM: The Open Source CFD Toolbox           |
|  \\    /   O peration     | Version:  2312                                  |
|   \\  /    A nd           | Website:  www.openfoam.com                      |
|    \\/     M anipulation  |                                                 |
\*---------------------------------------------------------------------------*/
FoamFile
{
    version     2.0;
    format      ascii;
    arch        "LSB;label=32;scalar=64";
    class       volScalarField;
    location    "3450";
    object      T;
}
// * * * * * * * * * * * * * * * * * * * * * * * * * * * * * * * * * * * * * //

dimensions      [0 0 0 1 0 0 0];

internalField   nonuniform List<scalar> 
12000
(
446.9103
434.7254
433.338
433.1541
433.1189
433.1004
433.0837
433.0664
433.0478
433.0272
433.0046
432.9792
432.9508
432.9192
432.8845
432.8464
432.8046
432.7591
432.7102
432.6578
432.6018
432.5424
432.4798
432.414
432.345
432.2728
432.1977
432.1197
432.0388
431.9551
431.869
431.7807
431.6901
431.5972
431.4955
431.3797
431.2497
431.114
430.9756
430.8236
430.6476
430.4476
430.2402
430.0424
429.8226
429.5416
429.2245
428.9177
428.6322
428.2692
427.7914
427.2772
426.7664
426.139
425.3295
424.3585
423.1885
421.666
419.2515
415.1893
447.1308
435.3544
434.1994
434.2639
434.5141
434.7958
435.08
435.3575
435.6301
435.8822
436.1272
436.3486
436.5533
436.7468
436.93
437.0925
437.234
437.3629
437.4845
437.5926
437.6832
437.7611
437.8325
437.8959
437.9474
437.9874
438.0193
438.0448
438.0621
438.0684
438.0646
438.0532
438.0341
438.0058
437.9649
437.9117
437.8465
437.7698
437.6806
437.5776
437.4589
437.3234
437.1693
436.993
436.7905
436.558
436.2912
435.9819
435.6234
435.2095
434.7343
434.174
433.5109
432.7267
431.809
430.65
429.0948
426.9118
423.5151
417.5076
447.7437
436.1849
434.9987
435.1881
435.633
436.1192
436.6015
437.0638
437.5013
437.912
438.2943
438.6471
438.9718
439.2699
439.5429
439.7913
440.0161
440.2192
440.4026
440.5675
440.7147
440.8456
440.9617
441.0638
441.1527
441.229
441.2934
441.3465
441.3887
441.4199
441.4405
441.4506
441.4521
441.4415
441.4169
441.3795
441.3294
441.266
441.1889
441.0969
440.989
440.8633
440.7181
440.5506
440.3582
440.1374
439.8835
439.5891
439.2479
438.8515
438.3963
437.8648
437.2391
436.4885
435.5567
434.3707
432.806
430.4949
426.6
418.6874
448.7143
436.9581
435.679
435.9206
436.4835
437.0995
437.7048
438.2805
438.8201
439.3323
439.8092
440.249
440.6536
441.0232
441.3602
441.6672
441.9466
442.2006
442.4314
442.6404
442.829
442.9985
443.1504
443.2856
443.4051
443.5096
443.5998
443.6762
443.7389
443.7882
443.8241
443.8474
443.8582
443.8527
443.8318
443.7961
443.7453
443.6789
443.596
443.4955
443.3758
443.2352
443.0716
442.8841
442.6687
442.4223
442.1406
441.8189
441.4517
441.0327
440.5588
440.0122
439.3537
438.5567
437.6026
436.4173
434.8296
432.502
428.4859
419.5397
449.7424
437.7025
436.306
436.5517
437.1792
437.8763
438.5617
439.2127
439.8235
440.3951
440.9283
441.4225
441.8806
442.3011
442.6856
443.0367
443.3567
443.6479
443.9136
444.1555
444.3752
444.5736
444.7518
444.911
445.0521
445.176
445.2834
445.3746
445.45
445.5097
445.5544
445.5839
445.5976
445.5933
445.5719
445.5337
445.4789
445.4066
445.3156
445.2047
445.0723
444.9165
444.7352
444.5266
444.2869
444.0126
443.6996
443.3432
442.9391
442.4824
441.9592
441.3564
440.6595
439.8355
438.8473
437.6288
436.0358
433.7297
429.7128
420.1798
450.8405
438.4279
436.8839
437.0893
437.7355
438.4759
439.2119
439.9146
440.5757
441.1923
441.7653
442.296
442.7889
443.2447
443.6637
444.0477
444.3988
444.719
445.0108
445.2765
445.5177
445.7355
445.931
446.1053
446.2596
446.3946
446.5112
446.61
446.6913
446.7552
446.8025
446.8325
446.8448
446.8387
446.8148
446.7729
446.7132
446.6348
446.5364
446.4167
446.2739
446.1062
445.9111
445.6858
445.427
445.1308
444.793
444.4093
443.9746
443.4814
442.9195
442.2758
441.5355
440.6754
439.6572
438.4127
436.8042
434.5054
430.5177
420.6584
451.9735
439.1309
437.4256
437.5627
438.1956
438.9518
439.7155
440.4495
441.1416
441.7885
442.3905
442.9495
443.4677
443.9478
444.3914
444.7993
445.1731
445.5146
445.8256
446.108
446.3635
446.5934
446.7991
446.9818
447.1427
447.2828
447.403
447.504
447.5863
447.6504
447.6965
447.7243
447.7338
447.7249
447.6979
447.6529
447.5893
447.5064
447.403
447.2776
447.1285
446.9533
446.7495
446.5139
446.243
445.9327
445.5786
445.1755
444.7167
444.1943
443.5995
442.9216
442.1464
441.2526
440.2048
438.938
437.3194
435.0295
431.0705
420.9987
453.1089
439.8169
437.9386
437.9891
438.586
439.3366
440.1091
440.8583
441.5689
442.2358
442.8585
443.4381
443.976
444.4741
444.9346
445.3591
445.7487
446.1048
446.4288
446.7224
446.9872
447.2245
447.4358
447.6225
447.7858
447.9271
448.0472
448.1472
448.2277
448.2894
448.3325
448.3571
448.3633
448.3514
448.3216
448.2738
448.2075
448.1218
448.0156
447.8872
447.7348
447.556
447.3478
447.1071
446.8298
446.5115
446.1468
445.7295
445.2524
444.7076
444.0867
443.3804
442.5765
441.6558
440.5847
439.2997
437.6712
435.3866
431.4588
421.2532
454.3745
440.4952
438.4295
438.3813
438.9249
439.6526
440.4199
441.1733
441.8932
442.5724
443.209
443.8032
444.3559
444.8683
445.3417
445.7779
446.1783
446.5443
446.8769
447.1775
447.4477
447.6888
447.9025
448.0901
448.2532
448.393
448.5109
448.608
448.6851
448.7432
448.7826
448.8036
448.8067
448.7921
448.7599
448.7101
448.642
448.5549
448.4474
448.3181
448.1647
447.9848
447.7754
447.5329
447.253
446.9305
446.5596
446.133
445.6428
445.0803
444.4373
443.7057
442.8766
441.9337
440.8453
439.5489
437.9166
435.6402
431.7411
421.457
455.6862
441.1662
438.9041
438.7512
439.2312
439.9248
440.6765
441.4253
442.147
442.8321
443.4771
444.0812
444.6444
445.1674
445.6509
446.096
446.5039
446.8759
447.2135
447.5179
447.7905
448.0328
448.2464
448.4328
448.5936
448.7304
448.8447
448.9377
449.0107
449.0646
449.1001
449.1176
449.1177
449.1006
449.0665
449.0152
448.9461
448.8584
448.7507
448.6215
448.4685
448.2892
448.0804
447.8383
447.5583
447.2349
446.8613
446.4295
445.9298
445.3519
444.6876
443.9321
443.0814
442.1224
441.0227
439.7192
438.0849
435.8162
431.9462
421.6325
457.0272
441.8333
439.366
439.1038
439.5131
440.1639
440.8919
441.6292
442.3472
443.0336
443.6831
444.2936
444.8643
445.3953
445.8866
446.3389
446.7529
447.1297
447.4705
447.7768
448.0499
448.2915
448.5033
448.687
448.8443
448.977
449.0868
449.1752
449.2434
449.2928
449.3241
449.3381
449.3352
449.3158
449.28
449.2276
449.1579
449.0701
448.9629
448.8344
448.6827
448.5049
448.2978
448.0576
447.7794
447.4575
447.0845
446.6517
446.147
445.554
444.8625
444.0774
443.2077
442.2414
441.138
439.833
438.201
435.9419
432.0989
421.7923
458.3838
442.5003
439.8201
439.4461
439.7802
440.3818
441.0798
441.8
442.5097
443.1937
443.8446
444.4587
445.0343
445.5708
446.068
446.5261
446.9454
447.3265
447.6703
447.978
448.251
448.4909
448.6998
448.8798
449.0326
449.1604
449.265
449.3481
449.4113
449.456
449.483
449.4934
449.4875
449.4659
449.4285
449.375
449.305
449.2174
449.1108
448.9836
448.8334
448.6576
448.453
448.2155
447.9403
447.6211
447.2508
446.8155
446.2975
445.6865
444.9785
444.1776
443.2921
442.3174
441.2138
439.9092
438.2798
436.0292
432.2113
421.9398
459.7217
443.1614
440.2685
439.7898
440.052
440.6026
441.2659
441.9636
442.6591
443.3345
443.9805
444.5917
445.1644
445.6997
446.2003
446.6649
447.0911
447.4781
447.8266
448.1367
448.4089
448.6462
448.852
449.0282
449.1767
449.2994
449.3987
449.4765
449.5345
449.5743
449.5971
449.6037
449.5949
449.5709
449.5319
449.4775
449.4071
449.3197
449.2139
449.0879
448.9396
448.7662
448.5645
448.3306
448.0596
447.7429
447.3678
446.9219
446.3942
445.7748
445.058
444.2459
443.3475
442.3657
441.2621
439.9587
438.333
436.0907
432.2952
422.0788
461.0227
443.8129
440.7216
440.1406
440.3306
440.828
441.4536
442.1254
442.8037
443.4676
444.1054
444.7092
445.2775
445.8124
446.3126
446.7768
447.2041
447.5934
447.9436
448.255
448.5291
448.7679
448.9732
449.1463
449.2898
449.4073
449.5012
449.5737
449.6266
449.6616
449.6802
449.6832
449.6714
449.6452
449.6045
449.5491
449.4783
449.391
449.2858
449.1611
449.0145
448.8434
448.6446
448.4145
448.1452
447.8255
447.4448
446.9922
446.4577
445.832
445.1092
444.2902
443.3836
442.3949
441.2898
439.9889
438.367
436.1318
432.3554
422.2036
462.266
444.4781
441.1856
440.5002
440.6179
441.0613
441.6472
442.2908
442.9493
443.5995
444.2275
444.824
445.3874
445.9185
446.4153
446.8765
447.3009
447.6877
448.0366
448.3477
448.6218
448.8604
449.065
449.2373
449.3791
449.4931
449.5819
449.6491
449.6971
449.7276
449.7421
449.7416
449.7269
449.6983
449.6559
449.5993
449.5279
449.4405
449.3358
449.212
449.0671
448.8986
448.7026
448.4726
448.2006
447.8777
447.4938
447.0379
446.4995
445.8691
445.1415
444.3175
443.4045
442.4093
441.3026
440.0053
438.3872
436.1582
432.3969
422.309
463.4577
445.1531
441.6585
440.8694
440.9158
441.3054
441.8507
442.4646
443.1016
443.7365
444.3539
444.9433
445.5002
446.0252
446.5174
446.974
447.3933
447.775
448.1192
448.4268
448.6984
448.9351
449.1381
449.3085
449.4482
449.5595
449.6454
449.7088
449.7524
449.7786
449.7893
449.7855
449.768
449.7372
449.693
449.6352
449.5629
449.4752
449.3707
449.2478
449.1043
448.9367
448.7401
448.5085
448.2345
447.909
447.5221
447.0637
446.5235
445.8918
445.1614
444.3322
443.4132
442.4141
441.3071
440.0124
438.3977
436.1737
432.4239
422.3886
464.6098
445.8294
442.1382
441.2474
441.2245
441.5615
442.0666
442.6501
443.2648
443.8836
444.4897
445.0718
445.6225
446.1404
446.6256
447.0755
447.4883
447.8632
448.2007
448.5021
448.7688
449.0015
449.2012
449.3687
449.5054
449.6136
449.696
449.7558
449.7958
449.8185
449.8258
449.819
449.799
449.7662
449.7204
449.6613
449.5882
449.5001
449.3955
449.2726
449.1288
448.9606
448.7632
448.5303
448.2544
447.9266
447.5373
447.0764
446.5338
445.8999
445.1681
444.3376
443.4162
442.4132
441.3056
440.0148
438.4037
436.1845
432.4432
422.4435
465.7287
446.5047
442.6238
441.6335
441.5437
441.83
442.2959
442.8493
443.4414
444.0434
444.6375
445.2116
445.757
446.2686
446.7454
447.1869
447.591
447.9572
448.2861
448.5795
448.8389
449.0654
449.2598
449.4228
449.5555
449.6598
449.7385
449.7945
449.831
449.8504
449.8547
449.8452
449.823
449.7885
449.7413
449.6808
449.6064
449.5173
449.412
449.2886
449.1443
448.9754
448.777
448.5427
448.2649
447.9351
447.5436
447.0806
446.5361
445.9006
445.167
444.3344
443.4109
442.4064
441.2997
440.0117
438.4038
436.1884
432.453
422.4698
466.8218
447.1759
443.1134
442.027
441.8729
442.1108
442.539
443.0632
443.6329
444.218
444.7993
445.3639
445.9028
446.4093
446.8788
447.3103
447.7044
448.0604
448.3791
448.6623
448.9121
449.1302
449.3175
449.4744
449.6018
449.7013
449.7756
449.8276
449.8605
449.8766
449.8781
449.8662
449.8418
449.8055
449.757
449.6953
449.6197
449.5295
449.4233
449.2991
449.154
448.9842
448.7847
448.549
448.2696
447.9379
447.5444
447.0794
446.5331
445.8961
445.1614
444.3279
443.4034
442.3981
441.2923
440.0072
438.4025
436.1911
432.4617
422.4873
467.8874
447.8389
443.605
442.4261
442.2109
442.4032
442.7958
443.2922
443.8401
444.4082
444.9761
445.5299
446.0598
446.5589
447.022
447.4461
447.8297
448.1736
448.4802
448.7514
448.9899
449.1977
449.376
449.5253
449.6462
449.7401
449.8093
449.8569
449.8858
449.8987
449.8973
449.8831
449.8567
449.8187
449.7688
449.706
449.6294
449.5381
449.4309
449.3058
449.1599
448.9892
448.7885
448.5515
448.2706
447.937
447.5416
447.0749
446.5269
445.8885
445.1527
444.3184
443.3935
442.3883
441.2841
440.0018
438.4004
436.1933
432.4699
422.5026
468.926
448.5011
444.0992
442.8304
442.5569
442.7062
443.0655
443.5356
444.0626
444.6139
445.1681
445.7103
446.2297
446.7189
447.1726
447.5874
447.9617
448.2954
448.5895
448.8471
449.0725
449.2682
449.4361
449.5765
449.6898
449.7772
449.8408
449.8835
449.9083
449.9176
449.9134
449.8968
449.8685
449.8288
449.7776
449.7137
449.6361
449.5439
449.4359
449.3099
449.1631
448.9914
448.7897
448.5514
448.269
447.9338
447.5367
447.0681
446.5187
445.879
445.1424
444.3077
443.3828
442.3782
441.2756
439.9962
438.3981
436.1955
432.4787
422.5227
469.9342
449.155
444.5938
443.2386
442.9098
443.019
443.3473
443.7928
444.3
444.835
445.3753
445.9051
446.4129
446.8907
447.3328
447.7359
448.0984
448.4202
448.7027
448.948
449.1595
449.3417
449.4976
449.6279
449.7328
449.813
449.8705
449.9081
449.9285
449.9342
449.9271
449.9081
449.8779
449.8366
449.784
449.719
449.6405
449.5475
449.4386
449.3119
449.1642
448.9917
448.789
448.5497
448.2659
447.9292
447.5305
447.0604
446.5095
445.8687
445.1313
444.2964
443.372
442.3685
441.2679
439.9912
438.3966
436.1986
432.4891
422.5485
470.9064
449.7998
445.0877
443.6499
443.2687
443.3406
443.6402
444.0628
444.5512
445.0703
445.5966
446.1132
446.6083
447.0731
447.5019
447.8914
448.2401
448.5482
448.8173
449.0497
449.2484
449.4172
449.5601
449.6794
449.7751
449.8477
449.8988
449.9309
449.9469
449.949
449.9389
449.9176
449.8853
449.8424
449.7885
449.7224
449.643
449.5491
449.4396
449.3121
449.1638
448.9905
448.787
448.5466
448.2617
447.9237
447.5235
447.052
446.4999
445.8581
445.1201
444.2853
443.3614
442.3593
441.2607
439.9867
438.3955
436.2021
432.5003
422.5783
471.8383
450.4362
445.581
444.0639
443.6331
443.6701
443.9431
444.3444
444.815
445.3185
445.8304
446.3332
446.8142
447.2645
447.6783
448.0524
448.3855
448.6783
448.9325
449.1509
449.3365
449.4924
449.6226
449.7303
449.8164
449.881
449.9255
449.9522
449.9637
449.9622
449.9492
449.9255
449.8914
449.8468
449.7915
449.7242
449.6439
449.5493
449.439
449.3109
449.162
448.9881
448.7839
448.5428
448.2569
447.9177
447.5164
447.0437
446.4904
445.8478
445.1094
444.2747
443.3517
442.3511
441.2547
439.9833
438.3954
436.2068
432.513
422.6112
472.7172
451.074
446.0745
444.4801
444.0019
444.0063
444.2548
444.6362
445.0898
445.5779
446.0749
446.5627
447.0283
447.4626
447.8596
448.2166
448.5326
448.8087
449.047
449.2504
449.4221
449.5654
449.6835
449.7798
449.8562
449.9128
449.9506
449.9719
449.979
449.9741
449.9583
449.9324
449.8964
449.8502
449.7934
449.725
449.6438
449.5484
449.4373
449.3086
449.1591
448.9847
448.7799
448.5381
448.2514
447.9114
447.509
447.0353
446.4811
445.8378
445.0992
444.2647
443.3427
442.3437
441.2494
439.9806
438.396
436.2122
432.5267
422.6465
473.5469
451.7098
446.568
444.8982
444.3747
444.3485
444.574
444.9366
445.3736
445.846
446.3275
446.7992
447.2479
447.6645
448.0433
448.3816
448.6793
448.9376
449.1591
449.347
449.5047
449.6352
449.7416
449.8272
449.894
449.9426
449.974
449.9901
449.993
449.9848
449.9663
449.9383
449.9006
449.8529
449.7947
449.7251
449.6429
449.5466
449.4348
449.3054
449.1553
448.9804
448.7752
448.5328
448.2455
447.9047
447.5015
447.027
446.4721
445.8284
445.0897
444.2558
443.335
442.3378
441.2455
439.9792
438.3979
436.219
432.5424
422.6855
474.3298
452.3395
447.0606
445.3176
444.7507
444.6955
444.8993
445.244
445.6646
446.1209
446.5859
447.0402
447.4706
447.8679
448.2269
448.5455
448.8237
449.0635
449.2678
449.44
449.5834
449.7012
449.7964
449.8717
449.9295
449.9705
449.9956
450.0067
450.0058
449.9944
449.9735
449.9435
449.9041
449.855
449.7955
449.7249
449.6416
449.5445
449.4319
449.3018
449.1511
448.9757
448.77
448.5271
448.2393
447.8979
447.494
447.019
446.4637
445.8198
445.0813
444.2481
443.3285
442.3332
441.243
439.9789
438.4008
436.2268
432.5594
422.729
475.0676
452.9628
447.5504
445.7371
445.1291
445.0463
445.2295
445.5566
445.9607
446.4003
446.8476
447.2831
447.6935
448.0701
448.4081
448.7059
448.964
449.185
449.3719
449.5283
449.6576
449.7631
449.8474
449.9131
449.9623
449.9961
450.0154
450.0219
450.0173
450.0031
449.98
449.9481
449.9072
449.8568
449.7962
449.7244
449.6401
449.5421
449.4288
449.298
449.1467
448.9708
448.7647
448.5214
448.233
447.8911
447.4867
447.0112
446.4556
445.8118
445.0737
444.2414
443.3233
442.3299
441.2417
439.9798
438.4048
436.2356
432.5777
422.7786
475.7641
453.5762
448.0373
446.1543
445.5084
445.3997
445.5629
445.8727
446.2599
446.6818
447.1101
447.5253
447.9142
448.2687
448.5847
448.8609
449.0987
449.3007
449.4703
449.6113
449.727
449.8206
449.8946
449.9512
449.9926
450.0197
450.0335
450.0357
450.0278
450.011
449.9858
449.9523
449.91
449.8584
449.7966
449.7238
449.6387
449.5398
449.4257
449.2943
449.1425
448.9661
448.7596
448.5158
448.227
447.8846
447.4798
447.0039
446.4483
445.8047
445.0671
444.2358
443.3192
442.3278
441.2416
439.9817
438.4095
436.2449
432.5966
422.8339
476.4171
454.1783
448.5222
446.5709
445.8885
445.7546
445.8983
446.1904
446.56
446.963
447.3709
447.7642
448.1303
448.4616
448.7547
449.0091
449.2265
449.4098
449.5627
449.6888
449.7915
449.8738
449.938
449.9862
450.0203
450.0412
450.05
450.0483
450.0375
450.0183
449.9913
449.9561
449.9125
449.8597
449.797
449.7233
449.6373
449.5377
449.4229
449.2909
449.1386
448.9618
448.7549
448.5107
448.2214
447.8786
447.4735
446.9973
446.4416
445.7982
445.0614
444.2313
443.3163
442.3266
441.2422
439.9842
438.4147
436.2543
432.6155
422.8937
477.0367
454.7666
449.0015
446.9875
446.2689
446.1102
446.2342
446.508
446.8587
447.2415
447.6274
447.9974
448.3394
448.6468
448.9167
449.1493
449.3467
449.5119
449.6487
449.7607
449.8511
449.9228
449.9778
450.0182
450.0456
450.0609
450.0652
450.06
450.0464
450.0251
449.9963
449.9596
449.9148
449.861
449.7974
449.7229
449.6362
449.5358
449.4203
449.2878
449.1351
448.958
448.7508
448.5063
448.2166
447.8733
447.4677
446.9914
446.4359
445.793
445.057
444.2278
443.3141
442.3262
441.2436
439.9874
438.4203
436.2638
432.6337
422.9542
477.6152
455.3365
449.4726
447.4027
446.6492
446.4657
446.5694
446.8241
447.1546
447.5157
447.8781
448.2235
448.5405
448.8234
449.0701
449.2812
449.4591
449.607
449.7286
449.8273
449.9062
449.9679
450.0145
450.0477
450.0689
450.079
450.0792
450.0707
450.0547
450.0314
450.001
449.963
449.917
449.8622
449.7978
449.7226
449.6352
449.5341
449.4181
449.2851
449.1322
448.9549
448.7474
448.5026
448.2126
447.8689
447.463
446.9867
446.4314
445.7889
445.0536
444.2254
443.313
442.3267
441.2456
439.9912
438.4263
436.2732
432.6505
423.0109
478.1637
455.8928
449.9363
447.8139
447.0287
446.8203
446.9028
447.1369
447.4458
447.7834
448.1209
448.4405
448.732
448.9903
449.2141
449.4043
449.5636
449.6952
449.8025
449.8888
449.957
450.0096
450.0482
450.0747
450.0902
450.0956
450.0921
450.0808
450.0625
450.0374
450.0054
449.9661
449.9191
449.8635
449.7983
449.7224
449.6344
449.5328
449.4163
449.2829
449.1298
448.9524
448.7447
448.4997
448.2094
447.8654
447.4595
446.9831
446.4281
445.7861
445.0515
444.2243
443.313
442.3282
441.2487
439.9956
438.4327
436.2824
432.6656
423.0597
478.6748
456.4278
450.3915
448.2198
447.4052
447.1732
447.234
447.446
447.7314
448.0438
448.355
448.6481
448.9137
449.1475
449.3488
449.5189
449.6605
449.7767
449.8707
449.9456
450.004
450.048
450.0795
450.0998
450.11
450.1111
450.1041
450.0902
450.0698
450.043
450.0096
449.9692
449.9212
449.8647
449.7989
449.7223
449.6338
449.5318
449.4148
449.2812
449.1279
448.9504
448.7427
448.4976
448.2071
447.863
447.457
446.9808
446.4261
445.7847
445.0508
444.2245
443.3144
442.3309
441.2527
440.001
438.4397
436.2917
432.6791
423.0979
479.1635
456.9493
450.8405
448.6195
447.7769
447.5221
447.5603
447.7487
448.0088
448.2947
448.5787
448.8448
449.0846
449.2945
449.4741
449.6252
449.7501
449.852
449.9338
449.9981
450.0475
450.0837
450.1084
450.1229
450.1283
450.1254
450.1155
450.0992
450.0768
450.0484
450.0136
449.9721
449.9232
449.866
449.7995
449.7225
449.6335
449.5311
449.4138
449.2799
449.1266
448.9491
448.7414
448.4962
448.2056
447.8614
447.4555
446.9796
446.4254
445.7846
445.0515
444.226
443.3169
442.3346
441.2575
440.0069
438.4471
436.301
432.6915
423.1254
479.6341
457.4557
451.2826
449.0129
448.143
447.8653
447.8799
448.0434
448.2769
448.5352
448.7914
449.0305
449.2449
449.4316
449.5907
449.7236
449.8331
449.9217
449.9921
450.0468
450.0878
450.1168
450.1353
450.1445
450.1454
450.1389
450.1262
450.1076
450.0835
450.0535
450.0176
449.975
449.9253
449.8674
449.8003
449.7228
449.6334
449.5307
449.4131
449.2791
449.1258
448.9483
448.7407
448.4955
448.2049
447.8608
447.4551
446.9795
446.4259
445.7859
445.0536
444.2289
443.3207
442.3394
441.2634
440.0139
438.4554
436.3109
432.7038
423.145
480.0858
457.9468
451.7159
449.3987
448.5018
448.201
448.1913
448.3286
448.5346
448.7645
448.9928
449.2052
449.3949
449.5595
449.699
449.8151
449.9101
449.9864
450.0464
450.0921
450.1253
450.1477
450.1605
450.1647
450.1613
450.1516
450.1363
450.1157
450.0898
450.0585
450.0213
449.9779
449.9273
449.8688
449.8012
449.7232
449.6336
449.5306
449.4129
449.2788
449.1255
448.9482
448.7406
448.4955
448.205
447.861
447.4556
446.9806
446.4276
445.7884
445.057
444.2332
443.3259
442.3455
441.2704
440.0219
438.4647
436.3218
432.7165
423.1598
480.5239
458.4235
452.1399
449.7763
448.8523
448.5279
448.4928
448.603
448.7806
448.982
449.1825
449.369
449.5351
449.6786
449.7998
449.9002
449.9817
450.0466
450.0969
450.1343
450.1604
450.1766
450.184
450.1835
450.1764
450.1637
450.1459
450.1233
450.0958
450.0632
450.025
449.9806
449.9294
449.8702
449.8022
449.7239
449.6339
449.5308
449.413
449.2789
449.1257
448.9485
448.7411
448.4961
448.2058
447.8621
447.457
446.9826
446.4304
445.7921
445.0616
444.2386
443.3321
442.3526
441.2784
440.0308
438.4748
436.3334
432.7297
423.1728
480.949
458.8859
452.5536
450.1445
449.1933
448.8447
448.7834
448.8657
449.0146
449.1875
449.361
449.5224
449.6661
449.7898
449.8939
449.9796
450.0486
450.1029
450.1441
450.1737
450.1932
450.2036
450.2059
450.2012
450.1906
450.1751
450.1551
450.1307
450.1016
450.0677
450.0285
449.9833
449.9314
449.8717
449.8032
449.7246
449.6345
449.5312
449.4134
449.2794
449.1264
448.9495
448.7423
448.4975
448.2074
447.864
447.4594
446.9858
446.4344
445.7971
445.0674
444.2453
443.3395
442.3608
441.2874
440.0407
438.4858
436.3458
432.7437
423.1868
481.3621
459.3345
452.9567
450.5026
449.5239
449.1505
449.0623
449.1163
449.2365
449.3815
449.5287
449.6663
449.7887
449.8939
449.9819
450.0539
450.1113
450.1556
450.1883
450.2107
450.2239
450.2289
450.2265
450.2178
450.2041
450.186
450.1639
450.1377
450.1072
450.0721
450.0319
449.9859
449.9334
449.8732
449.8044
449.7255
449.6352
449.532
449.4142
449.2803
449.1276
448.9509
448.744
448.4995
448.2096
447.8666
447.4627
446.9898
446.4394
445.803
445.0743
444.2529
443.3478
442.3696
441.2969
440.051
438.4972
436.3587
432.7585
423.203
481.7628
459.7689
453.3483
450.8499
449.8434
449.4447
449.3292
449.3547
449.4466
449.5645
449.6865
449.8014
449.9037
449.9915
450.0646
450.1238
450.1702
450.2052
450.2299
450.2454
450.2528
450.2525
450.2456
450.2334
450.2169
450.1965
450.1723
450.1444
450.1125
450.0762
450.0351
449.9884
449.9353
449.8747
449.8056
449.7265
449.6361
449.5329
449.4152
449.2816
449.1292
448.9529
448.7462
448.502
448.2125
447.87
447.4668
446.9947
446.4453
445.81
445.0822
444.2615
443.3569
442.3793
441.3072
440.0621
438.5093
436.3722
432.7742
423.2215
482.1495
460.1893
453.7283
451.1859
450.1514
449.7272
449.5842
449.5814
449.6456
449.7372
449.8352
449.9286
450.0121
450.0836
450.1426
450.1897
450.2258
450.2519
450.269
450.2781
450.2797
450.2745
450.2636
450.2482
450.229
450.2064
450.1803
450.1507
450.1175
450.0802
450.0382
449.9908
449.9372
449.8762
449.8068
449.7276
449.6373
449.5341
449.4167
449.2833
449.1313
448.9553
448.749
448.5052
448.2161
447.8742
447.4717
447.0006
446.4523
445.818
445.091
444.271
443.3669
442.3897
441.3182
440.0737
438.522
436.3863
432.7905
423.2413
482.5237
460.5958
454.0961
451.5103
450.4476
449.9977
449.8273
449.7968
449.834
449.9005
449.9757
450.0488
450.1146
450.1707
450.2165
450.2522
450.2785
450.2961
450.306
450.3088
450.3048
450.2949
450.2804
450.2621
450.2405
450.2158
450.1879
450.1568
450.1223
450.0839
450.0411
449.9931
449.939
449.8777
449.8081
449.7289
449.6385
449.5356
449.4184
449.2854
449.1337
448.9581
448.7523
448.5088
448.2203
447.879
447.4773
447.0072
446.46
445.8267
445.1006
444.2812
443.3774
442.4006
441.3295
440.0858
438.535
436.4008
432.8071
423.2614
482.8851
460.9885
454.4524
451.8242
450.7317
450.2562
450.0591
450.0015
450.0127
450.0552
450.1087
450.1627
450.2118
450.2534
450.2866
450.3115
450.3285
450.3381
450.3409
450.3374
450.3281
450.314
450.2961
450.2751
450.2513
450.2246
450.1951
450.1626
450.1269
450.0875
450.0439
449.9953
449.9408
449.8792
449.8095
449.7302
449.64
449.5372
449.4203
449.2877
449.1365
448.9614
448.756
448.513
448.2251
447.8845
447.4837
447.0147
446.4686
445.8364
445.1111
444.2922
443.3887
442.4121
441.3414
440.0983
438.5484
436.4156
432.8239
423.2814
483.2349
461.3679
454.7975
452.1282
451.0038
450.5027
450.2799
450.1962
450.1825
450.2021
450.2352
450.2711
450.3043
450.3322
450.3535
450.368
450.3759
450.3777
450.3736
450.364
450.3497
450.3317
450.3107
450.2873
450.2615
450.233
450.2019
450.168
450.1312
450.0909
450.0466
449.9975
449.9425
449.8808
449.8109
449.7317
449.6416
449.5391
449.4226
449.2904
449.1397
448.9651
448.7602
448.5177
448.2304
447.8906
447.4908
447.0228
446.4778
445.8466
445.1222
444.3037
443.4004
442.4239
441.3534
440.1109
438.562
436.4306
432.841
423.3014
483.5736
461.7346
455.1321
452.4225
451.2648
450.7382
450.4904
450.3817
450.3442
450.3421
450.3557
450.3744
450.3927
450.4074
450.4173
450.4218
450.4211
450.4151
450.4042
450.3888
450.3698
450.3482
450.3244
450.2987
450.2709
450.2407
450.2082
450.1731
450.1352
450.0941
450.0492
449.9995
449.9443
449.8823
449.8125
449.7333
449.6435
449.5412
449.4251
449.2934
449.1432
448.9691
448.7647
448.5229
448.2362
447.8972
447.4984
447.0316
446.4877
445.8576
445.1338
444.3158
443.4125
442.436
441.3658
440.1239
438.5759
436.4459
432.8584
423.3215
483.9019
462.0894
455.4567
452.7071
451.5153
450.9632
450.6913
450.5586
450.4985
450.4757
450.4709
450.4733
450.4772
450.4794
450.4782
450.4731
450.4638
450.4502
450.4326
450.4118
450.3885
450.3635
450.3372
450.3093
450.2797
450.2479
450.214
450.1779
450.1391
450.0972
450.0516
450.0015
449.946
449.8839
449.8141
449.7351
449.6454
449.5436
449.4278
449.2967
449.147
448.9735
448.7696
448.5284
448.2425
447.9044
447.5066
447.041
446.4982
445.8691
445.1461
444.3283
443.425
442.4485
441.3786
440.1372
438.5901
436.4615
432.876
423.3422
484.2207
462.4332
455.7717
452.9826
451.756
451.1786
450.8835
450.7277
450.6461
450.6037
450.5813
450.5682
450.5583
450.5483
450.5365
450.5219
450.504
450.4829
450.459
450.4331
450.4059
450.3778
450.349
450.3191
450.2877
450.2545
450.2195
450.1823
450.1427
450.1001
450.054
450.0035
449.9478
449.8856
449.8158
449.7369
449.6476
449.5461
449.4308
449.3002
449.1511
448.9781
448.7748
448.5343
448.2491
447.912
447.5153
447.0508
446.5092
445.881
445.1586
444.3411
443.4378
442.4612
441.3914
440.1506
438.6044
436.4772
432.8937
423.3633
484.5296
462.7667
456.0782
453.2498
451.9879
451.3853
451.0677
450.8899
450.7878
450.7266
450.6874
450.6593
450.6361
450.6144
450.592
450.5678
450.5416
450.5133
450.4835
450.4529
450.422
450.3911
450.3599
450.3281
450.2951
450.2606
450.2244
450.1864
450.146
450.1028
450.0563
450.0055
449.9495
449.8873
449.8176
449.7389
449.6499
449.5488
449.434
449.3039
449.1554
448.983
448.7804
448.5405
448.2562
447.9201
447.5246
447.0612
446.5208
445.8935
445.1717
444.3544
443.451
442.4742
441.4046
440.1643
438.619
436.4931
432.9117
423.3854
484.83
463.0912
456.3766
453.5092
452.212
451.5841
451.2447
451.0459
450.924
450.8449
450.7895
450.7469
450.7109
450.6775
450.6445
450.611
450.5766
450.5415
450.5063
450.4713
450.437
450.4034
450.3701
450.3365
450.3019
450.2661
450.229
450.1901
450.1491
450.1054
450.0585
450.0074
449.9513
449.8891
449.8195
449.7411
449.6523
449.5516
449.4374
449.3079
449.16
448.9882
448.7863
448.5472
448.2637
447.9286
447.5342
447.072
446.5327
445.9063
445.1851
444.3679
443.4643
442.4873
441.4177
440.1779
438.6334
436.5088
432.93
423.4085
485.1206
463.4071
456.6676
453.7624
452.4304
451.7756
451.4146
451.1959
451.0552
450.9589
450.8879
450.8313
450.7825
450.7374
450.694
450.6514
450.6092
450.5678
450.5274
450.4884
450.4509
450.4148
450.3794
450.344
450.308
450.2711
450.2331
450.1935
450.152
450.1079
450.0606
450.0094
449.9532
449.891
449.8215
449.7433
449.6549
449.5547
449.441
449.3121
449.1648
448.9937
448.7924
448.5541
448.2716
447.9375
447.5443
447.0833
446.545
445.9195
445.1987
444.3816
443.4778
442.5005
441.431
440.1916
438.648
436.5249
432.9487
423.4322
485.4024
463.7153
456.9522
454.0101
452.6433
451.9608
451.5785
451.3407
451.1819
451.0689
450.9827
450.9123
450.8507
450.7941
450.7404
450.689
450.6396
450.5922
450.547
450.5043
450.4638
450.4253
450.388
450.3509
450.3135
450.2756
450.2368
450.1966
450.1546
450.1102
450.0627
450.0114
449.9551
449.893
449.8236
449.7457
449.6577
449.5579
449.4447
449.3165
449.1698
448.9994
448.7988
448.5613
448.2798
447.9468
447.5548
447.095
446.5578
445.933
445.2127
444.3956
443.4915
442.514
441.4445
440.2056
438.6628
436.5414
432.9677
423.4562
485.6761
464.0159
457.2306
454.2529
452.8513
452.1407
451.7372
451.4808
451.3044
451.1752
451.0742
450.9899
450.9154
450.8474
450.7839
450.7242
450.6678
450.6148
450.5652
450.5189
450.4757
450.435
450.3958
450.3571
450.3185
450.2796
450.24
450.1994
450.157
450.1124
450.0648
450.0133
449.9571
449.8951
449.8259
449.7483
449.6606
449.5613
449.4487
449.3211
449.1751
449.0053
448.8054
448.5688
448.2883
447.9565
447.5656
447.1069
446.5707
445.9467
445.2268
444.4097
443.5053
442.5275
441.458
440.2196
438.6779
436.5581
432.9871
423.4801
485.9405
464.3094
457.5037
454.4915
453.0551
452.3161
451.8913
451.6167
451.4232
451.2781
451.1621
451.0636
450.9766
450.8975
450.8247
450.757
450.6941
450.6359
450.5821
450.5325
450.4867
450.4438
450.4029
450.3628
450.323
450.2831
450.2429
450.2018
450.1592
450.1144
450.0668
450.0153
449.9592
449.8973
449.8284
449.751
449.6637
449.5649
449.4528
449.3258
449.1805
449.0114
448.8123
448.5766
448.2971
447.9665
447.5768
447.1193
446.5841
445.9608
445.2412
444.4241
443.5193
442.5412
441.4718
440.2339
438.6932
436.5751
433.0067
423.5037
486.1973
464.5962
457.7718
454.7262
453.2554
452.4882
452.0415
451.7486
451.5385
451.3774
451.2462
451.1338
451.0344
450.9448
450.8628
450.7876
450.7186
450.6554
450.5977
450.5451
450.4968
450.452
450.4093
450.3678
450.3269
450.2863
450.2455
450.204
450.1612
450.1164
450.0687