# Region type : patch plate
# Faces        : 200
# Area         : 6.7000000e-01
# Scale factor : 1.0000000e+00
# Time         	areaAverage(T)
3600           	5.8875839e+02
3700           	5.9103699e+02
3800           	5.9122522e+02
3900           	5.8944981e+02
