/*--------------------------------*- C++ -*----------------------------------*\
| =========                 |                                                 |
| \\      /  F ield         | OpenFOAM: The Open Source CFD Toolbox           |
|  \\    /   O peration     | Version:  2312                                  |
|   \\  /    A nd           | Website:  www.openfoam.com                      |
|    \\/     M anipulation  |                                                 |
\*---------------------------------------------------------------------------*/
FoamFile
{
    version     2.0;
    format      ascii;
    arch        "LSB;label=32;scalar=64";
    class       volScalarField;
    location    "4050";
    object      ILambda_12_0;
}
// * * * * * * * * * * * * * * * * * * * * * * * * * * * * * * * * * * * * * //

dimensions      [1 0 -3 0 0 0 0];

internalField   nonuniform List<scalar> 
12000
(
749.4696
735.2934
733.804
730.0493
727.1153
724.7209
723.1473
722.2158
721.6744
721.3097
721.0041
720.6883
720.2648
719.5644
718.3802
716.5669
714.1349
711.2679
708.2513
705.3547
702.7415
700.4447
698.4059
696.5388
694.7776
693.0915
691.4732
689.9165
688.401
686.8897
685.3378
683.7051
681.9679
680.1249
678.1942
676.2052
674.1912
672.1786
670.1771
668.175
666.1407
664.0345
661.8193
659.44
656.8143
653.8488
650.4769
646.6603
642.3607
637.5303
632.1449
626.2345
619.8645
613.0649
605.869
598.3655
590.7018
583.0962
575.8567
569.4954
710.5514
710.2399
709.1131
708.0019
706.9909
705.8386
704.4604
702.8233
700.96
698.9061
696.6821
694.2993
691.7862
689.2078
686.6606
684.2384
681.9929
679.9123
677.9319
675.9667
673.945
671.8262
669.5991
667.2673
664.8352
662.3002
659.6542
656.8879
653.9968
650.9833
647.856
644.6266
641.3052
637.8967
634.3993
630.8049
627.1014
623.2755
619.3183
615.2282
611.0129
606.6869
602.2683
597.7857
593.2839
588.8206
584.455
580.245
576.2547
572.5586
569.2304
566.3299
563.9041
562.0093
560.7008
560.013
559.952
560.4847
561.5219
562.8602
686.6205
683.772
681.868
679.6367
677.3092
674.8363
672.2502
669.5776
666.8463
664.0767
661.2851
658.4851
655.6882
652.9004
650.1174
647.3233
644.4931
641.6002
638.624
635.5547
632.3935
629.1492
625.8335
622.458
619.0332
615.5693
612.0771
608.5689
605.0583
601.5594
598.0864
594.6526
591.2705
587.9523
584.7111
581.5613
578.5198
575.606
572.842
570.2511
567.8576
565.6848
563.7551
562.0888
560.7026
559.6081
558.8101
558.307
558.0909
558.1463
558.449
558.9669
559.6621
560.4911
561.4037
562.3444
563.2554
564.0822
564.7809
565.3315
650.351
645.623
643.0907
640.0085
637.0135
633.973
630.9277
627.8755
624.8212
621.7663
618.7118
615.658
612.6044
609.5505
606.4976
603.4493
600.4131
597.3994
594.421
591.4915
588.6244
585.8322
583.1271
580.5204
578.0233
575.6466
573.4007
571.2954
569.3396
567.5415
565.9081
564.4458
563.1601
562.0559
561.1369
560.4056
559.863
559.5079
559.3369
559.3441
559.5208
559.856
560.336
560.9448
561.6642
562.4749
563.3564
564.2883
565.2502
566.2234
567.191
568.139
569.0573
569.9398
570.7854
571.5991
572.3919
573.1813
573.9904
574.8448
608.7394
604.0409
601.6947
598.8541
596.1959
593.5636
590.9991
588.498
586.0674
583.712
581.4381
579.2521
577.1612
575.173
573.2957
571.5372
569.9053
568.4066
567.0466
565.8296
564.7587
563.8358
563.062
562.4375
561.9615
561.6322
561.4471
561.4023
561.4931
561.7139
562.0584
562.5191
563.0879
563.7561
564.5139
565.351
566.2567
567.2198
568.2292
569.2737
570.3428
571.4266
572.5164
573.6046
574.6849
575.7531
576.8063
577.8436
578.8658
579.8753
580.8762
581.8734
582.873
583.881
584.9036
585.9466
587.0147
588.1115
589.2399
590.403
576.9852
574.1354
572.8855
571.3895
570.0951
568.8938
567.8146
566.8534
566.0138
565.297
564.7045
564.2369
563.8941
563.6754
563.579
563.6024
563.7422
563.9942
564.3536
564.8147
565.3717
566.0182
566.7474
567.5523
568.4256
569.3598
570.3474
571.381
572.4529
573.556
574.6832
575.8278
576.9836
578.1447
579.306
580.4629
581.6116
582.7493
583.8735
584.9831
586.0773
587.1564
588.2211
589.2727
590.313
591.3439
592.3674
593.3855
594.3999
595.4119
596.4222
597.4309
598.4376
599.4409
600.4392
601.4302
602.4118
603.3825
604.3428
605.2994
565.7114
565.4142
565.5142
565.6437
565.8957
566.2376
566.6731
567.1962
567.803
568.4887
569.2484
570.0767
570.9679
571.9162
572.9155
573.9598
575.043
576.1593
577.3028
578.4679
579.6492
580.8416
582.0403
583.241
584.4395
585.6323
586.816
587.9879
589.1456
590.2873
591.4115
592.517
593.6033
594.67
595.7172
596.7449
597.7537
598.7442
599.7169
600.6724
601.6114
602.5341
603.4407
604.3313
605.2054
606.0625
606.9016
607.7215
608.521
609.2983
610.0518
610.7797
611.4805
612.1525
612.7946
613.4061
613.9867
614.5377
615.0634
615.5762
573.1079
574.5663
575.4904
576.5975
577.7123
578.8647
580.0413
581.2387
582.4519
583.6764
584.9078
586.142
587.3751
588.6034
589.8236
591.0328
592.2281
593.4073
594.5681
595.7089
596.828
597.9243
598.9968
600.0445
601.0671
602.064
603.0351
603.9802
604.8991
605.7919
606.6585
607.499
608.3131
609.1007
609.8615
610.5951
611.3009
611.9782
612.6262
613.2437
613.8298
614.3831
614.9024
615.3863
615.8334
616.2424
616.6119
616.9408
617.2279
617.4723
617.6733
617.8303
617.9428
618.0107
618.034
618.0132
617.9491
617.8441
617.7039
617.5417
589.6139
591.5501
592.6269
593.9068
595.1251
596.3375
597.527
598.6943
599.8368
600.9528
602.0408
603.0996
604.128
605.1251
606.0901
607.0223
607.9213
608.7865
609.6176
610.4142
611.1759
611.9025
612.5936
613.2488
613.8677
614.4499
614.9949
615.502
615.9706
616.3999
616.7893
617.1378
617.4446
617.7087
617.9293
618.1054
618.2362
618.3208
618.3584
618.3484
618.2903
618.1837
618.0284
617.8244
617.5717
617.2709
616.9226
616.5274
616.0867
615.6015
615.0736
614.5045
613.8965
613.2516
612.5726
611.8624
611.1249
610.3653
609.5918
608.8176
606.2514
607.7674
608.5743
609.5216
610.3915
611.2322
612.03
612.787
613.5019
614.1743
614.8039
615.3902
615.9329
616.4319
616.8868
617.2973
617.6632
617.9843
618.2602
618.4908
618.6758
618.815
618.9082
618.9552
618.956
618.9105
618.8187
618.6809
618.4971
618.2678
617.9935
617.6748
617.3126
616.908
616.4621
615.9764
615.4527
614.8928
614.2989
613.6734
613.019
612.3387
611.6356
610.9132
610.1753
609.4257
608.6687
607.9088
607.1506
606.399
605.6591
604.9363
604.2358
603.5635
602.9251
602.327
601.7759
601.2794
600.8467
600.4882
617.1797
617.7952
618.1137
618.4656
618.754
619.0006
619.1985
619.3491
619.4524
619.5086
619.5182
619.4817
619.3998
619.2732
619.1028
618.8894
618.6342
618.3384
618.0032
617.6302
617.221
616.7773
616.3012
615.7948
615.2603
614.7003
614.1174
613.5146
612.8949
612.2616
611.6179
610.9677
610.3145
609.6624
609.0153
608.3774
607.7531
607.1466
606.5625
606.0051
605.479
604.9888
604.5388
604.1336
603.7775
603.4747
603.2293
603.0454
602.9266
602.8764
602.8981
602.9945
603.1682
603.4212
603.7554
604.1724
604.6734
605.2602
605.9346
606.6992
619.6551
619.2889
619.1101
618.8622
618.5892
618.2813
617.9409
617.5693
617.1684
616.7404
616.2875
615.8122
615.3172
614.8051
614.2789
613.7416
613.1962
612.6461
612.0946
611.545
611.0008
610.4657
609.9432
609.4369
608.9504
608.4874
608.0515
607.646
607.2746
606.9404
606.6467
606.3964
606.1926
606.0377
605.9341
605.884
605.8893
605.9514
606.0716
606.2506
606.489
606.7868
607.1437
607.5588
608.031
608.5587
609.1397
609.7715
610.4512
611.1752
611.9398
612.7405
613.5725
614.4306
615.3093
616.203
617.106
618.0135
618.9219
619.8322
615.6973
614.8472
614.475
614.0027
613.5574
613.1094
612.6675
612.2325
611.8076
611.3954
610.999
610.6211
610.2647
609.9325
609.6273
609.3516
609.1079
608.8986
608.7258
608.5916
608.4977
608.4457
608.437
608.4726
608.5533
608.6796
608.8517
609.0693
609.3321
609.6393
609.9897
610.3817
610.8137
611.2834
611.7883
612.3257
612.8924
613.485
614.1
614.7333
615.3809
616.0385
616.7018
617.3661
618.027
618.6799
619.3203
619.9438
620.5462
621.1235
621.6718
622.1877
622.6679
623.1096
623.5107
623.8697
624.1864
624.4618
624.6997
624.9111
611.6376
611.1061
610.9676
610.7835
610.6542
610.5519
610.4837
610.4484
610.4472
610.4805
610.5489
610.6528
610.7923
610.9673
611.1774
611.4221
611.7006
612.0118
612.3544
612.7269
613.1278
613.5549
614.0063
614.4795
614.9721
615.4813
616.0044
616.5384
617.0803
617.627
618.1754
618.7224
619.265
619.8001
620.3249
620.8366
621.3328
621.8112
622.2697
622.7067
623.1208
623.5111
623.877
624.2185
624.5359
624.8303
625.1031
625.3565
625.5931
625.8162
626.0295
626.2372
626.444
626.6554
626.8771
627.1159
627.379
627.6748
628.014
628.4123
612.5733
612.7355
612.9738
613.2412
613.544
613.8727
614.2266
614.6033
615.001
615.4178
615.8519
616.3013
616.7642
617.2384
617.7219
618.2126
618.7083
619.2071
619.7069
620.2058
620.7019
621.1935
621.6791
622.1573
622.6267
623.0863
623.5354
623.9733
624.3997
624.8146
625.2183
625.6114
625.9947
626.3696
626.7377
627.1008
627.4613
627.8217
628.1851
628.5546
628.9338
629.3264
629.7365
630.1684
630.6264
631.1152
631.6393
632.2036
632.8126
633.471
634.1831
634.953
635.7845
636.681
637.6456
638.6811
639.7902
640.9757
642.2424
643.598
618.1256
618.7142
619.1406
619.633
620.1254
620.6264
621.1304
621.6361
622.1418
622.6464
623.1487
623.6481
624.1438
624.6355
625.1229
625.6058
626.0846
626.5596
627.0315
627.5012
627.9697
628.4383
628.9088
629.3827
629.862
630.3488
630.8454
631.3543
631.8778
632.4187
632.9797
633.5635
634.1728
634.8104
635.4791
636.1813
636.9196
637.6963
638.5135
639.3731
640.2766
641.2254
642.2204
643.2622
644.3509
645.4864
646.6677
647.8939
649.1631
650.4731
651.8212
653.2039
654.6172
656.0566
657.5172
658.9937
660.4812
661.9753
663.4742
664.9807
625.498
626.2199
626.6955
627.2565
627.807
628.3665
628.9287
629.4951
630.0656
630.6413
631.2231
631.8122
632.41
633.018
633.6378
634.2709
634.9191
635.584
636.2676
636.9716
637.6977
638.4475
639.2228
640.0248
640.855
641.7143
642.6039
643.5243
644.476
645.4592
646.4737
647.519
648.5944
649.6988
650.8307
651.9883
653.1693
654.3713
655.5912
656.8259
658.0718
659.325
660.5812
661.8361
663.0851
664.3232
665.5454
666.7468
667.9221
669.0662
670.1739
671.24
672.2596
673.2276
674.1395
674.9915
675.7804
676.5049
677.1666
677.7731
634.6347
635.6146
636.2444
637.0012
637.7536
638.5303
639.3232
640.1343
640.9634
641.8112
642.678
643.5644
644.4707
645.3971
646.3437
647.3104
648.2969
649.3027
650.3272
651.3694
652.4283
653.5024
654.5902
655.6897
656.7989
657.9153
659.0363
660.1591
661.2805
662.3973
663.5059
664.6028
665.684
666.7458
667.784
668.7947
669.7739
670.7173
671.6212
672.4816
673.2948
674.0573
674.7656
675.4169
676.0082
676.5373
677.0021
677.401
677.7329
677.997
678.193
678.321
678.3817
678.3759
678.3054
678.1725
677.9804
677.734
677.4402
677.1114
647.3279
648.7061
649.5607
650.5797
651.5831
652.6077
653.6409
654.6831
655.7316
656.7846
657.8403
658.8965
659.9511
661.0017
662.0459
663.0813
664.105
665.1143
666.1064
667.0784
668.0274
668.9502
669.8439
670.7054
671.5318
672.3201
673.0674
673.7709
674.4278
675.0358
675.5924
676.0955
676.5431
676.9336
677.2656
677.538
677.7499
677.9009
677.991
678.0202
677.9893
677.8991
677.7511
677.5468
677.2886
676.9787
676.62
676.2156
675.769
675.284
674.7643
674.2143
673.638
673.0398
672.4242
671.7961
671.1609
670.5245
669.8944
669.2821
662.2238
663.6223
664.4636
665.4417
666.3759
667.3003
668.2013
669.0779
669.9265
670.7444
671.5289
672.2776
672.9881
673.6581
674.2854
674.868
675.404
675.8917
676.3296
676.7164
677.0509
677.3322
677.5598
677.733
677.8518
677.9162
677.9264
677.8831
677.7872
677.6396
677.4418
677.1954
676.9023
676.5646
676.1847
675.7652
675.3089
674.8188
674.2982
673.7504
673.179
672.5875
671.9798
671.3597
670.7311
670.098
669.4643
668.834
668.2111
667.5994
667.0028
666.4247
665.8687
665.3378
664.8353
664.3643
663.9283
663.5312
663.1778
662.877
673.896
674.6271
675.0768
675.5654
676.0004
676.3964
676.746
677.0486
677.3025
677.5072
677.6621
677.7669
677.8218
677.8271
677.7835
677.6917
677.5529
677.3683
677.1395
676.8683
676.5566
676.2066
675.8206
675.4013
674.9511
674.4731
673.9701
673.4451
672.9014
672.3421
671.7706
671.1901
670.604
670.0156
669.4282
668.8452
668.2698
667.7052
667.1545
666.6207
666.1067
665.6154
665.1493
664.711
664.303
663.9274
663.5864
663.2819
663.0157
662.7895
662.6046
662.4622
662.3632
662.3084
662.2983
662.3337
662.4157
662.5456
662.7267
662.966
677.7156
677.469
677.3928
677.2545
677.0912
676.8902
676.6537
676.3819
676.0762
675.7382
675.3698
674.9733
674.551
674.1055
673.6395
673.1557
672.6571
672.1467
671.6274
671.1023
670.5744
670.0469
669.5228
669.005
668.4965
668.0002
667.5188
667.055
666.6113
666.1902
665.7938
665.4244
665.0839
664.7741
664.4966
664.2529
664.0442
663.8718
663.7364
663.6389
663.5799
663.5597
663.5786
663.6367
663.7339
663.8701
664.0448
664.2577
664.5081
664.7954
665.1185
665.4765
665.868
666.2917
666.7461
667.2299
667.7423
668.2831
668.8546
669.4636
674.3964
673.5483
673.1874
672.7284
672.2906
671.8439
671.3957
670.946
670.4973
670.0515
669.6112
669.1786
668.7562
668.3464
667.9516
667.574
667.2158
666.8793
666.5663
666.2786
666.0182
665.7864
665.5847
665.4143
665.2762
665.1714
665.1004
665.0638
665.0619
665.0948
665.1624
665.2644
665.4005
665.57
665.7721
666.0059
666.2703
666.564
666.8858
667.2339
667.6069
668.0029
668.4202
668.8567
669.3106
669.7796
670.2618
670.7549
671.2567
671.7649
672.2773
672.7914
673.3046
673.8145
674.3186
674.8146
675.3009
675.7769
676.245
676.7129
669.2968
668.5568
668.3023
667.9875
667.7226
667.4777
667.2589
667.0651
666.897
666.7553
666.6408
666.554
666.4955
666.4658
666.4652
666.494
666.5522
666.6397
666.7564
666.9017
667.0751
667.2759
667.5031
667.7558
668.0328
668.3326
668.6537
668.9946
669.3534
669.7283
670.1173
670.5183
670.9291
671.3474
671.7709
672.1973
672.624
673.0487
673.4689
673.8821
674.2858
674.6776
675.0552
675.4162
675.7583
676.0794
676.3774
676.6504
676.8965
677.114
677.3014
677.4572
677.5798
677.6681
677.721
677.738
677.7193
677.6664
677.5834
677.4799
667.7368
667.555
667.6223
667.693
667.8069
667.9473
668.1147
668.3065
668.5212
668.7574
669.0138
669.2889
669.5812
669.8892
670.2115
670.5463
670.8919
671.2466
671.6084
671.9755
672.3459
672.7175
673.0884
673.4562
673.819
674.1744
674.5205
674.8549
675.1756
675.4804
675.7673
676.0343
676.2794
676.5008
676.6967
676.8655
677.0056
677.1157
677.1946
677.2411
677.2544
677.2338
677.1787
677.0889
676.9642
676.8049
676.6113
676.3841
676.1241
675.8324
675.5105
675.1597
674.7817
674.3784
673.9519
673.5049
673.0407
672.5639
672.0804
671.6004
670.8545
671.1106
671.3953
671.7139
672.0454
672.3858
672.7305
673.0768
673.4219
673.7635
674.0993
674.4273
674.7454
675.0517
675.3444
675.6217
675.8819
676.1234
676.3445
676.5439
676.7202
676.872
676.9982
677.0976
677.1693
677.2124
677.2263
677.2102
677.1638
677.0868
676.979
676.8405
676.6713
676.472
676.243
675.985
675.6989
675.3858
675.0468
674.6834
674.2971
673.8897
673.463
673.0191
672.5603
672.0888
671.6071
671.1178
670.6235
670.127
669.631
669.1383
668.6515
668.1731
667.706
667.2528
666.817
666.4023
666.0136
665.6593
675.4252
675.6228
675.8407
676.0673
676.2829
676.484
676.6664
676.828
676.9668
677.0813
677.1704
677.233
677.2684
677.2761
677.2557
677.2069
677.1297
677.0241
676.8904
676.7289
676.5401
676.3247
676.0833
675.8169
675.5263
675.2128
674.8774
674.5215
674.1465
673.7538
673.3451
672.9218
672.4858
672.0388
671.5826
671.1189
670.6496
670.1766
669.7017
669.2267
668.7534
668.2836
667.8191
667.3613
666.912
666.4727
666.0447
665.6294
665.228
664.8415
664.4708
664.1166
663.7792
663.459
663.1561
662.8707
662.6035
662.3555
662.1294
661.9329
677.4201
677.17
677.131
677.0465
676.9538
676.8381
676.6996
676.5369
676.3498
676.1384
675.9032
675.6446
675.3636
675.0611
674.7381
674.396
674.0359
673.6592
673.2674
672.8619
672.4442
672.0158
671.5782
671.133
670.6815
670.2253
669.7657
669.3042
668.8422
668.3808
667.9212
667.4647
667.0123
666.565
666.1235
665.6889
665.2617
664.8425
664.4319
664.0304
663.6382
663.2556
662.883
662.5203
662.1678
661.8254
661.4933
661.1715
660.86
660.5588
660.268
659.9876
659.7177
659.4582
659.2094
658.9719
658.747
658.5369
658.346
658.184
675.433
674.7274
674.4575
674.0995
673.7555
673.3958
673.0255
672.6428
672.2486
671.8435
671.4285
671.0046
670.5729
670.1347
669.6912
669.2437
668.7933
668.3412
667.8887
667.4368
666.9867
666.5391
666.0952
665.6557
665.2215
664.7933
664.3717
663.9574
663.5508
663.1527
662.7633
662.3833
662.0129
661.6526
661.3029
660.9641
660.6367
660.3213
660.0183
659.7283
659.4522
659.1906
658.9445
658.715
658.5032
658.3106
658.1386
657.9889
657.8636
657.7645
657.6941
657.6545
657.6484
657.6783
657.747
657.858
658.0152
658.2233
658.4891
658.822
670.7091
669.7828
669.4191
668.9532
668.5223
668.0874
667.6557
667.2248
666.7955
666.3681
665.9433
665.5219
665.1048
664.6927
664.2868
663.8877
663.4966
663.1143
662.7417
662.3798
662.0294
661.6915
661.367
661.0568
660.7618
660.4831
660.2215
659.9783
659.7544
659.551
659.3693
659.2107
659.0766
658.9683
658.8874
658.8355
658.8143
658.8257
658.8715
658.9537
659.0744
659.2356
659.4396
659.6886
659.985
660.3311
660.7292
661.1817
661.6909
662.2591
662.8884
663.5808
664.338
665.1615
666.0528
667.0133
668.0447
669.1488
670.3291
671.5904
665.3353
664.4636
664.1519
663.7545
663.405
663.0647
662.7408
662.4308
662.1357
661.8558
661.5921
661.3455
661.1171
660.9082
660.72
660.5538
660.4111
660.2932
660.2015
660.1376
660.1029
660.099
660.1273
660.1894
660.2868
660.4211
660.5939
660.8067
661.061
661.3584
661.7003
662.0881
662.5234
663.0072
663.541
664.1258
664.7627
665.4525
666.196
666.9938
667.8463
668.7536
669.716
670.733
671.8044
672.9293
674.1069
675.3359
676.6148
677.9418
679.3145
680.7306
682.1869
683.6801
685.2067
686.7631
688.3458
689.9519
691.5802
693.2338
661.916
661.443
661.37
661.2698
661.225
661.209
661.2263
661.2754
661.3572
661.4722
661.6216
661.8065
662.0279
662.2871
662.5854
662.9238
663.3036
663.7258
664.1914
664.7013
665.2564
665.8573
666.5045
667.1985
667.9396
668.7277
669.5628
670.4448
671.373
672.3469
673.3655
674.4279
675.5326
676.6782
677.8628
679.0844
680.3408
681.6295
682.9477
684.2924
685.6606
687.0489
688.4536
689.871
691.2972
692.7283
694.16
695.5882
697.0086
698.4167
699.8083
701.1789
702.5241
703.8394
705.1208
706.3646
707.5676
708.7283
709.8474
710.9326
663.9525
664.2712
664.6424
665.0848
665.5761
666.1131
666.6936
667.3165
667.9812
668.6873
669.4344
670.2222
671.0502
671.9182
672.8253
673.771
674.7543
675.7742
676.8293
677.9183
679.0395
680.191
681.3709
682.5768
683.8065
685.0572
686.3262
687.6107
688.9074
690.2132
691.5247
692.8384
694.1508
695.4583
696.7573
698.0438
699.3144
700.5653
701.7929
702.9936
704.1639
705.3007
706.4008
707.4613
708.4795
709.4531
710.3799
711.2582
712.0866
712.8639
713.5896
714.2631
714.8845
715.4542
715.973
716.4426
716.8656
717.2459
717.59
717.9103
673.8037
675.0136
675.8495
676.8478
677.8621
678.9156
679.9973
681.1057
682.2378
683.391
684.5629
685.7512
686.9533
688.1668
689.3891
690.6175
691.8493
693.0818
694.3119
695.5369
696.7537
697.9593
699.1507
700.3251
701.4793
702.6105
703.716
704.7929
705.8387
706.851
707.8275
708.7661
709.665
710.5224
711.337
712.1078
712.8338
713.5146
714.1499
714.7398
715.2849
715.7859
716.244
716.6608
717.0382
717.3785
717.6842
717.9583
718.2042
718.4253
718.6256
718.8089
718.9796
719.1418
719.3003
719.4599
719.6264
719.8058
720.0062
720.2389
689.4468
691.0736
692.082
693.2742
694.4369
695.6081
696.7719
697.927
699.0695
700.1964
701.3052
702.3932
703.4583
704.4981
705.5107
706.4942
707.4468
708.3669
709.2531
710.1041
710.9189
711.6965
712.4363
713.1379
713.801
714.4257
715.0122
715.5612
716.0733
716.5498
716.9918
717.401
717.7793
718.1287
718.4515
718.7503
719.0278
719.2871
719.5312
719.7635
719.9874
720.2065
720.4244
720.6449
720.8718
721.1089
721.36
721.6288
721.9191
722.2343
722.5779
722.953
723.3624
723.8087
724.2943
724.8216
725.3932
726.0118
726.6814
727.4087
705.0155
706.3306
707.1237
708.0474
708.9206
709.776
710.6007
711.395
712.1568
712.8854
713.5803
714.2415
714.8692
715.4637
716.0259
716.5565
717.0567
717.5279
717.9714
718.3891
718.7828
719.1545
719.5064
719.8407
720.16
720.4668
720.7638
721.0537
721.3393
721.6234
721.909
722.1988
722.4957
722.8025
723.1219
723.4566
723.8089
724.1814
724.5762
724.9952
725.4404
725.9134
726.4154
726.9478
727.5113
728.1065
728.7338
729.3933
730.0847
730.8073
731.5604
732.3426
733.1524
733.9876
734.8463
735.7262
736.6255
737.5427
738.4785
739.4374
715.9314
716.6218
717.079
717.6029
718.096
718.5747
719.0328
719.4716
719.8919
720.295
720.6826
721.0566
721.4192
721.7726
722.119
722.4608
722.8004
723.1402
723.4824
723.8293
724.1832
724.5462
724.9204
725.3076
725.7097
726.1283
726.5649
727.0206
727.4968
727.9941
728.5133
729.0549
729.6189
730.2055
730.8143
731.4448
732.0961
732.7674
733.4572
734.1642
734.8866
735.6225
736.3698
737.1262
737.8894
738.6568
739.4257
740.1934
740.9572
741.714
742.461
743.1953
743.9139
744.6137
745.292
745.9464
746.5753
747.1779
747.7563
748.3186
722.7768
723.1513
723.4765
723.8523
724.2311
724.6175
725.0086
725.4053
725.8083
726.2187
726.6379
727.0671
727.5075
727.9603
728.4266
728.9071
729.4027
729.9138
730.4408
730.9838
731.5428
732.1174
732.7074
733.3118
733.93
734.5608
735.2029
735.8549
736.5152
737.1821
737.8536
738.5276
739.2021
739.8747
740.5432
741.2051
741.858
742.4994
743.127
743.7383
744.3309
744.9027
745.4516
745.9754
746.4723
746.9407
747.3792
747.7864
748.1614
748.5033
748.8116
749.0859
749.3261
749.5321
749.7045
749.8443
749.9531
750.034
750.0923
750.1392
729.2144
729.704
730.1192
730.6053
731.1055
731.6236
732.1549
732.6982
733.2526
733.8172
734.3911
734.9736
735.5637
736.1605
736.7628
737.3696
737.9793
738.5905
739.2017
739.8112
740.4173
741.018
741.6116
742.1961
742.7696
743.3301
743.8757
744.4045
744.9146
745.4043
745.8718
746.3156
746.7341
747.126
747.49
747.8251
748.1304
748.4051
748.6486
748.8607
749.0411
749.19
749.3075
749.3942
749.4507
749.4779
749.4768
749.4488
749.3952
749.3177
749.2177
749.0972
748.9577
748.8011
748.6293
748.4446
748.2496
748.0478
747.8445
747.6495
737.015
737.6466
738.1298
738.6889
739.2475
739.8118
740.3746
740.9339
741.4873
742.0327
742.5685
743.0929
743.6045
744.1016
744.5828
745.0466
745.4916
745.9164
746.3198
746.7006
747.0575
747.3896
747.6958
747.9754
748.2277
748.4519
748.6478
748.8148
748.9528
749.0617
749.1416
749.1927
749.2153
749.2097
749.1767
749.1167
749.0307
748.9194
748.7838
748.625
748.4439
748.2417
748.0197
747.779
747.5209
747.2466
746.9572
746.6542
746.3385
746.0113
745.6736
745.3263
744.9701
744.6055
744.2332
743.8538
743.4686
743.0792
742.6891
742.3062
744.3898
744.8317
745.1862
745.5818
745.9626
746.3304
746.6793
747.0074
747.3129
747.5945
747.8512
748.0823
748.2871
748.465
748.6159
748.7393
748.8351
748.9033
748.9439
748.957
748.9428
748.9016
748.8337
748.7397
748.6199
748.4751
748.3057
748.1125
747.8961
747.6574
747.3971
747.1159
746.8146
746.4941
746.1551
745.7983
745.4245
745.0345
744.6288
744.2082
743.7732
743.3246
742.8628
742.3883
741.9018
741.4037
740.8946
740.3749
739.8452
739.3059
738.7576
738.2006
737.6354
737.0625
736.4824
735.8961
735.3051
734.7119
734.1208
733.5402
748.4673
748.4184
748.4924
748.5502
748.5964
748.6208
748.6212
748.5963
748.5454
748.4682
748.3649
748.2357
748.0809
747.9009
747.6964
747.4678
747.2158
746.9411
746.6443
746.3261
745.9872
745.6283
745.2501
744.8534
744.4389
744.0072
743.5591
743.0952
742.6162
742.1229
741.6158
741.0956
740.5629
740.0185
739.4629
738.8968
738.3209
737.7359
737.1425
736.5415
735.9338
735.3201
734.7016
734.0792
733.4541
732.8276
732.201
731.5759
730.9538
730.3366
729.7261
729.1241
728.5326
727.9537
727.3897
726.8434
726.3179
725.8175
725.348
724.9186
747.8176
747.2106
746.9867
746.6906
746.4001
746.0892
745.7601
745.4111
745.0424
744.6541
744.2469
743.8214
743.3782
742.9183
742.4424
741.9513
741.446
740.9272
740.3959
739.8529
739.2991
738.7355
738.1628
737.5821
736.9943
736.4003
735.8011
735.1979
734.5915
733.9831
733.3739
732.7649
732.1576
731.5531
730.9527
730.358
729.7703
729.1913
728.6224
728.0654
727.5219
726.9939
726.4832
725.9918
725.5216
725.0747
724.6532
724.2592
723.895
723.5626
723.2641
723.0016
722.7768
722.5917
722.4479
722.3475
722.2927
722.2864
722.333
722.4398
742.827
741.7878
741.349
740.7988
740.2766
739.742
739.201
738.6515
738.0941
737.5295
736.9584
736.382
735.8011
735.2171
734.631
734.0442
733.4577
732.8729
732.291
731.7135
731.1415
730.5765
730.0198
729.4728
728.9369
728.4136
727.9044
727.4106
726.9338
726.4754
726.0369
725.6198
725.2256
724.8558
724.5117
724.1947
723.9063
723.6477
723.4201
723.2249
723.063
722.9355
722.8434
722.7875
722.7685
722.7871
722.8438
722.9389
723.0726
723.245
723.4559
723.7047
723.991
724.3137
724.6719
725.0646
725.4912
725.9517
726.4478
726.9853
735.34
734.1466
733.6558
733.0464
732.4875
731.9311
731.3856
730.8485
730.321
729.8038
729.298
728.8049
728.3258
727.8619
727.4145
726.985
726.5746
726.1846
725.8162
725.4706
725.149
724.8525
724.5822
724.3389
724.1236
723.9372
723.7804
723.6539
723.5582
723.4939
723.4611
723.4603
723.4914
723.5545
723.6494
723.7758
723.9333
724.1213
724.3391
724.5857
724.8603
725.1616
725.4884
725.8392
726.2126
726.6069
727.0204
727.4512
727.8974
728.3571
728.8279
729.3078
729.7944
730.2851
730.7777
731.2702
731.7609
732.2492
732.7366
733.2301
728.4338
727.473
727.1415
726.7258
726.3747
726.0431
725.7387
725.4586
725.2035
724.9737
724.7697
724.592
724.4412
724.3177
724.2219
724.1542
724.1148
724.1038
724.1213
724.1671
724.241
724.3428
724.4718
724.6277
724.8096
725.0167
725.248
725.5026
725.7791
726.0762
726.3925
726.7264
727.0763
727.4405
727.817
728.204
728.5995
729.0014
729.4076
729.8161
730.2245
730.6309
731.0331
731.4291
731.8166
732.1939
732.559
732.9101
733.2456
733.5637
733.8631
734.1423
734.3999
734.6347
734.8458
735.0327
735.1954
735.3351
735.4554
735.5653
725.2175
724.7844
724.7508
724.6931
724.6936
724.7206
724.7772
724.8599
724.9681
725.1007
725.2568
725.4354
725.6358
725.8568
726.0974
726.3565
726.6328
726.925
727.2315
727.551
727.8818
728.2222
728.5705
728.925
729.2837
729.6447
730.0063
730.3664
730.723
731.0744
731.4184
731.7533
732.0771
732.3881
732.6844
732.9644
733.2264
733.4689
733.6906
733.89
734.0661
734.2177
734.3441
734.4445
734.5182
734.565
734.5846
734.577
734.5422
734.4805
734.3924
734.2784
734.1389
733.9748
733.7869
733.5765
733.3456
733.097
732.8354
732.5704
726.6556
726.7095
726.918
727.1478
727.4098
727.688
727.9802
728.2828
728.5938
728.9111
729.2329
729.5573
729.8827
730.2073
730.5295
730.8473
731.1593
731.4637
731.7587
732.0429
732.3145
732.572
732.814
733.0389
733.2454
733.4322
733.5981
733.7419
733.8628
733.9597
734.0318
734.0785
734.0991
734.0933
734.0607
734.0011
733.9144
733.8007
733.6601
733.4929
733.2996
733.0807
732.8369
732.5689
732.2777
731.9643
731.6298
731.2754
730.9024
730.5121
730.1059
729.6852
729.2513
728.8054
728.349
727.8839
727.4121
726.9366
726.462
725.9967
730.6148
730.7852
731.0158
731.2687
731.5265
731.7813
732.0283
732.2648
732.4886
732.698
732.8913
733.0674
733.2249
733.3627
733.4799
733.5755
733.6487
733.6988
733.7251
733.7271
733.7043
733.6564
733.5831
733.4844
733.3601
733.2103
733.0351
732.8348
732.6097
732.3602
732.0868
731.7902
731.4708
731.1296
730.7672
730.3846
729.9825
729.562
729.124
728.6696
728.1998
727.7156
727.2183
726.709
726.1888
725.6588
725.1203
724.5745
724.0225
723.4655
722.9045
722.3407
721.7748
721.2078
720.6407
720.0745
719.511
718.9524
718.4029
717.8703
733.475
733.3469
733.3847
733.406
733.4231
733.4236
733.4045
733.3638
733.3006
733.214
733.1038
732.9696
732.8115
732.6294
732.4235
732.194
731.9414
731.6659
731.368
731.0483
730.7074
730.3458
729.9643
729.5637
729.1446
728.7078
728.2543
727.7849
727.3004
726.8017
726.2897
725.7653
725.2293
724.6827
724.1264
723.5611
722.9878
722.4071
721.82
721.2272
720.6295
720.0276
719.4223
718.8143
718.2043
717.5931
716.9813
716.3697
715.759
715.1499
714.543
713.9389
713.3382
712.7413
712.1488
711.5616
710.9811
710.4095
709.851
709.314
732.7346
732.1208
731.8918
731.5948
731.3054
730.9976
730.6729
730.3293
729.9668
729.5855
729.1858
728.7683
728.3335
727.8822
727.4151
726.933
726.4365
725.9266
725.404
724.8696
724.324
723.7682
723.2028
722.6287
722.0466
721.4572
720.8612
720.2593
719.6522
719.0404
718.4247
717.8055
717.1835
716.5592
715.933
715.3055
714.6772
714.0485
713.4198
712.7917
712.1645
711.5388
710.915
710.2936
709.6751
709.0601
708.4491
707.8429
707.2419
706.647
706.0588
705.478
704.9051
704.3408
703.7858
703.2414
702.7089
702.1909
701.6919
701.2212
728.1518
727.1207
726.685
726.1396
725.6228
725.0932
724.5565
724.01
723.4541
722.8891
722.3153
721.7335
721.1441
720.5479
719.9455
719.3375
718.7246
718.1074
717.4865
716.8624
716.2358
715.607
714.9768
714.3454
713.7135
713.0815
712.4497
711.8188
711.189
710.5607
709.9345
709.3107
708.6897
708.072
707.4578
706.8478
706.2423
705.6417
705.0466
704.4575
703.8748
703.2993
702.7314
702.1718
701.6214
701.0807
700.5507
700.0321
699.5259
699.033
698.5544
698.091
697.6436
697.2131
696.8005
696.4071
696.0347
695.6857
695.3648
695.0808
720.9605
719.6908
719.1535
718.4816
717.8566
717.2254
716.5966
715.9665
715.3355
714.7035
714.0709
713.4381
712.8055
712.1735
711.5426
710.9133
710.2859
709.661
709.039
708.4203
707.8054
707.1947
706.5887
705.9878
705.3924
704.8031
704.2203
703.6444
703.0759
702.5154
701.9634
701.4204
700.8869
700.3636
699.8509
699.3495
698.86
698.3831
697.9193
697.4694
697.0341
696.6141
696.2102
695.8231
695.4537
695.1028
694.7713
694.4602
694.1702
693.9024
693.6576
693.4367
693.2403
693.0693
692.9243
692.8066
692.7174
692.659
692.6351
692.6533
712.6584
711.3267
710.7792
710.0911
709.4615
708.832
708.2125
707.5986
706.991
706.3894
705.7942
705.2056
704.6241
704.05
703.4839
702.9262
702.3774
701.838
701.3085
700.7895
700.2815
699.7849
699.3004
698.8284
698.3696
697.9245
697.4936
697.0775
696.6768
696.292
695.9238
695.5727
695.2392
694.924
694.6276
694.3505
694.0934
693.8566
693.6408
693.4464
693.274
693.1241
692.9971
692.8937
692.8142
692.7591
692.7289
692.7241
692.7452
692.7925
692.8665
692.9674
693.0953
693.2504
693.4329
693.6432
693.882
694.1507
694.4524
694.793
704.622
703.3985
702.9234
702.3249
701.79
701.2634
700.7542
700.2582
699.776
699.3074
698.8528
698.4124
697.9868
697.5763
697.1815
696.8028
696.4407
696.0957
695.7682
695.4589
695.168
694.8961
694.6436
694.4109
694.1983
694.0064
693.8354
693.6857
693.5576
693.4513
693.3673
693.3055