/*--------------------------------*- C++ -*----------------------------------*\
| =========                 |                                                 |
| \\      /  F ield         | OpenFOAM: The Open Source CFD Toolbox           |
|  \\    /   O peration     | Version:  2312                                  |
|   \\  /    A nd           | Website:  www.openfoam.com                      |
|    \\/     M anipulation  |                                                 |
\*---------------------------------------------------------------------------*/
FoamFile
{
    version     2.0;
    format      ascii;
    arch        "LSB;label=32;scalar=64";
    class       volScalarField;
    location    "4050";
    object      ILambda_4_0;
}
// * * * * * * * * * * * * * * * * * * * * * * * * * * * * * * * * * * * * * //

dimensions      [1 0 -3 0 0 0 0];

internalField   nonuniform List<scalar> 
12000
(
3053.001
3052.922
3052.889
3052.914
3053
3053.134
3053.307
3053.512
3053.739
3053.98
3054.226
3054.468
3054.698
3054.904
3055.079
3055.212
3055.292
3055.308
3055.25
3055.105
3054.863
3054.511
3054.039
3053.436
3052.692
3051.801
3050.754
3049.547
3048.178
3046.647
3044.955
3043.108
3041.113
3038.983
3036.73
3034.372
3031.927
3029.418
3026.868
3024.304
3021.752
3019.243
3016.804
3014.466
3012.258
3010.209
3008.346
3006.695
3005.278
3004.118
3003.23
3002.629
3002.326
3002.323
3002.626
3003.232
3004.116
3005.334
3006.503
3009.301
3093.684
3094.349
3094.887
3095.306
3095.596
3095.748
3095.758
3095.619
3095.324
3094.866
3094.235
3093.424
3092.424
3091.225
3089.819
3088.198
3086.356
3084.289
3081.996
3079.479
3076.743
3073.798
3070.66
3067.347
3063.883
3060.297
3056.622
3052.895
3049.157
3045.451
3041.823
3038.319
3034.988
3031.875
3029.026
3026.486
3024.292
3022.481
3021.082
3020.122
3019.616
3019.577
3020.007
3020.9
3022.244
3024.016
3026.186
3028.714
3031.555
3034.652
3037.943
3041.36
3044.827
3048.259
3051.583
3054.686
3057.522
3059.882
3061.883
3063.338
3118.303
3116.675
3114.86
3112.865
3110.687
3108.328
3105.789
3103.062
3100.143
3097.027
3093.711
3090.196
3086.488
3082.599
3078.546
3074.354
3070.057
3065.692
3061.305
3056.949
3052.678
3048.552
3044.633
3040.981
3037.658
3034.721
3032.224
3030.215
3028.734
3027.813
3027.474
3027.729
3028.579
3030.012
3032.004
3034.52
3037.511
3040.919
3044.673
3048.691
3052.884
3057.152
3061.389
3065.482
3069.315
3072.767
3075.717
3078.043
3079.622
3080.337
3080.073
3078.72
3076.175
3072.341
3067.143
3060.455
3052.404
3042.084
3033.033
3010.549
3109.181
3105.29
3101.303
3097.197
3092.962
3088.596
3084.099
3079.481
3074.77
3070.006
3065.245
3060.553
3056.008
3051.692
3047.692
3044.096
3040.988
3038.446
3036.538
3035.322
3034.839
3035.116
3036.163
3037.968
3040.504
3043.723
3047.558
3051.925
3056.722
3061.834
3067.131
3072.47
3077.702
3082.668
3087.205
3091.149
3094.335
3096.6
3097.786
3097.742
3096.327
3093.409
3088.869
3082.6
3074.512
3064.531
3052.598
3038.672
3022.727
3004.759
2984.776
2962.806
2938.893
2913.092
2885.496
2856.103
2825.422
2791.688
2763.207
2705.429
3076.509
3072.2
3067.75
3063.198
3058.664
3054.269
3050.154
3046.476
3043.388
3041.034
3039.536
3038.992
3039.465
3040.987
3043.553
3047.12
3051.611
3056.916
3062.893
3069.373
3076.164
3083.054
3089.818
3096.219
3102.017
3106.969
3110.837
3113.392
3114.415
3113.703
3111.072
3106.356
3099.414
3090.131
3078.414
3064.199
3047.45
3028.154
3006.328
2982.013
2955.273
2926.198
2894.898
2861.501
2826.155
2789.022
2750.276
2710.105
2668.702
2626.269
2583.01
2539.131
2494.839
2450.334
2405.839
2361.436
2317.793
2272.985
2236.148
2169.18
3049.987
3046.675
3043.989
3042.438
3042.374
3043.94
3047.19
3052.076
3058.443
3066.054
3074.607
3083.748
3093.091
3102.225
3110.734
3118.204
3124.232
3128.44
3130.479
3130.034
3126.832
3120.645
3111.291
3098.635
3082.591
3063.121
3040.234
3013.983
2984.463
2951.806
2916.181
2877.787
2836.852
2793.625
2748.373
2701.38
2652.939
2603.348
2552.91
2501.924
2450.684
2399.48
2348.585
2298.265
2248.766
2200.318
2153.133
2107.4
2063.29
2020.949
1980.503
1942.056
1905.687
1871.451
1839.41
1809.5
1781.981
1755.857
1735.057
1702.211
3049.975
3056.827
3067.279
3080.338
3094.622
3108.847
3121.938
3132.907
3140.89
3145.172
3145.181
3140.478
3130.758
3115.837
3095.648
3070.225
3039.7
3004.286
2964.27
2919.999
2871.87
2820.322
2765.82
2708.853
2649.917
2589.515
2528.143
2466.285
2404.408
2342.959
2282.353
2222.98
2165.191
2109.307
2055.606
2004.331
1955.687
1909.838
1866.913
1827.002
1790.161
1756.411
1725.743
1698.117
1673.468
1651.704
1632.712
1616.361
1602.501
1590.969
1581.592
1574.185
1568.56
1564.519
1561.877
1560.422
1559.942
1560.406
1561.028
1563.609
3120.032
3145.887
3158.25
3157.117
3142.962
3116.794
3079.755
3032.948
2977.561
2914.831
2845.987
2772.241
2694.77
2614.702
2533.101
2450.963
2369.203
2288.656
2210.066
2134.093
2061.305
1992.183
1927.122
1866.432
1810.347
1759.024
1712.551
1670.948
1634.181
1602.157
1574.739
1551.748
1532.966
1518.147
1507.021
1499.295
1494.664
1492.811
1493.417
1496.157
1500.71
1506.761
1514.002
1522.139
1530.886
1539.978
1549.163
1558.208
1566.9
1575.045
1582.469
1589.019
1594.562
1598.986
1602.197
1604.123
1604.727
1603.739
1602.421
1595.39
3068.301
2908.439
2750.781
2596.992
2448.806
2307.782
2174.981
2051.209
1937.125
1833.16
1739.537
1656.314
1583.404
1520.586
1467.533
1423.824
1388.961
1362.388
1343.499
1331.655
1326.195
1326.446
1331.733
1341.385
1354.746
1371.179
1390.072
1410.841
1432.938
1455.848
1479.096
1502.246
1524.903
1546.713
1567.363
1586.581
1604.134
1619.829
1633.507
1645.047
1654.36
1661.39
1666.107
1668.511
1668.624
1666.491
1662.178
1655.768
1647.357
1637.056
1624.987
1611.281
1596.074
1579.508
1561.736
1542.857
1523.276
1501.939
1484.092
1448.639
860.3178
812.2728
783.1758
771.719
775.9857
793.6998
822.7055
861.119
907.1482
959.1205
1015.516
1074.953
1136.186
1198.099
1259.702
1320.128
1378.622
1434.539
1487.337
1536.567
1581.874
1622.981
1659.691
1691.873
1719.462
1742.449
1760.875
1774.825
1784.426
1789.837
1791.244
1788.861
1782.917
1773.66
1761.347
1746.242
1728.615
1708.737
1686.877
1663.302
1638.271
1612.037
1584.843
1556.922
1528.494
1499.769
1470.94
1442.189
1413.684
1385.576
1358.005
1331.094
1304.952
1279.675
1255.357
1232.007
1209.918
1188.22
1170.683
1141.222
1035.398
1200.601
1350.122
1483.937
1602.322
1705.805
1795.161
1871.124
1934.408
1985.773
2025.995
2055.853
2076.123
2087.578
2090.976
2087.063
2076.564
2060.18
2038.591
2012.445
1982.363
1948.932
1912.709
1874.216
1833.941
1792.339
1749.83
1706.799
1663.598
1620.548
1577.937
1536.019
1495.023
1455.147
1416.561
1379.41
1343.815
1309.873
1277.661
1247.235
1218.632
1191.873
1166.964
1143.897
1122.651
1103.192
1085.48
1069.463
1055.083
1042.277
1030.973
1021.099
1012.578
1005.329
999.2768
994.3262
990.3968
987.4589
985.2959
983.7685
2998.291
2890.785
2783.796
2677.755
2573.05
2470.264
2369.816
2271.987
2177.092
2085.409
1997.157
1912.518
1831.639
1754.629
1681.566
1612.5
1547.449
1486.406
1429.343
1376.208
1326.932
1281.427
1239.592
1201.312
1166.461
1134.903
1106.498
1081.095
1058.543
1038.684
1021.362
1006.417
993.6918
983.0298
974.2768
967.2814
961.8963
957.9785
955.3896
953.9969
953.673
954.2965
955.7523
957.9314
960.7312
964.0555
967.8147
971.9254
976.3105
980.8991
985.6264
990.4336
995.2675
1000.081
1004.829
1009.49
1013.96
1018.452
1022.087
1028.267
1005.931
975.7078
948.7939
925.176
904.8207
887.5458
873.1328
861.4205
852.2339
845.387
840.6988
837.991
837.0887
837.8211
840.0228
843.5339
848.2011
853.8776
860.4237
867.7074
875.6041
883.9972
892.7777
901.8448
911.1053
920.4738
929.8724
939.2307
948.4855
957.5804
966.4658
975.0981
983.4402
991.4603
999.1321
1006.434
1013.35
1019.868
1025.979
1031.678
1036.964
1041.839
1046.307
1050.374
1054.051
1057.346
1060.273
1062.845
1065.077
1066.986
1068.586
1069.897
1070.935
1071.719
1072.267
1072.598
1072.731
1072.65
1072.542
1071.76
1048.579
1050.38
1052.558
1055.078
1057.855
1060.829
1063.939
1067.124
1070.33
1073.509
1076.62
1079.625
1082.493
1085.199
1087.72
1090.039
1092.142
1094.021
1095.669
1097.082
1098.26
1099.205
1099.922
1100.415
1100.693
1100.765
1100.642
1100.333
1099.851
1099.208
1098.417
1097.49
1096.441
1095.282
1094.026
1092.685
1091.272
1089.797
1088.272
1086.709
1085.116
1083.505
1081.883
1080.261
1078.646
1077.045
1075.467
1073.918
1072.404
1070.931
1069.504
1068.13
1066.811
1065.554
1064.363
1063.233
1062.184
1061.176
1060.366
1059.045
1064.984
1065.506
1065.93
1066.275
1066.549
1066.753
1066.887
1066.953
1066.955
1066.894
1066.775
1066.602
1066.378
1066.11
1065.802
1065.46
1065.088
1064.691
1064.275
1063.844
1063.402
1062.954
1062.503
1062.053
1061.606
1061.165
1060.733
1060.31
1059.9
1059.503
1059.12
1058.752
1058.4
1058.064
1057.746
1057.444
1057.161
1056.896
1056.651
1056.426
1056.222
1056.041
1055.883
1055.75
1055.643
1055.564
1055.515
1055.497
1055.51
1055.558
1055.639
1055.756
1055.909
1056.097
1056.323
1056.575
1056.862
1057.19
1057.471
1058.03
1072.636
1072.612
1072.532
1072.422
1072.292
1072.148
1071.992
1071.828
1071.656
1071.479
1071.296
1071.109
1070.918
1070.724
1070.527
1070.327
1070.124
1069.919
1069.71
1069.497
1069.279
1069.057
1068.829
1068.595
1068.355
1068.109
1067.855
1067.596
1067.332
1067.063
1066.792
1066.519
1066.248
1065.981
1065.72
1065.47
1065.232
1065.012
1064.812
1064.637
1064.489
1064.372
1064.288
1064.24
1064.229
1064.256
1064.321
1064.423
1064.56
1064.727
1064.922
1065.138
1065.368
1065.604
1065.84
1066.052
1066.253
1066.386
1066.532
1066.417
1074.193
1074.004
1073.771
1073.518
1073.255
1072.984
1072.707
1072.425
1072.138
1071.846
1071.549
1071.247
1070.939
1070.626
1070.306
1069.981
1069.65
1069.313
1068.971
1068.624
1068.274
1067.923
1067.571
1067.223
1066.88
1066.548
1066.228
1065.927
1065.647
1065.395
1065.174
1064.989
1064.845
1064.744
1064.69
1064.685
1064.73
1064.825
1064.969
1065.158
1065.389
1065.656
1065.951
1066.264
1066.585
1066.902
1067.2
1067.464
1067.678
1067.823
1067.881
1067.832
1067.658
1067.34
1066.858
1066.182
1065.337
1064.165
1063.161
1060.314
1074.541
1074.277
1073.964
1073.628
1073.277
1072.918
1072.553
1072.183
1071.81
1071.434
1071.056
1070.677
1070.299
1069.923
1069.552
1069.187
1068.834
1068.494
1068.174
1067.879
1067.612
1067.381
1067.19
1067.044
1066.949
1066.909
1066.926
1067.001
1067.136
1067.328
1067.574
1067.869
1068.204
1068.571
1068.957
1069.348
1069.728
1070.079
1070.38
1070.612
1070.752
1070.776
1070.661
1070.384
1069.922
1069.251
1068.35
1067.2
1065.783
1064.084
1062.09
1059.792
1057.184
1054.266
1051.038
1047.499
1043.707
1039.456
1035.779
1028.189
1073.904
1073.537
1073.139
1072.732
1072.328
1071.931
1071.545
1071.171
1070.812
1070.47
1070.152
1069.861
1069.603
1069.384
1069.213
1069.095
1069.036
1069.042
1069.117
1069.261
1069.476
1069.757
1070.1
1070.496
1070.932
1071.394
1071.864
1072.321
1072.742
1073.101
1073.371
1073.524
1073.53
1073.36
1072.983
1072.373
1071.503
1070.349
1068.889
1067.105
1064.985
1062.518
1059.701
1056.534
1053.024
1049.183
1045.03
1040.588
1035.888
1030.967
1025.866
1020.632
1015.32
1009.989
1004.694
999.5125
994.5114
989.6961
985.6451
979.5798
1072.708
1072.547
1072.355
1072.162
1071.985
1071.833
1071.716
1071.642
1071.623
1071.669
1071.786
1071.983
1072.26
1072.618
1073.05
1073.545
1074.089
1074.659
1075.231
1075.776
1076.259
1076.644
1076.894
1076.968
1076.828
1076.436
1075.754
1074.751
1073.396
1071.665
1069.541
1067.012
1064.072
1060.725
1056.981
1052.86
1048.39
1043.606
1038.553
1033.282
1027.853
1022.333
1016.794
1011.316
1005.982
1000.88
996.1025
991.7427
987.8962
984.6595
982.1286
980.3984
979.5618
979.7124
980.9217
983.3159
986.8181
992.1069
996.8102
1010.456
1075.432
1075.563
1075.682
1075.845
1076.08
1076.401
1076.818
1077.328
1077.922
1078.577
1079.259
1079.928
1080.535
1081.024
1081.34
1081.423
1081.216
1080.665
1079.72
1078.34
1076.492
1074.153
1071.311
1067.966
1064.13
1059.829
1055.1
1049.994
1044.573
1038.912
1033.093
1027.212
1021.37
1015.675
1010.244
1005.194
1000.648
996.7291
993.5603
991.2636
989.9581
989.7586
990.7749
993.11
996.8599
1002.112
1008.944
1017.424
1027.611
1039.551
1053.28
1068.822
1086.191
1105.391
1126.391
1149.259
1173.578
1200.993
1224.229
1273.3
1082.368
1082.965
1083.637
1084.411
1085.228
1086.014
1086.677
1087.109
1087.204
1086.859
1085.988
1084.519
1082.402
1079.608
1076.135
1072.002
1067.252
1061.951
1056.188
1050.07
1043.719
1037.274
1030.886
1024.715
1018.926
1013.689
1009.177
1005.558
1002.999
1001.66
1001.694
1003.243
1006.437
1011.394
1018.22
1027.003
1037.816
1050.718
1065.748
1082.932
1102.277
1123.775
1147.403
1173.121
1200.876
1230.602
1262.217
1295.631
1330.742
1367.437
1405.596
1445.092
1485.792
1527.561
1570.23
1613.775
1657.517
1703.642
1741.968
1814.929
1093.932
1094.702
1095.124
1094.855
1093.631
1091.34
1087.933
1083.431
1077.931
1071.589
1064.604
1057.208
1049.661
1042.236
1035.217
1028.886
1023.523
1019.396
1016.758
1015.844
1016.868
1020.019
1025.463
1033.335
1043.746
1056.777
1072.483
1090.89
1111.999
1135.786
1162.203
1191.178
1222.622
1256.423
1292.455
1330.576
1370.631
1412.456
1455.874
1500.705
1546.762
1593.853
1641.788
1690.375
1739.421
1788.741
1838.15
1887.469
1936.528
1985.161
2033.212
2080.532
2126.985
2172.445
2216.769
2259.953
2301.48
2343.026
2376.947
2435.949
1103.089
1098.755
1091.572
1082.358
1072.165
1061.952
1052.494
1044.491
1038.552
1035.179
1034.783
1037.686
1044.132
1054.288
1068.255
1086.071
1107.718
1133.129
1162.192
1194.759
1230.646
1269.643
1311.516
1356.014
1402.871
1451.81
1502.551
1554.806
1608.292
1662.726
1717.83
1773.336
1828.983
1884.522
1939.716
1994.345
2048.198
2101.083
2152.823
2203.257
2252.241
2299.645
2345.358
2389.283
2431.338
2471.458
2509.592
2545.7
2579.758
2611.753
2641.685
2669.563
2695.406
2719.248
2741.109
2761.075
2779.084
2795.624
2808.766
2827.998
1093.111
1073.238
1063.828
1064.591
1074.979
1094.148
1121.211
1155.394
1195.92
1242.017
1292.948
1348.005
1406.512
1467.828
1531.349
1596.505
1662.766
1729.64
1796.671
1863.442
1929.575
1994.725
2058.586
2120.886
2181.387
2239.88
2296.191
2350.174
2401.709
2450.703
2497.088
2540.818
2581.866
2620.228
2655.915
2688.952
2719.383
2747.259
2772.646
2795.618
2816.258
2834.655
2850.903
2865.103
2877.356
2887.768
2896.446
2903.495
2909.024
2913.137
2915.94
2917.534
2918.019
2917.493
2916.05
2913.763
2910.813
2906.905
2903.507
2895.324
1168.197
1293.692
1415.083
1532.109
1644.564
1752.152
1854.757
1952.336
2044.814
2132.156
2214.371
2291.493
2363.579
2430.711
2492.991
2550.54
2603.494
2652.002
2696.225
2736.336
2772.511
2804.936
2833.8
2859.293
2881.609
2900.94
2917.477
2931.41
2942.925
2952.203
2959.421
2964.75
2968.356
2970.397
2971.025
2970.384
2968.611
2965.836
2962.179
2957.755
2952.67
2947.022
2940.903
2934.395
2927.577
2920.517
2913.28
2905.922
2898.495
2891.044
2883.61
2876.229
2868.932
2861.745
2854.698
2847.787
2841.109
2834.372
2828.84
2819.06
2971.916
2997.471
3019.53
3038.21
3053.649
3066.08
3075.764
3082.908
3087.719
3090.409
3091.177
3090.217
3087.712
3083.835
3078.754
3072.624
3065.593
3057.796
3049.363
3040.411
3031.05
3021.38
3011.491
3001.467
2991.382
2981.301
2971.283
2961.379
2951.634
2942.086
2932.765
2923.698
2914.905
2906.403
2898.201
2890.309
2882.729
2875.461
2868.505
2861.855
2855.504
2849.445
2843.668
2838.162
2832.916
2827.919
2823.159
2818.623
2814.301
2810.181
2806.252
2802.505
2798.93
2795.519
2792.266
2789.161
2786.208
2783.325
2780.935
2776.9
2938.504
2935.4
2931.869
2927.993
2923.871
2919.563
2915.13
2910.625
2906.096
2901.582
2897.117
2892.731
2888.446
2884.281
2880.251
2876.366
2872.634
2869.058
2865.64
2862.376
2859.265
2856.298
2853.47
2850.771
2848.19
2845.717
2843.34
2841.046
2838.824
2836.662
2834.547
2832.468
2830.415
2828.378
2826.348
2824.316
2822.278
2820.227
2818.16
2816.074
2813.968
2811.843
2809.701
2807.543
2805.375
2803.202
2801.028
2798.862
2796.711
2794.582
2792.483
2790.423
2788.409
2786.447
2784.549
2782.715
2780.96
2779.221
2777.817
2775.339
2926.102
2923.729
2921.296
2918.838
2916.368
2913.894
2911.421
2908.948
2906.474
2903.996
2901.513
2899.021
2896.515
2893.991
2891.445
2888.872
2886.267
2883.624
2880.941
2878.212
2875.433
2872.602
2869.715
2866.772
2863.771
2860.713
2857.598
2854.43
2851.213
2847.952
2844.652
2841.323
2837.971
2834.609
2831.246
2827.894
2824.565
2821.273
2818.03
2814.85
2811.744
2808.726
2805.807
2802.996
2800.304
2797.738
2795.303
2793.003
2790.839
2788.811
2786.915
2785.145
2783.492
2781.942
2780.488
2779.098
2777.789
2776.404
2775.363
2773.052
2913.228
2910.402
2907.489
2904.522
2901.511
2898.461
2895.376
2892.255
2889.099
2885.907
2882.678
2879.412
2876.108
2872.765
2869.384
2865.965
2862.509
2859.02
2855.5
2851.954
2848.389
2844.812
2841.231
2837.657
2834.101
2830.576
2827.095
2823.672
2820.321
2817.056
2813.893
2810.844
2807.922
2805.138
2802.503
2800.023
2797.704
2795.548
2793.556
2791.724
2790.044
2788.508
2787.102
2785.807
2784.603
2783.465
2782.365
2781.272
2780.15
2778.963
2777.671
2776.23
2774.597
2772.724
2770.572
2768.067
2765.253
2761.729
2758.779
2751.232
2892.552
2889.284
2885.928
2882.516
2879.061
2875.572
2872.053
2868.506
2864.932
2861.335
2857.716
2854.082
2850.437
2846.79
2843.15
2839.529
2835.94
2832.399
2828.921
2825.523
2822.222
2819.035
2815.979
2813.068
2810.315
2807.73
2805.322
2803.093
2801.046
2799.175
2797.473
2795.926
2794.517
2793.224
2792.019
2790.869
2789.74
2788.589
2787.372
2786.042
2784.547
2782.834
2780.847
2778.53
2775.824
2772.672
2769.016
2764.801
2759.971
2754.474
2748.26
2741.284
2733.504
2724.881
2715.392
2704.963
2693.771
2680.945
2670.056
2646.287
2866.183
2862.527
2858.816
2855.078
2851.331
2847.584
2843.845
2840.125
2836.436
2832.797
2829.226
2825.746
2822.377
2819.143
2816.065
2813.161
2810.447
2807.934
2805.627
2803.528
2801.629
2799.917
2798.373
2796.968
2795.67
2794.436
2793.221
2791.97
2790.625
2789.124
2787.4
2785.383
2783.002
2780.185
2776.858
2772.951
2768.394
2763.118
2757.06
2750.162
2742.367
2733.629
2723.905
2713.159
2701.364
2688.498
2674.551
2659.518
2643.402
2626.217
2607.982
2588.727
2568.488
2547.308
2525.251
2502.311
2478.848
2453.596
2432.428
2390.75
2835.175
2831.67
2828.125
2824.594
2821.122
2817.745
2814.502
2811.43
2808.561
2805.919
2803.518
2801.359
2799.432
2797.714
2796.169
2794.747
2793.391
2792.029
2790.584
2788.969
2787.094
2784.861
2782.174
2778.934
2775.044
2770.409
2764.939
2758.548
2751.158
2742.7
2733.112
2722.343
2710.352
2697.108
2682.593
2666.8
2649.733
2631.409
2611.853
2591.104
2569.212
2546.234
2522.239
2497.303
2471.512
2444.956
2417.734
2389.949
2361.708
2333.123
2304.308
2275.377
2246.447
2217.632
2189.059
2160.784
2133.186
2105.158
2082.102
2041.091
2804.709
2801.527
2798.409
2795.53
2792.953
2790.675
2788.669
2786.866
2785.164
2783.437
2781.547
2779.341
2776.664
2773.358
2769.269
2764.252
2758.169
2750.897
2742.327
2732.365
2720.935
2707.979
2693.459
2677.355
2659.664
2640.403
2619.606
2597.324
2573.623
2548.584
2522.303
2494.884
2466.445
2437.113
2407.02
2376.306
2345.117
2313.598
2281.901
2250.173
2218.566
2187.224
2156.292
2125.908
2096.207
2067.316
2039.356
2012.439
1986.671
1962.148
1938.955
1917.171
1896.865
1878.091
1860.905
1845.325
1831.446
1819.017
1809.254
1796.245
2766.216
2762.885
2760.072
2757.376
2754.265
2750.3
2745.141
2738.474
2730.049
2719.675
2707.215
2692.582
2675.734
2656.672
2635.432
2612.087
2586.737
2559.511
2530.556
2500.042
2468.151
2435.08
2401.033
2366.22
2330.855
2295.153
2259.327
2223.586
2188.136
2153.173
2118.885
2085.453
2053.043
2021.812
1991.902
1963.444
1936.553
1911.334
1887.873
1866.245
1846.511
1828.717
1812.896
1799.068
1787.241
1777.41
1769.558
1763.66
1759.678
1757.565
1757.268
1758.722
1761.859
1766.601
1772.863
1780.593
1789.522
1800.336
1809.678
1830.706
2679.254
2672.502
2660.15
2642.472
2619.892
2593.004
2562.384
2528.539
2491.984
2453.221
2412.729
2370.963
2328.356
2285.314
2242.22
2199.428
2157.265
2116.034
2076.006
2037.429
2000.52
1965.473
1932.453
1901.603
1873.039
1846.855
1823.122
1801.889
1783.186
1767.023
1753.394
1742.274
1733.625
1727.394
1723.516
1721.913
1722.501
1725.182
1729.853
1736.406
1744.724
1754.689
1766.177
1779.064
1793.223
1808.527
1824.849
1842.063
1860.045
1878.672
1897.824
1917.386
1937.245
1957.294
1977.419
1997.574
2017.43
2037.867
2054.723
2085.3
2434.654
2358.262
2285.349
2216.155
2150.884
2089.731
2032.751
1979.977
1931.45
1887.177
1847.138
1811.292
1779.578
1751.916
1728.209
1708.347
1692.204
1679.643
1670.515
1664.664
1661.925
1662.128
1665.096
1670.651
1678.609
1688.79
1701.009
1715.084
1730.834
1748.083
1766.654
1786.379
1807.091
1828.629
1850.84
1873.574
1896.691
1920.053
1943.534
1967.013
1990.376
2013.515
2036.334
2058.739
2080.647
2101.981
2122.669
2142.65
2161.866
2180.268
2197.811
2214.459
2230.178
2244.945
2258.732
2271.546
2283.295
2294.284
2303.101
2316.321
1466.396
1465.074
1466.752
1471.422
1479.032
1489.389
1502.271
1517.509
1534.916
1554.295
1575.454
1598.202
1622.352
1647.721
1674.128
1701.4
1729.368
1757.871
1786.753
1815.867
1845.072
1874.235
1903.233
1931.948
1960.273
1988.107
2015.359
2041.944
2067.787
2092.818
2116.978
2140.212
2162.474
2183.723
2203.927
2223.057
2241.091
2258.015
2273.816
2288.488
2302.029
2314.441
2325.73
2335.907
2344.982
2352.973
2359.896
2365.773
2370.626
2374.479
2377.359
2379.293
2380.31
2380.439
2379.714
2378.147
2375.859
2372.516
2369.558
2361.562
1765.699
1792.97
1820.646
1848.667
1876.923
1905.255
1933.527
1961.627
1989.434
2016.835
2043.728
2070.021
2095.628
2120.475
2144.492
2167.621
2189.811
2211.016
2231.2
2250.333
2268.391
2285.356
2301.218
2315.967
2329.603
2342.128
2353.547
2363.871
2373.113
2381.288
2388.416
2394.516
2399.613
2403.729
2406.891
2409.126
2410.463
2410.93
2410.557
2409.373
2407.41
2404.697
2401.266
2397.147
2392.37
2386.967
2380.966
2374.399
2367.293
2359.679
2351.585
2343.039
2334.069
2324.702
2314.972
2304.867
2294.569
2283.467
2274.207
2255.845
2156.252
2180.897
2204.418
2226.793
2247.99
2267.963
2286.705
2304.216
2320.489
2335.528
2349.342
2361.946
2373.357
2383.597
2392.692
2400.667
2407.552
2413.378
2418.176
2421.979
2424.819
2426.732
2427.749
2427.905
2427.234
2425.768
2423.541
2420.583
2416.929
2412.608
2407.65
2402.088
2395.948
2389.262
2382.056
2374.358
2366.196
2357.596
2348.584
2339.186
2329.427
2319.331
2308.923
2298.226
2287.264
2276.059
2264.634
2253.011
2241.212
2229.258
2217.17
2204.968
2192.673
2180.303
2167.887
2155.405
2143.026
2130.131
2119.459
2099.369
2439.748
2446.509
2452.053
2456.444
2459.736
2461.989
2463.277
2463.653
2463.169
2461.872
2459.808
2457.018
2453.541
2449.411
2444.663
2439.328
2433.435
2427.011
2420.083
2412.675
2404.81
2396.513
2387.804
2378.704
2369.236
2359.419
2349.273
2338.818
2328.075
2317.063
2305.801
2294.309
2282.607
2270.715
2258.651
2246.437
2234.09
2221.631
2209.08
2196.455
2183.776
2171.061
2158.33
2145.601
2132.892
2120.22
2107.604
2095.06
2082.605
2070.254
2058.022
2045.925
2033.978
2022.191
2010.587
1999.147
1988
1976.646
1967.317
1950.383
2463.565
2456.502
2449.164
2441.573
2433.721
2425.605
2417.23
2408.586
2399.667
2390.474
2381.003
2371.255
2361.232
2350.939
2340.381
2329.567
2318.504
2307.205
2295.682
2283.949
2272.021
2259.913
2247.645
2235.233
2222.697
2210.056
2197.331
2184.541
2171.707
2158.849
2145.989
2133.146
2120.341
2107.593
2094.922
2082.348
2069.887
2057.558
2045.377
2033.362
2021.527
2009.886
1998.454
1987.244
1976.266
1965.532
1955.051
1944.834
1934.887
1925.218
1915.833
1906.737
1897.936
1889.431
1881.231
1873.319
1865.766
1858.267
1852.159
1841.546
2345.265
2336.798
2327.793
2318.286
2308.293
2297.853
2287.007
2275.78
2264.206
2252.319
2240.153
2227.742
2215.12
2202.324
2189.385
2176.338
2163.216
2150.05
2136.871
2123.709
2110.594
2097.551
2084.607
2071.786
2059.113
2046.608
2034.291
2022.182
2010.298
1998.655
1987.266
1976.146
1965.306
1954.756
1944.505
1934.562
1924.933
1915.623
1906.636
1897.977
1889.647
1881.647
1873.979
1866.641
1859.632
1852.95
1846.593
1840.556
1834.836
1829.428
1824.327
1819.527
1815.021
1810.804
1806.871
1803.206
1799.826
1796.618
1794.047
1789.924
2223.428
2208.411
2193.306
2178.181
2163.084
2148.076
2133.201
2118.488
2103.968
2089.673
2075.625
2061.848
2048.361
2035.181
2022.323
2009.8
1997.623
1985.801
1974.342
1963.251
1952.533
1942.191
1932.227
1922.642
1913.435
1904.606
1896.153
1888.072
1880.36
1873.013
1866.026
1859.395
1853.112
1847.172
1841.569
1836.295
1831.343
1826.706
1822.375
1818.343
1814.601
1811.142
1807.955
1805.034
1802.368
1799.949
1797.768
1795.816
1794.084
1792.562
1791.242
1790.113
1789.169
1788.398
1787.793
1787.346
1787.04
1786.887
1786.808
1786.996
2021.081
2008.406
1996.142
1984.325
1972.963
1962.061
1951.61
1941.596
1932.011
1922.845
1914.089
1905.732
1897.766
1890.179
1882.964
1876.111
1869.612
1863.458
1857.64
1852.15
1846.979
1842.121
1837.565
1833.305
1829.333
1825.639
1822.218
1819.06
1816.158
1813.504
1811.09
1808.909
1806.952
1805.212
1803.68
1802.35
1801.212
1800.26
1799.485
1798.879
1798.435
1798.145
1798
1797.993
1798.117
1798.362
1798.722
1799.189
1799.755
1800.412
1801.154
1801.972
1802.86
1803.811
1804.818
1805.876
1806.965
1808.138
1809.126
1811.01
1887.886
1882.273
1876.798
1871.503
1866.411
1861.537
1856.887
1852.462
1848.266
1844.299
1840.563
1837.056
1833.778
1830.726
1827.899
1825.293
1822.906
1820.733
1818.771
1817.014
1815.459
1814.099
1812.929
1811.943
1811.135
1810.499
1810.028
1809.716
1809.555
1809.539
1809.66
1809.911
1810.284
1810.773
1811.37
1812.068
1812.859
1813.736
1814.692
1815.719
1816.812
1817.961
1819.162
1820.407
1821.69
1823.004
1824.344
1825.703
1827.076
1828.458
1829.842
1831.226
1832.604
1833.972
1835.326
1836.664
1837.97
1839.297
1840.392
1842.307
1844.729
1841.311
1838.127
1835.21
1832.572
1830.214
1828.126
1826.299
1824.724
1823.391
1822.289
1821.408
1820.736
1820.264
1819.981
1819.876
1819.939
1820.161
1820.53
1821.036
1821.671
1822.425
1823.288
1824.25
1825.304
1826.44
1827.649
1828.923
1830.255
1831.637
1833.06
1834.518
1836.004
1837.511
1839.033
1840.565
1842.1
1843.633
1845.16
1846.675
1848.176
1849.657
1851.115
1852.547
1853.951
1855.324
1856.663
1857.967
1859.235
1860.464
1861.655
1862.807
1863.92
1864.994
1866.028
1867.026
1867.979
1868.925
1869.697
1870.996
1822.927
1823.698
1824.524
1825.434
1826.442
1827.545
1828.737
1830.012
1831.364
1832.785
1834.27
1835.809
1837.397
1839.027
1840.691
1842.385
1844.1
1845.833
1847.575
1849.323
1851.069
1852.811
1854.541
1856.257
1857.953
1859.626
1861.272
1862.888
1864.47
1866.016
1867.524
1868.992
1870.418
1871.801
1873.14
1874.435
1875.684
1876.889
1878.049
1879.166
1880.239
1881.271
1882.263
1883.216
1884.132
1885.013
1885.861
1886.68
1887.47
1888.235
1888.977
1889.698
1890.403
1891.094
1891.772
1892.444
1893.102
1893.783
1894.343
1895.364
1856.831
1858.477
1860.085
1861.683
1863.289
1864.902
1866.521
1868.144
1869.767
1871.385
1872.994
1874.589
1876.166
1877.721
1879.249
1880.748
1882.214
1883.644
1885.035
1886.387
1887.695
1888.961
1890.181
1891.357
1892.487
1893.573
1894.614
1895.612
1896.568
1897.484
1898.36
1899.201
1900.008
1900.783
1901.53
1902.251
1902.95
1903.63
1904.295
1904.946
1905.589
1906.226
1906.86
1907.496
1908.135
1908.782
1909.439
1910.108
1910.793
1911.497
1912.22
1912.966
1913.736
1914.532
1915.356
1916.21
1917.084
1918.029
1918.819
1920.37
1890.524
1892.272
1893.936
1895.542
1897.103
1898.619
1900.087
1901.507
1902.876
1904.192
1905.453
1906.659
1907.81
1908.905
1909.947
1910.935
1911.873
1912.762
1913.606
1914.408
1915.17
1915.896
1916.591
1917.258
1917.902
1918.527
1919.136
1919.735
1920.327
1920.917
1921.509
1922.108
1922.716
1923.338
1923.977
1924.637
1925.321
1926.032
1926.772
1927.544
1928.35
1929.192
1930.071
1930.989
1931.947
1932.944
1933.981
1935.059
1936.176
1937.332
1938.525
1939.756
1941.022
1942.321
1943.652
1945.014
1946.388
1947.845
1949.058
1951.361
1924.36
1925.644
1926.772
1927.782
1928.697
1929.53
1930.293
1930.995
1931.644
1932.246
1932.809
1933.341
1933.847
1934.335
1934.81
1935.278
1935.747
1936.22
1936.703
1937.201
1937.72
1938.262
1938.833
1939.436
1940.073
1940.75
1941.467
1942.227
1943.032
1943.884
1944.784
1945.732
1946.73
1947.777
1948.873
1950.018
1951.211
1952.451
1953.735
1955.063
1956.433
1957.841
1959.286
1960.765
1962.273
1963.809
1965.367
1966.946
1968.54
1970.145
1971.757
1973.373
1974.986
1976.594
1978.191
1979.775
1981.326
1982.906
1984.209
1986.508
1950.126
1950.356
1950.546
1950.735
1950.945
1951.188
1951.471
1951.798
1952.173
1952.6
1953.08
1953.616
1954.21
1954.863
1955.576
1956.35
1957.184
1958.08
1959.037
1960.055
1961.132
1962.268
1963.461
1964.709
1966.011
1967.363
1968.765
1970.212
1971.703
1973.233
1974.799
1976.398
1978.027
1979.68
1981.354
1983.044
1984.748
1986.458
1988.173
1989.886
1991.593
1993.289
1994.97
1996.631
1998.266
1999.872
2001.443
2002.975
2004.462
2005.901
2007.287
2008.615
2009.882
2011.083
2012.215
2013.273
2014.251
2015.164
2015.9
2016.949
1966.031
1967.079
1968.112
1969.167
1970.265
1971.413
1972.611
1973.862
1975.165
1976.521
1977.926
1979.38
1980.881
1982.425
1984.011
1985.635
1987.294
1988.985
1990.705
1992.448
1994.212
1995.993
1997.785
1999.585
2001.388
2003.189
2004.984
2006.769
2008.538
2010.286
2012.01
2013.704
2015.363
2016.984
2018.561
2020.089
2021.566
2022.986
2024.345
2025.639
2026.864
2028.018
2029.095
2030.093
2031.009
2031.839
2032.581
2033.232
2033.789
2034.251
2034.615
2034.88
2035.043
2035.105
2035.064
2034.916
2034.673
2034.284
2033.938
2032.875
1997.591
1999.321
2001.021
2002.725
2004.45
2006.197
2007.965
2009.753
2011.559
2013.377
2015.202
2017.031
2018.859
2020.68
2022.489
2024.281
2026.052
2027.796
2029.507
2031.182
2032.814
2034.4
2035.934
2037.412
2038.829
2040.181
2041.464
2042.675
2043.809
2044.862
2045.832
2046.716
2047.51
2048.213
2048.821
2049.332
2049.745
2050.059
2050.271
2050.38
2050.386
2050.289
2050.086
2049.78
2049.368
2048.853
2048.233
2047.51
2046.685
2045.759
2044.732
2043.607
2042.386
2041.069
2039.662
2038.158
2036.587
2034.84
2033.375
2030.281
2035.395
2037.405
2039.333
2041.205
2043.035
2044.821
2046.562
2048.254
2049.893
2051.473
2052.991
2054.44
2055.818
2057.119
2058.34
2059.477
2060.526
2061.484
2062.348
2063.115
2063.783
2064.35
2064.813
2065.172
2065.424
2065.569
2065.607
2065.535
2065.355
2065.067