/*--------------------------------*- C++ -*----------------------------------*\
| =========                 |                                                 |
| \\      /  F ield         | OpenFOAM: The Open Source CFD Toolbox           |
|  \\    /   O peration     | Version:  2312                                  |
|   \\  /    A nd           | Website:  www.openfoam.com                      |
|    \\/     M anipulation  |                                                 |
\*---------------------------------------------------------------------------*/
FoamFile
{
    version     2.0;
    format      ascii;
    arch        "LSB;label=32;scalar=64";
    class       volScalarField;
    location    "4050";
    object      ILambda_11_0;
}
// * * * * * * * * * * * * * * * * * * * * * * * * * * * * * * * * * * * * * //

dimensions      [1 0 -3 0 0 0 0];

internalField   nonuniform List<scalar> 
12000
(
592.3231
590.5952
589.7401
588.6841
587.6776
586.6634
585.6572
584.6579
583.6681
582.6895
581.7241
580.7736
579.8399
578.9245
578.0292
577.1554
576.3046
575.4783
574.6776
573.9038
573.158
572.4412
571.7543
571.0981
570.4734
569.8807
569.3206
568.7934
568.2994
567.8389
567.412
567.0186
566.6587
566.3319
566.0382
565.777
565.548
565.3506
565.1841
565.0479
564.941
564.8624
564.8114
564.7869
564.7877
564.8123
564.8595
564.9281
565.0168
565.124
565.2481
565.3877
565.5416
565.7083
565.8862
566.0743
566.2717
566.4779
566.6928
566.9171
612.4438
611.1786
610.497
609.6386
608.7737
607.8642
606.9205
605.9425
604.9326
603.8925
602.8247
601.7314
600.6149
599.4776
598.3221
597.1509
595.9666
594.7718
593.5691
592.3612
591.1508
589.9405
588.7328
587.5304
586.3358
585.1514
583.9797
582.823
581.6837
580.564
579.4661
578.392
577.3437
576.3231
575.3321
574.3724
573.4456
572.5533
571.6969
570.8777
570.0971
569.3562
568.6559
567.9973
567.3812
566.8082
566.2791
565.7943
565.3541
564.9588
564.6085
564.3032
564.0428
563.8272
563.656
563.5289
563.446
563.408
563.4158
563.4704
616.892
616.6175
616.4566
616.2285
615.9625
615.6505
615.293
614.8894
614.4395
613.9432
613.4006
612.8122
612.1785
611.5001
610.7781
610.0134
609.2073
608.3612
607.4767
606.5553
605.599
604.6096
603.5893
602.5402
601.4645
600.3646
599.2428
598.1016
596.9435
595.771
594.5867
593.393
592.1925
590.9878
589.7814
588.5757
587.3733
586.1765
584.9878
583.8094
582.6437
581.493
580.3593
579.245
578.1521
577.0827
576.0389
575.0228
574.0364
573.0816
572.1606
571.2753
570.4278
569.6201
568.8544
568.1333
567.4596
566.8367
566.2701
565.7663
615.7628
616.1191
616.3341
616.5713
616.7786
616.9641
617.1225
617.2521
617.3505
617.4155
617.445
617.4371
617.39
617.3018
617.1712
616.9967
616.777
616.5111
616.1982
615.8377
615.4289
614.9718
614.4662
613.9124
613.3108
612.662
611.9668
611.2262
610.4415
609.6141
608.7455
607.8376
606.8922
605.9113
604.8972
603.8521
602.7784
601.6784
600.5546
599.4095
598.2456
597.0656
595.8718
594.6668
593.453
592.2328
591.0087
589.7828
588.5576
587.3352
586.1178
584.9075
583.7066
582.5173
581.3419
580.183
579.0436
577.9279
576.842
575.7957
611.3435
611.6528
611.8966
612.1844
612.4795
612.7868
613.1022
613.4241
613.7503
614.0783
614.4059
614.7305
615.0494
615.3598
615.6591
615.9444
616.2127
616.4611
616.6868
616.8868
617.0582
617.1984
617.3046
617.3742
617.4048
617.3941
617.3401
617.2408
617.0945
616.8998
616.6555
616.3606
616.0145
615.6167
615.1672
614.6662
614.114
613.5114
612.8594
612.1593
611.4125
610.6209
609.7864
608.9111
607.9973
607.0476
606.0646
605.0509
604.0093
602.9426
601.8537
600.7454
599.6205
598.4819
597.3323
596.1747
595.0123
593.8495
592.6927
591.5528
609.7582
609.4659
609.4123
609.3447
609.3152
609.31
609.3323
609.3816
609.4584
609.5626
609.694
609.8523
610.037
610.2472
610.482
610.74
611.02
611.3201
611.6385
611.9729
612.321
612.6802
613.0477
613.4205
613.7954
614.1691
614.5383
614.8993
615.2484
615.5821
615.8966
616.1882
616.4532
616.688
616.8892
617.0533
617.1772
617.2578
617.2925
617.2787
617.2142
617.0972
616.9261
616.6998
616.4176
616.079
615.6841
615.2334
614.7278
614.1685
613.5573
612.8963
612.188
611.4353
610.6417
609.8108
608.9472
608.0567
607.1477
606.2335
613.6865
612.8372
612.4781
612.027
611.6158
611.2121
610.8248
610.4534
610.0999
609.7661
609.4536
609.1643
608.8997
608.6617
608.4519
608.2718
608.1229
608.0067
607.9242
607.8765
607.8645
607.8889
607.9501
608.0483
608.1833
608.3548
608.5622
608.8045
609.0804
609.3883
609.7262
610.092
610.4829
610.896
611.3283
611.7761
612.2356
612.7028
613.1734
613.6429
614.1066
614.5599
614.9978
615.4155
615.808
616.1705
616.4984
616.787
617.0319
617.2292
617.3751
617.4662
617.4997
617.4731
617.3847
617.2335
617.0197
616.7449
616.414
616.0391
621.1859
620.1282
619.6608
619.0624
618.5001
617.9297
617.3609
616.7911
616.2211
615.6511
615.0819
614.514
613.9485
613.3865
612.8293
612.2782
611.7349
611.2012
610.679
610.1704
609.6776
609.203
608.7488
608.3177
607.9122
607.5347
607.188
606.8746
606.5969
606.3573
606.1582
606.0016
605.8895
605.8236
605.8054
605.836
605.9163
606.0468
606.2276
606.4584
606.7386
607.0668
607.4416
607.8607
608.3217
608.8214
609.3564
609.9225
610.5154
611.13
611.7612
612.4031
613.0497
613.695
614.3323
614.9554
615.5582
616.1357
616.685
617.2096
629.8451
628.6151
628.0806
627.4024
626.7775
626.1526
625.5381
624.9297
624.3267
623.7278
623.1316
622.537
621.9426
621.3474
620.7501
620.1498
619.5456
618.9366
618.3222
617.7019
617.0755
616.4427
615.8038
615.1592
614.5093
613.8551
613.1978
612.5386
611.8794
611.2219
610.5686
609.9218
609.2843
608.6592
608.0496
607.4589
606.8909
606.3491
605.8376
605.3602
604.9211
604.5242
604.1736
603.8731
603.6266
603.4377
603.3097
603.2457
603.2484
603.3203
603.4632
603.6785
603.9671
604.3291
604.7645
605.2724
605.8516
606.5012
607.2207
608.0117
640.4886
638.8593
638.1076
637.1819
636.3265
635.4802
634.6573
633.8545
633.0728
632.3119
631.5718
630.8522
630.1524
629.4718
628.8094
628.164
627.5345
626.9192
626.3165
625.7247
625.1419
624.5661
623.9952
623.427
622.8594
622.2903
621.7175
621.139
620.5527
619.9567
619.3494
618.7292
618.0948
617.4451
616.7793
616.0969
615.3977
614.6818
613.95
613.2031
612.4426
611.6702
610.8883
610.0996
609.3072
608.5149
607.7266
606.947
606.181
605.4339
604.7113
604.0192
603.3638
602.7516
602.1895
601.6843
601.2436
600.8752
600.5888
600.3947
654.324
652.4608
651.5235
650.3809
649.2865
648.1817
647.0824
645.9877
644.9009
643.8247
642.7615
641.7138
640.6841
639.6745
638.6872
637.7239
636.7863
635.8759
634.9938
634.1411
633.3182
632.5258
631.7638
631.0322
630.3304
629.6577
629.0131
628.3952
627.8023
627.2327
626.6842
626.1542
625.6403
625.1396
624.6491
624.1656
623.6858
623.2064
622.7239
622.2349
621.7359
621.2236
620.6948
620.1464
619.5755
618.9796
618.3562
617.7036
617.0201
616.3046
615.5566
614.7757
613.9625
613.1181
612.244
611.343
610.4188
609.4767
608.5252
607.5791
668.093
666.6904
665.9363
665.0059
664.0708
663.0925
662.0804
661.0345
659.9577
658.8524
657.7215
656.5679
655.3949
654.2055
653.0033
651.7916
650.574
649.354
648.1352
646.9212
645.7155
644.5217
643.3431
642.1832
641.0451
639.9319
638.8465
637.7917
636.7699
635.7833
634.834
633.9237
633.0537
632.2252
631.4389
630.6951
629.9941
629.3353
628.718
628.1413
627.6035
627.1029
626.6371
626.2036
625.7994
625.4213
625.0656
624.7285
624.4059
624.0933
623.7863
623.4799
623.1693
622.8495
622.5155
622.1626
621.7867
621.3848
620.9573
620.512
675.7857
675.3602
675.1311
674.8212
674.4724
674.0725
673.6211
673.117
672.5598
671.9493
671.2856
670.569
669.8003
668.9803
668.1101
667.191
666.2246
665.2127
664.1575
663.0612
661.9263
660.7557
659.5524
658.3193
657.06
655.778
654.4768
653.1603
651.8325
650.4974
649.1592
647.8221
646.4904
645.1683
643.8601
642.5702
641.3027
640.0618
638.8514
637.6755
636.5378
635.4417
634.3907
633.3876
632.4354
631.5365
630.693
629.9068
629.1793
628.5116
627.9041
627.3569
626.8694
626.4409
626.0701
625.7552
625.4945
625.2869
625.1323
625.0346
675.2122
675.5327
675.7681
676.0146
676.2338
676.4279
676.5914
676.7216
676.8158
676.8715
676.8864
676.8582
676.7849
676.6646
676.4952
676.2752
676.003
675.6772
675.2965
674.8601
674.3671
673.817
673.2093
672.5439
671.821
671.0407
670.2037
669.3107
668.3629
667.3615
666.3082
665.2049
664.0536
662.8568
661.6173
660.3379
659.0219
657.6728
656.2943
654.8904
653.4653
652.0235
650.5695
649.1082
647.6445
646.1836
644.7309
643.2916
641.8713
640.4755
639.1095
637.7788
636.4885
635.2438
634.0499
632.9119
631.8353
630.8258
629.8901
629.0362
670.4018
670.756
671.0768
671.4327
671.8
672.1761
672.5576
672.9417
673.326
673.708
674.0853
674.4553
674.8156
675.1636
675.4966
675.8119
676.1068
676.3786
676.6246
676.8421
677.0284
677.1807
677.2966
677.3733
677.4083
677.3993
677.3437
677.2393
677.0839
676.8754
676.612
676.292
675.9136
675.4757
674.9769
674.4164
673.7935
673.1077
672.3588
671.5469
670.6723
669.7358
668.7384
667.6813
666.5663
665.3953
664.1708
662.8954
661.5722
660.2046
658.7963
657.3513
655.8737
654.3681
652.8395
651.2931
649.7354
648.1736
646.6167
645.0777
667.3925
667.2436
667.3167
667.3828
667.4901
667.621
667.7781
667.9594
668.1643
668.3922
668.6422
668.9136
669.2054
669.5165
669.8455
670.1912
670.5521
670.9264
671.3124
671.7082
672.1118
672.521
672.9337
673.3473
673.7593
674.1673
674.5684
674.9598
675.3387
675.702
676.047
676.3703
676.6691
676.9403
677.1806
677.3872
677.557
677.6871
677.7744
677.8163
677.81
677.7529
677.6427
677.4769
677.2536
676.9708
676.6269
676.2205
675.7503
675.2154
674.6151
673.949
673.2166
672.418
671.5536
670.6245
669.6323
668.58
667.4735
666.3259
669.0595
668.4081
668.1865
667.9
667.6556
667.4245
667.2134
667.0215
666.85
666.6999
666.5723
666.4684
666.3892
666.3356
666.3083
666.3081
666.3356
666.3912
666.4752
666.5879
666.7293
666.8994
667.0977
667.3239
667.5774
667.8573
668.1626
668.4923
668.8449
669.2189
669.6127
670.0244
670.452
670.8934
671.3461
671.8079
672.2761
672.748
673.221
673.692
674.1582
674.6166
675.0642
675.4977
675.9142
676.3106
676.6838
677.0308
677.3485
677.6341
677.8845
678.0969
678.2684
678.396
678.4772
678.5098
678.4918
678.4226
678.3041
678.1455
673.6832
672.9505
672.6436
672.2501
671.8749
671.4907
671.1039
670.7137
670.3221
669.9303
669.5402
669.1536
668.7724
668.3985
668.0339
667.6805
667.3403
667.0151
666.707
666.4178
666.1494
665.9036
665.6819
665.4861
665.3176
665.1777
665.0677
664.9886
664.9415
664.927
664.9458
664.9983
665.0849
665.2055
665.36
665.5483
665.7698
666.024
666.3099
666.6266
666.9729
667.3475
667.7489
668.1754
668.6252
669.0966
669.5874
670.0954
670.6186
671.1545
671.7007
672.2546
672.8134
673.3742
673.9343
674.491
675.0423
675.5865
676.1245
676.6618
677.2049
676.8384
676.7044
676.5144
676.3156
676.0937
675.8501
675.584
675.296
674.9865
674.6564
674.3067
673.9385
673.553
673.1518
672.7363
672.308
671.8688
671.4205
670.9649
670.5042
670.0403
669.5756
669.112
668.652
668.1976
667.7514
667.3154
666.892
666.4834
666.092
665.7198
665.3691
665.0418
664.7401
664.4657
664.2206
664.0063
663.8245
663.6767
663.564
663.4877
663.4488
663.4481
663.4862
663.5638
663.6811
663.8383
664.0355
664.2723
664.5485
664.8633
665.2158
665.6048
666.0292
666.4878
666.9799
667.5055
668.0664
668.6676
676.6997
676.8367
676.9803
677.1242
677.2479
677.3516
677.4316
677.4872
677.5171
677.5207
677.4974
677.447
677.3692
677.2639
677.131
676.9706
676.7829
676.5682
676.3268
676.0592
675.7661
675.4482
675.1064
674.7417
674.355
673.9477
673.5211
673.0765
672.6156
672.1401
671.6517
671.1524
670.6442
670.1293
669.6098
669.0883
668.567
668.0486
667.5355
667.0306
666.5363
666.0555
665.591
665.1454
664.7215
664.3222
663.95
663.6077
663.2977
663.0226
662.7846
662.5859
662.4282
662.3132
662.2424
662.2174
662.2401
662.313
662.4408
662.6311
672.2867
672.735
673.0723
673.4511
673.8156
674.1731
674.518
674.8493
675.1654
675.4653
675.7478
676.0121
676.2573
676.4827
676.6875
676.8709
677.0323
677.1708
677.2858
677.3767
677.4429
677.4837
677.4985
677.4868
677.4481
677.382
677.288
677.1658
677.015
676.8356
676.6274
676.3905
676.1249
675.8309
675.509
675.1597
674.7837
674.3819
673.9554
673.5055
673.0335
672.5413
672.0305
671.5035
670.9623
670.4096
669.8481
669.2806
668.7103
668.1404
667.5743
667.0153
666.4669
665.9327
665.4161
664.9212
664.4523
664.0146
663.6151
663.2652
666.3337
666.7772
667.1443
667.5595
667.9769
668.4001
668.8244
669.2482
669.6701
670.0887
670.5031
670.9124
671.3157
671.7123
672.1015
672.4827
672.8553
673.2185
673.5719
673.9146
674.2462
674.566
674.8732
675.1672
675.4471
675.7122
675.9615
676.1942
676.4093
676.6058
676.7827
676.9389
677.0733
677.1848
677.2722
677.3345
677.3705
677.3791
677.3593
677.3102
677.2308
677.1204
676.9783
676.804
676.5972
676.3576
676.0853
675.7807
675.4441
675.0764
674.6784
674.2515
673.7969
673.3164
672.8119
672.286
671.742
671.1844
670.6195
670.059
661.7406
661.8471
662.0703
662.3143
662.5883
662.8809
663.1907
663.5147
663.8511
664.1983
664.5546
664.9189
665.2898
665.6662
666.0472
666.4318
666.8193
667.2088
667.5996
667.9912
668.383
668.7743
669.1649
669.5542
669.9417
670.3272
670.7101
671.0902
671.467
671.8402
672.2092
672.5735
672.9328
673.2864
673.6336
673.9738
674.3062
674.6299
674.9441
675.2476
675.5394
675.8184
676.0832
676.3326
676.5651
676.7793
676.9738
677.1469
677.2972
677.423
677.5229
677.5951
677.6381
677.6501
677.6297
677.5759
677.4882
677.3671
677.2152
677.0406
661.4109
660.8261
660.711
660.5535
660.463
660.4044
660.3823
660.3927
660.4342
660.505
660.6034
660.728
660.8771
661.0492
661.2429
661.4566
661.6888
661.9381
662.2029
662.482
662.774
663.0774
663.3912
663.714
664.0447
664.3824
664.726
665.0746
665.4275
665.784
666.1436
666.5057
666.8699
667.236
667.6037
667.9729
668.3436
668.7157
669.0893
669.4645
669.8415
670.2203
670.6012
670.9842
671.3695
671.7571
672.1471
672.5394
672.9338
673.33
673.7276
674.1259
674.5239
674.9205
675.3146
675.7049
676.0905
676.4713
676.8488
677.2292
667.8705
666.4043
665.8162
665.0925
664.4601
663.8591
663.3021
662.7855
662.3101
661.8755
661.4818
661.129
660.8169
660.5451
660.3133
660.1208
659.967
659.8508
659.7715
659.7276
659.7181
659.7413
659.7958
659.88
659.9921
660.1302
660.2925
660.4772
660.6822
660.9057
661.1459
661.4007
661.6686
661.9476
662.2364
662.5332
662.8368
663.1459
663.4595
663.7766
664.0966
664.419
664.7433
665.0695
665.3976
665.728
666.061
666.3974
666.738
667.0837
667.4355
667.7947
668.1622
668.5393
668.9272
669.3274
669.7419
670.1734
670.6268
671.1107
681.144
679.0919
678.1453
676.9823
675.8982
674.8199
673.765
672.7308
671.7201
670.735
669.7775
668.8499
667.9544
667.0932
666.2683
665.4817
664.7351
664.0302
663.3685
662.7511
662.1792
661.6535
661.1746
660.7428
660.3582
660.0208
659.7299
659.4852
659.2856
659.13
659.0172
658.9457
658.9137
658.9194
658.9606
659.0354
659.1413
659.2759
659.437
659.6219
659.8281
660.0533
660.2949
660.5506
660.8181
661.0954
661.3805
661.6716
661.9671
662.2657
662.5662
662.8676
663.1692
663.4704
663.7711
664.0718
664.3735
664.6787
664.9924
665.3245
697.1004
695.1538
694.2138
693.045
691.9166
690.7612
689.5937
688.4113
687.2163
686.0105
684.796
683.5754
682.3514
681.1268
679.9046
678.688
677.4801
676.2841
675.1035
673.9413
672.801
671.6857
670.5987
669.5429
668.5214
667.5369
666.5923
665.6899
664.8323
664.0214
663.2592
662.5473
661.8873
661.2803
660.7272
660.2286
659.7847
659.3957
659.0614
658.781
658.5539
658.3789
658.2547
658.1795
658.1516
658.1689
658.229
658.3295
658.4677
658.6409
658.8461
659.0802
659.3399
659.6219
659.9231
660.2405
660.5717
660.9154
661.2725
661.6493
710.1272
708.7595
708.1239
707.3157
706.524
705.6967
704.842
703.9556
703.0371
702.0857
701.1014
700.0841
699.0344
697.9528
696.8404
695.6983
694.528
693.331
692.1094
690.8651
689.6005
688.318
687.0204
685.7105
684.3913
683.0661
681.7381
680.4109
679.088
677.7732
676.4701
675.1826
673.9145
672.6697
671.452
670.2652
669.1131
667.9992
666.9272
665.9004
664.9221
663.9953
663.1229
662.3074
661.5512
660.8564
660.2249
659.6581
659.1572
658.723
658.3559
658.056
657.8228
657.6554
657.5527
657.5136
657.5367
657.6213
657.7678
657.9798
718.288
717.3335
716.9548
716.4636
715.9996
715.5202
715.0299
714.5238
713.9995
713.4547
712.8873
712.2953
711.677
711.0306
710.3545
709.6472
708.9075
708.1339
707.3256
706.4814
705.6006
704.6826
703.7269
702.7334
701.7019
700.6327
699.5262
698.3831
697.2044
695.9912
694.7451
693.4678
692.1613
690.828
689.4705
688.0915
686.6943
685.2821
683.8587
682.4279
680.9936
679.5603
678.1322
676.7141
675.3107
673.9267
672.5672
671.237
669.9412
668.6848
667.4725
666.309
665.1989
664.1464
663.1556
662.2307
661.3761
660.5964
659.897
659.285
724.5042
723.4873
723.1018
722.6134
722.1743
721.7404
721.3179
720.9028
720.494
720.0897
719.6888
719.2897
718.8911
718.4913
718.0889
717.6822
717.2693
716.8484
716.4176
715.9747
715.5177
715.0443
714.5523
714.0394
713.5034
712.9418
712.3525
711.7332
711.0818
710.3961
709.6743
708.9145
708.115
707.2744
706.3913
705.4648
704.4939
703.4783
702.4175
701.3117
700.1612
698.9668
697.7295
696.4508
695.1325
693.7768
692.3863
690.9638
689.5129
688.0371
686.5405
685.0273
683.502
681.9695
680.4347
678.9035
677.382
675.8776
674.3992
672.9588
732.1398
730.9047
730.3887
729.7457
729.1529
728.5629
727.9847
727.4155
726.8561
726.307
725.7686
725.2415
724.7264
724.2236
723.7338
723.2571
722.7938
722.344
721.9074
721.4838
721.0727
720.6735
720.2852
719.9069
719.5374
719.1751
718.8185
718.4657
718.1149
717.7639
717.4105
717.0521
716.6862
716.3102
715.9213
715.5166
715.0932
714.6482
714.1785
713.6813
713.1537
712.5927
711.9958
711.3601
710.6834
709.9634
709.198
708.3855
707.5244
706.6133
705.6515
704.6383
703.5733
702.4564
701.2883
700.0701
698.8039
697.4932
696.1444
694.7694
740.7868
739.6422
739.1411
738.5101
737.9068
737.2885
736.6632
736.0288
735.3865
734.7372
734.0823
733.4232
732.7613
732.0984
731.4361
730.7761
730.1202
729.47
728.8271
728.1933
727.5699
726.9585
726.3605
725.7771
725.2095
724.6588
724.1259
723.6115
723.1164
722.6409
722.1854
721.75
721.3345
720.9386
720.562
720.2037
719.8629
719.5385
719.2289
718.9326
718.6478
718.3723
718.104
717.8404
717.5789
717.3166
717.0506
716.7779
716.4951
716.199
715.8862
715.553
715.1958
714.8109
714.3948
713.9442
713.4565
712.9299
712.3657
711.7713
747.098
746.4289
746.1637
745.8104
745.4594
745.0822
744.6822
744.2574
743.8079
743.3337
742.8355
742.3139
741.7696
741.2038
740.6175
740.0118
739.3882
738.7478
738.0922
737.4229
736.7413
736.0492
735.3481
734.6399
733.9262
733.209
732.4901
731.7714
731.0548
730.3424
729.6361
728.9379
728.2497
727.5736
726.9114
726.2651
725.6363
725.0269
724.4385
723.8727
723.3307
722.814
722.3237
721.8607
721.4257
721.0195
720.6423
720.2943
719.9754
719.6852
719.423
719.1878
718.9781
718.7923
718.6284
718.4844
718.3586
718.2494
718.1574
718.0871
748.4949
748.4237
748.4822
748.5174
748.5405
748.5401
748.5147
748.4625
748.3826
748.2743
748.1373
747.9713
747.7762
747.5521
747.299
747.0171
746.7065
746.3676
746.0005
745.6056
745.1834
744.7341
744.2582
743.7564
743.2292
742.6772
742.1013
741.5024
740.8812
740.239
739.5767
738.8957
738.1974
737.4831
736.7545
736.0132
735.2612
734.5002
733.7324
732.9599
732.185
731.4101
730.6376
729.8701
729.1103
728.3609
727.6248
726.9047
726.2034
725.5238
724.8688
724.2408
723.6424
723.0759
722.5438
722.0483
721.5923
721.1789
720.8127
720.5013
744.9692
745.3704
745.6967
746.0576
746.4029
746.7347
747.0481
747.3414
747.6132
747.8625
748.0885
748.2907
748.4686
748.6218
748.75
748.8529
748.9302
748.9816
749.0069
749.0059
748.9783
748.9239
748.8424
748.7335
748.5971
748.4328
748.2406
748.0201
747.7712
747.4937
747.1875
746.8525
746.4886
746.0957
745.674
745.2235
744.7444
744.2369
743.7014
743.1384
742.5483
741.932
741.2902
740.624
739.9345
739.2231
738.4912
737.7406
736.9731
736.1909
735.3962
734.5913
733.7787
732.9611
732.1412
731.3226
730.5092
729.7058
728.9197
728.162
738.2692
738.8903
739.3564
739.893
740.4218
740.9511
741.4736
741.9878
742.4914
742.9831
743.4616
743.926
744.3753
744.8088
745.2256
745.6252
746.0069
746.3702
746.7145
747.0394
747.3444
747.6291
747.893
748.1358
748.3571
748.5566
748.734
748.8889
749.0211
749.1302
749.2159
749.278
749.3162
749.3301
749.3194
749.2838
749.223
749.1365
749.0241
748.8854
748.7199
748.5274
748.3075
748.0598
747.7841
747.48
747.1474
746.786
746.3958
745.9766
745.5284
745.0512
744.5451
744.01
743.4465
742.8551
742.2372
741.5953
740.934
740.2638
730.9824
731.4741
731.8994
732.3962
732.9073
733.4357
733.9752
734.5235
735.0784
735.6381
736.2011
736.7657
737.3307
737.8946
738.4561
739.014
739.567
740.1139
740.6534
741.1845
741.706
742.2169
742.716
743.2025
743.6755
744.134
744.5774
745.0048
745.4156
745.8094
746.1854
746.5434
746.8829
747.2036
747.5052
747.7876
748.0505
748.2939
748.5176
748.7217
748.9061
749.0708
749.2159
749.3414
749.4474
749.5339
749.601
749.6487
749.6771
749.6862
749.6757
749.6456
749.5954
749.5248
749.4334
749.321
749.1878
749.0349
748.8651
748.686
726.1329
726.1545
726.347
726.5697
726.8331
727.125
727.4438
727.7872
728.154
728.5431
728.9533
729.3838
729.8335
730.3014
730.7863
731.2873
731.803
732.332
732.8732
733.425
733.9859
734.5545
735.1291
735.7083
736.2904
736.8738
737.4569
738.0382
738.616
739.189
739.7556
740.3144
740.8641
741.4034
741.9311
742.4461
742.9474
743.4341
743.9054
744.3606
744.7992
745.2206
745.6247
746.0111
746.3799
746.7311
747.0649
747.3815
747.6815
747.9652
748.2331
748.4859
748.7241
748.948
749.1586
749.3566
749.5435
749.7215
749.8945
750.0701
725.8034
725.2741
725.1642
725.0203
724.9281
724.8587
724.8163
724.7989
724.8071
724.8411
724.9012
724.988
725.1019
725.2432
725.4124
725.6095
725.8347
726.0879
726.3688
726.6773
727.0128
727.3748
727.7625
728.1752
728.6119
729.0715
729.5528
730.0546
730.5754
731.1138
731.6681
732.2368
732.8182
733.4104
734.0117
734.6202
735.2341
735.8514
736.4703
737.089
737.7057
738.3185
738.9259
739.5261
740.1178
740.6995
741.2699
741.828
742.3726
742.903
743.4184
743.9181
744.4015
744.8682
745.318
745.7513
746.1689
746.5728
746.9672
747.361
729.2682
728.4809
728.2051
727.8513
727.5369
727.2257
726.9244
726.6313
726.3476
726.0743
725.8128
725.5646
725.3313
725.1143
724.9152
724.7356
724.5769
724.4406
724.3279
724.2402
724.1787
724.1444
724.1384
724.1616
724.2147
724.2986
724.4136
724.5602
724.7388
724.9494
725.1922
725.467
725.7734
726.1112
726.4798
726.8785
727.3063
727.7624
728.2456
728.7547
729.2884
729.845
730.4232
731.0211
731.6372
732.2695
732.9163
733.5755
734.2454
734.9238
735.6088
736.2983
736.9902
737.6822
738.3724
739.0592
739.7415
740.4191
741.0946
741.7758
733.1888
732.584
732.3815
732.1063
731.8472
731.5741
731.2912
730.9966
730.6911
730.3751
730.0497
729.716
729.3753
729.029
728.6786
728.3256
727.9716
727.6182
727.2672
726.9202
726.579
726.2453
725.9209
725.6077
725.3075
725.0219
724.7529
724.5021
724.2714
724.0624
723.8769
723.7164
723.5825
723.4768
723.4005
723.355
723.3416
723.3615
723.4155
723.5046
723.6295
723.791
723.9896
724.2256
724.4992
724.8107
725.1599
725.5467
725.9707
726.4314
726.9281
727.4598
728.0254
728.6235
729.2528
729.9119
730.5998
731.3163
732.063
732.8465
734.1896
734.0289
734.0572
734.0577
734.0565
734.0376
734.0004
733.9432
733.8653
733.7664
733.6466
733.5059
733.3446
733.1632
732.962
732.7416
732.5027
732.2459
731.972
731.6819
731.3764
731.0566
730.7234
730.3782
730.022
729.6562
729.2822
728.9015
728.5156
728.1261
727.7347
727.3432
726.9534
726.5672
726.1866
725.8135
725.4499
725.0981
724.7599
724.4377
724.1335
723.8496
723.588
723.351
723.1408
722.9594
722.8089
722.6915
722.6091
722.5636
722.5567
722.5902
722.6653
722.7834
722.9457
723.1536
723.4085
723.7126
724.0694
724.4855
731.0575
731.3293
731.5928
731.8825
732.163
732.433
732.6877
732.9258
733.146
733.3474
733.5294
733.6915
733.8334
733.9546
734.0549
734.1339
734.1914
734.2272
734.241
734.2328
734.2023
734.1495
734.0743
733.9768
733.857
733.7151
733.5512
733.3656
733.1586
732.9307
732.6824
732.4142
732.1269
731.8212
731.498
731.1583
730.8033
730.434
730.0518
729.6581
729.2545
728.8427
728.4244
728.0016
727.5763
727.1505
726.7267
726.3071
725.8943
725.4907
725.0989
724.7215
724.3611
724.0202
723.7016
723.4083
723.1436
722.9118
722.7182
722.5711
724.642
725.1934
725.6107
726.0943
726.5679
727.0405
727.5044
727.9592
728.4032
728.8358
729.2562
729.6639
730.0584
730.4392
730.806
731.1582
731.4953
731.817
732.1227
732.4119
732.6842
732.9391
733.1759
733.3944
733.5938
733.7737
733.9337
734.0732
734.1917
734.2888
734.3641
734.4172
734.4476
734.4551
734.4394
734.4003
734.3375
734.251
734.1408
734.0069
733.8494
733.6686
733.4649
733.2387
732.9906
732.7213
732.4317
732.1228
731.7957
731.4516
731.092
730.7182
730.3317
729.9342
729.5275
729.1139
728.6961
728.2779
727.8649
727.4661
716.4895
717.1553
717.6392
718.2093
718.7732
719.3431
719.9109
720.476
721.037
721.5931
722.1436
722.6882
723.2264
723.7578
724.2821
724.7988
725.3077
725.8085
726.3007
726.784
727.258
727.7224
728.1767
728.6206
729.0535
729.4752
729.8849
730.2824
730.6672
731.0386
731.3961
731.7393
732.0676
732.3804
732.6771
732.9572
733.22
733.465
733.6915
733.8991
734.0871
734.2551
734.4025
734.5289
734.6339
734.7171
734.7783
734.8172
734.8337
734.8277
734.7991
734.748
734.6741
734.5777
734.4589
734.3184
734.1574
733.9779
733.7841
733.5846
708.0531
708.6692
709.1404
709.6966
710.2569
710.8296
711.4075
711.9895
712.574
713.1602
713.7473
714.3347
714.9218
715.5081
716.0933
716.6768
717.2582
717.8373
718.4135
718.9866
719.5562
720.122
720.6836
721.2407
721.7931
722.3404
722.8823
723.4186
723.9488
724.4728
724.9901
725.5006
726.0038
726.4995
726.9874
727.467
727.938
728.4001
728.8528
729.2959
729.7288
730.1512
730.5626
730.9628
731.3512
731.7275
732.0913
732.4422
732.7798
733.1038
733.4136
733.7088
733.9889
734.2533
734.5015
734.7334
734.9494
735.1505
735.3401
735.5263
700.783
701.1619
701.529
701.9572
702.4075
702.8765
703.3602
703.8565
704.3639
704.8814
705.408
705.9431
706.4857
707.0354
707.5913
708.153
708.7196
709.2908
709.8658
710.444
711.0251
711.6083
712.1932
712.7793
713.3661
713.9531
714.54
715.1263
715.7116
716.2955
716.8778
717.4581
718.0361
718.6115
719.1842
719.7537
720.32
720.8827
721.4419
721.9971
722.5485
723.0957
723.6387
724.1774
724.7117
725.2417
725.7672
726.2882
726.8047
727.3167
727.8241
728.3268
728.8244
729.3168
729.8038
730.2854
730.7621
731.2354
731.7088
732.191
696.2092
696.1758
696.3437
696.5284
696.7553
697.0055
697.279
697.573
697.8866
698.2188
698.5689
698.9361
699.32
699.7198
700.135
700.5648
701.0088
701.4662
701.9364
702.4186
702.9123
703.4167
703.9311
704.4549
704.9874
705.5278
706.0755
706.6299
707.1902
707.756
708.3265
708.9012
709.4795
710.0609
710.6449
711.231
711.8188
712.4078
712.9978
713.5883
714.1791
714.77
715.3607
715.9512
716.5414
717.1312
717.7207
718.3099
718.899
719.4881
720.0774
720.6669
721.2567
721.8468
722.4374
723.0289
723.6223
724.2194
724.8243
725.4465
695.4685
694.9483
694.8633
694.7404
694.6742
694.6304
694.613
694.619
694.648
694.6997
694.7739
694.8702
694.9887
695.129
695.2911
695.4746
695.6794
695.9052
696.1515
696.4181
696.7044
697.0101
697.3347
697.6776
698.0383
698.4162
698.8106
699.2211
699.6468
700.0872
700.5415
701.0091
701.4893
701.9814
702.4847
702.9985
703.5221
704.0548
704.5961
705.1453
705.7018
706.2651
706.8347
707.41
707.9908
708.5767
709.1673
709.7625
710.3621
710.966
711.574
712.1861
712.802
713.4218
714.0453
714.6731
715.3058
715.9452
716.5951
717.2648
698.6387
697.7135
697.401
697.0032
696.6651
696.3421
696.0409
695.7585
695.4951
695.251
695.0264
694.8216
694.637
694.4732
694.3304
694.2091
694.1095
694.032
693.9769
693.9442
693.9343
693.9471
693.9829
694.0415
694.123
694.2273
694.3543
694.5038
694.6756
694.8695
695.0851
695.3221
695.5802
695.8589
696.1578
696.4764
696.8141
697.1705
697.5451
697.9372
698.3462
698.7717
699.213
699.6696
700.141
700.6266
701.1259
701.6386
702.1641
702.7021
703.2522
703.8139
704.3866
704.97
705.5637
706.1676
706.7822
707.4086
708.0499
708.7131
704.5636
703.4361
702.9933
702.439
701.9373
701.4404
700.9555
700.4795
700.0132
699.5566
699.1103
698.6751
698.2516
697.8405
697.4427
697.0588
696.6896
696.3358
695.9983
695.6776
695.3745
695.0896
694.8236
694.577
694.3504
694.1444
693.9594
693.796
693.6545
693.5353
693.4388
693.3653
693.315
693.2881
693.2849
693.3053
693.3496
693.4178
693.5098
693.6256
693.7652
693.9284
694.1152
694.3253
694.5587
694.8151
695.0944
695.3963
695.7207
696.0674
696.4359
696.826
697.2373
697.6692
698.1214
698.5937
699.0865
699.6007
700.1386
700.7055
711.4166
710.3048
709.8498
709.2818
708.7554
708.2252
707.6973
707.1687
706.6397
706.1104
705.581
705.0522
704.5245
703.9986
703.4751
702.9548
702.4385
701.9268
701.4206
700.9207
700.428
699.9432
699.4671
699.0007
698.5446
698.0999
697.6673
697.2476
696.8417
696.4503
696.0744
695.7147
695.3719
695.0469
694.7403
694.4529
694.1853
693.9383
693.7124
693.5084
693.3267
693.168
693.0329
692.9218
692.8353
692.7739
692.738
692.7282
692.7449
692.7885
692.8592
692.9574
693.0831
693.2365
693.4176
693.6268
693.8648
694.1332
694.4346
694.7741
717.6094
716.6479
716.2632
715.7806
715.3312
714.8744
714.4148
713.9493
713.4775
712.9991
712.5142
712.0228
711.5251
711.0214
710.512
709.9972
709.4776
708.9534
708.4253
707.8936
707.359
706.822
706.2833
705.7434
705.203
704.6628
704.1236
703.586
703.0509
702.519
701.9912
701.4683
700.9512
700.4407
699.9377
699.4432
698.958
698.483
698.0193
697.5678
697.1294
696.7051
696.296
695.903
695.5272
695.1695
694.8311
694.513
694.2162
693.9419
693.6909
693.4642
693.2626
693.0868
692.9377
692.8165
692.7246
692.6642
692.6394
692.657
722.4071
721.6162
721.3246
720.9538
720.6133
720.2667
719.9175
719.5621
719.2001
718.8307
718.4536
718.0684
717.6751
717.2734
716.8634
716.4449
716.0179
715.5825
715.1387
714.6866
714.2263
713.7579
713.2817
712.7978
712.3064
711.8078
711.3024
710.7905
710.2725
709.7488
709.2198
708.6861
708.1482
707.6066
707.062
706.515
705.9663
705.4167
704.8668
704.3175
703.7697
703.2242
702.682
702.144
701.6114
701.0853
700.5667
700.0568
699.5569
699.0683
698.5921
698.1296
697.6819
697.2501
696.8355
696.4397
696.0645
695.7129
695.3899
695.1045
725.9139
725.2409
725.0211
724.7351
724.4806
724.2235
723.9666
723.7065
723.4425
723.1737
722.8997
722.6201
722.3344
722.0425
721.7439
721.4384
721.1259
720.8059
720.4784
720.143
719.7996
719.448
719.088
718.7194
718.3422
717.9562
717.5614
717.1576
716.7449
716.3233
715.8927
715.4532