/*--------------------------------*- C++ -*----------------------------------*\
| =========                 |                                                 |
| \\      /  F ield         | OpenFOAM: The Open Source CFD Toolbox           |
|  \\    /   O peration     | Version:  2312                                  |
|   \\  /    A nd           | Website:  www.openfoam.com                      |
|    \\/     M anipulation  |                                                 |
\*---------------------------------------------------------------------------*/
FoamFile
{
    version     2.0;
    format      ascii;
    arch        "LSB;label=32;scalar=64";
    class       volScalarField;
    location    "4050";
    object      k;
}
// * * * * * * * * * * * * * * * * * * * * * * * * * * * * * * * * * * * * * //

dimensions      [0 2 -2 0 0 0 0];

internalField   nonuniform List<scalar> 
12000
(
0.002265633
0.004776631
0.00567158
0.006640315
0.00745653
0.008219367
0.008856914
0.009417244
0.009931387
0.0104364
0.01089967
0.01127705
0.01162085
0.01195003
0.01227825
0.0125582
0.01278688
0.01299894
0.01320256
0.01339064
0.01354248
0.01367351
0.0137864
0.0138729
0.01394128
0.01399479
0.01403124
0.01404015
0.01404224
0.01402723
0.01400824
0.01396801
0.01392059
0.01384943
0.01370614
0.01356314
0.0134844
0.0134042
0.01323923
0.01293226
0.01247251
0.01224391
0.01220699
0.01206936
0.01155594
0.01075065
0.01042488
0.01035302
0.01029122
0.009402147
0.008489008
0.008184023
0.00802077
0.007281098
0.006449705
0.005769345
0.005114355
0.004431302
0.003768385
0.003562765
0.002408686
0.005935011
0.006881711
0.007752859
0.008565162
0.009758274
0.01128702
0.01272518
0.01353509
0.01436618
0.01599671
0.01760591
0.01859864
0.01899353
0.01997161
0.02133914
0.02245478
0.0230236
0.02356632
0.02444152
0.02527355
0.02594258
0.02660359
0.0272604
0.02778056
0.02826514
0.02882823
0.02933628
0.02969709
0.03000724
0.03034486
0.03066001
0.03100008
0.03128878
0.03148003
0.03164304
0.03180777
0.0319398
0.03206157
0.03208872
0.03198523
0.0319651
0.031698
0.03123477
0.03098067
0.03063017
0.0303148
0.02909195
0.02776629
0.0268246
0.02595108
0.02469159
0.02228218
0.02024017
0.01878906
0.01617135
0.01280343
0.009456022
0.006802275
0.006562649
0.003546766
0.007427369
0.009147474
0.01086152
0.01272751
0.01469099
0.01687895
0.01888971
0.02059995
0.0219088
0.02325057
0.0246777
0.02579059
0.02669719
0.02756784
0.02847863
0.02932715
0.03001933
0.0306104
0.03118706
0.03175924
0.03229985
0.03280761
0.03329673
0.03376137
0.03419786
0.03462609
0.03505727
0.03547359
0.03585926
0.03622983
0.03656995
0.03694273
0.03734559
0.0377127
0.03804265
0.0383377
0.03862689
0.03894531
0.03928853
0.03957226
0.03971951
0.03977831
0.03984044
0.03994565
0.03995141
0.03974243
0.03933549
0.03877608
0.03809264
0.03713707
0.0359571
0.0344146
0.03239534
0.02951527
0.02602515
0.02191488
0.01626481
0.009623702
0.00881932
0.00434029
0.007842887
0.01015193
0.01256114
0.01516909
0.01772384
0.02016332
0.02230271
0.02408621
0.025786
0.02722761
0.02841971
0.02937043
0.03012985
0.03083925
0.03149379
0.03209486
0.03260506
0.03305396
0.03348455
0.03390775
0.03432003
0.03472345
0.0351215
0.03551481
0.03590431
0.03629384
0.03668487
0.03707442
0.03745933
0.03780414
0.03815683
0.03855136
0.03894276
0.03932462
0.0396962
0.04005388
0.04039763
0.04073515
0.0410569
0.04134938
0.04159826
0.0417883
0.04191283
0.04200052
0.04201096
0.04191377
0.04166358
0.04124344
0.04061959
0.03983764
0.03869026
0.03689743
0.03461577
0.03193948
0.02877306
0.02469218
0.01943453
0.0126943
0.01053544
0.005143746
0.008322869
0.01117183
0.01412341
0.01714907
0.0199401
0.0223967
0.02442207
0.0260746
0.02749191
0.0287423
0.02982151
0.03067993
0.03125423
0.03172001
0.03212381
0.03250713
0.03286415
0.03320063
0.0335448
0.03390236
0.03426848
0.03462819
0.03498183
0.03534051
0.03570816
0.03608694
0.03647823
0.03688218
0.0372674
0.03765578
0.03808196
0.03852217
0.03897161
0.03942387
0.03988607
0.04035941
0.04083825
0.04131368
0.04178375
0.04224266
0.04268481
0.04309296
0.04344561
0.04373907
0.04395414
0.04405324
0.0440405
0.0439071
0.04359753
0.04283656
0.04155299
0.03992944
0.03798158
0.03552103
0.03228815
0.02799222
0.02222728
0.01456196
0.01174592
0.005858637
0.0086078
0.01179262
0.01501009
0.01816248
0.02097378
0.02336429
0.02531425
0.02687926
0.02812867
0.02912003
0.02991486
0.03063803
0.03122181
0.03165314
0.03196237
0.03221704
0.03245568
0.03269514
0.0329379
0.03318499
0.03344018
0.03372221
0.0340385
0.03438322
0.03475427
0.03515047
0.03557061
0.03601302
0.03647547
0.0369607
0.03746978
0.03800535
0.03856979
0.03914063
0.03972547
0.04033638
0.04096201
0.04159466
0.04222818
0.04285516
0.0434662
0.04405021
0.04459001
0.04504219
0.04540069
0.04563197
0.04573137
0.04565809
0.04521306
0.04440345
0.04324523
0.0417138
0.03970006
0.03706907
0.03368569
0.02935434
0.02370853
0.0161688
0.01270575
0.006485653
0.008848336
0.01224234
0.01556539
0.01870776
0.02143417
0.02369018
0.02551076
0.02696285
0.0281203
0.02903597
0.02971511
0.03020779
0.03062082
0.03095813
0.03121469
0.03139296
0.03155266
0.03171699
0.03190058
0.03211144
0.03235595
0.0326394
0.03296428
0.03333056
0.03373755
0.03418439
0.03467018
0.03519377
0.03575411
0.03635153
0.03697598
0.03763133
0.03832434
0.0390475
0.03979478
0.04056651
0.04135877
0.04216508
0.04297746
0.04378566
0.04457655
0.04533337
0.04603456
0.0466557
0.04716179
0.04755445
0.04773853
0.04766566
0.04729124
0.04658142
0.04548212
0.04392863
0.04184919
0.0391531
0.03570042
0.03125211
0.02537312
0.01739758
0.0134039
0.007070982
0.009022334
0.01249292
0.0157909
0.01882781
0.02145339
0.02366867
0.02544412
0.02683103
0.02788288
0.02865606
0.02922939
0.02964053
0.02993196
0.03015714
0.03036535
0.0305434
0.03069105
0.03084494
0.03102343
0.03123881
0.03149861
0.03180753
0.03216796
0.03258068
0.03304543
0.03356144
0.03412764
0.03474269
0.03540519
0.03611324
0.03686379
0.03765629
0.03848942
0.03935969
0.04026303
0.04119499
0.04214991
0.04312032
0.0440966
0.04506651
0.04601453
0.0469213
0.04776306
0.04850782
0.04914289
0.04961106
0.04980458
0.04973556
0.04933457
0.04855204
0.04733785
0.04563818
0.0433881
0.04050085
0.03684928
0.03222391
0.02623686
0.01826675
0.01392846
0.007792569
0.009195049
0.01264119
0.01585405
0.01881323
0.02136285
0.02344446
0.02511521
0.02641946
0.02741077
0.02814683
0.02868462
0.02907094
0.02934743
0.02955004
0.02972407
0.0299064
0.03009299
0.03028192
0.03049536
0.03074746
0.03104815
0.03140403
0.03181843
0.03229235
0.03282552
0.03341692
0.03406492
0.03476747
0.03552574
0.03633954
0.03720918
0.03813013
0.03909403
0.04009809
0.04113816
0.04220887
0.04330331
0.04441262
0.04552551
0.0466278
0.0477017
0.04872623
0.04967251
0.05052073
0.05122042
0.05170382
0.05190896
0.05182231
0.05137248
0.05050868
0.04918321
0.04734939
0.04495357
0.04192188
0.03813636
0.03338605
0.02725975
0.01907034
0.01432504
0.007995743
0.009286826
0.01270145
0.01582316
0.01864005
0.02107396
0.02309095
0.02471684
0.02599465
0.0269763
0.02771652
0.02826711
0.02867409
0.02897819
0.02921408
0.02941261
0.02960993
0.02983408
0.03008562
0.0303619
0.03067354
0.03102809
0.03143029
0.03189467
0.03242695
0.03302691
0.03369384
0.03442638
0.03522299
0.03607874
0.03698954
0.03795976
0.03898577
0.04005653
0.04116865
0.04231747
0.04349688
0.04469905
0.04591399
0.04712914
0.04832878
0.04949364
0.0505998
0.05162275
0.05251916
0.05323977
0.05372786
0.05392137
0.05378304
0.05324182
0.05224694
0.05075905
0.04874446
0.04616135
0.04294369
0.03897856
0.03406075
0.02779467
0.01953635
0.014584
0.008165578
0.009348189
0.01272531
0.01574717
0.01844976
0.02078131
0.02272246
0.0243013
0.02556322
0.02655891
0.02733476
0.02793614
0.0284046
0.02877715
0.02908597
0.02935869
0.02961158
0.02986464
0.03015357
0.03048537
0.03086179
0.03129193
0.03178481
0.03233773
0.0329519
0.03363049
0.03437394
0.03518134
0.03605099
0.03698049
0.03796711
0.03901404
0.04011757
0.04126677
0.04245736
0.04368395
0.04493978
0.0462163
0.04750273
0.04878555
0.05004784
0.05126866
0.05242212
0.05347714
0.05439087
0.05511209
0.05559029
0.05575327
0.05554326
0.05489328
0.05375762
0.05211039
0.04993322
0.04719704
0.04384315
0.03976028
0.0347413
0.02838235
0.02001151
0.01478594
0.00909698
0.009417563
0.01271229
0.0156155
0.01819182
0.02042877
0.02232238
0.0238903
0.02516684
0.0261952
0.02701998
0.02768319
0.02822521
0.02868061
0.02907828
0.02942817
0.0297705
0.03012842
0.03050749
0.03092289
0.03138491
0.03189884
0.03246878
0.03309574
0.03378144
0.03452743
0.03533459
0.03620263
0.03713048
0.03811643
0.03915833
0.04025783
0.04141167
0.04261085
0.04385033
0.04512415
0.046425
0.04774374
0.04906902
0.05038667
0.05167899
0.05292376
0.05409336
0.05515121
0.05605767
0.05676265
0.05720735
0.0573192
0.05702225
0.0562425
0.05495592
0.05316271
0.0508495
0.0479854
0.04451012
0.04030957
0.0351755
0.02870771
0.02025534
0.01489323
0.009191408
0.009443188
0.01266972
0.01545812
0.01792484
0.02008555
0.02193741
0.0234958
0.02479447
0.0258685
0.02675923
0.02750496
0.02813652
0.02868393
0.02917485
0.02964518
0.03010126
0.0305617
0.03104213
0.03155561
0.03211151
0.03271262
0.03335932
0.03405608
0.03480738
0.03561217
0.03647136
0.03738603
0.03835614
0.0393808
0.04045829
0.04158852
0.04276899
0.04399345
0.04525632
0.04655095
0.04786952
0.04920243
0.05053787
0.05186133
0.05315489
0.05439613
0.05555679
0.05660146
0.05748497
0.05815814
0.05856082
0.05861205
0.05822505
0.05733299
0.05591379
0.0539947
0.0515736
0.04861018
0.04504158
0.04075493
0.03554335
0.02900685
0.02049023
0.01497434
0.009354882
0.009439952
0.01261949
0.01532925
0.01771268
0.01980713
0.02162586
0.02318669
0.0245131
0.02563626
0.02658682
0.02739665
0.02809862
0.02873
0.02931846
0.02988538
0.03044677
0.03101544
0.0316002
0.03220988
0.0328532
0.033537
0.03426417
0.03503482
0.03584693
0.03670126
0.03760398
0.03855882
0.03956365
0.04061774
0.04172016
0.04286967
0.04406469
0.04530122
0.04657303
0.04787323
0.04919355
0.05052402
0.05185236
0.05316354
0.05443908
0.05565631
0.05678797
0.05780326
0.05866808
0.05932875
0.05970111
0.05970155
0.05924208
0.05825281
0.05671301
0.05466568
0.05213879
0.04908955
0.04544091
0.0410786
0.03579547
0.02919255
0.02061899
0.01500977
0.009541675
0.009436531
0.0125697
0.01521283
0.01752212
0.0195629
0.02135641
0.02291851
0.02426791
0.02542801
0.02642402
0.0272856
0.02805435
0.02876918
0.02945164
0.03011658
0.03077368
0.03143364
0.03210785
0.03280561
0.03353146
0.03428934
0.035083
0.03591509
0.03678704
0.03769944
0.03865157
0.03964163
0.04067283
0.04174971
0.04287001
0.04403116
0.04523359
0.04647449
0.04774616
0.04904176
0.05035291
0.05166969
0.0529797
0.0542676
0.05551474
0.05670493
0.0578202
0.05882593
0.05967654
0.06031275
0.06065801
0.0606186
0.06009635
0.05902163
0.05737936
0.05521432
0.05258609
0.04945813
0.04573902
0.04131439
0.03597616
0.02932326
0.020702
0.01501435
0.009714522
0.009447469
0.01252454
0.0151062
0.01734975
0.01933993
0.02110427
0.02265833
0.02401854
0.02520534
0.02624339
0.02716227
0.02800043
0.0287955
0.02956345
0.030312
0.03105244
0.03179721
0.03255518
0.03333115
0.03412988
0.03495462
0.03580833
0.03669396
0.03761373
0.03856946
0.03956243
0.04059327
0.04166204
0.04276675
0.04390319
0.0450674
0.04626485
0.04749812
0.04875834
0.05003828
0.05133064
0.05262739
0.05391784
0.05518909
0.05642565
0.05760869
0.05871307
0.05970453
0.06053616
0.06114503
0.06145166
0.0613647
0.0607895
0.0596479
0.05791403
0.0556431
0.05292689
0.04973032
0.04595304
0.04147935
0.03609991
0.02941239
0.02075678
0.01501473
0.009852642
0.009466511
0.01249128
0.01501738
0.0172036
0.01914727
0.02088134
0.02242288
0.02378778
0.02499518
0.02606839
0.02703469
0.02792987
0.02878965
0.02962795
0.03045444
0.03127634
0.03209893
0.0329289
0.03377187
0.03463264
0.03551541
0.03642292
0.03735733
0.03832084
0.03931526
0.04034185
0.04140149
0.04249447
0.04361956
0.04477205
0.04594049
0.04712383
0.0483388
0.0495909
0.05086666
0.05215253
0.05343945
0.05471837
0.05597803
0.05720388
0.05837669
0.05947002
0.06044722
0.06125892
0.06184077
0.06211239
0.06198127
0.06135067
0.06014718
0.05834832
0.05600431
0.05320839
0.04994859
0.04612758
0.04161594
0.03620283
0.02948529
0.02079301
0.01499524
0.009959666
0.009487649
0.0124648
0.01494449
0.01707858
0.01897615
0.02067718
0.02220149
0.02356576
0.02478863
0.02589191
0.02690008
0.02784507
0.02875999
0.02965934
0.03055094
0.03143891
0.032328
0.03322166
0.03412451
0.03504064
0.03597379
0.03692699
0.03790284
0.03890378
0.03993176
0.04098805
0.0420732
0.04318665
0.04432617
0.0454872
0.04666269
0.04784575
0.04904794
0.05028656
0.05155403
0.05283288
0.05411211
0.05538248
0.05663328
0.0578502
0.05901348
0.06009562
0.06105873
0.06185191
0.06240922
0.06264945
0.06248075
0.06180497
0.0605467
0.05868155
0.05626479
0.05339971
0.05008796
0.04622836
0.04168265
0.03623977
0.02949942
0.02079362
0.01495821
0.01004184
0.009529808
0.01246689
0.01489198
0.01697213
0.01882222
0.02048734
0.02199035
0.02334934
0.02458296
0.02571171
0.0267574
0.0277454
0.02870426
0.02965278
0.03059649
0.03153934
0.03248342
0.03343144
0.03438611
0.03535034
0.03632721
0.03732027
0.03833284
0.03936737
0.04042562
0.04150862
0.04261663
0.0437488
0.04490269
0.04607346
0.04725389
0.04843567
0.04963031
0.05085887
0.05211729
0.05338873
0.05466135
0.05592523
0.0571696
0.05838021
0.05953689
0.06061107
0.06156327
0.06234081
0.06287628
0.06308755
0.06288319
0.0621649
0.06085958
0.0589442
0.05647433
0.05355609
0.05020283
0.04631332
0.041743
0.03627842
0.02951309
0.02079608
0.01493167
0.01011366
0.009590105
0.01248586
0.01485664
0.01688189
0.01868278
0.02030932
0.02178791
0.0231382
0.02437877
0.02552869
0.02660699
0.02763147
0.02862491
0.02961037
0.03059446
0.03158125
0.03257077
0.03356374
0.03456171
0.03556708
0.03658279
0.03761219
0.03865831
0.03972358
0.04080973
0.04191765
0.04304729
0.04419749
0.04536568
0.04654723
0.04773504
0.04891969
0.05011118
0.05133218
0.05258304
0.05384926
0.05511858
0.05638019
0.05762273
0.05883151
0.05998569
0.06105558
0.06200021
0.06276528
0.06328202
0.06346756
0.06323094
0.06247351
0.06112331
0.05915849
0.05663739
0.0536711
0.05027979
0.04636093
0.04176688
0.03628278
0.02950894
0.02077618
0.01488061
0.01017097
0.00967567
0.01253097
0.0148405
0.01680667
0.01855534
0.02014078
0.02159202
0.02292986
0.02417269
0.02533816
0.02644313
0.02750263
0.02852965
0.02954235
0.03055803
0.03157649
0.03259887
0.0336276
0.03466179
0.03570288
0.03675307
0.03781501
0.03889158
0.03998538
0.04109805
0.04223026
0.04338163
0.04455075
0.04573499
0.04693002
0.04812899
0.04932142
0.05051472
0.05173236
0.05297943
0.05424399
0.05551331
0.05677583
0.05801954
0.0592291
0.06038284
0.06144985
0.0623877
0.06314056
0.06363847
0.06379804
0.06352902
0.06273333
0.06134122
0.05933283
0.05676831
0.05376144
0.05033905
0.04639708
0.04178154
0.03628412
0.02949999
0.02076103
0.01485038
0.01023608
0.009797671
0.01260264
0.01484289
0.0167451
0.01843873
0.01998051
0.02140115
0.02272214
0.02396152
0.02513572
0.02625985
0.02734725
0.02840867
0.02945226
0.03048927
0.03153159
0.03258138
0.0336361
0.0346997
0.035771
0.03685119
0.03794256
0.03904772
0.04016889
0.04130757
0.04246427
0.04363841
0.04482818
0.04603048
0.04724079
0.0484534
0.04966266
0.05086675
0.05208191
0.05332638
0.05459328
0.05586582
0.05713164
0.05837837
0.05959009
0.06074419
0.06180859
0.06273947
0.06347968
0.06395831
0.06409166
0.06379025
0.06295674
0.06152355
0.05947321
0.0568686
0.05382645
0.05037683
0.04641443
0.0417831
0.03627135
0.02947402
0.02072654
0.01479725
0.01030509
0.009943629
0.01269926
0.01486556
0.01669951
0.01833446
0.01982892
0.02121477
0.02251379
0.02374357
0.02491947
0.02605508
0.02716209
0.02825008
0.02932612
0.03039519
0.0314604
0.03252842
0.03360717
0.03469394
0.03578967
0.03689628
0.03801437
0.039146
0.04029316
0.04145725
0.04263864
0.04383651
0.04504877
0.04627203
0.04750159
0.04873177
0.04995723
0.05117448
0.05239709
0.05364466
0.05491403
0.05619006
0.05745994
0.05871037
0.05992454
0.06107883
0.06214
0.06306298
0.06378952
0.06424793
0.06435443
0.06402043
0.06314979
0.06167742
0.05958849
0.05694831
0.05387564
0.05040289
0.0464234
0.04178044
0.03625877
0.02945554
0.02070598
0.01476857
0.01035313
0.01012712
0.01282678
0.0149099
0.01666914
0.01824114
0.01968466
0.02103181
0.02230426
0.02351888
0.0246899
0.02582948
0.02694781
0.02805314
0.02915169
0.03024784
0.03134447
0.03244378
0.03354727
0.03465575
0.03577338
0.03690373
0.03804796
0.03920581
0.04037855
0.04156756
0.04277344
0.0439954
0.04523113
0.04647693
0.04772802
0.0489788
0.05022326
0.05145591
0.05268871
0.05394217
0.05521583
0.0564961
0.05777011
0.05902395
0.06023994
0.06139352
0.06245035
0.06336421
0.06407585
0.06451305
0.06459207
0.06422524
0.06331791
0.06180746
0.05968195
0.05700949
0.05391064
0.05041816
0.04642331
0.04176742
0.03623497
0.02942298
0.02066816
0.0147205
0.01043605
0.01033712
0.01298053
0.01497759
0.01665867
0.0181626
0.01955083
0.02085512
0.02209648
0.02329088
0.02445132
0.02558866
0.02671179
0.02782778
0.02894196
0.0300581
0.03117881
0.03230581
0.03344014
0.0345825
0.03573372
0.03689431
0.03806395
0.03924545
0.04044276
0.04165664
0.04288692
0.04413276
0.04539196
0.04666074
0.04793404
0.04920594
0.05047012
0.05172028
0.05296605
0.05422713
0.05550551
0.05678973
0.05806715
0.05932341
0.06054007
0.06169164
0.06274272
0.06364605
0.06434156
0.0647566
0.06480767
0.06440803
0.06346488
0.06191812
0.05975879
0.05705761
0.05393638
0.05042762
0.04642118
0.04175623
0.03621764
0.02940219
0.02064753
0.01469678
0.01039898
0.01056585
0.01316256
0.01506553
0.01666147
0.0180953
0.01942558
0.02068404
0.02189098
0.0230614
0.02420722
0.02533815
0.02646205
0.02758504
0.0287117
0.02984518
0.03098759
0.03214017
0.03330355
0.03447793
0.03566323
0.03685903
0.03806473
0.03928045
0.04050518
0.04174124
0.04299307
0.0442609
0.04554218
0.04683284
0.04812761
0.04942053
0.05070524
0.05197451
0.0532334
0.05450091
0.0557842
0.05707299
0.05835339
0.05961089
0.06082679
0.06197487
0.06301879
0.06391031
0.06458863
0.06498084
0.06500378
0.06457167
0.06359381
0.06201252
0.0598218
0.05709485
0.05395434
0.05043132
0.04641372
0.04173967
0.0361934
0.02937147
0.02061268
0.01465632
0.0107969
0.01084619
0.01337057
0.01518013
0.01668561
0.01804376
0.01931238
0.02052188
0.02169146
0.02283503
0.02396347
0.02508552
0.0262081
0.02733652
0.02847459
0.02962478
0.03078857
0.03196658
0.03315877
0.03436461
0.03558349
0.03681432
0.03805593
0.03930662
0.0405654
0.04183109
0.04310462
0.04439035
0.04569025
0.04700035
0.04831453
0.049626
0.05092848
0.05221775
0.05349383
0.05476881
0.05605494
0.05734636
0.05862852
0.05988633
0.06110044
0.0622439
0.06327949
0.06415816
0.06481853
0.0651876
0.06518271
0.06471865
0.06370762
0.062094
0.05987463
0.05712509
0.05396852
0.05043412
0.04640823
0.04172825
0.03617807
0.02935406
0.0205956
0.01463842
0.01117066
0.01115277
0.01359107
0.01531433
0.01672608
0.01800642
0.01921126
0.02036975
0.02150007
0.02261515
0.02372493
0.02483721
0.02595802
0.02709178
0.02824145
0.02940873
0.03059435
0.0317982
0.03301952
0.0342571
0.0355092
0.03677389
0.03804917
0.03933327
0.04062482
0.04192206
0.04322337
0.04452885
0.04584301
0.0471682
0.04849883
0.04982728
0.05114659
0.05245216
0.05374266
0.05502753
0.05631847
0.05761162
0.05889395
0.0601505
0.06136143
0.06249901
0.06352518
0.06439016
0.06503216
0.06537821
0.06534639
0.0648507
0.06380842
0.0621647
0.05991917
0.0571496
0.05397951
0.05043522
0.04640127
0.04171482
0.03615921
0.02933011
0.0205683
0.01460725
0.01137877
0.01146893
0.01383021
0.01546824
0.01678248
0.01798304
0.01912282
0.02022943
0.02132009
0.02240677
0.02349845
0.02460192
0.02572219
0.02686269
0.02802539
0.02921102
0.0304194
0.03164954
0.03289983
0.03416828
0.03545221
0.03674913
0.03805645
0.03937267
0.04069493
0.04202122
0.04334963
0.04467843
0.04600863
0.04734473
0.04868698
0.0500286
0.05136207
0.05268174
0.05398481
0.05527873
0.05657413
0.0578683
0.05914965
0.06040361
0.06161006
0.06274061
0.06375643
0.0646071
0.06523051
0.06555383
0.06549587
0.06497064
0.06389903
0.06222752
0.05995839
0.05717157
0.05399064
0.05043889
0.04639921
0.04170846
0.03615052
0.02931949
0.02055695
0.01459574
0.01146876
0.01177996
0.01407748
0.01563185
0.01685578
0.01797635
0.01904964
0.02010436
0.02115618
0.02221595
0.02329147
0.02438836
0.02551046
0.02666
0.02783783
0.02904356
0.03027597
0.03153303
0.03281213
0.03411043
0.03542481
0.03675205
0.03808966
0.03943455
0.0407842
0.04213629
0.0434887
0.0448396
0.04618728
0.04753395
0.04888369
0.05023382
0.05157711
0.05290727
0.05422067
0.05552265
0.05682187
0.05811618
0.05939541
0.06064556
0.06184638
0.06296892
0.06397369
0.06480972
0.06541471
0.06571597
0.0656329
0.06508052
0.06398141
0.06228422
0.05999373
0.05719185
0.05400196
0.05044377
0.04639837
0.04170362
0.03614034
0.02930444
0.02053819
0.01457255
0.01159195
0.01209889
0.01433658
0.01580731
0.01694241
0.01797969
0.01899034
0.01999611
0.02101206
0.022048
0.02311051
0.0242039
0.02533065
0.02649165
0.02768644
0.02891344
0.03017035
0.03145415
0.03276158
0.03408881
0.0354309
0.03678586
0.03815026
0.03952078
0.04089462
0.0422693
0.0436426
0.04501257
0.04637747
0.04773572
0.04909041
0.05044487
0.05179389
0.05313099
0.05445189
0.05575998
0.05706175
0.05835524
0.05963142
0.06087685
0.06207119
0.06318507
0.06417842
0.06499973
0.06558648
0.0658662
0.06575901
0.06518109
0.06405661
0.06233627
0.06002707
0.05721253
0.05401563
0.05045255
0.04640302
0.04170441
0.0361389
0.02930101
0.02053359
0.01456661
0.01173065
0.01242179
0.01460499
0.01599277
0.017041
0.01799959
0.01894866
0.01990865
0.02089258
0.02190873
0.02296219
0.02405573
0.02519031
0.02636535
0.02757901
0.02882851
0.03011041
0.03142077
0.03275476
0.03410608
0.03547451
0.03685448
0.0382425
0.03963522
0.04102966
0.04242324
0.04381371
0.0451991
0.04657768
0.04794786
0.04930924
0.05066468
0.05201509
0.05335527
0.05468065
0.05599268
0.05729552
0.0585871
0.05985932
0.06109914
0.06228615
0.06339055
0.06437175
0.06517806
0.0657472
0.06600687
0.06587728
0.06527573
0.06412789
0.06238624
0.06005988
0.05723412
0.05403166
0.05046403
0.04640974
0.04170715
0.03613762
0.02929737
0.02052726
0.01455223
0.01187757
0.01274441
0.0148815
0.0161902
0.01715286
0.01803455
0.01892675
0.01984493
0.02080165
0.02180275
0.02285158
0.02394921
0.02509491
0.02628652
0.02752075
0.02879353
0.0300992
0.03143118
0.03278792
0.03416565
0.03555726
0.03695914
0.03836739
0.0397787
0.04119011
0.04259903
0.04400324
0.04540077
0.04678989
0.04816909
0.04953699
0.05089419
0.05224304
0.05358269
0.05490936
0.05622288
0.05752513
0.05881369
0.0600811
0.06131458
0.06249372
0.06358861
0.06455848
0.06535112
0.0659032
0.0661425
0.06599065
0.06536662
0.06419725
0.06243672
0.06009593
0.0572604
0.05405189
0.05047988
0.04642213
0.04171698
0.03614564
0.02930196
0.02052699
0.01455142
0.01203816
0.01307115
0.01516615
0.01639761
0.01727914
0.01808862
0.01892886
0.0198088
0.02074228
0.02173382
0.02278367
0.02389053
0.0250516
0.02626223
0.02751631
0.02880674
0.03013325
0.03149132
0.03287199
0.03427055
0.03568197
0.037102
0.03852682
0.03995309
0.0413779
0.0427987
0.04421327
0.04561968
0.04701622
0.04840141
0.04977393
0.05113259
0.05247891
0.0538152
0.05513989
0.05645209
0.05775177
0.05903609
0.06029796
0.06152472
0.06269586
0.063781
0.06473866
0.06551625
0.06605105
0.0662713
0.0660989
0.06545369
0.06426385
0.06248529
0.06013012
0.05728523
0.05407216
0.05049713
0.04643607
0.04172752
0.03615264
0.02930587
0.02052995
0.01454512
0.0122005
0.01339319
0.01545504
0.0166116
0.01741649
0.01815959
0.01895232
0.01980893
0.02072978
0.02171659
0.0227698
0.0238852
0.02505599
0.02628024
0.02755349
0.02887067
0.03022127
0.03159935
0.03299893
0.03441477
0.03584235
0.0372772
0.0387155
0.04015383
0.04158925
0.04301918
0.04444139
0.04585397
0.04725526
0.04864379
0.05001835
0.05137782
0.05272188
0.05405264
0.05537246
0.05668072
0.05797598
0.05925472
0.06050985
0.06172862
0.06289039
0.0639645
0.06490929
0.06567213
0.06619044
0.06639277
0.0662014
0.06553669
0.06432757
0.06253143
0.06016306
0.05731111
0.05409567
0.05051873
0.04645501
0.04174393
0.03616667
0.02931737
0.02053725
0.01454481
0.01235557
0.0137013
0.01574778
0.01684085
0.01757606
0.01825626
0.01900546
0.01983246
0.02073953
0.02172553
0.02278553
0.02391475
0.02510863
0.02635736
0.02765349
0.02898991
0.03035911
0.0317542
0.03316961
0.03460011
0.03604092
0.03748755
0.0389361
0.04038316
0.04182578
0.04326148
0.04468812
0.0461039
0.0475072
0.04889662
0.05027092
0.05162904
0.05297006
0.05429498
0.05560728
0.05690873
0.05819752
0.05946926
0.06071647
0.06192627
0.06307789
0.06414059
0.06507259
0.06582109
0.06632336
0.06650822
0.06629883
0.06561641
0.06439084
0.06258039
0.06020043
0.05734056
0.05412165
0.0505419
0.04647519
0.04176213
0.03618209
0.02932887
0.02054508
0.0145429
0.01254472
0.01401422
0.01604804
0.01708064
0.01774931
0.01837673
0.01909416
0.01990418
0.02080632
0.0217964
0.02286778
0.02401273
0.02522288
0.02648919
0.02780295
0.02915597
0.03054084
0.03195084
0.03338005
0.03482276
0.03627388
0.03772905
0.03918456
0.04063717
0.04208413
0.04352288
0.04495127
0.04636748
0.04777005
0.04915774
0.0505295
0.05188437
0.05322149
0.05454011
0.05584344
0.05713618
0.05841683
0.05968027
0.06091862
0.06211878
0.06325981
0.06431081
0.06522986
0.06596416
0.06645115
0.06661988
0.06639404
0.0656953
0.06445429
0.06263041
0.06024047
0.05737484
0.05415319
0.0505707
0.04650038
0.04178367
0.03620199
0.02934665
0.02055808
0.01454683
0.01257966
0.01430783
0.01634551
0.01732458
0.01793678
0.01851915
0.01920783
0.02000522
0.02090663
0.02190431
0.0229888
0.02414994
0.02537742
0.02666119
0.02799173
0.02936063
0.03076019
0.03218351
0.0336242
0.03507661
0.03653584
0.03799767
0.03945833
0.04091449
0.04236334
0.04380267
0.04523056
0.04664529
0.04804545
0.04942977
0.0507972
0.05214681
0.05347784
0.05478952
0.05608428
0.05736689
0.05863772
0.05989144
0.06111977
0.06230938
0.06343916
0.06447806
0.06538406
0.06610431
0.06657633
0.06672942
0.06648782
0.06577369
0.06451833
0.06268194
0.06028233
0.05741078
0.05418681
0.05060251
0.0465297
0.04180968
0.03622201
0.02936096
0.02056879
0.01454908
0.01265908
0.01460797
0.01664894
0.01758013
0.01814212
0.01869041
0.019359
0.02015096
0.02105689
0.0220656
0.02316496
0.02434275
0.02558722
0.02688744
0.02823344
0.0296164
0.0310283
0.032462
0.03391117
0.03537032
0.03683461
0.03829982
0.03976229
0.04121897
0.0426672
0.04410479
0.0455299
0.04694101
0.0483367
0.0497157
0.05107692
0.05241943
0.05374242
0.05504524
0.05632993
0.05760134
0.05886092
0.06010344
0.06132048
0.06249851
0.06361624
0.06464247
0.06553505
0.06624115
0.06669844
0.06683649
0.06657994
0.0658514
0.06458268
0.06273471
0.06032623
0.05744924
0.05422277
0.05063622
0.04656077
0.04183882
0.03624973
0.02938421
0.02058189
0.01455238
0.01291287
0.01489823
0.01695083
0.01784702
0.01837015
0.01889379
0.019549
0.02034067
0.02125472
0.02227661
0.02339172
0.02458607
0.02584672
0.02716196
0.02852141
0.02991594
0.03133749
0.03277892
0.03423399
0.03569736
0.03716425
0.03863052
0.04009261
0.04154764
0.04299323
0.04442721
0.0458477
0.04725311
0.04864211
0.05001353
0.05136636
0.05269976
0.05401298
0.05530544
0.0565788
0.05783786
0.05908498
0.06031507
0.0615197
0.06268522
0.06379022
0.06480333
0.0656823
0.06637433
0.06681724
0.06694085
0.06667017
0.06592817
0.06464711
0.06278852
0.06037187
0.0574897
0.05426059
0.05067144
0.0465925
0.04186642
0.03627255
0.02940272
0.02059632
0.01455713
0.0132095
0.01518903
0.01725583
0.01812728
0.01862085
0.01912761
0.01977551
0.0205716
0.021497
0.02253392
0.02366548
0.02487619
0.02615212
0.02748101
0.02885219
0.03025637
0.03168546
0.0331324
0.0345911
0.03605617
0.03752313
0.03898805
0.04044765
0.04189901
0.04333968
0.04476762
0.04618109
0.04757861
0.04895892
0.05032092
0.05166369
0.05298641
0.0542884
0.05556912
0.05683003
0.05807587
0.05930953
0.06052615
0.06171738
0.06286959
0.06396123
0.06496082
0.06582603
0.06650407
0.06693292
0.06704268
0.06675862
0.06600403
0.06471151
0.06284306
0.06041878
0.05753166
0.05429985
0.05070824
0.04662644
0.04189746
0.03630023
0.02942513
0.02061
0.01456201
0.01346537
0.01546592
0.01756196
0.01842214
0.01889686
0.0193949
0.02004125
0.02084581
0.02178502
0.02283803
0.02398596
0.02521203
0.02650161
0.02784205
0.02922254
0.03063382
0.03206787
0.0335178
0.03497762
0.03644215
0.03790697
0.03936833
0.04082309
0.04226851
0.04370226
0.04512234
0.04652708
0.04791507
0.0492851
0.05063617
0.0519674
0.05327807
0.05456755
0.05583537
0.05708286
0.05831466
0.05953404
0.06073635
0.06191342
0.06305166
0.06412948
0.06511528
0.06596665
0.06663084
0.06704599
0.06714245
0.06684569
0.06607926
0.06477598
0.06289819
0.06046648
0.05757426
0.05433938
0.05074468
0.04665908
0.04192615
0.03632493
0.0294463
0.0206293
0.01457106
0.01365967
0.01572642
0.01786835
0.01873132
0.01919792
0.01969504
0.02034519
0.02116178
0.02211676
0.0231865
0.02435039
0.0255907
0.02689228
0.02824231
0.02962997
0.03104611
0.03248286
0.03393351
0.03539217
0.03685398
0.03831464
0.03977061
0.04121874
0.0426564
0.04408134
0.04549169
0.04688587
0.04826254
0.04962061
0.05095913
0.05227733
0.05357455
0.05485025
0.05610401
0.05733717
0.05855427
0.05975868
0.06094598
0.06210827
0.06323202
0.06429562
0.06526737
0.06610482
0.06675527
0.06715702
0.06724064
0.06693176
0.06615411
0.06484066
0.06295401
0.06051516
0.05761793
0.05437999
0.05078239
0.04669344
0.04195716
0.03635248
0.02947003
0.02064794
0.01457592
0.01384558
0.01598141
0.01818059
0.01905886
0.01952706
0.0200302
0.02068863
0.02151996
0.0224919
0.02357835
0.02475735
0.02601044
0.02732223
0.02867984
0.03007259
0.03149147
0.03292879
0.03437805
0.03583368
0.03729089
0.03874556
0.04019415
0.04163367
0.04306162
0.04447587
0.04587464
0.04725648
0.04862015
0.04996464
0.05128911
0.05259287
0.05387535
0.0551361
0.05637477
0.05759276
0.05879452
0.05998336
0.0611551
0.06230208
0.0634109
0.06445993
0.06541741
0.06624085
0.06687763
0.0672662
0.06733734
0.06701678
0.06622837
0.06490518
0.06300996
0.06056408
0.05766183
0.05442078
0.05082022
0.04672782
0.04198808
0.0363798
0.02949319
0.02066451
0.01458055
0.01400153
0.01621745
0.01849405
0.01940307
0.01988402
0.02040039
0.021071
0.02191906
0.02290852
0.02401122
0.02520416
0.02646846
0.02778865
0.02915195
0.03054785
0.03196755
0.03340359
0.03484964
0.03630031
0.03775097
0.03919767
0.04063698
0.04206607
0.04348252
0.04488433
0.04626986
0.04763773