/*--------------------------------*- C++ -*----------------------------------*\
| =========                 |                                                 |
| \\      /  F ield         | OpenFOAM: The Open Source CFD Toolbox           |
|  \\    /   O peration     | Version:  2312                                  |
|   \\  /    A nd           | Website:  www.openfoam.com                      |
|    \\/     M anipulation  |                                                 |
\*---------------------------------------------------------------------------*/
FoamFile
{
    version     2.0;
    format      ascii;
    arch        "LSB;label=32;scalar=64";
    class       volScalarField;
    location    "4050";
    object      T;
}
// * * * * * * * * * * * * * * * * * * * * * * * * * * * * * * * * * * * * * //

dimensions      [0 0 0 1 0 0 0];

internalField   nonuniform List<scalar> 
12000
(
447.8287
435.1548
433.6557
433.4467
433.408
433.3891
433.3723
433.3553
433.3377
433.3187
433.2973
433.2736
433.2479
433.22
433.1893
433.1556
433.1194
433.0807
433.0393
432.995
432.9481
432.8986
432.8463
432.7912
432.7334
432.6728
432.6093
432.5432
432.4745
432.4029
432.3287
432.2521
432.1709
432.083
431.9895
431.8842
431.7613
431.6212
431.4709
431.3218
431.1698
430.9811
430.7542
430.5229
430.3174
430.1008
429.8198
429.4827
429.1478
428.8303
428.4644
427.9679
427.4081
426.8193
426.1238
425.241
424.092
422.6254
420.3734
416.3774
447.7408
435.7306
434.4569
434.4767
434.702
434.9547
435.211
435.4724
435.7355
435.9728
436.1921
436.4025
436.6131
436.8093
436.9793
437.1313
437.2789
437.4189
437.5405
437.6451
437.7405
437.8266
437.9004
437.9652
438.0225
438.0685
438.1037
438.1325
438.1543
438.1658
438.1665
438.1579
438.1412
438.1153
438.0764
438.025
437.9609
437.8838
437.793
437.6875
437.5653
437.4241
437.2635
437.0793
436.8686
436.6289
436.3567
436.0501
435.7022
435.3072
434.8537
434.328
433.7236
433.0165
432.1846
431.1214
429.6807
427.6734
424.5181
418.8727
448.3492
436.5261
435.2061
435.3284
435.7297
436.1768
436.6229
437.0557
437.4716
437.8648
438.2274
438.5632
438.8761
439.1653
439.4302
439.6721
439.8931
440.0947
440.2774
440.442
440.5899
440.7224
440.8404
440.9448
441.0364
441.1158
441.1833
441.2395
441.2849
441.3194
441.343
441.3559
441.3596
441.3494
441.3263
441.2902
441.2406
441.1769
441.0982
441.0036
440.8918
440.7613
440.6105
440.4366
440.237
440.0093
439.7497
439.4524
439.1095
438.7177
438.2755
437.7739
437.1936
436.5028
435.6536
434.5848
433.1765
431.0629
427.4877
420.1662
449.2652
437.2781
435.8707
436.0368
436.5452
437.1142
437.6775
438.2161
438.7241
439.2074
439.6595
440.0785
440.4662
440.8216
441.1477
441.4465
441.7204
441.971
442.1996
442.4075
442.5961
442.7666
442.92
443.0574
443.1793
443.2865
443.3794
443.4583
443.5234
443.5748
443.6124
443.6369
443.6481
443.6431
443.6227
443.587
443.5356
443.4676
443.3822
443.2783
443.1546
443.0096
442.8416
442.6484
442.429
442.1799
441.898
441.579
441.217
440.8078
440.3474
439.8213
439.1963
438.4632
437.5955
436.5242
435.0882
432.9741
429.3013
421.0697
450.2873
438.0241
436.4949
436.6561
437.2211
437.8662
438.5062
439.1166
439.6904
440.2283
440.7334
441.204
441.6434
442.0485
442.4211
442.7635
443.0779
443.3666
443.6314
443.8734
444.0936
444.2933
444.4736
444.6354
444.7795
444.9064
445.0167
445.1105
445.1879
445.2491
445.2946
445.3244
445.3374
445.3323
445.3098
445.2703
445.2132
445.1375
445.0423
444.9265
444.7886
444.627
444.4398
444.2251
443.9811
443.7047
443.3929
443.0427
442.6519
442.2139
441.7047
441.1149
440.4576
439.7055
438.8082
437.7051
436.2647
434.1736
430.5074
421.7625
451.3838
438.7589
437.0832
437.1991
437.7772
438.4609
439.1472
439.8053
440.4262
441.0086
441.5526
442.0595
442.5327
442.9731
443.3808
443.7565
444.1021
444.4197
444.7112
444.9781
445.2211
445.4416
445.6404
445.8185
445.9768
446.1158
446.236
446.338
446.4217
446.4874
446.5356
446.5657
446.5771
446.5697
446.5438
446.4996
446.4365
446.3535
446.2498
446.1239
445.9743
445.7994
445.597
445.365
445.1007
444.8012
444.4631
444.0834
443.6581
443.1809
442.6431
442.032
441.3377
440.5427
439.6122
438.484
437.0313
434.9517
431.3184
422.2883
452.5045
439.4844
437.6486
437.6918
438.2511
438.9458
439.6562
440.3434
440.995
441.6074
442.1802
442.7147
443.2126
443.6763
444.1075
444.507
444.8754
445.2144
445.5253
445.8095
446.0681
446.3021
446.5127
446.7006
446.8669
447.0122
447.1373
447.2427
447.3286
447.3954
447.4432
447.4717
447.4807
447.4707
447.4418
447.3939
447.3263
447.2383
447.1288
446.9963
446.8392
446.6555
446.4428
446.1986
445.9199
445.6033
445.2456
444.8429
444.3901
443.8819
443.3117
442.6711
441.9483
441.1247
440.1683
439.02
437.5586
435.4896
431.8887
422.6701
453.6306
440.1981
438.1931
438.1453
438.6622
439.3465
440.0629
440.7636
441.4323
442.0634
442.6559
443.2103
443.7279
444.2097
444.6575
445.0729
445.457
445.8106
446.1348
446.4307
446.6993
446.9418
447.1593
447.3526
447.5229
447.6709
447.7976
447.9034
447.9891
448.0548
448.1009
448.1273
448.1341
448.1218
448.0905
448.0399
447.9695
447.8785
447.7656
447.6294
447.468
447.2792
447.0604
446.8086
446.5206
446.1926
445.821
445.4011
444.9282
444.3974
443.8029
443.1373
442.3895
441.542
440.5645
439.3999
437.9307
435.8698
432.3032
422.9629
454.7548
440.9035
438.7222
438.5713
439.0286
439.6847
440.3916
441.0937
441.7696
442.4112
443.0161
443.5839
444.115
444.6103
445.0708
445.4977
445.8924
446.2558
446.5887
446.8921
447.1669
447.4144
447.6354
447.8312
448.0029
448.1513
448.2776
448.3823
448.4664
448.5302
448.5742
448.5985
448.6034
448.5892
448.5562
448.504
448.4321
448.3397
448.2254
448.0877
447.9246
447.7336
447.512
447.2563
446.963
446.6278
446.2464
445.8136
445.3249
444.7756
444.1607
443.474
442.7059
441.84
440.8469
439.6712
438.1982
436.1461
432.611
423.2029
455.8856
441.6047
439.2372
438.9757
439.3613
439.9761
440.6621
441.3559
442.031
442.6766
443.2884
443.8647
444.4052
444.9102
445.3803
445.816
446.2182
446.5881
446.9266
447.2346
447.5129
447.7628
447.9853
448.1817
448.3531
448.5006
448.6253
448.7281
448.8099
448.8714
448.9131
448.9353
448.9385
448.9229
448.8888
448.8357
448.7633
448.6705
448.5561
448.4185
448.2555
448.0644
447.8424
447.5856
447.2898
446.9503
446.5619
446.1193
445.6176
445.0526
444.4206
443.7166
442.9324
442.0524
441.0479
439.8645
438.3895
436.3468
432.8453
423.4158
457.1744
442.305
439.742
439.366
439.6728
440.2372
440.8934
441.571
442.2387
442.8825
443.4961
444.0765
444.6225
445.1338
445.6104
446.0526
446.4608
446.8358
447.1784
447.4895
447.7701
448.0213
448.2442
448.4401
448.6102
448.7558
448.8782
448.9785
449.0576
449.1164
449.1556
449.1758
449.1772
449.1604
449.1254
449.0719
448.9994
448.907
448.7934
448.6567
448.4949
448.3053
448.0843
447.8282
447.5321
447.1905
446.7976
446.347
445.8327
445.2515
444.6025
443.8837
443.0876
442.1983
441.1872
440.0005
438.5269
436.4943
433.0231
423.6097
458.612
443.0181
440.2405
439.743
439.9645
440.471
441.0902
441.7454
442.4003
443.0378
443.6491
444.23
444.7781
445.2927
445.774
446.2218
446.6364
447.0174
447.3651
447.6801
447.9631
448.2154
448.4383
448.6331
448.8014
448.9447
449.0643
449.1616
449.2376
449.2935
449.3301
449.348
449.3476
449.3295
449.2937
449.2398
449.1674
449.0756
448.963
448.8278
448.6679
448.4803
448.2615
448.0073
447.7126
447.3711
446.9762
446.5195
445.9911
445.3883
444.7201
443.9903
443.1885
442.2953
441.2817
440.0943
438.6232
436.6005
433.1596
423.7918
459.9689
443.7399
440.7357
440.1139
440.2479
440.692
441.2688
441.8956
442.532
443.1575
443.761
444.3358
444.8778
445.3904
445.8776
446.3366
446.7638
447.1563
447.5126
447.8327
448.1182
448.3705
448.5911
448.7831
448.9485
449.0885
449.2047
449.2984
449.371
449.4236
449.4572
449.4725
449.4702
449.4505
449.4137
449.3594
449.2871
449.1959
449.0844
448.9509
448.7931
448.6081
448.3922
448.1409
447.8489
447.5085
447.1086
446.6397
446.0971
445.4807
444.7968
444.0557
443.2507
442.3569
441.3434
440.1574
438.6905
436.6775
433.2626
423.9611
461.4056
444.4674
441.2281
440.4839
440.533
440.9142
441.4454
442.0401
442.654
443.2632
443.8535
444.417
444.9546
445.4688
445.9578
446.4195
446.8515
447.2512
447.6156
447.9431
448.2339
448.4897
448.7125
448.904
449.0663
449.2018
449.3136
449.4033
449.4721
449.5211
449.5515
449.5641
449.5594
449.538
449.5
449.445
449.3727
449.2819
449.1715
449.0396
448.8839
448.7014
448.4886
448.2404
447.9482
447.6023
447.1949
446.7188
446.1683
445.5421
444.8473
444.0956
443.2861
442.3938
441.382
440.1984
438.7355
436.7311
433.3393
424.1149
462.8439
445.1974
441.722
440.8576
440.8218
441.1392
441.623
442.1833
442.7724
443.3636
443.9409
444.4944
445.025
445.5362
446.026
446.4909
446.9265
447.3284
447.6949
448.0255
448.3198
448.5781
448.802
448.9939
449.156
449.2906
449.3999
449.4858
449.5505
449.5959
449.623
449.6327
449.6256
449.6023
449.5628
449.507
449.4343
449.3438
449.2343
449.1038
448.9502
448.7698
448.5571
448.3064
448.011
447.6627
447.2526
446.7721
446.2155
445.5827
444.8801
444.1186
443.3043
442.414
441.4045
440.2239
438.7655
436.769
433.396
424.2441
464.2667
445.9296
442.223
441.2363
441.1162
441.3702
441.8062
442.3312
442.8945
443.4669
444.0304
444.5737
445.0977
445.6062
446.0956
446.5597
446.9936
447.395
447.7622
448.0936
448.3887
448.648
448.8725
449.0644
449.2257
449.3589
449.4663
449.5501
449.6123
449.6547
449.6786
449.6854
449.6758
449.6505
449.6094
449.5527
449.4796
449.3892
449.2799
449.1495
448.9953
448.8136
448.5996
448.3473
448.0498
447.6989
447.2865
446.8044
446.246
445.6088
444.8987
444.1292
443.3113
442.4219
441.4147
440.2374
438.7829
436.7921
433.4317
424.3428
465.6454
446.6706
442.729
441.6198
441.4174
441.6098
441.9992
442.4892
443.0269
443.5807
444.1312
444.6656
445.1829
445.6856
446.1697
446.6302
447.0626
447.4629
447.8285
448.158
448.4513
448.7089
448.9323
449.1229
449.283
449.4146
449.5201
449.6017
449.6614
449.7012
449.7226
449.7268
449.715
449.6879
449.6453
449.5869
449.5124
449.4209
449.3106
449.1795
449.0245
448.8416
448.6261
448.3719
448.0723
447.7193
447.3046
446.8202
446.2595
445.6205
444.9081
444.1347
443.3118
442.4219
441.4192
440.2459
438.7957
436.8108
433.4618
424.4137
466.9736
447.4118
443.2379
442.0082
441.7262
441.8599
442.2046
442.6611
443.1739
443.71
444.248
444.7738
445.2843
445.7803
446.2586
446.7138
447.1413
447.5375
447.8992
448.2252
448.5149
448.7692
448.9892
449.1769
449.3341
449.4631
449.5661
449.6452
449.7023
449.7395
449.7582
449.7599
449.7458
449.7168
449.6725
449.6125
449.5364
449.4435
449.3319
449.1996
449.0432
448.859
448.6419
448.3859
448.0843
447.7293
447.3128
446.8266
446.2643
445.6232
444.9079
444.1314
443.3062
442.417
441.4178
440.2479
438.8015
436.8213
433.4794
424.4514
468.2474
448.1463
443.7479
442.4011
442.0433
442.1215
442.4242
442.8489
443.3384
443.8576
444.3843
444.9031
445.407
445.8952
446.3657
446.8138
447.2346
447.6243
447.9798
448.2998
448.5839
448.8326
449.0475
449.2304
449.3834
449.5085
449.6079
449.6836
449.7376
449.7718
449.7877
449.7868
449.7704
449.7393
449.6933
449.6316
449.554
449.4596
449.3467
449.213
449.0553
448.8696
448.6509
448.3932
448.0896
447.7326
447.3142
446.8263
446.2626
445.6203
444.9038
444.1256
443.2988
442.4104
441.4144
440.248
438.8055
436.8301
433.4953
424.4781
469.4671
448.8703
444.258
442.7986
442.3688
442.3952
442.6588
443.054
443.5215
444.025
444.541
445.0534
445.5514
446.0318
446.4937
446.933
447.3451
447.7261
448.0731
448.3847
448.6607
448.9019
449.1097
449.2861
449.4332
449.553
449.6476
449.7191
449.7692
449.7999
449.8127
449.809
449.7901
449.7569
449.7092
449.646
449.567
449.4712
449.3569
449.2219
449.0629
448.8758
448.6555
448.396
448.0906
447.7318
447.3116
446.8222
446.2572
445.6138
444.8963
444.1173
443.2902
442.4032
441.4102
440.2471
438.8084
436.8379
433.51
424.5009
470.6361
449.5827
444.7673
443.2002
442.7026
442.6809
442.9084
443.2762
443.7231
444.2115
444.7168
445.2222
445.7161
446.1902
446.6424
447.0713
447.4727
447.8427
448.1789
448.4799
448.7458
448.9774
449.1764
449.3447
449.4844
449.5977
449.6865
449.7527
449.7983
449.825
449.8344
449.8276
449.8061
449.7707
449.7213
449.6568
449.5764
449.4793
449.3639
449.2277
449.0674
448.8789
448.657
448.3958
448.0886
447.7279
447.306
446.8152
446.2491
445.605
444.887
444.1076
443.2805
442.395
441.4051
440.2453
438.8106
436.8451
433.5247
424.5279
471.7548
450.2848
445.2761
443.6061
443.0445
442.9782
443.1724
443.5147
443.9421
444.4156
444.9097
445.4068
445.8945
446.3641
446.8089
447.2262
447.6148
447.9721
448.2956
448.5843
448.8383
449.0587
449.2473
449.406
449.5372
449.6428
449.7248
449.7852
449.8258
449.8481
449.8536
449.8436
449.8193
449.7815
449.7303
449.6645
449.5829
449.4847
449.3681
449.2308
449.0693
448.8795
448.6562
448.3934
448.0845
447.7221
447.2985
446.8063
446.2392
445.5945
444.8763
444.0971
443.2708
442.3872
441.4003
440.2439
438.8132
436.853
433.5406
424.5606
472.8208
450.9832
445.7853
444.0164
443.3944
443.2865
443.4499
443.7685
444.1773
444.6361
445.1182
445.6054
446.0845
446.5463
446.9838
447.3926
447.7689
448.1116
448.4207
448.6956
448.9365
449.1445
449.3214
449.4696
449.5911
449.6882
449.7628
449.8168
449.8518
449.8694
449.8708
449.8575
449.8302
449.79
449.7369
449.6696
449.5869
449.4876
449.3701
449.2318
449.0693
448.8783
448.6537
448.3895
448.079
447.715
447.29
446.7966
446.2286
445.5835
444.8654
444.0867
443.2615
442.38
441.3959
440.2428
438.8161
436.8611
433.5571
424.5971
473.836
451.6774
446.2957
444.4315
443.7521
443.6052
443.7401
444.0365
444.4274
444.8715
445.341
445.817
446.2855
446.7368
447.1637
447.5612
447.9261
448.2566
448.5519
448.812
449.0383
449.2329
449.3975
449.5343
449.6456
449.7336
449.8003
449.8475
449.8766
449.8893
449.8866
449.8697
449.8395
449.7968
449.7416
449.6728
449.5889
449.4886
449.3701
449.2308
449.0674
448.8754
448.6497
448.3842
448.0724
447.7071
447.2808
446.7863
446.2177
445.5723
444.8545
444.0768
443.253
442.3737
441.3924
440.2426
438.8198
436.8702
433.575
424.6364
474.7979
452.3652
446.8073
444.8512
444.1171
443.9336
444.0417
444.3173
444.6912
445.1207
445.5772
446.0408
446.4973
446.9362
447.3502
447.7344
448.0854
448.4016
448.6826
448.9288
449.1415
449.3227
449.4744
449.5992
449.6998
449.7784
449.8369
449.877
449.9002
449.9078
449.9009
449.8805
449.8473
449.8021
449.7449
449.6745
449.5893
449.488
449.3685
449.2284
449.0641
448.8712
448.6445
448.378
448.0651
447.6986
447.2714
446.7761
446.2069
445.5615
444.8443
444.0677
443.2457
442.3686
441.3901
440.2434
438.8245
436.8801
433.5937
424.6776
475.6998
453.0456
447.32
445.2753
444.4889
444.2709
444.3539
444.6097
444.9671
445.382
445.825
446.2754
446.7185
447.1436
447.5431
447.912
448.2474
448.5479
448.8132
449.0443
449.2426
449.4102
449.5494
449.6629
449.7528
449.8218
449.872
449.9051
449.9224
449.925
449.9141
449.8902
449.8542
449.8064
449.7471
449.6752
449.5888
449.4863
449.3659
449.2249
449.0598
448.866
448.6384
448.371
448.0571
447.6898
447.2617
446.7659
446.1965
445.5513
444.8348
444.0597
443.2397
442.3648
441.3889
440.2452
438.8302
436.8912
433.6141
424.7221
476.6182
453.7238
447.829
445.7004
444.866
444.6157
444.675
444.9121
445.2535
445.6538
446.0826
446.5189
446.9473
447.357
447.7404
448.0926
448.4109
448.6943
448.9429
449.1579
449.3411
449.4948
449.6213
449.7233
449.8031
449.8631
449.9052
449.9314
449.943
449.9409
449.926
449.8989
449.8602
449.8101
449.7487
449.6751
449.5875
449.484
449.3627
449.2209
449.0549
448.8603
448.6318
448.3635
448.0488
447.6808
447.2522
446.756
446.1866
445.5419
444.8264
444.0529
443.2349
442.3624
441.3889
440.2482
438.8368
436.9031
433.6357
424.7717
477.4374
454.397
448.3382
446.126
445.2473
444.9666
445.0036
445.2228
445.5484
445.9338
446.3478
446.7687
447.1811
447.5739
447.9397
448.2738
448.5738
448.839
449.07
449.2684
449.4361
449.5756
449.6894
449.7801
449.85
449.9013
449.936
449.9558
449.9619
449.9554
449.9369
449.9068
449.8655
449.8132
449.7499
449.6748
449.5859
449.4814
449.3592
449.2165
449.0497
448.8543
448.625
448.3559
448.0405
447.6719
447.2428
446.7465
446.1772
445.533
444.8187
444.047
443.2313
442.3611
441.39
440.252
438.8442
436.9158
433.6588
424.8286
478.2222
455.0627
448.8474
446.5526
445.6319
445.3225
445.3381
445.5397
445.8495
446.2195
446.6177
447.0222
447.4171
447.7916
448.1384
448.4532
448.7338
448.9801
449.1931
449.3744
449.5266
449.652
449.7533
449.833
449.8933
449.9365
449.9642
449.978
449.9792
449.9686
449.9467
449.9138
449.8702
449.816
449.7509
449.6743
449.5842
449.4787
449.3557
449.2122
449.0446
448.8484
448.6184
448.3485
448.0324
447.6632
447.2339
446.7374
446.1684
445.525
444.812
444.0423
443.2289
442.3611
441.3922
440.2569
438.8525
436.9291
433.6826
424.8925
478.9724
455.718
449.3583
446.9784
446.0172
445.6815
445.6767
445.861
446.1547
446.5086
446.8901
447.2767
447.6528
448.0076
448.3342
448.6286
448.8892
449.1161
449.3108
449.4752
449.6119
449.7236
449.8128
449.882
449.9333
449.9687
449.9899
449.9982
449.9949
449.9805
449.9555
449.9201
449.8744
449.8184
449.7518
449.6737
449.5825
449.4761
449.3523
449.2082
449.0399
448.843
448.6122
448.3417
448.0251
447.6554
447.2258
446.7293
446.1607
445.5181
444.8065
444.0387
443.2278
442.3622
441.3955
440.2627
438.8614
436.9428
433.7066
424.9616
479.6892
456.3619
449.8665
447.4053
446.4032
446.0423
446.0177
446.1846
446.4617
446.7986
447.1621
447.5296
447.8855
448.2193
448.5247
448.798
449.0381
449.2456
449.4221
449.5699
449.6917
449.7902
449.8678
449.9271
449.9699
449.9981
450.0133
450.0166
450.009
449.9912
449.9635
449.9259
449.8783
449.8207
449.7526
449.6733
449.581
449.4738
449.3493
449.2046
449.0357
448.8383
448.6069
448.3358
448.0186
447.6486
447.2188
446.7223
446.1541
445.5123
444.8021
444.0363
443.2277
442.3644
441.3996
440.2691
438.8706
436.9563
433.7296
425.0314
480.3709
456.9911
450.3707
447.8313
446.7896
446.4039
446.3595
446.5088
446.7685
447.0873
447.4316
447.7785
448.1129
448.4248
448.7081
448.96
449.1795
449.3677
449.5265
449.6582
449.7657
449.8517
449.9185
449.9684
450.0034
450.025
450.0346
450.0333
450.0219
450.0009
449.9707
449.931
449.8818
449.8227
449.7534
449.6729
449.5797
449.4718
449.3467
449.2015
449.0322
448.8343
448.6025
448.331
448.0135
447.6432
447.2132
446.7169
446.1491
445.5081
444.7993
444.0353
443.229
442.3677
441.4047
440.2762
438.8802
436.9696
433.751
425.0975
481.0303
457.6075
450.8709
448.2542
447.176
446.7652
446.7007
446.8316
447.0729
447.3725
447.6961
448.0213
448.3331
448.6222
448.883
449.1132
449.3125
449.4819
449.6236
449.7401
449.8341
449.9083
449.965
450.0063
450.034
450.0495
450.0541
450.0486
450.0337
450.0099
449.9772
449.9358
449.8851
449.8248
449.7543
449.6728
449.5788
449.4702
449.3447
449.199
449.0294
448.8312
448.5991
448.3273
448.0094
447.6389
447.209
446.713
446.1457
445.5056
444.798
444.0357
443.2312
442.3717
441.4103
440.2837
438.89
436.9824
433.7703
425.1545
481.6764
458.2114
451.3658
448.6744
447.5604
447.1257
447.04
447.1514
447.3732
447.6521
447.9538
448.2561
448.5446
448.8103
449.0485
449.2573
449.4367
449.588
449.7135
449.8156
449.897
449.9603
450.0076
450.041
450.0621
450.072
450.072
450.0626
450.0446
450.0181
449.9833
449.9401
449.8881
449.8267
449.7553
449.6729
449.5782
449.4691
449.3431
449.1972
449.0273
448.8288
448.5964
448.3244
448.0065
447.636
447.2062
446.7104
446.1436
445.5044
444.798
444.0372
443.2346
442.3768
441.4169
440.292
438.9002
436.9951
433.7878
425.2
482.3216
458.8017
451.8538
449.0904
447.9416
447.4833
447.3762
447.4669
447.6677
447.9246
448.2032
448.4817
448.7461
448.9883
449.2041
449.3919
449.5521
449.6862
449.7963
449.885
449.9548
450.008
450.0468
450.0729
450.0878
450.0927
450.0884
450.0756
450.0547
450.0258
449.9891
449.9443
449.891
449.8286
449.7564
449.6733
449.5779
449.4683
449.342
449.1958
449.0258
448.8271
448.5947
448.3227
448.0048
447.6344
447.2048
446.7094
446.1431
445.5046
444.7994
444.0404
443.2397
442.3834
441.4248
440.3013
438.9111
437.0081
433.8041
425.2332
482.9843
459.3793
452.3349
449.5008
448.3181
447.8366
447.7079
447.7771
447.9554
448.1889
448.4433
448.6972
448.9372
449.1559
449.3496
449.517
449.6589
449.7767
449.8726
449.9489
450.0079
450.0519
450.0828
450.1023
450.1116
450.1118
450.1036
450.0876
450.0641
450.0331
449.9946
449.9482
449.8938
449.8305
449.7576
449.6739
449.578
449.468
449.3415
449.1951
449.0249
448.8262
448.5938
448.3218
448.004
447.6339
447.2047
446.7099
446.1443
445.5067
444.8026
444.0449
443.246
442.3912
441.4338
440.3116
438.923
437.0217
433.8199
425.2568
483.6334
459.9382
452.8054
449.9048
448.6888
448.1841
448.0334
448.0802
448.2351
448.4441
448.6734
448.9021
449.1176
449.3131
449.4852
449.6331
449.7575
449.8601
449.9427
450.0075
450.0568
450.0923
450.1161
450.1294
450.1336
450.1295
450.1178
450.0989
450.0729
450.04
449.9998
449.9521
449.8965
449.8324
449.7589
449.6747
449.5784
449.4682
449.3414
449.1949
449.0248
448.8261
448.5938
448.3219
448.0044
447.6346
447.2059
446.7116
446.1468
445.5102
444.8072
444.051
443.2537
442.4002
441.4438
440.3229
438.9358
437.0361
433.836
425.2747
484.1612
460.4785
453.2675
450.3034
449.053
448.5243
448.3508
448.374
448.5044
448.6881
448.8918
449.0953
449.2867
449.4596
449.6111
449.7405
449.8486
449.9369
450.0072
450.0615
450.1018
450.1297
450.1468
450.1546
450.1541
450.146
450.1311
450.1095
450.0813
450.0465
450.0049
449.956
449.8994
449.8344
449.7603
449.6757
449.5792
449.4687
449.3419
449.1954
449.0252
448.8267
448.5945
448.3229
448.0057
447.6363
447.2081
446.7145
446.1505
445.5148
444.813
444.0581
443.2623
442.4101
441.4549
440.3351
438.9494
437.0513
433.853
425.2915
484.7245
461.0004
453.72
450.6951
449.4084
448.8555
448.6588
448.6578
448.7629
448.9208
449.0988
449.2773
449.4452
449.5963
449.728
449.8399
449.9328
450.0078
450.0668
450.1114
450.1434
450.1643
450.1754
450.1781
450.1733
450.1616
450.1436
450.1195
450.0893
450.0528
450.0098
449.9598
449.9023
449.8366
449.7619
449.677
449.5802
449.4696
449.3427
449.1963
449.0263
448.828
448.596
448.3247
448.0079
447.6391
447.2115
446.7186
446.1554
445.5206
444.8198
444.0663
443.2719
442.421
441.4668
440.3483
438.9639
437.0675
433.8711
425.309
485.2413
461.5034
454.1619
451.0786
449.7543
449.1764
448.9563
448.9305
449.0099
449.1418
449.2942
449.4483
449.5933
449.7236
449.8367
449.9322
450.0108
450.0735
450.122
450.1577
450.182
450.1965
450.2021
450.2001
450.1913
450.1763
450.1555
450.129
450.0969
450.0589
450.0146
449.9636
449.9052
449.8388
449.7636
449.6784
449.5815
449.4709
449.3441
449.1978
449.028
448.8299
448.5983
448.3274
448.0111
447.6429
447.216
446.7239
446.1615
445.5276
444.8278
444.0755
443.2825
442.4328
441.4795
440.3622
438.9794
437.0848
433.8905
425.3292
485.6889
461.9874
454.5923
451.4529
450.09
449.4865
449.2424
449.1914
449.2449
449.3509
449.4782
449.6085
449.7317
449.8422
449.9378
450.0179
450.0832
450.1345
450.1733
450.2007
450.218
450.2265
450.2271
450.2208
450.2083
450.1901
450.1667
450.138
450.1041
450.0646
450.0192
449.9672
449.9081
449.8411
449.7655
449.6801
449.583
449.4725
449.3458
449.1997
449.0302
448.8325
448.6013
448.3308
448.0151
447.6475
447.2214
446.7301
446.1685
445.5355
444.8368
444.0856
443.2938
442.4452
441.4929
440.3767
438.9953
437.1025
433.9105
425.3518
486.1023
462.4529
455.0107
451.8171
450.4148
449.785
449.5166
449.4401
449.4678
449.5482
449.6511
449.7586
449.861
449.9529
450.032
450.0978
450.1507
450.1914
450.2211
450.2408
450.2516
450.2546
450.2505
450.2402
450.2243
450.2033
450.1774
450.1467
450.1111
450.0702
450.0236
449.9708
449.911
449.8435
449.7675
449.6819
449.5848
449.4743
449.3479
449.2021
449.0329
448.8356
448.6049
448.335
448.0199
447.6531
447.2277
446.7373
446.1766
445.5445
444.8467
444.0965
443.3059
442.4584
441.507
440.3919
439.0118
437.1207
433.931
425.3764
486.5148
462.902
455.4166
452.1705
450.728
450.0714
449.7786
449.6767
449.6788
449.7343
449.8136
449.8994
449.982
450.0563
450.1201
450.1725
450.2138
450.2446
450.2658
450.2783
450.2831
450.2809
450.2725
450.2585
450.2395
450.2157
450.1876
450.1549
450.1177
450.0756
450.028
449.9743
449.9139
449.8459
449.7697
449.6839
449.5868
449.4765
449.3503
449.2049
449.0361
448.8392
448.609
448.3398
448.0254
447.6593
447.2348
446.7453
446.1855
445.5542
444.8573
444.1081
443.3185
442.4719
441.5214
440.4073
439.0285
437.1391
433.9519
425.4019
486.9196
463.3348
455.8099
452.5129
451.0296
450.3458
450.0285
449.9013
449.8784
449.9097
449.9664
450.0315
450.0955
450.1534
450.2027
450.2426
450.2731
450.2946
450.3078
450.3136
450.3126
450.3056
450.2931
450.2757
450.2537
450.2275
450.1972
450.1629
450.1241
450.0808
450.0322
449.9778
449.9168
449.8484
449.7719
449.6861
449.5891
449.479
449.3531
449.208
449.0397
448.8433
448.6137
448.3451
448.0315
447.6663
447.2427
446.754
446.1951
445.5647
444.8686
444.1203
443.3317
442.486
441.5363
440.4232
439.0457
437.158
433.9732
425.4276
487.3082
463.7516
456.1903
452.8438
451.3194
450.6081
450.2664
450.1145
450.0672
450.0753
450.1104
450.1559
450.2024
450.2448
450.2805
450.3086
450.3289
450.3417
450.3474
450.3468
450.3404
450.3287
450.3124
450.2918
450.2671
450.2386
450.2064
450.1704
450.1303
450.0858
450.0363
449.9812
449.9197
449.851
449.7743
449.6885
449.5916
449.4817
449.3562
449.2115
449.0437
448.8479
448.6189
448.351
448.0382
447.6739
447.2513
446.7635
446.2055
445.5759
444.8806
444.1331
443.3454
442.5005
441.5516
440.4396
439.0633
437.1773
433.9951
425.4532
487.6762
464.1525
456.5577
453.1631
451.5973
450.8586
450.4929
450.3168
450.2459
450.2318
450.2464
450.2733
450.3033
450.3311
450.3541
450.371
450.3817
450.3861
450.3847
450.378
450.3664
450.3505
450.3305
450.3069
450.2797
450.2491
450.2151
450.1775
450.1362
450.0906
450.0403
449.9845
449.9226
449.8536
449.7769
449.691
449.5943
449.4847
449.3595
449.2153
449.048
448.8528
448.6245
448.3574
448.0454
447.682
447.2603
446.7736
446.2164
445.5876
444.8931
444.1463
443.3595
442.5154
441.5672
440.4562
439.0813
437.197
434.0171
425.4787
488.0282
464.5379
456.9125
453.4715
451.8649
451.0971
450.7078
450.5087
450.4153
450.38
450.3751
450.3845
450.3988
450.4128
450.4237
450.4302
450.4316
450.4282
450.42
450.4074
450.3909
450.3708
450.3474
450.3209
450.2914
450.2589
450.2232
450.1843
450.1418
450.0953
450.0442
449.9878
449.9255
449.8563
449.7795
449.6937
449.5971
449.4879
449.3631
449.2194
449.0526
448.858
448.6305
448.3642
448.0532
447.6907
447.27
446.7842
446.2279
445.5999
444.9061
444.1601
443.374
442.5306
441.5832
440.4732
439.0995
437.2169
434.0395
425.5044
488.3653
464.9086
457.2546
453.7693
452.1226
451.3245
450.9119
450.6908
450.576
450.5206
450.4972
450.49
450.4895
450.4905
450.4899
450.4863
450.479
450.468
450.4532
450.4351
450.4139
450.3899
450.3632
450.334
450.3023
450.268
450.2309
450.1907
450.1471
450.0998
450.048
449.9911
449.9285
449.8591
449.7822
449.6965
449.6002
449.4912
449.3669
449.2237
449.0575
448.8636
448.6368
448.3714
448.0613
447.6999
447.2802
446.7953
446.2399
445.6126
444.9194
444.1741
443.3887
442.546
441.5993
440.4902
439.1178
437.237
434.0621
425.5308
488.6957
465.2652
457.5847
454.0572
452.3707
451.5417
451.106
450.864
450.7288
450.6543
450.6134
450.5905
450.5759
450.5644
450.5529
450.5397
450.524
450.5057
450.4847
450.4612
450.4355
450.4076
450.3779
450.3462
450.3124
450.2765
450.238
450.1967
450.1522
450.1041
450.0517
449.9944
449.9314
449.8619
449.785
449.6994
449.6034
449.4948
449.3709
449.2282
449.0627
448.8695
448.6435
448.379
448.0698
447.7094
447.2907
446.8068
446.2523
445.6257
444.9332
444.1884
443.4037
442.5617
441.6157
440.5075
439.1364
437.2573
434.0851
425.5579
489.0156
465.6083
457.9033
454.3355
452.6094
451.7493
451.291
451.029
450.8743
450.7817
450.7243
450.6863
450.6583
450.6349
450.6129
450.5904
450.5667
450.5413
450.5143
450.4857
450.4556
450.4242
450.3915
450.3575
450.3218
450.2843
450.2446
450.2023
450.157
450.1082
450.0553
449.9976
449.9344
449.8648
449.7879
449.7025
449.6067
449.4985
449.3751
449.233
449.0681
448.8756
448.6505
448.3869
448.0787
447.7194
447.3017
446.8188
446.2651
445.6392
444.9472
444.203
443.4189
442.5776
441.6323
440.5251
439.1553
437.2779
434.1082
425.5854
489.3244
465.9385
458.2108
454.6046
452.8396
451.9482
451.4677
451.1865
451.0134
450.9035
450.8302
450.7779
450.7371
450.7023
450.6701
450.6388
450.6072
450.5751
450.5422
450.5086
450.4743
450.4395
450.4041
450.3678
450.3305
450.2916
450.2508
450.2076
450.1616
450.1122
450.0588
450.0008
449.9374
449.8678
449.7909
449.7056
449.6102
449.5024
449.3795
449.2379
449.0737
448.882
448.6577
448.3951
448.0879
447.7296
447.313
446.831
446.2781
445.6529
444.9614
444.2177
443.4342
442.5936
441.649
440.5428
439.1742
437.2985
434.1313
425.613
489.6193
466.2562
458.5082
454.8654
453.0619
452.1394
451.6368
451.3372
451.1465
451.0201
450.9317
450.8657
450.8126
450.7667
450.7248
450.6848
450.6457
450.6069
450.5684
450.53
450.4918
450.4537
450.4157
450.3774
450.3384
450.2983
450.2564
450.2125
450.1659
450.116
450.0623
450.004
449.9405
449.8708
449.794
449.7089
449.6138
449.5064
449.384
449.243
449.0795
448.8886
448.6652
448.4035
448.0975
447.7402
447.3246
446.8435
446.2915
445.6669
444.9759
444.2327
443.4498
442.6098
441.6659
440.5606
439.1932
437.3193
434.1544
425.6407
489.9001
466.5622
458.7958
455.1182
453.2775
452.3246
451.7991
451.4813
451.2741
451.132
451.0291
450.9499
450.8849
450.8284
450.777
450.7286
450.6821
450.637
450.5929
450.5499
450.5079
450.4668
450.4263
450.3862
450.3457
450.3044
450.2616
450.217
450.1698
450.1196
450.0656
450.0072
449.9436
449.8739
449.7972
449.7124
449.6175
449.5106
449.3887
449.2483
449.0855
448.8954
448.6729
448.4123
448.1072
447.751
447.3365
446.8563
446.305
445.681
444.9905
444.2477
443.4653
442.6259
441.6827
440.5783
439.2123
437.34
434.1775
425.6683
490.1681
466.8566
459.0742
455.364
453.4874
452.5043
451.9555
451.6199
451.3968
451.2397
451.1228
451.0309
450.9544
450.8875
450.8268
450.7703
450.7166
450.6652
450.6157
450.5682
450.5226
450.4787
450.4361
450.3942
450.3524
450.3099
450.2664
450.2211
450.1735
450.123
450.0689
450.0104
449.9467
449.8771
449.8006
449.7159
449.6214
449.5149
449.3935
449.2538
449.0917
448.9024
448.6808
448.4212
448.1172
447.7621
447.3485
446.8693
446.3187
445.6953
445.0052
444.2628
443.4809
442.6421
441.6996
440.5962
439.2314
437.3608
434.2009
425.6955
490.4231
467.1402
459.344
455.6033
453.6919
452.6789
452.1066
451.7533
451.515
451.3434
451.2131
451.1088
451.0211
450.9441
450.8745
450.8098
450.749
450.6913
450.6367
450.5851
450.5363
450.4898
450.4451
450.4016
450.3585
450.315
450.2707
450.2249
450.177
450.1262
450.072