/*--------------------------------*- C++ -*----------------------------------*\
| =========                 |                                                 |
| \\      /  F ield         | OpenFOAM: The Open Source CFD Toolbox           |
|  \\    /   O peration     | Version:  2312                                  |
|   \\  /    A nd           | Website:  www.openfoam.com                      |
|    \\/     M anipulation  |                                                 |
\*---------------------------------------------------------------------------*/
FoamFile
{
    version     2.0;
    format      ascii;
    arch        "LSB;label=32;scalar=64";
    class       volVectorField;
    location    "4050";
    object      U;
}
// * * * * * * * * * * * * * * * * * * * * * * * * * * * * * * * * * * * * * //

dimensions      [0 1 -1 0 0 0 0];

internalField   nonuniform List<vector> 
12000
(
(-0.03102695 0.07289478 0)
(-0.07060864 0.06733152 0)
(-0.1156065 0.05985484 0)
(-0.1582288 0.06307292 0)
(-0.2015595 0.08712764 0)
(-0.2526938 0.1062189 0)
(-0.3048305 0.08544313 0)
(-0.3459058 0.04585175 0)
(-0.3753998 0.04498121 0)
(-0.4102829 0.09372682 0)
(-0.45817 0.1024515 0)
(-0.4974696 0.04568918 0)
(-0.5191799 0.004409496 0)
(-0.5376221 0.03596482 0)
(-0.568193 0.08015743 0)
(-0.6021536 0.06206825 0)
(-0.6240432 0.01340807 0)
(-0.6362039 0.00811172 0)
(-0.6528818 0.03671146 0)
(-0.6736752 0.04135792 0)
(-0.6904739 0.02492472 0)
(-0.7033497 0.02256851 0)
(-0.7171555 0.02431083 0)
(-0.7287298 0.01315497 0)
(-0.736548 0.00969545 0)
(-0.7450673 0.01941157 0)
(-0.7547475 0.01627863 0)
(-0.7605033 0.0004052158 0)
(-0.7626437 -0.004042104 0)
(-0.7650513 0.002987531 0)
(-0.7681258 0.006094951 0)
(-0.7708986 0.002376878 0)
(-0.7715148 -0.003153052 0)
(-0.7698984 -0.01436178 0)
(-0.7645627 -0.01848283 0)
(-0.7605833 -0.001773418 0)
(-0.7596515 0.01326225 0)
(-0.758315 0.008031094 0)
(-0.7525707 -0.02272855 0)
(-0.7399141 -0.06332288 0)
(-0.7168681 -0.04177375 0)
(-0.7110227 0.01574005 0)
(-0.7103444 0.01988139 0)
(-0.6998688 -0.03627696 0)
(-0.6741741 -0.114824 0)
(-0.6361445 -0.06335928 0)
(-0.6237557 0.04180026 0)
(-0.6204449 0.0510308 0)
(-0.6043497 -0.07720695 0)
(-0.5577272 -0.1564925 0)
(-0.5098432 -0.05150448 0)
(-0.4934586 0.03882656 0)
(-0.4700962 -0.05748371 0)
(-0.4167024 -0.1387094 0)
(-0.3632318 -0.09612007 0)
(-0.316591 -0.05464325 0)
(-0.2618447 -0.09167431 0)
(-0.1954866 -0.1230387 0)
(-0.1084339 -0.1234747 0)
(-0.04352478 -0.1081658 0)
(-0.03012565 0.2023563 0)
(-0.06589969 0.190694 0)
(-0.1159685 0.1908212 0)
(-0.1630611 0.185483 0)
(-0.2050162 0.1829727 0)
(-0.2389554 0.1863589 0)
(-0.2718637 0.1807322 0)
(-0.3040418 0.1617693 0)
(-0.3482373 0.1381263 0)
(-0.3771604 0.1458045 0)
(-0.3966173 0.1453356 0)
(-0.41668 0.1297008 0)
(-0.4476427 0.1114637 0)
(-0.4778375 0.1056376 0)
(-0.4953325 0.1049729 0)
(-0.5059545 0.09772794 0)
(-0.5229249 0.08429075 0)
(-0.5451061 0.07524193 0)
(-0.5618925 0.07108806 0)
(-0.5718086 0.06667471 0)
(-0.5820844 0.06030418 0)
(-0.5934854 0.05430312 0)
(-0.6024528 0.04874411 0)
(-0.6104335 0.04269825 0)
(-0.6192566 0.03741226 0)
(-0.6258668 0.03320335 0)
(-0.6294628 0.02829602 0)
(-0.6337428 0.02236517 0)
(-0.6393581 0.01722748 0)
(-0.6431954 0.01342475 0)
(-0.6443689 0.01031457 0)
(-0.6445199 0.007720966 0)
(-0.6441615 0.0001357721 0)
(-0.643708 -0.004994468 0)
(-0.6438832 -0.00947092 0)
(-0.6419107 -0.01325437 0)
(-0.6347485 -0.01650528 0)
(-0.6244655 -0.02334219 0)
(-0.6151682 -0.03265133 0)
(-0.6129116 -0.03763008 0)
(-0.6126129 -0.0410601 0)
(-0.6018282 -0.04577075 0)
(-0.5773615 -0.05207177 0)
(-0.5569746 -0.06223304 0)
(-0.5528529 -0.07209406 0)
(-0.5500708 -0.08188854 0)
(-0.5302024 -0.08804122 0)
(-0.4883986 -0.09498784 0)
(-0.4561215 -0.1067414 0)
(-0.4502158 -0.1178305 0)
(-0.4403076 -0.1324066 0)
(-0.3990744 -0.1484812 0)
(-0.3531348 -0.1609298 0)
(-0.3295098 -0.1707374 0)
(-0.3131498 -0.1898503 0)
(-0.2524486 -0.2354154 0)
(-0.2194606 -0.2521852 0)
(-0.1563376 -0.3076631 0)
(-0.1002389 -0.3314048 0)
(-0.04547735 -0.3445154 0)
(-0.02604366 0.3408092 0)
(-0.05382058 0.326332 0)
(-0.09486177 0.3204187 0)
(-0.1280644 0.3123768 0)
(-0.1633983 0.3007613 0)
(-0.1938875 0.2890154 0)
(-0.2204451 0.2738977 0)
(-0.2497946 0.2552829 0)
(-0.2730486 0.2497425 0)
(-0.3060081 0.2246587 0)
(-0.3261287 0.2108474 0)
(-0.3476842 0.1941619 0)
(-0.3682663 0.1782802 0)
(-0.3881271 0.166026 0)
(-0.4051019 0.1545236 0)
(-0.419885 0.1418707 0)
(-0.4345174 0.1290495 0)
(-0.4491528 0.1179967 0)
(-0.4624211 0.1084045 0)
(-0.4739412 0.09892027 0)
(-0.4844233 0.08939718 0)
(-0.4941027 0.08036732 0)
(-0.5027653 0.07167238 0)
(-0.5105414 0.06306157 0)
(-0.5175521 0.05491953 0)
(-0.523515 0.04725728 0)
(-0.5283807 0.03948198 0)
(-0.5325158 0.03157142 0)
(-0.5359753 0.02407774 0)
(-0.5383414 0.01710211 0)
(-0.5399691 0.00997342 0)
(-0.5402087 0.004767919 0)
(-0.5393407 -0.004572006 0)
(-0.5380248 -0.01280359 0)
(-0.5358269 -0.02083301 0)
(-0.532457 -0.02853821 0)
(-0.5275689 -0.03633534 0)
(-0.5213946 -0.04498398 0)
(-0.5146923 -0.05448347 0)
(-0.5074086 -0.06446499 0)
(-0.49868 -0.07389904 0)
(-0.4881391 -0.08294005 0)
(-0.4759076 -0.09363522 0)
(-0.4627743 -0.1055537 0)
(-0.4488405 -0.1189839 0)
(-0.4339517 -0.1317006 0)
(-0.4169693 -0.1438684 0)
(-0.3973609 -0.1581172 0)
(-0.376636 -0.1742366 0)
(-0.3546533 -0.1914728 0)
(-0.3309346 -0.2064136 0)
(-0.3093411 -0.217884 0)
(-0.279748 -0.2354379 0)
(-0.2543442 -0.2576038 0)
(-0.2111726 -0.3046977 0)
(-0.1817278 -0.3329666 0)
(-0.1434475 -0.3712371 0)
(-0.1096995 -0.4169318 0)
(-0.06465467 -0.4724885 0)
(-0.02715865 -0.4951997 0)
(-0.02010899 0.434773 0)
(-0.04448116 0.4108381 0)
(-0.07484058 0.4017305 0)
(-0.100508 0.3897839 0)
(-0.1270195 0.3742936 0)
(-0.1509026 0.3567704 0)
(-0.1743335 0.3371828 0)
(-0.1956997 0.3196478 0)
(-0.217547 0.3049689 0)
(-0.2325929 0.2948877 0)
(-0.2553476 0.2706332 0)
(-0.2715737 0.2522505 0)
(-0.2919348 0.2297342 0)
(-0.3080836 0.2129507 0)
(-0.323725 0.1975811 0)
(-0.337779 0.18295 0)
(-0.3511814 0.1687897 0)
(-0.3640978 0.1550975 0)
(-0.376041 0.1420581 0)
(-0.3866854 0.1296951 0)
(-0.3963202 0.1178132 0)
(-0.4050676 0.1063347 0)
(-0.4129027 0.09520492 0)
(-0.4198727 0.08434979 0)
(-0.4260033 0.07376349 0)
(-0.4312426 0.0634182 0)
(-0.4355876 0.05321953 0)
(-0.4391121 0.04311154 0)
(-0.4416806 0.03312454 0)
(-0.4438465 0.02318125 0)
(-0.4450236 0.01556938 0)
(-0.4450659 0.004249188 0)
(-0.4439962 -0.006353755 0)
(-0.4424139 -0.0167838 0)
(-0.4399666 -0.0272824 0)
(-0.436651 -0.03809175 0)
(-0.4323147 -0.04919352 0)
(-0.4269799 -0.06073086 0)
(-0.4207558 -0.07275127 0)
(-0.4136806 -0.08519631 0)
(-0.4056398 -0.09810939 0)
(-0.3964258 -0.1115982 0)
(-0.3857755 -0.1258471 0)
(-0.3744984 -0.1405665 0)
(-0.3623889 -0.1564516 0)
(-0.348974 -0.1734911 0)
(-0.3341702 -0.1914376 0)
(-0.3181797 -0.2103774 0)
(-0.3009587 -0.229998 0)
(-0.2814543 -0.2474998 0)
(-0.2658682 -0.26058 0)
(-0.2407063 -0.2903819 0)
(-0.2137947 -0.3276389 0)
(-0.1855157 -0.3610004 0)
(-0.1587688 -0.3916077 0)
(-0.1325925 -0.4249078 0)
(-0.104194 -0.4647431 0)
(-0.07601348 -0.5138548 0)
(-0.04532715 -0.5701737 0)
(-0.01821139 -0.5997197 0)
(-0.01522731 0.520209 0)
(-0.03598962 0.4900987 0)
(-0.05989667 0.4758143 0)
(-0.08072465 0.4601122 0)
(-0.1016707 0.4416153 0)
(-0.1212304 0.4211402 0)
(-0.1403218 0.3993039 0)
(-0.1587645 0.3768249 0)
(-0.1757665 0.354712 0)
(-0.1911267 0.3329889 0)
(-0.2058706 0.3151529 0)
(-0.2174353 0.300131 0)
(-0.2337617 0.2772921 0)
(-0.2475763 0.2559927 0)
(-0.2609162 0.236907 0)
(-0.273417 0.2183909 0)
(-0.2836917 0.2037581 0)
(-0.2945431 0.1880556 0)
(-0.3044419 0.1718705 0)
(-0.3131299 0.1563892 0)
(-0.3211739 0.141663 0)
(-0.3284582 0.1275427 0)
(-0.3349315 0.1138771 0)
(-0.3406364 0.1005692 0)
(-0.3455844 0.08755941 0)
(-0.3497813 0.07479227 0)
(-0.3532369 0.06220151 0)
(-0.355933 0.04972967 0)
(-0.3580172 0.03732753 0)
(-0.3592674 0.027464 0)
(-0.3597172 0.01427966 0)
(-0.3591872 0.001671507 0)
(-0.3582496 -0.01096039 0)
(-0.3564342 -0.02362537 0)
(-0.3541546 -0.03639829 0)
(-0.351256 -0.0496022 0)
(-0.3473933 -0.06320373 0)
(-0.3427422 -0.07722083 0)
(-0.3372988 -0.09173135 0)
(-0.3310648 -0.1067991 0)
(-0.3239948 -0.1224958 0)
(-0.3162667 -0.1389125 0)
(-0.3069371 -0.156176 0)
(-0.2981688 -0.170954 0)
(-0.286878 -0.1911144 0)
(-0.2755601 -0.2112841 0)
(-0.2632928 -0.2320486 0)
(-0.2488919 -0.2531704 0)
(-0.2363693 -0.2722035 0)
(-0.2202776 -0.2966135 0)
(-0.2005181 -0.3280201 0)
(-0.1799083 -0.3599495 0)
(-0.1604868 -0.3898524 0)
(-0.1415659 -0.4201824 0)
(-0.1215842 -0.4539467 0)
(-0.1004486 -0.4918129 0)
(-0.07835158 -0.5345976 0)
(-0.05640897 -0.5836338 0)
(-0.03358848 -0.6416123 0)
(-0.01239156 -0.6753044 0)
(-0.01119727 0.5829581 0)
(-0.02791177 0.548882 0)
(-0.04603017 0.5304417 0)
(-0.06211078 0.5117172 0)
(-0.07798525 0.4908514 0)
(-0.09291678 0.4683922 0)
(-0.1073895 0.4450964 0)
(-0.121407 0.4215083 0)
(-0.1349425 0.3981995 0)
(-0.1481217 0.3751797 0)
(-0.1601885 0.3525084 0)
(-0.1726317 0.3313699 0)
(-0.1811066 0.3141149 0)
(-0.1923494 0.293062 0)
(-0.2037001 0.2704506 0)
(-0.2138598 0.2497898 0)
(-0.2235159 0.2307133 0)
(-0.2320912 0.2126589 0)
(-0.239897 0.1951502 0)
(-0.2471412 0.1780757 0)
(-0.2537902 0.1615076 0)
(-0.2597745 0.1454403 0)
(-0.2650912 0.1298105 0)
(-0.269749 0.1145608 0)
(-0.2737594 0.09963758 0)
(-0.2771336 0.08499196 0)
(-0.2798833 0.07057692 0)
(-0.282013 0.05635114 0)
(-0.2836294 0.04226292 0)
(-0.2843575 0.02832102 0)
(-0.2842188 0.01426842 0)
(-0.2839258 7.696247e-05 0)
(-0.2832442 -0.01445446 0)
(-0.2816976 -0.02925832 0)
(-0.2798042 -0.04196078 0)
(-0.2770087 -0.05793616 0)
(-0.2737446 -0.07380397 0)
(-0.2698129 -0.08988572 0)
(-0.2652672 -0.1063783 0)
(-0.2600885 -0.1234035 0)
(-0.254264 -0.1410552 0)
(-0.2477822 -0.1594178 0)
(-0.2407187 -0.1784847 0)
(-0.2325605 -0.198633 0)
(-0.2234276 -0.2200224 0)
(-0.2141137 -0.2424123 0)
(-0.2029311 -0.2656541 0)
(-0.1936361 -0.2879645 0)
(-0.1798403 -0.3157028 0)
(-0.1662497 -0.3450391 0)
(-0.1519271 -0.3748769 0)
(-0.1378218 -0.4052953 0)
(-0.1232193 -0.4372816 0)
(-0.1077368 -0.4715234 0)
(-0.09145586 -0.5081841 0)
(-0.07472444 -0.5476388 0)
(-0.0577893 -0.5908748 0)
(-0.04114319 -0.6396454 0)
(-0.02429816 -0.6955907 0)
(-0.008885929 -0.7296096 0)
(-0.008351805 0.6327018 0)
(-0.02168175 0.5957689 0)
(-0.03533239 0.5735481 0)
(-0.04764644 0.5520989 0)
(-0.05973388 0.5291671 0)
(-0.07123739 0.5050783 0)
(-0.08244748 0.4804101 0)
(-0.09334003 0.4555636 0)
(-0.1039192 0.4309013 0)
(-0.1141796 0.4066036 0)
(-0.1240933 0.382861 0)
(-0.1333701 0.3594842 0)
(-0.1425091 0.3368115 0)
(-0.1499796 0.3170651 0)
(-0.1567112 0.2975638 0)
(-0.1654492 0.2755523 0)
(-0.1726471 0.2543896 0)
(-0.1796089 0.2342397 0)
(-0.1859093 0.2147349 0)
(-0.19167 0.1958166 0)
(-0.1968919 0.177451 0)
(-0.2015753 0.1595935 0)
(-0.2057213 0.1421935 0)
(-0.2093346 0.1252 0)
(-0.212422 0.1085616 0)
(-0.2149908 0.092226 0)
(-0.2170481 0.07613974 0)
(-0.2185969 0.06024593 0)
(-0.2196477 0.04447994 0)
(-0.2201908 0.02881052 0)
(-0.2201389 0.01303173 0)
(-0.2198618 -0.0007897892 0)
(-0.219243 -0.01717576 0)
(-0.2181708 -0.03343744 0)
(-0.216386 -0.04978951 0)
(-0.2139657 -0.06655077 0)
(-0.2112819 -0.08366522 0)
(-0.2081271 -0.1012211 0)
(-0.2045002 -0.1193032 0)
(-0.2003731 -0.1380031 0)
(-0.1957259 -0.1574094 0)
(-0.190536 -0.1776098 0)
(-0.1847713 -0.1986843 0)
(-0.1783766 -0.2206765 0)
(-0.1716067 -0.2438884 0)
(-0.1634367 -0.2679512 0)
(-0.1567118 -0.2916735 0)
(-0.1467062 -0.3193448 0)
(-0.1371327 -0.3481914 0)
(-0.1269117 -0.3779872 0)
(-0.1163589 -0.4091768 0)
(-0.1052859 -0.4417031 0)
(-0.09364677 -0.4755866 0)
(-0.08154344 -0.5110025 0)
(-0.06911085 -0.5483204 0)
(-0.05645282 -0.5881048 0)
(-0.04365378 -0.6312868 0)
(-0.03100675 -0.6795566 0)
(-0.01837648 -0.7351028 0)
(-0.006492208 -0.7704241 0)
(-0.006256125 0.6709928 0)
(-0.01645964 0.6313014 0)
(-0.02642164 0.6058409 0)
(-0.03546349 0.5824926 0)
(-0.04432562 0.5583913 0)
(-0.05282597 0.5334819 0)
(-0.06115947 0.5081462 0)
(-0.06931023 0.4826917 0)
(-0.07728923 0.4573579 0)
(-0.08506614 0.4322897 0)
(-0.09260623 0.4075932 0)
(-0.09987354 0.3833188 0)
(-0.1067782 0.3594 0)
(-0.1134709 0.3360208 0)
(-0.1192865 0.3145855 0)
(-0.1238282 0.2940572 0)
(-0.1299572 0.2719621 0)
(-0.134909 0.2503935 0)
(-0.1397505 0.2295913 0)
(-0.1441373 0.2093812 0)
(-0.1481248 0.1897221 0)
(-0.1516995 0.1705659 0)
(-0.1548633 0.1518686 0)
(-0.1576191 0.1335857 0)
(-0.159973 0.1156711 0)
(-0.1619317 0.09807549 0)
(-0.1635028 0.08074629 0)
(-0.1646938 0.06362716 0)
(-0.1655128 0.04665753 0)
(-0.1659657 0.02977671 0)
(-0.166073 0.01291482 0)
(-0.1657903 -0.002321086 0)
(-0.1650964 -0.01965448 0)
(-0.1641421 -0.03703514 0)
(-0.1628208 -0.05453842 0)
(-0.1611501 -0.0723961 0)
(-0.1591511 -0.09063291 0)
(-0.1568034 -0.1093437 0)
(-0.1541011 -0.1286171 0)
(-0.1510327 -0.1485472 0)
(-0.1475875 -0.1692298 0)
(-0.1437493 -0.1907626 0)
(-0.1394955 -0.2132354 0)
(-0.1349804 -0.2368163 0)
(-0.1293534 -0.2613374 0)
(-0.1248148 -0.2860368 0)
(-0.117824 -0.313743 0)
(-0.1111074 -0.3427384 0)
(-0.1037881 -0.3727685 0)
(-0.09606797 -0.4039928 0)
(-0.08790142 -0.4364097 0)
(-0.07933755 -0.470057 0)
(-0.07041004 -0.5050343 0)
(-0.06116605 -0.541512 0)
(-0.05167194 -0.5797602 0)
(-0.04202 -0.6202357 0)
(-0.03231621 -0.663732 0)
(-0.02276455 -0.7116707 0)
(-0.01341302 -0.7656709 0)
(-0.004693828 -0.7999683 0)
(-0.004611641 0.6999322 0)
(-0.01232938 0.6577185 0)
(-0.01936756 0.6293836 0)
(-0.02579443 0.6042965 0)
(-0.03205969 0.5790944 0)
(-0.03812682 0.5534824 0)
(-0.04410824 0.5276374 0)
(-0.04998078 0.5017552 0)
(-0.05572852 0.4759881 0)
(-0.06132799 0.4504332 0)
(-0.06675879 0.4251683 0)
(-0.07199827 0.4002526 0)
(-0.07705691 0.375741 0)
(-0.08180501 0.3516599 0)
(-0.08652282 0.3281071 0)
(-0.09056512 0.306054 0)
(-0.09355614 0.2848033 0)
(-0.09777654 0.2626034 0)
(-0.1011142 0.2407867 0)
(-0.1044254 0.2195802 0)
(-0.1074124 0.1988897 0)
(-0.1100977 0.1786988 0)
(-0.1124719 0.1589757 0)
(-0.1145382 0.1396861 0)
(-0.1163034 0.1207884 0)
(-0.1177756 0.1022347 0)
(-0.1189634 0.08397249 0)
(-0.1198753 0.06594546 0)
(-0.1205198 0.04809351 0)
(-0.1209028 0.0303533 0)
(-0.1210534 0.01265855 0)
(-0.1208766 -0.00375382 0)
(-0.1203804 -0.02178155 0)
(-0.1197148 -0.03993094 0)
(-0.1188072 -0.05828926 0)
(-0.117662 -0.07695666 0)
(-0.1162799 -0.09602014 0)
(-0.1146533 -0.1155739 0)
(-0.1127761 -0.1357124 0)
(-0.1106399 -0.1565317 0)
(-0.1082382 -0.1781281 0)
(-0.1055383 -0.2005975 0)
(-0.1027165 -0.2240376 0)
(-0.09903701 -0.2485315 0)
(-0.09621171 -0.2736726 0)
(-0.0915799 -0.3011041 0)
(-0.08715774 -0.3298849 0)
(-0.08224576 -0.3598016 0)
(-0.07699769 -0.3909643 0)
(-0.07134686 -0.4233398 0)
(-0.06530199 -0.4568907 0)
(-0.05889412 -0.4915736 0)
(-0.05218136 -0.5273947 0)
(-0.04523588 -0.5644503 0)
(-0.0381372 -0.6029705 0)
(-0.0309686 -0.6433917 0)
(-0.02380928 -0.6865152 0)
(-0.0167835 -0.7338291 0)
(-0.009934585 -0.7872054 0)
(-0.003444677 -0.8222218 0)
(-0.003111685 0.722185 0)
(-0.008507769 0.6770867 0)
(-0.01345331 0.646097 0)
(-0.0177088 0.6197509 0)
(-0.0218534 0.5940862 0)
(-0.02581679 0.5682552 0)
(-0.02969918 0.5422001 0)
(-0.03351999 0.5159972 0)
(-0.03732784 0.4898071 0)
(-0.04112393 0.4637806 0)
(-0.04488361 0.4380147 0)
(-0.0485814 0.4125796 0)
(-0.05219277 0.3875303 0)
(-0.05569625 0.36292 0)
(-0.05899347 0.3387419 0)
(-0.06225449 0.3151134 0)
(-0.06500387 0.2927185 0)
(-0.06695359 0.2710798 0)
(-0.06970652 0.2490658 0)
(-0.07181133 0.2273024 0)
(-0.07388986 0.2059406 0)
(-0.07573261 0.1850203 0)
(-0.07736748 0.1645519 0)
(-0.07879914 0.1445229 0)
(-0.08004293 0.124905 0)
(-0.08110754 0.1056536 0)
(-0.0819966 0.08671795 0)
(-0.0827133 0.06804174 0)
(-0.08326121 0.04956314 0)
(-0.0836393 0.03121621 0)
(-0.08387802 0.01293193 0)
(-0.08387011 -0.004426358 0)
(-0.08363311 -0.02292413 0)
(-0.08329208 -0.04157207 0)
(-0.0828006 -0.06045304 0)
(-0.08215933 -0.07965651 0)
(-0.08136235 -0.099273 0)
(-0.08040371 -0.1193971 0)
(-0.07927669 -0.1401254 0)
(-0.0779734 -0.1615562 0)
(-0.07648356 -0.1837875 0)
(-0.07480115 -0.2069138 0)
(-0.07287742 -0.2310411 0)
(-0.07082593 -0.256136 0)
(-0.06832002 -0.282871 0)
(-0.0655724 -0.311214 0)
(-0.06260803 -0.3407836 0)
(-0.05935376 -0.3716694 0)
(-0.0557503 -0.4038915 0)
(-0.05175671 -0.4373647 0)
(-0.04737871 -0.4719368 0)
(-0.04267466 -0.5074888 0)
(-0.03772865 -0.5440032 0)
(-0.03261927 -0.5815844 0)
(-0.02741389 -0.6204801 0)
(-0.02217645 -0.6611362 0)
(-0.01696902 -0.7043292 0)
(-0.01186914 -0.7514249 0)
(-0.006970979 -0.8039425 0)
(-0.002383786 -0.8380543 0)
(-0.002098444 0.7383112 0)
(-0.006168631 0.6901376 0)
(-0.009327298 0.6569951 0)
(-0.012136 0.6294445 0)
(-0.01456794 0.6028059 0)
(-0.0169029 0.5762805 0)
(-0.01920192 0.5497905 0)
(-0.02146851 0.5236173 0)
(-0.02377185 0.4977683 0)
(-0.02607133 0.4720599 0)
(-0.02837047 0.4465217 0)
(-0.03065117 0.4211884 0)
(-0.0329107 0.3961037 0)
(-0.03514889 0.3713058 0)
(-0.03735765 0.3468319 0)
(-0.0394231 0.3226957 0)
(-0.04147636 0.2989855 0)
(-0.04317561 0.2761611 0)
(-0.04429385 0.253912 0)
(-0.04562961 0.2317254 0)
(-0.04676124 0.2098987 0)
(-0.04784137 0.1885113 0)
(-0.04884495 0.1676065 0)
(-0.04976798 0.1472149 0)
(-0.05060006 0.1272911 0)
(-0.05134361 0.1077387 0)
(-0.05199638 0.0884972 0)
(-0.05255949 0.0695071 0)
(-0.05303405 0.05070722 0)
(-0.05341661 0.03203328 0)
(-0.05373604 0.01341731 0)
(-0.05389369 -0.004601397 0)
(-0.05390542 -0.02337896 0)
(-0.05386709 -0.04232752 0)
(-0.0537449 -0.06152841 0)
(-0.05353883 -0.08106771 0)
(-0.05324342 -0.1010374 0)
(-0.05285284 -0.121534 0)
(-0.0523601 -0.1426581 0)
(-0.0517568 -0.1645139 0)
(-0.05102957 -0.1872082 0)
(-0.05018307 -0.2108492 0)
(-0.04906007 -0.2355421 0)
(-0.04812049 -0.2614023 0)
(-0.04632657 -0.2887801 0)
(-0.0449236 -0.3174233 0)
(-0.04327779 -0.347601 0)
(-0.04130083 -0.3793836 0)
(-0.03903044 -0.4126378 0)
(-0.03632702 -0.4472037 0)
(-0.03321216 -0.4827694 0)
(-0.02980745 -0.5190678 0)
(-0.0262499 -0.5560506 0)
(-0.02262034 -0.5938645 0)
(-0.01896221 -0.6327737 0)
(-0.01531821 -0.6732395 0)
(-0.01172534 -0.7160612 0)
(-0.008223186 -0.7626392 0)
(-0.004868482 -0.8146186 0)
(-0.001676555 -0.8492119 0)
(-0.001675747 0.7504184 0)
(-0.003603224 0.6996902 0)
(-0.005195778 0.6642551 0)
(-0.005618863 0.6353292 0)
(-0.006515561 0.6083653 0)
(-0.007368896 0.5820072 0)
(-0.008178778 0.5558292 0)
(-0.009632685 0.5295415 0)
(-0.01060274 0.5032394 0)
(-0.01178587 0.4770944 0)
(-0.01293981 0.4511688 0)
(-0.01413182 0.4255276 0)
(-0.01535938 0.4003022 0)
(-0.01659607 0.375485 0)
(-0.01778583 0.3509712 0)
(-0.0188619 0.3267601 0)
(-0.01980201 0.3028457 0)
(-0.02068606 0.2793278 0)
(-0.02119298 0.2564904 0)
(-0.02187578 0.2342641 0)
(-0.02249782 0.2124856 0)
(-0.02319396 0.1911576 0)
(-0.02389648 0.1702555 0)
(-0.02474846 0.1497033 0)
(-0.02547293 0.1295256 0)
(-0.02620677 0.109724 0)
(-0.02688991 0.09024628 0)
(-0.02752917 0.07103645 0)
(-0.0281237 0.05203428 0)
(-0.02866892 0.03317481 0)
(-0.02918876 0.01438985 0)
(-0.02959992 -0.004061432 0)
(-0.02991998 -0.02296961 0)
(-0.03022352 -0.04206387 0)
(-0.03048624 -0.06141947 0)
(-0.03070818 -0.081122 0)
(-0.0308868 -0.1012688 0)
(-0.03101811 -0.1219593 0)
(-0.03109784 -0.1432984 0)
(-0.03112032 -0.1653968 0)
(-0.03107789 -0.1883712 0)
(-0.03095962 -0.2123454 0)
(-0.03075763 -0.2374395 0)
(-0.03035505 -0.2638331 0)
(-0.0300801 -0.291483 0)
(-0.02935245 -0.320542 0)
(-0.02848142 -0.3512538 0)
(-0.02758159 -0.3836951 0)
(-0.02611387 -0.4181159 0)
(-0.02434624 -0.4540257 0)
(-0.02221025 -0.4905586 0)
(-0.01985023 -0.527317 0)
(-0.01738408 -0.5644805 0)
(-0.01492831 -0.6023728 0)
(-0.0124799 -0.6413195 0)
(-0.01004878 -0.6818097 0)
(-0.007652393 -0.7246427 0)
(-0.005314599 -0.7711693 0)
(-0.003093947 -0.8228469 0)
(-0.001038311 -0.8569788 0)
(-0.0006093435 0.7575824 0)
(-0.002009713 0.703431 0)
(-0.001700511 0.6651191 0)
(-0.001790126 0.6352815 0)
(-0.001195368 0.608245 0)
(-0.0006445545 0.5819147 0)
(-0.0001446131 0.5558802 0)
(0.0006002222 0.5300633 0)
(0.0007894844 0.5042974 0)
(0.0009096675 0.4787596 0)
(0.0007552027 0.4534635 0)
(0.0004737295 0.4284225 0)
(-0.0002706153 0.4035164 0)
(-0.0008594851 0.3785808 0)
(-0.001622547 0.3536108 0)
(-0.002390315 0.3287664 0)
(-0.003164657 0.304337 0)
(-0.003818572 0.2805332 0)
(-0.004578338 0.2575087 0)
(-0.004950192 0.2352876 0)
(-0.005359202 0.2136296 0)
(-0.005666627 0.1924794 0)
(-0.006011492 0.1718213 0)
(-0.006246556 0.1515222 0)
(-0.00665282 0.1314722 0)
(-0.007081571 0.1117228 0)
(-0.007583861 0.09225263 0)
(-0.00813296 0.07302128 0)
(-0.008711528 0.05397248 0)
(-0.00930156 0.03504262 0)
(-0.009925171 0.01616232 0)
(-0.01049604 -0.002599401 0)
(-0.01103716 -0.02156835 0)
(-0.0116029 -0.04072531 0)
(-0.01217806 -0.06015805 0)
(-0.0127388 -0.07994426 0)
(-0.01329619 -0.1001797 0)
(-0.01384025 -0.1209647 0)
(-0.01436765 -0.142406 0)
(-0.01487391 -0.1646168 0)
(-0.01535548 -0.1877188 0)
(-0.01580751 -0.2118482 0)
(-0.01622704 -0.2371484 0)
(-0.01662727 -0.2637577 0)
(-0.01690583 -0.2918337 0)
(-0.01715896 -0.3214645 0)
(-0.01710766 -0.352912 0)
(-0.01647373 -0.3864544 0)
(-0.01581029 -0.4217295 0)
(-0.01491607 -0.4583052 0)
(-0.01362695 -0.4956315 0)
(-0.01218974 -0.532842 0)
(-0.01064601 -0.5700293 0)
(-0.009105037 -0.6078623 0)
(-0.007602168 -0.6467226 0)
(-0.006114854 -0.6870708 0)
(-0.004661702 -0.7296754 0)
(-0.003255736 -0.775871 0)
(-0.001937147 -0.8271381 0)
(-0.0006980193 -0.8614822 0)
(-0.0005673733 0.7629778 0)
(-0.0005843723 0.7048955 0)
(-0.0003276543 0.6648844 0)
(0.0006744294 0.6340896 0)
(0.00187889 0.6061686 0)
(0.003174924 0.5795141 0)
(0.004344876 0.5535305 0)
(0.00561594 0.5278956 0)
(0.006743595 0.5025635 0)
(0.007825825 0.4774652 0)
(0.008812807 0.4526338 0)
(0.009531094 0.4280886 0)
(0.01038816 0.4036727 0)
(0.01058403 0.3794033 0)
(0.01064196 0.3552371 0)
(0.0104944 0.3311526 0)
(0.009980917 0.3071101 0)
(0.009548352 0.2832017 0)
(0.008982693 0.2597024 0)
(0.008442928 0.2368328 0)
(0.00802808 0.2146827 0)
(0.007668292 0.1931551 0)
(0.007385043 0.1721876 0)
(0.007132021 0.1517874 0)
(0.006883839 0.1319247 0)
(0.006605795 0.1124759 0)
(0.006284005 0.09328138 0)
(0.005900888 0.07424934 0)
(0.005454324 0.05535481 0)
(0.004939754 0.03655524 0)
(0.004386145 0.01779996 0)
(0.003774069 -0.0009739731 0)
(0.003111057 -0.01981341 0)
(0.002394249 -0.0388781 0)
(0.001623593 -0.05823721 0)
(0.0008230761 -0.07797496 0)
(-7.344733e-06 -0.09818172 0)
(-0.0008586609 -0.1189581 0)
(-0.001725214 -0.1404089 0)
(-0.002601947 -0.1626441 0)
(-0.003496435 -0.1857804 0)
(-0.004405051 -0.2099423 0)
(-0.005314073 -0.2352358 0)
(-0.00618736 -0.2618324 0)
(-0.006983875 -0.2901056 0)
(-0.007667373 -0.3204385 0)
(-0.008120151 -0.3528646 0)
(-0.008477298 -0.3870883 0)
(-0.008521787 -0.4229875 0)
(-0.00805426 -0.4603601 0)
(-0.007588811 -0.498258 0)
(-0.006862523 -0.5358653 0)
(-0.005978029 -0.5732172 0)
(-0.005044886 -0.6110054 0)
(-0.004175877 -0.6498557 0)
(-0.003320524 -0.6902115 0)
(-0.002494625 -0.7328367 0)
(-0.001703699 -0.7790588 0)
(-0.0009749303 -0.8303312 0)
(-0.0003180841 -0.864835 0)
(-0.0003017809 0.7667437 0)
(-0.0001670098 0.7047619 0)
(0.001034006 0.6624355 0)
(0.002719082 0.6302736 0)
(0.004653363 0.6019191 0)
(0.006627727 0.5751629 0)
(0.008567241 0.54913 0)
(0.01044376 0.5235171 0)
(0.01220016 0.4982565 0)
(0.01381403 0.4733302 0)
(0.01526149 0.4488234 0)
(0.01647758 0.4248931 0)
(0.01737142 0.4014267 0)
(0.01817785 0.3779404 0)
(0.01883852 0.354327 0)
(0.01932831 0.3306342 0)
(0.01992117 0.3069959 0)
(0.02010291 0.2836938 0)
(0.02009873 0.2607108 0)
(0.02005953 0.2380422 0)
(0.01989828 0.2158935 0)
(0.01969117 0.1943408 0)
(0.01943903 0.1733799 0)
(0.01913818 0.1529602 0)
(0.01879829 0.1330151 0)
(0.0184235 0.1134845 0)
(0.01800576 0.09431483 0)
(0.01753442 0.0754547 0)
(0.01699813 0.05677676 0)
(0.01639951 0.03816168 0)
(0.0157265 0.01957552 0)
(0.01499997 0.0009765633 0)
(0.01417023 -0.01757841 0)
(0.01323243 -0.03648455 0)
(0.0122451 -0.05569981 0)
(0.01119005 -0.07531697 0)
(0.01008387 -0.09542402 0)
(0.008929189 -0.1161164 0)
(0.00773399 -0.1374911 0)
(0.006504459 -0.1596418 0)
(0.005253016 -0.1826499 0)
(0.003992046 -0.2067247 0)
(0.002746772 -0.2321399 0)
(0.001564802 -0.2590669 0)
(0.0004797573 -0.2876866 0)
(-0.0004963305 -0.3182165 0)
(-0.001369133 -0.3508672 0)
(-0.00211715 -0.3857567 0)
(-0.002629105 -0.4226306 0)
(-0.003031041 -0.4607308 0)
(-0.003096075 -0.4992763 0)
(-0.002743859 -0.5376196 0)
(-0.002370026 -0.5752939 0)
(-0.001913818 -0.6129982 0)
(-0.001510806 -0.6517326 0)
(-0.001133712 -0.6919496 0)
(-0.0007901388 -0.7344006 0)
(-0.0004912611 -0.7803994 0)
(-0.0002419672 -0.8313753 0)
(-9.92566e-05 -0.8657187 0)
(-0.0001793499 0.7695092 0)
(0.0004139381 0.7031449 0)
(0.002181531 0.6580485 0)
(0.004393217 0.6247127 0)
(0.00688696 0.5958975 0)
(0.00942724 0.5690519 0)
(0.01193501 0.5432036 0)
(0.01433386 0.5179716 0)
(0.01657382 0.4932266 0)
(0.01861601 0.4689414 0)
(0.02043362 0.445151 0)
(0.02201354 0.4218783 0)
(0.02337987 0.3987726 0)
(0.02456993 0.3754683 0)
(0.02558649 0.3520137 0)
(0.02643673 0.3286172 0)
(0.02707434 0.3055119 0)
(0.02758313 0.2826487 0)
(0.02816807 0.2599871 0)
(0.02832632 0.2377357 0)
(0.02848634 0.2159146 0)
(0.02846116 0.1946368 0)
(0.02832366 0.1739221 0)
(0.0280811 0.1537479 0)
(0.02774053 0.1340622 0)
(0.02730636 0.1147893 0)
(0.02678328 0.09584066 0)
(0.02618367 0.07713209 0)
(0.02551352 0.05858724 0)
(0.0247797 0.04014407 0)
(0.02398485 0.02176691 0)
(0.02311867 0.003423332 0)
(0.02215567 -0.01478327 0)
(0.02102605 -0.03345257 0)
(0.01980632 -0.05245291 0)
(0.01851081 -0.0718659 0)
(0.01716145 -0.09178254 0)
(0.01575359 -0.1123086 0)
(0.01429267 -0.1335506 0)
(0.01278778 -0.1556281 0)
(0.0112674 -0.1786768 0)
(0.009756056 -0.2028597 0)
(0.008281864 -0.2283769 0)
(0.006863152 -0.2554541 0)
(0.005529886 -0.2843328 0)
(0.004311399 -0.3152258 0)
(0.0032258 -0.3482558 0)
(0.00227335 -0.3834212 0)
(0.00144599 -0.4205661 0)
(0.0007546285 -0.4593011 0)
(0.0002839612 -0.4987673 0)
(-7.148791e-05 -0.5377562 0)
(-0.0001629147 -0.5756341 0)
(-0.0001956015 -0.6133496 0)
(-0.0001937939 -0.6520881 0)
(-0.0001936664 -0.6923076 0)
(-0.0001836027 -0.7347645 0)
(-0.0001673555 -0.7807792 0)
(-0.0001538622 -0.8318036 0)
(-0.000111757 -0.8663334 0)
(-0.0001344455 0.7712516 0)
(0.0008156686 0.7001447 0)
(0.002886061 0.6524447 0)
(0.005429246 0.6178466 0)
(0.008294535 0.5884733 0)
(0.01122122 0.5614814 0)
(0.0141226 0.5357629 0)
(0.01691647 0.5108535 0)
(0.01955293 0.4865637 0)
(0.02199612 0.4628255 0)
(0.02423035 0.4396275 0)
(0.02624601 0.4169697 0)
(0.02804028 0.3945386 0)
(0.02960347 0.3719796 0)
(0.03091369 0.3492649 0)
(0.03199064 0.3264694 0)
(0.03285809 0.3036847 0)
(0.03359731 0.2810774 0)
(0.03402761 0.2588784 0)
(0.03451513 0.2370745 0)
(0.03462118 0.2157627 0)
(0.0346584 0.1949196 0)
(0.0345134 0.1745724 0)
(0.03423364 0.154714 0)
(0.03382879 0.1353046 0)
(0.03331187 0.1162848 0)
(0.03269244 0.09758404 0)
(0.03197826 0.07912094 0)
(0.03117591 0.06080253 0)
(0.030291 0.04254422 0)
(0.0293314 0.02430778 0)
(0.02828764 0.006160261 0)
(0.02719227 -0.01163579 0)
(0.02595748 -0.0297846 0)
(0.0245528 -0.04855479 0)
(0.02307303 -0.06782634 0)
(0.02153445 -0.08760923 0)
(0.01994535 -0.1079931 0)
(0.01831305 -0.1291031 0)
(0.01665038 -0.1510818 0)
(0.01497753 -0.1740904 0)
(0.01332103 -0.1983213 0)
(0.0117105 -0.2239904 0)
(0.01017532 -0.251315 0)
(0.008741534 -0.2805061 0)
(0.007427923 -0.3117521 0)
(0.00624756 -0.3451807 0)
(0.005211527 -0.3807931 0)
(0.004326806 -0.418377 0)
(0.003590187 -0.4574325 0)
(0.002989947 -0.4971526 0)
(0.002529254 -0.5365726 0)
(0.002214318 -0.5749821 0)
(0.001976224 -0.6129709 0)
(0.001750122 -0.6517502 0)
(0.001483574 -0.6919942 0)
(0.001198587 -0.73446 0)
(0.0008879302 -0.7804675 0)
(0.0005394152 -0.8315023 0)
(0.0001558996 -0.8663093 0)
(-0.0001630765 0.7725166 0)
(0.0009681852 0.6965316 0)
(0.003222935 0.6461284 0)
(0.006005504 0.6101934 0)
(0.009126123 0.580231 0)
(0.01231805 0.5530993 0)
(0.0154846 0.5275342 0)
(0.01853991 0.5029794 0)
(0.0214325 0.4791776 0)
(0.0241285 0.456007 0)
(0.0266142 0.4334091 0)
(0.02889117 0.4113491 0)
(0.03094947 0.3895388 0)
(0.03277867 0.3676388 0)
(0.03434531 0.3455789 0)
(0.03565662 0.3234363 0)
(0.03671446 0.3013268 0)
(0.03752529 0.2793674 0)
(0.03812418 0.257671 0)
(0.0384543 0.236387 0)
(0.03868299 0.2155425 0)
(0.0386678 0.1951631 0)
(0.0384914 0.1752614 0)
(0.03814395 0.1558163 0)
(0.03764478 0.1367825 0)
(0.03700988 0.1180987 0)
(0.03625478 0.09969452 0)
(0.03539355 0.08149478 0)
(0.03443736 0.06342531 0)
(0.0333926 0.04542473 0)
(0.03226065 0.02746209 0)
(0.03104137 0.009552352 0)
(0.02977405 -0.008247336 0)
(0.02843463 -0.02588061 0)
(0.02693741 -0.04429083 0)
(0.02535182 -0.06331736 0)
(0.02370043 -0.08292924 0)
(0.02200444 -0.1031927 0)
(0.02028041 -0.124229 0)
(0.01854492 -0.1461913 0)
(0.01681803 -0.1692539 0)
(0.01512304 -0.1936109 0)
(0.01348363 -0.2194723 0)
(0.01192246 -0.247054 0)
(0.01045995 -0.276562 0)
(0.009112033 -0.3081689 0)
(0.007888026 -0.3419793 0)
(0.006790849 -0.3779824 0)
(0.00582094 -0.415983 0)
(0.004981438 -0.4555048 0)
(0.004276877 -0.4957023 0)
(0.003700945 -0.5354848 0)
(0.003234563 -0.5740716 0)
(0.002814653 -0.6120415 0)
(0.002397656 -0.6506893 0)
(0.001955316 -0.6908189 0)
(0.001508376 -0.7331853 0)
(0.001059456 -0.7791074 0)
(0.0006098233 -0.8300659 0)
(0.0001537374 -0.8648256 0)
(-0.0002031564 0.7738008 0)
(0.001005354 0.6925378 0)
(0.003334678 0.6393008 0)
(0.00623769 0.6019596 0)
(0.009491869 0.5713706 0)
(0.01282843 0.5440839 0)
(0.01614406 0.5186722 0)
(0.01935094 0.4944763 0)
(0.02239848 0.4711638 0)
(0.02525583 0.4485542 0)
(0.02790895 0.4265394 0)
(0.03037221 0.4050417 0)
(0.03262159 0.383862 0)
(0.03463949 0.3627082 0)
(0.03638043 0.3414236 0)
(0.03783959 0.3200408 0)
(0.0390207 0.2986619 0)
(0.03992818 0.2774105 0)
(0.04057503 0.256397 0)
(0.0409697 0.235703 0)
(0.04113487 0.2154188 0)
(0.04107646 0.195595 0)
(0.0408159 0.1762145 0)
(0.04036857 0.1572419 0)
(0.03975475 0.1386292 0)
(0.03899347 0.1203181 0)
(0.03810297 0.1022434 0)
(0.03709975 0.084335 0)
(0.0359981 0.06652302 0)
(0.03481012 0.04875063 0)
(0.03354631 0.03099413 0)
(0.03221704 0.01328016 0)