# Region type : patch riser
# Faces        : 200
# Area         : 6.7000000e-01
# Scale factor : 1.0000000e+00
# Time         	areaAverage(T)
2600           	3.7699253e+02
2700           	3.7730143e+02
2800           	3.7711641e+02
2900           	3.7712085e+02
3000           	3.7737040e+02
3100           	3.7721577e+02
3200           	3.7723695e+02
