/*--------------------------------*- C++ -*----------------------------------*\
| =========                 |                                                 |
| \\      /  F ield         | OpenFOAM: The Open Source CFD Toolbox           |
|  \\    /   O peration     | Version:  2312                                  |
|   \\  /    A nd           | Website:  www.openfoam.com                      |
|    \\/     M anipulation  |                                                 |
\*---------------------------------------------------------------------------*/
FoamFile
{
    version     2.0;
    format      ascii;
    arch        "LSB;label=32;scalar=64";
    class       volScalarField;
    location    "5850";
    object      alphat;
}
// * * * * * * * * * * * * * * * * * * * * * * * * * * * * * * * * * * * * * //

dimensions      [1 -1 -1 0 0 0 0];

internalField   nonuniform List<scalar> 
12000
(
2.31876e-05
0.0001402202
0.0001528939
0.0001679026
0.0001842501
0.0001848125
0.0001672902
0.0001586573
0.0001790621
0.0002106048
0.0001855425
0.0001495232
0.0001519981
0.0001981183
0.0002084171
0.000154148
0.0001367569
0.0001722333
0.0002128185
0.0001636426
0.0001341573
0.0001547706
0.0001947632
0.0001691504
0.0001403644
0.0001477262
0.0001695382
0.000164478
0.0001501997
0.0001497924
0.0001530044
0.0001526187
0.0001556308
0.0001572767
0.0001504773
0.0001414416
0.0001408042
0.0001573417
0.0001753194
0.0001560139
0.0001247299
0.0001205288
0.0001579315
0.0002101507
0.0001510943
0.0001044871
0.0001088494
0.0001694998
0.0002371215
0.0001178313
9.047506e-05
0.0001243956
0.0001835186
0.0001200443
8.839164e-05
9.62321e-05
9.444233e-05
7.328905e-05
6.198249e-05
4.986952e-05
1.42605e-05
0.0001739642
0.0002005483
0.0002371766
0.0002658872
0.0002975537
0.0003414641
0.0003946729
0.0004482446
0.0004942445
0.0005468882
0.0006243005
0.0006994098
0.0007476543
0.0007922095
0.0008794972
0.0009828844
0.001038021
0.001061489
0.001141714
0.001262264
0.001329737
0.001342124
0.001400623
0.001515674
0.00158651
0.001609872
0.001646691
0.00171892
0.001776047
0.001809088
0.001834506
0.001853346
0.001867935
0.001885784
0.001902647
0.001902545
0.001874084
0.001836206
0.00182711
0.001818362
0.001789522
0.001705391
0.001612644
0.001226679
0.001392305
0.001440596
0.001304749
0.00118884
0.0008488168
0.001015238
0.0008779861
0.0007536317
0.0006489399
0.0005315828
0.0004022662
0.0002802686
0.0001717398
8.722099e-05
4.755651e-05
2.090562e-05
0.0002108567
0.0002992965
0.0003667032
0.0004537112
0.0005534719
0.0006668018
0.0007904364
0.000919082
0.001049303
0.001182783
0.001320239
0.001456754
0.001584911
0.001711559
0.001842436
0.001969001
0.002080604
0.002185715
0.002293403
0.002396813
0.002485445
0.002565248
0.002645015
0.002721569
0.002785928
0.002842066
0.002894668
0.002942698
0.002983724
0.003018042
0.003045631
0.003068685
0.003086665
0.003098902
0.003104364
0.003103
0.003094741
0.003079823
0.003058227
0.003028845
0.002991815
0.0029469
0.002891353
0.002827497
0.002745913
0.002654259
0.002515781
0.002250434
0.002141467
0.002106354
0.001750602
0.0015634
0.001316308
0.00109686
0.0009922632
0.000719823
0.0004013452
0.000144984
4.681728e-05
2.547827e-05
0.0002371315
0.0003782943
0.0004897022
0.0006341182
0.0007974118
0.0009759639
0.001166089
0.00136191
0.001558695
0.001756824
0.001952135
0.002135479
0.002311679
0.002475259
0.002630103
0.00277467
0.00290777
0.003031114
0.003145697
0.003251348
0.003348131
0.003437057
0.003518779
0.003593341
0.003660829
0.003721884
0.003775028
0.003824973
0.003866998
0.003902622
0.003931382
0.003954248
0.003970344
0.003979288
0.003980274
0.003973012
0.003957006
0.003931578
0.003895996
0.003849478
0.003791227
0.003720339
0.003634381
0.003535334
0.003420831
0.003289354
0.003139462
0.002970241
0.00278007
0.002306218
0.001960829
0.001822824
0.001628671
0.001519028
0.001196091
0.0008562581
0.000516719
0.0002108962
4.770982e-05
2.593716e-05
0.0002665158
0.0004622633
0.0006230558
0.000820683
0.001038799
0.001269595
0.001509584
0.001752153
0.001991785
0.002223496
0.002447225
0.002660931
0.00285662
0.00304507
0.003213367
0.003369617
0.003513617
0.003646259
0.003768554
0.003881338
0.003985448
0.004081522
0.004169978
0.004251221
0.004325661
0.004392204
0.004453682
0.004508563
0.004556257
0.00459646
0.004629521
0.004655745
0.004674423
0.004684895
0.004687068
0.004680375
0.004664271
0.00463817
0.004601468
0.004553527
0.004493663
0.004421184
0.004335023
0.00423238
0.004116613
0.003982715
0.003829789
0.003657259
0.003067666
0.002804435
0.002761349
0.002598296
0.002307712
0.001973822
0.001572262
0.001133353
0.0006741033
0.0002615418
4.782789e-05
2.681775e-05
0.0002810329
0.0005368695
0.0007418868
0.0009799443
0.001239269
0.001510488
0.001787002
0.002061806
0.002328993
0.002583691
0.002824151
0.003049993
0.003262217
0.00346054
0.003642926
0.003810471
0.003965127
0.004108251
0.00424091
0.004363976
0.004478182
0.004584053
0.00468193
0.004772056
0.004854734
0.004928633
0.004997545
0.005058216
0.005110858
0.005155344
0.005191739
0.005219789
0.005238994
0.005248621
0.005248563
0.005238172
0.005216913
0.005184108
0.005139055
0.005080995
0.00500908
0.004922362
0.004819801
0.004700137
0.004561587
0.00440371
0.004225452
0.004023264
0.003792414
0.003528389
0.003231298
0.002902535
0.00254055
0.002142422
0.001707162
0.001240057
0.0007570858
0.0003092683
4.809912e-05
2.763628e-05
0.0002948945
0.0006013743
0.0008457865
0.001114195
0.001401875
0.001698863
0.001996991
0.002289588
0.002571968
0.002841325
0.003096143
0.003336095
0.003561377
0.003771796
0.003967895
0.004149915
0.004318303
0.004474286
0.004619125
0.00475383
0.004879202
0.004995779
0.00510374
0.00520315
0.005292237
0.00537691
0.005452733
0.005519659
0.00557761
0.005626394
0.005665669
0.005695565
0.005715445
0.005724838
0.005723431
0.005710568
0.005685788
0.00564861
0.00559848
0.005534756
0.005456689
0.005363402
0.005253893
0.005126837
0.004979687
0.004814678
0.004626186
0.004410635
0.004165574
0.003889287
0.00357921
0.0032317
0.002842942
0.002409929
0.001931447
0.001410269
0.0008623434
0.0003503609
4.832504e-05
2.871656e-05
0.000304367
0.0006526434
0.0009317565
0.001221318
0.001525335
0.001835857
0.002147071
0.002453701
0.002751883
0.003035302
0.003302973
0.003554339
0.003789058
0.004009043
0.004215944
0.004411081
0.004594376
0.004765756
0.004925871
0.005074986
0.005213268
0.005341724
0.005461605
0.005573022
0.005674162
0.005767585
0.005851242
0.005924944
0.00598846
0.006041516
0.006083867
0.006115715
0.006136309
0.006145119
0.006141716
0.006125659
0.006096526
0.006053861
0.005997141
0.005925723
0.005838797
0.00573539
0.005614432
0.005475051
0.005314456
0.005132888
0.004925774
0.004690806
0.004425747
0.004127904
0.003794115
0.003421251
0.003006395
0.002547229
0.002043033
0.001497228
0.0009249285
0.0003843425
4.841616e-05
3.026526e-05
0.0003139321
0.0006904109
0.0009990854
0.001304384
0.001620011
0.001943197
0.002264885
0.002579438
0.002882296
0.003173337
0.003450452
0.003712889
0.003960715
0.004194606
0.004415323
0.004624175
0.004822107
0.005008598
0.005182555
0.005346559
0.005501072
0.005645774
0.005780057
0.005901767
0.006015779
0.006118937
0.00621106
0.006291913
0.006361224
0.00641869
0.006464144
0.006497671
0.006518573
0.006526287
0.006520353
0.006500391
0.00646606
0.006417031
0.006352975
0.006273569
0.00617801
0.006064594
0.005933189
0.005783062
0.005611484
0.005417899
0.005199148
0.004952253
0.004675249
0.004365185
0.004017826
0.003629478
0.003196293
0.002714839
0.002183359
0.001604588
0.0009943133
0.0004152128
4.859616e-05
2.937519e-05
0.0003299992
0.0007197786
0.001051475
0.001369784
0.001694082
0.002020663
0.002345906
0.002665016
0.002974705
0.00327328
0.00355955
0.003833002
0.004093645
0.004341805
0.00457779
0.004800541
0.005011911
0.005213587
0.005406252
0.005587814
0.005758318
0.005917637
0.006065557
0.006200957
0.006325909
0.00643881
0.006539365
0.006627274
0.006702226
0.006763904
0.006812162
0.006846993
0.006867864
0.006874154
0.006864998
0.006840146
0.006799301
0.006742121
0.006668198
0.00657703
0.006468516
0.006343376
0.00620016
0.00603713
0.005852601
0.005645469
0.005413642
0.005155359
0.004866345
0.004541938
0.004177411
0.003770997
0.003318887
0.002817862
0.002266753
0.001668766
0.001039211
0.0004389415
4.856014e-05
2.904672e-05
0.0003299285
0.0007333505
0.001087606
0.001419097
0.001747092
0.002075927
0.002403058
0.00272518
0.003039731
0.003345022
0.003639994
0.00392408
0.004197045
0.004458811
0.004708524
0.004948448
0.005177746
0.00539623
0.005604206
0.005801195
0.00598669
0.006160228
0.006320934
0.006469304
0.006604912
0.00672719
0.006835776
0.006930306
0.007010411
0.007075711
0.007125958
0.007160921
0.007179975
0.007182875
0.007169814
0.007140368
0.007094166
0.007030863
0.006950108
0.006851527
0.006734702
0.006599047
0.006443891
0.006267256
0.006070311
0.005850395
0.005605475
0.005332853
0.005029479
0.004692416
0.004319159
0.003902142
0.003437406
0.002921549
0.002353081
0.001734889
0.001082775
0.0004598279
4.865279e-05
3.309486e-05
0.0003105585
0.000733476
0.001109589
0.001453201
0.001786242
0.002116437
0.002444318
0.002768278
0.003086501
0.003397505
0.003700257
0.003994089
0.004278583
0.004553199
0.004818737
0.005074219
0.005319201
0.005553165
0.005775754
0.005986704
0.006185576
0.006371813
0.006544007
0.006703575
0.006849144
0.006980273
0.007096517
0.007197437
0.007282604
0.007351588
0.007404052
0.007439703
0.007458207
0.007459257
0.007442523
0.007407729
0.007354613
0.00728293
0.007192459
0.007082987
0.006954285
0.006806082
0.006638039
0.006449043
0.006239651
0.006008096
0.005752627
0.005470587
0.005158398
0.004811725
0.004425844
0.003996895
0.00351958
0.002990498
0.002408759
0.001777381
0.001112094
0.0004752547
4.855576e-05
3.236441e-05
0.0003126835
0.0007318146
0.001122387
0.001475467
0.00181262
0.002144306
0.002473082
0.002798502
0.003119424
0.00343484
0.003743961
0.004046159
0.004340846
0.00462754
0.004905258
0.005172955
0.00542982
0.005675933
0.005910974
0.006134511
0.006346113
0.006545446
0.006731643
0.006903181
0.007059097
0.00719885
0.00732195
0.007428076
0.00751693
0.007588202
0.007641673
0.007677105
0.007694062
0.007692196
0.007671204
0.007630825
0.007570847
0.007491098
0.007391449
0.007271813
0.007132126
0.006972348
0.006792348
0.006591539
0.00637028
0.006127889
0.00586309
0.005573113
0.005253966
0.00490091
0.004508775
0.004072321
0.003587437
0.003050221
0.002458398
0.001815227
0.001137009
0.000487567
4.85888e-05
3.258871e-05
0.0003059342
0.0007220559
0.001122508
0.001484351
0.001825723
0.002158352
0.002486994
0.00281289
0.003135851
0.003455206
0.003770072
0.004079366
0.004380995
0.004673688
0.004934921
0.005052568
0.005192301
0.005386286
0.005641396
0.005924755
0.006202646
0.006420672
0.00661733
0.006823691
0.007079506
0.007342309
0.007502071
0.00761261
0.0077051
0.007778962
0.007833726
0.00786901
0.007884488
0.007879872
0.007854913
0.00780941
0.007743206
0.007656173
0.007548243
0.007419411
0.007269735
0.007099345
0.00690119
0.006600993
0.006315788
0.006104645
0.005926946
0.005642325
0.005319887
0.004963713
0.00456789
0.004126902
0.003635841
0.003091215
0.002491391
0.001840139
0.001153852
0.0004962336
4.848862e-05
3.313729e-05
0.0002977983
0.0007084754
0.001115936
0.001486809
0.001834046
0.002169496
0.002499509
0.002826529
0.003150983
0.003472234
0.003789045
0.004099695
0.004402634
0.004612975
0.004760153
0.004895162
0.005021334
0.005165222
0.005327787
0.005557159
0.005819094
0.006110924
0.006371328
0.006610698
0.006829886
0.00704486
0.007253377
0.00745628
0.007656036
0.007845742
0.00797829
0.008013438
0.008027679
0.008020752
0.007992458
0.007942675
0.00787137
0.007749958
0.007590792
0.007396484
0.007163518
0.006885421
0.006594196
0.006332088
0.006103253
0.005906344
0.005732367
0.005598791
0.005360788
0.005005553
0.004609084
0.004165989
0.003671584
0.003122353
0.002517218
0.00185962
0.001166386
0.000502272
4.846795e-05
3.367856e-05
0.0002905445
0.0006945044
0.001106743
0.001485581
0.001837933
0.002176194
0.002507517
0.002835146
0.003159954
0.003481481
0.003798475
0.004109136
0.004411463
0.004596261
0.004701001
0.004788454
0.004893346
0.005059087
0.005270192
0.005484757
0.00569842
0.005924071
0.006162949
0.006402603
0.00663357
0.006848661
0.00704356
0.007222763
0.007398317
0.007578146
0.007762829
0.007820478
0.007769866
0.007737234
0.007698996
0.007643676
0.007564093
0.007455103
0.007313784
0.007139577
0.006933052
0.006695567
0.006430208
0.006145263
0.005881478
0.005680162
0.005559438
0.005484095
0.005367456
0.005033538
0.004637335
0.004193052
0.003696244
0.00314372
0.002534482
0.001872578
0.001174928
0.000506353
4.840809e-05
3.415791e-05
0.0002840335
0.0006798914
0.001093023
0.001476328
0.001834973
0.002177125
0.00251023
0.002838246
0.003162606
0.003483178
0.003798822
0.004107645
0.00439978
0.004525565
0.004608862
0.004710436
0.004865364
0.005035973
0.005215364
0.005398015
0.005603627
0.005815099
0.006043536
0.006268486
0.006480548
0.00667555
0.006852895
0.007016034
0.007174657
0.007346197
0.007555675
0.0076355
0.007570462
0.007522376
0.007477899
0.007425548
0.007354099
0.00725501
0.007123218
0.00695653
0.006754886
0.006522425
0.006270156
0.006014878
0.005775879
0.005571215
0.005428986
0.005352835
0.005292735
0.005051676
0.004656849
0.004212357
0.003714151
0.003159348
0.002547302
0.001882239
0.001180942
0.0005085757
4.836956e-05
3.456294e-05
0.0002785852
0.0006660449
0.001078525
0.00146728
0.001829544
0.002174724
0.002509457
0.002837738
0.003161346
0.003480507
0.003794395
0.004101435
0.00437728
0.004521058
0.004625537
0.004734812
0.004859942
0.005011335
0.005192855
0.005389479
0.005595429
0.005810085
0.00602431
0.006232123
0.006428482
0.006609111
0.006772301
0.006920965
0.007065686
0.007230661
0.007462674
0.00756863
0.007492498
0.007425029
0.007368517
0.007310077
0.007236347
0.007137466
0.00700737
0.006843183
0.006644766
0.006415318
0.006163145
0.005903965
0.005661469
0.005463886
0.005334541
0.005275685
0.005234476
0.005064175
0.004670866
0.004226615
0.003727626
0.003171256
0.002557031
0.001889162
0.001185585
0.0005107511
4.831185e-05
3.489252e-05
0.000274067
0.0006529393
0.001063202
0.001454424
0.00182097
0.00216963
0.002505927
0.002834347
0.003157005
0.003474464
0.003786158
0.00409075
0.004359823
0.004507609
0.004620096
0.004739337
0.00488063
0.005043739
0.00522005
0.005414847
0.005622218
0.005840152
0.006051754
0.006252707
0.00643945
0.006609398
0.006762537
0.006903098
0.007040539
0.007188368
0.007358845
0.007546639
0.007539165
0.007393575
0.007312043
0.00724515
0.007166617
0.007063442
0.006929263
0.006761457
0.006560464
0.006330387
0.006080112
0.00582418
0.005582596
0.005380098
0.00524106
0.005176862
0.005157732
0.00507017
0.004678123
0.004233878
0.003733987
0.003176192
0.002560463
0.001891548
0.001186933
0.0005110485
4.82742e-05
3.519285e-05
0.0002705291
0.0006413025
0.001048216
0.001440914
0.001810784
0.002161355
0.002499603
0.002828568
0.003150637
0.00346679
0.003776921
0.004080052
0.004370868
0.004533374
0.004660581
0.004789402
0.004933791
0.005097497
0.005279513
0.005477531
0.005687377
0.005899756
0.006103178
0.006296593
0.006475439
0.006636656
0.006779999
0.006909613
0.007035187
0.007171178
0.007332396
0.007530713
0.007543481
0.007391096
0.007290271
0.007206048
0.007115969
0.007005772
0.006867394
0.006697306
0.006495641
0.006266295
0.006017789
0.005764293
0.005525573
0.005326283
0.005190603
0.005130393
0.005119433
0.005049189
0.004682924
0.004239008
0.003738793
0.003180297
0.002563708
0.001893872
0.001188144
0.0005119416
4.82307e-05
3.54192e-05
0.0002679422
0.0006312747
0.00103404
0.001426746
0.001798977
0.00215276
0.002491896
0.002821348
0.003143191
0.003458621
0.003767914
0.004070231
0.004365108
0.004580669
0.004728817
0.00486991
0.005022424
0.005192543
0.005379388
0.00557959
0.005782497
0.005984889
0.006182613
0.006368876
0.006538422
0.006689016
0.006820769
0.006937311
0.007047382
0.007166125
0.00731497
0.007521218
0.007550536
0.007394518
0.007276703
0.007175901
0.007073489
0.006954904
0.006811034
0.006637684
0.006434781
0.006206178
0.005960125
0.005710026
0.005474403
0.005277
0.005142278
0.005084409
0.005081509
0.005027249
0.004685163
0.004241497
0.00374083
0.003181518
0.002564091
0.001893739
0.001188121
0.0005116949
4.817548e-05
3.566792e-05
0.0002662545
0.0006230339
0.001021339
0.001413429
0.001787161
0.002142709
0.0024838
0.002813841
0.003135743
0.003450935
0.003759982
0.004063166
0.004359357
0.004648419
0.004826634
0.004981447
0.005144607
0.005320196
0.005507842
0.005703961
0.005904408
0.006101887
0.006290955
0.006465333
0.006622443
0.00676047
0.006879323
0.006981918
0.007076137
0.007177407
0.007310694
0.007510666
0.007552247
0.007402037
0.007272064
0.007156353
0.007041343
0.006913662
0.006763858
0.006587149
0.006383072
0.006155226
0.005911557
0.005664999
0.005433353
0.005239687
0.005107994
0.005052708
0.005053704
0.00500869
0.004686657
0.004243011
0.003741834
0.003181807
0.002563748
0.001893066
0.001187584
0.000511529
4.814007e-05
3.583827e-05
0.0002655321
0.000616523
0.001010171
0.001400837
0.001775137
0.002132262
0.002474833
0.002806073
0.003128646
0.00344425
0.003753774
0.004057504
0.00435581
0.004648369
0.004935172
0.00512128
0.005289339
0.005470321
0.005661185
0.005855463
0.006048635
0.006236372
0.00641404
0.006577208
0.006722495
0.006848092
0.006954289
0.007043493
0.007121373
0.007200228
0.007306424
0.007492164
0.007576142
0.007434143
0.007266679
0.007137867
0.007014829
0.006880022
0.006724341
0.006543725
0.006337968
0.006110578
0.005869181
0.005626184
0.005398647
0.00520898
0.005080817
0.005028837
0.005034082
0.004996546
0.004687575
0.004243702
0.003741881
0.003181097
0.002562446
0.001891577
0.001186351
0.0005108416
4.808411e-05
3.611074e-05
0.0002652505
0.0006114768
0.001000683
0.001389523
0.001764089
0.0021224
0.002466281
0.002798773
0.003122413
0.00343901
0.003749687
0.004055033
0.004355279
0.004650297
0.004939544
0.005223915
0.005467769
0.005646609
0.005829064
0.006020999
0.006213864
0.006394967
0.006561364
0.006709046
0.006840098
0.006951646
0.007044194
0.007121002
0.007188596
0.007257083
0.00733897
0.007443082
0.007556065
0.007486464
0.007285915
0.007134484
0.006997425
0.006853589
0.006691778
0.006507269
0.00629975
0.006072648
0.005833362
0.00559389
0.005370692
0.005185564
0.005061603
0.005013247
0.005021952
0.004989223
0.004688481
0.004244093
0.003741444
0.003179804
0.002560517
0.001889413
0.001184745
0.0005101596
4.806427e-05
3.609025e-05
0.0002663973
0.0006087031
0.0009932752
0.001379763
0.001753968
0.002112971
0.002458323
0.002792333
0.00311744
0.003435522
0.003747855
0.004055202
0.004357932
0.004656114
0.004949627
0.005237895
0.005520806
0.005797525
0.006042262
0.006221729
0.006394305
0.00656341
0.006721127
0.006864561
0.006983057
0.007078832
0.007154995
0.007215601
0.007266952
0.007318433
0.007380636
0.007459038
0.007555128
0.007495422
0.00730051
0.007139244
0.006989172
0.006834502
0.00666516
0.006476119
0.006266602
0.006039686
0.005802438
0.005566466
0.005347717
0.005167459
0.005048296
0.005004299
0.005016782
0.004987423
0.004689831
0.004244686
0.003741077
0.003178541
0.002558664
0.001887459
0.001183137
0.0005093328
4.8022e-05
3.614959e-05
0.000268389
0.0006062147
0.0009865794
0.001371048
0.001744955
0.00210479
0.002451443
0.002787141
0.003114056
0.003434077
0.003748555
0.004058358
0.004363938
0.004665413
0.004962613
0.005255106
0.005542094
0.005822582
0.006095592
0.006359539
0.006600934
0.006759416
0.00690049
0.00702839
0.007132424
0.007212713
0.007272902
0.0073175
0.00735185
0.007382904
0.007420003
0.007476174
0.00756018
0.007503333
0.007312083
0.00714336
0.006982634
0.006818341
0.006641952
0.00644863
0.006237339
0.006010811
0.005775766
0.005543428
0.005329323
0.005154258
0.005040343
0.005001109
0.005017253
0.004989789
0.004691805
0.004245607
0.003740804
0.003177182
0.002556559
0.001885164
0.001181215
0.0005084378
4.801539e-05
3.76831e-05
0.0002640227
0.0005948622
0.0009820445
0.001364234
0.001737606
0.002098171
0.00244632
0.002783838
0.003112902
0.00343533
0.003752487
0.004065278
0.004374183
0.00467931
0.004980418
0.005276958
0.005568092
0.005852726
0.0061294
0.006396671
0.006652775
0.006895809
0.007092842
0.007200916
0.007284387
0.007348897
0.007393606
0.007421976
0.007439639
0.007453047
0.007470073
0.007500643
0.007559218
0.007501626
0.007320073
0.00714672
0.00697682
0.006803958
0.006621314
0.006424279
0.006211594
0.005985674
0.005752916
0.005524237
0.005314868
0.005145248
0.005037035
0.005003115
0.005023151
0.004996569
0.004694806
0.004247325
0.003741175
0.003176371
0.002554927
0.001883231
0.001179623
0.0005076049
4.799036e-05
3.943646e-05
0.0002660158
0.0005852065
0.0009802388
0.001359568
0.001732082
0.002093203
0.002442824
0.002782585
0.003114319
0.003439763
0.00376026
0.004076706
0.004389563
0.004698891
0.005004363
0.005305317
0.005600784
0.005889522
0.006169913
0.006440411
0.00669919
0.006944294
0.007174213
0.00738594
0.007466603
0.007507758
0.00753117
0.007540038
0.007538642
0.007531949
0.007526218
0.007531567
0.007564797
0.007503885
0.007327646
0.00714881
0.00697168
0.006791901
0.006603901
0.006403593
0.006189784
0.005964723
0.00573448
0.005509588
0.005305015
0.005140922
0.005038583
0.00501016
0.005033946
0.005007137
0.004698966
0.004249885
0.003742139
0.003175937
0.002553468
0.00188127
0.001177782
0.0005066795
4.799907e-05
4.033826e-05
0.0002696429
0.0005763024
0.0009738079
0.001356628
0.001728176
0.002090095
0.002441693
0.002784185
0.003119114
0.003448225
0.00377279
0.004093641
0.004411167
0.004725334
0.005035699
0.005341466
0.005641474
0.005934127
0.00621813
0.006491622
0.006752688
0.006999456
0.007229729
0.007441552
0.007633054
0.007698097
0.007699929
0.007682367
0.00765699
0.007629343
0.007602499
0.007577348
0.007549347
0.007504606
0.007360446
0.007153119
0.006965891
0.006781354
0.006589979
0.006387459
0.006172893
0.005948494
0.005720104
0.005498306
0.00529819
0.005139684
0.005043629
0.005021325
0.005049332
0.005021714
0.004704669
0.004253613
0.003744092
0.003176384
0.002552811
0.001880031
0.001176589
0.0005059548
4.798989e-05
4.044441e-05
0.0002728976
0.0005687678
0.0009595974
0.001356407
0.001726801
0.002089466
0.002443212
0.002788739
0.003127748
0.003461328
0.003790839
0.004116973
0.00444001
0.004759737
0.005075448
0.005386028
0.005690339
0.005987146
0.006274514
0.006550563
0.006813321
0.007060982
0.007291179
0.007502175
0.007692171
0.007859527
0.007879391
0.007842172
0.007790765
0.007736847
0.007684306
0.007632328
0.007575198
0.007507001
0.007362601
0.007159895
0.006967501
0.00677662
0.006580521
0.006375138
0.006159482
0.005936435
0.005711196
0.005493716
0.005298236
0.00514495
0.005054695
0.0050378
0.005069295
0.005039498
0.004711321
0.004258453
0.003746916
0.003177481
0.00255257
0.001878946
0.001175277
0.0005051525
4.800019e-05
4.035985e-05
0.0002757357
0.0005620539
0.0009480586
0.001357173
0.001727116
0.002091244
0.002447973
0.002797471
0.003141198
0.003480559
0.003816009
0.004148158
0.004477021
0.004802189
0.005123249
0.005439149
0.005748324
0.006049006
0.006339351
0.006617409
0.006881174
0.007128906
0.007358197
0.007567467
0.007755041
0.007919424
0.008047215
0.008016269
0.007942003
0.007859151
0.007776485
0.007694078
0.007610032
0.007520419
0.007370001
0.007169111
0.006972946
0.006777588
0.006578457
0.006372941
0.006159267
0.00593746
0.005712207
0.005494955
0.005303558
0.005155644
0.005071389
0.00506155
0.005097921
0.005066449
0.004719688
0.004264383
0.003750813
0.003179613
0.002553292
0.001878711
0.001174629
0.0005047007
4.80142e-05
4.069097e-05
0.0002790056
0.0005569197
0.0009360898
0.001361018
0.001730752
0.002096407
0.00245612
0.002810191
0.003159291
0.003504329
0.003846188
0.004185077
0.004520891
0.004853074
0.005180435
0.005501723
0.005815359
0.006119536
0.006412323
0.006691724
0.006955783
0.007202523
0.007430103
0.007636832
0.007821188
0.00798185
0.008117712
0.008184067
0.008110337
0.007999443
0.007883601
0.007770127
0.007655602
0.007535709
0.007373457
0.007174747
0.006976541
0.006778896
0.006578277
0.006369878
0.006152323
0.005929443
0.005710549
0.005502119
0.005315878
0.005171721
0.005091015
0.005085201
0.005123997
0.00508823
0.004729246
0.004271618
0.003755873
0.00318262
0.002554623
0.001878818
0.001174076
0.0005041852
4.802986e-05
4.0837e-05
0.0002819215
0.0005525867
0.0009271323
0.00136502
0.001735601
0.002103878
0.002467866
0.002827434
0.003183076
0.003535403
0.003884819
0.004231316
0.004574463
0.004913402
0.005246883
0.005573386
0.005891163
0.006198309
0.006492844
0.00677279
0.007036285
0.00728137
0.007506386
0.00770978
0.007890196
0.00804649
0.008177747
0.008283277
0.008259562
0.008139431
0.007994978
0.007849333
0.007704543
0.007553651
0.007376823
0.007178533
0.006978118
0.006775647
0.006569411
0.006358339
0.006144732
0.005929097
0.005713092
0.005506714
0.005324097
0.005185682
0.005110751
0.005106581
0.005145285
0.005106584
0.004739963
0.004279885
0.00376182
0.003186538
0.002556825
0.001879672
0.001174057
0.000503913
4.806628e-05
4.129926e-05
0.0002854714
0.0005500619
0.0009210282
0.00137194
0.001744149
0.002115789
0.002484787
0.002850704
0.003213713
0.003574046
0.003931707
0.004286334
0.004637167
0.00498306
0.005322546
0.005653912
0.005975281
0.006284697
0.006580206
0.006859895
0.00712198
0.007364636
0.007586343
0.007785718
0.007961592
0.008113011
0.008239248
0.008339793
0.00840419
0.008287633
0.008118258
0.007941215
0.007766883
0.007585173
0.007389165
0.007184974
0.006979657
0.006775503
0.006571801
0.006366219
0.006154452
0.005937276
0.005720025
0.005513734
0.005334052
0.005199982
0.005131619
0.005136418
0.005179151
0.005134999
0.004752331
0.004289518
0.003768914
0.003191401
0.002559729
0.001881006
0.001174307
0.0005037446
4.810089e-05
4.135772e-05
0.0002886039
0.0005479212
0.0009128367
0.001379105
0.001753826
0.002129917
0.002505027
0.002878481
0.003249987
0.003619303
0.003985977
0.004349238
0.004707979
0.005060776
0.005405966
0.005741717
0.006066106
0.006377183
0.006673039
0.006951829
0.007211822
0.007451426
0.007669246
0.007864095
0.008034999
0.008181209
0.008302188
0.008397612
0.008467268
0.008414657
0.008238396
0.008032875
0.007833326
0.007623418
0.007403329
0.007191809
0.006986668
0.006785662
0.006583881
0.006377428
0.006164866
0.005948521
0.005734334
0.00553167
0.005355595
0.005225553
0.005160703
0.005167239
0.005209823
0.005162238
0.004765724
0.004300013
0.003776761
0.00319692
0.002563144
0.001882728
0.001174813
0.0005036985
4.814212e-05
4.166652e-05
0.0002922104
0.0005478265
0.0009109252
0.001389234
0.001768011
0.002149878
0.002532413
0.002914422
0.003295161
0.003673917
0.004049789
0.004421616
0.004787975
0.005147209
0.005497503
0.005836958
0.006163635
0.006475613
0.006770976
0.007048093
0.007305309
0.007541216
0.007754607
0.007944491
0.008110094
0.008250851
0.0083664
0.008456651
0.008521511
0.00852504
0.008348616
0.008122809
0.007903096
0.007668905
0.007426123
0.007205969
0.006999088
0.006797575
0.0065962
0.006390956
0.006180497
0.005965873
0.005752779
0.00555177
0.005378608
0.005253093
0.005194215
0.005206707
0.005250953
0.005192172
0.004780798
0.004312112
0.003786151
0.00320383
0.002567947
0.001885643
0.001176139
0.0005039194
4.81844e-05
4.275368e-05
0.0002944629
0.0005485937
0.0009088006
0.001388845
0.001783888
0.002171983
0.00256261
0.002953928
0.003344607
0.003733386
0.004118885
0.004499549
0.004873645
0.005239298
0.005594554
0.005937435
0.006265987
0.006578335
0.00687266
0.007147527
0.007401449
0.007633218
0.007841837
0.008026523
0.008186703
0.008322006
0.008432267
0.008517379
0.008577526
0.008612935
0.008451906
0.008213991
0.007978727
0.007721072
0.007454737
0.007224003
0.007014421
0.006814108
0.006614589
0.00641069
0.006200653
0.005986384
0.005774065
0.005574543
0.005403856
0.005281992
0.005227565
0.005243485
0.00528551
0.005210873
0.004796486
0.004324936
0.003796275
0.003211436
0.002573221
0.001888916
0.001177813
0.0005045663
4.823332e-05
4.14108e-05
0.0003041752
0.0005500975
0.0009061486
0.001388755
0.001802988
0.002198242
0.002597866
0.002999329
0.003400625
0.003799893
0.004195251
0.004584746
0.004966356
0.005338013
0.005697658
0.006043286
0.006372986
0.006684992
0.006977655
0.007249692
0.007499835
0.007727087
0.00793066
0.008109976
0.00826465
0.008394485
0.008499479
0.008579687
0.00863533
0.008666713
0.008543488
0.008302892
0.008055233
0.007776414
0.007488226
0.00724751
0.007035111
0.006835183
0.006636866
0.006434016
0.006224622
0.0060107
0.005798782
0.005600266
0.005431731
0.005313437
0.005263532
0.00528283
0.005322123
0.005230902
0.004813373
0.004338805
0.003807281
0.003219773
0.002579153
0.001892468
0.001179433
0.0005048838
4.828859e-05
4.057119e-05
0.0003081307
0.0005518725
0.0009056565
0.001390105
0.001824951
0.002228615
0.002638216
0.003050563
0.003462973
0.003872974
0.004278189
0.00467629
0.005064998
0.005442101
0.005805491
0.006153197
0.00648341
0.006794309
0.007084849
0.007353653
0.007599713
0.007822249
0.008020682
0.008194627
0.008343876
0.00846848
0.008568404
0.008643896
0.008695255
0.008722841
0.008624668
0.008380612
0.008122578
0.007827817
0.007522099
0.007273158
0.007058708
0.006859661
0.00666289
0.006461095
0.006252046
0.006038087
0.005826243
0.005628458
0.005461784
0.00534668
0.005300798
0.005322941
0.005359225
0.005251936
0.004831214
0.004353582
0.00381913
0.003228835
0.002585581
0.001896712
0.001181727
0.0005057089
4.835331e-05
4.150767e-05
0.0003053605
0.0005546023
0.000905786
0.001392987
0.001849733
0.002262786
0.002683155
0.003106952
0.0035308
0.003951622
0.004366566
0.004772963
0.005168324
0.005550339
0.005916898
0.006266104
0.006596276
0.006905651
0.007193636
0.007458913
0.007700705
0.007918445
0.008111754
0.008280433
0.008424524
0.008543969
0.00863905
0.008710062
0.008757362
0.008781349
0.008691295
0.008444834
0.008180965
0.007872974
0.007554306
0.007300175
0.007085121
0.006887406
0.006692138
0.00649118
0.006282145
0.006067862
0.00585578
0.005658406
0.005493273
0.005381012
0.005338719
0.005363179
0.005396155
0.005273841
0.004849858
0.004369084
0.003831624
0.003238469
0.002592521
0.001901143
0.001184013
0.0005064549
4.841195e-05
4.329911e-05
0.0003073266
0.0005586868
0.000907478
0.001396871
0.001877644
0.002300795
0.002732552
0.003168217
0.003603675
0.004035259
0.004459671
0.004873953
0.005275452
0.005661812
0.006030965
0.006381124
0.006710764