/*--------------------------------*- C++ -*----------------------------------*\
| =========                 |                                                 |
| \\      /  F ield         | OpenFOAM: The Open Source CFD Toolbox           |
|  \\    /   O peration     | Version:  2312                                  |
|   \\  /    A nd           | Website:  www.openfoam.com                      |
|    \\/     M anipulation  |                                                 |
\*---------------------------------------------------------------------------*/
FoamFile
{
    version     2.0;
    format      ascii;
    arch        "LSB;label=32;scalar=64";
    class       volScalarField;
    location    "5850";
    object      G;
}
// * * * * * * * * * * * * * * * * * * * * * * * * * * * * * * * * * * * * * //

dimensions      [1 0 -3 0 0 0 0];

internalField   nonuniform List<scalar> 
12000
(
26940.33
24051.45
22762.37
21803.05
20795.42
19776.14
18904.86
18268.33
17846.88
17567.82
17369.2
17243.39
17238.62
17406.21
17728.23
18090.67
18334.32
18346.56
18122.04
17748.21
17333.46
16936.67
16547.34
16121.24
15635.71
15121.99
14655.82
14319.35
14162.15
14182.5
14332.86
14539.49
14724.07
14820.31
14785.08
14605.24
14300.04
13917.04
13521.04
13178.13
12939.79
12832.58
12855.84
12987.59
13194.77
13443.38
13704.56
13955.75
14180.11
14365.66
14505.59
14598.88
14651.1
14674.2
14680.63
14674.55
14651.33
14596.03
14528.49
14346.71
29432
27587.6
26063.09
24632.94
23188.05
21917.74
20976.58
20330.51
19851.75
19435.55
19058.8
18783.01
18698.23
18832.41
19096.76
19320
19348.53
19133.01
18736.99
18270.51
17807.51
17348.87
16849.21
16276.16
15653.45
15059.58
14589.33
14307.56
14222.64
14288.48
14426.54
14552.77
14598.49
14522.48
14315.86
14001.65
13628.99
13261.59
12962.28
12778.21
12731.45
12817.9
13013.41
13283.31
13590.94
13902.94
14191.63
14435.96
14622.27
14744.49
14803.41
14805.49
14762.19
14689.08
14602.49
14512.83
14419.87
14308.34
14193.64
13977.71
29836.99
28682.03
27214.12
25786.27
24501.46
23404.18
22503.68
21754.62
21096.96
20505.96
20024.86
19746.58
19735.13
19944.19
20211.16
20341.27
20217.36
19851.73
19348.74
18817.43
18303.71
17785.57
17221.54
16606.78
15994.77
15474.39
15123.86
14973.11
14993.58
15114.43
15250.78
15328.96
15301.59
15152.7
14896.5
14572.1
14234.44
13941.87
13742.67
13664.48
13710.16
13861.04
14085.1
14346.25
14610.95
14851.1
15044.84
15177.13
15241.11
15238.78
15179.61
15077.18
14945.8
14798.82
14648.47
14503.77
14366.78
14224.35
14087.11
13852.71
29858.74
29057.55
27518.41
26031.27
24980.71
24182.76
23392.71
22549.02
21720.1
21016.48
20555.46
20415.42
20565.99
20842.73
21014.81
20907.32
20488.61
19862.71
19181.97
18550.27
17982.66
17436.11
16874.58
16315.27
15827.42
15492.5
15357.87
15412.6
15594.16
15815.31
15993.8
16072.47
16026.94
15864.51
15618.32
15338.86
15082.94
14901.02
14825.94
14866.57
15008.51
15220.99
15466.53
15709.53
15921.06
16079.75
16171.12
16187.43
16128.78
16004.06
15829.55
15624.55
15405.9
15184.79
14967.65
14757.88
14557.35
14355.41
14176.19
13876.73
29708.8
29087.02
27552.53
25995.47
24972.31
24289.96
23607.71
22813.13
22000.94
21344.7
20992.7
20980.91
21188.36
21382.4
21340.84
20969.61
20335.37
19598.43
18902.72
18302.04
17763.57
17229.67
16683.08
16169.79
15771.86
15557.01
15540.47
15678.62
15890.8
16091.59
16216.38
16233.07
16141.88
15969.06
15758.3
15560.95
15425.03
15384.5
15451.87
15616.75
15850.7
16116
16374.82
16595.69
16756.14
16842.38
16847.94
16772.91
16624.36
16416.86
16171.25
15910.2
15651.79
15404.63
15168.72
14940.03
14718.85
14500.49
14322.37
14032.36
29516.29
28879.14
27496.97
25932.97
24654.95
23764.04
23123.34
22558.89
22017.18
21580.56
21354.68
21341.54
21406.23
21356.91
21068.14
20553.01
19936.63
19359.58
18886.58
18482.82
18063.88
17572.58
17025.75
16504.23
16102.22
15874.46
15812.56
15856.88
15928.82
15962.17
15920.25
15797.85
15614.6
15406.21
15215.99
15086.27
15049.42
15120.07
15291.66
15538.92
15825.13
16111.13
16362.57
16553.91
16669.49
16702.71
16654.66
16532.84
16350.35
16125.19
15878.99
15633.53
15405.13
15199.58
15012.45
14835.04
14666.22
14508.76
14396.85
14231.07
29340.28
28467.1
27225.03
25650.34
24038.45
22846.5
22198.3
21876.63
21666.15
21520.61
21466.31
21462.9
21385.95
21118.31
20645
20067.72
19531.81
19126.21
18830.67
18543.63
18162.63
17656.31
17081.66
16543.99
16134.28
15885.24
15766.45
15711.43
15653.49
15550.18
15389.71
15184.65
14962.27
14756.61
14602.71
14530.53
14558.3
14687.24
14900.52
15167.5
15451.37
15716.85
15935.3
16086.88
16160.95
16155.82
16077.95
15940.4
15760.48
15557.46
15350.62
15157.12
14988.77
14848.69
14731.53
14629.37
14542.13
14477.72
14454.89
14447.36
28947.82
27441.3
26114.2
24540.76
22876.35
21605.44
20910.73
20649.34
20639.58
20786.95
21012.44
21178.28
21124.41
20769.67
20171.74
19490.18
18882.32
18410.69
18024.96
17622
17132.34
16571.03
16025.03
15596.17
15343.18
15257.52
15278.9
15331.78
15357.76
15329.34
15246.3
15124.91
14988.92
14865.02
14780.03
14756.85
14808.72
14934.74
15119.22
15335.69
15553.53
15744.08
15884.34
15958.63
15959.47
15888.31
15755.46
15578.25
15377.38
15172.8
14980.73
14812.51
14674.36
14566.99
14486.49
14428.62
14395.25
14393.36
14425.58
14503.64
27508.61
25295.5
24018.58
22846.21
21646.85
20540.54
19717.83
19331.22
19409.75
19833.59
20368.06
20744.92
20769
20398.82
19748.3
19004.1
18313.6
17718.03
17168.78
16602.52
16012.71
15467.61
15070.57
14897.89
14957.91
15191.97
15507.8
15819.35
16070.89
16239.9
16326.83
16343.94
16309.47
16246.21
16179.96
16135.09
16128.21
16163.06
16229.65
16307.83
16373.17
16402.49
16377.48
16286.75
16127.37
15906.06
15638.98
15349.09
15061.27
14796.77
14569.22
14384.16
14241.46
14138.58
14072.42
14040.54
14042.45
14076.51
14128.65
14217.63
11220.63
14688.19
16321.03
17175.86
17458.28
17175.93
16714.95
16591.43
17035.23
17888.99
18789.62
19406.51
19586.31
19371.35
18923.15
18408.01
17909.45
17413.86
16867.76
16257.26
15649.33
15168.94
14934.23
14996.38
15320.35
15809.59
16351.76
16856.37
17269.69
17569.77
17754.52
17833.3
17824.39
17754.15
17653.77
17552.32
17469.04
17408.3
17359.72
17302.66
17213.11
17069.91
16859.03
16575.94
16226.84
15828.66
15407.4
14993.88
14617.61
14300.47
14052.59
13872.59
13752.55
13684.65
13664.58
13688.69
13749
13829.88
13902.84
13991
10776.56
13450.88
14880.58
15699.63
16000.07
15808.91
15469.99
15454.33
15969.69
16831.5
17661.33
18166.97
18281.16
18120.6
17852.46
17573.44
17267.37
16851.54
16268.93
15558.49
14856.93
14335.72
14119.5
14236.25
14621.14
15159.6
15736.91
16268.76
16706.98
17030.8
17237.22
17336.68
17352.13
17316.19
17263.9
17223.05
17206.14
17207.42
17205.79
17172.08
17077.67
16901.86
16636.34
16286.74
15871.85
15421.29
14971.3
14558.86
14214.79
13957.79
13791.32
13705.38
13683.35
13711.2
13782.09
13890.68
14022.41
14149.46
14244.77
14325.76
25479.21
21125.89
19523.36
18608.63
17759.69
16981.56
16426.69
16265.48
16526.53
17010.01
17413.77
17543.93
17412.07
17166.13
16943.61
16766.23
16540.24
16145.49
15540.42
14808.8
14122.44
13652.89
13492.7
13629.18
13972.71
14409.82
14846.13
15222.96
15512.44
15706.62
15811.09
15844.17
15836.02
15822.79
15836.43
15894.31
15993.6
16112.26
16215.91
16267.52
16237.05
16108.47
15882.81
15577.4
15222.24
14854.91
14514.59
14235.68
14041.77
13941.45
13927.61
13981.12
14078.59
14201.32
14339.59
14486.68
14627.83
14733.3
14798.47
14794.29
10181.36
11596.78
12653.09
13369.33
13626.85
13660.18
13773.01
14110.19
14629.46
15163.54
15531.96
15655.77
15598.56
15501.19
15463.87
15472.38
15424.51
15228.2
14888.52
14518.03
14270.3
14251.12
14467.95
14840.98
15255.24
15613.88
15864.37
15994.98
16017.54
15953.5
15829.56
15678.55
15537.81
15441.99
15412.96
15452.46
15541.35
15645.52
15725.65
15747.47
15689.76
15548.59
15337.38
15083.03
14819.81
14582.58
14400.9
14294.39
14269.62
14319.26
14424.39
14559.83
14700.85
14828.56
14931.59
15002.11
15032.65
15004.48
14949.16
14739.53
8973.006
10024.43
11076.23
12088.92
12822.08
13272.29
13629.53
13991.82
14323.37
14560.62
14675.64
14684.18
14638.26
14597.75
14583.44
14556.77
14460.67
14291.54
14134.63
14125.96
14368.62
14866.55
15519.84
16176.96
16703.41
17025.93
17136.72
17070.62
16877.95
16608.86
16309.88
16024.7
15791.87
15637.83
15569.79
15573.55
15618.28
15666.36
15684.05
15649.67
15557.73
15418.88
15256.43
15100.15
14979.01
14914.68
14917.37
14984.65
15102.62
15249.03
15398.06
15525.78
15613.82
15649.33
15623.09
15529.03
15371.99
15151.23
14936.29
14488.74
8603.884
9135.64
9821.043
10694.46
11709.58
12684.16
13440.01
13847.98
13891.52
13700.09
13470.92
13350.68
13378.67
13499.22
13606.24
13603.4
13468.46
13286.87
13220.49
13420.62
13940.16
14701.93
15538.61
16271.6
16779.05
17021.3
17025.25
16851.16
16565.15
16227.17
15889.77
15598.31
15387.28
15273.73
15252.96
15300.56
15381.11
15459.64
15511.53
15527.57
15513.95
15488.64
15475.7
15498.58
15573.69
15705.5
15884.74
16090.48
16295.17
16470.93
16595.21
16654.27
16642.48
16557.62
16396.93
16159.83
15861.75
15516.55
15212.86
14669.98
8520.865
8820.69
9270.568
9956.309
11068.59
12431.96
13567.69
14072.09
13883.63
13271.8
12635
12279.11
12296.51
12574.7
12901.71
13105.02
13150.38
13148.72
13273.87
13648.87
14273.27
15029.18
15748.56
16291.45
16590.79
16651.5
16521.25
16259.59
15921.63
15556.16
15208.9
14922.01
14728.07
14642.18
14658.13
14751.7
14890.02
15042.81
15190.66
15327.79
15460.01
15599.8
15760.86
15953.09
16178.41
16428.06
16682.4
16914.46
17096.8
17208.94
17242.13
17199.14
17089.17
16920.79
16698.43
16426.8
16122.61
15804.36
15542.68
15135.76
8501.235
8636.393
8965.593
9616.456
10798.89
12330.53
13633.43
14196.35
13917.25
13089.07
12180.49
11591.72
11487.15
11769.55
12200.75
12581.9
12868.51
13155.76
13570.51
14162.92
14869.69
15556.7
16095.25
16417.2
16523.58
16457.28
16268.73
15996.95
15670.21
15316.34
14970.17
14671.69
14456.82
14347.2
14344.85
14434.42
14591.05
14789.76
15012.09
15248.01
15493.83
15748.33
16009.42
16271.89
16526.28
16758.15
16948.67
17077.73
17130.01
17101.43
17001.61
16849.81
16666.68
16467.19
16259.38
16048.88
15844.54
15660.29
15521.7
15377.39
8515.304
8522.38
8791.095
9550.883
10854.32
12383.49
13597.41
14092.23
13811.56
13015.93
12124.07
11511.17
11340.02
11525.57
11859.75
12191.34
12517.05
12933.63
13519.69
14253.27
15018.72
15677.9
16142.31
16399.43
16490.45
16468.09
16366.78
16198.56
15967.51
15686.75
15385.48
15103.91
14881.21
14744.12
14701.68
14746.92
14863.29
15031.98
15236.71
15464.94
15706.29
15950.08
16183.79
16393.16
16563.39
16680.39
16731.92
16709.67
16612.95
16452.54
16250.55
16034.3
15827.27
15643.86
15490.66
15370.56
15283.04
15233.7
15206.14
15269.53
8537.635
8470.266
8753.105
9680.431
11077.53
12468.37
13438.89
13802.55
13592.13
13015.55
12379.94
11949.36
11811.2
11870.85
11981.89
12089.28
12263.97
12620.08
13204.36
13950.8
14722.04
15389.96
15892.08
16234.35
16455.4
16587.58
16640.34
16608.61
16491.77
16306.96
16088.87
15878.83
15711.19
15604.48
15560.14
15567.49
15611.1
15676.95
15755.36
15840.72
15929.02
16015.13
16090.93
16145.51
16167.03
16145.44
16074.8
15954.87
15792.48
15602.21
15404.68
15221.33
15067.99
14952.58
14877.59
14843.2
14844.37
14879.72
14912.41
15057.56
8547.723
8487.922
8898.93
9967.907
11307.41
12435.3
13154.9
13478.85
13474.35
13250.09
12959.04
12720.95
12551.51
12394.63
12223.7
12103.86
12158.4
12478.26
13055.4
13787.84
14541.28
15214.69
15767.48
16203.37
16536.72
16770.41
16896.92
16914.33
16840.63
16714.98
16585.4
16491.15
16449.82
16454.64
16481.51
16500.71
16487.68
16429.35
16325.34
16185.27
16024.01
15856.59
15693.84
15540.2
15394.47
15253.06
15113.88
14978.56
14852.12
14741.19
14652.07
14589.29
14554.76
14548.54
14570.38
14620.08
14692.58
14783.26
14851.8
15019.77
8541.704
8600.061
9243.466
10352.56
11447.41
12263.13
12848.06
13301.93
13635.93
13819.21
13828.7
13646.88
13277.31
12792.46
12349.03
12130.65
12255.64
12719.91
13411.46
14177.48
14894.85
15503.59
15995.66
16381.29
16662.71
16831.12
16882.43
16835.18
16735.45
16644.49
16616.06
16675.76
16812.46
16984.38
17135.29
17212.81
17182
17031.16
16770.64
16427.27
16037.04
15637.39
15260.26
14927.35
14649.13
14428.1
14263.95
14156.84
14106.3
14107.67
14150.58
14221.94
14311.44
14414.71
14532.07
14664.71
14808.21
14958.87
15076.09
15300.08
8536.946
8843.853
9743.251
10756.65
11534.61
12138.35
12747.65
13420.06
14086.77
14609.55
14819.8
14595.5
13972.42
13185.08
12569.79
12390.22
12712.29
13404.11
14237.31
15008.47
15609.67
16027.61
16298.01
16457.87
16524.63
16504.91
16415.91
16299.28
16216.51
16228.19
16369.14
16632.65
16970.98
17310.82
17575.7
17706.06
17670.86
17469.34
17125.77
16680.83
16182.63
15678.65
15208.85
14800.95
14469.34
14218.45
14048.4
13958.79
13947.28
14004.82
14113.69
14252.87
14407.38
14572.99
14752.21
14947.08
15152.27
15367.92
15549.87
15878.18
8573.337
9254.327
10343.38
11203.04
11793.27
12371.76
13071.56
13884.21
14737.7
15463.75
15801.89
15559.57
14802.28
13873.63
13209.54
13094.86
13537.03
14315.43
15136.83
15781.5
16165.35
16315.58
16306.56
16206.82
16061.56
15903.98
15773.39
15721.03
15798.51
16036.37
16426.3
16917.43
17428.82
17872.18
18174.87
18295.04
18225.44
17987.81
17622.23
17176.1
16695.61
16220.28
15779.87
15393.19
15069.11
14810.18
14617.53
14493.85
14441.6
14457.7
14530.29
14642.82
14783.05
14948.29
15140.89
15360.92
15600.52
15863.84
16101.39
16525.84
8715.95
9887.831
11115.15
11936.92
12558.73
13185.85
13869.19
14651.17
15536.24
16348.8
16767.32
16566.84
15831.44
14933.16
14305.57
14200.09
14587.59
15233.27
15858.03
16273.62
16428.84
16375.4
16203.43
15993.98
15805.86
15685.48
15677.86
15824.56
16148.78
16638.65
17240.95
17870.77
18433.54
18849.77
19072.88
19094.77
18939.89
18652.38
18281.79
17872.04
17455.49
17052.19
16672.37
16320.23
15997.6
15707.01
15453.97
15247.6
15098.44
15014.05
14994.93
15035
15126.78
15266.05
15450.15
15674.18
15927.17
16214.2
16480.93
16943.12
9255.009
11206.52
12643.61
13584.03
14273.87
14797.42
15277.24
15906.3
16730.57
17524.82
17943.98
17798.43
17199.11
16475.79
15966.92
15842.33
16055.93
16422.33
16742.98
16900.77
16883.46
16749.14
16575.04
16424.92
16343.94
16368.1
16529.39
16848.48
17319.8
17901.17
18517.5
19078.78
19504.58
19744.47
19786.74
19654.44
19392.61
19052.74
18679.53
18302.95
17936.52
17581.06
17231.51
16883.97
16540.22
16208.57
15901.95
15635.29
15423.43
15279.33
15211.29
15220.31
15299.95
15439.89
15629.45
15859.37
16118.14
16408.19
16674.53
17102.83
10983.75
13728.95
15161.85
15987.12
16432.45
16622.73
16832.43
17305.5
18007.49
18656.02
18969.98
18870.15
18488.21
18041.94
17702.49
17529.27
17480.02
17466.65
17416.56
17307.01
17161.8
17024.2
16930.55
16901.4
16948.59
17084.91
17324.03
17669.06
18098.92
18563.75
18994.6
19323.3
19502.66
19517.91
19386.11
19145.78
18842.76
18517.58
18197.41
17893.35
17602.76
17315.44
17021.68
16719.21
16416.1
16128.25
15873.5
15666.43
15517.15
15433.3
15420.69
15479.68
15601.01
15767.66
15963.45
16180.29
16412.95
16661.2
16882.05
17194.63
28032.53
25269.1
23846.21
22877.91
21935.21
21091.62
20611.55
20576.25
20776.31
20917.42
20856.13
20634.49
20355.88
20071.3
19762.95
19393.38
18954.54
18482.65
18041.37
17691.5
17465.73
17360.12
17344.5
17384.12
17458.84
17568.58
17722.83
17922.61
18147.44
18355.98
18499.73
18541.39
18468.06
18293.52
18050.48
17777.97
17509.79
17267.67
17059.38
16880.81
16720.48
16565.73
16409.03
16252.5
16107.91
15991.73
15917.42
15890.01
15906.59
15961.76
16051.89
16172.94
16314.41
16459.12
16593
16715.29
16833.53
16949.49
17048.88
17145.77
29743.71
27784.69
26321.53
25164.46
23992.51
22971.12
22371.73
22159.76
22064.43
21893.76
21673.7
21523.29
21473.33
21416.88
21198.95
20738.28
20085.14
19390.05
18819.18
18473.92
18356.83
18391.92
18477.23
18535.99
18541.27
18508.28
18466.63
18432.41
18395.72
18327.39
18197.12
17990.84
17718.28
17408.8
17099.8
16824.65
16604.86
16448.18
16351.03
16302.78
16290.39
16302.72
16333.99
16385.23
16462.26
16570.48
16708.81
16866.51
17025.82
17168.93
17284.21
17366.3
17410.89
17411.5
17364.99
17279.78
17175.79
17061.36
16961.12
16761.62
30263.18
29090.64
27755.89
26599.18
25561.19
24727.2
24169.19
23741.23
23261.86
22748.69
22382.77
22295.04
22423.48
22547.6
22437.44
21996.44
21311.42
20591.96
20047.43
19780.1
19752.32
19832.81
19880.84
19814.4
19630.47
19379.37
19119.6
18882.72
18664.09
18436.99
18175.85
17873.79
17546.86
17226.54
16947.26
16735.75
16606.02
16559.99
16591.27
16689.37
16843
17042
17278.19
17544.58
17833.12
18131.44
18420.75
18676.46
18872.15
18985.6
19004.36
18927.96
18765.22
18528.69
18231.62
17889.53
17526.87
17156.72
16842.26
16355.26
30393.51
29692.74
28365.4
27071.27
26235.43
25823.22
25476.75
24864.85
23978.02
23107.16
22580.9
22529.24
22825.47
23182.99
23317.86
23089.85
22555.18
21907.76
21351.39
20986.47
20777.08
20603.6
20351.92
19978.69
19520.41
19055.65
18653.85
18342.78
18107.1
17909.61
17717.46
17518.68
17324.1
17158.54
17048.85
17014.84
17065.77
17201.43
17415.5
17698.74
18040.71
18430.07
18853.57
19294.48
19731.14
20136.9
20482.09
20737.7
20879.2
20889.57
20762.31
20504.73
20138.69
19694.73
19201.28
18677.19
18141.75
17603.9
17154.82
16498.74
30396.95
30008.5
28716.6
27281.35
26560.21
26465.73
26274.52
25512.91
24328.12
23215.01
22594.77
22601.79
23088.99
23740.95
24223.75
24323.68
24016.13
23430.34
22741.24
22065.29
21423.17
20775.2
20086.89
19372.84
18694.94
18126.4
17712.49
17452.57
17309.14
17232.46
17184.23
17149.41
17134.65
17158.81
17242.06
17398.29
17632.41
17941.24
18316.38
18746.82
19220.18
19722.36
20235.88
20738.26
21201.98
21596.84
21894.53
22072.98
22118.42
22024.78
21793.76
21437.99
20984.51
20470.76
19930.93
19382.32
18832.97
18278.55
17819.54
17146.1
30331.91
30062.24
28914.25
27582.34
26904.89
26734.83
26359.43
25429.27
24203.82
23184.21
22728.94
22916.95
23581.73
24409.26
25063.52
25308.5
25074.2
24437.6
23545.25
22535.27
21500.99
20499.02
19574.94
18777.64
18152.21
17721.34
17472.8
17363.4
17336.83
17344.77
17360.73
17382.4
17424.84
17509.88
17656.65
17875.8
18167.72
18524.12
18931.19
19372.97
19833.32
20295.87
20742.42
21151.63
21499.8
21764.37
21928.55
21984.27
21931.49
21775.06
21522.86
21187.84
20791.78
20363.71
19929.72
19499.31
19069.53
18620.64
18243.19
17639.14
30225.11
29881.95
28994.24
28057.27
27350.61
26654.56
25722.49
24629.53
23679.66
23154.46
23169.12
23655.42
24404.69
25141.62
25614.72
25669.12
25270.68
24483.59
23429.22
22250.56
21088.79
20066.24
19270.52
18741.02
18464.04
18381.09
18409.52
18468.16
18498.64
18475.75
18405.61
18315.38
18240.16
18211.66
18251.06
18366.1
18551.61
18792.66
19069.26
19361
19650.04
19921.55
20162.06
20358.08
20496.86
20569.44
20573.77
20515.2
20403.76
20250.29
20064.16
19853.58
19627.15
19393.97
19160.74
18924.88
18677.78
18390.04
18129.99
17613.88
30079.44
29544.13
28994.77
28504.91
27597.17
26148.36
24610.42
23503.86
23045.46
23174.24
23709.45
24434.75
25127.66
25599.7
25738.21
25511.51
24940.48
24074.77
22995.89
21830.01
20739.88
19884.85
19367.62
19198.61
19297.75
19530.61
19758.99
19882.82
19859.57
19700.29
19450.88
19169.51
18908.59
18704.52
18574.61
18518.79
18523.76
18568.5
18630.23
18689.52
18733.24
18754.44
18750.15
18719.22
18662.2
18583.03
18490.34
18396.24
18313.21
18250.99
18214.95
18204.68
18212.61
18224.98
18227.01
18205.65
18153.37
18040.18
17909.57
17503.47
29866.09
29104.51
28828.6
28490
27218.31
25230.36
23461.3
22567.2
22578.91
23172.35
23988.72
24755.45
25297.77
25541.05
25494.98
25199.22
24669.56
23897.56
22903.63
21789.01
20733.03
19929.28
19501.47
19451.33
19665.7
19972.15
20209.2
20277.15
20153.75
19878.6
19522.15
19155.37
18830.1
18572.19
18383.96
18251.41
18152.19
18062.75
17963.95
17844.72
17703.04
17544.4
17378.54
17216.58
17069.66
16949.14
16866.69
16833.25
16857.03
16942.12
17087.09
17282.42
17507.52
17732.79
17930.2
18082.87
18188.85
18225.14
18219.07
17960.37
29371.11
28206.92
27926.14
27375.32
25882.22
23952.1
22463.99
21887.54
22143.69
22867.02
23675.71
24306.89
24656.89
24760.39
24710.16
24555.03
24249.75
23697.31
22847.77
21773.44
20663.17
19740.88
19163.26
18957.29
19025.92
19207.69
19351.14
19367.19
19242.74
19021.29
18768.67
18542.07
18372.68
18263.31
18196.11
18143.89
18080.2
17985.97
17852.62
17682.15
17485.19
17277.88
17078.52
16904.81
16771.94
16691.64
16672.01
16718.01
16831.85
17012.8
17255.32
17545.64
17859.32
18164.47
18432.89
18650.31
18819.85
18929.98
19005.06
18895.02
27875.01
26399.98
26134.17
25534.02
24365.53
23065.81
22107.81
21751.37
21987.87
22579.05
23192.2
23583.03
23710.46
23703.45
23714.85
23781.5
23791.03
23565.03
22986.82
22084.87
21025.67
20032.21
19283.11
18848.08
18684.34
18682.49
18728.59
18750.03
18729.5
18690.46
18669.58
18692.05
18759.69
18852.58
18939.5
18990.26
18984.77
18916.88
18793.17
18628.85
18442.96
18254.84
18082.33
17940.67
17841.27
17790.37
17789.2
17836.25
17930.09
18069.76
18251.54
18465
18692.17
18911.52
19104.88
19262.85
19389.25
19484.62
19574.09
19569.4
12138.33
16619.77
19039.56
20042.66
20402.59
20481.21
20449.85
20514.64
20837.47
21366.16
21868.15
22152.05
22233.56
22293.73
22501.68
22871.85
23254.48
23436.45
23265.85
22725.1
21926.61
21050.82
20268.33
19684.13
19322.22
19146.16
19096.38
19122.55
19198.2
19316.6
19476.6
19669.23
19872.45
20055.01
20186.12
20245.08
20226.92
20142.12
20011.3
19857.79
19701.51
19556.36
19430.98
19330.6
19257.39
19209.62
19182.03
19169.11
19169.12
19184.45
19217.25
19265.11
19321.58
19380.01
19435.28
19483.05
19524.65
19568.51
19633.39
19690.74
12203.32
16543.44
18668.23
19541.67
20135.33
20637.88
20908.36
20981.46
21045.07
21182.8
21312.99
21349.77
21338.16
21417.95
21690.15
22128.04
22591.44
22906.53
22945.9
22670.13
22126.96
21422.72
20683.29
20018.92
19501.93
19161.13
18990.27
18962.99
19046.13
19206.76
19413.23
19633.98
19837.86
19997.38
20093.92
20122.19
20091.4
20022
19938.74
19862.8
19806.4
19771.95
19755.34
19750.1
19749.52
19746.49
19733.6
19705.58
19662.59
19610.33
19555.97
19504.11
19457.34
19419.35
19394.26
19382.97
19385.17
19409.47
19460.02
19561.47
27834.63
25991.95
24959.48
24066.5
23533.57
23346.06
23201.45
22912.58
22503.73
22063.61
21651.93
21315.45
21109.47
21073.51
21198.64
21427.2
21679.8
21880.84
21968.63
21897.4
21643.09
21214.18
20657.69
20051.38
19482.21
19020.85
18704.12
18531.59
18474.69
18491.62
18541.02
18590.61
18620.25
18621.44
18595.56
18551.87
18505.17
18472.29
18467.47
18497.82
18561.02
18646.62
18740.39
18829.19
18903.7
18958.47
18990.76
19000.15
18989.39
18964.42
18932.6
18900.34
18872.69
18854.94
18852.73
18870.01
18905.89
18962.6
19022.96
19155.66
29211.51
27348.51
26011.54
25136.69
24462.17
23947.59
23574.77
23212.57
22716.1
22072.28
21413.88
20902.99
20610.57
20495.23
20473.48
20499.74
20588.83
20777.19
21066.23
21394.23
21654.55
21744.66
21613.71
21281.83
20824.39
20334.06
19882.8
19501.05
19179.74
18888.47
18597.53
18292.94
17980.27
17679.05
17413.45
17204.18
17063.83
16995.46
16993.14
17043.47
17127.92
17226.09
17319.73
17396.4
17451.49
17487.69
17511.88
17531.16
17550.22
17571.63
17597.79
17631.74
17675.89
17731.15
17798.36
17879.56
17971.91
18069.98
18135.08
18262.73
29449.71
27562.09
26119.42
25480.93
24974.58
24380.1
23861.5
23402.56
22802.96
22001.99
21179.67
20559.44
20201.79
19999.46
19825.55
19663.41
19614.76
19808.01
20293.09
20993.69
21735.88
22325.13
22624.91
22598.53
22301.73
21838.88
21310.35
20776.93
20253.02
19724.23
19174.06
18603.94
18038.38
17516.61
17078.11
16749.76
16539.38
16436.25
16416.43
16449.92
16507.12
16563.4
16601.85
16614.82
16604.63
16582.31
16563.27
16560.43
16578.98
16616.65
16669.1
16734.56
16812.79
16901.67
16997.6
17098.34
17198.33
17288.41
17325.19
17398.02
29035.14
26689.8
24923.38
24173.75
23920.23
23740.11
23493.2
23046.3
22273.63
21255.34
20276.97
19592.66
19231.99
19035.79
18842.51
18634.84
18542.08
18729.84
19274.77
20103.95
21021.79
21795.71
22249.58
22320.04
22057.25
21580.18
21015.49
20450.58
19917.91
19409.33
18904.85
18397.8
17904.83
17460.2
17100.99
16852.4
16719.34
16686.33
16724.19
16799.31
16881.68
16949.38
16989.78
16999.29
16983.06
16953.85
16928.11
16919.03
16930.36
16956.34
16988.47
17022.85
17060.97
17104.77
17152.85
17201.3
17243.05
17271.02
17259.55
17271.01
27475.91
24659.49
22812.42
21949.9
22013.53
22509.34
22817.12
22548.09
21677.4
20482.72
19349.7
18548.48
18122.16
17944.32
17870.74
17858.79
17981.09
18347.41
19002.43
19867.51
20756.21
21448.55
21779.85
21699.52
21276.2
20654.85
19992.59
19404.59
18940.19
18591.41
18321.05
18092.54
17888.34
17712.61
17582.12
17513.1
17511.04
17567.48
17663.55
17777
17888.49
17984.64
18057.93
18105.57
18129.06
18134.26
18129.74
18122.55
18113.52
18096.6
18064.14
18014.81
17956.68
17901.96
17857.84
17822.44
17787.71
17753.62
17714.83
17731.75
12055.37
14422.98
15225.05
15782.31
16955.44
18524.28
19731.22
20085.26
19633.34
18736.53
17770.87
16985.51
16494.15
16313.26
16409.48
16745.81
17307.12
18086.35
19041.83
20062.29
20973.37
21589.25
21782.3
21532.86
20934.75
20156.96
19382.82
18754.05
18340.16
18138.49
18097.34
18147.85
18230.82
18310.87
18376.92
18433.6
18490.39
18553.83
18625.29
18702.6
18782.68
18862.52
18938.61
19006.04
19058.73
19090.98
19098.87
19080.27
19033.31
18955.18
18844.17
18705.12
18553.48
18410.98
18293.19
18201.53
18127.83
18081.93
18061.4
18170.19
10590.79
12325.01
13327.67
14017.85
15179.47
16756.81
18090.12
18709.14
18631.97
18116.7
17388.5
16605.02
15927.17
15522.5
15502.85
15885.14
16609.4
17577.08
18669.29
19744.91
20645.03
21221.1
21378.72
21112.82
20513.76
19740.4
18972.07
18358.84
17987.12
17869.09
17955.56
18163.57
18407.33
18621.76
18772.88
18855.53
18883.44
18877.97
18860.05
18846.19
18847.29
18868.32
18908.18
18959.86
19011.49
19048.62
19057.69
19029.65
18961.69
18856.29
18719.36
18561.09
18398.37
18252.66
18139.94
18063.89
18019.68
18026.49
18067.08
18306.93
10215.79
11268.25
12352.37
13174.11
14070.03
15162.68
16206.21
16955.58
17353.74
17420.9
17155.43
16594.61
15899.66
15322.02
15079.95
15264.03
15832.9
16668.58
17632.02
18589.96
19421.09
20021.69
20320.2
20295.64
19988.15
19493.4
18939.87
18455.47
18134.38
18015.19
18077.61
18257.6
18473.88
18654.53
18754.67
18761.04
18685.88
18555.7
18400.37
18245.78
18110.31
18004.19
17930.28
17885.07
17859.63
17841.12
17815.95
17774.61
17715.6
17645.27
17573.53
17509.49
17460.54
17433.39
17432.97
17462.6
17523.74
17640.12
17770.69
18128.55
10185.16
10820.04
12081.28
13235.7
13908.73
14294.3
14760.38
15472.77
16306.68
16976.96
17232.28
17001.03
16426.53
15784.53
15342.6
15249.6
15509.72
16031
16697.6
17417.82
18131.97
18794.21
19354.2
19756.07
19955.83
19944.46
19760.45
19481.91
19200.64
18990.3
18883.53
18867.19
18895.33
18911.45
18869.33
18744.87
18537.28
18262.59
17944.57
17607.14
17270.34
16949.62
16656.84
16400.99
16187.64
16017.95
15889.34
15798.96
15748.13
15743.47
15792.35
15895.13
16041.01
16212.65
16396.66
16592.72
16807.02
17059.9
17286.94
17723.12
10247.54
10630.46
12009.07
13481.07
14083.79
13946.16
13897.5
14481.41
15564.68
16641.04
17279.47
17337.24
16935.86
16336.71
15806.91
15517.27
15504.41
15707.11
16044.24
16476.77
17015.7
17681.49
18453.58
19249
19943.98
20423.51
20628.66
20576.77
20347.35
20044.86
19758.47
19535.94
19378.72
19254.73
19119.03
18932.35
18671.52
18331.01
17918.68
17450.02
16944.14
16422.42
15908.47
15427.43
15003.38
14655.72
14396.94
14233.67
14170.27
14211.15
14357.57
14599.23
14908.73
15248.72
15590.6
15929.23
16270.87
16625.98
16919.3
17376.14
10357.09
10703.08
12059.5
13572.45
14210.11
14012.58
13827.46
14286.93
15319.28
16431.04
17184.93
17420.97
17220.2
16786.56
16338.98
16027.6
15892.86
15890.66
15966.6
16121.88
16421.03
16939.49
17693.67
18603.69
19512.07
20244.88
20679.27
20784
20618.37
20297.23
19942.62
19643.36
19435.54
19305.54
19208.42
19090.91
18909.58
18639.67
18275.35
17825.37
17308.15
16748.68
16176.71
15624.86
15125.33
14705.73
14385.99
14178.03
14088.11
14119.17
14268.94
14523.26
14851.2
15212.36
15575.81
15933.97
16289.68
16643.45
16930.69
17330.45
10512.02
11038.49
12249.53
13507.63
14238.45
14428.56
14516.83
14901.64
15618.74
16421.05
17033.92
17317.19
17284.9
17055.75
16782.76
16580.8
16481.82
16447.87
16432.73
16442.81
16549.23
16843.1
17368.23
18077.93
18842.33
19499.39
19919.49
20051.5
19932.37
19662.12
19360.08
19122.3
18995.46
18973.15
19010.81
19049.42
19037.2
18942.27
18754.95
18483.02
18144.77
17763.25
17362.93
16967.75
16599.5
16276.35
16011.85
15815.24
15692.73
15648.41
15682.68
15788.37
15948.24
16139.4
16343.78
16555.24
16772.61
16992.27
17179.77
17436.46
10742.6
11626.38
12664.91
13591.08
14456.15
15200.34
15723.26
16067.02
16372
16714.95
17043.32
17248.22
17274.22
17165.33
17028.02
16957.21
16983.37
17072.27
17168.58
17246.91
17333.78
17487.97
17755.95
18133.35
18556.39
18926.66
19153.77
19193.69
19065.05
18838.84
18608.58
18455.39
18422.25
18506.01
18667.35
18851.29
19008.41
19108.4
19143.13
19121.33
19059.56
18974.08
18876.02
18770.15
18656.39
18532.39
18396.43
18249.41
18095.34
17940.13
17790.03
17651.02
17529.56
17432.08
17362.04
17317.58
17294.51
17291.06
17310.22
17361.63
11263.41
12770.45
13740.82
14438.7
15384.06
16503.39
17332.21
17624.84
17560.36
17457.44
17464.31
17530.74
17562.69
17539.14
17512.83
17550.79
17684.34
17895.28
18132.82
18344.91
18505.29
18621.57
18721.3
18826.5
18933.49
19010.4
19013.69
18913.58
18714.22
18457.91
18211.58
18042.52
17994.78
18076.66
18263.09
18509.95
18772.44
19019.35
19238.61
19433.95
19616.07
19793.14
19964.48
20119.27
20239.78
20306.99
20306.1
20229.61
20076.97
19852.3
19563.66
19226.32
18866.18
18515.01
18195.89
17912.47
17660
17438.87
17285.5
17119.14
12720.02
14835.97
15612.15
16011.45
16800.13
17937.29
18815.46
19016.15
18675.54
18221.2
17963.56
17954.22
18088.92
18248.1
18365.75
18435.74
18489.72
18564.66
18674.82
18803.47
18918.11
18994.95
19032.76
19046.64
19048.75
19031.87
18968.65
18827.35
18594.14
18288.3
17961.53
17681.93
17510.74
17482.82
17598.85
17830.79
18136.41
18475.38
18820.43
19160.08
19493.63
19822.39
20141.87
20438.71
20692.92
20883.2
20992.04
21007.9
20924.16
20737.54
20450.08
20075.71
19645.16
19199.13
18769.74
18366.38
17987.51
17630.5
17357.37
16999.51
26491.96
24073.03
22424.39
21384.47
21139.37
21454.97
21706.85
21446.93
20719.78
19907.44
19386.33
19299.04
19532.22
19835.8
19978.52
19856.52
19514
19085.63
18709.51
18465.41
18363.96
18374.66
18460.92
18596.5
18759.4
18916.88
19019.3
19010.98
18853.05
18544.86
18131.6
17693.57
17321.68
17089.97
17035.99