/*--------------------------------*- C++ -*----------------------------------*\
| =========                 |                                                 |
| \\      /  F ield         | OpenFOAM: The Open Source CFD Toolbox           |
|  \\    /   O peration     | Version:  2312                                  |
|   \\  /    A nd           | Website:  www.openfoam.com                      |
|    \\/     M anipulation  |                                                 |
\*---------------------------------------------------------------------------*/
FoamFile
{
    version     2.0;
    format      ascii;
    arch        "LSB;label=32;scalar=64";
    class       volScalarField;
    location    "5850";
    object      ILambda_13_0;
}
// * * * * * * * * * * * * * * * * * * * * * * * * * * * * * * * * * * * * * //

dimensions      [1 0 -3 0 0 0 0];

internalField   nonuniform List<scalar> 
12000
(
837.4456
799.9385
794.8394
783.3825
772.5791
763.3595
757.2381
754.2032
753.6238
754.905
757.7942
762.2171
767.8269
773.6244
778.0417
779.5554
777.4288
772.036
764.5404
756.1962
747.7833
739.5226
731.4245
723.7217
717.0377
712.1905
709.7949
709.9286
712.0374
715.0925
717.8899
719.3592
718.7938
715.9742
711.1981
705.1908
698.9254
693.3943
689.4005
687.4111
687.503
689.395
692.5532
696.3724
700.3216
704.0019
707.0725
709.2128
710.2148
710.0101
708.5975
705.9153
701.8746
696.4612
689.5851
681.0297
670.6702
658.7672
646.1239
634.552
776.9542
765.8544
762.4177
758.0583
757.0064
757.8435
760.1095
763.075
766.2621
769.2299
771.4432
772.2364
770.9741
767.3332
761.5127
754.1987
746.2898
738.564
731.4938
725.2855
720.0498
715.9404
713.152
711.7928
711.7379
712.5699
713.6471
714.2656
713.8439
712.0677
708.9585
704.8606
700.3585
696.1434
692.8567
690.952
690.6144
691.7518
694.0481
697.0527
700.2775
703.2762
705.694
707.2667
707.7934
707.1119
705.1148
701.7759
697.1288
691.2341
684.1757
676.1015
667.2405
657.8841
648.4371
639.4845
631.7549
625.9683
622.616
621.5271
758.5557
758.0177
759.0889
760.88
763.3563
765.5359
766.9789
767.2945
766.2462
763.6608
759.4789
753.8306
747.0908
739.8454
732.7566
726.3876
721.0806
716.9432
713.9256
711.9127
710.7681
710.3153
710.2971
710.3652
710.1295
709.2524
707.5469
705.0386
701.9701
698.7494
695.8587
693.7481
692.7379
692.9519
694.2957
696.485
699.111
701.7209
703.8897
705.2692
705.609
704.7535
702.625
699.2052
694.5275
688.6821
681.8223
674.158
665.9398
657.4553
649.031
641.0259
633.8062
627.7171
623.0526
619.9916
618.5171
618.3694
619.0723
620.0574
760.0456
762.14
762.8801
763.1274
762.2217
760.0629
756.6464
752.0874
746.6044
740.5087
734.1929
728.0871
722.5883
717.9846
714.4065
711.8255
710.0944
709.0037
708.3263
707.8392
707.3304
706.6095
705.5318
704.033
702.1583
700.0686
698.0167
696.2965
695.1774
694.8419
695.3393
696.5681
698.2898
700.1684
701.8273
702.9061
703.1058
702.2148
700.1159
696.7794
692.25
686.6333
680.0866
672.8132
665.0575
657.0963
649.2243
641.7374
634.9176
629.0171
624.2402
620.7222
618.5124
617.563
617.7275
618.7757
620.4379
622.4742
624.7441
627.2314
759.1588
756.7888
753.9454
750.0942
745.395
740.1184
734.5418
728.9751
723.7148
719.0198
715.0756
711.9676
709.6707
708.0644
706.9664
706.1745
705.5018
704.7982
703.9606
702.9371
701.7308
700.402
699.0642
697.8692
696.9786
696.5281
696.5907
697.1499
698.0886
699.1977
700.2033
700.8047
700.7177
699.7112
697.6318
694.4146
690.0793
684.7198
678.489
671.5853
664.2404
656.7084
649.2553
642.1462
635.6315
629.9306
625.219
621.6174
619.185
617.9158
617.7403
618.5342
620.1337
622.3581
625.0359
628.0327
631.2722
634.7371
638.4446
642.3965
745.9739
738.8763
734.3581
729.1553
724.219
719.6334
715.5938
712.206
709.5088
707.4689
705.9891
704.9292
704.1327
703.4547
702.7841
702.0554
701.2499
700.3905
699.5324
698.7514
698.1305
697.7429
697.6331
697.7993
698.1797
698.649
699.0258
699.0918
698.6184
697.3973
695.2681
692.1387
687.9946
682.8985
676.9803
670.4225
663.4441
656.2853
649.1937
642.4124
636.1686
630.6626
626.0574
622.4702
619.9663
618.5574
618.2039
618.8213
620.2901
622.4688
625.2078
628.3652
631.8185
635.4731
639.2642
643.1515
647.1045
651.0848
655.0323
658.8778
726.7092
719.3064
715.9723
712.3158
709.4387
707.1108
705.3421
704.0385
703.0938
702.3903
701.8205
701.3015
700.7841
700.2542
699.7272
699.2375
698.826
698.5269
698.3563
698.3024
698.3181
698.3174
698.1775
697.7464
696.8575
695.3482
693.0812
689.9636
685.961
681.1051
675.4922
669.2752
662.6499
655.8391
649.0764
642.5919
636.5995
631.2873
626.8095
623.2799
620.7678
619.2965
618.8445
619.3496
620.717
622.8282
625.5515
628.753
632.3058
636.0973
640.0334
644.0391
648.0551
652.0319
655.9225
659.6747
663.2261
666.5047
669.4429
672.0185
711.0489
706.4369
705.0081
703.3876
702.345
701.5759
701.0409
700.6434
700.3206
700.0287
699.7476
699.4757
699.2215
698.9938
698.7914
698.595
698.3621
698.0249
697.4919
696.6534
695.3892
693.581
691.1248
687.9459
684.0102
679.3341
673.9873
668.0912
661.8111
655.344
648.9039
642.7073
636.9588
631.8401
627.5015
624.0558
621.5749
620.0896
619.59
620.0296
621.3304
623.3905
626.0917
629.3087
632.9166
636.7974
640.8449
644.9662
649.0819
653.1236
657.0297
660.7408
664.1958
667.3283
670.0664
672.333
674.0492
675.1436
675.5703
675.3482
702.5832
700.7767
700.4924
700.0748
699.8862
699.743
699.6344
699.5211
699.3865
699.2154
698.9917
698.6898
698.2707
697.679
696.8442
695.6834
694.1085
692.0337
689.3847
686.1088
682.1833
677.6229
672.4843
666.8662
660.9063
654.7734
648.6571
642.7547
637.2583
632.3431
628.1572
624.8147
622.392
620.9261
620.4161
620.8262
622.0904
624.1186
626.803
630.0253
633.6633
637.5966
641.7116
645.9036
650.0782
654.1506
658.0436
661.685
665.0049
667.9333
670.3994
672.3321
673.6621
674.3264
674.2736
673.4697
671.9077
669.6187
666.6822
663.2368
699.7195
699.3882
699.4409
699.4002
699.3495
699.2124
698.9699
698.585
698.0201
697.2279
696.1532
694.7339
692.9053
690.6061
687.7852
684.4088
680.4671
675.9796
670.9985
665.6101
659.9324
654.1111
648.3114
642.7091
637.4799
632.7879
628.7766
625.5606
623.2203
621.7997
621.3059
621.7122
622.9617
624.9726
627.6444
630.8638
634.5107
638.4633
642.6028
646.8159
650.9975
655.0504
658.8857
662.4211
665.5804
668.2919
670.4886
672.1095
673.1018
673.4247
673.0546
671.991
670.2627
667.9335
665.1077
661.9345
658.6104
655.3749
652.4927
650.2004
699.3044
699.0171
698.7526
698.2837
697.5982
696.6434
695.3754
693.7465
691.7106
689.2259
686.2597
682.7942
678.831
674.3956
669.5398
664.3431
658.911
653.3719
647.8715
642.5657
637.6123
633.1619
629.3495
626.2862
624.0543
622.7026
622.2459
622.6656
623.913
625.9135
628.572
631.7789
635.4154
639.3586
643.4861
647.679
651.8248
655.8186
659.5639
662.9733
665.9678
668.4776
670.4425
671.8136
672.5555
672.6495
672.0976
670.9271
669.1943
666.9883
664.4326
661.6855
658.9365
656.4012
654.3114
652.9028
652.3953
652.9673
654.7244
657.6446
697.5681
695.8562
694.5275
692.7008
690.4987
687.8624
684.7784
681.2411
677.2622
672.873
668.1265
663.098
657.8845
652.6018
647.3803
642.3596
637.6812
633.4818
629.8855
626.9972
624.897
623.6359
623.2337
623.6787
624.9296
626.9188
629.5568
632.7375
636.3438
640.2522
644.3383
648.4795
652.5592
656.4681
660.1064
663.3846
666.2249
668.5614
670.342
671.5294
672.1034
672.0632
671.4303
670.2506
668.5972
666.5707
664.2991
661.9351
659.6514
657.6322
656.0634
655.1192
654.947
655.652
657.2806
659.8048
663.1086
666.9838
671.142
675.2498
690.5827
686.2823
683.4071
679.7434
675.7705
671.4252
666.7812
661.907
656.8939
651.8478
646.8869
642.137
637.726
633.7773
630.4043
627.7039
625.7517
624.5977
624.2639
624.7433
626.0006
627.9747
630.5818
633.7205
637.2763
641.1269
645.1472
649.2134
653.2067
657.016
660.5409
663.6925
666.3955
668.5895
670.2299
671.2898
671.7609
671.6556
671.0081
669.8757
668.3392
666.5018
664.4879
662.4381
660.5044
658.8418
657.5987
656.906
656.865
657.536
658.9278
660.9902
663.6099
666.6125
669.7689
672.809
675.4458
677.4106
678.4959
678.6142
676.4831
669.6499
665.6356
660.7746
655.9702
651.1349
646.4169
641.9209
637.7643
634.0587
630.9069
628.3976
626.6006
625.5632
625.3072
625.8282
627.0951
629.052
631.621
634.7054
638.1949
641.9701
645.9073
649.883
653.7786
657.483
660.8964
663.9318
666.5175
668.598
670.1357
671.1117
671.5268
671.4022
670.7802
669.7238
668.3157
666.6574
664.8652
663.0664
661.3936
659.9771
658.9371
658.3747
658.3628
658.9383
660.0953
661.7821
663.9002
666.3094
668.8364
671.2889
673.4737
675.2182
676.3937
676.9396
676.8875
676.3757
675.6454
675.0163
657.5926
649.945
646.1128
641.6816
637.7942
634.3065
631.3673
629.0434
627.4013
626.4834
626.3104
626.8785
628.1592
630.1009
632.6304
635.6563
639.0728
642.7645
646.6107
650.4903
654.2861
657.8887
661.1997
664.1346
666.6249
668.6196
670.0864
671.0125
671.4049
671.2907
670.7164
669.7471
668.4649
666.9664
665.3595
663.7587
662.28
661.0345
660.1217
659.6228
659.5935
660.0592
661.0104
662.4019
664.1539
666.157
668.2805
670.3841
672.332
674.0091
675.3366
676.2866
676.8933
677.2582
677.5501
677.996
678.8626
680.424
682.9194
686.5093
639.8496
634.0383
631.885
629.5771
628.1158
627.3055
627.2189
627.8379
629.1383
631.0705
633.5652
636.5356
639.8807
643.4898
647.2461
651.032
654.7332
658.2428
661.4646
664.3168
666.7337
668.6678
670.0906
670.9934
671.3873
671.3025
670.7875
669.9073
668.7416
667.3817
665.9271
664.4812
663.1466
662.0197
661.1854
660.7113
660.6435
661.0021
661.7793
662.9393
664.4196
666.1363
667.9909
669.8793
671.703
673.3806
674.8587
676.1216
677.1975
678.1601
679.126
680.2455
681.688
683.6224
686.1945
689.5017
693.5677
698.3235
703.6052
709.1905
629.6596
627.7993
628.0919
628.671
630.0148
631.9373
634.4055
637.3275
640.6082
644.1407
647.8127
651.5108
655.1243
658.5496
661.6938
664.4775
666.8378
668.7298
670.1277
671.0253
671.4359
671.391
670.9394
670.1449
669.0839
667.8425
666.5126
665.1885
663.9622
662.9189
662.1331
661.6637
661.5508
661.8134
662.4472
663.4259
664.7024
666.2131
667.8837
669.6363
671.3971
673.1058
674.7227
676.2353
677.6622
679.054
680.4896
682.0692
683.9032
686.0984
688.7416
691.8842
695.5277
699.6132
704.0159
708.5468
712.964
716.9951
720.3773
722.9171
630.4015
632.8402
635.1834
638.0629
641.2816
644.741
648.3334
651.948
655.4782
658.824
661.8958
664.6172
666.9282
668.786
670.1671
671.0668
671.4991
671.4958
671.105
670.3882
669.4186
668.277
667.0493
665.8219
664.6788
663.6971
662.9434
662.4712
662.3174
662.5011
663.0225
663.8637
664.9905
666.3553
667.9022
669.572
671.3085
673.0648
674.8088
676.5276
678.2304
679.9481
681.731
683.6434
685.7556
688.1333
690.8272
693.8616
697.2252
700.8646
704.6818
708.5368
712.2559
715.6442
718.5028
720.6505
721.9453
722.3065
721.7325
720.2991
640.6039
645.6977
648.7972
652.4032
655.8266
659.0933
662.0895
664.7473
667.0077
668.8305
670.1934
671.0929
671.5435
671.5765
671.2383
670.5884
669.6961
668.638
667.4941
666.345
665.268
664.3342
663.6051
663.13
662.9446
663.0689
663.5074
664.2495
665.2711
666.5374
668.0062
669.6322
671.3713
673.1858
675.0477
676.9423
678.87
680.8458
682.8982
685.0643
687.3849
689.8969
692.6255
695.5771
698.7325
702.0427
705.4279
708.7795
711.966
714.8428
717.2641
719.0972
720.2366
720.6172
720.2249
719.1033
717.3538
715.1292
712.6162
709.9933
654.7331
659.8054
662.2273
664.9132
667.0868
668.8712
670.2075
671.1005
671.5624
671.6239
671.3295
670.7359
669.9092
668.9216
667.8486
666.7655
665.7447
664.8523
664.1459
663.6726
663.4671
663.551
663.9324
664.6069
665.5586
666.7622
668.1862
669.7951
671.554
673.4308
675.4001
677.4448
679.5576
681.7411
684.0064
686.3701
688.8506
691.4634
694.2152
697.0992
700.0905
703.1437
706.1917
709.1481
711.9112
714.3712
716.4193
717.9574
718.9088
719.2272
718.9045
717.9746
716.5148
714.6429
712.5106
710.2928
708.1749
706.3381
704.9394
704.0837
666.3125
669.22
670.177
671.1241
671.5658
671.6505
671.3904
670.8456
670.0767
669.1521
668.1428
667.1198
666.1509
665.2989
664.6183
664.1545
663.9419
664.0033
664.3503
664.9831
665.8924
667.0602
668.4627
670.0721
671.8594
673.797
675.8603
678.0299
680.2923
682.64
685.0707
687.5852
690.1852
692.8695
695.6312
698.4534
701.3073
704.1497
706.9234
709.5583
711.9748
714.0891
715.8197
717.0949
717.8602
718.0857
717.7714
716.9503
715.6896
714.0882
712.2723
710.3878
708.5924
707.0452
705.8977
705.2838
705.3128
706.0643
707.583
709.877
671.5457
671.7758
671.4392
670.9508
670.2214
669.3542
668.403
667.4371
666.5197
665.7101
665.0605
664.6148
664.4073
664.4623
664.7938
665.4061
666.2946
667.4471
668.8454
670.4672
672.2878
674.2821
676.4261
678.698
681.0792
683.5541
686.11
688.7357
691.4199
694.1492
696.906
699.6661
702.3976
705.0593
707.6014
709.9663
712.0917
713.914
715.3731
716.4184
717.0138
717.1433
716.815
716.0637
714.9516
713.5669
712.02
710.438
708.958
707.7192
706.8552
706.4865
706.7144
707.616
709.2399
711.605
714.7001
718.4861
722.9022
727.8835
670.9188
669.4969
668.6792
667.7361
666.8662
666.0965
665.4799
665.058
664.8646
664.9249
665.2548
665.8618
666.7449
667.8963
669.302
670.9436
672.7994
674.8459
677.0589
679.4144
681.8896
684.4624
687.1121
689.818
692.5592
695.3128
698.0533
700.7512
703.372
705.8765
708.2206
710.3567
712.2359
713.8106
715.0384
715.8857
716.3319
716.3733
716.026
715.3279
714.3388
713.1399
711.83
710.5221
709.3371
708.3974
707.8209
707.7136
708.1647
709.2411
710.9843
713.4082
716.4978
720.2096
724.4727
729.191
734.247
739.5079
744.8405
750.143
667.8646
666.3768
665.9291
665.4825
665.3098
665.3762
665.711
666.3202
667.2062
668.3639
669.7824
671.446
673.3349
675.4265
677.6964
680.1186
682.6665
685.3133
688.0317
690.7939
693.5715
696.3347
699.052
701.6899
704.2125
706.582
708.759
710.7039
712.3785
713.748
714.7839
715.4669
715.7893
715.7581
715.3968
714.7467
713.8669
712.8333
711.7364
710.677
709.7624
709.1003
708.7935
708.9339
709.5975
710.8402
712.694
715.1653
718.2336
721.8523
725.9492
730.4298
735.1801
740.071
744.9635
749.7149
754.1863
758.2534
761.8201
764.8416
666.1182
665.791
666.2063
666.7779
667.6711
668.8309
670.2608
671.9424
673.8581
675.9852
678.2985
680.7704
683.3714
686.0705
688.8357
691.6337
694.4306
697.1915
699.8804
702.4613
704.8973
707.1519
709.1899
710.9778
712.4859
713.6898
714.5723
715.1253
715.3519
715.2679
714.9033
714.3028
713.5251
712.6426
711.7383
710.9034
710.2329
709.8214
709.7578
710.1206
710.9734
712.3611
714.3064
716.8087
719.8428
723.3599
727.2891
731.5401
736.0071
740.573
745.1149
749.5097
753.641
757.4047
760.7165
763.5176
765.7807
767.5129
768.7537
769.5594
668.0059
669.3937
670.7653
672.4448
674.3744
676.5209
678.8622
681.3662
684.0015
686.7335
689.5264
692.3429
695.1448
697.8935
700.5502
703.0768
705.4362
707.5935
709.5164
711.1767
712.5517
713.6249
714.388
714.8421
714.9987
714.881
714.5243
713.9759
713.2947
712.5499
711.8189
711.1841
710.7304
710.5404
710.6908
711.2479
712.2641
713.7744
715.7937
718.3156
721.3118
724.7331
728.511
732.5611
736.7865
741.0827
745.3425
749.4615
753.3433
756.9047
760.0806
762.8278
765.1279
766.9882
768.4414
769.5425
770.3627
770.9787
771.4586
771.8383
674.2138
677.275
679.3951
681.9426
684.5811
687.327
690.1294
692.9492
695.7444
698.4737
701.0961
703.5722
705.865
707.9408
709.7701
711.3289
712.5996
713.5723
714.2456
714.6275
714.7365
714.6011
714.261
713.7655
713.1738
712.5523
711.9735
711.513
711.2468
711.2474
711.5809
712.3034
713.4575
715.0696
717.1485
719.6833
722.6442
725.9825
729.6335
733.5186
737.5499
741.6335
745.6753
749.5849
753.2807
756.6939
759.7714
762.4787
764.8009
766.7416
768.3219
769.5759
770.5461
771.2771
771.8078
772.1636
772.3482
772.339
772.089
771.5476
684.0606
688.2252
690.6415
693.5201
696.2735
698.9785
701.5624
703.9911
706.2257
708.2339
709.9882
711.4677
712.6591
713.5572
714.1659
714.4986
714.5786
714.439
714.1222
713.6793
713.1692
712.6562
712.2087
711.8968
711.7888
711.9494
712.4359
713.2954
714.5628
716.2578
718.3838
720.9271
723.8568
727.126
730.6736
734.4269
738.3053
742.2244
746.0995
749.8507
753.406
756.705
759.7011
762.363
764.6751
766.6359
768.256
769.5548
770.5556
771.2811
771.7481
771.9631
771.9189
771.5935
770.9503
769.9415
768.516
766.6346
764.2873
761.5272
695.6164
699.8399
701.941
704.413
706.5621
708.5154
710.2046
711.621
712.7512
713.5943
714.1577
714.4587
714.5242
714.3903
714.1015
713.71
713.274
712.8562
712.5216
712.3353
712.3601
712.6538
713.2667
714.2391
715.5992
717.3614
719.5253
722.0748
724.9787
728.1917
731.6561
735.3043
739.0621
742.852
746.5969
750.2238
753.6671
756.8711
759.792
762.3989
764.6736
766.6094
768.209
769.4815
770.4389
771.0925
771.4497
771.5112
771.27
770.7116
769.8166
768.5654
766.9451
764.958
762.6306
760.0242
757.2461
754.4553
751.858
749.6885
706.052
709.1397
710.3966
711.8366
712.8849
713.6876
714.2137
714.493
714.5519
714.4289
714.1696
713.8266
713.4574
713.1231
712.8857
712.8065
712.9436
713.3494
714.0684
715.1355
716.5738
718.3933
720.5905
723.1476
726.0333
729.2034
732.6032
736.169
739.8316
743.5188
747.1589
750.6838
754.0317
757.1495
759.9945
762.5349
764.7498
766.6282
768.1674
769.3704
770.2434
770.7932
771.025
770.9409
770.5397
769.8185
768.7744
767.41
765.738
763.7878
761.6125
759.2941
756.9483
754.725
752.8064
751.4009
750.7312
751.0126
752.4248
755.0726
712.7762
714.0119
714.3024
714.5992
714.6313
714.5197
714.2841
713.9837
713.6726
713.4105
713.2568
713.2695
713.5027
714.0043
714.8145
715.9636
717.4705
719.3419
721.5717
724.1407
727.0172
730.1581
733.5106
737.0141
740.6029
744.2086
747.7634
751.2022
754.466
757.5027
760.2699
762.7346
764.8736
766.6732
768.1271
769.2355
770.0026
770.4349
770.5397
770.3242
769.7957
768.9628
767.8376
766.4392
764.7978
762.9589
760.9882
758.9738
757.0286
755.2882
753.9075
753.0521
752.8877
753.5651
755.2034
757.8729
761.5756
766.2297
771.6693
777.6638
715.0043
714.6835
714.4474
714.1672
713.895
713.6904
713.6048
713.6942
714.0083
714.5916
715.4801
716.7003
718.2679
720.1868
722.4485
725.0327
727.9073
731.0297
734.3485
737.8051
741.3362
744.8763
748.36
751.7245
754.912
757.8715
760.5601
762.9441
764.9988
766.7086
768.0657
769.0693
769.7241
770.0385
770.0242
769.6951
769.0675
768.161
767.0001
765.6165
764.0519
762.3612
760.6143
758.898
757.3157
755.9856
755.0356
754.5963
754.7913
755.7253
757.4713
760.0574
763.4555
767.5726
772.2469
777.2495
782.2927
787.0516
791.2031
794.4838
714.5789
713.9578
713.9963
714.1035
714.4837
715.1279
716.0793
717.3575
718.9755
720.9345
723.224
725.8224
728.6971
731.8058
735.0977
738.5158
741.9983
745.4815
748.9019
752.198
755.3131
758.1967
760.8059
763.1064
765.0727
766.6885
767.9458
768.8443
769.3903
769.5957
769.4773
769.0558
768.356
767.4072
766.2439
764.9072
763.4468
761.9216
760.4019
758.9689
757.7142
756.7373
756.1411
756.0259
756.4816
757.5785
759.3575
761.8213
764.9261
768.5769
772.6265
776.8794
781.1005
785.0307
788.4063
790.9827
792.5615
793.0198
792.3338
790.5868
715.116
715.7028
716.7106
717.9942
719.6503
721.6315
723.9389
726.5441
729.4148
732.5081
735.7737
739.1551
742.5918
746.0212
749.3808
752.6103
755.6538
758.4611
760.9894
763.2044
765.0807
766.6019
767.7607
768.5583
769.0036
769.1123
768.9063
768.4128
767.6643
766.6979
765.5561
764.2871
762.9449
761.5904
760.2913
759.1218
758.1606
757.4896
757.189
757.3332
757.9844
759.186
760.9555
763.2783
766.103
769.3386
772.8549
776.4873
780.045
783.3239
786.1224
788.2606
789.6004
790.0645
789.6532
788.4561
786.6574
784.5294
782.4048
780.613
719.8521
722.5118
724.6551
727.2581
730.1087
733.1757
736.4094
739.7508
743.1405
746.5161
749.8158
752.9798
755.9527
758.6847
761.1333
763.2643
765.0528
766.4832
767.5492
768.2541
768.6096
768.6351
768.3576
767.81
767.0311
766.0646
764.9589
763.767
762.5456
761.3557
760.2611
759.3282
758.6238
758.2135
758.1581
758.5101
759.3091
760.5774
762.315
764.496
767.0655
769.9388
773.0032
776.1224
779.1435
781.9084
784.2661
786.0875
787.2806
787.8049
787.6826
787.006
785.94
784.7171
783.6258
782.9914
783.1497
784.4137
787.0313
791.1246
729.7056
734.1777
737.0008
740.3513
743.6694
746.9885
750.226
753.325
756.2295
758.8898
761.2634
763.3165
765.0245
766.3729
767.3569
767.9816
768.2615
768.2198
767.8874
767.3024
766.5085
765.5545
764.4932
763.3806
762.2749
761.2355
760.3224
759.5942
759.107
758.9123
759.0545
759.5681
760.475
761.7811
763.4736
765.519
767.8618
770.4251
773.1124
775.8122
778.4043
780.7685
782.7945
784.3932
785.5078
786.1242
786.2786
786.0622
785.6205
785.1487
784.8803
785.0715
785.9805
787.8438
790.8516
795.1221
800.6815
807.4509
815.2475
823.8095
742.8275
747.8874
750.5681
753.6944
756.4989
759.0926
761.393
763.3742
765.01
766.2867
767.2008
767.7592
767.9788
767.8858
767.5148
766.9074
766.1116
765.1797
764.1675
763.1329
762.1341
761.2289
760.4727
759.9174
759.6097
759.5891
759.8866
760.5226
761.5048
762.8269
764.467
766.3869
768.5323
770.8338
773.2099
775.5703
777.8219
779.8756
781.6536
783.0979
784.1783
784.8993
785.3051
785.482
785.5566
785.691
786.073
786.9029
788.3767
790.6677
793.9078
798.1695
803.4521
809.6719
816.6588
824.1613
831.8624
839.4063
846.4425
852.7061
755.6415
759.7105
761.4755
763.4808
765.0126
766.2269
767.0752
767.5761
767.7455
767.6123
767.2137
766.5943
765.8047
764.8999
763.9375
762.9762
762.0739
761.2858
760.6635
760.2525
760.0914
760.2103
760.6293
761.3575
762.3921
763.7176
765.3057
767.1156
769.095
771.1818
773.3069
775.3981
777.3842
779.2006
780.7952
782.134
783.2067
784.0309
784.6554
785.1602
785.655
786.2736
787.1663
788.4888
790.3891
792.9937
796.3933
800.6299
805.687
811.4839
817.8752
824.6569
831.5775
838.3553
844.7007
850.3424
855.0561
858.6906
861.1916
862.6377
764.55
766.4513
766.9503
767.448
767.5424
767.3736
766.9475
766.3181
765.5356
764.6567
763.7398
762.8437
762.0251
761.3369
760.8266
760.5346
760.4927
760.7232
761.2375
762.0362
763.1085
764.4324
765.9751
767.6947
769.5412
771.4588
773.3891
775.2741
777.06
778.7017
780.1664
781.4383
782.5218
783.4438
784.2554
785.0309
785.8655
786.8703
788.166
789.8738
792.1052
794.952
798.4751
802.696
807.5896
813.0812
819.0466
825.3178
831.6924
837.9466
843.8527
849.1965
853.7956
857.515
860.2801
862.084
862.9854
863.0966
862.5652
861.5596
767.6277
767.2275
766.7268
766.075
765.2833
764.422
763.5404
762.6981
761.9491
761.3439
760.9262
760.7316
760.7861
761.1057
761.6953
762.5488
763.6495
764.9706
766.4769
768.1258
769.8698
771.6588
773.4428
775.1752
776.8159
778.3343
779.7125
780.9482
782.0565
783.0707
784.043
785.0425
786.153
787.4678
789.0849
791.099
793.5946
796.6373
800.2665
804.4888
809.2736
814.5509
820.2125
826.1163
832.0937
837.9603
843.5275
848.6163
853.0695
856.7628
859.6124
861.5784
862.6635
862.9064
862.3711
861.1303
859.2453
856.7485
853.6357
849.8782
765.7768
764.1503
763.4147
762.5595
761.8676
761.3243
760.9805
760.8639
760.9959
761.3867
762.0359
762.9323
764.0548
765.3735
766.8513
768.4461
770.1126
771.8055
773.4818
775.1037
776.6416
778.0761
779.4003
780.6218
781.7633
782.8626
783.9722
785.1571
786.4918
788.0562
789.9309
792.191
794.9002
798.1048
801.8279
806.065
810.7806
815.9078
821.3486
826.9784
832.6512
838.208
843.4854
848.3262
852.5878
856.1509
858.9248
860.8503
861.8989
862.0692
861.3799
859.8613
857.5464
854.4622
850.6233
846.0288
840.6657
834.5228
827.6109
819.9809
762.4711
761.2769
761.1085
760.9927
761.1874
761.6264
762.3193
763.2465
764.3839
765.699
767.1538
768.7065
770.3144
771.9359
773.5338
775.0772
776.5444
777.9244
779.2185
780.4413
781.6209
782.7979
784.0249
785.363
786.8798
788.6448
790.7255
793.1822
796.0632
799.4001
803.2036
807.4602
812.1302
817.1476
822.4208
827.836
833.2621
838.5566
843.5728
848.1675
852.2079
855.5784
858.185
859.9585
860.8547
860.8529
859.9527
858.1693
855.5293
852.066
847.8181
842.8299
837.1552
830.8639
824.0509
816.8481
809.4382
802.0641
795.0219
788.6085
761.5939
761.9419
762.64
763.5573
764.6941
765.9961
767.4265
768.943
770.5043
772.0721
773.6135
775.103
776.5247
777.8738
779.1573
780.3948
781.6178
782.8686
784.1989
785.6668
787.334
789.2622
791.5085
794.1222
797.1399
800.582
804.4496
808.7222
813.3563
818.2853
823.4214
828.6576
833.8722
838.9339
843.7073
848.0591
851.8643
855.0114
857.4069
858.9779
859.6742
859.4679
858.3523
856.3402
853.4612
849.7602
845.2964
840.144
834.3943
828.1592
821.576
814.8116
808.0662
801.5739
795.5997
790.433
786.373
783.7051
782.6612
783.3546
764.7288
766.4747
767.6984
769.1945
770.6989
772.2231
773.7213
775.1751
776.5713
777.9093
779.1999
780.4656
781.7396
783.0648
784.4915
786.0747
787.8711
789.9358
792.3181
795.0584
798.1843
801.7079
805.6227
809.9026
814.5008
819.3499
824.3638
829.44
834.4633
839.3099
843.8525
847.9659
851.5314
854.4426
856.6085
857.9576
858.4392
858.0249
856.7087
854.506
851.4529
847.6053
843.0377
837.8438
832.1365
826.0493
819.7369
813.3764
807.1658
801.321
796.0705
791.6453
788.2668
786.1303
785.3874
786.1263
788.3528
791.9752
796.8012
802.5586
770.4562
772.6287
773.8498
775.317
776.6808
778.0239
779.3335
780.6388
781.9715
783.3738
784.8937
786.583
788.4939
790.6754
793.1708
796.0133
799.2235
802.8069
806.7513
811.0264
815.5824
820.3513
825.2482
830.1735
835.0164
839.659
843.9803
847.8613
851.1896
853.8638
855.7973
856.922
857.1901
856.5765
855.0785
852.7168
849.5347
845.597
840.9897
835.8188
830.2094
824.3051
818.2668
812.2707
806.5056
801.1683
796.4567
792.5619
789.6568
787.884
787.3434
788.0796
790.0716
793.226
797.3752
802.2815
807.6495
813.1483
818.4499
823.3002
776.4928
778.4364
779.557
780.9369
782.3118
783.7903
785.3961
787.1811
789.1914
791.4714
794.0582
796.9795
800.2503
803.8711
807.8254
812.0796
816.582
821.2643
826.0424
830.8192
835.4876
839.934
844.0429
847.7007
850.8004
853.2459
854.9556
855.8658
855.9334
855.1374
853.4804
850.9885
847.7116
843.722
839.1136
834.0002
828.5138
822.8022
817.0268
811.359
805.9765
801.0582
796.7775
793.2953
790.7509
789.2533
788.8716
789.6266
791.485
794.3555
798.0899
802.4881
807.3078
812.2794
817.1235
821.573
825.3941
828.4076
830.5119
831.7166
782.4163
784.5072
786.0074
787.883
789.9599
792.313
794.9647
797.9379
801.2428
804.8756
808.8167
813.0302
817.4633
822.0477
826.7006
831.3269
835.823
840.0792
843.9845
847.4301
850.3144
852.546
854.0484
854.7627
854.6506
853.696
851.9064
849.3133
845.9722
841.9612
837.3796
832.346
826.9958
821.478
815.9515
810.5819
805.5358
800.9766
797.0578
793.9168
791.6683
790.3966
790.1494
790.9322
792.7042
795.3768
798.8151
802.8422
807.2483
811.801
816.2598
820.391
823.9827
826.8587
828.8898
830.0003
830.1682
829.4224
827.8367
825.5213
790.1589
793.4372
795.9008
798.9052
802.2038
805.8162
809.7171
813.8666
818.2119
822.6845
827.203
831.6748
835.9989
840.0696
843.7798
847.0255
849.7092
851.7447
853.0599
853.6006
853.333
852.2457
850.3508
847.6844
844.3063
840.2989
835.7653
830.8269
825.6202
820.2933
815.002
809.905
805.1593
800.9147
797.3084
794.4595
792.463
791.3845
791.2557
792.0701
793.7811
796.3015
799.505
803.2312
807.2916
811.4797
815.5812
819.3863
822.7018
825.362
827.2381
828.2438
828.339
827.5286
825.8588
823.4089
820.2824
816.599
812.4846
808.0464
801.9572
807.0763
810.54
814.641
818.8625
823.2057
827.5786
831.8902
836.0422
839.9319
843.4559
846.5141
849.0132
850.8712
852.0203
852.4104
852.0118
850.8171
848.8422
846.1269
842.7345
838.7502
834.2795
829.4448
824.3827
819.2394
814.1668
809.3171
804.8386
800.8695
797.5339
794.9357
793.1545
792.2412
792.2145
793.0585
794.7214
797.1164
800.123
803.5922
807.3516
811.2136
814.9843
818.4736
821.505
823.9254
825.6128
826.4826
826.4912
825.6367
823.9572
821.5269
818.4505
814.8563
810.8892
806.7039
802.4607
798.3212
794.4376
790.9221
817.7891
824.157
827.8282
832.0617
836.0105
839.7238
843.0673
845.9497
848.2796
849.9787
850.9826
851.2449
850.7391
849.4612
847.4299
844.6879
841.3005
837.355
832.9577
828.2312
823.3109
818.3407
813.468
808.8394
804.5949
800.8636
797.7582
795.3707
793.7684
792.9904
793.0453
793.9095
795.5269
797.8103
800.6437
803.8863
807.3783
810.9472
814.4161
817.6117
820.3732
822.5605
824.0611
824.7963
824.7245
823.8432
822.1881
819.8307
816.8732
813.4433
809.6872
805.7628
801.8331
798.0593
794.5948
791.5801
789.1379
787.3676
786.3351
786.0621
834.3119
840.028
842.5807
845.4179
847.5483
849.1089
849.9826
850.1372
849.5456
848.2063
846.1402
843.3915
840.0267
836.1336
831.8186
827.2034
822.4215
817.6136
812.9232
808.4908
804.4499
800.9212
798.0083
795.7937
794.3348
793.6616
793.7747
794.6447
796.2121
798.3895
801.0643
804.1024
807.3539
810.659
813.855
816.7835
819.2984
821.2721
822.603
823.2195
823.0844
822.1964
820.59
818.3336
815.5254
812.2882
808.7631
805.102
801.4606
797.9905
794.8322
792.1087
789.919
788.3335
787.3889
787.0853
787.3843
788.2095
789.4542
791.0096
845.9933
848.6884
848.9787
849.1436
848.4386
847.0602
844.9717
842.2313
838.9019
835.0714
830.8447
826.3419
821.6938
817.0378
812.5127
808.2541
804.389
801.0314
798.2774
796.2015
794.8538
794.2573
794.4065
795.2676
796.779
798.8535
801.3813
804.234
807.2701
810.3401
813.2936
815.985
818.2812
820.0666
821.2496
821.7667
821.5856
820.707
819.1645
817.0229
814.3749
811.336
808.0383
804.6242
801.2381
798.0195
795.0954
792.5736
790.537
789.0385
788.0983
787.7016
787.799
788.3084
789.119
790.0977
791.0984
791.9742
792.5968
792.895
847.9407
846.1357
843.9377
841.2342
837.9193
834.1557
830.0135
825.6182
821.0945
816.5763
812.1979
808.0896
804.3732
801.1564
798.5295
796.5609
795.2947
794.7489
794.9138
795.7526
797.2027
799.1775
801.57
804.2568
807.1033
809.9689
812.7132
815.2017
817.3121
818.9394
820.001
820.4405
820.2304
819.3733
817.9021
815.8779
813.3871
810.5371
807.4501
804.257
801.0902
798.0765
795.3304
792.9472
790.9983
789.527
788.5458
788.0359
787.948
788.2061
788.712
789.3528
790.0091
790.5642
790.9144
790.9789
790.7094
790.0959
789.171
788.0134
838.9512
833.1393
829.4237
825.0284
820.6157
816.2097
811.9528
807.9675
804.37
801.263
798.7315
796.8393
795.6262
795.1064
795.2676
796.0716
797.4553
799.3334
801.6019
804.1419
806.8247
809.5171
812.0869
814.4087
816.3691
817.8716
818.8412
819.2273
819.0062
818.182
816.7866
814.8773
812.5346
809.8575
806.9585
803.9575
800.9753
798.1273
795.5167
793.2295
791.3291
789.8533
788.8124
788.1888
787.9389
787.9965
788.2777
788.6876
789.1282
789.5059
789.7404
789.7712
789.5639
789.1136
788.4454
787.6128
786.6908
785.7645
784.9165
784.2066
822.8098
815.4567
811.945
807.8654
804.3842
801.3419
798.8744
797.0276
795.8403
795.3235
795.4634
796.2211
797.5342
799.3189
801.4742
803.8853
806.4286
808.9771
811.4055
813.5952
815.44
816.8502
817.7562
818.1121
817.8968
817.1152
815.7977
813.9981
811.7912
809.2686