/*--------------------------------*- C++ -*----------------------------------*\
| =========                 |                                                 |
| \\      /  F ield         | OpenFOAM: The Open Source CFD Toolbox           |
|  \\    /   O peration     | Version:  2312                                  |
|   \\  /    A nd           | Website:  www.openfoam.com                      |
|    \\/     M anipulation  |                                                 |
\*---------------------------------------------------------------------------*/
FoamFile
{
    version     2.0;
    format      ascii;
    arch        "LSB;label=32;scalar=64";
    class       volScalarField;
    location    "5850";
    object      nut;
}
// * * * * * * * * * * * * * * * * * * * * * * * * * * * * * * * * * * * * * //

dimensions      [0 2 -1 0 0 0 0];

internalField   nonuniform List<scalar> 
12000
(
2.941989e-05
0.0001725481
0.0001874129
0.0002056893
0.0002256951
0.0002263789
0.0002049134
0.0001943374
0.0002193291
0.0002579626
0.0002272618
0.0001831404
0.0001861677
0.0002426498
0.0002552559
0.0001887836
0.0001674779
0.0002109138
0.0002605999
0.0002003711
0.000164257
0.0001894814
0.0002384245
0.000207052
0.0001718
0.0001807925
0.0002074649
0.00020125
0.0001837575
0.0001832361
0.0001871404
0.0001866427
0.000190299
0.0001922803
0.0001839324
0.0001728502
0.000172032
0.0001921913
0.0002140935
0.0001904578
0.0001522119
0.0001470324
0.0001925926
0.0002561731
0.0001840925
0.0001272351
0.0001324789
0.0002061919
0.0002882745
0.0001431373
0.0001098126
0.0001508572
0.0002223303
0.0001452437
0.0001067859
0.0001160528
0.0001136261
8.789376e-05
7.394746e-05
5.893619e-05
1.809607e-05
0.0002143024
0.0002461838
0.0002910861
0.0003264399
0.0003654855
0.00041962
0.0004852392
0.0005513709
0.0006082439
0.0006733168
0.0007689359
0.000861783
0.0009215827
0.0009768424
0.0010848
0.001212664
0.001281054
0.00131035
0.001409671
0.001558795
0.001642422
0.001657995
0.001730474
0.001872803
0.001960517
0.001989552
0.002035165
0.002124501
0.002195151
0.002235999
0.002267382
0.002290602
0.002308517
0.002330408
0.002351028
0.002350634
0.002315159
0.002268011
0.002256367
0.002245102
0.002208981
0.002104572
0.001989516
0.001512838
0.001716441
0.001775191
0.001606988
0.001463393
0.00104417
0.00124796
0.001078301
0.0009246327
0.0007952099
0.0006504365
0.0004912442
0.0003413141
0.0002083039
0.0001050895
5.656776e-05
2.656032e-05
0.0002601699
0.0003679322
0.0004507617
0.0005580784
0.0006813264
0.0008215019
0.0009745963
0.001134087
0.001295723
0.001461561
0.001632465
0.001802346
0.001962005
0.002119887
0.002283077
0.002440982
0.002580375
0.00271173
0.002846277
0.002975502
0.003086359
0.003186216
0.003285979
0.003381696
0.003462205
0.003532432
0.003598196
0.003658201
0.003709426
0.003752233
0.003786593
0.003815248
0.003837494
0.003852502
0.00385899
0.003856898
0.003846142
0.003827018
0.003799505
0.003762227
0.003715362
0.003658616
0.003588586
0.003508163
0.003405679
0.003290627
0.003117478
0.002787177
0.002650605
0.00260535
0.002163642
0.001930509
0.001623592
0.001351014
0.001219936
0.0008827482
0.0004902198
0.000175824
5.588149e-05
3.242752e-05
0.0002930522
0.0004656654
0.0006027703
0.0007811728
0.0009833219
0.001204729
0.001440845
0.0016844
0.00192951
0.002176627
0.002420549
0.002649868
0.0028705
0.003075597
0.003269937
0.003451566
0.003618963
0.003774223
0.003918555
0.004051724
0.004173788
0.004285987
0.004389121
0.004483232
0.004568415
0.004645458
0.00471251
0.004775442
0.004828357
0.004873142
0.004909215
0.004937802
0.004957775
0.00496866
0.004969457
0.004959802
0.004939084
0.004906461
0.004861025
0.004801809
0.004727835
0.004637986
0.004529248
0.004404111
0.004259662
0.004094031
0.003905449
0.003692819
0.00345417
0.002863349
0.002432478
0.002259055
0.002016101
0.001877726
0.001475876
0.001053909
0.0006335333
0.0002567274
5.707754e-05
3.307715e-05
0.0003298912
0.0005697664
0.0007678601
0.001012327
0.00128283
0.001569659
0.001868462
0.002171015
0.002470429
0.002760452
0.003040946
0.0033093
0.003555489
0.003792842
0.004005213
0.004202642
0.004384827
0.004552836
0.00470789
0.004851003
0.004983194
0.005105238
0.005217636
0.005320876
0.005415458
0.005499996
0.005578023
0.005647608
0.005708002
0.005758814
0.005800483
0.005833384
0.005856608
0.005869334
0.005871455
0.005862259
0.005841068
0.005807153
0.005759767
0.005698125
0.005621382
0.005528694
0.005418747
0.005288068
0.005140892
0.004970996
0.004777311
0.004559177
0.003821422
0.003490596
0.003433769
0.003227648
0.002863223
0.002445414
0.001944374
0.001398134
0.0008284659
0.000319179
5.731936e-05
3.427209e-05
0.0003484076
0.0006625563
0.0009153408
0.001210138
0.001532206
0.001869855
0.002214837
0.002558393
0.002893107
0.003212825
0.003515269
0.003799869
0.004067789
0.004318592
0.004549649
0.00476226
0.0049588
0.005140913
0.005309886
0.005466773
0.005612458
0.00574757
0.005872511
0.005987562
0.006093086
0.006187389
0.006275217
0.00635247
0.0064194
0.006475835
0.006521854
0.00655712
0.006581004
0.006592588
0.006591746
0.006577663
0.006549671
0.006506929
0.006448565
0.006373643
0.006281119
0.006169827
0.006038496
0.005885585
0.005708902
0.005507953
0.00528148
0.005025109
0.004733005
0.0043996
0.004025175
0.003611633
0.003157208
0.002658462
0.002114444
0.001532118
0.0009319364
0.0003780771
5.772234e-05
3.539366e-05
0.0003661593
0.0007430749
0.001044637
0.001377297
0.00173499
0.002105246
0.002477825
0.002844336
0.003198842
0.003537736
0.003859013
0.004162158
0.004447316
0.004714159
0.004963281
0.005194903
0.005409509
0.005608573
0.00579362
0.00596587
0.006126288
0.006275514
0.006413743
0.006541028
0.006655118
0.006763419
0.006860336
0.00694579
0.007019666
0.00708171
0.007131478
0.007169128
0.007193857
0.007205073
0.007202385
0.00718497
0.007152256
0.007103642
0.007038447
0.006955879
0.006855017
0.006734788
0.006593967
0.006430932
0.006242544
0.006031664
0.005791312
0.005517089
0.005206034
0.004856119
0.004464281
0.004026139
0.003537135
0.002993768
0.002394859
0.001744328
0.001062718
0.0004288524
5.805161e-05
3.685604e-05
0.0003785
0.000807394
0.001151974
0.001511077
0.001889429
0.002277006
0.002666456
0.003051093
0.00342599
0.003783155
0.004121233
0.004439405
0.00473713
0.005016695
0.00528008
0.005528861
0.005762866
0.005981933
0.006186818
0.006377799
0.006555037
0.006719758
0.006873499
0.007016367
0.007146054
0.007265757
0.007372871
0.00746714
0.007548255
0.007615852
0.007669606
0.007709771
0.007735397
0.007745817
0.007740491
0.007718868
0.00768042
0.007624584
0.007550709
0.007458008
0.00734548
0.007211936
0.007056065
0.006876827
0.006670772
0.006438277
0.006173686
0.005874213
0.005537177
0.00515935
0.004736938
0.004266222
0.003743776
0.003166979
0.002535271
0.001853378
0.001140805
0.0004708929
5.820675e-05
3.892676e-05
0.0003909872
0.0008551229
0.001236408
0.001615197
0.002008256
0.002411956
0.0028149
0.003209928
0.003591218
0.003958479
0.004308947
0.004641562
0.004956291
0.005253872
0.005535165
0.005801725
0.006054667
0.006293263
0.006516075
0.006726287
0.006924431
0.007110057
0.00728236
0.007438588
0.007584852
0.007717145
0.007835214
0.007938738
0.008027354
0.008100663
0.008158437
0.008200777
0.0082268
0.008235797
0.008227186
0.008200491
0.008155288
0.008091168
0.00800773
0.007904585
0.007780744
0.007634095
0.007464516
0.007271139
0.007050594
0.006802268
0.006522289
0.00620704
0.005854193
0.005460207
0.005019959
0.00452904
0.003982883
0.003377496
0.00271106
0.001987486
0.001227174
0.0005090921
5.846244e-05
3.785179e-05
0.0004116086
0.000892523
0.001302458
0.001697517
0.00210155
0.00250976
0.002917468
0.003318554
0.003708773
0.004085872
0.004448231
0.004795085
0.005126329
0.005442263
0.005743174
0.006027642
0.006297912
0.006556033
0.0068028
0.007035518
0.00725419
0.007458603
0.007648441
0.00782225
0.007982606
0.008127458
0.008256401
0.008369032
0.008464938
0.008543698
0.00860511
0.008649158
0.008675164
0.008682343
0.008669602
0.008636626
0.008583047
0.008508438
0.008412298
0.008294013
0.008153482
0.007991648
0.007806726
0.007596587
0.007359182
0.007093213
0.006796164
0.006465948
0.006097353
0.005684708
0.005222297
0.004708135
0.004137722
0.003507339
0.002815911
0.002067935
0.001283217
0.0005385023
5.845486e-05
3.751015e-05
0.000412121
0.0009103719
0.001348434
0.001759949
0.002168717
0.002579913
0.002990197
0.003395295
0.003791863
0.004177656
0.004551219
0.004911719
0.005258747
0.005592097
0.005910596
0.006216994
0.006510156
0.00678977
0.007056151
0.00730863
0.007546509
0.007769149
0.007975397
0.008165834
0.008339882
0.00849679
0.00863607
0.008757234
0.008859793
0.008943247
0.009007264
0.00905154
0.009075281
0.009078176
0.009060464
0.009021611
0.008961152
0.008878655
0.00877369
0.008645803
0.008494489
0.008319047
0.008118678
0.007890951
0.007637422
0.007354843
0.007040779
0.006691982
0.00630479
0.005875704
0.00540179
0.004873812
0.004287092
0.0036377
0.002924173
0.002150634
0.001337522
0.0005643923
5.860021e-05
4.284296e-05
0.0003884835
0.0009115245
0.001376904
0.001803551
0.002218671
0.00263167
0.003043025
0.003450573
0.003851905
0.004245036
0.004628545
0.005001478
0.005363198
0.005712922
0.006051556
0.00637778
0.006690947
0.006990325
0.007275386
0.007545728
0.007800734
0.008039641
0.00826062
0.008465412
0.008652239
0.00882051
0.008969627
0.00909901
0.009208088
0.009296299
0.009363198
0.009408403
0.009431484
0.009432048
0.009409674
0.009364013
0.009294734
0.009201535
0.009084146
0.008942314
0.008775775
0.008584222
0.008367278
0.008123602
0.007853986
0.007556316
0.007228523
0.006867424
0.006468698
0.006027106
0.005536944
0.004993624
0.004390797
0.003724542
0.002994146
0.002203896
0.001374143
0.0005835478
5.851537e-05
4.198076e-05
0.0003917072
0.000910446
0.001393991
0.001832472
0.002252741
0.002667637
0.003080163
0.003489605
0.003894395
0.004293143
0.004684738
0.005068279
0.005442921
0.005807958
0.006162064
0.006503835
0.006832165
0.007147067
0.00744805
0.007734492
0.008005782
0.008261433
0.008500297
0.008720401
0.008920478
0.009099805
0.009257726
0.009393809
0.00950765
0.009598839
0.009667078
0.009712057
0.009733212
0.0097301
0.009702331
0.009649576
0.009571565
0.009468087
0.009338987
0.00918417
0.009003577
0.008797192
0.008564897
0.008306014
0.00802109
0.007709392
0.007369472
0.006998019
0.006590196
0.006140256
0.005641934
0.005088916
0.004476338
0.003799656
0.003056434
0.002251272
0.001405245
0.0005988456
5.858562e-05
4.236846e-05
0.0003838067
0.0008992677
0.001395328
0.00184477
0.002270291
0.002686346
0.00309869
0.003508716
0.003916053
0.004319732
0.004718533
0.005110987
0.005494364
0.005866961
0.00620039
0.006353553
0.006534486
0.006783693
0.0071099
0.00747173
0.00782664
0.00810591
0.008358027
0.008622179
0.008948581
0.009283552
0.009487925
0.009629674
0.009748189
0.009842716
0.009912643
0.00995747
0.009976778
0.009970196
0.009937404
0.009878145
0.009792222
0.009679475
0.009539827
0.009373282
0.009179934
0.008959981
0.008704575
0.008320152
0.00795443
0.007681822
0.00745118
0.007086177
0.00667397
0.006219892
0.005716736
0.005157842
0.004537354
0.003851242
0.00309788
0.002282504
0.001426303
0.0006096336
5.849251e-05
4.317923e-05
0.0003741361
0.0008832856
0.001388323
0.001849082
0.002281906
0.002701446
0.003115458
0.003526839
0.003935988
0.004341985
0.004743163
0.005137251
0.005522192
0.00579135
0.005981401
0.006156246
0.00632
0.006506026
0.006715525
0.007009181
0.007343863
0.007716218
0.008048787
0.008354615
0.008634709
0.008909206
0.009175232
0.009433826
0.009688078
0.009929224
0.01009761
0.01014229
0.01016004
0.01015054
0.01011352
0.01004883
0.009956426
0.00980017
0.009595716
0.009346399
0.009047828
0.008691899
0.008319091
0.007982741
0.00768808
0.007433413
0.007207449
0.007032202
0.00672589
0.006272878
0.005768799
0.005207151
0.004582368
0.003890393
0.003130296
0.002306911
0.001441978
0.0006171619
5.849107e-05
4.398259e-05
0.0003655441
0.0008667724
0.001378031
0.001848808
0.002288007
0.002711005
0.003126581
0.003538639
0.003948138
0.004354381
0.004755686
0.005149688
0.005533765
0.005770774
0.005907436
0.006022419
0.006159331
0.006372831
0.006643488
0.006918494
0.007192299
0.007481126
0.007786517
0.008092708
0.008387699
0.008662352
0.008911163
0.009139781
0.009363418
0.009592081
0.009826481
0.009899649
0.009835328
0.009793317
0.009743754
0.009672112
0.009569307
0.009428837
0.009247027
0.009023195
0.008758102
0.008453515
0.0081134
0.007748295
0.00740965
0.007149507
0.006990596
0.006888561
0.006734585
0.006308251
0.005804449
0.005241256
0.004613405
0.003917253
0.003151975
0.002323162
0.001452672
0.0006222591
5.843692e-05
4.470706e-05
0.0003578604
0.0008494112
0.001362076
0.001838539
0.002285587
0.002713381
0.003131093
0.003543527
0.003952347
0.004357269
0.004756757
0.00514833
0.005519507
0.005682328
0.005791938
0.00592459
0.006124417
0.006344038
0.006574734
0.006809501
0.00707316
0.007344107
0.007636331
0.007923965
0.008195075
0.00844434
0.008670959
0.00887926
0.009081482
0.009299671
0.009565485
0.009666735
0.009584147
0.00952258
0.009465135
0.009397273
0.009304785
0.009176873
0.009007145
0.008792856
0.008533972
0.008235775
0.007912229
0.00758459
0.007277225
0.007012905
0.006826983
0.006723976
0.00664101
0.006331123
0.005829029
0.00526555
0.00463592
0.003936888
0.003168069
0.00233528
0.00146021
0.000625052
5.840318e-05
4.533505e-05
0.0003514893
0.0008329726
0.001345123
0.001828513
0.002280093
0.002711615
0.003131268
0.00354392
0.003951674
0.004354699
0.004751859
0.005141077
0.005491722
0.005677039
0.005813208
0.005955524
0.006117855
0.006313285
0.006546684
0.006799111
0.007063249
0.007338274
0.007612605
0.007878635
0.008129941
0.008361067
0.00856981
0.008759822
0.008944469
0.009154367
0.009448736
0.009583077
0.009486428
0.009400306
0.009327614
0.009252036
0.009156657
0.009029004
0.00886142
0.008650298
0.0083955
0.008101124
0.007777723
0.007445197
0.007133469
0.006878117
0.006708453
0.006627218
0.006567991
0.006346841
0.005846647
0.005283464
0.004652846
0.003951842
0.003180286
0.002343977
0.001466037
0.0006277769
5.834227e-05
4.586371e-05
0.00034627
0.0008174277
0.001327112
0.001813728
0.002270682
0.002706509
0.003128034
0.003540752
0.0039472
0.004347975
0.004742269
0.005128313
0.005470373
0.005660636
0.005806803
0.005961616
0.006144283
0.006354493
0.006581372
0.006831552
0.007097545
0.007376776
0.007647858
0.007905279
0.008144479
0.008362139
0.008558198
0.008737978
0.008913427
0.009101629
0.009318096
0.009556062
0.009546325
0.00936126
0.009256865
0.009170561
0.009069081
0.008935973
0.008763208
0.008547499
0.00828944
0.007994272
0.007673278
0.007344871
0.007034326
0.00677283
0.006591028
0.006503143
0.006471688
0.006354325
0.005855728
0.005292567
0.004660835
0.003958061
0.003184632
0.002347016
0.00146777
0.0006281824
5.830231e-05
4.635222e-05
0.0003422716
0.0008036882
0.00130949
0.00179811
0.002259267
0.00269746
0.003121357
0.003534668
0.003940281
0.004339322
0.00473157
0.00511571
0.005484992
0.005693692
0.005858335
0.0060252
0.006211792
0.006422799
0.006656926
0.006911235
0.007180422
0.007452705
0.007713512
0.007961454
0.008190705
0.008397348
0.008581027
0.008746958
0.008907382
0.009080589
0.009285324
0.009536607
0.009552473
0.009358763
0.009229904
0.009121629
0.009005503
0.008863482
0.008685381
0.008466765
0.008207843
0.007913592
0.007594831
0.007269506
0.00696259
0.006705157
0.006527608
0.006444764
0.006423595
0.006327974
0.005861697
0.005298973
0.004666857
0.003963224
0.003188732
0.00234997
0.001469331
0.0006293197
5.825515e-05
4.674067e-05
0.0003394623
0.000791935
0.001292853
0.001781659
0.002245838
0.002688046
0.003113012
0.003526871
0.003932131
0.004330202
0.004721345
0.005104429
0.005478788
0.005754088
0.005945053
0.006127385
0.006324254
0.006543408
0.006783699
0.007040841
0.007301342
0.007561075
0.007814733
0.008053668
0.008271181
0.00846439
0.008633397
0.008782764
0.008923536
0.009074876
0.009263914
0.009525216
0.009562002
0.00936364
0.009213224
0.009083918
0.008952147
0.00879948
0.008614406
0.008391644
0.008131144
0.007837824
0.007522162
0.007201134
0.00689814
0.006643114
0.006466805
0.006386943
0.006375931
0.006300391
0.005864436
0.00530206
0.004669409
0.003964783
0.003189267
0.002349872
0.001469364
0.0006290559
5.81942e-05
4.715575e-05
0.0003377807
0.0007823976
0.001278032
0.001766259
0.00223241
0.002676853
0.003104254
0.003518819
0.003924119
0.004321864
0.004712685
0.005096859
0.005472893
0.00584054
0.006069339
0.006268987
0.006479331
0.006705456
0.006946839
0.007198907
0.00745637
0.007709948
0.007952702
0.008176629
0.008378411
0.008555703
0.008708351
0.008840021
0.008960673
0.009089835
0.009259121
0.009512432
0.009564696
0.009373628
0.009207763
0.009059536
0.008911777
0.008747566
0.008554954
0.008327922
0.008065921
0.007773549
0.007460895
0.007144341
0.006846377
0.006596078
0.00642361
0.006347026
0.00634094
0.006277031
0.00586623
0.005303918
0.004670664
0.003965175
0.003188893
0.0023491
0.00146876
0.0006288917
5.815793e-05
4.746451e-05
0.0003373156
0.0007750121
0.001265111
0.001751757
0.002218736
0.002665212
0.003094487
0.003510558
0.0039167
0.004314971
0.004706411
0.005091309
0.005470052
0.005842161
0.006207543
0.006446639
0.006663233
0.006896234
0.007141751
0.007391562
0.00763989
0.007881192
0.008109546
0.008319287
0.008506083
0.008667601
0.008804173
0.008918821
0.009018711
0.009119412
0.009254316
0.009489539
0.009595434
0.009414692
0.009201289
0.009036423
0.008878457
0.008705189
0.008505112
0.008273115
0.008008975
0.007717169
0.007407382
0.007095329
0.006802558
0.006557318
0.006389318
0.006316919
0.006316201
0.006261703
0.005867302
0.005304744
0.004670722
0.00396432
0.003187326
0.002347315
0.001467296
0.0006280877
5.80975e-05
4.790634e-05
0.0003374052
0.0007694528
0.001254278
0.001738853
0.002206305
0.002654353
0.003085324
0.003503005
0.003910523
0.004310083
0.004703025
0.005090016
0.005471272
0.005846552
0.00621509
0.006577924
0.006890059
0.007120434
0.007355406
0.007602304
0.007850268
0.008083192
0.00829728
0.008487397
0.008656127
0.008799791
0.008919
0.009017862
0.009104631
0.009192108
0.009296133
0.009427883
0.009570439
0.00948131
0.009225935
0.009032367
0.008856601
0.008671865
0.008464
0.008227055
0.007960669
0.007669218
0.007362096
0.007054495
0.006767208
0.006527705
0.006365016
0.0062972
0.006300854
0.006252417
0.005868362
0.005305199
0.004670179
0.003962741
0.003184981
0.002344695
0.001465371
0.0006272909
5.808107e-05
4.79578e-05
0.0003393097
0.0007667439
0.001246044
0.001727896
0.002195059
0.002644092
0.003076994
0.003496652
0.003906083
0.004307582
0.004702684
0.005092277
0.005476744
0.00585609
0.006230076
0.006597883
0.006959272
0.007313087
0.007626676
0.007857854
0.008080187
0.008297919
0.008500981
0.008685655
0.008838411
0.008962012
0.009060369
0.009138602
0.009204685
0.009270511
0.009349498
0.009448586
0.009569658
0.009492974
0.009244658
0.00903857
0.008846274
0.008647781
0.008430352
0.008187649
0.007918721
0.007627495
0.007322947
0.007019768
0.006738103
0.006504754
0.006348125
0.006285814
0.006294239
0.00625006
0.005869987
0.005305915
0.00466973
0.003961206
0.003182734
0.002342338
0.001463446
0.0006263175
5.803789e-05
4.811219e-05
0.0003422913
0.0007643927
0.0012387
0.001718257
0.002185232
0.00263545
0.003070103
0.003491985
0.003903785
0.00430782
0.004705722
0.005098503
0.005486653
0.005870231
0.006248931
0.006622112
0.006988665
0.007347232
0.007696474
0.008034288
0.008343525
0.00854776
0.008729688
0.008894606
0.009028939
0.009132808
0.009210805
0.00926863
0.009313051
0.009352876
0.009399946
0.009470766
0.009576437
0.009503283
0.009259521
0.009043918
0.008838076
0.008627355
0.008400973
0.008152829
0.007881639
0.007590897
0.007289128
0.006990543
0.006714749
0.006487958
0.006337956
0.006281656
0.006294705
0.006252932
0.005872406
0.005307052
0.004669409
0.003959558
0.003180179
0.002339561
0.001461135
0.0006252615
5.803818e-05
5.024211e-05
0.000337158
0.0007508442
0.001234062
0.00171101
0.002177518
0.002628822
0.0030655
0.0034898
0.003904426
0.004311608
0.004712996
0.005109649
0.005502085
0.005890347
0.006274035
0.006652355
0.007024147
0.007387927
0.007741746
0.00808368
0.008411406
0.008722433
0.00897502
0.009114708
0.009222862
0.009306597
0.009364836
0.009401955
0.009425094
0.009442429
0.009463944
0.00950222
0.009575575
0.009501385
0.009269818
0.00904828
0.008830763
0.008609148
0.008374813
0.008121945
0.007848974
0.00755899
0.00726011
0.00696615
0.006696339
0.006476427
0.006333621
0.006284024
0.006301984
0.006261348
0.005876123
0.005309198
0.004669901
0.0039586
0.003178219
0.002337238
0.001459234
0.000624284
5.8017e-05
5.265809e-05
0.0003401445
0.0007394124
0.001232855
0.001706472
0.002172128
0.002624324
0.00306302
0.003490296
0.003908424
0.004319537
0.004725255
0.005126626
0.00552414
0.005917776
0.00630702
0.006690934
0.00706819
0.007437115
0.007795561
0.00814148
0.008472471
0.00878598
0.009080027
0.009350746
0.009455174
0.009509159
0.009540252
0.009552505
0.009551344
0.009543071
0.009535625
0.009541831
0.009582977
0.009504486
0.009279564
0.009051011
0.00882428
0.008593861
0.00835271
0.008095673
0.007821263
0.007532353
0.007236648
0.006947471
0.00668372
0.006470785
0.00633539
0.006292724
0.006315416
0.006274524
0.005881306
0.005312409
0.004671145
0.003958122
0.003176479
0.002334883
0.001457027
0.0006231943
5.803768e-05
5.394053e-05
0.0003452287
0.0007289093
0.001225831
0.001704117
0.002168799
0.002622211
0.003063585
0.003494469
0.003916778
0.004332656
0.004743632
0.00515067
0.005554166
0.005953977
0.006349439
0.00673944
0.007122409
0.007496226
0.007859156
0.008208749
0.0085425
0.008857965
0.009152298
0.00942297
0.00966757
0.009751628
0.009755203
0.0097338
0.009702096
0.009667127
0.009632798
0.009600244
0.009563714
0.009505615
0.009321237
0.009056535
0.008816961
0.008580471
0.008335011
0.008075145
0.007799758
0.007511675
0.007218306
0.006933038
0.006674916
0.006469034
0.006341562
0.006306606
0.00633462
0.006292738
0.005888435
0.005317093
0.004673634
0.00395875
0.003175742
0.002333426
0.001455623
0.0006223523
5.803793e-05
5.415891e-05
0.0003498457
0.0007201226
0.001209003
0.001705192
0.002168681
0.002623262
0.003067548
0.003502442
0.00393006
0.004351723
0.004769068
0.005182882
0.005593422
0.006000312
0.006402555
0.006798634
0.007187004
0.007566004
0.007933088
0.008285793
0.00862154
0.008937974
0.009232038
0.009501486
0.009744
0.009957479
0.009983714
0.009937228
0.009872377
0.009803972
0.00973695
0.009670287
0.009596749
0.009508847
0.009324085
0.009065166
0.008818994
0.008574427
0.008322954
0.008059439
0.007782655
0.007496267
0.007206872
0.006927051
0.00667478
0.006475479
0.006355317
0.006327172
0.006359581
0.00631499
0.005896769
0.005323181
0.004677221
0.003960194
0.003175529
0.002332163
0.001454071
0.000621414
5.806248e-05
5.41203e-05
0.0003539354
0.0007123589
0.00119552
0.001707529
0.002170718
0.002627385
0.003075646
0.003515742
0.003949487
0.004378594
0.004803567
0.005225082
0.005643058
0.006056873
0.006465892
0.006868679
0.007263149
0.007646967
0.008017706
0.008372815
0.008709679
0.009026033
0.00931877
0.00958585
0.009825113
0.01003465
0.01019746
0.01015874
0.01006476
0.009959545
0.009854217
0.009748884
0.009641143
0.009526022
0.009333561
0.009076876
0.008825874
0.008575597
0.008320249
0.008056538
0.007782234
0.007497396
0.007207971
0.006928436
0.00668131
0.00648878
0.00637617
0.006356896
0.006395433
0.00634875
0.005907268
0.005330646
0.004682157
0.003962936
0.003176515
0.002331956
0.00145334
0.0006209045
5.809164e-05
5.463769e-05
0.0003585863
0.0007065857
0.001181476
0.001713767
0.002176966
0.002635808
0.003088061
0.003534129
0.003974832
0.004411263
0.004844456
0.005274583
0.00570141
0.006124127
0.006541116
0.006950688
0.007350737
0.007738882
0.008112587
0.008469249
0.00880632
0.00912124
0.009411626
0.009675299
0.009910304
0.01011495
0.01028781
0.01037224
0.01027878
0.01013788
0.009990385
0.009845573
0.009699118
0.009545556
0.009338035
0.009084048
0.008830413
0.0085772
0.008319938
0.008052555
0.007773329
0.007487127
0.007205723
0.006937313
0.006696684
0.006508884
0.006400739
0.006386527
0.006428112
0.006376054
0.005919275
0.005339755
0.004688556
0.003966775
0.003178263
0.002332172
0.001452722
0.000620313
5.812204e-05
5.490582e-05
0.0003627878
0.0007018172
0.001171216
0.001720226
0.002184776
0.002647182
0.003105058
0.003558268
0.00400741
0.004453196
0.004896058
0.005335891
0.005772049
0.006203333
0.006628055
0.007044182
0.007449396
0.007841192
0.008216977
0.008574173
0.008910358
0.009222999
0.009509951
0.009769213
0.009999041
0.01019797
0.01036484
0.01049877
0.01046855
0.0103158
0.01013192
0.00994624
0.009761347
0.009568435
0.009342386
0.009088878
0.008832402
0.008573046
0.008308652
0.008037871
0.007763622
0.007486563
0.007208802
0.006942978
0.006706918
0.006526349
0.006425471
0.006413328
0.006454808
0.006399084
0.005932749
0.00535017
0.004696071
0.003971755
0.003181098
0.002333316
0.001452763
0.0006200169
5.817611e-05
5.559807e-05
0.0003678109
0.0006993358
0.001164549
0.001730387
0.002197277
0.002664187
0.00312862
0.003590053
0.004048676
0.004504724
0.004958122
0.005408316
0.005854241
0.006294337
0.006726636
0.007148861
0.007558536
0.00795309
0.008329967
0.008686677
0.0090209
0.009330279
0.00961285
0.009866834
0.01009073
0.01028331
0.01044366
0.01057112
0.01065244
0.0105041
0.01028852
0.01006295
0.009840534
0.009608506
0.0093581
0.009097067
0.008834344
0.008572824
0.008311609
0.008047748
0.007775808
0.007496789
0.007217448
0.00695173
0.006719367
0.006544268
0.006451652
0.006450776
0.006497311
0.00643475
0.005948315
0.005362309
0.004705033
0.003977923
0.003184811
0.002335058
0.001453136
0.0006198448
5.822604e-05
5.574666e-05
0.0003723009
0.0006973372
0.00115523
0.00174088
0.002211231
0.002684025
0.003156411
0.003627566
0.004097096
0.004564637
0.005029536
0.005490721
0.005946684
0.006395516
0.006834999
0.007262707
0.007676107
0.00807264
0.008449809
0.008805215
0.009136611
0.009441938
0.0097194
0.009967466
0.01018489
0.01037071
0.01052424
0.01064507
0.01073293
0.01066552
0.01044111
0.01017935
0.009924906
0.009657086
0.009376121
0.009105759
0.008843218
0.00858565
0.008326837
0.008061853
0.007788893
0.007510909
0.007235424
0.00697427
0.006746442
0.006576403
0.006488194
0.006489494
0.006535837
0.006468972
0.005965187
0.005375546
0.004714947
0.003984919
0.003189166
0.002337283
0.001453824
0.00061982
5.828195e-05
5.623109e-05
0.0003774069
0.0006979355
0.001153849
0.001755139
0.0022309
0.002711253
0.003193253
0.00367542
0.004156789
0.004636398
0.005113027
0.005585107
0.006050733
0.006507697
0.006953593
0.00738591
0.0078021
0.008199641
0.008576033
0.008929151
0.009256852
0.009557312
0.009828979
0.01007058
0.01028111
0.01045987
0.01060637
0.01072051
0.01080218
0.01080583
0.01058111
0.01029355
0.01001348
0.009714834
0.009405071
0.00912373
0.008858951
0.00860071
0.008342386
0.008078911
0.00780859
0.007532766
0.007258647
0.006999568
0.006775396
0.006611044
0.006530333
0.006539101
0.006587516
0.006506601
0.005984191
0.005390809
0.004726807
0.00399366
0.003195255
0.002340995
0.001455529
0.0006201224
5.833742e-05
5.776674e-05
0.0003807669
0.0006996319
0.0011522
0.00175612
0.00225273
0.002741218
0.003233675
0.003727806
0.004221902
0.00471431
0.0052032
0.005686506
0.006161932
0.006626993
0.007079109
0.007515673
0.007934119
0.008331989
0.008706911
0.009057011
0.009380362
0.009675403
0.009940847
0.01017569
0.01037919
0.01055088
0.01069055
0.01079806
0.01087364
0.0109176
0.0107123
0.01040932
0.01010948
0.009781043
0.009441397
0.009146618
0.008878382
0.008621633
0.008365632
0.008103837
0.007834031
0.007558639
0.007285484
0.007028265
0.006807198
0.006647427
0.006572298
0.006585361
0.006630979
0.006530179
0.006003982
0.005406998
0.004739598
0.004003284
0.003201943
0.002345158
0.001457667
0.0006209496
5.840003e-05
5.60026e-05
0.0003937852
0.0007022704
0.001149878
0.001757472
0.002278654
0.002776453
0.003280512
0.003787661
0.004295336
0.004801124
0.00530256
0.005797076
0.006282006
0.006754627
0.007212226
0.007652167
0.008071942
0.008469234
0.008841893
0.00918824
0.009506631
0.009795774
0.01005466
0.01028253
0.0104789
0.01064352
0.01077639
0.01087756
0.01094734
0.01098611
0.01082864
0.01052219
0.01020658
0.009851276
0.009483903
0.009176444
0.008904611
0.008648319
0.008393816
0.008133326
0.007864315
0.007589344
0.007316677
0.00706071
0.006842338
0.006687043
0.006617582
0.006634873
0.00667705
0.006555445
0.006025292
0.00542451
0.004753505
0.004013828
0.003209457
0.002349674
0.001459744
0.0006213728
5.847001e-05
5.492757e-05
0.0003993593
0.0007052499
0.001150287
0.001760636
0.002308216
0.002816907
0.003333806
0.003854904
0.004376781
0.00489625
0.005410219
0.005915647
0.006409545
0.006889006
0.007351262
0.007793723
0.008214015
0.008609757
0.008979569
0.009321654
0.009634706
0.009917708
0.01016991
0.01039083
0.01058018
0.01073804
0.01086436
0.01095945
0.01102371
0.01105758
0.01093179
0.01062089
0.01029207
0.009916523
0.009526902
0.009208992
0.008934532
0.008679331
0.00842676
0.008167584
0.007898989
0.007623953
0.00735136
0.007096296
0.006880248
0.006728947
0.006664528
0.006685374
0.00672376
0.006581992
0.006047815
0.005443172
0.004768478
0.004025289
0.003217597
0.002355055
0.001462658
0.0006224224
5.855167e-05
5.627213e-05
0.0003962115
0.0007094487
0.001151476
0.001765727
0.002341361
0.002862181
0.003392917
0.003928676
0.004465157
0.004998409
0.005524738
0.006040675
0.006542963
0.007028578
0.007494753
0.007938994
0.008359097
0.008752759
0.009119176
0.009456631
0.009764113
0.01004088
0.01028644
0.01050053
0.01068322
0.01083441
0.01095448
0.0110438
0.01110282
0.01113205
0.0110165
0.01070248
0.01036622
0.00997386
0.009567799
0.009243283
0.008968031
0.008714491
0.008463801
0.008205664
0.007937067
0.007661602
0.00738869
0.007134122
0.006919993
0.006772249
0.006712321
0.006736061
0.006770277
0.006609651
0.006071361
0.005462755
0.004784268
0.004037473
0.003226382
0.002360673
0.001465565
0.0006233769
5.862642e-05
5.876838e-05
0.0003992023
0.0007153814
0.001154644
0.001772074
0.002378484
0.002912327
0.00345768
0.00400862
0.004559916
0.005106865
0.005645215
0.006171125
0.006681141
0.007172182
0.007641539
0.008086862
0.008506151
0.008897386
0.009259997
0.00959257
0.009894363
0.01016489
0.01040391
0.0106115
0.0107876
0.01093254
0.01104673
0.01113062
0.01118473
0.0112096
0.01108812
0.01077093
0.01043295
0.01003186
0.009613266