/*--------------------------------*- C++ -*----------------------------------*\
| =========                 |                                                 |
| \\      /  F ield         | OpenFOAM: The Open Source CFD Toolbox           |
|  \\    /   O peration     | Version:  2312                                  |
|   \\  /    A nd           | Website:  www.openfoam.com                      |
|    \\/     M anipulation  |                                                 |
\*---------------------------------------------------------------------------*/
FoamFile
{
    version     2.0;
    format      ascii;
    arch        "LSB;label=32;scalar=64";
    class       volScalarField;
    location    "5850";
    object      qin;
}
// * * * * * * * * * * * * * * * * * * * * * * * * * * * * * * * * * * * * * //

dimensions      [1 0 -3 0 0 0 0];

internalField   uniform 0;

boundaryField
{
    plate
    {
        type            calculated;
        value           nonuniform List<scalar> 
200
(
2404.223
2346.088
2313.686
2289.778
2265.974
2246.98
2241.459
2249.998
2264.693
2278.466
2287.648
2288.687
2279.848
2265.383
2252.819
2246.825
2248.759
2259.842
2280.433
2306.62
2330.429
2344.37
2346.245
2341.147
2338.729
2345.947
2361.514
2378.914
2394.103
2407.164
2417.367
2421.758
2420.309
2418.078
2419.185
2421.966
2423.881
2428.016
2439.176
2455.2
2467.927
2472.213
2469.456
2463.424
2457.142
2453.255
2453.664
2458.251
2465.036
2471.337
2475.27
2477.886
2483.183
2493.377
2504.51
2509.695
2506.481
2498.129
2488.754
2481.142
2478.374
2482.726
2492.435
2502.712
2509.643
2511.242
2507.22
2500.293
2494.956
2492.757
2491.694
2491.256
2493.774
2499.243
2503.227
2502.258
2498.015
2493.851
2490.023
2485.199
2480.595
2479.016
2480.3
2480.811
2478.036
2473.514
2470.318
2469.231
2468.654
2467.299
2465.469
2464.019
2463.426
2464.093
2466.6
2471.08
2476.66
2481.886
2485.719
2488.097
2489.706
2491.315
2493.195
2494.897
2495.419
2493.734
2489.467
2483.385
2477.303
2473.308
2472.677
2475.163
2479.136
2482.509
2483.848
2482.999
2480.95
2479.13
2478.626
2479.74
2482.043
2484.81
2487.509
2490.061
2492.744
2495.851
2499.359
2502.808
2505.457
2506.626
2506
2503.767
2500.51
2496.973
2493.814
2491.481
2490.223
2490.17
2491.387
2493.828
2497.247
2501.133
2504.778
2507.496
2508.883
2508.988
2508.252
2507.219
2506.162
2504.845
2502.591
2498.683
2492.884
2485.813
2478.895
2473.827
2471.752
2472.536
2474.539
2475.129
2471.827
2463.672
2452.12
2440.913
2434.73
2437.096
2448.576
2466.262
2484.953
2499.481
2506.944
2507.686
2504.59
2501.247
2500.024
2500.979
2501.939
2499.581
2491.062
2475.605
2455.474
2436.011
2424.63
2428.492
2450.814
2487.356
2526.533
2555.155
2566.45
2563.175
2552.658
2540.264
2530.73
2535.49
2570.429
2637.072
2710.413
2760.468
2791.231
2838.922
)
;
    }
    riser
    {
        type            calculated;
        value           nonuniform List<scalar> 
200
(
5371.226
5196.797
5156.463
5190.444
5287.464
5399.624
5519.207
5529.573
5307.525
5116.349
5296.385
5588.334
5567.726
5424.533
5542.232
5818.811
5933.91
5823.74
5656.337
5603.101
5743.792
6061.718
6415.72
6622.981
6680.516
6727.534
6727.358
6543.004
6338.11
6438.08
6793.078
6989.888
6827.222
6622.978
6825.834
7388.061
7827.813
7941.352
7907.661
7699.88
7179.257
6679.027
6657.385
7010.913
7331.458
7429.123
7297.64
7001.608
6739.064
6691.484
6781.132
6784.11
6677.799
6620.106
6571.407
6372.822
6206.754
6459.825
7075.775
7551.366
7630.195
7476.335
7201.694
6837.328
6646.551
6814.907
7101.986
7291.066
7490.657
7675.258
7592.586
7321.445
7243.065
7396.711
7428.859
7150.887
6781.976
6605.282
6592.753
6538.363
6435.584
6462.704
6665.494
6880.302
6948.444
6879.005
6795.356
6773.983
6798.287
6843.46
6904.933
6951.017
6943.752
6898.589
6868.513
6888.692
6951.561
7015.325
7034.179
6985.747
6878.549
6738.997
6595.112
6472.631
6396.557
6385.745
6442.032
6545.883
6665.8
6775.392
6864.021
6933.299
6985.909
7018.583
7023.877
6996.8
6940.341
6866.512
6792.605
6734.701
6701.681
6692.721
6699.23
6709.82
6715.663
6713.798
6707.151
6701.806
6703.384
6714.644
6735.23
6762.94
6795.198
6829.805
6864.861
6898.259
6927.354
6949.195
6961.33
6962.753
6954.469
6939.357
6921.284
6903.841
6889.255
6877.978
6868.96
6860.368
6850.522
6838.841
6826.414
6815.853
6810.369
6812.457
6822.667
6838.914
6856.838
6871.434
6879.461
6881.132
6879.638
6878.213
6876.232
6866.913
6838.915
6782.311
6696.38
6594.206
6499.784
6438.115
6423.921
6455.236
6514.202
6573.961
6609.72
6610.309
6583.227
6547.845
6520.202
6499.165
6463.27
6385.199
6259.385
6117.738
6009.977
5960.889
5946.73
5923.774
5891.122
5901.151
5969.64
5974.455
5774.486
5413.401
5125.864
5067.639
5111.832
5080.83
5099.653
4971.44
)
;
    }
    topAndBottom
    {
        type            calculated;
        value           nonuniform List<scalar> 
120
(
2051.315
2569.491
3088.192
3440.077
3699.913
3912.973
4070.199
4172.303
4244.61
4312.242
4382.73
4450.108
4507.656
4555.026
4596.504
4635.501
4671.182
4699.21
4715.029
4716.972
4707.351
4691.287
4674.217
4659.588
4647.941
4637.696
4626.996
4615.449
4604.761
4597.972
4597.839
4605.33
4619.058
4635.895
4652.279
4665.434
4673.87
4677.125
4675.231
4668.461
4657.552
4644.044
4630.183
4618.145
4609
4602.164
4595.749
4587.494
4575.478
4558.214
4534.441
4503.181
4464.099
4417.821
4366.431
4314.572
4271.845
4251.154
4256
4344.92
7395.873
7419.447
7414.219
7252.147
6882.739
6403.797
5965.553
5655.167
5473.441
5374.365
5316.171
5298.793
5364.905
5556.16
5857.293
6180.374
6408.541
6464.967
6352.39
6136.364
5891.489
5654.608
5416.325
5148.706
4841.782
4521.313
4239.277
4048.46
3979.272
4030.087
4171.15
4355.402
4530.051
4646.692
4670.41
4587.651
4410.538
4174.644
3929.343
3723.598
3592.708
3551.136
3593.311
3700.416
3849.008
4017.719
4190.34
4355.616
4505.32
4632.547
4731.793
4801.012
4843.83
4868.986
4885.886
4898.859
4906.463
4901.493
4896.788
4850.042
)
;
    }
    frontAndBack
    {
        type            empty;
    }
}


// ************************************************************************* //
