/*--------------------------------*- C++ -*----------------------------------*\
| =========                 |                                                 |
| \\      /  F ield         | OpenFOAM: The Open Source CFD Toolbox           |
|  \\    /   O peration     | Version:  2312                                  |
|   \\  /    A nd           | Website:  www.openfoam.com                      |
|    \\/     M anipulation  |                                                 |
\*---------------------------------------------------------------------------*/
FoamFile
{
    version     2.0;
    format      ascii;
    arch        "LSB;label=32;scalar=64";
    class       volScalarField;
    location    "5850";
    object      T;
}
// * * * * * * * * * * * * * * * * * * * * * * * * * * * * * * * * * * * * * //

dimensions      [0 0 0 1 0 0 0];

internalField   nonuniform List<scalar> 
12000
(
450.3882
436.8188
435.1221
434.8664
434.8266
434.8168
434.8121
434.8084
434.8047
434.8006
434.7949
434.7875
434.7782
434.7673
434.7542
434.7384
434.72
434.6994
434.6764
434.6503
434.6212
434.5897
434.5554
434.5179
434.4774
434.4343
434.3883
434.3392
434.2872
434.2325
434.175
434.1146
434.0524
433.9819
433.8986
433.8043
433.7054
433.6019
433.4857
433.3477
433.1908
433.0356
432.8845
432.7172
432.5033
432.2607
432.0381
431.8211
431.5558
431.2147
430.8489
430.4897
430.0513
429.4943
428.8492
428.0925
427.0841
425.7169
423.5028
419.5164
450.4535
437.2882
435.7537
435.6625
435.8194
436.019
436.2262
436.4345
436.6458
436.8541
437.0401
437.2167
437.3877
437.5561
437.7082
437.84
437.9639
438.0881
438.1996
438.2889
438.3681
438.4488
438.5213
438.5749
438.6179
438.6599
438.6963
438.7199
438.734
438.7427
438.7445
438.7383
438.7256
438.7038
438.6721
438.6312
438.5814
438.5225
438.4537
438.3744
438.2843
438.1824
438.0665
437.9345
437.7857
437.6176
437.4244
437.2057
436.9564
436.6742
436.348
435.9661
435.5225
434.9886
434.3448
433.4954
432.2953
430.5535
427.6997
422.2404
450.9928
437.9948
436.3807
436.3468
436.6315
436.9774
437.3319
437.6804
438.0174
438.3393
438.6426
438.9252
439.1886
439.4348
439.663
439.8729
440.0658
440.243
440.4047
440.5506
440.6817
440.7996
440.9047
440.9969
441.0767
441.1453
441.2031
441.2501
441.2867
441.3132
441.3298
441.3369
441.3359
441.3235
441.2999
441.2654
441.22
441.1638
441.0965
441.0178
440.9272
440.8241
440.7076
440.5763
440.4298
440.2667
440.0828
439.8754
439.6403
439.3724
439.0702
438.7299
438.3298
437.8433
437.2283
436.425
435.3219
433.583
430.4846
423.7027
451.7956
438.6861
436.9606
436.9362
437.2956
437.7349
438.1813
438.6154
439.0307
439.424
439.7987
440.1513
440.4807
440.7861
441.0691
441.3311
441.5731
441.7961
442.0008
442.188
442.3583
442.5126
442.6514
442.7752
442.8844
442.9796
443.0609
443.1286
443.1828
443.2238
443.2515
443.2661
443.2691
443.2578
443.2325
443.1937
443.1413
443.0752
442.9953
442.9014
442.7931
442.6701
442.532
442.3779
442.2071
442.0194
441.8129
441.5843
441.3309
441.0482
440.7293
440.3593
439.9265
439.4172
438.7979
438.0098
436.9146
435.2244
432.1172
424.6739
452.692
439.3845
437.5265
437.4739
437.867
438.3636
438.8711
439.3633
439.8328
440.2777
440.6977
441.0945
441.4681
441.8183
442.1445
442.4477
442.7296
442.9909
443.232
443.4536
443.6563
443.8408
444.0076
444.157
444.2895
444.4053
444.5047
444.5878
444.6547
444.7054
444.7399
444.7588
444.7622
444.7487
444.7188
444.6732
444.6117
444.534
444.44
444.3294
444.202
444.0575
443.8953
443.7149
443.5157
443.2973
443.0583
442.7978
442.5145
442.1947
441.8257
441.4146
440.9551
440.4234
439.7857
438.987
437.9057
436.2597
433.2016
425.4192
453.6427
440.0746
438.0763
437.9665
438.3583
438.8818
439.4267
439.9591
440.4688
440.9527
441.41
441.8412
442.2475
442.6303
442.9899
443.3259
443.6392
443.9305
444.2002
444.4487
444.6764
444.884
445.0718
445.2401
445.3894
445.52
445.6319
445.7254
445.8006
445.8574
445.8959
445.9165
445.9185
445.9022
445.8678
445.8157
445.7457
445.6576
445.551
445.4256
445.2812
445.1173
444.9333
444.7287
444.5029
444.2548
443.9837
443.6883
443.3662
443.0133
442.6213
442.1844
441.6943
441.1344
440.4747
439.6601
438.5773
436.9551
433.9509
425.993
454.6115
440.7557
438.6138
438.4287
438.794
439.3214
439.8849
440.4422
440.9791
441.4909
441.9762
442.4352
442.8683
443.2762
443.6601
444.0206
444.3576
444.6713
444.962
445.2302
445.4761
445.7002
445.9029
446.0846
446.2455
446.3861
446.5065
446.6068
446.6872
446.7479
446.7887
446.8097
446.8109
446.7926
446.7549
446.6981
446.6218
446.5258
446.4098
446.2733
446.116
445.9371
445.7361
445.5124
445.2652
444.9937
444.697
444.3735
444.0207
443.6357
443.2142
442.7502
442.234
441.6497
440.9693
440.1407
439.0566
437.454
434.4969
426.4189
455.5851
441.4299
439.1399
438.8678
439.1885
439.7022
440.2697
440.8403
441.3947
441.9258
442.431
442.9099
443.3627
443.7897
444.1914
444.5687
444.9219
445.2512
445.5566
445.8384
446.0967
446.3322
446.545
446.7357
446.9044
447.0516
447.1775
447.2823
447.3662
447.4293
447.4717
447.4932
447.4941
447.4746
447.435
447.3751
447.2948
447.1937
447.0712
446.927
446.7603
446.5704
446.3566
446.1182
445.8543
445.5644
445.247
444.9008
444.5242
444.1146
443.6685
443.1803
442.641
442.0355
441.3371
440.4962
439.4092
437.8209
434.9075
426.7526
456.5581
442.0985
439.6561
439.29
439.5541
440.0409
440.6001
441.1729
441.7355
442.278
442.7965
443.2893
443.756
444.1966
444.6112
445.0001
445.3638
445.7028
446.0173
446.3075
446.5736
446.816
447.035
447.2311
447.4045
447.5558
447.6851
447.7927
447.879
447.9439
447.9877
448.0102
448.0115
447.9921
447.9519
447.8908
447.8085
447.7045
447.5783
447.4291
447.2562
447.0586
446.8356
446.5863
446.3099
446.0053
445.6715
445.3074
444.9116
444.4821
444.0158
443.5076
442.9493
442.3265
441.614
440.7639
439.6759
438.1016
435.2288
427.0385
457.4006
442.7541
440.1609
439.6992
439.8991
440.3484
440.889
441.455
442.018
442.5652
443.0906
443.5915
444.0667
444.5158
444.9386
445.3351
445.7056
446.0506
446.3704
446.6653
446.9356
447.1818
447.4041
447.603
447.779
447.9325
448.0638
448.1733
448.2612
448.3276
448.3728
448.3965
448.3991
448.3806
448.341
448.2802
448.1976
448.0928
447.965
447.8133
447.6367
447.4343
447.205
446.9479
446.6618
446.3458
445.999
445.6205
445.2092
444.7636
444.2811
443.757
443.1836
442.5473
441.8237
440.9665
439.8781
438.3162
435.4836
427.2987
458.3967
443.3991
440.6534
440.0965
440.2282
440.6327
441.1465
441.698
442.2543
442.7997
443.3263
443.8302
444.3094
444.7627
445.1899
445.5908
445.9654
446.3139
446.6366
446.9341
447.2066
447.4547
447.6786
447.879
448.0563
448.211
448.3435
448.4541
448.5431
448.6108
448.6573
448.6826
448.6867
448.6698
448.6317
448.572
448.4904
448.3861
448.2582
448.1057
447.9274
447.7221
447.4887
447.2257
446.9322
446.6071
446.2497
445.8594
445.4355
444.9768
444.481
443.9441
443.3589
442.7124
441.9809
441.1193
440.0323
438.4828
435.6879
427.5444
459.5234
444.0357
441.1346
440.484
440.5464
440.9014
441.3822
441.9127
442.4561
442.994
443.5166
444.0187
444.4974
444.9513
445.3796
445.7819
446.1582
446.5086
446.8331
447.1322
447.4061
447.6554
447.8805
448.082
448.2602
448.4157
448.5489
448.6604
448.7503
448.8191
448.8668
448.8935
448.8992
448.884
448.8477
448.7898
448.7097
448.6066
448.4796
448.3273
448.1486
447.9418
447.7054
447.438
447.1384
446.8054
446.4387
446.0381
445.6034
445.1339
444.6279
444.0815
443.4878
442.8342
442.0974
441.2332
440.1484
438.6104
435.8515
427.7773
460.4369
444.6765
441.6118
440.8644
440.8547
441.1559
441.5983
442.1022
442.6272
443.1524
443.6662
444.1621
444.6365
445.0873
445.5135
445.9147
446.2912
446.6429
446.9696
447.2712
447.5477
447.7993
448.0264
448.2295
448.4093
448.5661
448.7003
448.8126
448.9033
448.9729
449.0216
449.0495
449.0566
449.043
449.0083
448.9521
448.8737
448.7722
448.6464
448.495
448.3164
448.1088
447.8705
447.5995
447.2942
446.9534
446.5773
446.1668
445.7226
445.2445
444.7308
444.1779
443.5787
442.9207
442.1813
441.3166
440.235
438.708
435.9815
427.9986
461.4897
445.3187
442.0838
441.2384
441.1559
441.4007
441.8004
442.2724
442.7739
443.2813
443.7815
444.2667
444.7321
445.1752
445.5945
445.9901
446.3657
446.7226
447.0572
447.3663
447.6485
447.9038
448.1337
448.3398
448.5223
448.6808
448.8155
448.9277
449.0186
449.0886
449.1378
449.1665
449.1746
449.1621
449.1287
449.0739
448.997
448.897
448.7727
448.6224
448.4443
448.2366
447.997
447.7235
447.4127
447.062
446.6735
446.2522
445.8001
445.3159
444.7977
444.2412
443.6395
442.98
442.24
441.3763
440.2984
438.7811
436.0829
428.2001
462.5334
445.9566
442.5493
441.6076
441.4549
441.6445
442.0005
442.438
442.912
443.3972
443.8789
444.3483
444.7997
445.2297
445.6398
446.0333
446.4103
446.7692
447.1076
447.423
447.7129
447.9757
448.2113
448.4207
448.6052
448.7655
448.9023
449.0162
449.1081
449.1784
449.2276
449.2563
449.2646
449.2527
449.2201
449.1662
449.0904
448.9917
448.8689
448.72
448.5431
448.3356
448.0942
447.8156
447.4972
447.1381
446.7398
446.3061
445.8433
445.3551
444.8361
444.2792
443.6775
443.0183
442.2793
441.4177
440.3438
438.8351
436.1595
428.3711
463.5659
446.5924
443.0108
441.9734
441.7532
441.8877
442.1982
442.5986
443.0421
443.5021
443.9628
444.4144
444.851
445.2688
445.6702
446.0595
446.4366
446.7985
447.1408
447.4596
447.7528
448.02
448.2609
448.4755
448.6642
448.8276
448.9668
449.0827
449.176
449.2474
449.2975
449.3266
449.3353
449.3237
449.2914
449.2378
449.1622
449.0635
448.9403
448.7909
448.6131
448.4041
448.161
447.8803
447.5585
447.1933
446.7859
446.3417
445.8693
445.3756
444.8562
444.3003
443.6998
443.0422
442.3051
441.4461
440.3762
438.8746
436.2164
428.5026
464.5878
447.226
443.4672
442.3389
442.0517
442.131
442.3953
442.757
443.1683
443.6015
444.0397
444.4726
444.8939
445.2997
445.6937
446.0805
446.4576
446.8198
447.1625
447.483
447.7795
448.0508
448.296
448.5147
448.707
448.8738
449.0158
449.1341
449.2293
449.3023
449.3534
449.383
449.3919
449.3803
449.3477
449.2936
449.2171
449.1174
448.9931
448.8424
448.663
448.4522
448.2067
447.9231
447.5981
447.2298
446.8183
446.368
445.8875
445.3864
444.865
444.311
443.7124
443.0568
442.3221
441.4659
440.3998
438.9042
436.2582
428.5953
465.5918
447.8536
443.9245
442.7043
442.3509
442.3759
442.5943
442.9171
443.2957
443.7016
444.1172
444.5318
444.9386
445.3342
445.7216
446.1035
446.4771
446.8379
447.1815
447.5041
447.8033
448.0773
448.3253
448.5469
448.7421
448.9116
449.0561
449.1763
449.2732
449.3473
449.3991
449.429
449.4378
449.4257
449.3924
449.3372
449.2595
449.1583
449.0324
448.8799
448.6986
448.4859
448.2383
447.9525
447.6249
447.2533
446.8377
446.3826
445.8968
445.3907
444.8676
444.3155
443.7189
443.0658
442.3338
441.481
440.4189
438.9288
436.2927
428.6586
466.5709
448.4757
444.3829
443.0703
442.6513
442.6234
442.7969
443.0816
443.4282
443.8075
444.2014
444.5987
444.9922
445.3781
445.7587
446.1357
446.506
446.8648
447.2075
447.5305
447.8308
448.1065
448.3562
448.5794
448.7763
448.9472
449.093
449.2142
449.3117
449.3861
449.4378
449.4675
449.4756
449.4628
449.4285
449.372
449.2927
449.1898
449.0619
448.9075
448.7242
448.5093
448.2595
447.9713
447.6413
447.2673
446.849
446.3903
445.9
445.3891
444.8644
444.314
443.7198
443.0693
442.3403
441.4907
440.4326
438.9477
436.3193
428.698
467.5152
449.0934
444.8405
443.4364
442.9535
442.8745
443.005
443.2534
443.5695
443.9238
444.2977
444.6794
445.0614
445.4387
445.8124
446.1838
446.5498
446.9056
447.2465
447.5686
447.8685
448.1441
448.3938
448.6171
448.814
448.985
449.1305
449.2513
449.3482
449.4218
449.4726
449.5012
449.508
449.4938
449.4582
449.4001
449.3191
449.2143
449.0845
448.9279
448.7423
448.525
448.2729
447.9823
447.65
447.2735
446.8527
446.3915
445.8986
445.3854
444.8594
444.3099
443.7181
443.0704
442.3445
441.4985
440.4447
438.9655
436.3456
428.7365
468.4194
449.7063
445.2969
443.8029
443.258
443.1302
443.2202
443.4346
443.7225
444.054
444.4099
444.7781
445.1503
445.5209
445.8884
446.2537
446.6145
446.9661
447.3036
447.6229
447.9204
448.1939
448.4418
448.6634
448.8586
449.0277
449.1713
449.2902
449.385
449.4566
449.5054
449.5319
449.5368
449.5206
449.4831
449.4232
449.3403
449.2335
449.1015
448.9426
448.7548
448.5351
448.2805
447.9875
447.6529
447.2742
446.8514
446.3883
445.8935
445.3788
444.8522
444.3039
443.7149
443.0702
442.3476
441.5053
440.456
438.9826
436.3719
428.7777
469.2824
450.314
445.752
444.1702
443.5656
443.3917
443.444
443.6271
443.8896
444.2006
444.5409
444.8976
445.2619
445.6275
445.9901
446.3489
446.7035
447.0493
447.3817
447.6961
447.9892
448.2585
448.5024
448.7202
448.9116
449.0771
449.2171
449.3324
449.4237
449.4919
449.5375
449.561
449.563
449.5443
449.5043
449.4422
449.3572
449.2481
449.1139
448.9528
448.7626
448.5405
448.2835
447.9882
447.6513
447.2706
446.8461
446.3816
445.8857
445.3704
444.8438
444.2971
443.7109
443.0692
442.3499
441.5115
440.4667
438.9994
436.3984
428.8246
470.1088
450.9161
446.2061
444.5391
443.8771
443.66
443.6776
443.8325
444.0722
444.3655
444.6922
445.0391
445.3965
445.7578
446.1175
446.4715
446.8185
447.1569
447.482
447.7894
448.0757
448.3385
448.5762
448.788
448.9737
449.1336
449.2682
449.3784
449.4649
449.5284
449.5696
449.5891
449.5875
449.5654
449.5227
449.458
449.3704
449.2589
449.1224
448.959
448.7665
448.5421
448.2828
447.9852
447.6462
447.2637
446.8378
446.3724
445.8761
445.3608
444.8349
444.2901
443.7067
443.068
442.3522
441.5177
440.4776
439.0166
436.4258
428.8765
470.9034
451.5135
446.6602
444.9104
444.1935
443.936
443.922
444.0517
444.2714
444.5491
444.8642
445.2025
445.5537
445.9104
446.2666
446.6176
446.9593
447.2888
447.604
447.9021
448.1794
448.4334
448.6626
448.8662
449.0441
449.1967
449.3244
449.428
449.5083
449.5661
449.602
449.6167
449.6107
449.5846
449.5385
449.4709
449.3805
449.2665
449.1276
448.9618
448.767
448.5403
448.2788
447.9792
447.6383
447.2543
446.8274
446.3614
445.8653
445.3507
444.8261
444.2833
443.7027
443.0671
442.3547
441.5241
440.4886
439.0339
436.4536
428.9311
471.6757
452.1064
447.1147
445.2848
444.5158
444.2207
444.178
444.2853
444.4874
444.7515
445.0562
445.3867
445.7319
446.0835
446.4351
446.7813
447.1178
447.4407
447.7466
448.0329
448.2982
448.5411
448.7597
448.9533
449.1216
449.2652
449.3845
449.4803
449.5535
449.6047
449.6346
449.6438
449.633
449.6025
449.5524
449.4815
449.3882
449.2714
449.1299
448.9617
448.7645
448.5357
448.2721
447.9706
447.6281
447.2429
446.8152
446.3493
445.8537
445.3405
444.8178
444.2773
443.6994
443.0669
442.3578
441.531
440.5003
439.052
436.4827
428.9884
472.4161
452.6934
447.5722
445.6637
444.8448
444.5147
444.446
444.5332
444.7198
444.9719
445.2671
445.5899
445.9287
446.2744
446.62
446.9597
447.2888
447.6034
447.9001
448.1764
448.4301
448.6598
448.8655
449.047
449.2043
449.3374
449.4472
449.5344
449.5996
449.6436
449.667
449.6704
449.6543
449.6192
449.565
449.4904
449.3939
449.2742
449.13
448.9592
448.7597
448.5287
448.2631
447.9598
447.616
447.2298
446.8018
446.3363
445.8419
445.3305
444.8101
444.2722
443.6971
443.0675
442.3618
441.5387
440.5125
439.0707
436.5127
429.0484
473.2527
453.2775
448.0282
446.0441
445.18
444.818
444.7258
444.7951
444.9678
445.2088
445.495
445.81
446.1416
446.4802
446.8183
447.1498
447.4698
447.7743
448.0602
448.3249
448.5667
448.7843
448.9773
449.1456
449.2902
449.412
449.5114
449.5891
449.6458
449.6822
449.6989
449.6963
449.6748
449.6348
449.5763
449.498
449.3981
449.2754
449.1284
448.9551
448.7532
448.52
448.2524
447.9475
447.6024
447.2156
446.7876
446.3227
445.83
445.3208
444.8032
444.2681
443.6958
443.0692
442.3666
441.5472
440.5256
439.0902
436.5443
429.1145
473.9559
453.8652
448.4854
446.4275
445.5221
445.1308
445.0172
445.0703
445.2302
445.4607
445.7378
446.0445
446.368
446.6982
447.0272
447.3488
447.6579
447.9507
448.2241
448.476
448.7047
448.9093
449.0895
449.2454
449.3775
449.4871
449.5755
449.6434
449.6914
449.72
449.7297
449.721
449.6941
449.6494
449.5866
449.5044
449.4011
449.2754
449.1256
448.9497
448.7454
448.5101
448.2406
447.9342
447.588
447.2007
446.7729
446.3091
445.8183
445.3119
444.7973
444.2652
443.6956
443.0719
442.3725
441.5566
440.5394
439.1104
436.5771
429.1885
474.6437
454.4516
448.9446
446.8144
445.87
445.4522
445.3191
445.3573
445.5052
445.7255
445.9933
446.2909
446.6051
446.9255
447.2439
447.5539
447.8505
448.13
448.3896
448.6274
448.842
449.0328
449.1997
449.3429
449.4631
449.5611
449.6384
449.6963
449.7354
449.7562
449.7591
449.7444
449.7123
449.6628
449.5956
449.5098
449.4034
449.2747
449.1221
448.9437
448.7371
448.4997
448.2285
447.9206
447.5735
447.1858
446.7584
446.2958
445.8072
445.3037
444.7924
444.2634
443.6965
443.0757
442.3793
441.5668
440.5537
439.1309
436.6106
429.2713
475.3133
455.0356
449.4072
447.2051
446.2228
445.7814
445.6306
445.6549
445.7913
446.0012
446.2591
446.5466
446.8502
447.1592
447.4654
447.7623
448.045
448.31
448.5546
448.7772
448.9769
449.1533
449.3064
449.4366
449.5447
449.6317
449.6986
449.7468
449.7773
449.7905
449.7868
449.7663
449.7291
449.675
449.6038
449.5143
449.4048
449.2733
449.1182
448.9374
448.7287
448.4894
448.2166
447.9075
447.5596
447.1716
446.7447
446.2836
445.7972
445.2968
444.7889
444.2628
443.6986
443.0804
442.3868
441.5775
440.5683
439.1513
436.6436
429.3596
475.9684
455.6155
449.8714
447.5992
446.5812
446.1177
445.9503
445.9614
446.0864
446.2856
446.5327
446.809
447.1006
447.3968
447.6893
447.9716
448.2392
448.4884
448.7172
448.924
449.1082
449.2697
449.4087
449.5259
449.622
449.698
449.7551
449.7941
449.8163
449.8223
449.8123
449.7864
449.7444
449.6862
449.6111
449.5183
449.4057
449.2716
449.1141
448.9312
448.7206
448.4797
448.2056
447.8954
447.5469
447.1589
446.7325
446.2728
445.7888
445.2914
444.787
444.2638
443.7018
443.086
442.3951
441.5887
440.583
439.1712
436.6751
429.4489
476.6072
456.1915
450.338
447.9955
446.9452
446.4605
446.2772
446.2752
446.3884
446.5762
446.8116
447.0754
447.3537
447.6356
447.913
448.1796
448.4308
448.6635
448.8757
449.0662
449.2347
449.3811
449.5061
449.6103
449.6945
449.7598
449.8072
449.8377
449.8522
449.8515
449.8357
449.8047
449.7584
449.6963
449.6178
449.5217
449.4064
449.2698
449.1103
448.9255
448.7134
448.471
448.1957
447.8846
447.5357
447.1479
446.7225
446.2643
445.7825
445.288
444.7866
444.2659
443.7061
443.0926
442.4041
441.6003
440.5977
439.1903
436.7041
429.5324
477.2322
456.7617
450.8051
448.3946
447.3133
446.8094
446.61
446.5947
446.6955
446.8709
447.0933
447.3434
447.6069
447.8732
448.1342
448.3839
448.618
448.8335
449.0287
449.2027
449.3554
449.4869
449.598
449.6894
449.7621
449.817
449.8552
449.8775
449.8849
449.8779
449.8568
449.8213
449.771
449.7054
449.6238
449.5249
449.407
449.2683
449.1068
448.9205
448.7068
448.4631
448.1869
447.8754
447.5263
447.1388
446.7141
446.2575
445.7779
445.2861
444.7875
444.2693
443.7115
443.1002
442.4138
441.6123
440.6124
439.2086
436.7302
429.6052
477.839
457.3262
451.272
448.7959
447.6849
447.1625
446.9475
446.9181
447.0055
447.1674
447.3756
447.6105
447.8579
448.1073
448.3509
448.5828
448.7991
448.9971
449.1751
449.3326
449.4696
449.5865
449.6841
449.7632
449.8247
449.8697
449.8991
449.9138
449.9144
449.9017
449.8757
449.8361
449.7823
449.7137
449.6293
449.5278
449.4076
449.2668
449.1036
448.9158
448.7009
448.4565
448.1798
447.8679
447.5188
447.1315
446.7077
446.2525
445.7751
445.2862
444.7905
444.2746
443.7185
443.109
442.4245
441.6251
440.6275
439.2266
436.7538
429.6634
478.4376
457.8835
451.7392
449.1985
448.0585
447.5183
447.2877
447.2437
447.3166
447.4635
447.656
447.8744
448.1044
448.3358
448.561
448.7745
448.9726
449.1528
449.3138
449.4551
449.5768
449.6796
449.7641
449.8315
449.8825
449.9181
449.9393
449.9468
449.9412
449.923
449.8926
449.8493
449.7924
449.7211
449.6343
449.5305
449.4083
449.2657
449.101
448.912
448.6962
448.4511
448.1739
447.8619
447.5129
447.1262
446.7034
446.2498
445.7747
445.2883
444.7954
444.2815
443.727
443.119
442.4363
441.6387
440.643
439.2443
436.7752
429.7064
479.0173
458.4333
452.2038
449.602
448.4336
447.8753
447.629
447.5698
447.6272
447.7579
447.9333
448.1337
448.3451
448.5574
448.7634
448.958
449.1376
449.3001
449.4443
449.5698
449.6768
449.766
449.8382
449.8944
449.9355
449.9624
449.976
449.9768
449.9654
449.9424
449.9078
449.8612
449.8016
449.7279
449.639
449.5333
449.4093
449.2652
449.0992
448.9091
448.6926
448.4471
448.1696
447.8576
447.5089
447.1228
446.701
446.2491
445.7762
445.2926
444.8023
444.2905
443.7373
443.1307
442.4494
441.6534
440.6593
439.2624
436.7956
429.737
479.5846
458.9755
452.6678
450.008
448.8087
448.2316
447.969
447.8935
447.9342
448.0473
448.2043
448.3856
448.5774
448.77
448.9565
449.132
449.2932
449.4383
449.5661
449.6764
449.7694
449.8458
449.9064
449.9522
449.9841
450.0029
450.0094
450.0041
449.9875
449.9599
449.9216
449.872
449.8099
449.7342
449.6436
449.5363
449.4107
449.2653
449.0982
448.9074
448.6904
448.4445
448.167
447.8551
447.5068
447.1214
446.7008
446.2505
445.7798
445.2989
444.8109
444.3008
443.749
443.1438
442.464
441.6694
440.6769
439.2817
436.8164
429.7608
480.0145
459.5104
453.1317
450.4142
449.1822
448.5855
448.306
448.2133
448.236
448.3304
448.4678
448.6291
448.8006
448.973
449.1397
449.2961
449.4393
449.5673
449.6794
449.7752
449.8549
449.9193
449.9691
450.0053
450.0286
450.0399
450.0399
450.029
450.0077
449.9761
449.9343
449.8819
449.8177
449.7403
449.6482
449.5395
449.4127
449.2661
449.0982
448.9068
448.6894
448.4434
448.166
447.8544
447.5066
447.1219
446.7024
446.2537
445.7853
445.3069
444.821
444.3123
443.762
443.1582
442.4797
441.6866
440.6956
439.3019
436.8381
429.7822
480.5418
460.0314
453.5894
450.8182
449.5526
448.9354
448.638
448.527
448.5307
448.6052
448.7223
448.8627
449.0136
449.1656
449.3126
449.4502
449.5757
449.6873
449.7843
449.8663
449.9337
449.9869
450.0267
450.054
450.0695
450.0739
450.068
450.052
450.0263
449.9911
449.9462
449.8914
449.8253
449.7463
449.6529
449.543
449.4151
449.2677
449.0991
448.9073
448.6897
448.4438
448.1665
447.8553
447.5081
447.1242
446.7058
446.2588
445.7925
445.3165
444.8325
444.3252
443.7762
443.1737
442.4965
441.7048
440.7153
439.3232
436.861
429.8052
481.1965
460.5446
454.0429
451.2186
449.9186
449.2798
448.9636
448.8332
448.8168
448.8705
448.9664
449.0857
449.2156
449.3474
449.4749
449.5942
449.7026
449.7986
449.8812
449.9504
450.0061
450.049
450.0796
450.0987
450.1071
450.1053
450.0939
450.0733
450.0437
450.0052
449.9576
449.9005
449.8326
449.7522
449.6577
449.5468
449.418
449.2699
449.1009
448.9088
448.6912
448.4454
448.1686
447.8578
447.5112
447.1281
446.7109
446.2654
445.8012
445.3275
444.8453
444.3391
443.7914
443.1901
442.5143
441.724
440.736
439.3455
436.8853
429.8316
481.7494
461.0513
454.4913
451.615
450.2793
449.6176
449.2816
449.1307
449.0932
449.1254
449.1996
449.2975
449.4065
449.5183
449.6269
449.7285
449.8206
449.9016
449.9707
450.0278
450.0728
450.1061
450.1283
450.1399
450.1418
450.1343
450.118
450.0932
450.06
450.0185
449.9685
449.9094
449.8399
449.7581
449.6625
449.5509
449.4214
449.2727
449.1034
448.9112
448.6938
448.4484
448.1719
447.8617
447.5157
447.1335
446.7174
446.2735
445.8112
445.3397
444.8591
444.3541
443.8075
443.2075
442.5329
441.7439
440.7574
439.3685
436.9104
429.8606
482.3003
461.551
454.9346
452.0062
450.6334
449.9477
449.5908
449.4184
449.359
449.3691
449.4215
449.498
449.5864
449.6786
449.7689
449.8535
449.93
449.9969
450.0534
450.0991
450.1342
450.1587
450.1731
450.178
450.1739
450.1613
450.1405
450.1118
450.0754
450.0312
449.979
449.9181
449.847
449.7641
449.6675
449.5551
449.4251
449.2761
449.1066
448.9146
448.6974
448.4524
448.1764
447.8669
447.5216
447.1403
446.7253
446.2828
445.8224
445.353
444.8739
444.3699
443.8244
443.2256
442.5522
441.7645
440.7793
439.3921
436.9362
429.8914
482.842
462.0441
455.3726
452.3917
450.9802
450.2692
449.8903
449.6956
449.6137
449.6015
449.6319
449.6872
449.7555
449.8287
449.9014
449.9698
450.0316
450.0852
450.1299
450.1651
450.1908
450.2073
450.2146
450.2134
450.2038
450.1865
450.1616
450.1295
450.0901
450.0434
449.9892
449.9266
449.8541
449.7701
449.6727
449.5596
449.4291
449.28
449.1105
448.9187
448.7019
448.4574
448.1821
447.8731
447.5286
447.1481
446.7342
446.2933
445.8347
445.3671
444.8894
444.3864
443.842
443.2442
442.572
441.7855
440.8017
439.4161
436.9623
429.9222
483.3711
462.5299
455.8043
452.7704
451.3188
450.5813
450.1796
449.962
449.8572
449.8225
449.8312
449.8657
449.9143
449.9693
450.0251
450.0781
450.126
450.1672
450.2007
450.2261
450.2433
450.2523
450.2531
450.2462
450.2318
450.2102
450.1816
450.1463
450.1042
450.0552
449.9992
449.9351
449.8612
449.7761
449.678
449.5643
449.4335
449.2843
449.115
448.9236
448.7073
448.4633
448.1886
447.8804
447.5367
447.1571
446.7442
446.3046
445.8478
445.382
444.9057
444.4036
443.8602
443.2634
442.5923
441.807
440.8245
439.4404
436.9886
429.9526
483.7735
463.008
456.2308
453.1425
451.6488
450.8836
450.4584
450.2173
450.0894
450.0323
450.0195
450.0337
450.0634
450.1008
450.1406
450.1791
450.2139
450.2433
450.2665
450.2828
450.292
450.294
450.2889
450.2768
450.2579
450.2324
450.2005
450.1623
450.1177
450.0668
450.009
449.9435
449.8684
449.7823
449.6834
449.5693
449.4383
449.2891
449.1201
448.9291
448.7134
448.4701
448.1961
447.8886
447.5456
447.1669
446.7551
446.3169
445.8616
445.3976
444.9225
444.4213
443.8788
443.2831
442.613
441.8288
440.8476
439.4649
437.0151
429.982
484.2766
463.4721
456.646
453.506
451.9692
451.1754
450.7261
450.4613
450.3104
450.2312
450.1974
450.1919
450.2034
450.2241
450.2486
450.2734
450.2958
450.3143
450.3278
450.3356
450.3374
450.333
450.3223
450.3055
450.2825
450.2534
450.2185
450.1776
450.1309
450.078
450.0187
449.9517
449.8755
449.7886
449.6891
449.5745
449.4433
449.2944
449.1258
448.9353
448.7202
448.4775
448.2043
447.8975
447.5554
447.1775
446.7668
446.3299
445.8762
445.4137
444.9399
444.4395
443.8979
443.3031
442.634
441.851
440.8709
439.4897
437.0418
430.0109
484.7817
463.9267
457.0529
453.8619
452.2818
451.4558
450.9817
450.6939
450.5203
450.4195
450.3653
450.3409
450.335
450.3397
450.3498
450.3616
450.3725
450.3807
450.3851
450.385
450.3799
450.3695
450.3536
450.3324
450.3056
450.2733
450.2355
450.1923
450.1436
450.0891
450.0283
449.9599
449.8827
449.795
449.6947
449.5797
449.4487
449.3001
449.1319
448.942
448.7276
448.4856
448.2131
447.9072
447.5658
447.1889
446.7792
446.3434
445.8912
445.4303
444.9576
444.4581
443.9173
443.3234
442.6553
441.8733
440.8945
439.5147
437.0686
430.04
485.2851
464.3735
457.4522
454.2101
452.5856
451.7254
451.2258
450.9153
450.7196
450.5977
450.5239
450.4813
450.4587
450.4483
450.4448
450.4444
450.4443
450.4429
450.4388
450.4313
450.4197
450.4037
450.383
450.3576
450.3273
450.2921
450.2518
450.2064
450.1558
450.0999
450.0377
449.968
449.8898
449.8013
449.7005
449.5853
449.4544
449.3061
449.1384
448.9491
448.7354
448.4943
448.2225
447.9174
447.5768
447.2007
446.792
446.3575
445.9067
445.4472
444.9756
444.4769
443.9369
443.344
442.6768
441.8959
440.9182
439.5398
437.0957
430.0697
485.7831
464.8135
457.8444
454.5508
452.8804
451.9844
451.459
451.1261
450.9088
450.7666
450.6738
450.6138
450.5753
450.5506
450.5342
450.5222
450.5119
450.5014
450.4893
450.4748
450.4571
450.4358
450.4107
450.3815
450.3479
450.3099
450.2673
450.22
450.1678
450.1104
450.0469
449.976
449.8968
449.8076
449.7064
449.591
449.4603
449.3124
449.1453
448.9567
448.7437
448.5033
448.2323
447.928
447.5883
447.213
446.8053
446.3719
445.9224
445.4644
444.9938
444.4958
443.9567
443.3646
442.6984
441.9185
440.942
439.565
437.1227
430.0994
486.2737
465.2457
458.2291
454.884
453.1665
452.2333
451.6817
451.3268
451.0885
450.9266
450.8156
450.739
450.6854
450.6471
450.6184
450.5955
450.5755
450.5565
450.5369
450.5158
450.4924
450.4662
450.4368
450.404
450.3674
450.3269
450.2822
450.2331
450.1795
450.1207
450.0558
449.9838
449.9037
449.8139
449.7123
449.5969
449.4664
449.3189
449.1524
448.9645
448.7522
448.5126
448.2425
447.9389
447.6
447.2256
446.8188
446.3866
445.9384
445.4817
445.0121
444.5149
443.9765
443.3853
442.72
441.9411
440.9658
439.5902
437.1497
430.1288
486.7572
465.6697
458.6066
455.2099
453.444
452.4724
451.8943
451.5178
451.2592
451.0783
450.95
450.8575
450.7895
450.7382
450.698
450.6648
450.6357
450.6086
450.5819
450.5545
450.5258
450.4949
450.4615
450.4253
450.3859
450.343
450.2964
450.2457
450.1908
450.1307
450.0646
449.9915
449.9105
449.8202
449.7184
449.603
449.4727
449.3256
449.1598
448.9725
448.761
448.5222
448.2529
447.9502
447.612
447.2385
446.8326
446.4014
445.9544
445.499
445.0305
444.5339
443.9964
443.4059
442.7416
441.9637
440.9896
439.6153
437.1765
430.1579
487.232
466.086
458.9764
455.5287
453.7143
452.7039
452.0972
451.699
451.4211
451.2222
451.0773
450.9697
450.8881
450.8246
450.7734
450.7304
450.6927
450.6579
450.6245
450.5912
450.5573
450.5221
450.4849
450.4455
450.4034
450.3583
450.3099
450.2579
450.2016
450.1402
450.073
449.999
449.9173
449.8266
449.7245
449.6092
449.4791
449.3326
449.1673
448.9808
448.7701
448.5321
448.2635
447.9616
447.6242
447.2515
446.8465
446.4163
445.9705
445.5163
445.0488
444.5529
444.0161
443.4266
442.7631
441.9863
441.0133
439.6403
437.2032
430.1868
487.6956
466.4931
459.3391
455.8409
453.978
452.928
452.2912
451.8711
451.5748
451.3588
451.1981
451.0762
450.9817
450.9065
450.8449
450.7927
450.7467
450.7047
450.6649
450.6261
450.5873
450.5478
450.5071
450.4646
450.42
450.3729
450.3228
450.2694
450.2118
450.1493
450.081
450.0063
449.9241
449.833
449.7307
449.6155
449.4858
449.3397
449.175
448.9892
448.7793
448.542
448.2743
447.9732
447.6366
447.2647
446.8605
446.4313
445.9867
445.5337
445.067
444.5719
444.0359
443.4471
442.7846
442.0088
441.0369
439.6652
437.2297
430.2152
488.1434
466.8914
459.6939
456.1468
454.2355
453.1451
452.4772
452.0351
451.7211
451.4886
451.3129
451.1774
451.0706
450.9844
450.9129
450.8519
450.7981
450.7491
450.7033
450.6591
450.6157
450.5723
450.5281
450.4828
450.4358
450.3868
450.3351
450.2802
450.2214
450.1578
450.0888
450.0134
449.9308
449.8394
449.7371
449.6219
449.4925
449.3469
449.1829
448.9978
448.7886
448.5522
448.2852
447.9849
447.6491
447.2779
446.8746
446.4463
446.0028
445.5509
445.0852
444.5908
444.0555
443.4676
442.8061
442.0312
441.0604
439.69
437.256
430.2425
488.7015
467.2841
460.0425
456.4467
454.4873
453.3564
452.6571
452.1916
451.8598
451.6119
451.422
451.2736
451.1551
451.0584
450.9776
450.9082
450.847
450.7915
450.7398
450.6906
450.6428
450.5955
450.5482
450.5001
450.4509
450.3999
450.3466
450.2903
450.2303
450.1659
450.0962