/*--------------------------------*- C++ -*----------------------------------*\
| =========                 |                                                 |
| \\      /  F ield         | OpenFOAM: The Open Source CFD Toolbox           |
|  \\    /   O peration     | Version:  2312                                  |
|   \\  /    A nd           | Website:  www.openfoam.com                      |
|    \\/     M anipulation  |                                                 |
\*---------------------------------------------------------------------------*/
FoamFile
{
    version     2.0;
    format      ascii;
    arch        "LSB;label=32;scalar=64";
    class       volScalarField;
    location    "1500";
    object      wallHeatFlux;
}
// * * * * * * * * * * * * * * * * * * * * * * * * * * * * * * * * * * * * * //

dimensions      [1 0 -3 0 0 0 0];

internalField   uniform 0;

boundaryField
{
    plate
    {
        type            calculated;
        value           nonuniform List<scalar> 
80
(
6344.337
6342.406
6340.637
6338.94
6335.318
6333.739
6332.23
6330.794
6334.12
6332.825
6331.587
6330.39
6330.297
6329.145
6328.017
6326.935
6323.381
6322.528
6321.866
6321.415
6314.925
6314.786
6314.673
6314.483
6303.076
6302.503
6301.688
6300.647
6291.587
6290.275
6288.967
6287.769
6275.302
6274.596
6274.216
6274.172
6261.941
6262.471
6263.201
6264.063
6251.338
6252.283
6253.199
6254.056
6239.56
6240.251
6240.853
6241.367
6224.108
6224.465
6224.754
6224.98
6197.85
6197.96
6198.009
6197.997
6177.674
6177.577
6177.43
6177.225
6143.859
6143.514
6143.083
6142.557
6100.224
6099.476
6098.602
6097.594
6029.498
6028.207
6026.77
6025.189
5957.846
5955.983
5953.984
5951.846
5915.839
5913.34
5910.48
5906.64
)
;
    }
    riser
    {
        type            calculated;
        value           nonuniform List<scalar> 
80
(
-4004.474
-4006.193
-4007.315
-4008.238
-3889.886
-3890.687
-3891.471
-3892.249
-4181.46
-4182.234
-4183.003
-4183.764
-4443.8
-4444.533
-4445.244
-4445.929
-4661.302
-4661.925
-4662.511
-4663.059
-4834.209
-4834.679
-4835.109
-4835.501
-4967.008
-4967.324
-4967.605
-4967.852
-5064.816
-5064.999
-5065.153
-5065.279
-5132.162
-5132.237
-5132.291
-5132.323
-5172.526
-5172.526
-5172.516
-5172.499
-5188.2
-5188.174
-5188.147
-5188.124
-5180.175
-5180.192
-5180.244
-5180.345
-5148.357
-5148.603
-5148.949
-5149.413
-5072.802
-5073.565
-5074.506
-5075.642
-5008.612
-5010.166
-5011.928
-5013.886
-4895.921
-4898.194
-4900.574
-4903.021
-4749.365
-4751.831
-4754.253
-4756.603
-4566.098
-4568.237
-4570.251
-4572.134
-4353.904
-4355.537
-4357.064
-4358.51
-4185.018
-4186.414
-4187.865
-4189.444
)
;
    }
    adiabatic
    {
        type            calculated;
        value           uniform 0;
    }
    frontBack
    {
        type            empty;
    }
}


// ************************************************************************* //
