# Region type : patch plate
# Faces        : 200
# Area         : 6.7000000e-01
# Scale factor : 1.0000000e+00
# Time         	areaAverage(T)
2100           	5.1949453e+02
2200           	5.1951634e+02
2300           	5.1952933e+02
2400           	5.1953528e+02
2500           	5.1953495e+02
2600           	5.1953137e+02
2700           	5.1952415e+02
2800           	5.1951545e+02
