# Region type : patch plate
# Faces        : 200
# Area         : 6.7000000e-01
# Scale factor : 1.0000000e+00
# Time         	areaAverage(T)
2100           	5.1949453e+02
2200           	5.1951634e+02
2300           	5.1952933e+02
