/*--------------------------------*- C++ -*----------------------------------*\
| =========                 |                                                 |
| \\      /  F ield         | OpenFOAM: The Open Source CFD Toolbox           |
|  \\    /   O peration     | Version:  2312                                  |
|   \\  /    A nd           | Website:  www.openfoam.com                      |
|    \\/     M anipulation  |                                                 |
\*---------------------------------------------------------------------------*/
FoamFile
{
    version     2.0;
    format      ascii;
    arch        "LSB;label=32;scalar=64";
    class       volScalarField;
    location    "3900";
    object      k;
}
// * * * * * * * * * * * * * * * * * * * * * * * * * * * * * * * * * * * * * //

dimensions      [0 2 -2 0 0 0 0];

internalField   nonuniform List<scalar> 
12000
(
0.002211707
0.004830399
0.00582996
0.006858076
0.007663133
0.008377946
0.009018013
0.00962757
0.01017326
0.01064395
0.01106729
0.01147793
0.01188127
0.01222143
0.01250322
0.01276428
0.0130269
0.01327544
0.01346431
0.01362196
0.01376935
0.01391009
0.01402494
0.01410349
0.01416755
0.01421063
0.01424075
0.01424469
0.01425467
0.01422722
0.01418499
0.01414431
0.01409047
0.01405126
0.01398644
0.01388505
0.01368655
0.0134407
0.01329626
0.01324364
0.013086
0.01270907
0.01213537
0.01192057
0.01178382
0.01166169
0.01115211
0.01022191
0.00978382
0.009669548
0.009550167
0.008612105
0.007681874
0.007332221
0.006809717
0.006068366
0.005217953
0.004540405
0.003980478
0.00377248
0.002425293
0.006007815
0.006830191
0.007934416
0.009178768
0.01035641
0.01129462
0.0123833
0.0139105
0.01550309
0.01655652
0.01706952
0.01823642
0.01983562
0.02116468
0.02166145
0.02208756
0.02323457
0.02443534
0.02521629
0.02558357
0.02620651
0.02702235
0.02771611
0.02824735
0.02872565
0.0291994
0.02966038
0.03011934
0.0305299
0.03084456
0.03110451
0.03131381
0.03156697
0.03186045
0.03209748
0.03226815
0.0323488
0.03241729
0.03242041
0.03235041
0.03229415
0.03208531
0.03198552
0.03155975
0.03072476
0.03022019
0.0297211
0.02923926
0.0276583
0.02585734
0.0245582
0.02342231
0.02164101
0.01879525
0.01588127
0.01320933
0.009850633
0.007053659
0.00677254
0.003622993
0.007578682
0.009130081
0.01086465
0.01303401
0.0151908
0.01721274
0.01901243
0.02082094
0.02246119
0.02375327
0.02481586
0.0258488
0.02702116
0.02808967
0.02890676
0.02957611
0.03026551
0.03098958
0.03164897
0.03219212
0.03268012
0.03317444
0.03367219
0.03414107
0.03457371
0.03498317
0.03538079
0.03577549
0.03616799
0.03655054
0.03687894
0.03721325
0.03757002
0.03790574
0.03825636
0.03860763
0.03892793
0.03918204
0.03940573
0.03966908
0.03998206
0.04023048
0.04027914
0.04022517
0.04009833
0.0399844
0.03971831
0.03920268
0.03846544
0.03752928
0.03642014
0.03480352
0.03282863
0.03029482
0.02681595
0.02241748
0.01668888
0.009925275
0.009119245
0.004458059
0.00807116
0.01031989
0.01273099
0.01542466
0.01798882
0.02031359
0.02241231
0.02429467
0.02605122
0.02747337
0.02856941
0.02950189
0.03035001
0.03112366
0.03176364
0.03231877
0.03283946
0.03332205
0.03376642
0.03417879
0.0345757
0.03497129
0.03536607
0.03575473
0.03613583
0.03651148
0.03688421
0.03725711
0.03763331
0.03798259
0.03829755
0.03864521
0.0390194
0.03938118
0.03974593
0.04011401
0.04046544
0.04079213
0.04109955
0.04138603
0.04164455
0.04185805
0.04203962
0.04214403
0.04215419
0.04206757
0.04187153
0.04153049
0.04097071
0.04023762
0.03920679
0.0375615
0.03529576
0.03246646
0.02914983
0.02508595
0.01982712
0.01302713
0.01080275
0.005259892
0.008513341
0.01134899
0.014302
0.01734874
0.0201185
0.0224895
0.02448274
0.02618043
0.02761164
0.02882423
0.02985854
0.03069728
0.03128766
0.03178192
0.03221295
0.03260117
0.03297186
0.03333827
0.03371041
0.03406903
0.03441037
0.03474711
0.03508667
0.03543202
0.03578484
0.03614679
0.03651972
0.03690506
0.03727157
0.03764117
0.03804668
0.03846405
0.03889384
0.03933121
0.03978314
0.04024795
0.0407241
0.04120562
0.04168358
0.04215943
0.04262243
0.04304629
0.04343269
0.04377235
0.04404341
0.04421834
0.04424321
0.0441669
0.04392255
0.04321681
0.04196446
0.04035137
0.03840231
0.03595141
0.03274455
0.02844356
0.02263381
0.01485004
0.01204408
0.005967134
0.00877717
0.01196154
0.01518124
0.0183387
0.02113347
0.02347624
0.02538779
0.02693569
0.02816365
0.02913209
0.02991111
0.03063703
0.03121851
0.03162062
0.03192071
0.03217234
0.03240041
0.03262751
0.03285015
0.03309198
0.03335947
0.03364771
0.03395745
0.03428981
0.03464542
0.03502436
0.03542629
0.03585026
0.0362945
0.03676184
0.03725235
0.03776864
0.03831623
0.03887657
0.03945693
0.04007195
0.0407032
0.04134767
0.04199996
0.0426535
0.04330019
0.04392716
0.04449863
0.04500714
0.04543689
0.04574217
0.04590876
0.04591109
0.04553742
0.04479542
0.04369825
0.04221858
0.0402438
0.03763207
0.03423928
0.02987232
0.02415981
0.01652649
0.01299175
0.006583798
0.009002379
0.01238666
0.01570036
0.0188309
0.02152985
0.02374922
0.02554128
0.02697708
0.02813118
0.02900437
0.02965281
0.03011416
0.03050611
0.0308272
0.03105109
0.03121409
0.03136044
0.0315142
0.0316888
0.03189295
0.03213118
0.03240567
0.03271787
0.03306861
0.03345817
0.03388652
0.03435345
0.03485878
0.03540225
0.03598522
0.03659971
0.0372392
0.03791879
0.0386374
0.03938582
0.04016459
0.04097091
0.04179879
0.04264077
0.04348706
0.04432471
0.04513653
0.04590099
0.0465947
0.04718116
0.047658
0.04792622
0.04793344
0.04763322
0.04698653
0.04593535
0.04441199
0.04234272
0.03963675
0.03615613
0.0316626
0.02572152
0.01765621
0.0136772
0.00716623
0.009148033
0.01261037
0.01589513
0.01891348
0.02153589
0.02371847
0.02545781
0.02680656
0.0278082
0.02855863
0.029101
0.02947985
0.02974157
0.02995509
0.03013938
0.0302813
0.03040639
0.03054074
0.03070253
0.03090233
0.03114634
0.03143831
0.03178044
0.03217383
0.03261875
0.03311498
0.03366199
0.0342589
0.03490491
0.03559927
0.03633853
0.03712245
0.03795019
0.03882033
0.03972995
0.04067531
0.04165149
0.04265166
0.04366684
0.04468521
0.04569151
0.04666612
0.04758497
0.04841566
0.04914235
0.04970448
0.05000179
0.05002034
0.04970219
0.04899045
0.04783109
0.04616801
0.04393602
0.04104903
0.03738039
0.03271958
0.02667259
0.01860532
0.01420639
0.007846556
0.009294147
0.01273054
0.01592671
0.01888193
0.02140052
0.02346295
0.02510221
0.02636673
0.0273156
0.02801406
0.02851569
0.02886787
0.02911129
0.02928158
0.02943226
0.02959133
0.02974509
0.0299046
0.03009094
0.03031763
0.03059358
0.03092446
0.03131388
0.03176395
0.03227475
0.03284557
0.03347533
0.03416264
0.03490614
0.03570468
0.036563
0.03747737
0.03844051
0.03944966
0.04050139
0.04159106
0.04271256
0.04385782
0.04501631
0.04617441
0.04731472
0.04841602
0.04945012
0.05039358
0.05119309
0.05178024
0.05209149
0.05210401
0.05174399
0.0509529
0.04967819
0.04787144
0.04547954
0.04242994
0.03860582
0.0337968
0.02759216
0.01930782
0.01457652
0.008129829
0.009361076
0.01276979
0.01588213
0.01868052
0.02109387
0.02308747
0.0246849
0.02593011
0.02687653
0.02757974
0.02809188
0.0284597
0.02872467
0.02892178
0.02908287
0.02924269
0.02943126
0.02964791
0.02989181
0.03017407
0.03050317
0.03088539
0.03132379
0.03182285
0.03239327
0.03303334
0.03374143
0.03451576
0.03535431
0.0362546
0.03721739
0.03824021
0.03931347
0.0404343
0.04159865
0.04280111
0.04403458
0.04528988
0.04655519
0.04781548
0.04905188
0.05024054
0.05135525
0.05235053
0.05317543
0.05377684
0.05408134
0.05405598
0.05361375
0.05269565
0.05125803
0.04926802
0.04668818
0.04345636
0.03946232
0.03450168
0.02817587
0.01983036
0.01484406
0.008345324
0.009411567
0.01277175
0.01579279
0.01848781
0.02080912
0.0227348
0.02428489
0.02550717
0.02645635
0.02718641
0.02774292
0.02816795
0.02849869
0.02876745
0.02900116
0.02921902
0.02943983
0.02968552
0.02997608
0.03031267
0.03070328
0.03115505
0.03167449
0.03226347
0.03291609
0.03363486
0.03441995
0.03527051
0.03618494
0.03716108
0.0382019
0.03930425
0.0404584
0.04166053
0.0429058
0.04418803
0.04549929
0.04682943
0.04816546
0.04949092
0.05078499
0.05202158
0.05316637
0.05418015
0.05501526
0.05561642
0.05590115
0.05581018
0.05526126
0.05420016
0.0525984
0.05044049
0.04770235
0.04432922
0.04021041
0.03513743
0.0287038
0.02023803
0.0150236
0.009125779
0.009459576
0.01275228
0.01564803
0.01821143
0.02043237
0.02230217
0.02384273
0.02508862
0.02608217
0.02686767
0.02748967
0.02798729
0.02839635
0.0287469
0.02905198
0.02934788
0.02965727
0.02999742
0.03037196
0.03079272
0.03126623
0.03179755
0.0323896
0.03304442
0.03376224
0.03454372
0.03538907
0.03629781
0.03726883
0.03830045
0.0393943
0.04054764
0.04175247
0.04300421
0.04429733
0.04562505
0.04697874
0.04834751
0.04971755
0.05107145
0.05238721
0.05363738
0.05478783
0.05579876
0.05661938
0.05718635
0.05741917
0.05724554
0.05657068
0.05535064
0.05360053
0.05131366
0.04845604
0.04496984
0.04074215
0.03556518
0.02903768
0.02050421
0.01513791
0.00929923
0.009471631
0.01269678
0.01548215
0.0179476
0.02009901
0.02193413
0.02346991
0.02473382
0.02576709
0.02661132
0.02730749
0.02789038
0.02839075
0.02883321
0.02925473
0.0296613
0.03007247
0.03050497
0.03097132
0.03148077
0.03203626
0.03264009
0.03329874
0.03401567
0.03479025
0.03562365
0.03651662
0.03746912
0.03848042
0.03954917
0.04067514
0.04185608
0.04308658
0.04436141
0.04567443
0.04701826
0.04838389
0.04976015
0.05113313
0.05248549
0.05379551
0.05503568
0.05617144
0.05715858
0.05794652
0.05847662
0.05866375
0.05841438
0.05764014
0.05630237
0.05441866
0.05201526
0.04906041
0.04548225
0.04116916
0.03591421
0.02931517
0.02071346
0.01520814
0.009501083
0.009465785
0.01263989
0.01535456
0.01773707
0.01982275
0.02162178
0.02315095
0.0244399
0.02551949
0.02642322
0.02718371
0.0278374
0.028419
0.02895857
0.02947289
0.02997904
0.03049243
0.0310248
0.03158564
0.03218297
0.03282265
0.03350742
0.03423687
0.03500863
0.03582949
0.03670823
0.03764266
0.03863127
0.03967362
0.04076871
0.04191531
0.04311209
0.04435511
0.04563852
0.04695618
0.0483004
0.04966197
0.05102947
0.05238862
0.05372166
0.05500656
0.05621652
0.05732151
0.05828874
0.05906867
0.05957967
0.05972498
0.0594088
0.05854678
0.05709485
0.05508201
0.05256846
0.04952467
0.04586403
0.04147539
0.03615147
0.02949036
0.02083626
0.01524141
0.009706821
0.00946396
0.01259106
0.01523495
0.01754056
0.01956895
0.02133976
0.02287
0.02418143
0.02529865
0.02624925
0.02706509
0.02778679
0.02845123
0.02907986
0.02968794
0.03028814
0.03089233
0.03151291
0.03215885
0.03283503
0.03354651
0.03429804
0.03509238
0.03593102
0.03681454
0.03774103
0.038709
0.03972319
0.04078803
0.04190029
0.04305771
0.04426091
0.0455073
0.04678959
0.04810123
0.0494346
0.05078038
0.05212735
0.05346128
0.05476438
0.05602018
0.05721177
0.05830824
0.05926458
0.06002165
0.06050284
0.06061082
0.06023838
0.05929659
0.05775044
0.05563114
0.05300907
0.04987369
0.04614407
0.04169841
0.03632603
0.02962118
0.02092465
0.01524564
0.009884052
0.009470842
0.01254196
0.01512462
0.01736176
0.01933575
0.02107413
0.0225945
0.02391569
0.02505978
0.02605272
0.02692511
0.02771412
0.02845614
0.02917007
0.02986351
0.03054797
0.03123644
0.03193827
0.03266053
0.03340954
0.03418952
0.03500353
0.03585415
0.03674344
0.03767294
0.03864335
0.03965467
0.04070647
0.0417967
0.04292234
0.04408254
0.04528275
0.04652268
0.04779439
0.04909106
0.05040365
0.05172456
0.05304704
0.05436017
0.05564938
0.05689672
0.05807843
0.0591616
0.06010037
0.06083209
0.06127595
0.06133631
0.06091286
0.05991121
0.05828348
0.05606139
0.05334251
0.0501356
0.04635245
0.04185936
0.03644348
0.02969885
0.02096643
0.01524374
0.01002756
0.009489926
0.01250761
0.01503155
0.01720671
0.01912987
0.02083523
0.02234202
0.023668
0.02483359
0.02586292
0.02678359
0.02763038
0.02843826
0.02921999
0.02998834
0.03075155
0.03151607
0.03228967
0.03307957
0.03389188
0.03473052
0.03559883
0.03649978
0.03743535
0.03840652
0.03941357
0.04045636
0.04153442
0.04264638
0.04378958
0.04495967
0.04614985
0.04736663
0.04862278
0.04991065
0.0512145
0.05252517
0.05383492
0.05513433
0.05641069
0.05764643
0.0588167
0.05988614
0.06080596
0.06151159
0.06192133
0.06193819
0.06146146
0.0603964
0.05870222
0.05641121
0.05361636
0.05034965
0.04652283
0.04199131
0.03654173
0.02976677
0.02099006
0.01522112
0.01013285
0.009519613
0.01248451
0.01495264
0.01706911
0.01894174
0.02061158
0.02210009
0.02342532
0.02460687
0.02566706
0.0266305
0.02752704
0.02838775
0.0292289
0.03006254
0.03089202
0.03172354
0.03256236
0.03341336
0.03428121
0.03517137
0.03608799
0.03703354
0.03800976
0.03901758
0.04005713
0.04112785
0.04222862
0.0433576
0.04451174
0.04568588
0.04687204
0.0480787
0.04932333
0.05060056
0.05189445
0.05319493
0.05449394
0.05578244
0.05704803
0.05827282
0.05943095
0.06048572
0.06138671
0.06206759
0.0624456
0.0624242
0.06190275
0.06078651
0.05903085
0.05666849
0.05380244
0.05048121
0.04661456
0.04204858
0.03656993
0.02977381
0.02099177
0.01518466
0.01021946
0.009566832
0.01248531
0.01489221
0.01694919
0.01877064
0.02040251
0.02186898
0.02318903
0.02438186
0.02546821
0.02646984
0.02740985
0.02831483
0.02920653
0.03009003
0.03097481
0.03186227
0.03275556
0.03365889
0.03457687
0.03551416
0.03647439
0.03746024
0.03847345
0.03951474
0.04058385
0.04167984
0.04280125
0.04394599
0.04511077
0.04628995
0.04747436
0.04867269
0.04990586
0.05117238
0.05245721
0.05374926
0.05503973
0.05631954
0.05757658
0.05879283
0.05994159
0.0609846
0.0618696
0.06252865
0.06287804
0.0628214
0.06225582
0.06109251
0.05928662
0.05687206
0.05395428
0.05059281
0.04669678
0.0421062
0.03660452
0.02978664
0.02099367
0.01515782
0.01028126
0.009634556
0.01250354
0.01484899
0.01684487
0.01861312
0.02020423
0.02164502
0.02295556
0.02415479
0.02526193
0.02629615
0.02727532
0.02821879
0.02914766
0.03007426
0.03100095
0.03193416
0.03287406
0.03382341
0.03478572
0.03576464
0.03676385
0.03778628
0.03883361
0.03990623
0.04100343
0.04212374
0.04326521
0.04442556
0.04560161
0.04678785
0.04797441
0.04916881
0.05039337
0.05165084
0.05292843
0.0542147
0.0555002
0.05677547
0.0580281
0.05923959
0.06038226
0.06141645
0.06228825
0.06292826
0.06325189
0.06316311
0.06255893
0.06135177
0.05949749
0.0570319
0.05406528
0.05066527
0.0467399
0.04212617
0.0366057
0.02977774
0.0209686
0.01510673
0.01034706
0.00972581
0.01254438
0.01482057
0.01675324
0.01846656
0.02001442
0.02142606
0.02272261
0.02392277
0.02504446
0.02610477
0.02711912
0.02810042
0.02906203
0.03001953
0.03098212
0.03194948
0.03292739
0.03391521
0.03491569
0.03593194
0.03696703
0.03802354
0.03910297
0.04020557
0.04133033
0.04247523
0.04363766
0.0448147
0.04600356
0.04720078
0.04839732
0.04959283
0.05080908
0.05205996
0.05333487
0.05461912
0.05590281
0.05717631
0.05842696
0.05963565
0.06077365
0.06179987
0.06265887
0.06327994
0.06357779
0.06345691
0.06281471
0.0615657
0.05966779
0.05715884
0.05415187
0.05072101
0.04677252
0.04213782
0.03660675
0.02976817
0.02095412
0.01507847
0.01039941
0.00984511
0.01261178
0.01481728
0.0166782
0.01833142
0.01983203
0.02121038
0.02248798
0.02368306
0.02481228
0.02589098
0.02693276
0.02794893
0.02894823
0.02993695
0.03092469
0.03192223
0.0329286
0.0339489
0.03498258
0.03603162
0.03709901
0.03818708
0.03929699
0.04042878
0.04158112
0.04275157
0.04393699
0.04513391
0.04633873
0.04754761
0.04875633
0.04996199
0.0511787
0.05242544
0.05369808
0.05498181
0.05626577
0.05753957
0.05878986
0.05999673
0.06113043
0.0621486
0.06299443
0.06359616
0.06386805
0.0637152
0.06303564
0.06174592
0.05980621
0.05725696
0.05421429
0.05075618
0.04678789
0.04213742
0.03658998
0.02973854
0.02091645
0.01502583
0.01047308
0.009994429
0.01270387
0.01482443
0.01661525
0.01820629
0.01965642
0.02099737
0.02225086
0.02343451
0.02456376
0.02565235
0.02671223
0.02775339
0.0287837
0.02980898
0.03083371
0.03186126
0.03289544
0.03394047
0.03500218
0.03608179
0.03717919
0.03829604
0.03943414
0.04059385
0.04177372
0.04297073
0.04418099
0.04540039
0.04662501
0.04785103
0.04907415
0.05029039
0.05151254
0.05276072
0.05403352
0.05531774
0.05660255
0.05787702
0.05912704
0.06033183
0.0614606
0.06246978
0.0633014
0.06388287
0.06412818
0.06394319
0.06322686
0.06189808
0.05991959
0.05733438
0.05426073
0.05077905
0.04679245
0.04213087
0.03657527
0.02971948
0.02089686
0.01499987
0.01053633
0.01017591
0.0128215
0.01485496
0.01656651
0.01809098
0.01948715
0.02078686
0.02201162
0.02317825
0.02430102
0.02539229
0.0264626
0.02752065
0.02857335
0.02962593
0.03068225
0.03174512
0.03281672
0.03389886
0.03499265
0.0360993
0.03722348
0.03836858
0.03953495
0.04072235
0.04192944
0.04315324
0.04438936
0.04563287
0.04687916
0.04812412
0.04936379
0.05059384
0.05182497
0.05307674
0.0543505
0.05563541
0.05692094
0.05819567
0.05944475
0.06064656
0.06176929
0.06276828
0.06358456
0.06414488
0.06436314
0.06414601
0.06339359
0.06202711
0.06001207
0.05739427
0.05429407
0.05079279
0.04679195
0.04211677
0.03654993
0.02968497
0.02085708
0.01495237
0.01065355
0.01038529
0.01296609
0.0149069
0.01653416
0.0179878
0.01932624
0.020581
0.02177295
0.02291804
0.02402947
0.02511838
0.02619414
0.02726437
0.02833506
0.02941068
0.03049445
0.0315887
0.032695
0.03381424
0.03494726
0.03609413
0.03725493
0.03842889
0.03961973
0.04083245
0.04206547
0.04331527
0.04457692
0.04584475
0.04711339
0.04837838
0.04963571
0.05088071
0.05212204
0.05337843
0.05465374
0.05593931
0.05722493
0.05849893
0.0597459
0.06094347
0.06205887
0.06304644
0.06384635
0.06438481
0.06457583
0.06432686
0.06353942
0.06213707
0.06008812
0.05744107
0.05431783
0.05079983
0.04678691
0.04210319
0.03653093
0.0296637
0.02083751
0.01493109
0.01063129
0.01061305
0.01313482
0.01497696
0.01651722
0.01789604
0.01917362
0.02038039
0.02153635
0.02265652
0.02375311
0.02483624
0.02591429
0.02699394
0.02808037
0.02917731
0.03028733
0.03141213
0.03255256
0.03370887
0.03488068
0.03606709
0.03726692
0.03847929
0.039703
0.04093955
0.04219367
0.04346612
0.0447515
0.04604276
0.04733314
0.04861729
0.04989166
0.05115493
0.05240931
0.05366793
0.05494327
0.05623004
0.05751556
0.05878788
0.06003151
0.06122358
0.06233051
0.06330569
0.0640885
0.0646048
0.06476874
0.06448862
0.06366749
0.06223116
0.06015075
0.05747744
0.05433445
0.05080208
0.04677797
0.04208521
0.03650548
0.02963187
0.02080154
0.01489137
0.01096914
0.01088629
0.01332834
0.01507285
0.01651806
0.01781816
0.01903122
0.02018705
0.02130456
0.02239774
0.02347775
0.02455374
0.02563314
0.02672174
0.02782383
0.02894231
0.03007896
0.03123461
0.03240924
0.03360212
0.03481159
0.03603622
0.03727433
0.03852419
0.03978379
0.04105117
0.0423275
0.04361777
0.0449222
0.04623371
0.04754415
0.04884692
0.05013791
0.05141577
0.05268168
0.05394674
0.05522368
0.05650955
0.05779315
0.05906258
0.06030191
0.06148758
0.06258518
0.06354729
0.06431262
0.06480676
0.06494416
0.06463389
0.06378071
0.06231258
0.06020339
0.05750687
0.05434708
0.05080258
0.04677034
0.04207208
0.03648892
0.02961394
0.02078539
0.01487588
0.01109713
0.01116936
0.01353128
0.0151841
0.01653209
0.01775259
0.01890031
0.02000422
0.02108248
0.02214821
0.02321163
0.02428094
0.02536254
0.02646122
0.02758022
0.0287214
0.02988545
0.03107215
0.03228038
0.03350869
0.03475504
0.03601698
0.03729188
0.03857706
0.03987008
0.04116869
0.04247075
0.0437785
0.04509693
0.04642371
0.04775059
0.04906965
0.0503757
0.05166681
0.05294324
0.05421453
0.05549313
0.05677773
0.05805854
0.05932401
0.06055799
0.06173635
0.06282392
0.06377247
0.06452017
0.06499242
0.06510403
0.06476482
0.06388134
0.06238357
0.06024805
0.05753092
0.05435708
0.05080243
0.04676198
0.0420573
0.03646878
0.029589
0.02075721
0.01484555
0.01125253
0.01146082
0.0137498
0.01531268
0.01656078
0.01769924
0.01878066
0.01983261
0.0208722
0.02191151
0.02295972
0.02402393
0.02510942
0.02621981
0.02735718
0.02852224
0.0297146
0.03093299
0.03217538
0.03343898
0.03472071
0.03601737
0.0373254
0.03864271
0.03996636
0.04129368
0.0426223
0.04395009
0.04528042
0.04661774
0.04795671
0.04928878
0.05060752
0.05190978
0.05319524
0.05447241
0.05575261
0.05703537
0.05831242
0.0595729
0.06080059
0.06197086
0.0630478
0.06398247
0.06471255
0.06516337
0.06525014
0.0648834
0.06397157
0.06244648
0.06028724
0.05755228
0.05436691
0.05080455
0.04675801
0.04204942
0.0364584
0.02957739
0.02074639
0.01483598
0.01138492
0.01176597
0.01397864
0.01545198
0.01660299
0.01765951
0.01867533
0.0196766
0.02067938
0.02169463
0.02273035
0.02379235
0.02488457
0.02600927
0.02716715
0.0283576
0.02957896
0.03082876
0.03210411
0.03340103
0.03471601
0.03604344
0.03738303
0.03872987
0.04008096
0.0414335
0.04278502
0.04413334
0.04547759
0.0468218
0.04816794
0.04950862
0.05083643
0.0521472
0.05344006
0.05472204
0.05600293
0.05728295
0.05855532
0.05980984
0.06103034
0.06219177
0.0632576
0.06417824
0.064891
0.06532114
0.06538426
0.06499152
0.06405322
0.06250298
0.06032224
0.05757152
0.05437643
0.05080725
0.04675527
0.04204151
0.03644598
0.02956094
0.0207274
0.01481417
0.01151052
0.01206916
0.01421661
0.01560087
0.0166592
0.01763296
0.01858512
0.01953874
0.02050833
0.02150344
0.02253062
0.02359416
0.02469646
0.02583822
0.02701863
0.02823566
0.02948637
0.03076734
0.03207427
0.03340216
0.03474566
0.0361041
0.03747133
0.03884383
0.04021843
0.04159229
0.0429629
0.04432813
0.04568609
0.04703803
0.04838739
0.04973203
0.05106499
0.05238122
0.05367914
0.05496428
0.0562447
0.05752105
0.05878784
0.06003558
0.06124818
0.06240028
0.06345474
0.06436132
0.06505692
0.0654669
0.06550738
0.0650902
0.06412751
0.06255444
0.06035473
0.05759067
0.05438782
0.05081326
0.04675693
0.04204036
0.03644291
0.0295566
0.02072314
0.01480923
0.01166562
0.01238284
0.01446095
0.0157554
0.0167265
0.01762384
0.01851467
0.019424
0.02036418
0.02134315
0.02236572
0.02343441
0.02454985
0.02571105
0.02691564
0.02816016
0.02944049
0.03075148
0.03208557
0.03344102
0.0348137
0.03619774
0.03758893
0.03898352
0.04037814
0.04176992
0.04315639
0.04453544
0.04590532
0.04726448
0.04861535
0.04996038
0.05129479
0.05261329
0.05391378
0.05520019
0.05647881
0.05775052
0.05901094
0.06025116
0.06145515
0.06259721
0.06363973
0.06453219
0.06521141
0.06560268
0.06562212
0.06518218
0.064197
0.06260329
0.06038652
0.05761052
0.05440118
0.05082178
0.04676081
0.04204023
0.03644032
0.02955197
0.02071369
0.01479507
0.0117533
0.01268004
0.01471205
0.01592545
0.01680821
0.01762601
0.01846231
0.01933383
0.020251
0.02121979
0.02224309
0.02332148
0.02445365
0.02563681
0.02686685
0.02813877
0.029445
0.03078179
0.03214561
0.03352815
0.03492488
0.03633091
0.03774196
0.03915426
0.04056451
0.0419699
0.04336802
0.04475687
0.04613476
0.04750025
0.04885318
0.05019579
0.05152802
0.05284551
0.05414586
0.0554315
0.05670689
0.05797297
0.05922626
0.06045836
0.06165345
0.06278581
0.06381746
0.06469697
0.0653602
0.06573258
0.06573157
0.06527044
0.06426473
0.06265212
0.06042011
0.0576341
0.05441888
0.05083509
0.04677066
0.04204775
0.0364449
0.02955324
0.02071324
0.01479319
0.01188082
0.01298432
0.01496748
0.01609635
0.01689818
0.01764788
0.0184347
0.01927171
0.02017082
0.0211349
0.02216437
0.02325751
0.02441084
0.02561794
0.02687104
0.0281665
0.02950064
0.0308647
0.03225198
0.03365684
0.03507382
0.03649799
0.0379251
0.03935142
0.04077375
0.04218934
0.04359589
0.04499146
0.04637447
0.04774359
0.04909777
0.05043786
0.05176539
0.0530788
0.05437613
0.05565869
0.05692936
0.05818898
0.05943472
0.06065855
0.06184473
0.06296703
0.06398687
0.06485254
0.06550012
0.0658551
0.0658351
0.0653536
0.06432807
0.06269774
0.06045172
0.05765598
0.05443525
0.05084792
0.04678036
0.04205436
0.03644864
0.02955433
0.0207122
0.01478799
0.0120253
0.01327804
0.0152262
0.01628207
0.01700895
0.01769269
0.01843678
0.01925244
0.02014108
0.02110658
0.02214619
0.02325382
0.02442087
0.02564779
0.02692824
0.02825189
0.02961001
0.03099569
0.03240286
0.03382578
0.03525895
0.03669748
0.03813706
0.03957396
0.04100503
0.04242757
0.04383937
0.04523863
0.04662389
0.04799399
0.04934796
0.05068504
0.05200649
0.05331359
0.05460535
0.05588269
0.05714726
0.05839947
0.05963677
0.06085135
0.06202744
0.06313867
0.06414625
0.06499834
0.06563091
0.06596938
0.06593182
0.0654322
0.06438901
0.06274226
0.06048262
0.05767846
0.05445471
0.05086531
0.04679544
0.04206738
0.03645964
0.0295633
0.02071917
0.01478702
0.01217615
0.0135689
0.01549031
0.016476
0.01713432
0.01776321
0.01846927
0.01926186
0.02014522
0.0211137
0.02216377
0.02328962
0.02448591
0.02573934
0.02704247
0.02838702
0.02976535
0.03117006
0.03259457
0.03403264
0.03547877
0.03692812
0.03837648
0.03982031
0.04125658
0.04268281
0.0440969
0.04549707
0.04688194
0.04825041
0.04960174
0.05093538
0.05225114
0.05354987
0.05483344
0.05610336
0.05736041
0.05860427
0.05983237
0.06103711
0.06220282
0.06330305
0.06429871
0.06513759
0.06575548
0.06607788
0.06602371
0.06550746
0.06444853
0.06278808
0.06051772
0.05770603
0.05447764
0.05088417
0.0468102
0.0420791
0.03646901
0.0295701
0.02072304
0.01478579
0.01234323
0.01385049
0.01575406
0.01667885
0.01727292
0.01784943
0.01852536
0.01930527
0.02018749
0.02116682
0.02223427
0.02338095
0.02459713
0.02587224
0.02719648
0.02856095
0.02995755
0.03137899
0.03281828
0.03426904
0.03572572
0.03718358
0.03863856
0.04008714
0.04152628
0.04295352
0.04436701
0.04576533
0.04714734
0.04851212
0.04985901
0.05118751
0.05249731
0.05378819
0.05506226
0.05632285
0.0575708
0.05880522
0.06002341
0.06121781
0.06237279
0.06346172
0.06444529
0.06527114
0.06587503
0.06618252
0.06611306
0.06558151
0.06450791
0.06283427
0.06055345
0.05773528
0.05450412
0.05090875
0.04683257
0.04209886
0.03648553
0.0295834
0.02073305
0.01478923
0.01250503
0.01412155
0.01601803
0.01688953
0.01742989
0.01796428
0.0186183
0.01939209
0.02027977
0.02127197
0.0223575
0.02352468
0.02476181
0.02605765
0.02740181
0.02878497
0.0301984
0.03163419
0.03308522
0.03454532
0.03600922
0.03747219
0.03893025
0.04037995
0.04181866
0.04324417
0.04465472
0.04604897
0.04742593
0.04878485
0.05012511
0.05144625
0.05274797
0.05403013
0.05529446
0.05654434
0.05778162
0.05900525
0.06021249
0.06139581
0.06253951
0.06361682
0.06458818
0.06540103
0.0659911
0.06628407
0.06619993
0.06565399
0.06456686
0.06288126
0.06059085
0.05776614
0.05453139
0.05093297
0.04685364
0.04211714
0.03650101
0.02959474
0.02074057
0.0147896
0.01268052
0.01438389
0.01628468
0.01711411
0.01761116
0.01811363
0.01875303
0.01952629
0.02042346
0.02143167
0.0225369
0.02372522
0.02498341
0.02629924
0.02766158
0.02906047
0.030487
0.03193327
0.03339239
0.03485841
0.03632604
0.03779076
0.03924866
0.04069664
0.04213223
0.0435535
0.04495885
0.04634697
0.04771689
0.04906786
0.05039941
0.0517112
0.05300306
0.05427496
0.05552821
0.05676608
0.05799131
0.05920298
0.06039837
0.06156995
0.06270189
0.06376724
0.06472619
0.06552606
0.06610261
0.06638169
0.06628374
0.06572443
0.06462485
0.06292831
0.06062923
0.05779881
0.05456111
0.05096032
0.0468785
0.04213969
0.03652141
0.0296127
0.02075322
0.01479467
0.01286469
0.0146363
0.01655163
0.01734915
0.01781126
0.01829341
0.01892538
0.01970405
0.02061484
0.0216414
0.02276711
0.02397613
0.02525398
0.02658761
0.02796545
0.02937735
0.03081433
0.03226856
0.03373328
0.0352025
0.03667114
0.03813487
0.03959016
0.04103423
0.04246461
0.04387939
0.04527708
0.04665658
0.04801708
0.04935801
0.05067898
0.05197979
0.05326033
0.05452064
0.05576199
0.0569873
0.05819937
0.05939802
0.06058077
0.06174005
0.06285986
0.06391302
0.06485952
0.06564657
0.06620998
0.06647579
0.06636483
0.06579311
0.0646821
0.06297554
0.06066843
0.05783251
0.05459172
0.05098827
0.0469035
0.0421617
0.03654014
0.02962769
0.02076461
0.01479708
0.01305588
0.01487907
0.01681934
0.01759638
0.01803383
0.01850503
0.01913632
0.01992549
0.02085317
0.02189967
0.02304604
0.0242749
0.02557078
0.02692006
0.02831092
0.02973312
0.03117776
0.03263711
0.03410448
0.03557407
0.03704106
0.03850139
0.03995179
0.04138945
0.04281215
0.04421817
0.04560617
0.04697521
0.04832461
0.0496539
0.05096284
0.0522513
0.05351925
0.0547668
0.05599537
0.05720746
0.05840559
0.05959049
0.06076
0.0619065
0.06301386
0.06405464
0.06498867
0.06576305
0.06631369
0.06656683
0.06644362
0.06586035
0.06473877
0.06302297
0.06070841
0.0578673
0.05462341
0.0510174
0.04692997
0.04218554
0.03656119
0.02964545
0.02077767
0.01480217
0.01324821
0.0151119
0.01708755
0.01785701
0.01828101
0.01875012
0.01938687
0.02019094
0.0211381
0.02220554
0.0233723
0.02461976
0.02593174
0.02729431
0.02869557
0.03012534
0.03157483
0.0330365
0.03450381
0.03597129
0.03743427
0.03888897
0.04033213
0.0417612
0.04317412
0.04456934
0.04594572
0.04730245
0.048639
0.04995508
0.05125054
0.05252534
0.05377956
0.05501334
0.05622825
0.05742637
0.05861001
0.05978067
0.06093648
0.06206985
0.06316447
0.06419272
0.06511424
0.06587608
0.06641424
0.06665518
0.06652031
0.06592617
0.06479471
0.06307022
0.06074854
0.05790234
0.05465539
0.05104653
0.04695594
0.04220849
0.03658145
0.02966376
0.02079374
0.01480753
0.01343645
0.01533595
0.0173584
0.01813357
0.01855496
0.01903005
0.01967781
0.02050037
0.02146885
0.02255763
0.02374405
0.02500861
0.02633469
0.02770824
0.0291174
0.03055213
0.03200384
0.03346522
0.03493008
0.03639312
0.03784985
0.03929654
0.0407302
0.04214844
0.04354945
0.04493185
0.04629468
0.04763733
0.04895943
0.05026081
0.05154146
0.05280145
0.05404091
0.05526005
0.0564605
0.05764405
0.05881279
0.05996884
0.06111063
0.06223058
0.06331225
0.06432783
0.06523681
0.06598622
0.06651219
0.06674139
0.06659546
0.06599114
0.06485049
0.06311798
0.06078969
0.0579387
0.05468878
0.05107742
0.04698426
0.04223432
0.03660454
0.02968291
0.02080664
0.01481045
0.0136191
0.01555135
0.01763197
0.01842665
0.01885667
0.01934563
0.02000902
0.02085276
0.02184359
0.02295344
0.02415835
0.02543822
0.02677624
0.02815842
0.0295731
0.03101044
0.0324621
0.03392095
0.03538098
0.03683713
0.03828519
0.03972164
0.04114366
0.04254908
0.04393626
0.04530403
0.04665163
0.04797862
0.04928482
0.0505702
0.05183489
0.05307904
0.05430287
0.05550663
0.05669201
0.05786051
0.05901404
0.06015525
0.06128279
0.06238911
0.06345763
0.06446039
0.06535678
0.06609383
0.06660779
0.06682559
0.06666903
0.066055
0.06490564
0.06316544
0.06083071
0.05797485
0.0547217
0.05110753
0.0470115
0.04225874
0.03662608
0.02970104
0.02081974
0.01481514
0.01379687
0.01576016
0.01791154
0.01873962
0.01918852
0.01969788
0.02038062
0.02124729
0.02226075
0.02339089
0.02461284
0.02590613
0.02725401
0.02864262
0.03006058
0.0314983
0.0329477
0.03440187
0.03585499
0.03730219
0.03873949
0.04016359
0.04157192
0.0429625