/*--------------------------------*- C++ -*----------------------------------*\
| =========                 |                                                 |
| \\      /  F ield         | OpenFOAM: The Open Source CFD Toolbox           |
|  \\    /   O peration     | Version:  2312                                  |
|   \\  /    A nd           | Website:  www.openfoam.com                      |
|    \\/     M anipulation  |                                                 |
\*---------------------------------------------------------------------------*/
FoamFile
{
    version     2.0;
    format      ascii;
    arch        "LSB;label=32;scalar=64";
    class       volScalarField;
    location    "3900";
    object      nut;
}
// * * * * * * * * * * * * * * * * * * * * * * * * * * * * * * * * * * * * * //

dimensions      [0 2 -1 0 0 0 0];

internalField   nonuniform List<scalar> 
12000
(
4.44979e-05
0.0002001954
0.0002090941
0.000208671
0.0002094024
0.000238488
0.0002826727
0.0002661176
0.0002102454
0.0001963553
0.0002515418
0.0003104403
0.0002432801
0.0001887245
0.0001973358
0.00026282
0.0002760252
0.0002123288
0.0001895584
0.0002149954
0.0002441551
0.0002260589
0.0002048371
0.0002055192
0.0002131172
0.0002141882
0.0002121996
0.0002080429
0.0002026484
0.0002021475
0.0002056362
0.0002084312
0.0002091072
0.0002029266
0.0001932546
0.0001900851
0.0002012369
0.000223664
0.0002177404
0.0001847631
0.0001654033
0.0001780198
0.0002412032
0.0002664883
0.0001749858
0.0001388844
0.0001672371
0.0002798975
0.000287835
0.0001449758
0.0001213161
0.0001809311
0.000284507
0.000161714
0.0001146491
0.0001300249
0.0001344186
0.0001041081
8.790725e-05
7.061665e-05
2.810828e-05
0.0002437765
0.0002866212
0.0003497253
0.0004003488
0.000451753
0.0005042418
0.0005648955
0.0006482474
0.0007441711
0.0008175905
0.0008674532
0.0009559968
0.001085164
0.001199623
0.001249623
0.001302748
0.001421774
0.001562102
0.001646147
0.001690747
0.001772609
0.001886409
0.001983272
0.002053002
0.002119322
0.002187252
0.002256015
0.002326051
0.002382527
0.002414085
0.00243615
0.0024547
0.002484301
0.002514567
0.002529561
0.002513347
0.002480438
0.002461334
0.00245909
0.002447703
0.002380367
0.002266159
0.002173588
0.001677178
0.002081343
0.001946383
0.001773587
0.001411219
0.001125909
0.001424254
0.001229397
0.001058449
0.0008938594
0.0007463013
0.000565801
0.0003988606
0.0002434852
0.0001307855
6.655675e-05
3.766891e-05
0.0003310175
0.0004371826
0.0005351517
0.0006618671
0.0008083075
0.0009659254
0.001129506
0.001308784
0.001497266
0.001673267
0.001843781
0.002021568
0.002204901
0.002377434
0.002530048
0.002679545
0.002830984
0.002975052
0.003101222
0.003216845
0.003329086
0.003435095
0.003530485
0.003615706
0.003693094
0.003762914
0.003825527
0.003880896
0.003927001
0.003968499
0.004000783
0.004029513
0.004053891
0.004071513
0.004080924
0.004082844
0.004078363
0.00406682
0.004047929
0.004021326
0.00398645
0.003942832
0.003843727
0.003815394
0.003723502
0.003626664
0.003296327
0.003066314
0.002976033
0.002916446
0.0024853
0.002226052
0.001881527
0.00154047
0.001317708
0.001016351
0.0005706644
0.0002107756
6.544656e-05
3.716917e-05
0.0003668521
0.0005455227
0.0007044448
0.0009048142
0.001131584
0.001373906
0.00162798
0.001891805
0.002159291
0.002419285
0.002665812
0.002901055
0.003120297
0.003325913
0.003516625
0.003694298
0.003859434
0.004011423
0.004150021
0.004277207
0.004394079
0.004500983
0.004598362
0.004686726
0.004766362
0.004837402
0.004900063
0.004952999
0.005001199
0.005039324
0.005068024
0.005089752
0.005104064
0.005110348
0.005108046
0.005096869
0.005074866
0.005041336
0.004996755
0.004940134
0.004870402
0.004786081
0.00468727
0.004571519
0.004437442
0.004283849
0.004108771
0.00390996
0.003685492
0.003436186
0.002828635
0.00239489
0.002116507
0.002003276
0.001696853
0.001234826
0.0007542415
0.0003104007
6.568822e-05
3.714471e-05
0.0004019414
0.0006530134
0.0008744731
0.001142268
0.001438204
0.001748181
0.002063609
0.002378694
0.002685356
0.002981377
0.003262749
0.003528082
0.003770573
0.003991406
0.004195453
0.004384995
0.0045614
0.004726885
0.004882123
0.005023406
0.00515106
0.005267385
0.005373476
0.005469989
0.005557308
0.005635708
0.005704149
0.005765462
0.005817378
0.005859558
0.00589326
0.005918746
0.005934812
0.005941155
0.005937974
0.005924829
0.005901931
0.005868542
0.005823406
0.005766496
0.005697256
0.005614332
0.005517666
0.005405172
0.005275331
0.005126189
0.004953976
0.004759372
0.004477952
0.003750653
0.003599225
0.003550484
0.003188986
0.00270988
0.00217397
0.001583526
0.0009553557
0.000378433
6.541589e-05
3.784757e-05
0.000424377
0.0007410854
0.001015432
0.001332638
0.001677053
0.002033123
0.002389186
0.002736866
0.003070016
0.003386252
0.003685514
0.003971768
0.004237478
0.004481839
0.004704371
0.004907688
0.005093884
0.005265063
0.005421634
0.005568225
0.005706248
0.005834746
0.005953658
0.006063094
0.006163094
0.0062536
0.006332166
0.00640444
0.006465407
0.006515918
0.006555559
0.006584405
0.006602365
0.006608942
0.006603972
0.006586849
0.006556637
0.006513418
0.006456583
0.006385493
0.006299441
0.006197575
0.006078623
0.005940595
0.005782136
0.005601062
0.005392867
0.005162706
0.004897797
0.0045917
0.004240402
0.003845364
0.003405816
0.002914708
0.002363107
0.001749334
0.001089319
0.0004534747
6.540376e-05
3.857169e-05
0.0004399533
0.0008161597
0.00113484
0.001485173
0.001857569
0.002238039
0.002617065
0.002987495
0.003346113
0.0036833
0.003997189
0.004285554
0.004556221
0.004809311
0.005044141
0.005260404
0.005460194
0.005645966
0.005819809
0.005983371
0.006137392
0.006281995
0.006417133
0.006542655
0.006658305
0.006762866
0.006857675
0.006942082
0.007014767
0.007075511
0.007123737
0.007159343
0.007182283
0.007191378
0.007186665
0.007167784
0.007134467
0.007086293
0.007022839
0.006943628
0.006848073
0.006735417
0.00660467
0.006454698
0.006283962
0.006091404
0.005871393
0.005625971
0.005345424
0.005025936
0.00466279
0.004249015
0.003776351
0.003236875
0.002625993
0.00194466
0.001209911
0.0005027362
6.535621e-05
3.971276e-05
0.000437284
0.0008681765
0.001224402
0.001595828
0.001988171
0.002389756
0.002786736
0.00317061
0.003533932
0.003878142
0.004200548
0.004500833
0.004780709
0.005042732
0.005289287
0.005521004
0.005738403
0.005942818
0.006135841
0.00631865
0.006491855
0.006655611
0.006809776
0.006954
0.007087791
0.007208016
0.007319836
0.007418877
0.007504673
0.007576726
0.00763439
0.007677822
0.007706277
0.007719084
0.007715724
0.007695736
0.007658713
0.007604246
0.007531905
0.007441201
0.007331561
0.007202292
0.007052561
0.006881285
0.006687671
0.0064702
0.006224264
0.005950116
0.005641406
0.005293201
0.004900175
0.004456318
0.00395749
0.003395465
0.002764122
0.002061522
0.001300276
0.0005536863
6.534794e-05
4.175858e-05
0.0004429922
0.0009084233
0.001295205
0.001686543
0.002088901
0.002495249
0.002896642
0.003285183
0.003655947
0.004007212
0.004338115
0.004648995
0.004941034
0.00521572
0.005475667
0.005723244
0.005959306
0.006184299
0.006398757
0.006603201
0.006797891
0.006982791
0.00715763
0.007321933
0.007474873
0.007614437
0.007742361
0.007856122
0.007954884
0.008037953
0.008105357
0.008156586
0.008190634
0.008206702
0.008204166
0.008182501
0.008141259
0.008080031
0.007998427
0.007896046
0.007772456
0.007627167
0.00745954
0.00726908
0.00705517
0.006814515
0.006542707
0.006242221
0.005911011
0.005545651
0.005139763
0.004683995
0.004166323
0.003578788
0.002915609
0.002175578
0.001373687
0.0005878915
6.530995e-05
4.20566e-05
0.000444259
0.0009294425
0.001344511
0.001745689
0.00215286
0.002561795
0.002965154
0.003356638
0.003732329
0.004090414
0.004430363
0.004752619
0.005058273
0.005348711
0.005625414
0.005890266
0.006145254
0.006391165
0.00662781
0.00685472
0.007071334
0.007276899
0.007470359
0.007651331
0.00782057
0.007977733
0.00812155
0.008250505
0.008363472
0.008459351
0.008536708
0.008595208
0.008633973
0.008652251
0.008649396
0.008624856
0.008578158
0.008508891
0.008416697
0.008301257
0.008162295
0.007999582
0.007812332
0.007598724
0.007358604
0.007093283
0.006799817
0.006479423
0.006126734
0.005737862
0.005307337
0.00482834
0.004290552
0.003684096
0.003004435
0.002248673
0.001429166
0.0006196828
6.524385e-05
4.233502e-05
0.0004372682
0.0009418298
0.001381741
0.001794393
0.002203771
0.002611325
0.00301279
0.003403891
0.003781701
0.004144696
0.00449246
0.004825478
0.005144803
0.005451666
0.005747203
0.006031151
0.006302879
0.006563558
0.00681612
0.007060241
0.007295507
0.007521403
0.007737437
0.007942324
0.008131175
0.008306903
0.008466605
0.008609212
0.008733621
0.008838762
0.00892374
0.008987835
0.009029921
0.00904914
0.009044788
0.009016285
0.008963145
0.008884954
0.00878135
0.008652006
0.008496613
0.008314867
0.008107133
0.007874387
0.007614988
0.007327502
0.007009728
0.006663878
0.006288307
0.005881372
0.005437628
0.004946767
0.004397892
0.003781985
0.003087375
0.002312425
0.001471348
0.0006409458
6.521125e-05
4.562617e-05
0.0004193625
0.0009380723
0.001397884
0.001819232
0.002229175
0.002634693
0.003034659
0.003425988
0.00380625
0.004174303
0.004530127
0.004874106
0.005206321
0.005526668
0.005833021
0.006129738
0.006419013
0.006701335
0.006974802
0.007239594
0.007495141
0.00774045
0.007974329
0.00819536
0.008401031
0.008591645
0.008764846
0.008919238
0.00905349
0.009166345
0.009256666
0.009323463
0.009366077
0.009383878
0.009376271
0.00934273
0.009282797
0.009196088
0.009082283
0.008941112
0.008772331
0.008575689
0.008350865
0.008097697
0.007816193
0.007506696
0.007021535
0.006489682
0.006077943
0.005790743
0.005516771
0.005022477
0.004468068
0.003842684
0.003138137
0.002353639
0.001502162
0.0006586993
6.512405e-05
4.621989e-05
0.0004097939
0.0009278864
0.001401527
0.001831667
0.002243115
0.002646117
0.0030424
0.003431071
0.003811035
0.004181292
0.004540521
0.004886265
0.005071465
0.005210899
0.005405463
0.005672514
0.006011184
0.006401987
0.006804242
0.007190433
0.007602384
0.007932219
0.008181086
0.008416017
0.008634898
0.008836719
0.009019796
0.009182688
0.009324056
0.009442669
0.009537435
0.009607373
0.009651471
0.00966887
0.009658831
0.009620738
0.009554094
0.009458516
0.009333737
0.009179599
0.008996046
0.008783117
0.008540899
0.008269678
0.007824558
0.007286605
0.006764505
0.006311719
0.005958471
0.005684142
0.005450457
0.005075899
0.004520072
0.003890417
0.003180416
0.002386805
0.001524209
0.0006700813
6.509383e-05
4.701146e-05
0.0003980334
0.0009140809
0.001400555
0.001838174
0.002250898
0.002651531
0.003044429
0.003430221
0.00380791
0.004175677
0.004515816
0.004715093
0.004913879
0.005095731
0.005294904
0.005508001
0.005745774
0.006038665
0.006388352
0.006773339
0.007174559
0.007611937
0.008087335
0.008571462
0.008813896
0.00902538
0.009217451
0.009388349
0.009536617
0.009660865
0.009759804
0.009832265
0.009877175
0.009893586
0.009880711
0.009837916
0.009764726
0.009660834
0.00952609
0.009360488
0.00916411
0.008937383
0.00859686
0.008073661
0.007523634
0.007020733
0.006564994
0.006163758
0.00581682
0.005569746
0.005387779
0.00511172
0.004555215
0.003923164
0.003207741
0.002408395
0.00153986
0.0006789261
6.502004e-05
4.792241e-05
0.0003871944
0.0008973971
0.001389724
0.001835236
0.002250821
0.002650502
0.003040547
0.003422696
0.003796518
0.004160481
0.004483585
0.004697049
0.004850775
0.005003696
0.005173967
0.005387082
0.005643129
0.005915024
0.00622857
0.006606744
0.007007399
0.007408405
0.007809772
0.008206845
0.008612555
0.009014163
0.009362471
0.00954027
0.009694716
0.009824044
0.009926721
0.01000146
0.01004711
0.01006264
0.01004723
0.01000025
0.00992125
0.009809996
0.009666532
0.009491218
0.009169311
0.008754587
0.008313958
0.007852025
0.007369128
0.006872583
0.006404815
0.006009922
0.005709101
0.005487226
0.005302686
0.005085387
0.004578477
0.003945519
0.003227697
0.002424129
0.0015501
0.0006839495
6.495268e-05
4.879625e-05
0.0003779419
0.0008794271
0.00137669
0.00182715
0.002244749
0.0026432
0.003029898
0.003407749
0.003777254
0.004137652
0.004481048
0.004668917
0.004809228
0.004963455
0.005157187
0.00537654
0.005602609
0.005869416
0.006169853
0.006493169
0.00685355
0.00723756
0.007632625
0.008022062
0.00839298
0.008741611
0.009068302
0.009370108
0.009647204
0.009889278
0.01004286
0.01011999
0.01016659
0.01018156
0.01016416
0.01011384
0.009978
0.009780818
0.00953778
0.009252138
0.008921024
0.008542157
0.00811913
0.007664779
0.00720007
0.006746858
0.006321298
0.005932336
0.005607675
0.005372863
0.005231847
0.005064606
0.004593741
0.003960345
0.003240583
0.002434269
0.001556838
0.0006867787
6.492101e-05
4.955901e-05
0.0003699148
0.0008616746
0.001359509
0.001813567
0.002233577
0.002631482
0.003015356
0.003389177
0.00375436
0.004110793
0.004457187
0.00466378
0.004828135
0.004990475
0.00516069
0.005358313
0.005604675
0.005875266
0.006174219
0.006490749
0.006835695
0.00718943
0.007545523
0.007898323
0.008242881
0.008572617
0.008877788
0.009152526
0.009400444
0.009631515
0.009863826
0.01012086
0.01015358
0.01001562
0.009945444
0.009870581
0.009754716
0.009584889
0.009359717
0.009079422
0.008745373
0.008364739
0.007949893
0.007513515
0.007068533
0.006630128
0.006216789
0.005849208
0.005547073
0.005325549
0.00517285
0.005011012
0.004604365
0.003971914
0.003251233
0.002442572
0.00156288
0.000689444
6.483795e-05
5.017621e-05
0.0003631727
0.0008447397
0.001341104
0.001798058
0.00221917
0.002616331
0.002997646
0.003367778
0.003728887
0.004081485
0.004424993
0.004666953
0.004842773
0.005011094
0.005194122
0.005400168
0.005629181
0.005895897
0.00619516
0.006523236
0.006851167
0.00718697
0.00752399
0.007855271
0.008175505
0.008480783
0.008767038
0.009030721
0.009272262
0.009499676
0.009736373
0.01001866
0.01007579
0.009928756
0.00984372
0.009759163
0.009640502
0.009470145
0.009242993
0.008960218
0.008626219
0.008248649
0.007838638
0.007409687
0.006976069
0.006551585
0.006149777
0.005786237
0.00548164
0.00525855
0.005116072
0.004976326
0.004608615
0.003976074
0.003254325
0.002444759
0.001563589
0.0006896458
6.479704e-05
5.071843e-05
0.0003578506
0.0008293811
0.001322104
0.001779751
0.002202073
0.002598705
0.002977956
0.003345013
0.003702729
0.00405235
0.004394168
0.004697299
0.00489387
0.005072279
0.005258665
0.005466668
0.005704556
0.005977359
0.00627311
0.006586364
0.006905773
0.00722985
0.007550313
0.007863021
0.00816529
0.008454504
0.008727029
0.008979579
0.009212991
0.009437777
0.009682023
0.009996949
0.01009055
0.009941075
0.009831591
0.009728108
0.009600206
0.009425796
0.009194043
0.008904
0.008561819
0.008178365
0.007767023
0.007341557
0.006914792
0.006498632
0.006105396
0.005749628
0.005451038
0.005230066
0.005087239
0.004953726
0.004612682
0.003980394
0.00325818
0.002447572
0.001565657
0.0006908683
6.47463e-05
5.114397e-05
0.0003540771
0.0008159246
0.001303875
0.001760788
0.002183349
0.002579529
0.002957177
0.003321863
0.003677037
0.004024635
0.00436568
0.004700398
0.004966524
0.005163909
0.005362833
0.005579777
0.00582149
0.006089262
0.006382052
0.006690876
0.007009162
0.007322962
0.007628491
0.007923934
0.00820885
0.008482785
0.008743869
0.008988943
0.009216607
0.009435498
0.009677814
0.01000561
0.01013209
0.009993697
0.00986729
0.009743477
0.009598201
0.009409909
0.009166111
0.008865091
0.008513627
0.008123751
0.007709728
0.007285527
0.0068633
0.006453457
0.006066441
0.00571523
0.005419302
0.005200338
0.005061425
0.004937277
0.004613562
0.003981225
0.003258545
0.002447393
0.001565314
0.0006903704
6.467874e-05
5.157793e-05
0.0003515152
0.0008040841
0.001286068
0.001741298
0.002163705
0.002559393
0.002935866
0.003298838
0.003652184
0.003998343
0.004338799
0.004675097
0.00500855
0.005285982
0.005497592
0.005720876
0.005970051
0.006243066
0.006534383
0.006837119
0.007144229
0.007446756
0.007739154
0.008018775
0.008286291
0.008543408
0.008790933
0.009028496
0.009253942
0.00946275
0.009670329
0.009972322
0.01020419
0.0101053
0.009907024
0.009761964
0.009603626
0.009403826
0.009148945
0.008837349
0.008476891
0.008080875
0.007664332
0.007241154
0.006822654
0.006418022
0.006036526
0.005690082
0.005397443
0.005180045
0.005042112
0.004922417
0.004613835
0.003981368
0.003258079
0.002446917
0.001564926
0.0006902754
6.465036e-05
5.193112e-05
0.0003505279
0.0007948707
0.001270716
0.001722897
0.002144171
0.002539191
0.00291472
0.00327647
0.003628609
0.003974001
0.004314616
0.004651933
0.004987004
0.005322217
0.005658143
0.005903379
0.00614602
0.006414488
0.006708061
0.007010933
0.007313119
0.007602431
0.007879713
0.008142037
0.008390778
0.008628995
0.008859251
0.009082531
0.009299397
0.009511733
0.009724766
0.009949493
0.01018752
0.01018143
0.009971143
0.009798887
0.0096191
0.009402777
0.009134903
0.008813046
0.008444791
0.008043751
0.007625275
0.0072031
0.006787839
0.006387668
0.006010858
0.005668493
0.005378994
0.005163977
0.00502856
0.004913367
0.004613338
0.003980751
0.003257145
0.002445507
0.001563494
0.0006893238
6.457818e-05
5.236194e-05
0.0003505495
0.000787204
0.001255883
0.001704928
0.002124827
0.00251912
0.002893955
0.003254935
0.003606404
0.003951538
0.004292644
0.004631464
0.004969388
0.005307648
0.005646837
0.005987896
0.006331526
0.006643961
0.006917848
0.007198598
0.007487739
0.007777841
0.008048772
0.008296054
0.008523007
0.00873751
0.008945788
0.009150675
0.009351984
0.009549512
0.009748998
0.009966189
0.01020775
0.01022029
0.01001734
0.009833544
0.009637286
0.009405679
0.00912522
0.008793506
0.008418061
0.008012619
0.007592578
0.007171375
0.006758958
0.006362669
0.005990023
0.005651452
0.005364978
0.005152073
0.005018257
0.00490572
0.004612274
0.003979161
0.003255224
0.002443473
0.001561903
0.0006887135
6.456631e-05
5.271848e-05
0.0003515339
0.0007816433
0.001243646
0.001688667
0.002106624
0.002499949
0.002874165
0.003234676
0.0035859
0.003931215
0.004273166
0.004613681
0.004954234
0.005295926
0.005639444
0.005985115
0.006332715
0.006681178
0.007028625
0.007374307
0.007696659
0.007966049
0.008214311
0.008445458
0.008656433
0.008850347
0.009035575
0.009219583
0.009404535
0.009589613
0.00977651
0.009974457
0.01020436
0.01023883
0.01005723
0.009867366
0.009656554
0.009410555
0.009118187
0.008777255
0.008395219
0.007985856
0.007564502
0.007144236
0.006734366
0.006341507
0.005972556
0.005637487
0.005354082
0.005143746
0.005012169
0.004902036
0.004611611
0.003978111
0.003253565
0.002441479
0.001560032
0.000687535
6.450354e-05
5.330737e-05
0.0003535402
0.0007777245
0.001232945
0.001673645
0.002089424
0.002481753
0.002855548
0.003215974
0.003567451
0.003913495
0.004256815
0.004599468
0.004942977
0.005288385
0.005636253
0.005986643
0.006339062
0.006692393
0.007044943
0.007394583
0.007738469
0.008073303
0.008393748
0.008611136
0.008795941
0.008965501
0.009127376
0.009289489
0.009456081
0.009625946
0.00979809
0.009980975
0.01020121
0.01025334
0.01008881
0.009895179
0.009674784
0.009417591
0.009114682
0.008765042
0.008376691
0.007963605
0.007541009
0.007121555
0.006713924
0.006324077
0.005958399
0.005626532
0.005346045
0.005138148
0.005008419
0.004899687
0.004610827
0.003976645
0.003251433
0.002439129
0.001558152
0.0006867945
6.450461e-05
5.317553e-05
0.0003560732
0.0007750052
0.001223958
0.001660608
0.00207403
0.002465273
0.002838757
0.003199417
0.003551642
0.00389902
0.004244368
0.004589828
0.00493694
0.005286688
0.005639497
0.005995228
0.006353167
0.006711992
0.007069803
0.007424176
0.007772228
0.008110752
0.008436385
0.008745641
0.008977517
0.009122657
0.009249451
0.009381033
0.009524933
0.009680312
0.009841666
0.01000167
0.0101492
0.0102577
0.01016434
0.009923928
0.009689478
0.009425233
0.009114879
0.008757605
0.008363031
0.007946065
0.007522021
0.00710311
0.006697359
0.006310106
0.005947293
0.005618346
0.005340707
0.005135431
0.005007834
0.00490026
0.004610731
0.003975667
0.003249761
0.002437156
0.00155631
0.0006856088
6.445488e-05
5.480616e-05
0.0003576127
0.0007642681
0.001216813
0.001648999
0.002060116
0.002450429
0.002823927
0.003185326
0.00353896
0.003888458
0.004236702
0.00458587
0.004937482
0.00529243
0.005650975
0.006012765
0.006376838
0.006741624
0.007104989
0.007464309
0.007816567
0.00815846
0.008486523
0.00879725
0.009087212
0.009292988
0.00940186
0.009499094
0.009611589
0.009743335
0.009887149
0.01003125
0.01016066
0.01026024
0.01018403
0.009956877
0.009716404
0.009441259
0.009120452
0.008754535
0.008353588
0.007932729
0.00750714
0.007088555
0.006684363
0.006299319
0.005938982
0.005612648
0.005337661
0.005134873
0.005009163
0.004902064
0.004610845
0.003974998
0.003248422
0.002435161
0.001554506
0.0006847263
6.446583e-05
5.535545e-05
0.0003614809
0.0007516394
0.001212315
0.001639722
0.002048411
0.002437898
0.00281174
0.00317443
0.003530227
0.003882756
0.004234909
0.004588844
0.004946007
0.005307141
0.005672305
0.006040895
0.006411677
0.006782806
0.007151902
0.007516129
0.0078723
0.008217029
0.008546819
0.008858178
0.009147763
0.009413051
0.00956755
0.009645527
0.00972473
0.009826091
0.009946024
0.01006994
0.01018089
0.01027171
0.01020634
0.009988824
0.00974469
0.009460951
0.00913054
0.008756013
0.008348521
0.007923586
0.007496238
0.007077693
0.006674713
0.006291517
0.005933319
0.005609337
0.00533686
0.005136592
0.005012935
0.004906205
0.004611305
0.00397442
0.00324723
0.002433646
0.001553016
0.0006837782
6.443213e-05
5.598955e-05
0.0003650536
0.000739035
0.001208984
0.001631924
0.002038442
0.002427527
0.00280232
0.003167093
0.003526007
0.003882648
0.004239866
0.004599738
0.00496357
0.005331906
0.005704547
0.006080606
0.006458543
0.006836225
0.007211007
0.007579858
0.007939477
0.008286245
0.008616873
0.008927921
0.009216339
0.009478833
0.009712851
0.009809967
0.009861838
0.009929282
0.01001994
0.01012047
0.0102157
0.01029142
0.01022544
0.01001876
0.009774524
0.009484018
0.009144455
0.008761268
0.008347099
0.007917998
0.007488851
0.007070285
0.006668345
0.006286705
0.005930297
0.00560835
0.005338133
0.00514014
0.005018202
0.004911427
0.004613102
0.003974938
0.003246653
0.002432525
0.001551601
0.0006829699
6.444989e-05
5.649491e-05
0.0003692281
0.00073005
0.001200666
0.001626672
0.00203107
0.002420053
0.002796369
0.003164046
0.003527099
0.003889007
0.004252501
0.0046195
0.004991095
0.005367561
0.005748391
0.006132375
0.006517657
0.006901813
0.007281963
0.007654927
0.008016913
0.008365096
0.008695689
0.009005391
0.009291437
0.009550435
0.009780239
0.009959967
0.01000905
0.01004792
0.01010842
0.01018506
0.01025916
0.01031417
0.01024641
0.01005037
0.009806638
0.009510324
0.009162374
0.008770969
0.008350315
0.007916961
0.007485594
0.007066239
0.006664567
0.006284001
0.005929165
0.005609125
0.005341082
0.005145365
0.005025337
0.004918499
0.004615525
0.003976022
0.003246468
0.002431596
0.001550581
0.0006822509
6.442774e-05
5.691731e-05
0.0003730088
0.00072085
0.001183993
0.001623052
0.002025749
0.002415321
0.002794054
0.003165707
0.003534111
0.003902576
0.004273646
0.004648999
0.005029439
0.005414908
0.005804546
0.006196791
0.006589454
0.006979826
0.00736468
0.007740541
0.008104686
0.008453182
0.00878268
0.009090072
0.00937238
0.009627036
0.009851833
0.01004493
0.01014843
0.01017722
0.01021054
0.01026042
0.01031207
0.01034469
0.01027197
0.01008441
0.009841089
0.009539526
0.009183558
0.008783797
0.008356017
0.007917791
0.007484506
0.007065226
0.006664692
0.006285197
0.005931447
0.005612809
0.005346615
0.00515283
0.005034194
0.004926631
0.004618764
0.003977813
0.003247063
0.00243136
0.001549733
0.0006816343
6.444701e-05
5.74698e-05
0.00037727
0.0007140608
0.001169952
0.001622145
0.002023738
0.002414327
0.002796283
0.003172971
0.003547943
0.003924242
0.004304122
0.004688939
0.00507913
0.005474253
0.005873058
0.006273619
0.006673374
0.007068911
0.007457728
0.007836552
0.008201542
0.008549317
0.008876658
0.009180731
0.009458588
0.009708034
0.009927099
0.01011419
0.01026807
0.01030956
0.01032345
0.010348
0.01037569
0.01038409
0.01030412
0.01012289
0.009879178
0.009572468
0.009209181
0.008802681
0.00837003
0.007929171
0.007493524
0.007071375
0.00666821
0.00628921
0.005936898
0.005619918
0.005355016
0.005162667
0.00504586
0.004938532
0.00462279
0.003980248
0.003248105
0.002431348
0.001549418
0.0006812051
6.443558e-05
5.763895e-05
0.000381391
0.0007073122
0.001153766
0.001622529
0.002023959
0.002416636
0.002802898
0.003185839
0.003568683
0.003954124
0.00434404
0.004739375
0.005140136
0.00554544
0.005953567
0.006361741
0.006767685
0.007168828
0.007561242
0.00794156
0.008306365
0.00865239
0.008976594
0.009276379
0.009548998
0.00979253
0.01000526
0.01018581
0.01033318
0.01042649
0.01043727
0.01044099
0.01044468
0.01042821
0.01033926
0.01016276
0.00991864
0.009607822
0.009238425
0.008824345
0.008382738
0.00793334
0.007493214
0.007072838
0.006673999
0.006296367
0.005944042
0.005627062
0.005363388
0.005173185
0.005056463
0.004946399
0.004627369
0.003983311
0.003249843
0.002431966
0.001549307
0.0006807852
6.445336e-05
5.798968e-05
0.0003855587
0.0007030347
0.001144756
0.001625038
0.002027123
0.002423403
0.002815064
0.003205551
0.003597658
0.003993651
0.004394937
0.004801945
0.005213839
0.005628818
0.006045348
0.006461531
0.006873895
0.007279087
0.007673742
0.00805448
0.008418022
0.008761284
0.009081475
0.009376019
0.009642745
0.009879832
0.01008581
0.01025953
0.0104002
0.01050728
0.01054373
0.01053796
0.01052224
0.01048238
0.01038244
0.01020632
0.009958571
0.009641101
0.009262981
0.008839901
0.008393095
0.007941931
0.007501464
0.007079173
0.006679021
0.006301154
0.005950006
0.005634916
0.005372665
0.005182089
0.005065326
0.004955167
0.004632535
0.003986833
0.003251879
0.002432781
0.001549232
0.0006806185
6.44644e-05
5.838698e-05
0.0003893329
0.0006987244
0.001131433
0.00162857
0.002032684
0.002433563
0.002832824
0.003232478
0.003635365
0.004043101
0.004456124
0.004873669
0.005296071
0.005721748
0.006147805
0.006571164
0.006988718
0.007397165
0.007793158
0.008173417
0.008534826
0.008874514
0.00918991
0.009478723
0.009739048
0.009969309
0.01016827
0.010335
0.01046888
0.01056953
0.0106368
0.01062918
0.01060051
0.01054103
0.01042742
0.01024844
0.009997575
0.009675611
0.00929203
0.008864224
0.008413002
0.007958241
0.007514319
0.007089649
0.006687697
0.0063097
0.005958464
0.005643324
0.005381873
0.00519452
0.005080914
0.004969545
0.00463858
0.0039911
0.003254599
0.002434213
0.001549735
0.0006806467
6.447066e-05
5.880232e-05
0.000393403
0.0006965601
0.001124653
0.001635097
0.002042717
0.002449352
0.002856473
0.00326646
0.0036806
0.004100213
0.004525672
0.004956776
0.005391034
0.005826473
0.006260437
0.0066899
0.007111623
0.007522284
0.007918598
0.008297425
0.008655808
0.008991174
0.009301158
0.009583759
0.009837319
0.01006051
0.01025231
0.01041199
0.0105391
0.01063338
0.01069478
0.01071882
0.01068955
0.01061504
0.01048461
0.01029837
0.01004313
0.009716185
0.009326367
0.008891643
0.00843382
0.007974118
0.007527462
0.007102047
0.006699905
0.006321632
0.005970352
0.00565537
0.005394019
0.005206225
0.005092307
0.004980896
0.004644884
0.00399563
0.003257546
0.00243583
0.001550332
0.0006807301
6.448735e-05
5.924688e-05
0.0003973389
0.0006956078
0.001116819
0.001642961
0.002054926
0.00246874
0.002885559
0.003306904
0.003734013
0.004167119
0.004605818
0.005048837
0.005494047
0.005938869
0.006380365
0.006815353
0.00724054
0.007652639
0.008048494
0.008425148
0.008779861
0.009110344
0.009414481
0.009690541
0.009937118
0.01015312
0.01033774
0.01049042
0.01061085
0.01069887
0.01075453
0.01077798
0.01076946
0.01069316
0.01054855
0.01035338
0.01009198
0.009759066
0.009362703
0.008921459
0.008458346
0.007994529
0.007544962
0.007117261
0.006713525
0.006334193
0.005982215
0.005666951
0.005405995
0.005219287
0.005106232
0.004993211
0.004651946
0.004000819
0.003261031
0.002437842
0.001551221
0.0006810013
6.450359e-05
5.966609e-05
0.0004011644
0.0006947513
0.001110539
0.00165228
0.002069876
0.002492153
0.002919813
0.003353768
0.003794428
0.004241406
0.004693529
0.005148888
0.005604974
0.006058857
0.006507362
0.006947189
0.007375042
0.007787747
0.008182331
0.00855607
0.008906513
0.009231592
0.009529498
0.009798769
0.01003824
0.01024703
0.01042451
0.01057029
0.01068415
0.01076605
0.01081609
0.01083445
0.0108214
0.0107574
0.01060606
0.01040478
0.01013814
0.009799774
0.009397384
0.008950077
0.008481708
0.008013958
0.007561827
0.007132574
0.006727803
0.006347654
0.005994994
0.005679253
0.00541816
0.00523177
0.005119311
0.005005805
0.004659398
0.0040064
0.003264876
0.002440129
0.00155223
0.0006812317
6.451839e-05
6.012365e-05
0.0004048444
0.0006949225
0.001105377
0.001659153
0.002088325
0.00252031
0.002960106
0.003407793
0.003862919
0.004324297
0.004790026
0.00525761
0.005724112
0.006186315
0.006640905
0.007084574
0.007514124
0.007926552
0.008319104
0.008689135
0.009034815
0.009354139
0.009645594
0.009907961
0.0101403
0.01034193
0.01051238
0.01065139
0.01075886
0.01083483
0.01087943
0.01089288
0.01087545
0.01082277
0.01066758
0.01046115
0.01018861
0.009843695
0.009434553
0.008981009
0.008507511
0.00803594
0.007581117
0.007149956
0.006743717
0.006362337
0.006008628
0.005692137
0.005430777
0.005244642
0.005132525
0.005018112
0.004667188
0.004012273
0.003268971
0.002442629
0.001553409
0.0006815366
6.453626e-05
6.060501e-05
0.0004084273
0.000696233
0.001101707
0.001656753
0.002110618
0.002553238
0.003006194
0.003468501
0.003938709
0.004414747
0.004893994
0.005373411
0.005849694
0.006319434
0.006779262
0.007225922
0.007656358
0.008067765
0.008457627
0.008823603
0.009164099
0.00947741
0.009762272
0.0100177
0.01024295
0.01043752
0.0106011
0.01073354
0.01083484
0.01090509
0.01094446
0.01095319
0.01093154
0.01087979
0.01073005
0.01052132
0.01024282
0.009890633
0.009474199
0.009014121
0.008535296
0.008059733
0.007602069
0.007168856
0.006760987
0.006378177
0.006023189
0.005705687
0.005443778
0.005257677
0.005145886
0.005030775
0.004675409
0.004018574
0.00327347
0.002445471
0.001554816
0.0006819415
6.454744e-05
6.110055e-05
0.0004119581
0.0006983745
0.001099096
0.001654724
0.002136449
0.002590776
0.003057795
0.003535395
0.004021055
0.004511805
0.005004325
0.005495085
0.005980487
0.006456998
0.006921254
0.007370112
0.007800698
0.008210443
0.008597101
0.008958665
0.009293716
0.009600863
0.009879082
0.0101276
0.01034589
0.01053358
0.01069051
0.01081663
0.010912
0.01097676
0.01101111
0.0110153
0.01098956
0.01093416
0.01079293
0.01058327
0.01029918
0.009939659