/*--------------------------------*- C++ -*----------------------------------*\
| =========                 |                                                 |
| \\      /  F ield         | OpenFOAM: The Open Source CFD Toolbox           |
|  \\    /   O peration     | Version:  2312                                  |
|   \\  /    A nd           | Website:  www.openfoam.com                      |
|    \\/     M anipulation  |                                                 |
\*---------------------------------------------------------------------------*/
FoamFile
{
    version     2.0;
    format      ascii;
    arch        "LSB;label=32;scalar=64";
    class       volScalarField;
    location    "3900";
    object      qr;
}
// * * * * * * * * * * * * * * * * * * * * * * * * * * * * * * * * * * * * * //

dimensions      [1 0 -3 0 0 0 0];

internalField   uniform 0;

boundaryField
{
    plate
    {
        type            calculated;
        value           nonuniform List<scalar> 
200
(
-6123.734
-6334.173
-6448.81
-6440.936
-6347.858
-6266.379
-6264.045
-6631.684
-6812.912
-1321.215
-1542.957
-6177.337
-1924.375
-2116.043
-2244.513
-2291.46
-2279.441
-2236.507
-2184.888
-2141.581
-2135.157
-2191.563
-2285.518
-2421.348
-2451.053
-2481.654
-5663.94
-4963.058
-5430.411
-5380.555
-5307.237
-5240.509
-4372.413
-4300.226
-4111.849
-3993.783
-3927.894
-3816.652
-3892.72
-4013.708
-4162.181
-4264.19
-4283.147
-4232.662
-4132.103
-4021.881
-3937.694
-3898.203
-3903.598
-3938.357
-3981.192
-4014.158
-4029.473
-4029.893
-4023.826
-4019.33
-4020.114
-4024.972
-4029.888
-4030.913
-4026.209
-4016.465
-4004.098
-3991.842
-3981.634
-3974.091
-3968.76
-3964.671
-3960.94
-3957.028
-3952.762
-3948.164
-3943.403
-3938.798
-3935.022
-3933.057
-3934.024
-3938.759
-3947.358
-3958.892
-3971.489
-3982.769
-3990.501
-3993.246
-3990.738
-3983.88
-3974.377
-3964.195
-3955.028
-3947.959
-3943.354
-3940.989
-3940.284
-3940.558
-3941.209
-3941.828
-3942.198
-3942.281
-3942.136
-3941.884
-3941.631
-3941.467
-3941.417
-3941.484
-3941.63
-3941.847
-3942.13
-3942.532
-3943.088
-3943.857
-3944.822
-3945.961
-3947.167
-3948.381
-3949.499
-3950.539
-3951.486
-3952.462
-3953.495
-3954.711
-3956.07
-3957.593
-3959.122
-3960.553
-3961.682
-3962.343
-3962.483
-3961.983
-3961.04
-3959.703
-3958.19
-3956.548
-3954.748
-3952.667
-3950.179
-3947.294
-3944.313
-3941.848
-3940.696
-3941.536
-3944.607
-3949.452
-3954.936
-3959.529
-3961.802
-3960.928
-3956.949
-3950.731
-3943.612
-3936.971
-3931.868
-3928.956
-3928.552
-3930.787
-3935.556
-3942.324
-3949.877
-3956.332
-3959.575
-3958.093
-3951.89
-3942.879
-3934.354
-3929.481
-3929.719
-3933.772
-3937.969
-3937.71
-3930.146
-3916.494
-3902.814
-3897.195
-3905.339
-3925.496
-3949.392
-3964.419
-3960.478
-3935.111
-3896.629
-3862.278
-3848.363
-3861.292
-3891.584
-3924.152
-3945.322
-3950.085
-3937.263
-3909.964
-3870.301
-3831.903
-3818.347
-3838.775
-3888.929
-3935.033
-3925.627
-2890.632
-6957.708
67.02104
-8490.025
-8589.842
)
;
    }
    riser
    {
        type            calculated;
        value           nonuniform List<scalar> 
200
(
2492.354
2460.32
2478.513
2544.985
2645.707
2744.648
2835.178
2876.156
2815.021
2745.494
2804.938
2913.138
2921.55
2904.447
3004.964
3174.169
3267.222
3240.763
3163.108
3115.496
3129.684
3186.623
3232.465
3218.8
3157.563
3098.012
3046.003
2987.388
2969.707
3058.687
3235.554
3417.767
3554.187
3647.981
3709.113
3729.946
3710.361
3672.39
3643.515
3636.185
3645.21
3658.989
3667.757
3664.958
3646.89
3613.654
3569.896
3522.953
3479.671
3444.549
3420.267
3409.067
3413.126
3433.444
3468.409
3513.406
3561.901
3607.315
3644.636
3671.099
3685.955
3689.793
3683.968
3670.384
3651.547
3630.585
3610.961
3595.818
3587.18
3585.391
3589.059
3595.588
3602.071
3606.194
3606.821
3604.109
3599.205
3593.716
3589.173
3586.641
3586.557
3588.747
3592.576
3597.151
3601.52
3604.844
3606.512
3606.214
3603.949
3599.985
3594.775
3588.86
3582.77
3576.959
3571.779
3567.489
3564.289
3562.352
3561.839
3562.895
3565.621
3570.033
3576.031
3583.381
3591.721
3600.583
3609.438
3617.732
3624.94
3630.6
3634.352
3635.963
3635.345
3632.564
3627.832
3621.49
3613.981
3605.816
3597.537
3589.691
3582.792
3577.292
3573.543
3571.758
3571.98
3574.067
3577.708
3582.482
3587.935
3593.666
3599.391
3604.958
3610.312
3615.424
3620.22
3624.549
3628.201
3630.979
3632.77
3633.591
3633.56
3632.807
3631.365
3629.12
3625.871
3621.495
3616.167
3610.515
3605.591
3602.618
3602.539
3605.552
3610.803
3616.463
3620.237
3620.241
3615.955
3608.858
3602.367
3600.904
3608.251
3625.762
3651.168
3678.601
3700.024
3707.558
3695.839
3663.651
3614.374
3555.271
3495.77
3445.046
3409.372
3390.153
3383.41
3381.474
3376.748
3366.693
3357.517
3363.363
3398.714
3465.873
3544.539
3594.163
3574.207
3472.251
3317.783
3166.239
3062.589
3015.755
3011.369
3047.884
3145.065
3283.522
3355.193
3216.756
2885.097
2617.294
2537.003
2580.2
)
;
    }
    topAndBottom
    {
        type            calculated;
        value           nonuniform List<scalar> 
120
(
2678.858
2255.388
1939.096
1750.05
1621.105
1530.157
1463.953
1414.155
1371.238
1333.129
1303.899
1285.925
1274.045
1265.183
1257.561
1250.802
1244.764
1238.842
1233.181
1228.768
1226.236
1225.167
1224.58
1223.601
1221.978
1219.7
1216.734
1213.057
1208.757
1203.84
1198.324
1192.363
1186.254
1180.386
1175.162
1170.879
1167.595
1165.076
1162.872
1160.473
1157.459
1153.638
1149.113
1144.272
1139.654
1135.849
1133.298
1131.936
1130.709
1127.588
1120.371
1108.165
1092.585
1077.45
1066.361
1059.24
1051.415
1038.638
1036.443
1155.74
2649.761
2894.665
2922.231
2860.956
2711.115
2518.445
2351.193
2246.073
2196.887
2178.175
2170.607
2171.539
2189.569
2229.877
2282.593
2324.139
2330.468
2291.563
2216.699
2128.066
2048.479
1991.308
1957.451
1938.909
1925.173
1908.475
1885.91
1858.659
1829.766
1801.997
1776.631
1753.314
1730.684
1707.32
1682.12
1654.705
1625.611
1596.167
1568.214
1543.545
1523.732
1510.343
1505.144
1510.302
1526.553
1552.518
1585.626
1623.412
1662.623
1699.834
1731.322
1755.188
1773.732
1788.814
1800.226
1807.109
1809.311
1806.459
1814.89
1828.27
)
;
    }
    frontAndBack
    {
        type            empty;
    }
}


// ************************************************************************* //
