/*--------------------------------*- C++ -*----------------------------------*\
| =========                 |                                                 |
| \\      /  F ield         | OpenFOAM: The Open Source CFD Toolbox           |
|  \\    /   O peration     | Version:  2312                                  |
|   \\  /    A nd           | Website:  www.openfoam.com                      |
|    \\/     M anipulation  |                                                 |
\*---------------------------------------------------------------------------*/
FoamFile
{
    version     2.0;
    format      ascii;
    arch        "LSB;label=32;scalar=64";
    class       volScalarField;
    location    "3900";
    object      T;
}
// * * * * * * * * * * * * * * * * * * * * * * * * * * * * * * * * * * * * * //

dimensions      [0 0 0 1 0 0 0];

internalField   nonuniform List<scalar> 
12000
(
447.5584
435.032
433.5701
433.3693
433.332
433.3134
433.2968
433.2798
433.2611
433.2403
433.2177
433.1932
433.166
433.1356
433.1025
433.0669
433.0285
432.9867
432.9417
432.894
432.8435
432.7898
432.7332
432.6741
432.6124
432.5482
432.4815
432.4122
432.3402
432.2656
432.1884
432.1104
432.0314
431.9416
431.8401
431.7321
431.6197
431.4968
431.3496
431.1769
430.9943
430.818
430.6467
430.4327
430.1669
429.8943
429.646
429.3731
429.0391
428.6278
428.1983
427.7882
427.2741
426.6164
425.8692
425.0005
423.8708
422.3552
420.0165
416.0197
447.5538
435.6136
434.383
434.414
434.6415
434.9049
435.1782
435.445
435.6966
435.9312
436.1703
436.3946
436.5924
436.7704
436.9461
437.1172
437.266
437.3896
437.504
437.6165
437.7173
437.7995
437.8697
437.9335
437.9893
438.0352
438.0715
438.0983
438.116
438.1264
438.1288
438.122
438.1053
438.078
438.0395
437.9893
437.927
437.8522
437.7633
437.6595
437.5398
437.4014
437.2411
437.0571
436.8481
436.6072
436.3323
436.0199
435.6649
435.2637
434.8027
434.2627
433.6362
432.9096
432.0617
430.9749
429.504
427.4488
424.2441
418.4775
448.1628
436.4185
435.1409
435.2821
435.6936
436.1502
436.6071
437.0485
437.4683
437.8631
438.2315
438.5736
438.8889
439.1782
439.4446
439.6892
439.912
440.1135
440.2957
440.4606
440.6089
440.7414
440.8588
440.9627
441.0537
441.1325
441.1995
441.2552
441.2998
441.3337
441.357
441.3699
441.3733
441.3632
441.3403
441.3046
441.2559
441.1935
441.1164
441.0236
440.9138
440.7852
440.6356
440.4634
440.2664
440.0395
439.7783
439.479
439.1342
438.7381
438.2873
437.7747
437.1784
436.4676
435.5964
434.4986
433.0466
430.8852
427.2307
419.7462
449.0727
437.1762
435.8096
435.9962
436.5186
437.0999
437.6741
438.2218
438.7373
439.2266
439.6846
440.1089
440.5009
440.8596
441.1883
441.4894
441.7649
442.0166
442.2459
442.4544
442.6432
442.8136
442.9668
443.1037
443.2253
443.332
443.4245
443.503
443.5677
443.6189
443.6564
443.6808
443.692
443.6872
443.6671
443.632
443.5813
443.5145
443.4304
443.3279
443.2057
443.0621
442.8952
442.7043
442.4859
442.237
441.9539
441.6327
441.2678
440.8539
440.3854
439.8493
439.2126
438.4613
437.5673
436.4635
434.9908
432.8246
429.0682
420.6384
450.0965
437.9262
436.4368
436.6185
437.1986
437.8569
438.5086
439.1295
439.713
440.2591
440.7708
441.2471
441.6913
442.1004
442.4761
442.8208
443.1365
443.4262
443.6916
443.9341
444.1546
444.3542
444.5343
444.6957
444.8393
444.9658
445.0756
445.1691
445.2464
445.3075
445.3531
445.3831
445.3964
445.3918
445.3699
445.3312
445.2751
445.2006
445.1068
444.9925
444.8562
444.6961
444.5102
444.2971
444.0535
443.7766
443.463
443.1096
442.7138
442.271
441.7562
441.1563
440.4847
439.7135
438.7914
437.6567
436.1764
434.0311
430.2773
421.3176
451.2044
438.6683
437.0285
437.1643
437.7579
438.4553
439.1539
439.8232
440.4543
441.0454
441.5966
442.1096
442.5878
443.0321
443.4426
443.8204
444.1671
444.4854
444.7772
445.0443
445.2874
445.5076
445.7059
445.8835
446.0411
446.1795
446.2992
446.4007
446.4842
446.5497
446.598
446.6282
446.6399
446.6331
446.6079
446.5647
446.5027
446.421
446.3187
446.1944
446.0465
445.8732
445.6724
445.4416
445.1779
444.8782
444.539
444.1569
443.7278
443.2448
442.6992
442.0774
441.3684
440.5541
439.599
438.4393
436.9465
434.8126
431.0923
421.8342
452.3566
439.4037
437.5958
437.656
438.23
438.9384
439.6614
440.3601
441.0218
441.6427
442.2228
442.7636
443.2668
443.735
444.1697
444.5715
444.9414
445.2813
445.5926
445.8768
446.1351
446.3685
446.5783
446.7653
446.9307
447.0751
447.1994
447.3041
447.3895
447.456
447.5037
447.5323
447.5414
447.5319
447.5037
447.4567
447.3903
447.3037
447.1958
447.0652
446.91
446.7283
446.5177
446.2753
445.998
445.6823
445.3245
444.9204
444.4646
443.9508
443.3722
442.7198
441.9813
441.1375
440.1557
438.9756
437.4735
435.3496
431.6608
422.2074
453.5039
440.1254
438.1405
438.1069
438.638
439.3362
440.0653
440.7775
441.4562
442.0962
442.6963
443.2571
443.78
444.2662
444.7176
445.1357
445.5216
445.8762
446.2009
446.4967
446.7649
447.0066
447.223
447.4152
447.5842
447.731
447.8565
447.9613
448.0461
448.1112
448.1569
448.1831
448.1899
448.1779
448.1472
448.0974
448.0282
447.9387
447.8275
447.6934
447.5342
447.3479
447.1316
446.8823
446.5964
446.2701
445.8991
445.4783
445.0024
444.4658
443.8624
443.1842
442.4202
441.552
440.5487
439.3519
437.8418
435.7257
432.0712
422.4942
454.6666
440.8394
438.6686
438.5286
438.9993
439.6691
440.389
441.1029
441.7893
442.4401
443.0529
443.6274
444.1642
444.6641
445.1283
445.558
445.9547
446.3194
446.6529
446.9562
447.2306
447.4771
447.697
447.8913
448.0614
448.2083
448.3329
448.4363
448.519
448.5818
448.625
448.6487
448.6534
448.6393
448.6067
448.5553
448.4845
448.3935
448.281
448.1454
447.9848
447.7965
447.5778
447.3252
447.0347
446.702
446.3218
445.8888
445.3974
444.8423
444.2181
443.5183
442.7332
441.8463
440.8274
439.6196
438.1057
435.9986
432.3756
422.7275
455.9018
441.5498
439.1809
438.9276
439.3261
439.9551
440.6548
441.3609
442.047
442.7023
443.3224
443.9058
444.4524
444.9624
445.4364
445.8751
446.2796
446.6508
446.9899
447.2978
447.5755
447.8243
448.0454
448.24
448.4094
448.5549
448.6776
448.7785
448.8586
448.9186
448.959
448.9804
448.983
448.9672
448.9332
448.8807
448.8092
448.7178
448.6052
448.4697
448.3092
448.1212
447.9024
447.6491
447.3569
447.0205
446.6343
446.1922
445.6882
445.1173
444.4751
443.7572
442.9555
442.0543
441.024
439.8086
438.2929
436.1949
432.6044
422.9324
457.2535
442.2578
439.6829
439.3127
439.6322
440.211
440.8814
441.572
442.2514
442.9056
443.5282
444.1164
444.669
445.1857
445.6666
446.1121
446.5226
446.8988
447.2419
447.5528
447.8326
448.0824
448.3036
448.4973
448.6651
448.8083
448.9282
449.0261
449.103
449.1598
449.1974
449.2163
449.2168
449.1995
449.1644
449.1113
449.0395
448.9483
448.8363
448.7018
448.5425
448.3559
448.1386
447.8864
447.5944
447.257
446.8675
446.4184
445.9024
445.3148
444.6543
443.92
443.1058
442.1953
441.1586
439.9403
438.4261
436.3381
432.7773
423.1183
458.7521
442.9806
440.1787
439.6837
439.917
440.4382
441.0724
441.7416
442.4094
443.0584
443.6798
444.2693
444.8248
445.3456
445.8318
446.2833
446.7002
447.0825
447.4305
447.7451
448.027
448.2776
448.4982
448.6904
448.8558
448.9961
449.1127
449.2071
449.2805
449.3339
449.3684
449.3846
449.3831
449.3642
449.3279
449.2742
449.2024
449.1116
449.0005
448.8674
448.71
448.5255
448.3104
448.0605
447.7706
447.4342
447.0446
446.5913
446.0616
445.4514
444.7672
444.0192
443.2003
442.287
441.2486
440.03
438.5185
436.4401
432.908
423.2908
460.1945
443.7091
440.6704
440.0497
440.1965
440.6572
441.2502
441.8921
442.5423
443.1802
443.7945
444.3784
444.9277
445.4463
445.9389
446.4023
446.8322
447.2256
447.5817
447.9008
448.1846
448.4342
448.6519
448.8408
449.0028
449.1393
449.252
449.3423
449.4118
449.4615
449.4927
449.506
449.5021
449.4814
449.444
449.3896
449.3177
449.2274
449.1173
448.9858
448.8305
448.6486
448.4365
448.1897
447.903
447.568
447.1731
446.7079
446.1652
445.5431
444.8465
444.0844
443.2581
442.345
441.307
440.0898
438.5824
436.5133
433.0063
423.4516
461.6862
444.4416
441.1586
440.4157
440.4782
440.8769
441.4259
442.0375
442.6669
443.2901
443.8927
444.4661
445.012
445.5335
446.0283
446.4935
446.9266
447.3255
447.6882
448.0135
448.3016
448.5543
448.7737
448.9615
449.1195
449.2512
449.3595
449.4456
449.511
449.5569
449.5845
449.5948
449.5884
449.5657
449.5269
449.4717
449.3997
449.3097
449.2006
449.0705
448.9173
448.7379
448.5289
448.2853
447.9988
447.6591
447.2571
446.7847
446.2354
445.6055
444.898
444.1247
443.2927
442.3798
441.3431
440.1285
438.625
436.5641
433.0791
423.5965
463.1536
445.1697
441.649
440.7853
440.7641
441.1006
441.6041
442.1833
442.7897
443.3962
443.9865
444.552
445.0928
445.6112
446.1053
446.5718
447.0071
447.4078
447.7721
448.0998
448.3903
448.6444
448.8641
449.0517
449.2094
449.3398
449.4449
449.5267
449.5878
449.6298
449.6539
449.6611
449.652
449.6273
449.5869
449.5307
449.4582
449.3684
449.2601
449.1315
448.9804
448.8033
448.595
448.3492
448.0592
447.7166
447.3122
446.8367
446.2822
445.6459
444.932
444.1504
443.3107
442.3963
441.3629
440.1515
438.6523
436.5987
433.1314
423.7183
464.5672
445.8968
442.1451
441.1599
441.0561
441.3313
441.7893
442.3351
442.9175
443.5068
444.0851
444.6411
445.1749
445.6898
446.1826
446.648
447.0813
447.4806
447.8443
448.1712
448.4616
448.716
448.9358
449.1229
449.2795
449.4081
449.5109
449.5903
449.6484
449.6869
449.7076
449.7117
449.7001
449.6731
449.6311
449.5737
449.5007
449.4111
449.3032
449.1751
449.0237
448.8456
448.6359
448.3885
448.0964
447.7512
447.3442
446.8666
446.3107
445.6718
444.9519
444.1626
443.3174
442.4024
441.3718
440.1636
438.6682
436.6204
433.1659
423.8113
465.9107
446.6278
442.6442
441.539
441.3555
441.5718
441.9854
442.4983
443.0566
443.6287
444.1949
444.7424
445.2697
445.7787
446.2659
446.7269
447.1576
447.5546
447.9154
448.2396
448.5273
448.7793
448.997
449.1823
449.3371
449.4637
449.5642
449.6411
449.6963
449.732
449.7499
449.7512
449.7372
449.7085
449.6649
449.6061
449.5318
449.441
449.3323
449.2035
449.0514
448.8723
448.6612
448.4121
448.1179
447.7705
447.3614
446.8816
446.3234
445.6822
444.9601
444.1676
443.3177
442.4018
441.3751
440.1705
438.6792
436.637
433.193
423.8775
467.1898
447.3546
443.1449
441.9231
441.6634
441.8237
442.195
442.676
443.2108
443.766
444.3206
444.8605
445.3811
445.883
446.3637
446.8185
447.2433
447.6348
447.9909
448.3105
448.5936
448.8412
449.055
449.2368
449.3884
449.512
449.6097
449.6837
449.7361
449.7689
449.784
449.7827
449.7664
449.7357
449.6904
449.6301
449.5543
449.4622
449.3523
449.2224
449.0692
448.8889
448.6763
448.4254
448.1293
447.7798
447.3687
446.8871
446.3274
445.6845
444.96
444.1642
443.3116
442.3962
441.3728
440.1713
438.6835
436.6458
433.2087
423.9122
468.4113
448.0722
443.6463
442.3121
441.9803
442.0879
442.4193
442.8701
443.3824
443.9215
444.4652
444.9984
445.5126
446.0064
446.4789
446.9259
447.343
447.7272
448.0759
448.3883
448.6646
448.9059
449.1139
449.2905
449.4374
449.5568
449.6506
449.721
449.7701
449.7999
449.8121
449.8082
449.7895
449.7568
449.7098
449.6479
449.5707
449.4772
449.3661
449.2349
449.0805
448.8989
448.6848
448.4323
448.1342
447.7828
447.3697
446.8864
446.3252
445.6811
444.9553
444.158
443.3038
442.389
441.3685
440.1702
438.6861
436.6531
433.223
423.937
469.581
448.7787
444.1475
442.7061
442.3061
442.3646
442.6588
443.0811
443.5721
444.0955
444.6283
445.1547
445.6639
446.1506
446.6138
447.0511
447.4586
447.8329
448.1721
448.4752
448.7426
448.9757
449.176
449.3456
449.4863
449.6002
449.6891
449.7552
449.8004
449.8266
449.8357
449.829
449.8079
449.7732
449.7246
449.6613
449.5827
449.488
449.3756
449.2432
449.0876
448.9046
448.6891
448.4349
448.135
447.7817
447.3668
446.8819
446.3193
445.6742
444.9474
444.1492
443.2946
442.381
441.3632
440.1681
438.6878
436.6596
433.2363
423.9583
470.7042
449.4731
444.6483
443.1048
442.6407
442.6536
442.9131
443.3088
443.7793
444.2873
444.8086
445.327
445.8311
446.3126
446.767
447.193
447.5891
447.9519
448.2795
448.5713
448.8279
449.0508
449.2418
449.4029
449.5361
449.6432
449.7263
449.7872
449.828
449.8503
449.856
449.8464
449.8227
449.7858
449.7357
449.6712
449.5913
449.4954
449.3819
449.2483
449.0916
448.9073
448.6904
448.4345
448.1329
447.7778
447.3612
446.8747
446.311
445.665
444.9378
444.1392
443.2846
442.3724
441.3575
440.1655
438.689
436.6657
433.2498
423.9838
471.7888
450.1562
445.1488
443.5083
442.9838
442.9542
443.1816
443.5523
444.0031
444.4957
445.0049
445.5137
446.0099
446.4851
446.9332
447.3495
447.7325
448.0818
448.3963
448.6754
448.9197
449.1309
449.3111
449.4624
449.5868
449.6863
449.7627
449.8178
449.8536
449.8717
449.8738
449.8612
449.8349
449.7957
449.7439
449.6781
449.5971
449.5002
449.3856
449.2511
449.0933
448.9078
448.6896
448.4323
448.129
447.7722
447.3539
446.8661
446.3012
445.6545
444.927
444.1286
443.2746
442.3641
441.352
440.1632
438.6906
436.6725
433.2644
424.0149
472.828
450.834
445.6501
443.9166
443.3351
443.2658
443.4633
443.8105
444.2426
444.7199
445.2164
445.714
446.2003
446.6659
447.1045
447.5114
447.8841
448.2207
448.5207
448.7853
449.0162
449.2148
449.3832
449.5236
449.6382
449.7292
449.7983
449.8472
449.8777
449.8913
449.8896
449.8738
449.8448
449.8035
449.7498
449.6826
449.6006
449.5027
449.3873
449.2518
449.0931
448.9066
448.6871
448.4285
448.1238
447.7655
447.3457
446.8566
446.2907
445.6435
444.9159
444.1179
443.2649
442.3563
441.3469
440.1614
438.6926
436.6796
433.2796
424.0497
473.8267
451.5094
446.1529
444.3298
443.694
443.5875
443.7572
444.0824
444.4965
444.9587
445.442
445.9275
446.4021
446.8561
447.2827
447.6773
448.0371
448.3605
448.6475
448.8989
449.1161
449.3011
449.4566
449.5855
449.6899
449.7718
449.8332
449.8755
449.9005
449.9095
449.9039
449.8848
449.8531
449.8095
449.7539
449.6853
449.6022
449.5033
449.387
449.2508
449.0912
448.9038
448.6834
448.4236
448.1176
447.7579
447.3369
446.8467
446.28
445.6324
444.9049
444.1077
443.256
442.3496
441.3428
440.1604
438.6955
436.6877
433.2962
424.0873
474.7711
452.1814
446.6577
444.7478
444.0602
443.9185
444.0621
444.3667
444.7636
445.2108
445.6805
446.1531
446.6148
447.0555
447.4683
447.8486
448.1936
448.5022
448.7744
449.0114
449.2148
449.387
449.5303
449.6474
449.7409
449.8135
449.8669
449.9025
449.9219
449.9262
449.9167
449.8944
449.86
449.8141
449.7567
449.6866
449.6024
449.5026
449.3854
449.2484
449.088
448.8999
448.6785
448.4177
448.1107
447.75
447.3279
446.8368
446.2696
445.6217
444.8946
444.0984
443.2483
442.3439
441.3398
440.1604
438.6993
436.6966
433.3137
424.1268
475.6712
452.8485
447.1641
445.1703
444.4327
444.2578
444.3768
444.6618
445.0422
445.4745
445.9301
446.3889
446.8364
447.2624
447.6598
448.024
448.3527
448.6449
448.9011
449.1227
449.3116
449.4702
449.6012
449.7071
449.7905
449.8538
449.8991
449.928
449.9418
449.9416
449.9284
449.903
449.8661
449.8179
449.7584
449.6869
449.6016
449.5008
449.3828
449.245
449.0839
448.895
448.6728
448.4112
448.1032
447.7417
447.3188
446.8271
446.2595
445.6117
444.8851
444.0901
443.2418
442.3397
441.338
440.1616
438.7041
436.7067
433.333
424.1699
476.5332
453.5142
447.6677
445.5938
444.8103
444.604
444.6998
444.9662
445.3304
445.7478
446.1888
446.6326
447.0647
447.4744
447.8548
448.2016
448.5125
448.7871
449.0263
449.2317
449.4055
449.5503
449.6688
449.7636
449.8371
449.8917
449.9294
449.9518
449.9603
449.9557
449.9389
449.9106
449.8712
449.8209
449.7597
449.6867
449.6002
449.4985
449.3796
449.2411
449.0792
448.8895
448.6666
448.4042
448.0955
447.7332
447.3098
446.8177
446.2499
445.6023
444.8766
444.0829
443.2366
442.3367
441.3374
440.1637
438.7099
436.7176
433.3536
424.2177
477.3663
454.176
448.1699
446.0176
445.1915
444.9558
445.0297
445.2781
445.6263
446.0284
446.4539
446.8818
447.2969
447.689
448.0509
448.3788
448.6708
448.9269
449.1483
449.337
449.4955
449.6264
449.7325
449.8164
449.8804
449.9268
449.9574
449.9738
449.9772
449.9686
449.9484
449.9174
449.8758
449.8236
449.7606
449.6862
449.5986
449.4959
449.3762
449.2369
449.0743
448.8839
448.6603
448.3971
448.0878
447.7249
447.301
446.8086
446.2409
445.5937
444.8689
444.0768
443.2327
442.335
441.338
440.167
438.7166
436.7296
433.3757
424.2724
478.1076
454.8266
448.6719
446.4419
445.5755
445.3119
445.3646
445.5954
445.9276
446.3138
446.723
447.1335
447.5304
447.9032
448.2454
448.5532
448.8254
449.0624
449.2656
449.4375
449.5807
449.698
449.792
449.8654
449.9204
449.959
449.983
449.9938
449.9926
449.9802
449.9571
449.9235
449.8798
449.8258
449.7614
449.6856
449.5968
449.4932
449.3728
449.2328
449.0695
448.8785
448.6541
448.3903
448.0803
447.7169
447.2926
446.8001
446.2325
445.5859
444.8622
444.0719
443.2299
442.3344
441.3397
440.1713
438.7242
436.7421
433.3983
424.3337
478.7962
455.4639
449.1748
446.8666
445.9611
445.6708
445.7031
445.9164
446.2322
446.6018
446.9934
447.3853
447.7624
448.1146
448.4359
448.7228
448.9747
449.1922
449.3773
449.5325
449.6608
449.7648
449.8472
449.9106
449.957
449.9884
450.0063
450.012
450.0067
449.9908
449.9649
449.9291
449.8834
449.8279
449.762
449.685
449.5951
449.4907
449.3696
449.229
449.0651
448.8734
448.6485
448.384
448.0734
447.7096
447.285
446.7924
446.2251
445.5791
444.8566
444.068
443.2283
442.3351
441.3424
440.1764
438.7324
436.7549
433.4211
424.3999
479.453
456.089
449.6758
447.2915
446.3466
446.031
446.0433
446.2391
446.5378
446.8898
447.2627
447.6345
447.9905
448.321
448.6203
448.8858
449.1171
449.3152
449.4824
449.6215
449.7353
449.8266
449.8982
449.9521
449.9906
450.0152
450.0275
450.0286
450.0194
450.0005
449.972
449.9342
449.8868
449.8297
449.7626
449.6844
449.5936
449.4885
449.3668
449.2256
449.0613
448.8691
448.6435
448.3786
448.0675
447.7033
447.2785
446.7859
446.2188
445.5735
444.8522
444.0654
443.2279
442.3367
441.3459
440.1822
438.7409
436.7675
433.443
424.4667
480.0825
456.7012
450.1733
447.7159
446.7319
446.3915
446.3838
446.5617
446.8425
447.1757
447.5285
447.8789
448.2125
448.5203
448.7972
449.041
449.2516
449.4307
449.5806
449.7042
449.8043
449.8837
449.945
449.9902
450.0212
450.0397
450.0469
450.0437
450.031
450.0092
449.9785
449.9388
449.8899
449.8315
449.7632
449.6839
449.5923
449.4865
449.3643
449.2227
449.058
448.8654
448.6395
448.3742
448.0628
447.6982
447.2732
446.7806
446.214
445.5694
444.8492
444.0641
443.2286
442.3393
441.3502
440.1885
438.7497
436.7799
433.4633
424.5297
480.7164
457.3023
450.6668
448.1365
447.1165
446.7512
446.7232
446.8823
447.1442
447.4574
447.7886
448.1164
448.4267
448.7111
448.9652
449.1872
449.3777
449.5384
449.6718
449.7806
449.8679
449.9362
449.9879
450.025
450.0493
450.0621
450.0646
450.0576
450.0417
450.0173
449.9845
449.9431
449.8929
449.8333
449.7639
449.6837
449.5913
449.485
449.3623
449.2204
449.0554
448.8626
448.6364
448.3707
448.059
447.6942
447.2693
446.7769
446.2106
445.5667
444.8476
444.064
443.2303
442.3428
441.3553
440.1955
438.7588
436.792
433.4816
424.5837
481.3173
457.8887
451.1537
448.5539
447.4991
447.1095
447.0603
447.1996
447.4413
447.733
448.0415
448.3456
448.6318
448.8924
449.1236
449.3243
449.4952
449.6383
449.756
449.8511
449.9264
449.9844
450.0273
450.0571
450.0751
450.0827
450.0809
450.0703
450.0516
450.0248
449.9901
449.9472
449.8957
449.835
449.7647
449.6837
449.5906
449.4838
449.3608
449.2187
449.0534
448.8604
448.634
448.3682
448.0563
447.6916
447.2667
446.7745
446.2086
445.5654
444.8474
444.0652
443.2333
442.3474
441.3614
440.2032
438.7684
436.804
433.498
424.6265
481.8837
458.4602
451.6342
448.9661
447.8775
447.4646
447.3939
447.5121
447.7321
448.001
448.2855
448.5649
448.8265
449.0632
449.272
449.4519
449.6041
449.7305
449.8335
449.9159
449.9802
450.0287
450.0636
450.0865
450.0988
450.1017
450.096
450.0822
450.0608
450.0318
449.9953
449.951
449.8984
449.8368
449.7656
449.6839
449.5903
449.483
449.3598
449.2174
449.0521
448.8589
448.6324
448.3666
448.0547
447.6901
447.2654
446.7736
446.2082
445.5657
444.8486
444.0679
443.2377
442.3534
441.3686
440.2118
438.7786
436.8162
433.5133
424.6577
482.4138
459.0118
452.104
449.372
448.2511
447.8152
447.723
447.8193
448.0162
448.2607
448.5201
448.7741
449.0109
449.2239
449.4106
449.5705
449.7048
449.8155
449.9049
449.9755
450.0297
450.0695
450.097
450.1137
450.1208
450.1193
450.1099
450.0932
450.0694
450.0385
450.0004
449.9547
449.901
449.8386
449.7667
449.6844
449.5903
449.4827
449.3592
449.2167
449.0513
448.8581
448.6317
448.3658
448.0541
447.6896
447.2653
446.774
446.2093
445.5677
444.8517
444.0722
443.2435
442.3605
441.3769
440.2213
438.7897
436.8289
433.5282
424.68
482.9204
459.5473
452.5663
449.772
448.6189
448.1597
448.0451
448.1183
448.2909
448.5101
448.7437
448.9721
449.1841
449.3739
449.5394
449.6802
449.7977
449.8938
449.9706
450.0304
450.0753
450.1072
450.1279
450.1389
450.1411
450.1357
450.123
450.1036
450.0775
450.0448
450.0052
449.9583
449.9036
449.8404
449.7679
449.6851
449.5906
449.4827
449.3591
449.2166
449.0512
448.8581
448.6317
448.366
448.0544
447.6903
447.2664
446.7757
446.2117
445.5709
444.8559
444.0777
443.2506
442.3688
441.3862
440.2319
438.8016
436.8424
433.5434
424.6968
483.405
460.0669
453.0188
450.1645
448.9795
448.4968
448.3589
448.408
448.5554
448.7486
448.9559
449.1587
449.3465
449.5139
449.659
449.7819
449.8836
449.9661
450.0312
450.0811
450.1174
450.1421
450.1567
450.1624
450.1602
450.151
450.1353
450.1134
450.0853
450.0509
450.0099
449.9619
449.9063
449.8423
449.7693
449.686
449.5912
449.4831
449.3594
449.217
449.0517
448.8587
448.6324
448.3669
448.0557
447.6919
447.2686
446.7785
446.2153
445.5754
444.8614
444.0844
443.2586
442.3781
441.3966
440.2435
438.8146
436.8569
433.5595
424.7127
483.8728
460.5694
453.4603
450.5483
449.3315
448.8251
448.6633
448.6875
448.8089
448.9756
449.1567
449.3343
449.4984
449.6443
449.7702
449.8761
449.9632
450.033
450.0873
450.128
450.1566
450.1746
450.1835
450.1843
450.1781
450.1655
450.147
450.1227
450.0927
450.0567
450.0145
449.9654
449.909
449.8443
449.7707
449.6871
449.5921
449.4839
449.3602
449.2179
449.0527
448.8599
448.6339
448.3687
448.0578
447.6946
447.2718
446.7825
446.22
445.581
444.868
444.0922
443.2677
442.3883
441.4078
440.2559
438.8284
436.8724
433.5768
424.7297
484.3225
461.0547
453.8905
450.924
449.6735
449.1429
448.957
448.9556
449.0506
449.1906
449.3458
449.4988
449.6404
449.7658
449.8735
449.9636
450.037
450.0951
450.1394
450.1716
450.193
450.2049
450.2086
450.205
450.195
450.1792
450.158
450.1315
450.0997
450.0623
450.0189
449.9689
449.9116
449.8464
449.7723
449.6884
449.5932
449.485
449.3614
449.2192
449.0543
448.8617
448.6361
448.3712
448.0608
447.6981
447.2761
446.7875
446.2259
445.5878
444.8757
444.101
443.2777
442.3994
441.4199
440.2691
438.843
436.8887
433.5953
424.7499
484.7533
461.5228
454.3091
451.2905
450.0049
449.4494
449.2391
449.2118
449.2802
449.3939
449.5237
449.653
449.7729
449.879
449.9697
450.045
450.1057
450.1529
450.188
450.2122
450.2269
450.2332
450.2321
450.2244
450.2109
450.1921
450.1685
450.1399
450.1064
450.0676
450.0231
449.9723
449.9143
449.8485
449.774
449.6898
449.5946
449.4865
449.363
449.221
449.0564
448.8642
448.6389
448.3745
448.0646
447.7026
447.2813
446.7935
446.2328
445.5955
444.8844
444.1107
443.2885
442.4112
441.4325
440.2828
438.858
436.9055
433.6144
424.7721
485.1651
461.9741
454.7157
451.647
450.3251
449.744
449.509
449.4557
449.4977
449.5855
449.6908
449.7975
449.8969
449.9848
450.0596
450.1211
450.1699
450.2069
450.2334
450.2503
450.2587
450.2597
450.2541
450.2426
450.2259
450.2044
450.1784
450.148
450.1129
450.0728
450.0272
449.9755
449.917
449.8507
449.7758
449.6915
449.5962
449.4882
449.365
449.2232
449.0589
448.8671
448.6423
448.3784
448.0692
447.7079
447.2874
446.8005
446.2406
445.6042
444.894
444.1212
443.3
442.4236
441.4458
440.2971
438.8736
436.9228
433.6341
424.796
485.5598
462.4088
455.1102
451.9928
450.6336
450.0265
449.7667
449.6875
449.7035
449.7662
449.8479
449.933
450.0131
450.084
450.1439
450.1924
450.2301
450.2576
450.2759
450.2859
450.2886
450.2846
450.2748
450.2598
450.2401
450.2161
450.1879
450.1556
450.119
450.0777
450.0312
449.9788
449.9196
449.8529
449.7778
449.6933
449.598
449.4902
449.3672
449.2259
449.0619
448.8706
448.6462
448.3829
448.0744
447.7139
447.2942
446.8082
446.2493
445.6138
444.9044
444.1324
443.3121
442.4366
441.4596
440.3119
438.8897
436.9405
433.6544
424.8208
485.9398
462.8275
455.4924
452.3275
450.9302
450.2967
450.0123
449.9076
449.8982
449.9367
449.9959
450.0606
450.1224
450.1772
450.2231
450.2596
450.2868
450.3054
450.316
450.3195
450.3165
450.3079
450.2942
450.2759
450.2534
450.2271
450.1969
450.163
450.125
450.0825
450.0351
449.9819
449.9222
449.8552
449.7799
449.6953
449.6001
449.4924
449.3698
449.2288
449.0653
448.8744
448.6507
448.388
448.0802
447.7205
447.3018
446.8168
446.2587
445.6241
444.9154
444.1443
443.3248
442.4501
441.4738
440.3271
438.9061
436.9586
433.6748
424.8456
486.3067
463.2308
455.8621
452.651
451.215
450.5549
450.2462
450.1164
450.0825
450.0977
450.1355
450.1808
450.2255
450.2652
450.2979
450.323
450.3403
450.3504
450.3537
450.351
450.3428
450.3298
450.3124
450.291
450.266
450.2374
450.2055
450.1699
450.1306
450.0871
450.0388
449.985
449.9249
449.8575
449.782
449.6974
449.6024
449.495
449.3727
449.2321
449.0691
448.8787
448.6556
448.3936
448.0866
447.7278
447.3101
446.826
446.2689
445.635
444.9271
444.1567
443.338
442.4639
441.4884
440.3426
438.9228
436.977
433.6955
424.8702
486.6615
463.6193
456.2195
452.9631
451.4882
450.8015
450.4687
450.3146
450.2571
450.2501
450.2676
450.2946
450.3231
450.3485
450.3688
450.383
450.391
450.393
450.3894
450.3807
450.3675
450.3502
450.3293
450.3051
450.2777
450.2471
450.2135
450.1766
450.136
450.0915
450.0424
449.988
449.9275
449.8599
449.7843
449.6997
449.6049
449.4977
449.3758
449.2357
449.0732
448.8834
448.6609
448.3997
448.0935
447.7357
447.3189
446.8358
446.2796
445.6466
444.9394
444.1695
443.3515
442.4781
441.5033
440.3584
438.9398
436.9956
433.7165
424.8947
487.0045
463.9937
456.5648
453.2641
451.75
451.0368
450.6806
450.503
450.4228
450.3947
450.3928
450.4025
450.4157
450.4276
450.4361
450.44
450.4391
450.4333
450.423
450.4086
450.3906
450.3694
450.3452
450.3182
450.2886
450.2562
450.221
450.1828
450.1412
450.0958
450.046
449.991
449.9301
449.8624
449.7867
449.7022
449.6075
449.5007
449.3792
449.2395
449.0775
448.8884
448.6666
448.4062
448.1009
447.744
447.3282
446.8461
446.2909
445.6586
444.9521
444.1828
443.3654
442.4926
441.5185
440.3744
438.957
437.0144
433.7378
424.9197
487.3365
464.3545
456.8981
453.5547
452.0022
451.261
450.882
450.6821
450.5803
450.5321
450.5119
450.5053
450.5038
450.503
450.5002
450.4942
450.4847
450.4715
450.4548
450.4349
450.4123
450.3872
450.3598
450.3304
450.2987
450.2647
450.2281
450.1887
450.1461
450.0999
450.0494
449.994
449.9328
449.8649
449.7892
449.7048
449.6103
449.5039
449.3828
449.2436
449.0822
448.8937
448.6726
448.4131
448.1087
447.7528
447.3381
446.857
446.3026
445.6711
444.9652
444.1964
443.3795
442.5073
441.5338
440.3907
438.9745
437.0335
433.7594
424.9453
487.6574
464.7022
457.2201
453.8357
452.2454
451.4752
451.0735
450.8526
450.7304
450.6631
450.6255
450.6033
450.5879
450.5748
450.5612
450.5458
450.528
450.5076
450.4847
450.4596
450.4325
450.4037
450.3735
450.3416
450.308
450.2725
450.2346
450.1942
450.1507
450.1038
450.0528
449.9969
449.9355
449.8674
449.7918
449.7075
449.6133
449.5072
449.3866
449.2479
449.0871
448.8993
448.679
448.4203
448.1169
447.762
447.3484
446.8683
446.3148
445.6841
444.9787
444.2104
443.3939
442.5223
441.5494
440.4071
438.9921
437.0528
433.7814
424.9718
487.967
465.0375
457.5313
454.1077
452.4798
451.6801
451.2563
451.0153
450.8736
450.7882
450.7341
450.697
450.6684
450.6435
450.6195
450.5949
450.5691
450.5417
450.5128
450.4826
450.4513
450.419
450.386
450.352
450.3167
450.2797
450.2407
450.1993
450.1551
450.1075
450.056
449.9998
449.9382
449.87
449.7944
449.7104
449.6165
449.5107
449.3905
449.2525
449.0923
448.9052
448.6856
448.4279
448.1255
447.7716
447.359
446.88
446.3274
445.6973
444.9924
444.2246
443.4086
442.5375
441.5652
440.4238
439.0099
437.0724
433.8035
424.9987
488.2646
465.3607
457.8322
454.3713
452.7062
451.8766
451.4311
451.1709
451.0107
450.908
450.8381
450.7867
450.7454
450.7091
450.6751
450.6417
450.6081
450.5739
450.5392
450.504
450.4686
450.4331
450.3975
450.3615
450.3246
450.2864
450.2464
450.2041
450.1592
450.1111
450.0592
450.0027
449.9409
449.8727
449.7972
449.7133
449.6197
449.5144
449.3947
449.2572
449.0976
448.9112
448.6926
448.4357
448.1344
447.7816
447.3701
446.892
446.3403
445.7109
445.0065
444.239
443.4234
442.5528
441.5812
440.4406
439.0279
437.0922
433.8257
425.026
488.5499
465.6723
458.1236
454.627
452.9251
452.0657
451.5988
451.3201
451.1422
451.0229
450.9379
450.8728
450.8192
450.772
450.7282
450.6862
450.645
450.6042
450.5638
450.5238
450.4846
450.4462
450.4082
450.3704
450.332
450.2925
450.2515
450.2086
450.1631
450.1145
450.0623
450.0056
449.9436
449.8755
449.8001
449.7164
449.6231
449.5182
449.399
449.2621
449.1032
448.9176
448.6998
448.4439
448.1436
447.7919
447.3814
446.9043
446.3535
445.7247
445.0207
444.2536
443.4384
442.5683
441.5972
440.4575
439.0461
437.1121
433.8482
425.0531
488.8227
465.9727
458.4059
454.8753
453.1374
452.2485
451.7601
451.4635
451.2687
451.1335
451.0339
450.9556
450.89
450.8321
450.7789
450.7284
450.6797
450.6324
450.5864
450.5421
450.4994
450.4582
450.4181
450.3785
450.3387
450.2981
450.2562
450.2126
450.1666
450.1178
450.0653
450.0084
449.9464
449.8783
449.803
449.7196
449.6267
449.5222
449.4035
449.2672
449.109
448.9242
448.7072
448.4523
448.1531
447.8025
447.3931
446.917
446.3669
445.7387
445.0352
444.2683
443.4535
442.5838
441.6134
440.4746
439.0645
437.1321
433.8706
425.0797
489.0832
466.2624
458.6797
455.117
453.3443
452.4264
451.9156
451.6013
451.3904
451.24
451.1263
451.0352
450.958
450.8898
450.8272
450.7683
450.7121
450.6584
450.6074
450.5589
450.513
450.4693
450.4272
450.3859
450.3448
450.3032
450.2605
450.2163
450.17
450.1208
450.0682
450.0113
449.9493
449.8812
449.8061
449.723
449.6304
449.5263
449.4081
449.2724
449.1149
448.9309
448.7149
448.461
448.1628
447.8133
447.405
446.9299
446.3806
445.753
445.0497
444.2832
443.4687
442.5994
441.6297
440.4918
439.0829
437.1521
433.893
425.1055
489.3319
466.5419
458.9454
455.3527
453.5463
452.5998
452.0663
451.7344
451.5079
451.3428
451.2154
451.1119
451.0235
450.9449
450.8729
450.8055
450.7422
450.6826
450.6267
450.5745
450.5256
450.4795
450.4355
450.3928
450.3504
450.3078
450.2644
450.2197
450.173
450.1237
450.071