/*--------------------------------*- C++ -*----------------------------------*\
| =========                 |                                                 |
| \\      /  F ield         | OpenFOAM: The Open Source CFD Toolbox           |
|  \\    /   O peration     | Version:  2312                                  |
|   \\  /    A nd           | Website:  www.openfoam.com                      |
|    \\/     M anipulation  |                                                 |
\*---------------------------------------------------------------------------*/
FoamFile
{
    version     2.0;
    format      ascii;
    arch        "LSB;label=32;scalar=64";
    class       volScalarField;
    location    "500";
    object      alphat;
}
// * * * * * * * * * * * * * * * * * * * * * * * * * * * * * * * * * * * * * //

dimensions      [1 -1 -1 0 0 0 0];

internalField   nonuniform List<scalar> 
12000
(
2.304071e-05
0.0001473697
0.0001427804
0.000134087
0.0001354015
0.0001601781
0.0002157365
0.0002367749
0.000206234
0.0001662216
0.0001379121
0.0001353703
0.0001601438
0.0001974746
0.000206052
0.0001785706
0.0001515045
0.0001403383
0.0001474181
0.0001714738
0.0001919556
0.0001732705
0.0001429277
0.0001351633
0.0001549727
0.0001795395
0.0001637113
0.0001400989
0.0001401832
0.0001550781
0.0001562509
0.0001459987
0.0001415102
0.0001394041
0.0001400648
0.0001502768
0.000160549
0.0001463083
0.0001224233
0.0001205296
0.0001527654
0.0001794367
0.000135006
0.0001097833
0.0001207461
0.0001552942
0.0001530801
0.0001184945
0.0001109686
0.0001239915
0.0001345784
0.0001219043
0.0001060464
0.0001000017
0.0001038221
9.465721e-05
8.01678e-05
6.693924e-05
6.106278e-05
4.850852e-05
1.355901e-05
0.0001615605
0.0001988974
0.0002242088
0.0002590742
0.0002859568
0.0003084045
0.0003361045
0.0003718483
0.0004301768
0.0005045689
0.0005824601
0.0006377662
0.0006733543
0.0007139427
0.00077742
0.0008629519
0.0009552922
0.001026595
0.00106543
0.001096072
0.00115764
0.001259108
0.001359809
0.001406144
0.001420088
0.00147445
0.001575407
0.00165732
0.001686362
0.001714684
0.001769991
0.001818627
0.001842363
0.001858352
0.001854539
0.001842216
0.001851578
0.00186195
0.001850787
0.001783876
0.001712817
0.00140857
0.001640979
0.001565391
0.001453547
0.001330101
0.001161703
0.00117685
0.001056832
0.0009376476
0.0008241152
0.0007098361
0.0005910213
0.0004812277
0.0003673545
0.0002450885
0.0001442708
8.197758e-05
4.679154e-05
2.052768e-05
0.0002009154
0.00026562
0.0003261607
0.000402944
0.0004885031
0.0005725327
0.0006602994
0.0007629824
0.0008892603
0.001025536
0.001162496
0.001289675
0.001411051
0.001530755
0.001652813
0.001775915
0.001893227
0.00199839
0.002091805
0.002048097
0.002086713
0.002301757
0.002419928
0.002258872
0.002102245
0.002182882
0.002437373
0.002577528
0.002580576
0.002690927
0.002873116
0.002898789
0.002922493
0.002941984
0.002954924
0.002964015
0.002969939
0.002970788
0.002964504
0.002950541
0.002927307
0.002892815
0.002842819
0.002762901
0.002471074
0.002250281
0.002132821
0.001997532
0.001893187
0.001833824
0.001586481
0.001452074
0.001195225
0.0009881979
0.0009405782
0.0006372407
0.0003476643
0.0001268571
4.55688e-05
2.362132e-05
0.0002188683
0.0003338148
0.0004307219
0.0005489534
0.0006847972
0.0008285699
0.0009790677
0.001139462
0.001309356
0.001483815
0.001660472
0.00183293
0.001998909
0.002158479
0.002310022
0.002452256
0.002582974
0.0027009
0.00262234
0.002502047
0.002488026
0.002555704
0.002598825
0.002573945
0.002566292
0.002643722
0.002768198
0.002881152
0.003013094
0.003244628
0.003543534
0.003559897
0.003572606
0.003584152
0.003591793
0.003596763
0.003596403
0.003590902
0.003579402
0.003559863
0.003529634
0.003486956
0.003429869
0.00335501
0.00326499
0.003066961
0.002783682
0.002619581
0.002496752
0.002036632
0.001708217
0.001622036
0.001474408
0.001447395
0.001195096
0.0008583332
0.0005079203
0.0001983391
4.608936e-05
2.425071e-05
0.0002300717
0.0003887618
0.0005109976
0.0006569783
0.0008200237
0.0009956936
0.001179083
0.0013675
0.001560688
0.001755385
0.00194836
0.002137284
0.002320097
0.00249577
0.002662502
0.002818743
0.002962818
0.003060073
0.002926507
0.002782497
0.002709908
0.002678013
0.002654675
0.002630508
0.002633348
0.002699807
0.002838597
0.003034405
0.003290418
0.003637984
0.003983651
0.003993095
0.003995572
0.003998493
0.003999599
0.003999743
0.003998203
0.003994584
0.003987275
0.003974783
0.003955439
0.003927442
0.003889154
0.003838696
0.003771255
0.003685197
0.003580044
0.003448368
0.002774518
0.002471339
0.00246122
0.002331487
0.002109288
0.001838528
0.001521541
0.001091869
0.0006460643
0.0002508965
4.645566e-05
2.49237e-05
0.000248546
0.0004438927
0.0005850808
0.000748453
0.0009271655
0.001121886
0.001322494
0.001525074
0.001726804
0.00192552
0.002118871
0.002305229
0.002483522
0.002653092
0.002813336
0.002963721
0.003103499
0.003231587
0.003346703
0.00320392
0.003019806
0.002915246
0.002860179
0.002817729
0.002790992
0.002801122
0.002854498
0.002963581
0.003141222
0.003437306
0.003923647
0.004289713
0.004286446
0.004276657
0.004263433
0.004248955
0.004234426
0.004219505
0.004202886
0.004182884
0.004157685
0.004125428
0.004084243
0.004030804
0.003967098
0.003889779
0.00379158
0.003668475
0.003503727
0.003313971
0.003080977
0.002811303
0.002500268
0.002141883
0.00173162
0.001271998
0.0007783901
0.0003128908
4.659065e-05
2.593691e-05
0.0002611144
0.0004842201
0.0006432881
0.0008187408
0.001008148
0.001203419
0.001402967
0.001601459
0.001795804
0.001984451
0.002166426
0.002341253
0.002509041
0.002670261
0.002825616
0.002975369
0.003120783
0.003261919
0.003399871
0.003529887
0.003650407
0.003762402
0.003678345
0.00353289
0.00342229
0.003377352
0.003385061
0.003445788
0.003591152
0.003738766
0.003908449
0.004312344
0.004529797
0.004522453
0.004507164
0.004487875
0.004466482
0.004443582
0.004419022
0.004392104
0.004361724
0.004326352
0.004281995
0.004230331
0.004165671
0.004084926
0.003984882
0.003862096
0.003715534
0.003542983
0.003325504
0.003054849
0.00273237
0.002352586
0.001913016
0.001415249
0.0008750029
0.0003574103
4.651171e-05
2.695244e-05
0.0002675199
0.0005141975
0.0006900396
0.0008756046
0.001068721
0.001267948
0.001469356
0.001668197
0.001860936
0.002045366
0.002220586
0.002387103
0.002546218
0.002699654
0.002848667
0.002993958
0.003136397
0.003275748
0.003411858
0.003543268
0.003668888
0.003788044
0.003825015
0.003747655
0.003736509
0.00381095
0.003985223
0.004256379
0.004537716
0.004611729
0.004668089
0.004705044
0.004723441
0.004726021
0.004715534
0.004695147
0.004667325
0.004634065
0.004596791
0.004556512
0.004513783
0.004467324
0.004418593
0.004364921
0.004303595
0.004230663
0.004140407
0.004026638
0.003882748
0.003702303
0.003482399
0.003220575
0.002900269
0.002516973
0.002067491
0.001550282
0.0009759785
0.0004076774
4.637262e-05
2.829094e-05
0.0002718361
0.0005333448
0.0007304825
0.0009208533
0.001119966
0.001324275
0.001527536
0.001682897
0.001804352
0.001956406
0.002177542
0.002434053
0.002582205
0.002723404
0.002858985
0.002989547
0.002882016
0.002862969
0.002872288
0.002865054
0.00293266
0.0029931
0.003010182
0.003002871
0.003004882
0.003074631
0.003243936
0.003489283
0.003858657
0.004289919
0.004765865
0.004854491
0.004884769
0.004896188
0.004890167
0.004868707
0.00483453
0.004791011
0.004741296
0.004687684
0.004631039
0.004574491
0.004517163
0.004459136
0.004395982
0.004324729
0.004239334
0.004135365
0.0040041
0.003837192
0.003625278
0.003358821
0.003034926
0.00264616
0.002180562
0.001642503
0.001042177
0.0004417366
4.590068e-05
2.950291e-05
0.0002604321
0.0005311281
0.0007650675
0.0009661702
0.001170758
0.001315986
0.001409152
0.00149324
0.001565252
0.001675857
0.001815798
0.001949656
0.002079057
0.002202017
0.002315985
0.00227762
0.00217776
0.002099025
0.002068047
0.002082183
0.002155574
0.002247509
0.002347147
0.002439971
0.002527518
0.002627057
0.002789803
0.002947744
0.003018925
0.003191456
0.00342861
0.00371245
0.003976441
0.004193405
0.004337607
0.004381904
0.00442016
0.004617609
0.00482269
0.004761724
0.004698617
0.004635525
0.004573744
0.004512527
0.004450304
0.004383414
0.00430628
0.004211606
0.004090512
0.003933851
0.003731097
0.003471992
0.003146787
0.002748231
0.002277702
0.001727409
0.001106175
0.0004752057
4.53602e-05
3.076155e-05
0.000246551
0.0005252181
0.0007990555
0.001009876
0.001163997
0.001232609
0.001320353
0.001379615
0.001421496
0.001461022
0.001483531
0.001563215
0.001768164
0.001977627
0.002000418
0.001917797
0.00184431
0.001777338
0.00175962
0.001778515
0.001807139
0.001857044
0.001935215
0.002032251
0.002166934
0.002365462
0.002546958
0.002715429
0.002749576
0.002630534
0.002649662
0.002756114
0.002946608
0.003142057
0.003305211
0.003490463
0.003705536
0.00397895
0.004337024
0.004657073
0.004688487
0.004629776
0.004571755
0.004515806
0.004460773
0.004403338
0.00433782
0.004256287
0.004148573
0.004003296
0.00380845
0.003552063
0.003224796
0.002819846
0.002333639
0.001770558
0.001134598
0.0004897549
4.462877e-05
3.180752e-05
0.0002440425
0.0005353368
0.0008207983
0.001023082
0.001143768
0.001203744
0.001225947
0.001238851
0.001223981
0.001175009
0.001184357
0.001461908
0.001747741
0.001784696
0.001784468
0.001769033
0.001743198
0.00171452
0.001706987
0.001743283
0.001799891
0.001883446
0.001963914
0.00205043
0.002170517
0.002332299
0.002554718
0.002773055
0.00305588
0.002944036
0.002525461
0.00235418
0.002371144
0.002524471
0.00270242
0.002851495
0.003021856
0.003430289
0.003921572
0.004241341
0.004605552
0.004563099
0.004519424
0.004477502
0.004437619
0.004396961
0.004349624
0.004286626
0.004196358
0.00406534
0.003881417
0.003628365
0.003297959
0.00288401
0.002386129
0.001801376
0.00116098
0.0005100195
4.363115e-05
3.288205e-05
0.0002399218
0.0005255797
0.0008328723
0.001019334
0.001047506
0.001047045
0.00106615
0.001041365
0.000959772
0.0009385717
0.001197537
0.001554892
0.001657485
0.001841586
0.001880974
0.001902211
0.001933816
0.001951428
0.002025531
0.002012862
0.002005089
0.002041991
0.002141642
0.002246677
0.002315647
0.002431822
0.002792731
0.003379041
0.003588278
0.003784322
0.00351543
0.002688622
0.002315025
0.002238112
0.002336789
0.002471564
0.002600021
0.002851716
0.003513456
0.0041824
0.004430151
0.004461262
0.00444
0.004419204
0.00439996
0.004379741
0.004352268
0.004307203
0.004231065
0.00410816
0.003924573
0.003663531
0.00331953
0.002885455
0.002369159
0.001788156
0.001148992
0.0004988378
4.259253e-05
3.385481e-05
0.0002411261
0.0005165228
0.0007825873
0.0008637775
0.0008794608
0.0009123726
0.0009077308
0.0008238243
0.000774098
0.0009987062
0.001436931
0.001637208
0.001646607
0.001650364
0.00166189
0.001688296
0.001730039
0.001786667
0.001850559
0.00191235
0.001987495
0.002072228
0.002176595
0.002300494
0.002249531
0.002344744
0.002732589
0.003106584
0.003323751
0.003533514
0.003728034
0.003775079
0.002806378
0.002375229
0.002266481
0.002273627
0.002316511
0.002478575
0.003144594
0.004029977
0.004344316
0.004350815
0.004353684
0.004357157
0.004361656
0.004362626
0.004354908
0.004326361
0.004262255
0.00414457
0.003955358
0.003678084
0.003309208
0.002859596
0.002336337
0.001751571
0.001123212
0.0004924116
4.160052e-05
3.481888e-05
0.0002418422
0.000482268
0.0006602617
0.0007336507
0.0007763009
0.0007946227
0.0007305657
0.0006691029
0.000858866
0.001319685
0.001494091
0.001523629
0.001565624
0.001636335
0.001726608
0.001825252
0.001923022
0.002010877
0.002081004
0.002134251
0.002172121
0.002223856
0.002276012
0.002343495
0.002238175
0.002225553
0.002732611
0.002896668
0.003086693
0.003291932
0.003498065
0.003697082
0.002994514
0.002492206
0.002314058
0.002260675
0.002203421
0.002260841
0.002896815
0.003895396
0.004224468
0.004250434
0.004276251
0.004305032
0.004336112
0.004365115
0.004378256
0.004360169
0.004292231
0.004157696
0.003948807
0.003650302
0.003259486
0.002784059
0.002244659
0.001664502
0.001061901
0.0004672271
4.048592e-05
3.539245e-05
0.0002365764
0.0004397164
0.0005858573
0.0006596025
0.0006941
0.0006724228
0.0006277647
0.000779097
0.001169981
0.001421409
0.001498859
0.001613479
0.001767831
0.001950054
0.002140657
0.002313727
0.002450868
0.002545112
0.002593786
0.002603986
0.002596201
0.002579506
0.00257177
0.002586935
0.002436881
0.002443953
0.002799836
0.002915329
0.003055948
0.003219487
0.003395861
0.00349975
0.002655069
0.002241298
0.002127146
0.00213904
0.002134194
0.002195796
0.002836654
0.003893864
0.004140895
0.004187187
0.004234164
0.004282984
0.004330203
0.004368281
0.004385785
0.004367477
0.004295081
0.004149365
0.003919152
0.003542384
0.003095927
0.002631941
0.002109008
0.00155449
0.0009960659
0.0004460951
3.991746e-05
3.595896e-05
0.0002318077
0.0004080395
0.0005399462
0.0006044592
0.0006267037
0.0006453703
0.0007178114
0.0009726646
0.001384144
0.001525414
0.001725237
0.00197662
0.002252182
0.002512598
0.002728429
0.002887101
0.002987706
0.003032092
0.003036086
0.003010528
0.002961803
0.002905549
0.002857955
0.002830359
0.002678306
0.002423157
0.002610937
0.003008689
0.0031289
0.002980087
0.002781085
0.002489375
0.002211152
0.002120303
0.002114591
0.002107223
0.002084073
0.002192155
0.002895423
0.003938444
0.004088099
0.004152859
0.004219934
0.00428735
0.004349054
0.00439535
0.004412524
0.004284169
0.004047397
0.003768706
0.003453865
0.003096109
0.002697066
0.002286467
0.001885804
0.001425108
0.0009224025
0.0004191997
3.915664e-05
3.598014e-05
0.0002250591
0.0003897364
0.0005110562
0.0005764864
0.0006305496
0.0007179458
0.0008953102
0.001287177
0.001558615
0.001813759
0.002119703
0.002439613
0.002733465
0.002975212
0.003152328
0.003267696
0.003328481
0.003347424
0.003333822
0.003295561
0.003242374
0.003184272
0.003131728
0.00309356
0.003074891
0.002617239
0.002435134
0.002449854
0.002470323
0.002372701
0.002277852
0.002154391
0.002053544
0.002049414
0.002081984
0.00215112
0.002248296
0.002453678
0.003157668
0.003998748
0.004085145
0.004176848
0.004256325
0.004330823
0.00427889
0.004157104
0.004006938
0.003834435
0.003627859
0.003378141
0.003084034
0.002746662
0.002374412
0.001998611
0.001655543
0.001318656
0.0008675349
0.0004014173
3.906086e-05
3.641611e-05
0.0002263761
0.0003758115
0.000492037
0.0005857462
0.0006961756
0.0008621545
0.001140323
0.001560732
0.001832192
0.002154352
0.002492132
0.002806995
0.003072037
0.003275022
0.003416361
0.003499615
0.003539945
0.003546398
0.003528732
0.003495716
0.003454849
0.0034132
0.003377099
0.003351588
0.003339869
0.003058792
0.002721555
0.002534788
0.002442687
0.002373945
0.002311328
0.002245273
0.002226883
0.002272407
0.002359306
0.002499762
0.002678557
0.002918794
0.003522624
0.004078481
0.00406729
0.004143088
0.004175207
0.004149904
0.004075462
0.003950411
0.003779655
0.003576364
0.003347469
0.003090234
0.002797732
0.002468611
0.002118872
0.00178651
0.001503118
0.001231603
0.0008198221
0.0003828421
3.860759e-05
3.623189e-05
0.0002247433
0.000369629
0.0005021938
0.0006365846
0.0007991279
0.001039823
0.001423914
0.001776534
0.002099199
0.00244437
0.002776116
0.00306483
0.00329427
0.003461302
0.003570108
0.003635946
0.003667569
0.003675719
0.003667881
0.003650721
0.003630343
0.003611679
0.00359819
0.003592001
0.003594436
0.003555354
0.003306144
0.003089443
0.002944778
0.002856571
0.002778981
0.002736106
0.002763256
0.002845811
0.002993552
0.003180609
0.003347045
0.003490214
0.00388833
0.004210475
0.00423843
0.004241237
0.004227518
0.004166901
0.004045321
0.003872513
0.003662377
0.003423398
0.003159734
0.002871675
0.002557962
0.002225879
0.001901197
0.001619213
0.001391974
0.001165638
0.0007860157
0.0003710319
3.882064e-05
3.665293e-05
0.0002273015
0.000380008
0.0005371108
0.0007043517
0.0009136995
0.001228015
0.001670114
0.001979756
0.002319589
0.002659941
0.002969081
0.003227093
0.003425792
0.003562336
0.003655498
0.003709906
0.003736233
0.003743125
0.003738893
0.003730439
0.003723138
0.00371966
0.003721721
0.003729858
0.003743698
0.003762614
0.003785973
0.003812829
0.003787618
0.003681661
0.00360618
0.003599103
0.003649319
0.003741022
0.003847746
0.003945572
0.004016611
0.00409079
0.004263486
0.004322954
0.004382834
0.004435628
0.004397671
0.004276702
0.004093202
0.003860817
0.003591373
0.003296184
0.002984052
0.00266055
0.00233073
0.00201084
0.001730239
0.001509265
0.001332604
0.001123441
0.0007609133
0.0003601195
3.86155e-05
3.711956e-05
0.0002336317
0.0004003715
0.0005799301
0.0007765332
0.001027297
0.001403944
0.001823987
0.002148461
0.002485767
0.002809234
0.003092848
0.003323991
0.003499609
0.00362036
0.003704223
0.003756052
0.003785703
0.003801555
0.003810409
0.003815933
0.003820573
0.003827379
0.003838461
0.003854849
0.003876567
0.003902962
0.003932946
0.003965296
0.003998649
0.004030928
0.004059859
0.004082929
0.004109857
0.004138674
0.004167946
0.004203129
0.004242476
0.004287315
0.004335603
0.004383173
0.004424282
0.004451108
0.004454577
0.004356349
0.004128741
0.003839001
0.003512048
0.003161529
0.002801856
0.002449026
0.002118418
0.001831623
0.001608038
0.001443728
0.001300717
0.001093566
0.0007433504
0.0003534637
3.889081e-05
3.847848e-05
0.0002478168
0.0004321162
0.0006245678
0.0008321554
0.001120769
0.001559514
0.00194867
0.002274336
0.002599853
0.002902088
0.00316377
0.003374401
0.003534416
0.003645267
0.003724514
0.003775913
0.003808005
0.003827818
0.003840671
0.00385025
0.003859107
0.003869208
0.003882107
0.003898815
0.003919558
0.003943909
0.003970944
0.003999497
0.004028482
0.004056703
0.004083589
0.004109736
0.004136599
0.004165974
0.004198663
0.004234036
0.004272461
0.004311988
0.004348938
0.004378191
0.004393512
0.004387079
0.004350314
0.004274472
0.00413695
0.003824445
0.003440959
0.003027404
0.002618577
0.002247605
0.001938017
0.001702816
0.001538297
0.001418982
0.00129548
0.001076576
0.000733301
0.0003486799
3.906609e-05
3.988498e-05
0.0002656767
0.0004625316
0.0006615849
0.0008819574
0.001205741
0.001657215
0.002037276
0.002356384
0.002667179
0.002950795
0.003194527
0.003390371
0.003539676
0.003646834
0.003722824
0.003774926
0.003809354
0.003832203
0.003848117
0.003860391
0.003871251
0.003882201
0.003894338
0.003908549
0.003925401
0.003945055
0.003967373
0.003991755
0.004017217
0.00404305
0.00406912
0.004095548
0.004122977
0.004151482
0.004181555
0.00421308
0.004244885
0.004273564
0.004293685
0.004299485
0.004284808
0.004242769
0.004167204
0.004051642
0.003893528
0.003693459
0.003358318
0.002892561
0.002442486
0.002077928
0.001809725
0.001625656
0.00150802
0.001418691
0.001300457
0.001066359
0.00072482
0.0003444988
3.915726e-05
4.175047e-05
0.0002871647
0.0004899388
0.0006930714
0.0009298448
0.001250868
0.001707178
0.002098915
0.002406689
0.002701357
0.002967823
0.003195555
0.003381378
0.003523762
0.003629255
0.003702698
0.003755985
0.003792429
0.003817465
0.003835268
0.003848837
0.003860183
0.003870594
0.003880873
0.003891619
0.003903375
0.003916413
0.003930562
0.003945832
0.003962502
0.00398106
0.004001588
0.004023736
0.004047293
0.004072592
0.004099674
0.00412764
0.004153065
0.004169341
0.004170437
0.004151497
0.00410748
0.004035197
0.003928072
0.003785794
0.003609589
0.003404133
0.003176198
0.002771106
0.002309191
0.001950204
0.001723958
0.001597396
0.001515874
0.001437885
0.001315474
0.001064057
0.0007236291
0.0003441531
3.934494e-05
4.342544e-05
0.0003081327
0.0005179824
0.000720242
0.0009546535
0.001278553
0.001736289
0.002137205
0.00243168
0.002710331
0.002961221
0.003176138
0.003351727
0.003490151
0.003593216
0.003668259
0.003720608
0.003758306
0.003784389
0.003802617
0.003815716
0.003825509
0.00383309
0.003838992
0.003843388
0.003846477
0.003848961
0.003851765
0.003855779
0.003862605
0.003872827
0.003887238
0.003905213
0.003926422
0.003950573
0.00397673
0.004001446
0.004017175
0.004017378
0.003998205
0.003956852
0.003889321
0.003793888
0.003669731
0.003518651
0.003344646
0.003153962
0.002954741
0.002621168
0.002178653
0.001872937
0.001699247
0.001602238
0.001536285
0.001461701
0.001329887
0.001062983
0.0007216693
0.0003423815
3.957846e-05
4.53952e-05
0.0003290168
0.0005432767
0.0007441322
0.0009729564
0.001285848
0.001731224
0.002158027
0.002438479
0.002701653
0.002938192
0.003141644
0.003309349
0.003442207
0.003543586
0.003618783
0.00367239
0.00370911
0.003735312
0.003752792
0.003764087
0.003770864
0.003774088
0.003774147
0.003771002
0.003764682
0.003756481
0.003748843
0.003743851
0.003743163
0.003747894
0.003758444
0.003774269
0.003794762
0.003818801
0.003842459
0.003857588
0.003857867
0.00384043
0.003802968
0.003743634
0.003661391
0.003556323
0.00343015
0.003286299
0.003129582
0.002965433
0.002798811
0.00248877
0.002097992
0.001840507
0.001702264
0.001622004
0.001556605
0.001476791
0.001341226
0.001068139
0.0007250623
0.0003435399
3.980991e-05
4.707915e-05
0.0003499057
0.0005646772
0.0007602752
0.0009789853
0.001272949
0.0016941
0.002166262
0.002433254
0.002682014
0.002905315
0.003098119
0.003258297
0.003386534
0.003485665
0.003559793
0.003613421
0.003651169
0.00367637
0.003692344
0.003701778
0.003705737
0.003705213
0.00370063
0.003692007
0.003679266
0.003663667
0.003648617
0.003637157
0.003631684
0.003633183
0.003642069
0.003657652
0.003678251
0.003698657
0.003710858
0.003709981
0.003693856
0.003661036
0.00361043
0.00354159
0.003454984
0.003352173
0.003235837
0.003109497
0.002976962
0.002841542
0.002705235
0.002413587
0.002061262
0.001834241
0.001713729
0.001645139
0.001587403
0.001507369
0.001361777
0.001073162
0.0007273267
0.0003434443
4.008718e-05
4.870939e-05
0.0003680535
0.0005833623
0.0007743178
0.0009817997
0.001250436
0.001639428
0.002151063
0.002423045
0.002658479
0.002869523
0.003052304
0.00320519
0.003328764
0.003425374
0.003498469
0.003551948
0.003589642
0.003614951
0.003630728
0.003639151
0.003641587
0.003639738
0.003633601
0.003623528
0.003609539
0.003592147
0.003573856
0.003558846
0.003550639
0.003550948
0.003559888
0.003574107
0.003587087
0.003593014
0.003588568
0.003572229
0.003542951
0.003500048
0.00344335
0.003373342
0.003291243
0.00319897
0.003098915
0.002993542
0.002884856
0.002773863
0.002660978
0.002375819
0.002050656
0.001849339
0.001743553
0.001678704
0.001616681
0.001528718
0.001374551
0.001084036
0.0007356819
0.0003478502
4.032528e-05
4.992046e-05
0.0003829221
0.0005995574
0.0007865457
0.0009835117
0.001229016
0.001579309
0.002054876
0.002414481
0.002637463
0.002837026
0.003010285
0.003156083
0.003275001
0.003369043
0.003441144
0.003494672
0.003533005
0.003559232
0.00357599
0.0035854
0.003589093
0.00358826
0.003583708
0.003576004
0.003565627
0.003553192
0.003539512
0.003526851
0.003518131
0.003515568
0.003517155
0.003518018
0.003514323
0.003503782
0.003485105
0.003457365
0.00342001
0.00337291
0.003316401
0.003251307
0.003178878
0.003100622
0.003018027
0.002932181
0.002843438
0.00275154
0.002653701
0.002354652
0.002051098
0.001867075
0.001768881
0.001705539
0.001642519
0.001551229
0.001386713
0.001092798
0.0007408095
0.0003496174
4.0561e-05
5.119212e-05
0.0003976339
0.0006135678
0.0007958671
0.0009822874
0.001203003
0.001504742
0.001930918
0.002409767
0.00262225
0.002811803
0.002976566
0.003115947
0.003230657
0.003322507
0.003394063
0.003448271
0.003488117
0.003516385
0.003535506
0.003547493
0.003553941
0.003556068
0.003554781
0.00355076
0.003544552
0.003536617
0.003527479
0.003517922
0.00350837
0.003499353
0.003489485
0.003476804
0.003460011
0.003438065
0.003410234
0.003376089
0.00333551
0.003288696
0.003236149
0.003178619
0.003116982
0.003052068
0.002984554
0.002914063
0.002839305
0.002758373
0.002669295
0.002358772
0.002066521
0.001891124
0.001795369
0.001730587
0.00166458
0.001569706
0.001401316
0.001105128
0.0007500959
0.000354373
4.084221e-05
5.203572e-05
0.0004106963
0.0006255585
0.0008041786
0.000981195
0.001178753
0.00143635
0.001807136
0.002292678
0.002611141
0.00279341
0.00295183
0.003086522
0.003198483
0.003289471
0.003361798
0.003418059
0.00346088
0.003492725
0.003515765
0.00353182
0.003542341
0.003548439
0.003550923
0.003550365
0.003547152
0.003541282
0.003533719
0.003523908
0.003511898
0.003497512
0.003480322
0.003459799
0.003435495
0.003407091
0.003374426
0.003337511
0.003296528
0.003251818
0.003203839
0.003153164
0.003100643
0.003047024
0.0029914
0.002931415
0.002864707
0.002789568
0.002703886
0.002379572
0.002090304
0.001917023
0.001820355
0.001753441
0.001685512
0.001588667
0.001416037
0.001116782
0.0007580642
0.0003581716
4.103777e-05
5.276082e-05
0.000418517
0.0006361798
0.0008144942
0.0009853091
0.001165141
0.001386349
0.00170051
0.002141023
0.002591763
0.002773167
0.00293054
0.003064718
0.003177453
0.003270717
0.00334673
0.003407822
0.00345628
0.003494228
0.003523528
0.003545737
0.003562091
0.003573518
0.003580671
0.003583974
0.003583672
0.00357966
0.003572556
0.003561977
0.003547854
0.003530139
0.003508786
0.003483778
0.003455166
0.003423075
0.00338771
0.003349344
0.003308303
0.003264919
0.003219578
0.003173148
0.003126798
0.003080354
0.003031489
0.002976629
0.002912801
0.002838433
0.002751685
0.002412514
0.002118929
0.001942237
0.001842202
0.001772924
0.001703934
0.001606358
0.001431237
0.001129422
0.0007673962
0.000362996
4.130549e-05
5.345518e-05
0.0004280358
0.0006472313
0.0008240088
0.0009889642
0.001153084
0.001341377
0.001604075
0.001996099
0.002493647
0.002742929
0.002904146
0.003044287
0.003163835
0.003264872
0.003349673
0.003420323
0.003478766
0.003526751
0.00356579
0.003597143
0.003621818
0.003640585
0.003653978
0.003662303
0.00366573
0.003664432
0.003658496
0.003647886
0.003632688
0.003613041
0.003589146
0.003561267
0.003529732
0.003494918
0.003457232
0.003417085
0.003374851
0.003330951
0.003285765
0.003240197
0.003195104
0.003149638
0.003100929
0.003045105
0.002979029
0.002901097
0.002809599
0.002457868
0.002153204
0.001967898
0.001862404
0.001790872
0.001721839
0.001624262
0.001446477
0.001142052
0.0007767115
0.0003678738
4.147843e-05
5.40173e-05
0.0004369418
0.0006582035
0.0008334679
0.0009930091
0.001143345
0.001303637
0.001520499
0.001854334
0.002316894
0.002691358
0.002867104
0.003021067
0.003154778
0.003271472
0.003372336
0.003459088
0.003533302
0.003596298
0.003649195
0.003692903
0.003728089
0.003755681
0.003776564
0.003790983
0.003798843
0.003800944
0.003797032
0.003787287
0.003771937
0.003751269
0.003725644
0.003695497
0.003661327
0.003623676
0.003583105
0.003540152
0.003495285
0.003448727
0.003400691
0.003351538
0.003301706
0.003250546
0.003195556
0.003133114
0.003060091
0.002974671
0.002875136
0.002507866
0.002187595
0.001991619
0.001881256
0.001808618
0.001740313
0.001642875
0.001461027
0.001154189
0.0007858107
0.0003729846
4.169287e-05
5.448673e-05
0.0004396687
0.0006690424
0.0008450743
0.0009999653
0.001138455
0.00127557
0.00145386
0.001736118
0.002161823
0.002625027
0.002815068
0.002992324
0.003151572
0.003291766
0.00341518
0.003523923
0.003618825
0.003700835
0.003770925
0.003830049
0.003879136
0.003918669
0.003948862
0.00397053
0.003983661
0.003989371
0.003987731
0.003979123
0.003963894
0.003942468
0.003915323
0.003882975
0.003845958
0.003804835
0.003760172
0.003712503
0.003662293
0.003609876
0.003555385
0.003498708
0.003439589
0.003377487
0.003310854
0.003236902
0.003152728
0.003056286
0.002945812
0.002565116
0.002225937
0.002015616
0.001895695
0.00182222
0.00175793
0.001661923
0.001474962
0.001166025
0.000794792
0.0003776466
4.183695e-05
5.478022e-05
0.0004398115
0.0006802517
0.0008582467
0.001008945
0.001137531
0.001256134
0.001402939
0.001642535
0.00203683
0.002552081
0.002785025
0.002989053
0.003178325
0.00334947
0.003502966
0.003638741
0.003757659
0.003860545
0.003948296
0.004021883
0.004082302
0.004130474
0.004167444
0.0041939
0.004210535
0.004218354
0.004217833
0.004209534
0.004194009
0.004171724
0.004143106
0.004108579
0.00406858
0.004023553
0.003973953
0.003920232
0.003862799
0.003801961
0.00373785
0.003670274
0.003598878
0.003522876
0.003441161
0.003352017
0.00325323
0.003142785
0.003018962
0.002621379
0.00225902
0.002036884
0.001918727
0.00184595
0.001776026
0.001677943
0.001487307
0.001176515
0.0008027398
0.0003820673
4.198863e-05
5.499176e-05
0.000440061
0.0006919199
0.0008713281
0.001017594
0.00113768
0.001242694
0.001367739
0.001577511
0.001942897
0.002460386
0.002792976
0.003027951
0.003249331
0.003451574
0.003633607
0.003794868
0.003935442
0.004056002
0.004157673
0.004241864
0.004310447
0.004364415
0.004405439
0.004434209
0.004453003
0.004462163
0.004462503
0.004454686
0.004439249
0.004416621
0.004387144
0.004351104
0.004308751
0.004260325
0.004206069
0.004146235
0.00408107
0.004010785
0.003935519
0.003855323
0.003769749
0.003678026
0.003579579
0.003473212
0.003357508
0.003231004
0.003092444
0.002696256
0.002302154
0.002058824
0.001931971
0.001861623
0.001803539
0.001705248
0.001498507
0.001186122
0.0008100362
0.0003860357
4.210432e-05
5.512959e-05
0.0004391191
0.0007024604
0.000882371
0.001024131
0.001137455
0.001233415
0.001345375
0.001537796
0.00188597
0.002404765
0.002855238
0.003122654
0.003374038
0.003603976
0.003809973
0.003990813
0.004146529
0.004278171
0.004387471
0.004476806
0.004548038
0.004603421
0.004644907
0.004673982
0.004692575
0.004701511
0.004701687
0.004693779
0.004678273
0.00465549
0.004625618
0.004588742
0.004544873
0.004493984
0.004436034
0.004370995
0.004298859
0.004219638
0.004133339
0.004039917
0.003939328
0.003831532
0.003715648
0.003590932
0.003456526
0.003311544
0.003155237
0.002784435
0.002355318
0.00208636
0.001946816
0.001871746
0.001811577
0.001717997
0.001507232
0.001193683
0.0008155693
0.0003887649
4.221216e-05
5.508918e-05
0.0004364168
0.0007103941
0.0008903987
0.001028598
0.001137311
0.001229027
0.001337079
0.001524199
0.001863605
0.002387087
0.002974792
0.00327056
0.00354628
0.003796598
0.004018222
0.004209959
0.004372391
0.004507365
0.004617671
0.004705963
0.004775249
0.004828231
0.00486682
0.004894015
0.004910741
0.004918222
0.00491736
0.004908781
0.004892874
0.004869832
0.004839679
0.004802302
0.004757484
0.004704932
0.004644313
0.004575285
0.004497525
0.004410754
0.004314752
0.004209353
0.004094441
0.003969917
0.003835832
0.003692329
0.003539578
0.003377728
0.00320681
0.002863323
0.00239994
0.002107013
0.001959102
0.001883901
0.001825587
0.001729881
0.001515871
0.001201254
0.0008205557
0.0003907672
4.231992e-05
5.490643e-05
0.0004357414
0.0007171667
0.0008975131
0.001033226
0.001139412
0.001231513