/*--------------------------------*- C++ -*----------------------------------*\
| =========                 |                                                 |
| \\      /  F ield         | OpenFOAM: The Open Source CFD Toolbox           |
|  \\    /   O peration     | Version:  2312                                  |
|   \\  /    A nd           | Website:  www.openfoam.com                      |
|    \\/     M anipulation  |                                                 |
\*---------------------------------------------------------------------------*/
FoamFile
{
    version     2.0;
    format      ascii;
    arch        "LSB;label=32;scalar=64";
    class       volScalarField;
    location    "500";
    object      ILambda_12_0;
}
// * * * * * * * * * * * * * * * * * * * * * * * * * * * * * * * * * * * * * //

dimensions      [1 0 -3 0 0 0 0];

internalField   nonuniform List<scalar> 
12000
(
821.4256
802.7887
804.974
804.2446
804.4823
804.5519
804.6593
804.746
804.8185
804.8697
804.895
804.8904
804.8533
804.7825
804.6774
804.5367
804.358
804.1384
803.8745
803.5632
803.2018
802.7873
802.3164
801.7848
801.1883
800.5238
799.7887
798.9799
798.0936
797.1259
796.073
794.9295
793.688
792.3399
790.8776
789.2995
787.6156
785.8326
783.9363
781.8975
779.7101
777.4144
775.0464
772.5755
769.9352
767.1203
764.1816
761.1377
757.9584
754.6243
751.1803
747.6855
744.1679
740.6393
737.1269
733.6987
730.4701
727.6122
725.3613
724.0552
799.537
803.5168
803.1093
802.8635
802.4854
802.0392
801.5367
800.9705
800.3405
799.6442
798.88
798.0463
797.1412
796.1624
795.1074
793.974
792.7603
791.4648
790.0865
788.6246
787.0783
785.4475
783.7323
781.9336
780.0531
778.0924
776.0534
773.9388
771.7521
769.4974
767.1795
764.8047
762.381
759.918
757.4266
754.917
752.396
749.8701
747.3534
744.8686
742.4354
740.0575
737.7343
735.4861
733.3529
731.3632
729.5237
727.8459
726.3596
725.0969
724.0705
723.2815
722.7371
722.4496
722.4257
722.6549
723.1007
723.6943
724.3255
724.8248
793.1002
792.0553
790.7657
789.4904
788.1019
786.6527
785.1297
783.5381
781.8786
780.1534
778.3646
776.5149
774.607
772.6443
770.6307
768.5704
766.4684
764.33
762.161
759.9677
757.7569
755.5357
753.3118
751.0933
748.8885
746.7062
744.5553
742.4451
740.3853
738.3855
736.4553
734.6046
732.8428
731.1789
729.6213
728.1777
726.8554
725.6616
724.603
723.6848
722.9096
722.279
721.7952
721.4604
721.2731
721.2275
721.3153
721.5283
721.8564
722.2851
722.7969
723.3737
723.9972
724.6479
725.3046
725.946
726.5537
727.1159
727.6315
728.1148
770.8424
767.699
766.0062
763.9582
761.9609
759.931
757.8928
755.8483
753.8043
751.7669
749.7427
747.7384
745.7606
743.8164
741.9128
740.0567
738.255
736.5147
734.8424
733.2447
731.7277
730.2976
728.9597
727.7194
726.5813
725.5495
724.6277
723.8187
723.1248
722.5473
722.0872
721.744
721.517
721.4043
721.4034
721.5109
721.7229
722.0344
722.4399
722.9329
723.507
724.155
724.8697
725.6431
726.467
727.3341
728.2376
729.1713
730.1296
731.1086
732.1058
733.1205
734.1537
735.2084
736.2894
737.4041
738.5614
739.7711
741.0424
742.3803
743.8169
740.8976
739.4707
737.7516
736.1741
734.6398
733.1784
731.7891
730.478
729.249
728.1065
727.0542
726.0955
725.2333
724.4703
723.8085
723.2495
722.7943
722.4436
722.1974
722.0552
722.0161
722.0785
722.2404
722.4994
722.8527
723.2968
723.8282
724.4428
725.1364
725.9046
726.7429
727.6464
728.6107
729.631
730.7029
731.8223
732.9849
734.1872
735.426
736.6985
738.0023
739.3358
740.6978
742.0877
743.5055
744.9519
746.4278
747.9345
749.4735
751.0465
752.6548
754.2996
755.9814
757.7
759.4542
761.2417
763.059
764.9017
766.7649
726.1388
724.8996
724.4345
723.8953
723.4955
723.1816
722.9674
722.8495
722.8283
722.9029
723.0722
723.3348
723.689
724.1324
724.6628
725.2775
725.9734
726.7474
727.5961
728.516
729.5035
730.5547
731.6659
732.8333
734.0531
735.3217
736.6355
737.991
739.385
740.8143
742.2761
743.7677
745.2867
746.8308
748.398
749.9865
751.5947
753.2211
754.8644
756.5234
758.1966
759.883
761.5812
763.2898
765.0071
766.7311
768.4597
770.1902
771.9197
773.6447
775.3613
777.0654
778.7523
780.417
782.0543
783.6591
785.2261
786.7507
788.2293
789.6614
724.9786
725.7598
726.3458
727.0696
727.8606
728.7279
729.6661
730.6726
731.7438
732.8767
734.0677
735.3134
736.6104
737.9553
739.3444
740.7746
742.2422
743.7442
745.277
746.8377
748.4232
750.0303
751.6564
753.2985
754.954
756.6204
758.2951
759.9757
761.6599
763.3454
765.0298
766.711
768.3867
770.0546
771.7123
773.3573
774.9872
776.5993
778.1909
779.7591
781.3009
782.8132
784.2927
785.7363
787.1404
788.5017
789.8168
791.0824
792.2953
793.4525
794.551
795.5884
796.5624
797.4713
798.3135
799.0882
799.795
800.4342
801.0074
801.5195
738.7141
740.9126
742.1745
743.7018
745.2114
746.7629
748.3383
749.9374
751.5561
753.1914
754.8402
756.4993
758.1658
759.8369
761.5097
763.1814
764.8495
766.5112
768.164
769.8053
771.4327
773.0436
774.6355
776.2062
777.753
779.2737
780.7658
782.227
783.6548
785.0469
786.4011
787.7149
788.9861
790.2126
791.3922
792.5227
793.6023
794.6291
795.6013
796.5174
797.376
798.176
798.9164
799.5965
800.2161
800.775
801.2734
801.712
802.0915
802.4134
802.679
802.8903
803.0494
803.1588
803.2212
803.2395
803.2171
803.1574
803.0647
802.9447
760.4684
763.1151
764.5335
766.2377
767.864
769.4936
771.1037
772.6964
774.2679
775.8162
777.3389
778.8337
780.2986
781.7315
783.1303
784.4932
785.8184
787.104
788.3482
789.5496
790.7063
791.8171
792.8804
793.8948
794.8593
795.7727
796.634
797.4424
798.1972
798.8979
799.5441
800.1358
800.673
801.156
801.5852
801.9613
802.2854
802.5584
802.7818
802.9571
803.0862
803.1711
803.2138
803.2168
803.1827
803.1139
803.0134
802.884
802.7287
802.5503
802.352
802.1367
801.9075
801.6672
801.4186
801.1647
800.9082
800.6517
800.3983
800.151
781.9826
784.1642
785.2763
786.6012
787.8256
789.0217
790.1701
791.2737
792.3303
793.3393
794.2997
795.2108
796.0721
796.883
797.6434
798.3528
799.0114
799.6191
800.1762
800.683
801.14
801.5478
801.9072
802.219
802.4845
802.7047
802.8811
803.0151
803.1084
803.1628
803.1802
803.1626
803.1123
803.0313
802.9221
802.787
802.6286
802.4493
802.2516
802.0381
801.8112
801.5734
801.3271
801.0747
800.8185
800.5605
800.3028
800.0474
799.796
799.5504
799.3119
799.0821
798.862
798.6529
798.4556
798.2709
798.0997
797.9427
797.8008
797.6749
796.8337
798.0096
798.5689
799.224
799.7955
800.3268
800.8075
801.2408
801.6266
801.9662
802.2605
802.5106
802.718
802.8841
803.0103
803.0983
803.1499
803.1669
803.151
803.1044
803.0289
802.9267
802.7999
802.6507
802.4811
802.2935
802.0901
801.873
801.6444
801.4063
801.161
800.9104
800.6564
800.4011
800.146
799.893
799.6437
799.3995
799.1618
798.9319
798.7109
798.4999
798.2998
798.1113
797.9351
797.7718
797.6219
797.4857
797.3635
797.2555
797.1618
797.0825
797.0177
796.9673
796.9314
796.91
796.9031
796.911
796.9341
796.9732
802.8756
803.0629
803.1224
803.1786
803.1941
803.1802
803.1358
803.0632
802.9643
802.841
802.6954
802.5295
802.3455
802.1455
801.9316
801.7059
801.4705
801.2272
800.9779
800.7246
800.4689
800.2126
799.9574
799.7048
799.4565
799.2137
798.9779
798.7503
798.5321
798.3242
798.1275
797.9428
797.771
797.6125
797.4679
797.3377
797.2222
797.1216
797.0362
796.9661
796.9115
796.8725
796.8491
796.8413
796.8493
796.8729
796.9122
796.9673
797.0383
797.1252
797.2281
797.3472
797.4828
797.6351
797.8044
797.9912
798.1959
798.4194
798.6625
798.9264
802.318
801.9512
801.7623
801.5258
801.2904
801.0464
800.7978
800.5455
800.2914
800.0371
799.7842
799.5344
799.2893
799.0503
798.8189
798.5962
798.3834
798.1814
797.9912
797.8134
797.6489
797.4983
797.3622
797.2412
797.1357
797.0463
796.9734
796.9173
796.8783
796.8567
796.8525
796.8659
796.897
796.946
797.0129
797.0978
797.2007
797.3217
797.4609
797.6185
797.7944
797.9889
798.2022
798.4346
798.6862
798.9574
799.2485
799.5599
799.892
800.2451
800.6198
801.0166
801.4358
801.878
802.3439
802.8339
803.3486
803.8889
804.4555
805.0491
799.2883
798.8679
798.6882
798.4675
798.2703
798.0812
797.9046
797.7404
797.5895
797.4528
797.3311
797.2253
797.1362
797.0643
797.0102
796.9742
796.9566
796.9576
796.9774
797.0161
797.074
797.151
797.2475
797.3636
797.4994
797.6552
797.8312
798.0277
798.2447
798.4825
798.7412
799.021
799.3221
799.6447
799.9889
800.355
800.7431
801.1535
801.5864
802.042
802.5204
803.022
803.5469
804.0954
804.6677
805.2641
805.8845
806.5293
807.1986
807.8923
808.6106
809.3535
810.1209
810.9127
811.7288
812.5691
813.4334
814.3216
815.2338
816.1698
797.302
797.1625
797.1512
797.1363
797.1476
797.1767
797.2256
797.294
797.3824
797.4912
797.6208
797.7718
797.9445
798.1391
798.3557
798.5943
798.855
799.1378
799.4427
799.7698
800.1191
800.4907
800.8849
801.3017
801.7413
802.2039
802.6896
803.1988
803.7314
804.2876
804.8674
805.471
806.0982
806.7491
807.4235
808.1215
808.8428
809.5874
810.3548
811.1449
811.9573
812.7916
813.6475
814.5244
815.4219
816.3393
817.276
818.2313
819.2044
820.1944
821.2006
822.2219
823.2574
824.3059
825.3665
826.4379
827.5193
828.6095
829.7079
830.8145
798.4879
798.799
799.0343
799.3187
799.6218
799.9488
800.2982
800.6703
801.0654
801.4837
801.9258
802.3918
802.8818
803.3956
803.9331
804.4942
805.0786
805.6861
806.3167
806.97
807.6461
808.3446
809.0655
809.8085
810.5733
811.3598
812.1677
812.9965
813.8459
814.7153
815.6043
816.5122
817.4382
818.3817
819.3419
820.3178
821.3086
822.3132
823.3306
824.3598
825.3994
826.4484
827.5055
828.5695
829.6391
830.7129
831.7895
832.8675
833.9455
835.0222
836.0959
837.1653
838.229
839.2854
840.3333
841.3713
842.3981
843.4127
844.4147
845.4048
803.9669
804.7991
805.3113
805.9309
806.5558
807.2074
807.8802
808.5753
809.2924
810.0316
810.7928
811.5756
812.3794
813.2036
814.0475
814.9104
815.7916
816.6903
817.6059
818.5376
819.4846
820.4461
821.4212
822.4091
823.4089
824.4195
825.44
826.4692
827.5061
828.5495
829.5981
830.6507
831.7059
832.7624
833.8188
834.8738
835.9258
836.9734
838.0152
839.0498
840.0756
841.0914
842.0956
843.0869
844.064
845.0254
845.97
846.8965
847.8037
848.6904
849.5555
850.3981
851.2171
852.0117
852.7813
853.525
854.2426
854.9336
855.5986
856.2397
813.9266
815.2325
815.986
816.8951
817.79
818.7077
819.6385
820.5837
821.5425
822.5143
823.498
824.4925
825.4966
826.509
827.5284
828.5537
829.5834
830.6165
831.6516
832.6874
833.7227
834.7563
835.7868
836.8129
837.8334
838.847
839.8524
840.8482
841.8332
842.8062
843.7657
844.7106
845.6396
846.5515
847.445
848.319
849.1725
850.0043
850.8134
851.5989
852.3599
853.0957
853.8054
854.4885
855.1443
855.7723
856.3722
856.9434
857.4859
857.9993
858.4836
858.9388
859.3651
859.7626
860.1316
860.4726
860.7862
861.0732
861.335
861.5747
827.1675
828.7273
829.5921
830.6311
831.6339
832.647
833.658
834.6687
835.6773
836.6827
837.6835
838.6782
839.6653
840.6434
841.6112
842.5672
843.5103
844.4392
845.3526
846.2495
847.1288
847.9893
848.8302
849.6503
850.4489
851.225
851.9778
852.7067
853.4108
854.0895
854.7423
855.3686
855.968
856.5399
857.0842
857.6004
858.0885
858.5483
858.9798
859.383
859.7581
860.1052
860.4246
860.7167
860.9818
861.2206
861.4334
861.6209
861.7838
861.9229
862.0388
862.1327
862.2052
862.2576
862.2908
862.3061
862.3045
862.2876
862.2571
862.216
841.0561
842.5164
843.2993
844.2343
845.1177
845.9955
846.8555
847.6995
848.5258
849.3334
850.1212
850.8881
851.6331
852.3553
853.0539
853.7281
854.3773
855.001
855.5986
856.1698
856.7142
857.2316
857.7217
858.1846
858.62
859.0282
859.4091
859.763
860.0901
860.3906
860.6649
860.9134
861.1366
861.3349
861.509
861.6594
861.7869
861.8921
861.9758
862.0389
862.0823
862.1067
862.1131
862.1025
862.0759
862.0342
861.9785
861.9097
861.8291
861.7375
861.6361
861.526
861.4084
861.2842
861.1547
861.021
860.8842
860.7456
860.6067
860.4697
852.5009
853.5306
854.065
854.6969
855.2773
855.8408
856.3786
856.8923
857.381
857.8444
858.2822
858.6941
859.0799
859.4397
859.7736
860.0816
860.364
860.6212
860.8534
861.0613
861.2452
861.4057
861.5435
861.6593
861.7538
861.8277
861.8819
861.9171
861.9343
861.9344
861.9182
861.8867
861.8409
861.7816
861.7098
861.6266
861.5329
861.4296
861.3177
861.1982
861.0721
860.9402
860.8035
860.6629
860.5193
860.3735
860.2263
860.0786
859.9312
859.7848
859.6402
859.498
859.3591
859.224
859.0935
858.9682
858.8487
858.7356
858.6299
858.5331
859.4309
859.8849
860.1132
860.3756
860.6027
860.8115
860.9979
861.1633
861.3076
861.4311
861.5343
861.6177
861.6818
861.7273
861.7548
861.7652
861.7593
861.7378
861.7017
861.6517
861.5889
861.5142
861.4284
861.3325
861.2275
861.1143
860.9938
860.8669
860.7346
860.5977
860.4572
860.3137
860.1682
860.0214
859.874
859.7268
859.5806
859.4358
859.2931
859.1532
859.0166
858.8836
858.755
858.6309
858.5119
858.3983
858.2903
858.1884
858.0927
858.0034
857.9209
857.8452
857.7765
857.7151
857.661
857.6143
857.5751
857.5437
857.5203
857.5062
861.6948
861.6625
861.6489
861.6224
861.5842
861.5347
861.4742
861.4032
861.322
861.2313
861.1318
861.0242
860.9092
860.7876
860.6601
860.5276
860.3908
860.2506
860.1077
859.9628
859.8166
859.67
859.5235
859.3779
859.2337
859.0916
858.9522
858.8158
858.6832
858.5546
858.4305
858.3113
858.1973
858.0887
857.986
857.8892
857.7985
857.7141
857.6361
857.5645
857.4994
857.4407
857.3886
857.3428
857.3034
857.2702
857.2432
857.2221
857.2069
857.1973
857.1933
857.1948
857.2015
857.2133
857.2301
857.2517
857.2779
857.3087
857.3446
857.3865
860.7908
860.5057
860.3798
860.2214
860.0712
859.9196
859.7689
859.6186
859.4692
859.321
859.1744
859.0298
858.8877
858.7484
858.6125
858.4803
858.3523
858.2286
858.1098
857.996
857.8876
857.7847
857.6876
857.5964
857.5114
857.4325
857.3598
857.2935
857.2335
857.1798
857.1323
857.091
857.0557
857.0264
857.0029
856.9849
856.9724
856.9651
856.9628
856.9653
856.9722
856.9834
856.9985
857.0174
857.0398
857.0653
857.0937
857.1247
857.1582
857.1938
857.2315
857.2709
857.3119
857.3544
857.3982
857.4431
857.4891
857.5362
857.5848
857.6363
858.7704
858.463
858.3411
858.1901
858.0569
857.9293
857.8094
857.6963
857.5898
857.49
857.3966
857.3097
857.2293
857.1553
857.0877
857.0264
856.9714
856.9226
856.8799
856.8432
856.8123
856.7871
856.7673
856.7529
856.7436
856.7392
856.7394
856.7441
856.7529
856.7657
856.7821
856.8018
856.8247
856.8504
856.8787
856.9092
856.9417
856.9759
857.0115
857.0483
857.0861
857.1245
857.1634
857.2025
857.2416
857.2805
857.3191
857.3572
857.3946
857.4313
857.4672
857.5022
857.5363
857.5695
857.6017
857.6331
857.6635
857.6934
857.7234
857.7549
857.1536
856.9489
856.8866
856.8082
856.7476
856.6944
856.6499
856.6126
856.582
856.5578
856.5395
856.5267
856.5192
856.5166
856.5187
856.525
856.5354
856.5495
856.567
856.5876
856.6112
856.6372
856.6656
856.6959
856.728
856.7616
856.7963
856.832
856.8684
856.9052
856.9423
856.9793
857.0162
857.0527
857.0886
857.1238
857.1581
857.1913
857.2233
857.254
857.2834
857.3112
857.3375
857.3623
857.3853
857.4068
857.4266
857.4448
857.4614
857.4766
857.4904
857.5029
857.5143
857.5248
857.5345
857.5435
857.5522
857.5609
857.5706
857.5826
856.4696
856.3743
856.3669
856.3546
856.3549
856.3611
856.373
856.3893
856.4094
856.4327
856.4586
856.4869
856.517
856.5488
856.5818
856.6157
856.6503
856.6854
856.7206
856.7558
856.7906
856.8251
856.8589
856.8918
856.9238
856.9547
856.9844
857.0128
857.0397
857.0652
857.0891
857.1114
857.1321
857.1512
857.1686
857.1843
857.1985
857.2111
857.2222
857.2318
857.2401
857.2472
857.2531
857.2579
857.2619
857.2652
857.268
857.2704
857.2726
857.2749
857.2776
857.2808
857.2849
857.2902
857.297
857.3054
857.316
857.3293
857.3462
857.3682
856.4655
856.4208
856.4346
856.4475
856.4684
856.4926
856.5194
856.5477
856.5767
856.6061
856.6354
856.6644
856.6928
856.7205
856.7472
856.7729
856.7974
856.8205
856.8423
856.8627
856.8817
856.8992
856.9152
856.9298
856.943
856.9548
856.9653
856.9746
856.9828
856.9899
856.9961
857.0016
857.0064
857.0107
857.0147
857.0186
857.0225
857.0266
857.0312
857.0364
857.0424
857.0496
857.0582
857.0683
857.0803
857.0944
857.1109
857.1301
857.1523
857.1779
857.2071
857.2403
857.2778
857.32
857.3673
857.4199
857.4784
857.5433
857.6155
857.6964
856.6269
856.574
856.5801
856.5837
856.594
856.6062
856.6198
856.6337
856.6475
856.6609
856.6737
856.6857
856.697
856.7075
856.7173
856.7264
856.7347
856.7426
856.7499
856.757
856.7638
856.7705
856.7774
856.7845
856.7921
856.8004
856.8095
856.8197
856.8312
856.8443
856.8591
856.876
856.8951
856.9168
856.9412
856.9687
856.9996
857.034
857.0724
857.1149
857.1619
857.2136
857.2704
857.3325
857.4002
857.4739
857.5538
857.6403
857.7336
857.834
857.942
858.0578
858.1818
858.3142
858.4555
858.6058
858.7656
858.9355
859.1162
859.3088
856.6335
856.5551
856.5485
856.5376
856.535
856.5353
856.5381
856.5427
856.5486
856.5557
856.564
856.5735
856.5843
856.5966
856.6105
856.6262
856.6438
856.6637
856.6859
856.7108
856.7386
856.7694
856.8037
856.8415
856.8832
856.9291
856.9794
857.0344
857.0943
857.1595
857.2301
857.3066
857.3891
857.4779
857.5734
857.6757
857.7851
857.902
858.0264
858.1588
858.2994
858.4483
858.6059
858.7724
858.948
859.1329
859.3274
859.5316
859.7458
859.9702
860.205
860.4504
860.7065
860.9737
861.252
861.5416
861.8427
862.1557
862.4813
862.8203
856.5723
856.5026
856.5052
856.5066
856.5194
856.538
856.5623
856.5914
856.6251
856.6633
856.706
856.7533
856.8055
856.8627
856.9251
856.993
857.0665
857.1459
857.2314
857.3234
857.4219
857.5273
857.6398
857.7597
857.8871
858.0224
858.1656
858.3172
858.4772
858.646
858.8236
859.0103
859.2063
859.4118
859.6269
859.8518
860.0866
860.3315
860.5867
860.8521
861.128
861.4143
861.7113
862.019
862.3373
862.6664
863.0063
863.357
863.7185
864.0909
864.474
864.868
865.2727
865.6882
866.1143
866.551
866.9984
867.4565
867.9256
868.4067
856.917
856.9276
856.9791
857.0412
857.1166
857.2019
857.2966
857.4
857.5116
857.6313
857.7592
857.8954
858.0399
858.1929
858.3546
858.5251
858.7047
858.8933
859.0912
859.2986
859.5155
859.7421
859.9786
860.225
860.4814
860.748
861.0248
861.3119
861.6093
861.9171
862.2353
862.564
862.9031
863.2527
863.6126
863.9829
864.3635
864.7543
865.1553
865.5663
865.9872
866.4178
866.8581
867.3079
867.7669
868.235
868.712
869.1977
869.6917
870.194
870.7042
871.2221
871.7475
872.28
872.8195
873.3655
873.918
874.4767
875.042
875.6147
858.3453
858.5168
858.6591
858.8322
859.0179
859.2175
859.4291
859.6522
859.8863
860.131
860.3863
860.6521
860.9283
861.2149
861.5121
861.8196
862.1376
862.466
862.8047
863.1538
863.5132
863.8827
864.2624
864.6521
865.0517
865.4611
865.8802
866.3088
866.7467
867.1938
867.6498
868.1146
868.588
869.0696
869.5592
870.0566
870.5614
871.0735
871.5923
872.1177
872.6493
873.1867
873.7296
874.2776
874.8304
875.3875
875.9485
876.513
877.0807
877.6512
878.2239
878.7987
879.375
879.9525
880.5308
881.1094
881.6881
882.2667
882.8455
883.4254
861.4625
861.8501
862.1093
862.4241
862.7471
863.0861
863.4376
863.8012
864.176
864.5615
864.9574
865.3634
865.7793
866.2048
866.6397
867.0838
867.5368
867.9986
868.4688
868.9472
869.4335
869.9274
870.4286
870.9368
871.4517
871.9729
872.5001
873.033
873.5711
874.1141
874.6616
875.2132
875.7685
876.3271
876.8885
877.4523
878.0182
878.5855
879.154
879.7231
880.2925
880.8615
881.4299
881.9971
882.5628
883.1263
883.6874
884.2455
884.8003
885.3513
885.8982
886.4406
886.9781
887.5103
888.037
888.5577
889.0723
889.5807
890.0833
890.5814
866.5145
867.1189
867.4903
867.9402
868.3906
868.8564
869.332
869.8172
870.3108
870.8123
871.321
871.8363
872.3579
872.8853
873.4181
873.9559
874.4982
875.0447
875.5949
876.1483
876.7046
877.2633
877.8239
878.386
878.9492
879.5129
880.0768
880.6404
881.2032
881.7647
882.3246
882.8824
883.4375
883.9896
884.5382
885.0829
885.6232
886.1588
886.6891
887.2138
887.7325
888.2448
888.7503
889.2487
889.7395
890.2225
890.6974
891.1638
891.6214
892.0701
892.5095
892.9395
893.3599
893.7706
894.1713
894.562
894.9426
895.3135
895.675
896.0291
873.2016
873.957
874.4007
874.9365
875.4639
876.0029
876.5465
877.0947
877.6462
878.2001
878.7557
879.3124
879.8696
880.4269
880.9836
881.5393
882.0935
882.6458
883.1956
883.7425
884.286
884.8257
885.3611
885.8919
886.4175
886.9376
887.4518
887.9596
888.4607
888.9547
889.4412
889.9199
890.3905
890.8526
891.306
891.7502
892.1852
892.6105
893.026
893.4314
893.8265
894.2112
894.5852
894.9485
895.3008
895.6421
895.9722
896.2912
896.599
896.8955
897.1808
897.455
897.7181
897.9702
898.2114
898.4419
898.6619
898.8718
899.0725
899.2659
880.6918
881.4796
881.9301
882.4722
882.9984
883.5305
884.0612
884.5904
885.1169
885.6398
886.1585
886.6722
887.1806
887.683
888.1791
888.6685
889.1507
889.6253
890.0921
890.5507
891.0007
891.4418
891.8738
892.2964
892.7092
893.1122
893.505
893.8875
894.2595
894.6207
894.9712
895.3106
895.639
895.9562
896.2622
896.5569
896.8402
897.1122
897.3728
897.6221
897.8601
898.0868
898.3024
898.507
898.7006
898.8833
899.0554
899.217
899.3683
899.5096
899.641
899.7628
899.8754
899.979
900.0739
900.1604
900.2391
900.3105
900.3755
900.4362
887.8572
888.5437
888.931
889.395
889.8397
890.2848
890.7234
891.1557
891.5804
891.9971
892.405
892.8037
893.1928
893.5721
893.9413
894.3002
894.6487
894.9864
895.3134
895.6294
895.9344
896.2283
896.5111
896.7827
897.043
897.2922
897.5302
897.757
897.9728
898.1775
898.3713
898.5543
898.7266
898.8883
899.0397
899.1808
899.3118
899.433
899.5446
899.6467
899.7396
899.8236
899.8989
899.9658
900.0245
900.0754
900.1188
900.1549
900.1841
900.2068
900.2232
900.2339
900.2391
900.2393
900.2348
900.226
900.2135
900.1977
900.1798
900.1615
893.6457
894.1274
894.4006
894.7257
895.0336
895.338
895.6338
895.9211
896.1988
896.4667
896.7244
896.9716
897.2081
897.434
897.6492
897.8536
898.0475
898.2308
898.4035
898.5659
898.7181
898.8601
898.9922
899.1145
899.2272
899.3306
899.4247
899.5099
899.5864
899.6544
899.7143
899.7661
899.8103
899.8471
899.8768
899.8997
899.916
899.9261
899.9303
899.9289
899.9222
899.9105
899.8942
899.8734
899.8487
899.8203
899.7884
899.7535
899.7159
899.6759
899.6338
899.59
899.5449
899.4989
899.4521
899.4051
899.3581
899.3118
899.267
899.2252
897.4233
897.6586
897.8013
897.9686
898.1253
898.2775
898.4222
898.5591
898.6878
898.8079
898.9194
899.0221
899.1161
899.2015
899.2784
899.3471
899.4078
899.4607
899.506
899.544
899.5749
899.599
899.6166
899.628
899.6334
899.6332
899.6275
899.6168
899.6013
899.5814
899.5572
899.5292
899.4976
899.4626
899.4247
899.384
899.3409
899.2957
899.2485
899.1998
899.1497
899.0985
899.0465
898.9939
898.9411
898.8881
898.8353
898.7828
898.731
898.6801
898.6302
898.5818
898.5349
898.4899
898.4469
898.4062
898.368
898.3327
898.3012
898.2746
899.1354
899.1508
899.1817
899.2146
899.2456
899.2736
899.2976
899.3169
899.3314
899.3408
899.3451
899.3442
899.3383
899.3276
899.3123
899.2926
899.2689
899.2413
899.2101
899.1757
899.1382
899.098
899.0553
899.0103
898.9634
898.9148
898.8647
898.8135
898.7612
898.7082
898.6548
898.601
898.5472
898.4936
898.4402
898.3875
898.3354
898.2842
898.2341
898.1852
898.1377
898.0917
898.0473
898.0047
897.964
897.9253
897.8888
897.8545
897.8225
897.793
897.7661
897.7419
897.7205
897.7021
897.6867
897.6744
897.6653
897.6598
897.6585
897.6626
899.2338
899.1027
899.0631
899.0117
898.9666
898.9214
898.8762
898.8305
898.7839
898.7361
898.6872
898.637
898.5856
898.5333
898.4801
898.4263
898.372
898.3175
898.263
898.2086
898.1545
898.101
898.0481
897.996
897.9449
897.895
897.8464
897.7991
897.7534
897.7094
897.6671
897.6267
897.5883
897.5518
897.5175
897.4854
897.4555
897.4279
897.4026
897.3796
897.3591
897.341
897.3253
897.312
897.3013
897.293
897.2871
897.2838
897.2829
897.2846
897.2888
897.2957
897.3051
897.3172
897.332
897.3494
897.3696
897.3927
897.4194
897.4508
898.4291
898.2384
898.1737
898.0927
898.0235
897.9572
897.8944
897.8342
897.7762
897.7202
897.6659
897.6133
897.5622
897.5127
897.4649
897.4189
897.3748
897.3326
897.2924
897.2543
897.2184
897.1846
897.153
897.1238
897.0968
897.0722
897.05
897.0301
897.0127
896.9976
896.9849
896.9746
896.9666
896.961
896.9577
896.9567
896.9579
896.9613
896.9669
896.9746
896.9844
896.9962
897.01
897.0257
897.0433
897.0627
897.0839
897.1068
897.1315
897.1578
897.1859
897.2156
897.2471
897.2803
897.3151
897.3517
897.39
897.4303
897.4731
897.5197
897.405
897.2237
897.1681
897.0986
897.0429
896.9919
896.9464
896.9053
896.8679
896.8339
896.803
896.775
896.7496
896.7269
896.7067
896.6892
896.6742
896.6617
896.6517
896.6441
896.6389
896.6361
896.6356
896.6374
896.6414
896.6475
896.6557
896.666
896.6783
896.6924
896.7084
896.7262
896.7456
896.7668
896.7894
896.8136
896.8391
896.866
896.8942
896.9236
896.9541
896.9856
897.0182
897.0517
897.0861
897.1213
897.1573
897.1941
897.2316
897.2698
897.3088
897.3485
897.3891
897.4304
897.4725
897.5154
897.5592
897.6042
897.6508
897.7005
896.6164
896.4803
896.4498
896.4107
896.3847
896.3641
896.3493
896.3389
896.3325
896.3295
896.3294
896.332
896.3371
896.3446
896.3542
896.366
896.3799
896.3958
896.4135
896.433
896.4541
896.4769
896.5012
896.527
896.5541
896.5824
896.612
896.6426
896.6742
896.7068
896.7403
896.7745
896.8095
896.8451
896.8813
896.918
896.9551
896.9926
897.0305
897.0686
897.1069
897.1454
897.1841
897.2229
897.2617
897.3006
897.3396
897.3786
897.4177
897.4568
897.496
897.5354
897.5751
897.615
897.6551
897.6957
897.7366
897.7783
897.8213
897.8671
896.2311
896.144
896.1383
896.129
896.1309
896.1379
896.1498
896.1655
896.1843
896.2056
896.229
896.2542
896.281
896.3093
896.3388
896.3695
896.4014
896.4342
896.468
896.5025
896.5378
896.5738
896.6103
896.6472
896.6846
896.7224
896.7604
896.7986
896.8369
896.8754
896.9139
896.9523
896.9908
897.0291
897.0673
897.1053
897.1431
897.1807
897.218
897.2551
897.2918
897.3283
897.3644
897.4003
897.4358
897.4711
897.5061
897.5409
897.5754
897.6099
897.6442
897.6786
897.713
897.7476
897.7823
897.8173
897.8527
897.8889
897.9263
897.9665
896.1943
896.1403
896.1502
896.1594
896.1778
896.2006
896.2272
896.2566
896.2881
896.3212
896.3553
896.3904
896.4261
896.4623
896.499
896.536
896.5733
896.6108
896.6485
896.6862
896.724
896.7616
896.7993
896.8367
896.874
896.911
896.9478
896.9843
897.0204
897.0563
897.0917
897.1268
897.1614
897.1957
897.2295
897.2629
897.296
897.3285
897.3607
897.3925
897.4239
897.4549
897.4855
897.5158
897.5459
897.5756
897.6052
897.6345
897.6638
897.693
897.7222
897.7515
897.7811
897.8109
897.841
897.8716
897.9027
897.9347
897.9682
898.0046
896.3487
896.3072
896.322
896.3369
896.3597
896.3862
896.4157
896.4472
896.4801
896.5139
896.5481
896.5827
896.6173
896.652
896.6866
896.7211
896.7555
896.7898
896.8238
896.8576
896.8911
896.9243
896.9572
896.9898
897.022
897.0538
897.0852
897.1163
897.1469
897.1772
897.2071
897.2365
897.2657
897.2944
897.3228
897.3508
897.3786
897.406
897.4331
897.46
897.4866
897.5131
897.5393
897.5654
897.5914
897.6173
897.6432
897.6691
897.6952
897.7213
897.7477
897.7745
897.8016
897.8292
897.8573
897.886
897.9155
897.9461
897.9784
898.0138
896.5425
896.4986
896.511
896.5229
896.5423
896.565
896.5903
896.6173
896.6455
896.6742
896.7033
896.7324
896.7615
896.7906
896.8196
896.8484
896.8771
896.9056
896.9339
896.962
896.9899
897.0176
897.0451
897.0724
897.0994
897.1261
897.1527
897.179
897.205
897.2309
897.2565
897.2819
897.3072
897.3323
897.3572
897.382
897.4067
897.4313
897.4558
897.4803
897.5047
897.5292
897.5537
897.5782
897.6029
897.6276
897.6526
897.6777
897.7032
897.7289
897.7551
897.7817
897.8089
897.8366
897.8651
897.8942
897.9243
897.9555
897.9886
898.0248
896.687
896.6344
896.6419
896.6478
896.6614
896.6782
896.6977
896.7188
896.7412
896.7642
896.7877
896.8113
896.8352
896.8591
896.8831
896.9072
896.9313
896.9555
896.9796
897.0038
897.028
897.0522
897.0764
897.1006
897.1248
897.149
897.1731
897.1972
897.2213
897.2454
897.2694
897.2935
897.3176
897.3417
897.3659
897.3901
897.4143
897.4387
897.4631
897.4876
897.5123
897.5371
897.5621
897.5872
897.6126
897.6382
897.6641
897.6903
897.7168
897.7438
897.7712
897.7991
897.8276
897.8568
897.8867
897.9173
897.9488
897.9816
898.0162
898.0539
896.7616
896.7011
896.7045
896.7056
896.7147
896.7271
896.7424
896.7595
896.7781
896.7975
896.8177
896.8383
896.8592
896.8806
896.9023
896.9242
896.9465
896.969
896.9917
897.0147
897.0378
897.0612
897.0848
897.1086
897.1325
897.1566
897.1808
897.2051
897.2295
897.2541
897.2787
897.3035
897.3284
897.3535
897.3787
897.404
897.4294
897.455
897.4808
897.5067
897.5327
897.559
897.5855
897.6121
897.639
897.6662
897.6936
897.7214
897.7495
897.7779
897.8068
897.8362
897.8662
897.8968
897.928
897.96
897.9928
898.0268
898.0626
898.1014
896.7886
896.7241
896.7257
896.7246
896.7318
896.7424
896.7561
896.7719
896.7893
896.8079
896.8273
896.8474
896.868
896.8893
896.911
896.9332
896.9558
896.9789
897.0023
897.026
897.05
897.0744
897.0991
897.1241
897.1492
897.1746
897.2001
897.2258
897.2517
897.2777
897.3039
897.3302
897.3566
897.3832
897.4099
897.4367
897.4637
897.4908
897.518
897.5454
897.5728
897.6005
897.6283
897.6563
897.6844
897.7128
897.7413
897.7702
897.7993
897.8287
897.8585
897.8887
897.9194
897.9507
897.9826
898.0151
898.0484
898.0828
898.1189
898.158
896.8019
896.7372
896.7388
896.7377
896.7451
896.756
896.7701
896.7864
896.8044
896.8237
896.844
896.8651
896.8869
896.9093
896.9323
896.9559
896.9799
897.0044
897.0292
897.0544
897.08
897.1059
897.132
897.1585
897.1851
897.2119
897.2389
897.266
897.2932
897.3205
897.3479
897.3755
897.4031
897.4307
897.4585
897.4863
897.5142
897.5422
897.5702
897.5983
897.6265
897.6547
897.6831
897.7115
897.7401
897.7687
897.7976
897.8266
897.8558
897.8853
897.9151
897.9452
897.9758
898.0069
898.0385
898.0706
898.1035
898.1375
898.1731
898.2116
896.8259
896.7628
896.7653
896.7652
896.7736
896.7855
896.8006
896.818
896.8372
896.8577
896.8792
896.9015
896.9246
896.9483
896.9726
896.9974
897.0227
897.0484
897.0744
897.1007
897.1273
897.1542
897.1814
897.2087
897.2362
897.2638
897.2914
897.3192
897.347
897.3748
897.4027
897.4306
897.4585
897.4864
897.5143
897.5423
897.5702
897.5981
897.6261
897.654
897.682
897.7099
897.7379
897.766
897.7941
897.8223
897.8505
897.8789
897.9075
897.9362
897.9652
897.9946
898.0244
898.0546
898.0852
898.1165
898.1484
898.1813
898.2159
898.2534
896.8686
896.807
896.8101
896.8108
896.8198
896.8324
896.8482
896.8663
896.8862
896.9074
896.9296
896.9526
896.9763
897.0006
897.0254
897.0508
897.0765
897.1026
897.1289
897.1555
897.1824
897.2094
897.2366
897.264
897.2914
897.3189
897.3464
897.3739
897.4014
897.4288