/*--------------------------------*- C++ -*----------------------------------*\
| =========                 |                                                 |
| \\      /  F ield         | OpenFOAM: The Open Source CFD Toolbox           |
|  \\    /   O peration     | Version:  2312                                  |
|   \\  /    A nd           | Website:  www.openfoam.com                      |
|    \\/     M anipulation  |                                                 |
\*---------------------------------------------------------------------------*/
FoamFile
{
    version     2.0;
    format      ascii;
    arch        "LSB;label=32;scalar=64";
    class       volScalarField;
    location    "500";
    object      ILambda_8_0;
}
// * * * * * * * * * * * * * * * * * * * * * * * * * * * * * * * * * * * * * //

dimensions      [1 0 -3 0 0 0 0];

internalField   nonuniform List<scalar> 
12000
(
887.7364
885.6199
885.1904
885.0031
885.4075
886.2456
887.3941
888.6787
889.9346
891.0315
891.8927
892.4978
892.8737
893.0762
893.1698
893.2124
893.245
893.2898
893.3533
893.4323
893.5194
893.6078
893.6934
893.7758
893.8576
893.9431
894.0347
894.1269
894.2024
894.2345
894.2044
894.1341
894.1168
894.3147
894.8866
895.8437
896.8891
897.3533
896.3327
893.0432
887.2497
879.5309
871.193
863.8414
858.8206
856.762
857.3262
859.0962
859.6839
856.3486
847.3404
833.4748
818.5647
807.4094
801.7944
797.5378
786.559
764.7302
739.1727
724.1447
889.1395
886.6658
885.7984
885.1244
885.0558
885.5137
886.4218
887.6254
888.946
890.2144
891.3025
892.1393
892.713
893.0578
893.2351
893.3123
893.3469
893.3779
893.4247
893.4915
893.5732
893.6618
893.7506
893.8355
893.9166
893.9971
894.0826
894.1769
894.2752
894.3575
894.3903
894.346
894.2427
894.185
894.3657
894.9833
896.0691
897.2948
897.8994
896.8624
893.3297
887.1038
878.9087
870.229
862.7863
857.9444
856.3003
857.4691
859.9211
860.971
857.4255
847.2674
831.7119
815.7415
805.3822
802.3778
800.362
788.0771
760.98
731.4834
889.9627
887.455
886.4081
885.4993
885.1515
885.3381
886.0237
887.0845
888.3542
889.6565
890.841
891.8068
892.5121
892.9687
893.2256
893.3483
893.4004
893.4305
893.468
893.5243
893.5987
893.6843
893.7734
893.8605
893.9436
894.0239
894.1053
894.1922
894.2853
894.3754
894.4396
894.4485
894.3917
894.3167
894.3561
894.6992
895.4772
896.5795
897.5018
897.3654
895.1994
890.4143
883.223
874.7275
866.5659
860.3051
856.9139
856.4997
858.203
860.1007
859.3427
853.09
840.3917
823.886
809.3108
801.7561
800.3893
796.2264
777.849
744.5446
890.8989
888.3871
887.1599
886.0028
885.3448
885.2159
885.6282
886.4971
887.6765
888.989
890.2638
891.3684
892.2266
892.8213
893.1834
893.3725
893.456
893.4925
893.5227
893.5675
893.6323
893.7125
893.8005
893.889
893.9742
894.0553
894.135
894.218
894.308
894.4026
894.4866
894.5317
894.5103
894.4293
894.3703
894.5028
895.0211
895.9909
897.1536
897.8194
896.993
893.7677
887.8364
879.8175
871.1465
863.5515
858.4143
856.3511
857.0701
859.287
860.6322
857.9994
848.9394
833.8032
816.8928
804.5962
800.4789
800.3765
792.3098
764.9239
891.7602
889.3489
888.0121
886.6682
885.7351
885.2936
885.4038
886.0285
887.054
888.3153
889.6329
890.8486
891.8528
892.5952
893.0821
893.3596
893.4936
893.5495
893.5789
893.6138
893.6675
893.7399
893.8245
893.9133
894.0006
894.0836
894.1632
894.2429
894.3274
894.4192
894.5121
894.5863
894.6108
894.5653
894.4787
894.466
894.7192
895.4088
896.4995
897.5644
897.7517
896.0247
891.6471
884.6748
876.1282
867.6732
860.9724
857.0963
856.2652
857.8095
860.0613
860.2786
855.2898
843.3627
826.3959
810.1456
800.8825
799.8283
799.3811
785.5081
892.5536
890.3136
888.9264
887.4518
886.2833
885.5433
885.3376
885.6795
886.4971
887.6497
888.9604
890.254
891.3902
892.2843
892.912
893.2998
893.5053
893.597
893.6356
893.6646
893.707
893.7696
893.8486
893.936
894.0247
894.1102
894.1913
894.27
894.3505
894.4372
894.5302
894.6188
894.6781
894.6775
894.6095
894.5322
894.596
895.0039
895.8743
897.0358
897.8763
897.4072
894.6271
889.0657
881.1975
872.4126
864.4931
858.9075
856.3465
856.6389
858.7556
860.6347
859.1965
851.4331
836.7393
818.7971
804.4184
798.7785
800.1027
798.352
893.2544
891.2444
889.8684
888.3266
886.9758
885.9682
885.4487
885.4815
886.0429
887.0278
888.2743
889.6009
890.8431
891.8826
892.6613
893.1789
893.4785
893.6255
893.6869
893.7171
893.7505
893.8022
893.8732
893.9573
894.0463
894.1341
894.2176
894.2972
894.3756
894.4576
894.5466
894.6397
894.7211
894.7618
894.735
894.6517
894.6039
894.7729
895.3541
896.3815
897.5187
897.9688
896.6584
892.7154
886.0239
877.4971
868.8135
861.728
857.3959
856.1006
857.3183
859.6832
860.7263
857.1056
846.2878
829.2198
811.4278
800.0946
798.3534
801.774
893.8513
892.11
890.801
889.2554
887.7829
886.5523
885.7383
885.4516
885.7201
886.4828
887.6053
888.9119
890.2229
891.3907
892.3218
892.9844
893.3999
893.624
893.7257
893.768
893.7969
893.838
893.8994
893.9779
894.0657
894.1553
894.2417
894.3234
894.4019
894.4809
894.5649
894.6559
894.747
894.8174
894.8358
894.7839
894.6978
894.7058
895.0111
895.7758
896.9142
897.9016
897.7751
895.4502
890.2874
882.5976
873.7121
865.4784
859.4723
856.4499
856.3018
858.2026
860.4494
860.1459
853.8354
839.8793
821.1878
804.9359
797.7111
799.9144
894.3378
892.8852
891.6909
890.2011
888.6716
887.2734
886.1996
885.6001
885.5531
886.0475
886.9873
888.2152
889.5479
890.8151
891.89
892.7061
893.2564
893.5804
893.7425
893.8115
893.844
893.877
893.9279
893.9986
894.0832
894.1733
894.2626
894.3474
894.4277
894.5059
894.5861
894.6725
894.7647
894.8514
894.9067
894.9001
894.8272
894.7555
894.8486
895.3169
896.2575
897.4301
898.1112
897.2126
893.7322
887.3659
878.8934
869.9963
862.5389
857.7774
856.0296
856.8493
859.1563
860.8749
858.6744
849.2334
832.3332
813.1604
799.9814
797.4925
894.7146
893.5522
892.5091
891.1274
889.605
888.1018
886.8164
885.9276
885.5589
885.7512
886.4552
887.5439
888.8431
890.1697
891.3685
892.3374
893.0365
893.4818
893.7266
893.8402
893.8878
893.918
893.9589
894.0201
894.0991
894.1883
894.2797
894.368
894.4514
894.5308
894.6094
894.6915
894.7804
894.8725
894.9515
894.9878
894.9552
894.8699
894.835
895.0448
895.6944
896.7802
897.8766
898.0682
896.2063
891.4796
884.0106
875.0479
866.5076
860.1009
856.6549
856.0654
857.633
860.0408
860.7702
856.0946
843.2174
823.9326
805.779
796.9841
894.9877
894.1011
893.2333
892.0015
890.5457
889.0027
887.5642
886.4251
885.7458
885.6173
886.0418
886.9332
888.139
889.4754
890.7663
891.8768
892.7313
893.316
893.6661
893.8452
893.923
893.9589
893.9925
894.0433
894.1145
894.2004
894.2927
894.3843
894.4716
894.5538
894.6329
894.7127
894.7973
894.8883
894.9783
895.046
895.0596
895.0026
894.9183
894.9475
895.3043
896.1398
897.3114
898.1872
897.6879
894.6941
888.6996
880.3191
871.2194
863.3931
858.2307
856.0714
856.4615
858.5353
860.7085
859.9259
852.1957
835.7928
815.0852
799.4837
895.168
894.5296
893.8483
892.796
891.4579
889.9389
888.4117
887.074
886.1122
885.6613
885.7757
886.4182
887.4699
888.7591
890.0996
891.329
892.3362
893.073
893.5495
893.8165
893.9431
893.9966
894.0286
894.0696
894.1309
894.211
894.3022
894.3962
894.4874
894.5735
894.6549
894.7345
894.8161
894.9034
894.9956
895.0811
895.1333
895.1219
895.0456
894.9808
895.1049
895.634
896.64
897.8047
898.2834
896.8872
892.6355
885.4371
876.424
867.576
860.7745
856.9481
855.9548
857.1083
859.4386
860.9991
858.11
846.7805
827.0115
805.8988
895.2694
894.8423
894.3466
893.4903
892.3102
890.8731
889.3233
887.8479
886.6466
885.8889
885.6787
886.0314
886.8719
888.0534
889.3918
890.7059
891.8522
892.7461
893.3665
893.7439
893.9406
894.0275
894.0667
894.1007
894.1511
894.2226
894.31
894.4048
894.4994
894.5896
894.6744
894.7556
894.8361
894.92
895.0099
895.102
895.1794
895.2123
895.1752
895.089
895.0677
895.3187
896.0351
897.1702
898.1989
898.0788
895.5919
890.0202
881.7776
872.4865
864.2809
858.7343
856.2233
856.2039
857.8947
860.2255
860.7266
855.0468
839.5901
816.5395
895.3076
895.0494
894.7279
894.0715
893.0767
891.7704
890.261
888.7139
887.3281
886.2961
885.7642
885.8005
886.3804
887.3937
888.6716
890.0253
891.2853
892.3314
893.1069
893.6156
893.9052
894.0449
894.1041
894.1371
894.1773
894.238
894.3186
894.4116
894.5083
894.6025
894.6914
894.7752
894.8564
894.9384
895.0248
895.1166
895.2063
895.2721
895.2821
895.2214
895.1396
895.1904
895.5984
896.501
897.6915
898.4195
897.4841
893.7459
886.8757
877.847
868.6848
861.4754
857.3047
855.9811
856.7028
858.717
860.7695
859.6501
850.3544
830.1077
895.2987
895.1652
894.9983
894.5342
893.7388
892.6003
891.1876
889.6351
888.128
886.8687
886.0358
885.7458
886.0273
886.8162
887.972
889.311
890.6472
891.8289
892.7625
893.419
893.8242
894.0387
894.1346
894.1765
894.21
894.2591
894.3301
894.4185
894.5154
894.6127
894.7057
894.7932
894.8763
894.958
895.0416
895.1304
895.2231
895.3076
895.3574
895.3423
895.2636
895.2062
895.361
895.9494
897.0144
898.1503
898.3804
896.4147
891.3203
883.2724
873.8066
865.1988
859.262
856.4624
856.1108
857.3357
859.4807
860.9179
857.4682
843.7249
895.2584
895.2069
895.1694
894.88
894.2853
893.3385
892.0687
890.573
889.012
887.5841
886.4874
885.8786
885.8387
886.3556
887.3284
888.5922
889.9564
891.2449
892.3288
893.1429
893.684
893.9967
894.1498
894.2145
894.2482
894.2871
894.3467
894.4273
894.5217
894.6207
894.7175
894.809
894.8951
894.9778
895.0603
895.1458
895.2365
895.3283
895.4042
895.4342
895.3935
895.307
895.2993
895.5907
896.3711
897.5451
898.4774
897.9886
894.7991
888.3229
879.3257
869.843
862.192
857.6906
856.1301
856.4825
858.0032
860.1094
860.5556
854.2933
895.2009
895.1925
895.256
895.1168
894.7126
893.968
892.8752
891.4909
889.9428
888.412
887.1024
886.1999
885.8325
886.0421
886.7764
887.9021
889.2373
890.592
891.8069
892.7793
893.472
893.9056
894.1387
894.2441
894.289
894.322
894.3698
894.4401
894.529
894.6274
894.727
894.8224
894.9121
894.997
895.0797
895.1633
895.2507
895.3424
895.431
895.4945
895.5014
895.4377
895.3591
895.431
895.8885
896.8536
898.0477
898.5898
897.1508
892.5895
884.8056
875.1932
866.1528
859.7917
856.749
856.1865
856.9712
858.6547
860.6475
860.1241
895.138
895.1398
895.2753
895.2575
895.0243
894.4799
893.5847
892.3561
890.8824
889.3169
887.8554
886.6999
886.0164
885.899
886.3489
887.2759
888.5202
889.8903
891.2045
892.325
893.1775
893.752
894.0889
894.2564
894.3275
894.3624
894.4002
894.4585
894.5388
894.634
894.7347
894.8335
894.9271
895.015
895.0991
895.182
895.2667
895.3556
895.4472
895.5299
895.5773
895.5591
895.4789
895.4291
895.6135
896.2588
897.3754
898.4608
898.3934
895.7817
889.7719
880.8687
871.0671
862.9239
858.0716
856.3625
856.4895
857.5
859.3835
861.5972
895.0787
895.0651
895.2451
895.318
895.2298
894.8729
894.1832
893.1413
891.7945
890.2601
888.7134
887.3584
886.3878
885.9413
886.075
886.7493
887.8395
889.1663
890.5364
891.7828
892.7937
893.5235
893.9869
894.24
894.3561
894.4048
894.4375
894.4837
894.5529
894.6417
894.7412
894.8425
894.9397
895.0311
895.1174
895.201
895.2843
895.3702
895.4602
895.5501
895.6239
895.6516
895.6086
895.5229
895.5284
895.8582
896.6987
897.9008
898.7068
897.789
893.8144
886.3759
876.6618
867.1596
860.3133
857.0382
856.4053
856.9135
858.1009
860.517
895.0296
894.9822
895.1823
895.316
895.3434
895.1528
894.6639
893.8261
892.6467
891.2025
889.6385
888.1471
886.934
886.1746
885.9766
886.3553
887.2316
888.4518
889.8244
891.1622
892.3186
893.2102
893.8192
894.1819
894.3651
894.4434
894.4798
894.5163
894.5729
894.6523
894.7477
894.8495
894.95
895.0451
895.1343
895.2193
895.3026
895.3867
895.4737
895.564
895.6506
895.7122
895.7174
895.6525
895.5774
895.6692
896.1733
897.1951
898.3771
898.6935
896.6791
891.2118
882.4825
872.3783
863.6845
858.4252
856.6265
856.7217
857.3761
858.8433
894.9945
894.902
895.102
895.2694
895.3818
895.331
895.0275
894.3974
893.4123
892.1077
890.5909
889.0311
887.6325
886.5939
886.0669
886.1218
886.7321
887.7825
889.097
890.4797
891.7565
892.8059
893.5738
894.0683
894.3427
894.4704
894.5232
894.5557
894.6
894.6675
894.7557
894.8557
894.9581
895.0568
895.1495
895.2368
895.321
895.4044
895.4893
895.5773
895.6672
895.7479
895.794
895.7749
895.6947
895.6521
895.8637
896.5617
897.7218
898.7346
898.3186
894.979
887.9782
878.2273
868.2436
860.8318
857.2915
856.7012
857.133
857.7406
894.974
894.8319
895.0167
895.195
895.3634
895.4223
895.2809
894.85
894.0722
892.9441
891.5318
889.9717
888.453
887.1838
886.3489
886.0688
886.3732
887.1949
888.3871
889.759
891.1183
892.3101
893.2411
893.8859
894.2755
894.4756
894.5618
894.5999
894.6349
894.6892
894.7671
894.8623
894.9648
895.0665
895.1629
895.2532
895.339
895.4228
895.5067
895.5924
895.6811
895.7691
895.8414
895.8685
895.8253
895.7412
895.7583
896.1228
897.0178
898.2365
898.8862
897.4758
892.6278
884.1697
873.7991
864.4958
858.7414
856.8558
857.0556
857.4007
894.9666
894.7762
894.9358
895.1073
895.3058
895.4439
895.4359
895.1858
894.6152
893.6869
892.4257
890.9289
889.3592
887.9197
886.8149
886.2073
886.1814
886.7244
887.731
889.0297
890.4225
891.7282
892.8162
893.6228
894.1498
894.4467
894.587
894.6444
894.6767
894.7188
894.7841
894.8711
894.9712
895.0746
895.1745
895.2683
895.3565
895.4413
895.5251
895.6096
895.696
895.7846
895.8692
895.93
895.9353
895.871
895.7995
895.908
896.4536
897.5251
898.6794
898.7303
896.0645
889.602
879.9013
869.4307
861.3602
857.4755
856.9676
857.4443
894.9696
894.7362
894.8657
895.0181
895.2251
895.4136
895.508
895.413
895.0381
894.319
893.2426
891.8644
890.3117
888.7692
887.447
886.5376
886.1747
886.4023
887.1657
888.3261
889.6941
891.0729
892.2993
893.2702
893.9518
894.3698
894.5879
894.6827
894.7228
894.7563
894.8082
894.8842
894.9786
895.0815
895.1843
895.2818
895.373
895.4596
895.5439
895.628
895.7129
895.7998
895.8876
895.9667
896.0127
895.9946
895.9159
895.8793
896.1134
896.8576
898.0524
898.9719
898.1558
894.0007
885.9274
875.3491
865.3824
859.0202
857.0071
857.4434
894.9796
894.7111
894.8097
894.9359
895.135
895.3487
895.5147
895.5451
895.345
894.8317
893.9598
892.7438
891.2703
889.6947
888.2181
887.0493
886.3616
886.2533
886.726
887.6851
888.9642
890.3642
891.6975
892.8237
893.6701
894.2308
894.5516
894.7055
894.7682
894.8004
894.8402
894.903
894.9886
895.0884
895.1925
895.2935
895.3883
895.4772
895.5626
895.6468
895.7313
895.8166
895.9036
895.9894
896.0607
896.0888
896.0476
895.9658
895.9918
896.3847
897.3269
898.5517
899.017
897.049
891.2307
881.6907
870.747
861.92
857.5975
857.2581
894.9935
894.6987
894.7688
894.8661
895.0462
895.2645
895.4741
895.5984
895.5459
895.224
894.5625
893.5388
892.1974
890.656
889.094
887.7219
886.7398
886.2937
886.4421
887.1438
888.2684
889.629
891.0251
892.2851
893.2963
894.0159
894.4637
894.701
894.8054
894.8479
894.88
894.9292
895.003
895.0964
895.1995
895.3032
895.4018
895.4938
895.5809
895.6657
895.7502
895.8349
895.9205
896.007
896.0895
896.1504
896.1582
896.0967
896.0284
896.149
896.7285
897.8416
898.9549
898.7025
895.3046
887.7463
877.0475
866.3758
859.288
857.1313
895.0083
894.6959
894.742
894.8115
894.9663
895.1741
895.403
895.591
895.6555
895.502
895.0441
894.2288
893.0598
891.6131
890.0359
888.5261
887.2962
886.5292
886.3372
886.7365
887.6442
888.8999
890.3041
891.6631
892.8273
893.714
894.3097
894.6559
894.8246
894.8932
894.9258
894.9632
895.0234
895.1072
895.2065
895.3111
895.4132
895.509
895.5986
895.6844
895.7691
895.8539
895.9389
896.0244
896.1098
896.1875
896.2352
896.221
896.1457
896.113
896.363
897.1447
898.3655
899.1735
897.9066
892.8398
883.5993
872.2232
862.5337
857.6117
895.0213
894.6993
894.7271
894.7721
894.8998
895.0873
895.3164
895.5409
895.691
895.6772
895.4058
894.801
893.831
892.5291
891.0032
889.4259
888.0076
886.9548
886.4252
886.4924
887.1287
888.2135
889.5631
890.9739
892.2664
893.3179
894.0765
894.5555
894.8135
894.9284
894.974
895.0048
895.0512
895.1226
895.2148
895.318
895.4225
895.5222
895.6151
895.7028
895.7879
895.8729
895.9581
896.0432
896.1282
896.2117
896.2829
896.3146
896.2785
896.2
896.2308
896.6433
897.623
898.8436
899.0997
896.5075
889.6092
878.9103
867.4817
859.3654
895.0307
894.7059
894.7211
894.7468
894.8488
895.011
895.2266
895.4647
895.6706
895.7653
895.6553
895.2512
894.4923
893.3723
891.9561
890.3815
888.8427
887.5546
886.7094
886.4327
886.7557
887.6081
888.8363
890.2414
891.6241
892.8257
893.7534
894.3854
894.7584
894.943
895.0185
895.0518
895.0869
895.1443
895.2262
895.3249
895.43
895.5332
895.63
895.7204
895.8067
895.8918
895.9773
896.0628
896.1475
896.2317
896.3125
896.375
896.3883
896.3327
896.2671
896.3933
896.9955
898.1395
899.1996
898.6095
894.3941
885.6151
873.8371
862.9159
895.0357
894.7129
894.721
894.7328
894.8129
894.9488
895.1426
895.3767
895.6123
895.7841
895.8057
895.5824
895.0335
894.1181
892.8586
891.352
889.764
888.3033
887.1819
886.5691
886.5531
887.1206
888.1614
889.4961
890.9188
892.2424
893.3343
894.1328
894.6444
894.9245
895.051
895.1002
895.13
895.1737
895.2426
895.3335
895.4366
895.542
895.6429
895.7369
895.8251
895.9107
895.9963
896.0824
896.1679
896.2519
896.3348
896.4119
896.4634
896.4567
896.3871
896.3557
896.6117
897.4176
898.6534
899.3349
897.5684
891.4732
880.88
868.3827
895.0358
894.7183
894.7237
894.7271
894.7904
894.9021
895.0703
895.2883
895.5322
895.7522
895.8736
895.8043
895.4522
894.7498
893.6806
892.2981
890.7307
889.1672
887.8242
886.9021
886.54
886.784
887.577
888.7736
890.1761
891.5804
892.8186
893.7877
894.4573
894.8585
895.0604
895.1437
895.1781
895.2112
895.2657
895.3456
895.4435
895.5491
895.6534
895.7515
895.8428
895.9296
896.0152
896.1015
896.1881
896.2731
896.3561
896.4374
896.5095
896.5477
896.5204
896.4465
896.4762
896.8949
897.8971
899.1029
899.1279
895.8327
887.6525
875.3332
895.0309
894.7207
894.7267
894.7266
894.7783
894.87
895.0127
895.2077
895.4437
895.6869
895.8772
895.9311
895.7536
895.2594
894.3994
893.1849
891.7018
890.1074
888.6084
887.421
886.7255
886.6245
887.1198
888.1125
889.4283
890.8599
892.2131
893.3451
894.1845
894.7301
895.0337
895.173
895.2267
895.2558
895.2968
895.3631
895.4525
895.5555
895.6617
895.764
895.8592
895.9482
896.0342
896.1203
896.2076
896.2943
896.3784
896.46
896.5394
896.6051
896.6276
896.5814
896.5175
896.6393
897.2474
898.407
899.4017
898.4336
893.2511
882.8456
895.0214
894.7193
894.7283
894.7283
894.7735
894.8504
894.9703
895.1398
895.3575
895.604
895.835
895.9801
895.9488
895.6469
895.0008
893.984
892.6386
891.0826
889.4989
888.1046
887.1073
886.6593
886.8218
887.5516
888.7124
890.1086
891.532
892.806
893.8169
894.5252
894.9561
895.1768
895.2687
895.3049
895.3361
895.3878
895.4655
895.5626
895.6685
895.774
895.8736
895.966
896.0534
896.1393
896.2265
896.3146
896.4008
896.4834
896.5637
896.6407
896.6985
896.7033
896.6421
896.6079
896.8556
897.6659
898.9012
899.4389
897.1043
889.7863
895.0075
894.7136
894.727
894.7297
894.7729
894.8401
894.9418
895.0868
895.2806
895.516
895.7642
895.97
896.0532
895.9192
895.4787
894.6747
893.5076
892.0518
890.4558
888.9226
887.6721
886.8946
886.7073
887.1272
888.0676
889.3604
890.7977
892.1787
893.3505
894.2315
894.8127
895.1412
895.2946
895.3534
895.3823
895.4207
895.4843
895.5722
895.6749
895.782
895.8856
895.9823
896.0722
896.1586
896.2452
896.3336
896.4222
896.5073
896.5881
896.6671
896.7415
896.7892
896.7751
896.7067
896.7272
897.1333
898.1371
899.3175
899.1155
895.1883
894.9892
894.7032
894.7219
894.729
894.7736
894.8361
894.9248
895.0486
895.2172
895.4325
895.6794
895.9189
896.0848
896.0888
895.8353
895.2451
894.2822
892.977
891.4369
889.8376
888.3957
887.3253
886.7911
886.8699
887.5327
888.6534
890.0396
891.4795
892.788
893.8409
894.5891
895.0513
895.2921
895.3938
895.4323
895.4618
895.5107
895.5861
895.6822
895.7885
895.8952
895.9963
896.09
896.1781
896.2643
896.3521
896.4418
896.5301
896.6135
896.6926
896.7707
896.8417
896.8772
896.8442
896.7806
896.8856
897.4784
898.643
899.6202
898.5564
894.9671
894.6881
894.7127
894.7252
894.7734
894.8351
894.9161
895.0235
895.1688
895.3598
895.5927
895.8437
896.0624
896.1723
896.0794
895.6914
894.9438
893.8263
892.4015
890.8084
889.2455
887.9351
887.0768
886.802
887.1435
888.0273
889.293
890.7326
892.1393
893.3506
894.2739
894.8919
895.247
895.4157
895.4806
895.5095
895.5454
895.6063
895.6924
895.7947
895.9026
896.0077
896.106
896.197
896.2839
896.3707
896.4601
896.5508
896.6382
896.7193
896.797
896.8748
896.9415
896.9622
896.9125
896.8712
897.0961
897.9014
899.1987
899.9679
894.9417
894.6685
894.6995
894.7175
894.7708
894.8347
894.9125
895.0089
895.1347
895.3011
895.5126
895.7582
896.004
896.1881
896.2248
896.0178
895.4828
894.5749
893.3129
891.7928
890.1827
888.6973
887.5562
886.936
886.9289
887.5211
888.5972
889.9694
891.423
892.7647
893.8598
894.649
895.144
895.4063
895.5188
895.5603
895.5883
895.6343
895.7074
895.8024
895.9088
896.0167
896.1194
896.2146
896.3036
896.3901
896.4782
896.5694
896.6604
896.7461
896.8249
896.9019
896.9798
897.0406
897.0444
896.9837
896.9901
897.3798
898.4425
899.9457
894.9141
894.6446
894.6826
894.7059
894.765
894.8331
894.9113
895.0016
895.113
895.2573
895.4444
895.6736
895.9256
896.1549
896.2888
896.2346
895.8976
895.2065
894.1405
892.7504
891.1649
889.5769
888.2099
887.2722
886.9092
887.1693
887.9926
889.2267
890.665
892.0953
893.3452
894.3115
894.9677
895.3509
895.5362
895.608
895.6375
895.6709
895.729
895.8133
895.9151
896.0236
896.1302
896.2301
896.3225
896.41
896.497
896.587
896.6798
896.7705
896.8537
896.9304
897.008
897.0863
897.139
897.1247
897.0646
897.1568
897.7777
899.1924
894.8853
894.6168
894.6624
894.6907
894.7557
894.8288
894.9102
894.9987
895.1009
895.2275
895.3908
895.5974
895.8405
896.0904
896.2901
896.3569
896.1943
895.7137
894.8617
893.6456
892.1498
890.5336
889.0088
887.7998
887.094
886.9993
887.5174
888.5447
889.8986
891.3628
892.7362
893.8734
894.7045
895.2339
895.5192
895.6438
895.6888
895.7156
895.7588
895.8294
895.9231
896.0295
896.1385
896.2429
896.3398
896.4299
896.5167
896.605
896.6974
896.7914
896.8807
896.9611
897.0365
897.116
897.1945
897.2367
897.2061
897.1673
897.398
898.3228
894.8575
894.5854
894.6394
894.6721
894.7429
894.8215
894.9075
894.9976
895.0953
895.2094
895.3519
895.5342
895.7586
896.01
896.2475
896.4027
896.3847
896.0972
895.4624
894.4497
893.0977
891.5243
889.9159
888.4962
887.481
887.0292
887.2053
887.9639
889.1621
890.5954
892.0468
893.3345
894.3442
895.0399
895.4527
895.656
895.7357
895.7661
895.7973
895.8525
895.9347
896.0359
896.1449
896.2529
896.3546
896.4486
896.537
896.6241
896.7145
896.8093
896.9039
896.991
897.0684
897.1441
897.2271
897.305
897.3344
897.2928
897.3019
897.7053
894.834
894.5513
894.6138
894.6504
894.7268
894.8108
894.9022
894.996
895.0934
895.1999
895.3264
895.4857
895.6867
895.9258
896.1781
896.3909
896.485
896.3646
895.9375
895.142
893.9744
892.5069
890.8894
889.3299
888.0559
887.2655
887.0817
887.5222
888.4963
889.8278
891.2993
892.7027
893.8817
894.7557
895.3208
895.6308
895.7685
895.8179
895.8438
895.8841
895.9521
896.0443
896.1507
896.2606
896.3667
896.4654
896.5569
896.6443
896.7327
896.826
896.9231
897.0174
897.1014
897.1764
897.2542
897.3422
897.418
897.432
897.384
897.4431
894.8187
894.516
894.5863
894.6261
894.7078
894.7969
894.8938
894.9927
895.0924
895.196
895.3115
895.4515
895.6283
895.847
896.0962
896.3399
896.5138
896.5296
896.2896
895.7109
894.7529
893.4424
891.8858
890.2619
888.7935
887.703
887.1622
887.2519
887.9419
889.0997
890.524
891.9939
893.3184
894.3719
895.1083
895.5524
895.7751
895.8635
895.8955
895.9246
895.9768
896.0569
896.1572
896.2666
896.376
896.4796
896.5755
896.665
896.7524
896.8431
896.9398
897.0388
897.1315
897.2119
897.2857
897.3683
897.4621
897.5322
897.5247
897.4572
894.8164
894.4816
894.5574
894.5993
894.686
894.7801
894.8822
894.9866
895.0906
895.1947
895.3042
895.4297
895.5846
895.7793
896.0135
896.2663
896.49
896.609
896.5285
896.1536
895.4151
894.2983
892.8631
891.2493
889.6597
888.3242
887.4505
887.1764
887.5362
888.4526
889.7573
891.2327
892.6641
893.8845
894.8023
895.4047
895.7408
895.8929
895.9474
895.9728
896.0103
896.0755
896.1662
896.2723
896.3831
896.4909
896.5917
896.685
896.7733
896.862
896.9561
897.0563
897.1563
897.2462
897.3228
897.3976
897.4877
897.5867
897.6447
897.6029
894.832
894.4519
894.5284
894.5705
894.6615
894.7605
894.8676
894.9774
895.0865
895.1937
895.3013
895.4174
895.5544
895.7255
895.9378
896.1837
896.4316
896.6218
896.6689
896.4748
895.9516
895.0496
893.7837
892.2484
890.614
889.1012
887.9379
887.3084
887.3096
887.9272
889.04
890.4512
891.9368
893.2968
894.3942
895.1726
895.6495
895.8932
895.9915
896.0256
896.0527
896.102
896.1798
896.2791
896.3889
896.4996
896.6052
896.7033
896.7945
896.8827
896.9738
897.0722
897.1758
897.2753
897.3611
897.4347
897.5137
897.614
897.7169
897.7586
894.8703
894.4315
894.5011
894.5406
894.6345
894.7382
894.85
894.9649
895.0794
895.191
895.3
895.4114
895.5355
895.6858
895.8741
896.1026
896.3546
896.587
896.7284
896.6858
896.3617
895.6804
894.6165
893.2176
891.6123
889.9976
888.6042
887.6488
887.2836
887.5596
888.4142
889.6876
891.1632
892.6203
893.8816
894.8439
895.4851
895.849
896.0169
896.0774
896.1026
896.1374
896.1998
896.2889
896.3947
896.5064
896.616
896.7191
896.8146
896.9045
896.9939
897.0888
897.1919
897.2979
897.3952
897.4761
897.5489
897.6366
897.7515
897.8636
894.9349
894.4268
894.4786
894.5111
894.6053
894.7133
894.8297
894.9493
895.0688
895.1855
895.298
895.4086
895.5248
895.6588
895.8242
896.0301
896.2717
896.5223
896.7265
896.8025
896.6523
896.1838
895.3389
894.1206
892.611
890.9712
889.4186
888.1856
887.468
887.3788
887.9202
888.9835
890.3774
891.8755
893.2695
894.411
895.2325
895.744
896.0101
896.1195
896.1563
896.1817
896.2281
896.3036
896.402
896.5122
896.6243
896.732
896.8327
896.9262
897.0159
897.1078
897.2076
897.3153
897.4221
897.5154
897.5918
897.668
897.772
897.9131
895.0273
894.4451
894.4651
894.4843
894.5747
894.6859
894.8065
894.9306
895.0548
895.1766
895.2937
895.4064
895.5192
895.642
895.788
895.9701
896.1925
896.4426
896.6819
896.8434
896.8362
896.5615
895.9375
894.9284
893.5694
891.9776
890.3427
888.8955
887.8603
887.4035
887.5931
888.3816
889.619
891.091
892.5715
893.8729
894.8803
895.5618
895.9552
896.1404
896.2077
896.2332
896.2655
896.3252
896.4126
896.5183
896.6309
896.7423
896.848
896.9464
897.0386
897.1294
897.2252
897.3305
897.442
897.5477
897.6359
897.7104
897.7977
897.9315
895.1452
894.4936
894.4656
894.4638
894.5441
894.6562
894.7803
894.9088
895.0374
895.1639
895.286
895.4026
895.5157
895.6322
895.7637
895.9239
896.1232
896.36
896.6117
896.828
896.9304
896.8221
896.4076
895.6206
894.4525
892.973
891.3329
889.7453
888.4457
887.6409
887.4598
887.9215
888.9308
890.3029
891.8102
893.2365
894.422
895.2878
895.8354
896.1257
896.2474
896.2878
896.3118
896.3553
896.4286
896.5262
896.6368
896.7504
896.8605
896.9641
897.0606
897.1525
897.2456
897.3464
897.4574
897.5714
897.6743
897.7578
897.8361
897.9466
895.2812
894.5788
894.4858
894.4544
894.516
894.625
894.7513
894.8839
895.0166
895.1475
895.2745
895.396
895.512
895.6265
895.7484
895.8908
896.0668
896.2831
896.5303
896.7748
896.9541
896.9801
896.7532
896.1861
895.2334
893.9177
892.3442
890.6944
889.1976
888.085
887.5365
887.6371
888.3553
889.5521
891.0164
892.5176
893.8582
894.9113
895.6345
896.0591
896.2631
896.3385
896.3649
896.3948
896.4518
896.5378
896.6433
896.757
896.8704
896.9788
897.0805
897.1758
897.2685
897.3651
897.4719
897.5882
897.7033
897.8023
897.8842
897.9753
895.421
894.7043
894.5315
894.4617
894.494
894.5939
894.7198
894.8559
894.9926
895.1276
895.2592
895.3857
895.5061
895.622
895.7393
895.8688
896.0243
896.2172
896.4487
896.7003
896.9266
897.0533
896.9848
896.623
895.8942
894.7787
893.3334
891.6982
890.0805
888.7179
887.8273
887.553
887.9317
888.8823
890.2281
891.7411
893.1978
894.4271
895.3382
895.9237
896.2398
896.3753
896.42
896.4431
896.4839
896.555
896.6518
896.763
896.8781
896.9907
897.0975
897.1976
897.2924
897.3869
897.4884
897.6019
897.7231
897.8378
897.9337
898.02
895.5429
894.8692
894.607
894.4919
894.4831
894.5656
894.6866
894.8247
894.9654
895.1045
895.2403
895.3717
895.4972
895.6167
895.7333
895.8551
895.9944
896.1648
896.3746
896.6181
896.8663
897.0613
897.1182
896.9372
896.4264
895.5313
894.2621
892.7115
891.0519
889.5102
888.3229
887.6829
887.6921
888.3361
889.4875
890.9399
892.459
893.8375
894.9367
895.703
896.1607
896.3851
896.4696
896.4975
896.5254
896.5799
896.6643
896.7697
896.8846
897
897.1114
897.2167
897.3157
897.4108
897.5084
897.6162
897.7371
897.8624
897.9765
898.0734
895.6169
895.0659
894.7138
894.5509
894.4893
894.544
894.6535
894.791
894.9351
895.0782
895.2181
895.3539
895.4846
895.609
895.728
895.8466
895.9748
896.1261
896.3127
896.5385
896.7889
897.0235
897.172
897.141
896.8303
896.1598
895.099
893.6918
892.0664
890.4237
889.0021
888.0273
887.659
887.9514
888.8389
890.1536
891.6686
893.1536
894.4262
895.3835
896.0085
896.3523
896.5029
896.553
896.5755
896.6138
896.6828
896.7788
896.8906
897.0074
897.1225
897.2328
897.3369
897.4352
897.5316
897.6339
897.7496
897.8783
898.008
898.1249
895.6053
895.2781
894.8488
894.6428
894.519
894.5343
894.6236
894.7557
894.9017
895.0489
895.1929
895.3329
895.4684
895.5982
895.7215
895.8406
895.9627
896.0995
896.2646
896.468
896.7072
896.9575
897.166
897.2511
897.1138
896.6584
895.8217
894.6019
893.0788
891.4147
889.8327
888.5738
887.8428
887.7588
888.3245
889.4258
890.8618
892.3956
893.8109
894.9563
895.7671
896.2597
896.5061
896.6011
896.6312
896.6572
896.7091
896.7921
896.8975
897.0136
897.1312
897.2457
897.355
897.4582
897.5565
897.6555
897.7645
897.89
898.0282
898.1663
895.4641
895.48
895.0026
894.7683
894.5782
894.5428
894.6012
894.7209
894.8659
895.0165
895.1648
895.3089
895.4489
895.5839
895.7124
895.8348
895.9551
896.0825
896.2299
896.4105
896.6302
896.8785
897.1193
897.2871
897.2909
897.0297
896.4173
895.4128
894.0473
892.4369
890.7744
889.2979
888.2409
887.7781
887.9813
888.8011
890.08
891.593
893.1039
894.4192
895.4236
896.0898
896.463
896.6303
896.6866
896.7091
896.7449
896.8117
896.9071
897.0196
897.1382
897.256
897.37
897.4785
897.581
897.6801
897.7838
897.9024
898.0408
898.194
895.1458
895.6347
895.1577
894.9229
894.6708
894.5762
894.5918
894.69
894.8289
894.9814
895.1339
895.2822
895.4264
895.5662
895.7002
895.8274
895.9494
896.0721
896.2067
896.3669
896.5639
896.7981
897.0491
897.2686
897.3794
897.2834
896.8821
896.1044
894.9366
893.4453
891.7819
890.1646
888.8375
888.0166
887.8376
888.3213
889.3677