/*--------------------------------*- C++ -*----------------------------------*\
| =========                 |                                                 |
| \\      /  F ield         | OpenFOAM: The Open Source CFD Toolbox           |
|  \\    /   O peration     | Version:  2312                                  |
|   \\  /    A nd           | Website:  www.openfoam.com                      |
|    \\/     M anipulation  |                                                 |
\*---------------------------------------------------------------------------*/
FoamFile
{
    version     2.0;
    format      ascii;
    arch        "LSB;label=32;scalar=64";
    class       surfaceScalarField;
    location    "500";
    object      phi;
}
// * * * * * * * * * * * * * * * * * * * * * * * * * * * * * * * * * * * * * //

dimensions      [1 0 -1 0 0 0 0];

oriented        oriented;

internalField   nonuniform List<scalar> 
23740
(
-0.0001020386
9.758876e-05
-0.000187108
8.506943e-05
-0.0002892745
0.0001021672
-0.0003992915
0.0001100183
-0.0004948341
9.554466e-05
-0.0005677118
7.288026e-05
-0.0006313945
6.368578e-05
-0.0007107348
7.934364e-05
-0.0008167226
0.0001059914
-0.0009336371
0.0001169179
-0.001038374
0.0001047406
-0.001112101
7.372984e-05
-0.001161302
4.920385e-05
-0.00120766
4.636063e-05
-0.001268042
6.038457e-05
-0.001342122
7.408321e-05
-0.001414983
7.286325e-05
-0.001469753
5.477146e-05
-0.001502697
3.294572e-05
-0.001526929
2.423426e-05
-0.001561847
3.491992e-05
-0.001613108
5.126168e-05
-0.001662708
4.960155e-05
-0.001689328
2.662168e-05
-0.001698803
9.476275e-06
-0.001716469
1.766659e-05
-0.001749217
3.27496e-05
-0.001776971
2.775481e-05
-0.001787
1.002936e-05
-0.001791714
4.715418e-06
-0.001802145
1.043087e-05
-0.001811543
9.398481e-06
-0.001813939
2.397409e-06
-0.001809146
-4.792721e-06
-0.001794029
-1.511628e-05
-0.001774119
-1.990967e-05
-0.001763098
-1.102012e-05
-0.001761284
-1.813955e-06
-0.001748363
-1.292082e-05
-0.001705491
-4.287111e-05
-0.001651941
-5.354967e-05
-0.00162438
-2.756063e-05
-0.001613756
-1.062393e-05
-0.001578771
-3.498484e-05
-0.001512483
-6.628726e-05
-0.001449139
-6.334349e-05
-0.001405648
-4.349128e-05
-0.001359981
-4.566678e-05
-0.001290837
-6.91436e-05
-0.00120855
-8.228651e-05
-0.001129871
-7.867871e-05
-0.001050954
-7.891659e-05
-0.0009619393
-8.901412e-05
-0.0008589375
-0.0001030014
-0.000745812
-0.0001131249
-0.0006226511
-0.0001231603
-0.0004867037
-0.0001359468
-0.0003373986
-0.0001493039
-0.0001653815
-0.0001720147
-0.0001653811
-0.0001026946
0.0002002804
-0.0001933644
0.0001757368
-0.000270983
0.0001797845
-0.0003506803
0.0001897154
-0.0004413262
0.0001861916
-0.0005408351
0.0001723911
-0.000637816
0.0001606694
-0.0007186576
0.0001601884
-0.0007786836
0.0001660207
-0.0008255097
0.0001637473
-0.0008750342
0.0001542687
-0.0009397861
0.0001384853
-0.001014125
0.0001235462
-0.001080682
0.0001129216
-0.001127609
0.0001073143
-0.001157088
0.0001035648
-0.001181588
9.736676e-05
-0.001214244
8.74299e-05
-0.001257899
7.660353e-05
-0.001302306
6.864335e-05
-0.001332332
6.494801e-05
-0.001344998
6.392974e-05
-0.00135627
6.087524e-05
-0.001382969
5.332181e-05
-0.001419265
4.577405e-05
-0.001443867
4.227042e-05
-0.001452015
4.089867e-05
-0.001461116
3.685698e-05
-0.001480904
2.981848e-05
-0.001499534
2.334695e-05
-0.001507247
1.814436e-05
-0.001510169
1.232153e-05
-0.001513178
5.407982e-06
-0.001515875
-2.095067e-06
-0.001520718
-1.027292e-05
-0.00152401
-1.661715e-05
-0.001512155
-2.287457e-05
-0.00148355
-3.041804e-05
-0.001456743
-3.972727e-05
-0.001450165
-4.94487e-05
-0.001445309
-5.840584e-05
-0.001408375
-6.449389e-05
-0.001348451
-7.054704e-05
-0.001304007
-7.942845e-05
-0.001280677
-8.961732e-05
-0.001246009
-9.801102e-05
-0.001184219
-0.0001052809
-0.001115945
-0.0001139395
-0.001060671
-0.000124417
-0.00100765
-0.0001353073
-0.0009426544
-0.0001436739
-0.0008689097
-0.0001526607
-0.0007916132
-0.0001663099
-0.0007176567
-0.0001769572
-0.0006325185
-0.0001982622
-0.0005296355
-0.0002260425
-0.000418924
-0.0002466573
-0.000295842
-0.0002723843
-0.0001574008
-0.0003104538
-0.0003227816
-8.969588e-05
0.0002899738
-0.000169706
0.0002557448
-0.0002425181
0.0002525953
-0.0003108707
0.0002580679
-0.0003813888
0.0002567104
-0.0004554047
0.0002464084
-0.0005271084
0.0002323751
-0.0005883495
0.0002214318
-0.0006352638
0.0002129376
-0.0006765802
0.0002050666
-0.0007182858
0.0001959773
-0.0007611196
0.0001813223
-0.0008037958
0.0001662255
-0.0008453154
0.0001544443
-0.0008815816
0.0001435835
-0.0009113637
0.0001333497
-0.0009366731
0.0001226788
-0.0009618193
0.0001125784
-0.0009880236
0.0001028101
-0.001013678
9.43e-05
-0.001037051
8.832271e-05
-0.001057619
8.449932e-05
-0.001077069
8.032709e-05
-0.001098105
7.435977e-05
-0.001120513
6.818346e-05
-0.00114189
6.364871e-05
-0.001160944
5.995425e-05
-0.00117884
5.475395e-05
-0.001196783
4.776259e-05
-0.001213648
4.021341e-05
-0.001227835
3.233239e-05
-0.001238821
2.330839e-05
-0.001246757
1.334453e-05
-0.001251857
3.006035e-06
-0.001254416
-7.713958e-06
-0.00125385
-1.718257e-05
-0.001247789
-2.893542e-05
-0.001239232
-3.897454e-05
-0.001226905
-5.205328e-05
-0.001211323
-6.503002e-05
-0.001192006
-7.772235e-05
-0.001166746
-8.975363e-05
-0.001135475
-0.0001018177
-0.001100456
-0.0001144467
-0.001062579
-0.0001274941
-0.001020153
-0.0001404367
-0.0009724118
-0.0001530217
-0.0009205108
-0.00016584
-0.0008657768
-0.0001791505
-0.000810389
-0.0001906946
-0.0007548337
-0.0001992286
-0.0006924115
-0.0002150824
-0.0006239936
-0.0002347273
-0.0005473019
-0.0002536483
-0.0004639232
-0.0002816401
-0.0003860899
-0.0003038748
-0.0003019782
-0.0003307678
-0.0002083254
-0.0003660356
-0.0001094943
-0.0004092833
-0.0004322757
-6.491359e-05
0.0003548832
-0.0001231971
0.000314025
-0.0001806007
0.0003099968
-0.0002344228
0.0003118886
-0.0002860163
0.0003083033
-0.0003392163
0.0002996084
-0.0003913906
0.0002845498
-0.0004378284
0.0002678705
-0.0004776163
0.0002527268
-0.0005109876
0.0002384394
-0.0005382539
0.0002232453
-0.0005642668
0.0002073369
-0.0005894978
0.0001914579
-0.0006136797
0.0001786275
-0.0006367873
0.0001666925
-0.0006587158
0.0001552796
-0.0006799225
0.000143887
-0.0007011203
0.0001337776
-0.000723335
0.0001250262
-0.0007455759
0.0001165422
-0.0007672432
0.0001099914
-0.0007875287
0.0001047861
-0.0008070643
9.98639e-05
-0.0008273136
9.461027e-05
-0.000848499
8.937005e-05
-0.0008694057
8.455659e-05
-0.0008892065
7.975613e-05
-0.0009085479
7.409636e-05
-0.000927966
6.718163e-05
-0.0009468039
5.905211e-05
-0.0009640069
4.953611e-05
-0.0009790668
3.836897e-05
-0.000991767
2.604529e-05
-0.001001753
1.299233e-05
-0.001008623
-8.427226e-07
-0.00101058
-1.522564e-05
-0.001009359
-3.015614e-05
-0.00100435
-4.398251e-05
-0.0009955351
-6.08681e-05
-0.0009831359
-7.742889e-05
-0.0009669961
-9.386179e-05
-0.0009465972
-0.0001101521
-0.0009220151
-0.0001263995
-0.0008937408
-0.0001427206
-0.0008620738
-0.0001591608
-0.0008267936
-0.0001757166
-0.0007875193
-0.0001922956
-0.0007445885
-0.0002087704
-0.0007005623
-0.0002231764
-0.0006537936
-0.000237463
-0.0005979398
-0.000255082
-0.0005342231
-0.0002787987
-0.0004695961
-0.0002993537
-0.0004028805
-0.0003203633
-0.0003420436
-0.0003424763
-0.0002787506
-0.0003671671
-0.000212796
-0.0003967216
-0.0001461127
-0.0004327177
-7.727193e-05
-0.0004781226
-0.0005095475
-4.931574e-05
0.0004041946
-9.902838e-05
0.0003637344
-0.0001457958
0.0003567618
-0.0001867741
0.000352865
-0.0002221589
0.0003436868
-0.0002527731
0.0003302218
-0.0002812582
0.0003130345
-0.0003065998
0.0002932121
-0.0003270875
0.0002732147
-0.0003444649
0.0002558173
-0.0003586501
0.0002374312
-0.0003711871
0.0002198745
-0.0003833796
0.0002036512
-0.0003941369
0.0001893856
-0.0004044788
0.0001770354
-0.0004153625
0.0001661643
-0.0004281036
0.0001566291
-0.0004427013
0.000148376
-0.0004596934
0.0001420192
-0.0004788473
0.000135697
-0.0004993437
0.0001304888
-0.0005206
0.0001260434
-0.0005428068
0.0001220717
-0.0005661193
0.0001179238
-0.0005902221
0.0001134738
-0.0006144132
0.0001087486
-0.0006381546
0.0001034985
-0.0006612553
9.71979e-05
-0.0006835936
8.952063e-05
-0.0007049208
8.038003e-05
-0.000724957
6.957293e-05
-0.0007435607
5.697314e-05
-0.0007603387
4.282388e-05
-0.0007746051
2.725911e-05
-0.0007857671
1.03198e-05
-0.0007933927
-7.599651e-06
-0.0007972062
-2.634232e-05
-0.0007955317
-4.565665e-05
-0.0007907767
-6.56227e-05
-0.0007823862
-8.581903e-05
-0.0007702146
-0.0001060331
-0.0007542503
-0.0001261162
-0.0007346479
-0.0001460016
-0.0007116862
-0.000165682
-0.0006856751
-0.0001851716
-0.0006568557
-0.0002045357
-0.0006253082
-0.0002238429
-0.0005924062
-0.0002416721
-0.0005555116
-0.0002600707
-0.0005117304
-0.0002812439
-0.0004630316
-0.0003037804
-0.0004166315
-0.0003251984
-0.0003697314
-0.0003462534
-0.0003216596
-0.0003684348
-0.0002716356
-0.0003924999
-0.0002195702
-0.000419232
-0.0001664369
-0.0004498542
-0.0001126753
-0.0004864783
-5.851518e-05
-0.0005322816
-0.0005680625
-4.446453e-05
0.0004486564
-8.985622e-05
0.0004091238
-0.0001283116
0.0003952155
-0.0001576727
0.0003822248
-0.0001786839
0.0003646971
-0.0001920826
0.0003436197
-0.0002005768
0.0003215282
-0.0002067088
0.0002993439
-0.0002103859
0.0002768919
-0.0002103627
0.0002557942
-0.0002084491
0.000235518
-0.000205381
0.0002168068
-0.0002019171
0.0002001879
-0.0001984735
0.0001859426
-0.0001955839
0.0001741464
-0.0001941058
0.0001646868
-0.0001949067
0.0001574306
-0.0001986741
0.0001521441
-0.0002052576
0.0001486034
-0.0002157314
0.0001461714
-0.0002301058
0.000144864
-0.0002481765
0.0001441149
-0.0002695262
0.0001434223
-0.0002938371
0.0001422356
-0.0003207804
0.0001404179
-0.0003498526
0.0001378216
-0.0003804251
0.0001340718
-0.0004117871
0.0001285607
-0.0004430123
0.0001207465
-0.0004732468
0.0001106152
-0.0005014516
9.777828e-05
-0.0005267256
8.224766e-05
-0.0005490474
6.514608e-05
-0.0005691854
4.73976e-05
-0.0005857245
2.685924e-05
-0.000598543
5.219222e-06
-0.000607333
-1.755196e-05
-0.0006118677
-4.112163e-05
-0.0006122556
-6.52345e-05
-0.000608527
-8.954734e-05
-0.000600757
-0.0001138027
-0.0005890662
-0.0001378067
-0.0005736459
-0.0001614217
-0.0005547643
-0.0001845634
-0.0005327603
-0.0002071754
-0.0005078784
-0.0002294174
-0.0004814651
-0.0002502559
-0.0004519728
-0.0002711642
-0.0004181349
-0.0002939084
-0.0003830384
-0.0003163402
-0.0003484248
-0.0003383937
-0.0003133027
-0.0003603203
-0.0002767459
-0.0003828099
-0.0002387834
-0.0004063969
-0.000199738
-0.0004315449
-0.0001600377
-0.0004589318
-0.0001202023
-0.0004896891
-8.089988e-05
-0.0005257799
-4.229804e-05
-0.0005708824
-0.0006103604
-3.849749e-05
0.0004871523
-7.366499e-05
0.0004442899
-9.97054e-05
0.0004212547
-0.0001166425
0.000399161
-0.0001265693
0.0003746231
-0.0001315857
0.0003486355
-0.0001317563
0.0003216985
-0.0001282461
0.0002958334
-0.000122191
0.0002708368
-0.0001138172
0.0002474205
-0.0001040003
0.0002257013
-9.311895e-05
0.0002059258
-8.149185e-05
0.0001885612
-6.958161e-05
0.0001740328
-5.810913e-05
0.0001626745
-4.798872e-05
0.000154567
-4.013898e-05
0.0001495815
-3.534695e-05
0.0001473527
-3.405851e-05
0.0001473156
-3.692257e-05
0.0001490361
-4.401412e-05
0.0001519561
-5.50162e-05
0.0001551175
-6.941276e-05
0.0001578194
-8.708239e-05
0.0001599058
-0.0001081213
0.0001614574
-0.0001324795
0.0001621803
-0.0001598905
0.0001614834
-0.0001900005
0.0001586713
-0.0002220806
0.0001528271
-0.0002551173
0.0001436524
-0.0002883852
0.0001310466
-0.0003208055
0.0001146685
-0.0003505752
9.491614e-05
-0.0003769153
7.373799e-05
-0.0003992188
4.916304e-05
-0.0004181112
2.411198e-05
-0.0004327989
-2.863915e-06
-0.0004430464
-3.087384e-05
-0.0004487849
-5.949571e-05
-0.0004501477
-8.818429e-05
-0.0004473128
-0.0001166374
-0.0004405095
-0.0001446097
-0.0004300343
-0.0001718966
-0.0004162645
-0.0001983329
-0.0003995876
-0.0002238521
-0.0003808754
-0.0002481294
-0.0003593893
-0.0002717419
-0.0003345947
-0.0002959585
-0.000309259
-0.0003192439
-0.0002836298
-0.0003419692
-0.000257504
-0.0003645192
-0.0002306221
-0.0003872019
-0.0002030333
-0.0004103983
-0.0001748958
-0.0004345341
-0.0001463274
-0.000460113
-0.0001174595
-0.0004877992
-8.85215e-05
-0.0005186266
-5.973858e-05
-0.0005545621
-3.121814e-05
-0.0005994019
-0.0006415785
-3.123405e-05
0.0005183854
-5.520976e-05
0.0004682648
-6.970408e-05
0.0004357484
-7.66834e-05
0.0004061397
-7.885958e-05
0.0003767988
-7.880877e-05
0.0003485843
-7.748302e-05
0.0003203725
-7.429654e-05
0.0002926468
-6.936123e-05
0.0002659015
-6.206393e-05
0.0002401233
-5.19108e-05
0.0002155484
-3.887079e-05
0.000192886
-2.341254e-05
0.0001731033
-6.305342e-06
0.000156926
1.138659e-05
0.000144983
2.842627e-05
0.0001375278
4.3285e-05
0.0001347233
5.470935e-05
0.0001359289
6.196368e-05
0.0001400619
6.51994e-05
0.000145801
6.378855e-05
0.0001533676
5.780105e-05
0.0001611056
4.748122e-05
0.0001681398
3.313059e-05
0.000174257
1.524638e-05
0.0001793422
-5.592472e-06
0.0001830197
-2.88379e-05
0.0001847293
-5.367989e-05
0.0001835138
-7.938209e-05
0.0001785297
-0.000105463
0.0001697337
-0.0001319233
0.0001575073
-0.0001593008
0.0001420463
-0.000187088
0.0001227036
-0.0002132749
9.992517e-05
-0.0002377547
7.364323e-05
-0.0002590984
4.545588e-05
-0.0002771541
1.519207e-05
-0.0002914067
-1.662097e-05
-0.0003015059
-4.939616e-05
-0.0003075027
-8.218726e-05
-0.0003095783
-0.0001145615
-0.0003079723
-0.0001462155
-0.0003029476
-0.0001769211
-0.0002947856
-0.0002064948
-0.0002838463
-0.0002347911
-0.0002699774
-0.0002619981
-0.0002531773
-0.0002885418
-0.0002354705
-0.0003136651
-0.0002169968
-0.0003377173
-0.0001979487
-0.000361017
-0.0001785522
-0.0003839155
-0.0001589412
-0.0004068127
-0.0001392027
-0.0004301366
-0.0001193936
-0.000454343
-9.956367e-05
-0.0004799426
-7.976963e-05
-0.0005075929
-6.009129e-05
-0.0005383045
-4.067825e-05
-0.0005739745
-2.162494e-05
-0.0006184544
-0.0006632033
-2.414249e-05
0.000542527
-4.058778e-05
0.0004847091
-4.890492e-05
0.0004440647
-5.278868e-05
0.0004100228
-5.483072e-05
0.0003788403
-5.567626e-05
0.0003494295
-5.587198e-05
0.0003205679
-5.479121e-05
0.0002915659
-5.135897e-05
0.0002624692
-4.430588e-05
0.0002330703
-3.28945e-05
0.0002041372
-1.693016e-05
0.0001769219
3.419825e-06
0.0001527536
2.769426e-05
0.0001326519
5.481203e-05
0.0001178657
8.331063e-05
0.0001090296
0.0001116193
0.0001064151
0.0001386226
0.0001089262
0.0001626678
0.0001160172
0.0001816957
0.0001267737
0.0001949046
0.0001401592
0.0002019221
0.0001540887
0.0002021955
0.000167867
0.0001955187
0.0001809344
0.0001820651
0.0001927964
0.0001622256
0.0002028598
0.0001368217
0.0002101337
0.0001070639
0.000213272
7.493647e-05
0.0002106576
4.257822e-05
0.0002020924
1.133764e-05
0.0001887482
-1.801223e-05
0.0001713965
-4.582834e-05
0.0001505201
-7.213918e-05
0.0001262363
-9.720586e-05
9.87102e-05
-0.0001196779
6.792818e-05
-0.0001394241
3.49386e-05
-0.0001557524
-2.924582e-07
-0.0001683578
-3.679052e-05
-0.0001774595
-7.308532e-05
-0.0001830926
-0.0001089282
-0.0001852673
-0.0001440406
-0.0001840973
-0.0001780908
-0.0001797962
-0.0002107957
-0.0001726179
-0.0002419692
-0.0001633624
-0.0002712534
-0.0001531738
-0.0002987302
-0.0001421411
-0.0003246976
-0.0001305533
-0.0003493049
-0.0001187199
-0.0003728502
-0.000106836
-0.0003957992
-9.501342e-05
-0.0004186351
-8.330047e-05
-0.0004418493
-7.169974e-05
-0.0004659435
-6.018093e-05
-0.0004914611
-4.86971e-05
-0.0005190764
-3.720701e-05
-0.0005497942
-2.56802e-05
-0.0005855007
-1.401184e-05
-0.000630122
-0.000677215
-1.877599e-05
0.0005613021
-2.895792e-05
0.0004948902
-3.361382e-05
0.0004487198
-3.758892e-05
0.0004139972
-4.240993e-05
0.0003836608
-4.670801e-05
0.0003537272
-4.880982e-05
0.0003226695
-4.780376e-05
0.0002905596
-4.317058e-05
0.0002578359
-3.379838e-05
0.0002236981
-1.881484e-05
0.0001891538
2.707789e-06
0.0001553995
3.1536e-05
0.0001239257
6.615693e-05
9.803134e-05
0.0001042696
7.975345e-05
0.0001431324
7.016724e-05
0.0001821934
6.735466e-05
0.0002203743
7.074594e-05
0.0002562264
8.016575e-05
0.0002882933
9.47075e-05
0.000316928
0.0001115252
0.0003404504
0.000130567
0.0003572383
0.0001510798
0.0003659355
0.000172238
0.0003654889
0.0001932435
0.0003552477
0.0002131016
0.0003353521
0.0002300299
0.0003067572
0.0002418674
0.0002700824
0.000247333
0.0002280078
0.0002441674
0.0001843154
0.0002324411
0.0001417026
0.0002140098
0.0001018904
0.0001903327
6.576362e-05
0.0001623634
3.372098e-05
0.0001307532
5.697197e-06
9.595229e-05
-1.778777e-05
5.842389e-05
-3.681654e-05
1.87366e-05
-5.143223e-05
-2.217456e-05
-6.25224e-05
-6.19949e-05
-7.052409e-05
-0.0001009263
-7.5691e-05
-0.0001388735
-7.814858e-05
-0.000175633
-7.811157e-05
-0.0002108325
-7.600895e-05
-0.0002440716
-7.203562e-05
-0.0002752265
-6.665884e-05
-0.0003041068
-6.087288e-05
-0.0003304834
-5.511745e-05
-0.0003550601
-4.955002e-05
-0.0003784174
-4.423555e-05
-0.0004011135
-3.918027e-05
-0.0004236901
-3.435322e-05
-0.0004466762
-2.969931e-05
-0.0004705971
-2.514638e-05
-0.0004960138
-2.06238e-05
-0.0005235987
-1.608558e-05
-0.0005543321
-1.156479e-05
-0.000590021
-7.103892e-06
-0.0006345822
-0.0006843189
-1.572972e-05
0.0005770306
-2.253658e-05
0.0005016959
-2.685577e-05
0.000453038
-3.150012e-05
0.0004186408
-3.573377e-05
0.0003878938
-3.839007e-05
0.0003563829
-3.888402e-05
0.0003231631
-3.579634e-05
0.0002874717
-2.731474e-05
0.0002493542
-1.248017e-05
0.0002088635
1.081171e-05
0.0001658619
4.497512e-05
0.0001212363
8.901154e-05
7.988955e-05
0.0001349773
5.20659e-05
0.0001815589
3.317215e-05
0.000228279
2.344757e-05
0.0002748364
2.079777e-05
0.0003203332
2.524963e-05
0.0003644136
3.608599e-05
0.0004064175
5.270425e-05
0.0004450858
7.285762e-05
0.000478939
9.67145e-05
0.0005069141
0.0001231054
0.0005276131
0.0001515397
0.0005396133
0.0001812439
0.0005414918
0.0002112237
0.0005321584
0.0002393639
0.0005104981
0.0002635282
0.0004763186
0.0002815128
0.0004297867
0.0002906997
0.0003747416
0.0002874867
0.000316911
0.0002718408
0.0002608512
0.000246393
0.0002092401
0.0002139749
0.0001631269
0.0001768668
0.0001230552
0.0001360244
8.981023e-05
9.166921e-05
6.385651e-05
4.469066e-05
4.490203e-05
-3.21979e-06
3.067114e-05
-4.776375e-05
2.069931e-05
-9.095419e-05
1.354927e-05
-0.0001317233
8.450971e-06
-0.0001705345
4.951242e-06
-0.0002073326
2.498229e-06
-0.0002416184
4.47463e-07
-0.0002731756
-1.421132e-06
-0.000302238
-2.761266e-06
-0.0003291431
-3.74219e-06
-0.000354079
-4.513487e-06
-0.000377646
-5.191887e-06
-0.0004004349
-5.842523e-06
-0.0004230393
-6.477159e-06
-0.0004460413
-7.056069e-06
-0.000470018
-7.494528e-06
-0.0004955751
-7.657965e-06
-0.000523435
-7.331393e-06
-0.0005546584
-6.195564e-06
-0.0005911562
-3.782852e-06
-0.0006369942
-0.0006881016
-1.176128e-05
0.0005887907
-1.640005e-05
0.0005063335
-1.92969e-05
0.0004559339
-2.101976e-05
0.0004203628
-2.154108e-05
0.0003884144
-2.046248e-05
0.0003553038
-1.568047e-05
0.0003183807
-5.547905e-06
0.0002773389
1.110333e-05
0.0002327028
3.747025e-05
0.0001824965
7.827248e-05
0.0001250598
0.0001330911
6.641783e-05
0.0001878289
2.515197e-05
0.0002421783
-2.283246e-06
0.0002967272
-2.137635e-05
0.0003515097
-3.133452e-05
0.0004042529
-3.194485e-05
0.0004539622
-2.445915e-05
0.0004994472
-9.398383e-06
0.0005403956
1.175651e-05
0.0005763938
3.686001e-05
0.0006071933
6.591573e-05
0.0006320249
9.827435e-05
0.0006506875
0.0001328777
0.0006630071
0.0001689249
0.0006679444
0.0002062869
0.0006632185
0.0002440903
0.0006467524
0.0002799948
0.0006193356
0.0003089301
0.0005810941
0.0003289416
0.000531201
0.0003373802
0.000471412
0.0003316302
0.0004072896
0.0003105159
0.0003446442
0.0002766208
0.000287593
0.0002339185
0.0002377376
0.0001858803
0.0001956516
0.0001337557
0.000162471
7.787162e-05
0.0001389517
2.029992e-05
0.0001238581
-3.266985e-05
0.0001119498
-7.90457e-05
0.0001034685
-0.0001232418
9.743728e-05
-0.0001645031
9.328137e-05
-0.0002031765
9.021625e-05
-0.0002385531
8.730667e-05
-0.0002702658
8.399687e-05
-0.000298928
8.008749e-05
-0.0003252335
7.551172e-05
-0.0003495031
7.020685e-05
-0.0003723409
6.41723e-05
-0.0003944002
5.746883e-05
-0.0004163357
5.020841e-05
-0.0004387807
4.253974e-05
-0.0004623491
3.463666e-05
-0.0004876718
2.669535e-05
-0.0005154934
1.890444e-05
-0.0005468671
1.145543e-05
-0.0005837067
4.483694e-06
-0.0006300216
-0.0006836178
-7.02712e-06
0.0005958166
-9.420866e-06
0.0005087258
-9.138655e-06
0.0004556503
-7.698287e-06
0.0004189215
-4.187505e-06
0.0003849031
4.06154e-06
0.0003470543
1.840878e-05
0.0003040331
3.89373e-05
0.00025681
6.884313e-05
0.0002027968
0.0001151813
0.0001361582
0.0001802825
5.995869e-05
0.000242272
4.428384e-06
0.0003000425
-3.261837e-05
0.0003573288
-5.95693e-05
0.0004106781
-7.472533e-05
0.0004582468
-7.890279e-05
0.000500173
-7.387069e-05
0.0005372163
-6.1502e-05
0.0005702399
-4.242153e-05
0.0005950686
-1.307173e-05
0.0006185114
1.341764e-05
0.0006378322
4.659544e-05
0.0006529408
8.316619e-05
0.0006640564
0.0001217626
0.0006710331
0.0001619486
0.0006728463
0.0002044743
0.0006674533
0.0002494837
0.0006544827
0.0002929657
0.0006341407
0.0003292725
0.0006072032
0.0003558794
0.0005731495
0.0003714343
0.000531937
0.000372843
0.0004828162
0.0003596372
0.0004283811
0.0003310563
0.0003742821
0.000288018
0.0003249394
0.0002352234
0.0002825399
0.0001761556
0.000248475
0.000111937
0.0002246066
4.416872e-05
0.0002116902
-1.975322e-05
0.0002005511
-6.790638e-05
0.0001915172
-0.0001142077
0.0001836946
-0.0001566802
0.0001761922
-0.0001956738
0.0001687756
-0.0002311364
0.0001612442
-0.0002627342
0.0001530093
-0.000290693
0.0001435575
-0.0003157815
0.0001328829
-0.0003388283
0.0001211041
-0.000360562
0.0001084175
-0.0003817133
9.505448e-05
-0.0004029725
8.127508e-05
-0.0004250011
6.736571e-05
-0.0004484396
5.362676e-05
-0.0004739326
4.037074e-05
-0.0005022372
2.793052e-05
-0.0005344266
1.663674e-05
-0.0005724125
7.066739e-06
-0.000620451
-0.000676551
-1.780806e-06
0.0005975961
-1.904607e-06
0.0005088484
3.612792e-08
0.0004537087
5.628205e-06
0.0004133287
1.704134e-05
0.0003734893
3.503562e-05
0.0003290595
5.891383e-05
0.0002801545
9.071708e-05
0.0002250065
0.000138668
0.0001548456
0.0002095428
6.528345e-05
0.0002737517
-4.250153e-06
0.0003261872
-4.800699e-05
0.0003744507
-8.088172e-05
0.0004162932
-0.0001014115
0.0004516562
-0.0001100879
0.0004810438
-0.0001082901
0.0005047419
-9.756837e-05
0.0005235088
-8.026854e-05
0.0005390551
-5.796739e-05
0.0005516145
-2.563079e-05
0.0005607215
4.311079e-06
0.0005711606
3.615684e-05
0.000579752
7.457526e-05
0.0005860876
0.0001154274
0.0005897267
0.00015831
0.0005892865
0.0002049149
0.0005824781
0.0002562925
0.0005696381
0.0003058062
0.0005522984
0.0003466126
0.0005331287
0.0003750494
0.0005136005
0.0003909627
0.0004934629
0.000392981
0.0004700394
0.000383061
0.0004418885
0.0003592077
0.000410349
0.000319558
0.00037854
0.0002670329
0.0003488046
0.0002058914
0.0003232977
0.0001374444
0.000304964
6.250276e-05
0.0002947549
-9.543761e-06
0.0002859478
-5.90991e-05
0.0002776657
-0.0001059254
0.000268918
-0.0001479323
0.0002591031
-0.0001858588
0.0002474338
-0.0002194668
0.0002340851
-0.0002493854
0.0002192491
-0.0002758568
0.0002030686
-0.0002996007
0.0001857287
-0.0003214883
0.000167507
-0.00034234
0.000148705
-0.0003629112
0.0001296207
-0.0003838879
0.0001105512
-0.0004059315
9.178804e-05
-0.0004296761
7.360762e-05
-0.000455752
5.627303e-05
-0.0004849023
4.00382e-05
-0.0005181915
2.515231e-05
-0.0005575261
1.175538e-05
-0.0006070535
-0.0006647956
1.421375e-08
0.0005975803
1.403393e-06
0.0005074578
6.224014e-06
0.0004488872
1.764138e-05
0.0004019105
3.607935e-05
0.0003550507
6.063264e-05
0.0003045056
9.263201e-05
0.0002481546
0.0001394143
0.0001782237
0.0002094715
8.478817e-05
0.0002708095
3.945327e-06
0.0003135091
-4.694976e-05
0.0003504945
-8.499225e-05
0.0003783094
-0.0001086964
0.0003972257
-0.0001203276
0.0004090026
-0.0001218645
0.0004161016
-0.0001153887
0.0004200025
-0.000101469
0.0004215586
-8.182432e-05
0.0004214346
-5.784299e-05
0.0004253732
-2.95691e-05
0.0004270048
2.679863e-06
0.0004315363
3.16257e-05
0.0004369045
6.920742e-05
0.0004419667
0.0001103656
0.0004457429
0.0001545343
0.0004475983
0.00020306
0.0004469813
0.00025691
0.0004449074
0.0003078805
0.0004421724
0.0003493479
0.0004383104
0.0003789118
0.0004339352
0.0003953382
0.0004292433
0.0003976732
0.0004238205
0.0003884842
0.0004174662
0.0003655623
0.0004099523
0.0003270724
0.0004016799
0.0002753057
0.0003927047
0.000214867
0.0003832818
0.0001468678
0.0003749185
7.086645e-05
0.0003690055
-3.630503e-06
0.0003616012
-5.169458e-05
0.0003525163
-9.684025e-05
0.0003413641
-0.0001367799
0.0003277978
-0.0001722924
0.0003117335
-0.0002034023
0.0002931726
-0.0002308243
0.0002725893
-0.0002552733
0.0002505045
-0.0002775158
0.000227403
-0.0002983866
0.0002037167
-0.0003186534
0.0001797851
-0.0003389795
0.0001558678
-0.0003599704
0.0001322374
-0.0003823009
0.0001092497
-0.0004066882
8.724728e-05
-0.0004337493
6.648964e-05
-0.0004641444
4.71928e-05
-0.0004988943
2.952839e-05
-0.0005398613
1.366142e-05
-0.0005911859
-0.0006511341
-5.450157e-07
0.0005981242
3.298579e-07
0.0005065818
7.470106e-06
0.000441746
2.145676e-05
0.000387923
4.234973e-05
0.000334157
7.148535e-05
0.0002753694
0.0001132143
0.0002064251
0.0001705393
0.0001208984
0.0002309558
2.437148e-05
0.0002638341
-2.893304e-05
0.0002874565
-7.05721e-05
0.0003000641
-9.759969e-05
0.0003033997
-0.0001120318
0.00029885
-0.0001157777
0.0002889908
-0.000112005
0.0002758709
-0.0001022686
0.0002625493
-8.814696e-05
0.000250956
-7.023074e-05
0.0002421378
-4.902445e-05
0.0002370784
-2.450943e-05
0.0002361154
3.643218e-06
0.0002350466
3.269481e-05
0.0002367128
6.754154e-05
0.0002408944
0.0001061844
0.0002470822
0.0001483468
0.0002554088
0.0001947338
0.0002667621
0.0002455571
0.000281077
0.000293566
0.0002983511
0.0003320742
0.0003177023
0.000359561
0.0003372891
0.0003757518
0.0003553706
0.0003795919
0.0003716804
0.0003721748
0.0003872832
0.0003499598
0.0004014053
0.0003129507
0.0004126677
0.0002640437
0.0004210461
0.0002064891
0.0004265395
0.0001413748
0.0004289184
6.848791e-05
0.0004272042
-1.916051e-06
0.0004209592
-4.54494e-05
0.0004105129
-8.639375e-05
0.0003962381
-0.000122505
0.0003781637
-0.0001542178
0.0003569745
-0.0001822129
0.0003332903
-0.0002071399
0.0003077514
-0.0002297343
0.0002809259
-0.0002506901
0.0002532961
-0.0002707566
0.0002253087
-0.0002906658
0.0001973444
-0.000311015
0.0001697165
-0.0003323423
0.0001427279
-0.0003553121
0.0001168208
-0.000380781
9.256698e-05
-0.0004094952
7.033376e-05
-0.0004419109
5.009006e-05
-0.0004786503
3.169397e-05
-0.0005214647
1.505594e-05
-0.0005745473
-0.0006360781
-3.769183e-06
0.0006018923
-4.055298e-06
0.0005068669
2.206549e-06
0.0004354831
1.575706e-05
0.0003743716
3.786417e-05
0.0003120491
7.174495e-05
0.0002414879
0.0001186122
0.0001595571
0.0001675791
7.193096e-05
0.0001949655
-3.015217e-06
0.0002089477
-4.291531e-05
0.0002107247
-7.234902e-05
0.0002021253
-8.900015e-05
0.0001857988
-9.57052e-05
0.0001653344
-9.531307e-05
0.000143077
-8.974737e-05
0.0001209945
-8.018577e-05
0.0001000555
-6.720764e-05
8.128541e-05
-5.146042e-05
6.504309e-05
-3.278186e-05
5.170227e-05
-1.116835e-05
4.150046e-05
1.384531e-05
3.286754e-05
4.1328e-05
2.822314e-05
7.218624e-05
2.84693e-05
0.0001059385
3.468363e-05
0.0001421329
4.840873e-05
0.0001810091
7.051975e-05
0.0002234465
9.91046e-05
0.0002649815
0.0001322908
0.0002988883
0.0001692358
0.0003226164
0.0002091649
0.000335823
0.0002504274
0.0003383298
0.0002920889
0.0003305137
0.0003333496
0.0003086995
0.0003713909
0.0002749098
0.0004037269
0.0002317081
0.0004298725
0.000180344
0.0004494604
0.0001217872
0.0004601926
5.7756e-05
0.0004602899
-2.013115e-06
0.0004536659
-3.882521e-05
0.0004412703
-7.399805e-05
0.0004238889
-0.0001051234
0.0004024964
-0.0001328251
0.0003778471
-0.0001575635
0.0003507483
-0.0001800409
0.000322008
-0.0002009938
0.000292286
-0.0002209679
0.000261999
-0.0002404694
0.000231448
-0.0002601147
0.0002009786
-0.0002805455
0.0001710465
-0.0003024099
0.0001421863
-0.0003264517
0.0001149871
-0.0003535815
9.01504e-05
-0.0003846582
6.816866e-05
-0.0004199289
4.865405e-05
-0.0004591354
3.086503e-05
-0.0005036752
1.458629e-05
-0.000558268
-0.0006214917
-7.095059e-06
0.0006089864
-1.051077e-05
0.0005102816
-6.880063e-06
0.0004318514
5.847221e-06
0.0003616434
3.009178e-05
0.0002878037
6.564246e-05
0.0002059364
0.0001046412
0.0001205578
0.0001318406
4.47311e-05
0.0001376819
-8.85665e-06
0.0001337064
-3.893979e-05
0.000120367
-5.900947e-05
0.0001005373
-6.917036e-05
7.703125e-05
-7.219888e-05
5.187188e-05
-7.015343e-05
2.631825e-05
-6.419344e-05
1.226304e-06
-5.509352e-05
-2.26031e-05
-4.337792e-05
-4.477855e-05
-2.928467e-05
-6.534951e-05
-1.221059e-05
-8.365848e-05
7.140923e-06
-9.89362e-05
2.912334e-05
-0.0001108958
5.328794e-05
-0.0001183613
7.965206e-05
-0.000120337
0.0001079145
-0.0001156558
0.000137452
-0.0001021069
0.0001674605
-7.697369e-05
0.0001983138
-4.089373e-05
0.000228902
3.088979e-06
0.0002549061
5.257175e-05
0.0002731341
0.0001061491
0.000282246
0.0001622521
0.0002822273
0.000219832
0.0002729342
0.0002763281
0.0002522039
0.0003290722
0.0002221661
0.000376318
0.0001844628
0.0004157796
0.0001408828
0.0004442046
9.336248e-05
0.0004579103
4.405057e-05
0.0004571893
-1.291889e-06
0.0004491382
-3.077391e-05
0.000434899
-5.975873e-05
0.0004158691
-8.609324e-05
0.0003930108
-0.0001099667
0.0003672395
-0.000131792
0.0003392669
-0.0001520681
0.0003096832
-0.0001714099
0.0002790859
-0.0001903704
0.0002480442
-0.0002094275
0.000217032
-0.0002291022
0.0001864994
-0.0002500126
0.0001569721
-0.0002728824
0.0001290852
-0.0002985646
0.0001035055
-0.0003280016
8.078554e-05
-0.0003619379
6.109547e-05
-0.0004002385
4.377958e-05
-0.0004418191
2.793376e-05
-0.000487829
1.331846e-05
-0.0005436521
-0.0006081732
-8.768221e-06
0.0006177535
-1.527123e-05
0.0005167833
-1.368314e-05
0.0004302621
-4.54191e-07
0.0003484134
2.41452e-05
0.0002632033
5.379449e-05
0.0001762862
7.672035e-05
9.763127e-05
8.366638e-05
3.77847e-05
7.65859e-05
-1.776322e-06
6.290154e-05
-2.525544e-05
4.334052e-05
-3.944833e-05
2.030417e-05
-4.613381e-05
-4.434069e-06
-4.746039e-05
-2.976871e-05
-4.48185e-05
-5.491586e-05
-3.904598e-05
-7.93293e-05
-3.067976e-05
-0.000102754
-1.995288e-05
-0.0001250882
-6.950156e-06