/*--------------------------------*- C++ -*----------------------------------*\
| =========                 |                                                 |
| \\      /  F ield         | OpenFOAM: The Open Source CFD Toolbox           |
|  \\    /   O peration     | Version:  2312                                  |
|   \\  /    A nd           | Website:  www.openfoam.com                      |
|    \\/     M anipulation  |                                                 |
\*---------------------------------------------------------------------------*/
FoamFile
{
    version     2.0;
    format      ascii;
    arch        "LSB;label=32;scalar=64";
    class       volScalarField;
    location    "500";
    object      qin;
}
// * * * * * * * * * * * * * * * * * * * * * * * * * * * * * * * * * * * * * //

dimensions      [1 0 -3 0 0 0 0];

internalField   uniform 0;

boundaryField
{
    plate
    {
        type            calculated;
        value           nonuniform List<scalar> 
200
(
2626.767
2588.801
2584.081
2574.612
2557.83
2545.045
2542.878
2551.717
2567.929
2585.982
2600.14
2606.62
2605.113
2598.588
2591.839
2589.727
2595.541
2609.724
2629.509
2649.968
2666.172
2675.329
2677.738
2676.161
2674.204
2674.677
2678.687
2685.603
2693.675
2700.935
2706.057
2708.894
2710.488
2712.529
2716.504
2722.961
2731.25
2739.855
2747.122
2751.994
2754.429
2755.336
2756.138
2758.167
2762.177
2768.119
2775.232
2782.37
2788.418
2792.639
2794.839
2795.319
2794.683
2793.578
2792.5
2791.706
2791.244
2791.055
2791.08
2791.318
2791.827
2792.672
2793.868
2795.339
2796.923
2798.412
2799.618
2800.423
2800.811
2800.855
2800.683
2800.432
2800.202
2800.032
2799.905
2799.761
2799.528
2799.145
2798.577
2797.822
2796.905
2795.87
2794.774
2793.674
2792.629
2791.696
2790.928
2790.374
2790.074
2790.056
2790.331
2790.899
2791.741
2792.825
2794.107
2795.533
2797.044
2798.585
2800.106
2801.561
2802.919
2804.156
2805.262
2806.245
2807.124
2807.93
2808.707
2809.502
2810.362
2811.331
2812.44
2813.709
2815.143
2816.731
2818.449
2820.261
2822.121
2823.977
2825.775
2827.46
2828.98
2830.295
2831.384
2832.25
2832.926
2833.469
2833.953
2834.439
2834.96
2835.503
2836.006
2836.373
2836.504
2836.335
2835.867
2835.175
2834.396
2833.685
2833.167
2832.905
2832.894
2833.086
2833.439
2833.955
2834.688
2835.7
2836.977
2838.346
2839.44
2839.752
2838.781
2836.236
2832.208
2827.234
2822.188
2818.011
2815.349
2814.229
2813.928
2813.164
2810.604
2805.543
2798.467
2791.162
2786.171
2785.758
2790.795
2800.179
2811.148
2820.414
2825.567
2826.058
2823.292
2819.867
2818.353
2820.104
2824.495
2828.857
2829.335
2822.693
2808.569
2790.944
2777.448
2776.125
2791.148
2820.233
2855.628
2887.969
2910.331
2920.147
2918.815
2910.788
2904.082
2911.252
2945.673
3010.905
3094.379
3177.995
3268.066
3419.543
)
;
    }
    riser
    {
        type            calculated;
        value           nonuniform List<scalar> 
200
(
5271.311
5284.482
5338.703
5570.004
5956.833
6312.679
6491.624
6509.247
6464.554
6426.668
6416.955
6449.449
6548.264
6725.617
6956.894
7185.041
7352.427
7433.088
7441.023
7412.904
7382.826
7367.333
7365.866
7369.846
7371.547
7368.697
7365.426
7371.069
7397.295
7453.61
7542.467
7656.379
7779.088
7890.818
7975.239
8024.825
8042.183
8037.273
8022.402
8007.6
7998.228
7995.111
7996.305
7999.165
8001.748
8003.266
8003.837
8003.972
8004.153
8004.621
8005.376
8006.266
8007.104
8007.751
8008.16
8008.37
8008.477
8008.591
8008.794
8009.116
8009.536
8009.998
8010.438
8010.812
8011.104
8011.329
8011.515
8011.687
8011.858
8012.024
8012.167
8012.274
8012.343
8012.393
8012.464
8012.611
8012.889
8013.344
8013.997
8014.843
8015.833
8016.868
8017.794
8018.387
8018.358
8017.363
8015.028
8010.987
8004.936
7996.689
7986.227
7973.738
7959.634
7944.551
7929.312
7914.872
7902.233
7892.346
7886.017
7883.818
7886.033
7892.63
7903.257
7917.281
7933.849
7951.968
7970.61
7988.801
8005.705
8020.684
8033.331
8043.47
8051.138
8056.541
8060.004
8061.911
8062.66
8062.624
8062.12
8061.403
8060.656
8060.001
8059.501
8059.175
8058.999
8058.93
8058.908
8058.876
8058.793
8058.642
8058.431
8058.183
8057.927
8057.679
8057.432
8057.158
8056.82
8056.388
8055.858
8055.263
8054.661
8054.109
8053.642
8053.241
8052.839
8052.343
8051.676
8050.829
8049.886
8049.028
8048.473
8048.393
8048.794
8049.437
8049.849
8049.499
8048.159
8046.333
8045.494
8047.782
8054.956
8066.79
8079.612
8086.014
8076.471
8042.746
7981.78
7898.119
7803.34
7712.358
7638.249
7588.022
7561.235
7551.665
7550.713
7550.839
7548.072
7543.357
7542.264
7551.722
7573.145
7594.878
7590.864
7531.346
7402.556
7221.677
7032.495
6881.157
6789.926
6751.28
6746.449
6764.359
6789.929
6770.402
6624.003
6327.753
5987.782
5756.593
5666.731
5622.386
)
;
    }
    topAndBottom
    {
        type            calculated;
        value           nonuniform List<scalar> 
120
(
5581.771
5566.702
5555.726
5546.738
5540.262
5535.093
5530.232
5525.304
5520.591
5516.544
5513.356
5510.867
5508.754
5506.748
5504.724
5502.67
5500.608
5498.562
5496.563
5494.642
5492.823
5491.095
5489.404
5487.666
5485.79
5483.701
5481.337
5478.651
5475.607
5472.181
5468.379
5464.255
5459.927
5455.565
5451.35
5447.4
5443.678
5439.955
5435.853
5431.001
5425.237
5418.745
5412.031
5405.743
5400.408
5396.221
5392.919
5389.728
5385.426
5378.635
5368.471
5355.331
5341.171
5328.612
5318.998
5310.78
5300.231
5284.956
5268.256
5255.48
5485.812
5477.009
5471.873
5467.163
5463.742
5461.059
5458.701
5456.472
5454.478
5452.885
5451.701
5450.758
5449.854
5448.882
5447.866
5446.894
5446.041
5445.324
5444.715
5444.162
5443.612
5443.012
5442.308
5441.448
5440.375
5439.028
5437.335
5435.214
5432.583
5429.388
5425.625
5421.372
5416.795
5412.136
5407.647
5403.482
5399.587
5395.658
5391.212
5385.801
5379.267
5371.901
5364.389
5357.56
5352.055
5348.065
5345.193
5342.414
5338.167
5330.763
5319.224
5304.245
5288.452
5275.154
5265.873
5258.461
5248.275
5232.733
5216.082
5205.37
)
;
    }
    frontAndBack
    {
        type            empty;
    }
}


// ************************************************************************* //
