/*--------------------------------*- C++ -*----------------------------------*\
| =========                 |                                                 |
| \\      /  F ield         | OpenFOAM: The Open Source CFD Toolbox           |
|  \\    /   O peration     | Version:  2312                                  |
|   \\  /    A nd           | Website:  www.openfoam.com                      |
|    \\/     M anipulation  |                                                 |
\*---------------------------------------------------------------------------*/
FoamFile
{
    version     2.0;
    format      ascii;
    arch        "LSB;label=32;scalar=64";
    class       volVectorField;
    location    "500";
    object      U;
}
// * * * * * * * * * * * * * * * * * * * * * * * * * * * * * * * * * * * * * //

dimensions      [0 1 -1 0 0 0 0];

internalField   nonuniform List<vector> 
12000
(
(-0.02783999 0.05376203 0)
(-0.05508954 0.0551925 0)
(-0.08731073 0.07975447 0)
(-0.1314708 0.0806432 0)
(-0.1707722 0.05379727 0)
(-0.2023802 0.01993817 0)
(-0.2252315 0.01083613 0)
(-0.2498423 0.03765528 0)
(-0.2854183 0.07856448 0)
(-0.3298166 0.1065007 0)
(-0.3738848 0.0926747 0)
(-0.4083038 0.04198149 0)
(-0.4295271 0.005311578 0)
(-0.4453408 0.00897604 0)
(-0.4642655 0.04060938 0)
(-0.4908713 0.06834792 0)
(-0.5202267 0.06821128 0)
(-0.5456487 0.0387641 0)
(-0.5616444 0.003927508 0)
(-0.5703186 -0.006545299 0)
(-0.579845 0.01891406 0)
(-0.5966602 0.05309184 0)
(-0.6183529 0.05105616 0)
(-0.6339924 0.009413188 0)
(-0.6384062 -0.01899141 0)
(-0.6409637 0.002634853 0)
(-0.6516244 0.03594714 0)
(-0.665519 0.02823654 0)
(-0.6723511 -0.00310298 0)
(-0.6729925 -0.008060477 0)
(-0.6756798 0.008711591 0)
(-0.6807484 0.01083292 0)
(-0.6824578 0.001085591 0)
(-0.6822407 -0.008312003 0)
(-0.6788206 -0.02245582 0)
(-0.6707561 -0.02562539 0)
(-0.6634296 -0.003509725 0)
(-0.6621148 0.02297069 0)
(-0.6615216 0.007334536 0)
(-0.6520219 -0.04967031 0)
(-0.6292896 -0.0649286 0)
(-0.6112649 -0.004328506 0)
(-0.6081157 0.03504243 0)
(-0.6025944 -0.01105862 0)
(-0.5809625 -0.06921641 0)
(-0.5528946 -0.05513696 0)
(-0.5331914 -0.006158613 0)
(-0.5194748 -0.003997429 0)
(-0.4980945 -0.04553073 0)
(-0.467109 -0.06392585 0)
(-0.4364147 -0.0461797 0)
(-0.4075228 -0.03423239 0)
(-0.3764462 -0.04542358 0)
(-0.3404397 -0.06843446 0)
(-0.2981621 -0.08118149 0)
(-0.2569917 -0.06810458 0)
(-0.2037171 -0.07644105 0)
(-0.1580294 -0.08691917 0)
(-0.08556505 -0.1022999 0)
(-0.03687799 -0.08623174 0)
(-0.02873771 0.1574908 0)
(-0.05405842 0.1299607 0)
(-0.08993459 0.1416687 0)
(-0.1155452 0.1566336 0)
(-0.1488271 0.152208 0)
(-0.1840024 0.137373 0)
(-0.2229587 0.1268324 0)
(-0.2583152 0.1333063 0)
(-0.2832748 0.1498568 0)
(-0.3039426 0.1454547 0)
(-0.3206163 0.1325082 0)
(-0.340214 0.1161225 0)
(-0.3681846 0.1003217 0)
(-0.3967023 0.09083803 0)
(-0.4187632 0.08951801 0)
(-0.4328138 0.09114748 0)
(-0.4416384 0.08834512 0)
(-0.451454 0.07854533 0)
(-0.4659853 0.06639736 0)
(-0.4840418 0.05837156 0)
(-0.4996635 0.05621315 0)
(-0.5075126 0.05724837 0)
(-0.5102364 0.0553702 0)
(-0.5163016 0.04721251 0)
(-0.5294732 0.0388369 0)
(-0.5431375 0.03524586 0)
(-0.5491639 0.0344964 0)
(-0.5506752 0.0311133 0)
(-0.5558575 0.02404669 0)
(-0.5645181 0.01774948 0)
(-0.5701595 0.01347373 0)
(-0.5714351 0.009161136 0)
(-0.5722507 0.003641577 0)
(-0.5733806 -0.0029173 0)
(-0.574683 -0.01066898 0)
(-0.576781 -0.01767856 0)
(-0.5766492 -0.02031484 0)
(-0.5684328 -0.02680679 0)
(-0.5553431 -0.03539806 0)
(-0.5490116 -0.04335875 0)
(-0.5484471 -0.0509526 0)
(-0.5431835 -0.05494347 0)
(-0.5228828 -0.05788408 0)
(-0.499393 -0.0646927 0)
(-0.4874505 -0.07406335 0)
(-0.4792496 -0.08139502 0)
(-0.4614419 -0.08737943 0)
(-0.4342749 -0.09444707 0)
(-0.4094967 -0.1035782 0)
(-0.39027 -0.1134035 0)
(-0.3691893 -0.1235712 0)
(-0.3415917 -0.1360591 0)
(-0.3125801 -0.1463059 0)
(-0.2831152 -0.1528561 0)
(-0.2557768 -0.1616721 0)
(-0.2200268 -0.1968768 0)
(-0.1737971 -0.2151293 0)
(-0.1405835 -0.2323252 0)
(-0.07660214 -0.2662558 0)
(-0.04040636 -0.2741574 0)
(-0.02591967 0.2879728 0)
(-0.04671215 0.2439557 0)
(-0.08044162 0.239532 0)
(-0.1037383 0.2465995 0)
(-0.1306103 0.2444592 0)
(-0.1576836 0.230113 0)
(-0.1860656 0.2156076 0)
(-0.2123758 0.2083792 0)
(-0.232971 0.2035955 0)
(-0.247798 0.2027677 0)
(-0.2623822 0.1966203 0)
(-0.2797741 0.1802025 0)
(-0.2954994 0.1641652 0)
(-0.3119974 0.1507868 0)
(-0.3271794 0.1398047 0)
(-0.3396563 0.1301726 0)
(-0.3497666 0.120184 0)
(-0.3591114 0.1092608 0)
(-0.3688683 0.09852383 0)
(-0.3789641 0.08939312 0)
(-0.3885385 0.08330891 0)
(-0.3970277 0.07996092 0)
(-0.4044409 0.0756469 0)
(-0.4118698 0.06815772 0)
(-0.4203109 0.06044265 0)
(-0.4291295 0.05600561 0)
(-0.4369657 0.05347792 0)
(-0.4437956 0.048487 0)
(-0.4505724 0.04077168 0)
(-0.4574657 0.03296583 0)
(-0.4636283 0.02571398 0)
(-0.4684167 0.01749686 0)
(-0.4720834 0.008189157 0)
(-0.4746088 -0.00145829 0)
(-0.4760412 -0.01132022 0)
(-0.4765353 -0.01807572 0)
(-0.4754453 -0.02932483 0)
(-0.4725537 -0.03958605 0)
(-0.4685468 -0.05075058 0)
(-0.4631997 -0.06291673 0)
(-0.4567857 -0.07464248 0)
(-0.4484573 -0.08484756 0)
(-0.4375489 -0.09517145 0)
(-0.4246868 -0.1067038 0)
(-0.4108181 -0.1187646 0)
(-0.3956848 -0.1300184 0)
(-0.378387 -0.1403382 0)
(-0.3592133 -0.1516376 0)
(-0.339239 -0.1645857 0)
(-0.3168934 -0.1781096 0)
(-0.2961198 -0.1852874 0)
(-0.2761799 -0.1919795 0)
(-0.2467426 -0.2110807 0)
(-0.2256781 -0.227813 0)
(-0.1879683 -0.2648122 0)
(-0.1606064 -0.2878903 0)
(-0.1301302 -0.3137498 0)
(-0.09698098 -0.3507569 0)
(-0.0573322 -0.3939888 0)
(-0.02402314 -0.4066589 0)
(-0.01715913 0.3690182 0)
(-0.03572432 0.310055 0)
(-0.05720422 0.3039248 0)
(-0.07977152 0.3077535 0)
(-0.09820296 0.3063873 0)
(-0.117331 0.2989186 0)
(-0.1395157 0.2833464 0)
(-0.157675 0.2669332 0)
(-0.1715857 0.2548697 0)
(-0.1882853 0.2403494 0)
(-0.1992662 0.2264204 0)
(-0.2086466 0.2106655 0)
(-0.2189001 0.1939064 0)
(-0.227781 0.1818622 0)
(-0.2370667 0.1696768 0)
(-0.2452579 0.1575248 0)
(-0.2537904 0.144548 0)
(-0.2616874 0.1335161 0)
(-0.2698642 0.1230144 0)
(-0.2784168 0.1137447 0)
(-0.2869329 0.107007 0)
(-0.295036 0.1022035 0)
(-0.3025621 0.0974905 0)
(-0.3099971 0.09192933 0)
(-0.3179246 0.086154 0)
(-0.3261674 0.08090348 0)
(-0.3340672 0.07569023 0)
(-0.3414986 0.06948195 0)
(-0.3488728 0.06199009 0)
(-0.3562922 0.05348545 0)
(-0.3633433 0.04382631 0)
(-0.3695383 0.03259744 0)
(-0.3748776 0.02036216 0)
(-0.3792964 0.007694487 0)
(-0.3826461 -0.005581803 0)
(-0.3844375 -0.01928788 0)
(-0.3843777 -0.03343597 0)
(-0.3834415 -0.04464651 0)
(-0.3807472 -0.06180334 0)
(-0.3766956 -0.0779427 0)
(-0.3713054 -0.0937649 0)
(-0.364387 -0.1093714 0)
(-0.3557925 -0.1249961 0)
(-0.3456558 -0.1408833 0)
(-0.3341919 -0.1571378 0)
(-0.3214062 -0.1737088 0)
(-0.3072115 -0.1902852 0)
(-0.2916493 -0.2066673 0)
(-0.2742645 -0.222168 0)
(-0.2570762 -0.2330152 0)
(-0.2405512 -0.244932 0)
(-0.2136044 -0.272352 0)
(-0.19081 -0.2948993 0)
(-0.1646555 -0.3175729 0)
(-0.1406852 -0.3396713 0)
(-0.1176811 -0.3638061 0)
(-0.09262932 -0.3936727 0)
(-0.06799184 -0.4296837 0)
(-0.04085941 -0.4742467 0)
(-0.01673288 -0.4993491 0)
(-0.01078208 0.4350893 0)
(-0.02792873 0.3700411 0)
(-0.04725008 0.3625675 0)
(-0.06286687 0.3621988 0)
(-0.07833982 0.3564251 0)
(-0.08948329 0.3455628 0)
(-0.1018313 0.3292137 0)
(-0.1113992 0.3103032 0)
(-0.1212603 0.2895194 0)
(-0.1276982 0.2724821 0)
(-0.1335098 0.2540288 0)
(-0.1385986 0.235916 0)
(-0.1432567 0.2187353 0)
(-0.1476837 0.2033398 0)
(-0.151557 0.1898002 0)
(-0.1554672 0.1772979 0)
(-0.1599333 0.1656607 0)
(-0.1652859 0.154973 0)
(-0.170837 0.1467234 0)
(-0.1781367 0.1377908 0)
(-0.185591 0.1304414 0)
(-0.1936155 0.124101 0)
(-0.2018837 0.1182886 0)
(-0.2105287 0.1126053 0)
(-0.2196113 0.1071445 0)
(-0.2289255 0.1020408 0)
(-0.2381489 0.09690658 0)
(-0.2471088 0.09093123 0)
(-0.2557909 0.08352722 0)
(-0.2641734 0.07448134 0)
(-0.2721447 0.06356174 0)
(-0.2795342 0.05063406 0)
(-0.286338 0.03621059 0)
(-0.2923936 0.02062813 0)
(-0.2973054 0.003929951 0)
(-0.3009427 -0.01356794 0)
(-0.3032577 -0.03177647 0)
(-0.3036497 -0.05052142 0)
(-0.3023213 -0.06995891 0)
(-0.2998942 -0.08969626 0)
(-0.2959927 -0.1094789 0)
(-0.2906229 -0.1291626 0)
(-0.2838244 -0.1487116 0)
(-0.275674 -0.168146 0)
(-0.266292 -0.1874729 0)
(-0.2557901 -0.2067294 0)
(-0.2445518 -0.2260826 0)
(-0.2310266 -0.2449766 0)
(-0.2196018 -0.2606292 0)
(-0.2035242 -0.2812035 0)
(-0.1849915 -0.3064945 0)
(-0.1670243 -0.3296711 0)
(-0.1494054 -0.3512259 0)
(-0.1313019 -0.3737206 0)
(-0.1125611 -0.3984789 0)
(-0.09303871 -0.4262727 0)
(-0.07290874 -0.4582294 0)
(-0.05283983 -0.4965292 0)
(-0.03154931 -0.5432161 0)
(-0.01207647 -0.5703887 0)
(-0.008333482 0.486585 0)
(-0.02548589 0.4218224 0)
(-0.04247625 0.4081246 0)
(-0.05488672 0.3988119 0)
(-0.06455306 0.3845974 0)
(-0.07193204 0.3663252 0)
(-0.07411822 0.3460992 0)
(-0.0765731 0.3232404 0)
(-0.08064448 0.300981 0)
(-0.07989265 0.2806076 0)
(-0.08001599 0.2594912 0)
(-0.07887926 0.2396772 0)
(-0.07758952 0.2218153 0)
(-0.07623474 0.2063039 0)
(-0.07494589 0.193164 0)
(-0.07401028 0.1821524 0)
(-0.07379108 0.173164 0)
(-0.07462378 0.1659842 0)
(-0.07653449 0.1604223 0)
(-0.07976568 0.1555542 0)
(-0.08429521 0.1516205 0)
(-0.09068522 0.148332 0)
(-0.09814414 0.1455359 0)
(-0.1068647 0.1422301 0)
(-0.1166399 0.1380382 0)
(-0.1273645 0.1329097 0)
(-0.1387973 0.1267033 0)
(-0.1506805 0.1190402 0)
(-0.1626966 0.1098091 0)
(-0.174494 0.09907301 0)
(-0.1857821 0.08660482 0)
(-0.1960517 0.07230554 0)
(-0.2050088 0.05619042 0)
(-0.2131636 0.03810268 0)
(-0.2203008 0.01815632 0)
(-0.225909 -0.003105987 0)
(-0.2300744 -0.02546326 0)
(-0.2326413 -0.04860482 0)
(-0.2335786 -0.0723877 0)
(-0.2329521 -0.09641037 0)
(-0.2307602 -0.120423 0)
(-0.2270411 -0.1442493 0)
(-0.2218554 -0.1677797 0)
(-0.2152792 -0.1909759 0)
(-0.2074317 -0.2138453 0)
(-0.1987167 -0.2365812 0)
(-0.1878598 -0.2587812 0)
(-0.1789686 -0.2786112 0)
(-0.1655208 -0.3027966 0)
(-0.152528 -0.3273059 0)
(-0.1390632 -0.350696 0)
(-0.1259007 -0.373558 0)
(-0.1122311 -0.3969734 0)
(-0.09797012 -0.421625 0)
(-0.0832241 -0.447893 0)
(-0.06814854 -0.4764308 0)
(-0.05290269 -0.5084051 0)
(-0.03793083 -0.5454699 0)
(-0.02286234 -0.5903409 0)
(-0.008686707 -0.6221154 0)
(-0.007005532 0.537937 0)
(-0.0217673 0.4699157 0)
(-0.03405566 0.4463995 0)
(-0.04178945 0.4263716 0)
(-0.04690406 0.4029327 0)
(-0.04896572 0.3765448 0)
(-0.05098328 0.3494095 0)
(-0.05015239 0.3238072 0)
(-0.04788733 0.297947 0)
(-0.04518764 0.2734386 0)
(-0.04173901 0.2509004 0)
(-0.03776118 0.2303839 0)
(-0.03343864 0.2123227 0)
(-0.0288863 0.1969886 0)
(-0.02433117 0.1845289 0)
(-0.02011203 0.1749456 0)
(-0.01658437 0.1680811 0)
(-0.01406553 0.1636655 0)
(-0.01301187 0.1613861 0)
(-0.01299855 0.160953 0)
(-0.01506598 0.1620348 0)
(-0.01854619 0.1636476 0)
(-0.02340017 0.1649446 0)
(-0.02946875 0.1657078 0)
(-0.03682805 0.1660311 0)
(-0.04549626 0.1656263 0)
(-0.05542237 0.1638186 0)
(-0.06624385 0.1597318 0)
(-0.07836657 0.1522341 0)
(-0.09082545 0.1411567 0)
(-0.1033311 0.1259533 0)
(-0.1162574 0.1065549 0)
(-0.1283814 0.0853306 0)
(-0.1386695 0.06484212 0)
(-0.1483059 0.04027403 0)
(-0.1560078 0.0145659 0)
(-0.1624952 -0.01245639 0)
(-0.1673249 -0.04041899 0)
(-0.1703514 -0.06895621 0)
(-0.1717009 -0.09767561 0)
(-0.1714086 -0.1262778 0)
(-0.1695525 -0.1545178 0)
(-0.1662303 -0.1822028 0)
(-0.1615353 -0.2091849 0)
(-0.1559733 -0.2353717 0)
(-0.1482657 -0.2605926 0)
(-0.1420678 -0.2836581 0)
(-0.1320393 -0.3090939 0)
(-0.1227121 -0.3338761 0)
(-0.1129054 -0.3579589 0)
(-0.1030458 -0.3820016 0)
(-0.09291974 -0.40618 0)
(-0.08249247 -0.4308641 0)
(-0.071824 -0.4564836 0)
(-0.06097575 -0.4835435 0)
(-0.04998974 -0.5127014 0)
(-0.03892426 -0.5449494 0)
(-0.02798545 -0.5821209 0)
(-0.01697805 -0.6271235 0)
(-0.006307502 -0.6604096 0)
(-0.005994793 0.5782418 0)
(-0.01714111 0.5015627 0)
(-0.02481498 0.4670884 0)
(-0.02837321 0.4377165 0)
(-0.03015775 0.4081462 0)
(-0.02975496 0.3787874 0)
(-0.03025347 0.3484336 0)
(-0.02921265 0.3189799 0)
(-0.02771253 0.2911097 0)
(-0.02545452 0.2649086 0)
(-0.02215792 0.2404432 0)
(-0.01770334 0.2180664 0)
(-0.01219666 0.1983837 0)
(-0.005852675 0.1820821 0)
(0.0009328641 0.1697777 0)
(0.007710466 0.1616489 0)
(0.01401765 0.157618 0)
(0.01906444 0.1571431 0)
(0.02280291 0.1593406 0)
(0.02458997 0.1633484 0)
(0.02510945 0.1683266 0)
(0.02362582 0.1733918 0)
(0.02047103 0.1777486 0)
(0.01574128 0.1813082 0)
(0.009541955 0.1841581 0)
(0.00210511 0.1859549 0)
(-0.006361112 0.1861005 0)
(-0.01559752 0.1838899 0)
(-0.02531948 0.1785059 0)
(-0.03520213 0.1695494 0)
(-0.04521034 0.1573204 0)
(-0.05519979 0.1413702 0)
(-0.06612612 0.1201685 0)
(-0.07630936 0.09496637 0)
(-0.08633686 0.06620711 0)
(-0.09483799 0.037624 0)
(-0.1025478 0.006163774 0)
(-0.1087081 -0.02660055 0)
(-0.1133803 -0.06011323 0)
(-0.1164347 -0.09358646 0)
(-0.1179607 -0.1266706 0)
(-0.1180323 -0.1590799 0)
(-0.1167448 -0.1905579 0)
(-0.1142432 -0.2208896 0)
(-0.110331 -0.24994 0)
(-0.1062385 -0.277624 0)
(-0.09963696 -0.3057605 0)
(-0.09322766 -0.3325809 0)
(-0.0862611 -0.3581735 0)
(-0.07907672 -0.3830723 0)
(-0.07170764 -0.4075926 0)
(-0.06423831 -0.4321269 0)
(-0.05670675 -0.4570865 0)
(-0.04914068 -0.4829065 0)
(-0.04155761 -0.5100798 0)
(-0.03397894 -0.5392201 0)
(-0.02643067 -0.5712484 0)
(-0.018985 -0.6078291 0)
(-0.01166593 -0.6518839 0)
(-0.004430456 -0.6879648 0)
(-0.004799529 0.6132448 0)
(-0.01318967 0.5250763 0)
(-0.01768775 0.4800993 0)
(-0.01961479 0.4435852 0)
(-0.02061579 0.4097695 0)
(-0.02141416 0.3785495 0)
(-0.02133875 0.3482408 0)
(-0.02139496 0.3181299 0)
(-0.02077822 0.288328 0)
(-0.01879685 0.2587664 0)
(-0.01533114 0.2299178 0)
(-0.01006569 0.2029985 0)
(-0.003079625 0.1795505 0)
(0.005561983 0.1605012 0)
(0.01557312 0.1466454 0)
(0.02658948 0.1384059 0)
(0.03740367 0.1361571 0)
(0.04828369 0.1390343 0)
(0.05799763 0.1455032 0)
(0.06682498 0.153806 0)
(0.07250692 0.1651969 0)
(0.07661473 0.1767264 0)
(0.07793269 0.1874676 0)
(0.07665901 0.1970128 0)
(0.07273346 0.2050448 0)
(0.06635689 0.2111312 0)
(0.05740622 0.2146074 0)
(0.04695446 0.2142079 0)
(0.03473919 0.2088812 0)
(0.02241069 0.1988337 0)
(0.01003176 0.1845855 0)
(-0.001492084 0.1668453 0)
(-0.01225247 0.1458783 0)
(-0.02265937 0.1215586 0)
(-0.03228516 0.0934549 0)
(-0.04165011 0.06105373 0)
(-0.04968315 0.02686013 0)
(-0.05656676 -0.00936706 0)
(-0.06212791 -0.04693792 0)
(-0.06623348 -0.0846128 0)
(-0.06904175 -0.1217761 0)
(-0.07053169 -0.1580458 0)
(-0.07070578 -0.1931985 0)
(-0.06961299 -0.2270409 0)
(-0.06761831 -0.2594769 0)
(-0.06393291 -0.2905298 0)
(-0.06037055 -0.3196734 0)
(-0.05639906 -0.3473477 0)
(-0.05201098 -0.3738643 0)
(-0.04751321 -0.3993611 0)
(-0.04296382 -0.4242379 0)
(-0.03842243 -0.4489441 0)
(-0.03391704 -0.4739559 0)
(-0.02945687 -0.499762 0)
(-0.02503699 -0.5268784 0)
(-0.02063982 -0.5559507 0)
(-0.01625242 -0.5879231 0)
(-0.01185523 -0.6244748 0)
(-0.007486941 -0.668584 0)
(-0.002903242 -0.7063878 0)
(-0.004324605 0.6382734 0)
(-0.009844813 0.5407331 0)
(-0.0121675 0.4877149 0)
(-0.01348619 0.4484128 0)
(-0.01522281 0.4146452 0)
(-0.01735757 0.3826694 0)
(-0.01875223 0.3508908 0)
(-0.01881084 0.3184115 0)
(-0.0179703 0.285353 0)
(-0.01537231 0.2511431 0)
(-0.01081579 0.2170042 0)
(-0.003869815 0.1845124 0)
(0.005847901 0.1551394 0)
(0.01834811 0.1302252 0)
(0.03258041 0.1116427 0)
(0.04791773 0.1004551 0)
(0.06227607 0.09685375 0)
(0.07771937 0.09928061 0)
(0.09211564 0.1083227 0)
(0.1049037 0.1233349 0)
(0.1166469 0.1409042 0)
(0.1267336 0.1595436 0)
(0.1344733 0.1785482 0)
(0.1393647 0.1971484 0)
(0.1409177 0.214587 0)
(0.1387489 0.2300038 0)
(0.1330169 0.2420264 0)
(0.1230783 0.2488473 0)
(0.1111376 0.248242 0)
(0.09519279 0.2395556 0)
(0.07863553 0.2246418 0)
(0.0619394 0.2047894 0)
(0.04617019 0.1805797 0)
(0.03155222 0.1522872 0)
(0.0185314 0.1206 0)
(0.007076106 0.08610016 0)
(-0.002609268 0.04886781 0)
(-0.01088898 0.008781434 0)
(-0.0172167 -0.03277168 0)
(-0.02196015 -0.07374175 0)
(-0.02567823 -0.1142993 0)
(-0.02813201 -0.154235 0)
(-0.02956842 -0.1929861 0)
(-0.0300351 -0.2301526 0)
(-0.02932179 -0.2653376 0)
(-0.02878316 -0.2981361 0)
(-0.02640519 -0.3289046 0)
(-0.02429815 -0.3574283 0)
(-0.02208822 -0.3840186 0)
(-0.01991509 -0.409275 0)
(-0.01783222 -0.4337734 0)
(-0.01585146 -0.4580712 0)
(-0.01396612 -0.4827076 0)
(-0.0121588 -0.5082113 0)
(-0.01040388 -0.5351382 0)
(-0.008670505 -0.5641262 0)
(-0.006948681 -0.5960741 0)
(-0.005177929 -0.6326001 0)
(-0.00356256 -0.6767663 0)
(-0.001584704 -0.7169943 0)
(-0.004496576 0.6618179 0)
(-0.007741329 0.5506629 0)
(-0.009421066 0.4927275 0)
(-0.01119063 0.4543791 0)
(-0.01299964 0.4221347 0)
(-0.01469658 0.3894857 0)
(-0.0146807 0.3544997 0)
(-0.01524709 0.3176883 0)
(-0.01262549 0.2796193 0)
(-0.008532703 0.2394401 0)
(-0.001400469 0.1980624 0)
(0.009623987 0.1566754 0)
(0.02515566 0.1170101 0)
(0.04281593 0.0848371 0)
(0.06163159 0.06345523 0)
(0.0787591 0.05365924 0)
(0.09740931 0.05110535 0)
(0.1148712 0.05621247 0)
(0.1322536 0.06761284 0)
(0.1485719 0.08426686 0)
(0.1644946 0.1033551 0)
(0.1782266 0.126185 0)
(0.190105 0.1517666 0)
(0.1994137 0.1790477 0)
(0.2056296 0.207055 0)
(0.2082469 0.2345108 0)
(0.206635 0.2588806 0)
(0.2009954 0.2774938 0)
(0.1891468 0.2893977 0)
(0.1748685 0.2908557 0)
(0.1538646 0.2802826 0)
(0.132004 0.2597291 0)
(0.1098447 0.2322831 0)
(0.0891281 0.1997544 0)
(0.07043473 0.1629134 0)
(0.05401847 0.1220573 0)
(0.03978365 0.07783928 0)
(0.02865566 0.03179652 0)
(0.02018761 -0.01533102 0)
(0.01386685 -0.06081811 0)
(0.00955249 -0.1046727 0)
(0.006296758 -0.146962 0)
(0.004019869 -0.1878954 0)
(0.002415291 -0.2270126 0)
(0.001301545 -0.2638862 0)
(0.0008635691 -0.2983598 0)
(-0.0005398327 -0.3300729 0)
(-0.0007635622 -0.3589599 0)
(-0.001260774 -0.3857822 0)
(-0.001583081 -0.4111762 0)
(-0.00185394 -0.4357536 0)
(-0.002103784 -0.4601028 0)
(-0.002348638 -0.4847894 0)
(-0.002582772 -0.5103636 0)
(-0.002781364 -0.5373903 0)
(-0.002905209 -0.5665286 0)
(-0.002879391 -0.5986952 0)
(-0.00260153 -0.6354813 0)
(-0.00204878 -0.6800269 0)
(-0.0006617309 -0.7227295 0)
(-0.003880471 0.6800529 0)
(-0.005560602 0.5588956 0)
(-0.006947489 0.4996624 0)
(-0.007947694 0.4607777 0)
(-0.008321886 0.4259448 0)
(-0.008004438 0.3906762 0)
(-0.007921097 0.3536857 0)
(-0.00445666 0.3127622 0)
(0.0002043978 0.2678565 0)
(0.008006566 0.219417 0)
(0.02066631 0.1664831 0)
(0.03953346 0.1097731 0)
(0.06318447 0.05851669 0)
(0.08258756 0.0299297 0)
(0.1041718 0.009419949 0)
(0.1253369 -0.002283517 0)
(0.1461795 -0.005566639 0)
(0.1660022 -0.0009574493 0)
(0.1844042 0.01148695 0)
(0.2009429 0.03140235 0)
(0.2157051 0.0563607 0)
(0.2283846 0.0855976 0)
(0.2390763 0.117547 0)
(0.2472274 0.1522151 0)
(0.2530387 0.1888156 0)
(0.2563128 0.2264666 0)
(0.2563519 0.2631191 0)
(0.2520429 0.2966867 0)
(0.2438228 0.3237335 0)
(0.229758 0.3415326 0)
(0.2145291 0.3444937 0)
(0.1920421 0.3310276 0)
(0.1678743 0.3028821 0)
(0.1430523 0.2647892 0)
(0.1199103 0.2208719 0)
(0.09946561 0.1729462 0)
(0.08185301 0.1209478 0)
(0.06740124 0.06516287 0)
(0.05644933 0.008368431 0)
(0.04970222 -0.04262263 0)
(0.04460213 -0.09246338 0)
(0.04077492 -0.1387288 0)
(0.03814241 -0.1821248 0)
(0.03609293 -0.2230542 0)
(0.03504566 -0.2607429 0)
(0.03380611 -0.2949782 0)
(0.03275206 -0.3264153 0)
(0.03133123 -0.3556918 0)
(0.02973742 -0.382774 0)
(0.02785755 -0.4082376 0)
(0.02568521 -0.432729 0)
(0.02323859 -0.4569098 0)
(0.02055345 -0.4814235 0)
(0.01768118 -0.5068941 0)
(0.01468666 -0.5339507 0)
(0.01163937 -0.5633026 0)
(0.00864738 -0.5959578 0)
(0.005655836 -0.6336308 0)
(0.003236379 -0.67929 0)
(0.0002927593 -0.7230125 0)
(-0.002465448 0.6953841 0)
(-0.003397574 0.564706 0)
(-0.003752757 0.5019855 0)
(-0.003314164 0.4607428 0)
(-0.00275864 0.4255243 0)
(-0.0007001104 0.3884385 0)
(0.003871455 0.3450271 0)
(0.0103868 0.2966164 0)
(0.01951858 0.2437817 0)
(0.03346953 0.182004 0)
(0.05538042 0.1086467 0)
(0.08358132 0.03626957 0)
(0.1042306 -0.003214777 0)
(0.1276357 -0.03534937 0)
(0.1489891 -0.05647104 0)
(0.1683929 -0.06657702 0)
(0.1854369 -0.06464835 0)
(0.2004808 -0.05287146 0)
(0.2142055 -0.03217519 0)
(0.2249798 -0.005902956 0)
(0.2339092 0.02429406 0)
(0.2422971 0.05861943 0)
(0.2486049 0.09735785 0)
(0.2536464 0.1382036 0)
(0.2571219 0.1802799 0)
(0.2585715 0.2239314 0)
(0.2581112 0.2692586 0)
(0.2540009 0.3133526 0)
(0.2477667 0.3487332 0)
(0.2385168 0.3744986 0)
(0.2257953 0.3894226 0)
(0.2125555 0.3896347 0)
(0.194497 0.3715784 0)
(0.174273 0.3357697 0)
(0.1528742 0.2867936 0)
(0.1327496 0.230343 0)
(0.1151282 0.1691595 0)
(0.1003782 0.1036675 0)
(0.08911539 0.0356103 0)
(0.08253817 -0.0282944 0)
(0.07849196 -0.07910485 0)
(0.07459781 -0.1286626 0)
(0.071453 -0.1747271 0)
(0.06876749 -0.2176097 0)
(0.06571823 -0.2566844 0)
(0.06287385 -0.2913611 0)
(0.06018908 -0.3221386 0)
(0.05666056 -0.3499641 0)
(0.05284058 -0.3755094 0)
(0.04852727 -0.3994848 0)
(0.04382678 -0.4226287 0)
(0.0388203 -0.4456609 0)
(0.03360238 -0.4692616 0)
(0.02828015 -0.4940661 0)
(0.02296759 -0.5207041 0)
(0.01778667 -0.5499006 0)
(0.01284505 -0.5826007 0)
(0.008351219 -0.62045 0)
(0.004255465 -0.666844 0)
(0.001259382 -0.714454 0)
(-0.0001039471 0.7025929 0)
(-0.0008852426 0.5680897 0)
(-0.000749688 0.5018753 0)
(0.000595231 0.4596066 0)
(0.003791735 0.4196879 0)
(0.009455853 0.3742314 0)
(0.01754638 0.3237357 0)
(0.02800041 0.2686715 0)
(0.04203257 0.2028559 0)
(0.06514723 0.1179798 0)
(0.09642385 0.02348351 0)
(0.1160429 -0.02632917 0)
(0.1361901 -0.0686701 0)
(0.1534832 -0.09568482 0)
(0.1682336 -0.1080072 0)
(0.1803141 -0.1070274 0)
(0.1906268 -0.09777271 0)
(0.1986977 -0.08212143 0)
(0.2044616 -0.06105499 0)
(0.210566 -0.02299585 0)
(0.2137556 0.004652442 0)
(0.2178535 0.04303437 0)
(0.2216488 0.08454703 0)
(0.2243797 0.1282648 0)
(0.2261669 0.173967 0)
(0.2271618 0.2232369 0)
(0.2254098 0.2762108 0)
(0.2222275 0.3270051 0)
(0.2146281 0.3702116 0)
(0.2083487 0.4011635 0)
(0.1998046 0.4193572 0)
(0.1931522 0.421687 0)
(0.1844557 0.4104749 0)
(0.1748284 0.3836444 0)
(0.1629016 0.3387154 0)
(0.1504237 0.2802258 0)
(0.1384465 0.2130031 0)
(0.1276619 0.1390466 0)
(0.1190359 0.06005218 0)
(0.1138673 -0.01472101 0)
(0.1107382 -0.06831844 0)
(0.1075144 -0.119277 0)
(0.1042318 -0.1654966 0)
(0.1010575 -0.2073013 0)
(0.09670583 -0.2451971 0)
(0.09204268 -0.2790452 0)
(0.08663241 -0.3089326 0)
(0.08069565 -0.335564 0)
(0.07426696 -0.3599533 0)
(0.06744076 -0.382975 0)
(0.06033102 -0.4054472 0)
(0.05305474 -0.428112 0)
(0.04572758 -0.4516738 0)
(0.03846255 -0.4768106 0)
(0.03137214 -0.504171 0)
(0.02456074 -0.5344722 0)
(0.0181418 -0.5687294 0)
(0.01218199 -0.6086647 0)
(0.00692964 -0.6575981 0)
(0.002037706 -0.7066451 0)
(0.0007124482 0.7059015 0)
(0.000239005 0.5688849 0)
(0.0007899228 0.5006208 0)
(0.003950568 0.4508841 0)
(0.009825234 0.4026375 0)
(0.01809488 0.3504774 0)
(0.02878266 0.2937129 0)
(0.04277692 0.2276255 0)
(0.06525623 0.1387442 0)
(0.09626974 0.02614106 0)
(0.113356 -0.03285185 0)
(0.1292276 -0.07979468 0)
(0.1417455 -0.1096818 0)
(0.1503964 -0.127553 0)
(0.1562851 -0.1337278 0)
(0.1590525 -0.1303585 0)
(0.1614341 -0.1159916 0)
(0.1622066 -0.09377543 0)
(0.1617904 -0.06604862 0)
(0.1628796 -0.03317347 0)
(0.1638981 0.004703952 0)
(0.1646765 0.03598463 0)
(0.1670666 0.07823374 0)
(0.1689794 0.123736 0)
(0.1706824 0.1716912 0)
(0.171782 0.224012 0)
(0.1720525 0.2828231 0)
(0.170813 0.3393856 0)
(0.1704039 0.384994 0)
(0.1689743 0.4162832 0)
(0.1670277 0.4325912 0)
(0.1647906 0.4339604 0)
(0.1632562 0.4228422 0)
(0.1609448 0.3972905 0)
(0.158134 0.355604 0)
(0.1550777 0.2997825 0)
(0.1516327 0.2341437 0)
(0.1480563 0.1594172 0)
(0.1444809 0.07568322 0)
(0.1418475 -0.005910122 0)
(0.1396262 -0.05989208 0)
(0.1363419 -0.1105978 0)
(0.132872 -0.1554849 0)
(0.1276946 -0.1960885 0)
(0.1224286 -0.2312959 0)
(0.1156535 -0.2624348 0)
(0.1081477 -0.290036 0)
(0.09994327 -0.3149068 0)
(0.09126096 -0.3379406 0)
(0.08227651 -0.3600135 0)
(0.07313909 -0.3819206 0)
(0.0639568 -0.4043725 0)
(0.05483235 -0.4280442 0)
(0.04587922 -0.4535435 0)
(0.03724105 -0.4814647 0)
(0.02904955 -0.5125071 0)
(0.02138697 -0.5476092 0)
(0.01435877 -0.5884013 0)
(0.008004439 -0.6381979 0)
(0.002398243 -0.689672 0)
(0.00108299 0.7082984 0)
(-0.0004244611 0.5689157 0)
(0.0008049953 0.4938013 0)
(0.00499462 0.4363806 0)
(0.01176955 0.3805451 0)
(0.0211945 0.3214176 0)
(0.03427064 0.2541693 0)
(0.05239203 0.1658127 0)
(0.0806333 0.04870644 0)
(0.09665496 -0.01762591 0)
(0.1076003 -0.07074721 0)
(0.1145143 -0.1071561 0)
(0.1174147 -0.128817 0)
(0.1165609 -0.1361133 0)
(0.1136819 -0.1333054 0)
(0.1088631 -0.1224633 0)
(0.1034327 -0.1062219 0)
(0.09849394 -0.08545258 0)
(0.0944738 -0.06061369 0)
(0.09160782 -0.031809 0)
(0.0907983 0.0009133414 0)
(0.09035126 0.03280501 0)
(0.09039774 0.07280572 0)
(0.09152281 0.1172956 0)
(0.09349537 0.1659113 0)
(0.09616667 0.219522 0)
(0.09994697 0.2780992 0)
(0.1047197 0.3325578 0)
(0.1108753 0.376687 0)
(0.1177095 0.4087496 0)
(0.1255684 0.4275003 0)
(0.1329968 0.4311915 0)
(0.1390306 0.4223299 0)
(0.1452015 0.3977805 0)
(0.150974 0.3555178 0)
(0.1556604 0.2984807 0)
(0.1594799 0.2325611 0)
(0.1621067 0.1595701 0)
(0.1636515 0.07826875 0)
(0.163835 -0.001949289 0)
(0.1623164 -0.05235999 0)
(0.1592058 -0.09967962 0)
(0.1542665 -0.1416322 0)
(0.1482515 -0.1781913 0)
(0.1406107 -0.210471 0)
(0.1319902 -0.2389082 0)
(0.1225243 -0.2643775 0)
(0.1124603 -0.2877528 0)
(0.1020036 -0.3099371 0)
(0.09132807 -0.3316928 0)
(0.08058223 -0.3536301 0)
(0.0699209 -0.3763078 0)
(0.05944669 -0.4004539 0)
(0.04926123 -0.4269378 0)
(0.03961265 -0.4563774 0)
(0.03071223 -0.4893053 0)
(0.02261321 -0.5266459 0)
(0.01528424 -0.5700432 0)
(0.008689678 -0.6227912 0)
(0.002741825 -0.6768297 0)
(-5.706643e-05 0.7127924 0)
(-0.001852211 0.570759 0)
(-0.001095357 0.487587 0)
(0.002912237 0.4221385 0)
(0.009532867 0.3582916 0)
(0.01996664 0.2874832 0)
(0.03537894 0.2023361 0)
(0.05606416 0.1015531 0)
(0.07222538 0.004681394 0)
(0.07893356 -0.04595637 0)
(0.08217916 -0.08432878 0)
(0.08066433 -0.1070098 0)
(0.07508408 -0.1168474 0)
(0.06795508 -0.1174859 0)
(0.05935141 -0.1116993 0)
(0.05067088 -0.1010151 0)
(0.04239105 -0.08623972 0)
(0.03451805 -0.06778903 0)
(0.02777307 -0.0463289 0)
(0.02225643 -0.02141404 0)
(0.0176181 0.007421211 0)
(0.01401435 0.03911876 0)
(0.01125235 0.07527589 0)
(0.01042874 0.1151153 0)
(0.0111143 0.1583349 0)
(0.01536106 0.205836 0)
(0.02191141 0.2580992 0)
(0.03205098 0.3081687 0)
(0.0440443 0.3478626 0)
(0.05744322 0.3755709 0)
(0.07205274 0.3916256 0)
(0.08826998 0.3955373 0)
(0.1034504 0.3876284 0)
(0.11993 0.3634255 0)
(0.1351296 0.3248869 0)
(0.1487803 0.2754838 0)
(0.1598474 0.2162986 0)
(0.1685707 0.1477148 0)
(0.1748364 0.0706127 0)
(0.1766042 -0.00214062 0)
(0.1751611 -0.04631554 0)
(0.1714001 -0.08800011 0)
(0.1656963 -0.1244923 0)
(0.1581732 -0.1567989 0)
(0.1492985 -0.185391 0)
(0.1393328 -0.2111103 0)
(0.1285734 -0.2347088 0)
(0.1173408 -0.2567927 0)
(0.1058456 -0.2780617 0)
(0.09417008 -0.2993308 0)
(0.08244636 -0.3212704 0)
(0.07084124 -0.3444536 0)
(0.05953542 -0.3695358 0)
(0.04874906 -0.3973999 0)
(0.03872016 -0.4288994 0)
(0.02975914 -0.4642958 0)
(0.021889 -0.503698 0)
(0.01488678 -0.5485297 0)
(0.008439674 -0.6022768 0)
(0.002618474 -0.6576386 0)
(-0.0006946457 0.7219912 0)
(-0.003770904 0.5730046 0)
(-0.004089362 0.4821093 0)
(-0.00104557 0.4080178 0)
(0.005804267 0.3327995 0)
(0.01729318 0.247003 0)
(0.03284292 0.1503674 0)
(0.04748281 0.05698262 0)
(0.05329385 -0.01144724 0)
(0.05328289 -0.04875345 0)
(0.04981122 -0.0747529 0)
(0.04306752 -0.08825903 0)
(0.03432575 -0.09274408 0)
(0.02490923 -0.09101013 0)
(0.01500883 -0.08451646 0)
(0.00524879 -0.07424199 0)
(-0.004373064 -0.06067562 0)
(-0.01294131 -0.04468384 0)
(-0.02138032 -0.02523252 0)
(-0.02889998 -0.002984392 0)
(-0.03538694 0.02276405 0)
(-0.04068561 0.05116184 0)
(-0.04452409 0.08251715 0)
(-0.04647663 0.1165664 0)
(-0.04580512 0.1527123 0)
(-0.04302756 0.190191 0)
(-0.03554064 0.2302686 0)
(-0.02350309 0.2704577 0)
(-0.007825212 0.3042245 0)
(0.01028542 0.3277758 0)
(0.02988046 0.3401152 0)
(0.05166055 0.3414038 0)
(0.07265322 0.3320607 0)
(0.09536743 0.3085452 0)
(0.1162089 0.2734114 0)
(0.1354743 0.2287217 0)
(0.1522775 0.1761033 0)
(0.1655438 0.117322 0)
(0.1739559 0.05513512 0)
(0.1757846 -0.002142109 0)
(0.1738523 -0.03802061 0)
(0.1694141 -0.07276833 0)
(0.1629596 -0.1039328 0)
(0.1548417 -0.1318673 0)
(0.1454621 -0.1570278 0)
(0.1351355 -0.1801138 0)
(0.124062 -0.2019668 0)
(0.1124896 -0.2231717 0)
(0.1006412 -0.2441312 0)
(0.08871946 -0.2653479 0)
(0.076895 -0.2874991 0)
(0.06534337 -0.3113671 0)
(0.05429336 -0.3378383 0)
(0.04400408 -0.367901 0)
(0.03471797 -0.4024186 0)
(0.02662232 -0.4414706 0)
(0.01962731 -0.4841151 0)
(0.01343968 -0.5312798 0)
(0.007657108 -0.5874015 0)
(0.002443445 -0.6454877 0)
(-0.0003822402 0.7339376 0)
(-0.004946624 0.581741 0)
(-0.00653876 0.4820126 0)
(-0.003820025 0.3956653 0)
(0.003424002 0.3056012 0)
(0.014541 0.2090523 0)
(0.02618705 0.1159168 0)
(0.0323355 0.04135983 0)
(0.03172791 -0.008233457 0)
(0.02751527 -0.03688277 0)
(0.02090453 -0.05468479 0)
(0.01248702 -0.06319235 0)
(0.003158602 -0.06512808 0)
(-0.00655242 -0.06224818 0)
(-0.01626471 -0.05563119 0)
(-0.02586812 -0.04598054 0)
(-0.03505261 -0.03391192 0)
(-0.04383642 -0.01913043 0)
(-0.05215136 -0.001303944 0)
(-0.05969233 0.01876857 0)
(-0.06624143 0.0410976 0)
(-0.07148351 0.06548442 0)
(-0.07507679 0.09167698 0)
(-0.0766595 0.119249 0)
(-0.07565581 0.1473769 0)
(-0.0717995 0.1752705 0)
(-0.06423623 0.2025019 0)
(-0.05228541 0.2289383 0)
(-0.03591371 0.2517189 0)
(-0.01620388 0.267683 0)
(0.005961476 0.2749771 0)
(0.02944436 0.2733756 0)
(0.05355475 0.2622289 0)
(0.07790418 0.2404126 0)
(0.1005777 0.2099647 0)
(0.1208588 0.1724609 0)
(0.1376847 0.1301942 0)
(0.1499627 0.08559229 0)
(0.1569457 0.04057284 0)
(0.1580661 -0.0007066747 0)
(0.1561279 -0.02891123 0)
(0.1520252 -0.05717941 0)
(0.1460341 -0.08326535 0)
(0.1385994 -0.1071996 0)
(0.1299993 -0.1294368 0)
(0.1204928 -0.1503759 0)
(0.1103097 -0.1705097 0)
(0.09962463 -0.1904336 0)
(0.08863185 -0.210757 0)